<event>
 4    1  0.1521315E-007  0.1380031E+04  0.7818608E-02  0.8999357E-01
         -1   -1    0    0    0  501 -0.00000000000E+00  0.00000000000E+00  0.37064469271E+04  0.37064469271E+04  0.50400000000E-02 0.  1.
          1   -1    0    0  501    0  0.00000000000E+00 -0.00000000000E+00 -0.75488839917E+03  0.75488839918E+03  0.50400000000E-02 0. -1.
    8880023    1    1    2    0    0  0.10030413028E+04  0.68160323858E+03  0.12969111511E+03  0.13861114030E+04  0.65864270000E+03 0. -1.
    8880022    1    1    2    0    0 -0.10030413028E+04 -0.68160323858E+03  0.28218674129E+04  0.30752239233E+04  0.15294330000E+03 0.  0.
<mgrwt>
<rscale>  0 0.13387911E+04</rscale>
<asrwt>0</asrwt>
<pdfrwt beam="1">  1        1 0.11613667E+00 0.13800308E+04</pdfrwt>
<pdfrwt beam="2">  1       -1 0.57022262E+00 0.13800308E+04</pdfrwt>
<totfact> 0.13577287E-02</totfact>
</mgrwt>
</event>
<event>
 4    1  0.1521315E-007  0.7996685E+03  0.7818608E-02  0.9711513E-01
         -1   -1    0    0    0  501 -0.00000000000E+00  0.00000000000E+00  0.15004665188E+04  0.15004665188E+04  0.50400000000E-02 0.  1.
          1   -1    0    0  501    0  0.00000000000E+00 -0.00000000000E+00 -0.27438435380E+03  0.27438435384E+03  0.50400000000E-02 0. -1.
    8880023    1    1    2    0    0  0.14880750141E+03  0.42838741417E+03  0.68987807266E+03  0.10561256604E+04  0.65864270000E+03 0.  0.
    8880022    1    1    2    0    0 -0.14880750141E+03 -0.42838741417E+03  0.53620409234E+03  0.71872521227E+03  0.15294330000E+03 0.  0.
<mgrwt>
<rscale>  0 0.70335410E+03</rscale>
<asrwt>0</asrwt>
<pdfrwt beam="1">  1        1 0.42212978E-01 0.79966847E+03</pdfrwt>
<pdfrwt beam="2">  1       -1 0.23084100E+00 0.79966847E+03</pdfrwt>
<totfact> 0.94314156E+00</totfact>
</mgrwt>
</event>
<event>
 4    1  0.1521315E-007  0.9725392E+03  0.7818608E-02  0.9418401E-01
          1   -1    0    0  501    0  0.00000000000E+00  0.00000000000E+00  0.19885445732E+04  0.19885445732E+04  0.50400000000E-02 0. -1.
         -1   -1    0    0    0  501 -0.00000000000E+00 -0.00000000000E+00 -0.44475471604E+03  0.44475471607E+03  0.50400000000E-02 0.  1.
    8880023    1    1    2    0    0  0.68135358470E+03  0.21858527761E+03  0.13719212282E+04  0.16816659281E+04  0.65864270000E+03 0.  0.
    8880022    1    1    2    0    0 -0.68135358470E+03 -0.21858527761E+03  0.17186862889E+03  0.75163336114E+03  0.15294330000E+03 0.  0.
<mgrwt>
<rscale>  0 0.90576708E+03</rscale>
<asrwt>0</asrwt>
<pdfrwt beam="1">  1        1 0.30592994E+00 0.97253917E+03</pdfrwt>
<pdfrwt beam="2">  1       -1 0.68423802E-01 0.97253917E+03</pdfrwt>
<totfact> 0.66555518E+00</totfact>
</mgrwt>
</event>
<event>
 4    1  0.1521315E-007  0.8399903E+03  0.7818608E-02  0.9630199E-01
          1   -1    0    0  501    0  0.00000000000E+00  0.00000000000E+00  0.74047106489E+03  0.74047106491E+03  0.50400000000E-02 0. -1.
         -1   -1    0    0    0  501 -0.00000000000E+00 -0.00000000000E+00 -0.77076201771E+03  0.77076201772E+03  0.50400000000E-02 0.  1.
    8880023    1    1    2    0    0  0.35552048334E+03 -0.38128549225E+03  0.28018274895E+03  0.88548631822E+03  0.65864270000E+03 0.  0.
    8880022    1    1    2    0    0 -0.35552048334E+03  0.38128549225E+03 -0.31047370177E+03  0.62574676442E+03  0.15294330000E+03 0.  0.
<mgrwt>
<rscale>  0 0.75329280E+03</rscale>
<asrwt>0</asrwt>
<pdfrwt beam="1">  1        1 0.11391863E+00 0.83999027E+03</pdfrwt>
<pdfrwt beam="2">  1       -1 0.11857877E+00 0.83999027E+03</pdfrwt>
<totfact> 0.16210356E+01</totfact>
</mgrwt>
</event>
<event>
 4    1  0.1521315E-007  0.6925547E+03  0.7818608E-02  0.1002961E+00
          1   -1    0    0  501    0  0.00000000000E+00  0.00000000000E+00  0.14228349233E+04  0.14228349234E+04  0.50400000000E-02 0. -1.
         -1   -1    0    0    0  501 -0.00000000000E+00 -0.00000000000E+00 -0.10801594973E+04  0.10801594973E+04  0.50400000000E-02 0.  1.
    8880023    1    1    2    0    0  0.63634033515E+02  0.20438318296E+03  0.13201249250E+04  0.14907588000E+04  0.65864270000E+03 0. -1.
    8880022    1    1    2    0    0 -0.63634033515E+02 -0.20438318296E+03 -0.97744949902E+03  0.10122356207E+04  0.15294330000E+03 0.  0.
<mgrwt>
<rscale>  0 0.54370628E+03</rscale>
<asrwt>0</asrwt>
<pdfrwt beam="1">  1        1 0.21889768E+00 0.69255468E+03</pdfrwt>
<pdfrwt beam="2">  1       -1 0.16617838E+00 0.69255468E+03</pdfrwt>
<totfact> 0.20577037E+00</totfact>
</mgrwt>
</event>
<event>
 4    1  0.1521315E-007  0.7343479E+03  0.7818608E-02  0.9876728E-01
          1   -1    0    0  501    0  0.00000000000E+00  0.00000000000E+00  0.65698928412E+03  0.65698928413E+03  0.50400000000E-02 0. -1.
         -1   -1    0    0    0  501 -0.00000000000E+00 -0.00000000000E+00 -0.10208507752E+04  0.10208507752E+04  0.50400000000E-02 0.  1.
    8880023    1    1    2    0    0  0.24036631428E+03 -0.21835903590E+03  0.39827856970E+03  0.83539970011E+03  0.65864270000E+03 0. -1.
    8880022    1    1    2    0    0 -0.24036631428E+03  0.21835903590E+03 -0.76214006076E+03  0.84244035921E+03  0.15294330000E+03 0.  0.
<mgrwt>
<rscale>  0 0.61402524E+03</rscale>
<asrwt>0</asrwt>
<pdfrwt beam="1">  1        1 0.10107528E+00 0.73434790E+03</pdfrwt>
<pdfrwt beam="2">  1       -1 0.15705396E+00 0.73434790E+03</pdfrwt>
<totfact> 0.95300138E+00</totfact>
</mgrwt>
</event>
<event>
 4    1  0.1521315E-007  0.1043453E+04  0.7818608E-02  0.9326793E-01
          1   -1    0    0  501    0  0.00000000000E+00  0.00000000000E+00  0.90199100082E+03  0.90199100084E+03  0.50400000000E-02 0. -1.
         -1   -1    0    0    0  501 -0.00000000000E+00 -0.00000000000E+00 -0.10486557500E+04  0.10486557500E+04  0.50400000000E-02 0.  1.
    8880023    1    1    2    0    0 -0.80103330807E+03 -0.11545335655E+03 -0.35302380444E+03  0.11015533809E+04  0.65864270000E+03 0.  0.
    8880022    1    1    2    0    0  0.80103330807E+03  0.11545335655E+03  0.20635905529E+03  0.84909336994E+03  0.15294330000E+03 0.  0.
<mgrwt>
<rscale>  0 0.98353183E+03</rscale>
<asrwt>0</asrwt>
<pdfrwt beam="1">  1        1 0.13876785E+00 0.10434529E+04</pdfrwt>
<pdfrwt beam="2">  1       -1 0.16133165E+00 0.10434529E+04</pdfrwt>
<totfact> 0.51650126E+00</totfact>
</mgrwt>
</event>
<event>
 4    1  0.1521315E-007  0.6726273E+03  0.7818608E-02  0.1013845E+00
         -1   -1    0    0    0  501 -0.00000000000E+00  0.00000000000E+00  0.76731233012E+03  0.76731233013E+03  0.50400000000E-02 0.  1.
          1   -1    0    0  501    0  0.00000000000E+00 -0.00000000000E+00 -0.38546569310E+03  0.38546569314E+03  0.50400000000E-02 0. -1.
    8880023    1    1    2    0    0  0.40990758436E+02  0.13014257645E+03 -0.50283897000E+02  0.67450426911E+03  0.65864270000E+03 0. -1.
    8880022    1    1    2    0    0 -0.40990758436E+02 -0.13014257645E+03  0.43213053401E+03  0.47827375416E+03  0.15294330000E+03 0.  0.
<mgrwt>
<rscale>  0 0.49974523E+03</rscale>
<asrwt>0</asrwt>
<pdfrwt beam="1">  1        1 0.59302415E-01 0.67262734E+03</pdfrwt>
<pdfrwt beam="2">  1       -1 0.11804805E+00 0.67262734E+03</pdfrwt>
<totfact> 0.41783436E+01</totfact>
</mgrwt>
</event>
<event>
 4    1  0.1521315E-007  0.7041596E+03  0.7818608E-02  0.9980364E-01
          1   -1    0    0  501    0  0.00000000000E+00  0.00000000000E+00  0.93147404671E+03  0.93147404673E+03  0.50400000000E-02 0. -1.
         -1   -1    0    0    0  501 -0.00000000000E+00 -0.00000000000E+00 -0.59339009675E+03  0.59339009677E+03  0.50400000000E-02 0.  1.
    8880023    1    1    2    0    0 -0.20651192467E+03  0.13922423091E+03  0.74418414560E+03  0.10245246753E+04  0.65864270000E+03 0. -1.
    8880022    1    1    2    0    0  0.20651192467E+03 -0.13922423091E+03 -0.40610019564E+03  0.50033946818E+03  0.15294330000E+03 0.  0.
<mgrwt>
<rscale>  0 0.56519679E+03</rscale>
<asrwt>0</asrwt>
<pdfrwt beam="1">  1        1 0.14330370E+00 0.70415962E+03</pdfrwt>
<pdfrwt beam="2">  1       -1 0.91290784E-01 0.70415962E+03</pdfrwt>
<totfact> 0.20762309E+01</totfact>
</mgrwt>
</event>
<event>
 4    1  0.1521315E-007  0.6739902E+03  0.7818608E-02  0.1012950E+00
          1   -1    0    0  501    0  0.00000000000E+00  0.00000000000E+00  0.63689498522E+03  0.63689498524E+03  0.50400000000E-02 0. -1.
         -1   -1    0    0    0  501 -0.00000000000E+00 -0.00000000000E+00 -0.13059831932E+04  0.13059831932E+04  0.50400000000E-02 0.  1.
    8880023    1    1    2    0    0  0.97694540964E+02 -0.10444287327E+03  0.44606908443E+03  0.80823286957E+03  0.65864270000E+03 0. -1.
    8880022    1    1    2    0    0 -0.97694540964E+02  0.10444287327E+03 -0.11151572924E+04  0.11346453089E+04  0.15294330000E+03 0.  0.
<mgrwt>
<rscale>  0 0.50318673E+03</rscale>
<asrwt>0</asrwt>
<pdfrwt beam="1">  1        1 0.97983844E-01 0.67399017E+03</pdfrwt>
<pdfrwt beam="2">  1       -1 0.20092049E+00 0.67399017E+03</pdfrwt>
<totfact> 0.48830186E+00</totfact>
</mgrwt>
</event>
<event>
 4    1  0.1521315E-007  0.7541936E+03  0.7818608E-02  0.9820378E-01
         -1   -1    0    0    0  501 -0.00000000000E+00  0.00000000000E+00  0.64867637691E+03  0.64867637693E+03  0.50400000000E-02 0.  1.
          1   -1    0    0  501    0  0.00000000000E+00 -0.00000000000E+00 -0.57222041414E+03  0.57222041416E+03  0.50400000000E-02 0. -1.
    8880023    1    1    2    0    0 -0.20065589739E+02  0.36687209616E+03 -0.14118141760E+03  0.76729405170E+03  0.65864270000E+03 0. -1.
    8880022    1    1    2    0    0  0.20065589739E+02 -0.36687209616E+03  0.21763738038E+03  0.45360273939E+03  0.15294330000E+03 0.  0.
<mgrwt>
<rscale>  0 0.64280300E+03</rscale>
<asrwt>0</asrwt>
<pdfrwt beam="1">  1        1 0.88033909E-01 0.75419359E+03</pdfrwt>
<pdfrwt beam="2">  1       -1 0.99796366E-01 0.75419359E+03</pdfrwt>
<totfact> 0.35915364E+01</totfact>
</mgrwt>
</event>
<event>
 4    1  0.1521315E-007  0.6809878E+03  0.7818608E-02  0.1008770E+00
         -1   -1    0    0    0  501 -0.00000000000E+00  0.00000000000E+00  0.75142619223E+03  0.75142619225E+03  0.50400000000E-02 0.  1.
          1   -1    0    0  501    0  0.00000000000E+00 -0.00000000000E+00 -0.20287939789E+04  0.20287939789E+04  0.50400000000E-02 0. -1.
    8880023    1    1    2    0    0 -0.10392047428E+03 -0.13832824531E+03 -0.19518852460E+04  0.20672688234E+04  0.65864270000E+03 0. -1.
    8880022    1    1    2    0    0  0.10392047428E+03  0.13832824531E+03  0.67451745928E+03  0.71295134779E+03  0.15294330000E+03 0.  0.
<mgrwt>
<rscale>  0 0.51966287E+03</rscale>
<asrwt>0</asrwt>
<pdfrwt beam="1">  1        1 0.31212215E+00 0.68098779E+03</pdfrwt>
<pdfrwt beam="2">  1       -1 0.11560403E+00 0.68098779E+03</pdfrwt>
<totfact> 0.20665755E+00</totfact>
</mgrwt>
</event>
<event>
 4    1  0.1521315E-007  0.1305433E+04  0.7818608E-02  0.9060883E-01
         -1   -1    0    0    0  501 -0.00000000000E+00  0.00000000000E+00  0.11024582861E+04  0.11024582861E+04  0.50400000000E-02 0.  1.
          1   -1    0    0  501    0  0.00000000000E+00 -0.00000000000E+00 -0.17937481058E+04  0.17937481058E+04  0.50400000000E-02 0. -1.
    8880023    1    1    2    0    0 -0.10805293656E+04 -0.32062514182E+03 -0.10799208165E+04  0.16942205783E+04  0.65864270000E+03 0.  0.
    8880022    1    1    2    0    0  0.10805293656E+04  0.32062514182E+03  0.38863099686E+03  0.12019858137E+04  0.15294330000E+03 0.  0.
<mgrwt>
<rscale>  0 0.12612366E+04</rscale>
<asrwt>0</asrwt>
<pdfrwt beam="1">  1        1 0.27596125E+00 0.13054326E+04</pdfrwt>
<pdfrwt beam="2">  1       -1 0.16960897E+00 0.13054326E+04</pdfrwt>
<totfact> 0.98703837E-01</totfact>
</mgrwt>
</event>
<event>
 4    1  0.1521315E-007  0.8679368E+03  0.7818608E-02  0.9579598E-01
         -1   -1    0    0    0  501 -0.00000000000E+00  0.00000000000E+00  0.61564780448E+03  0.61564780450E+03  0.50400000000E-02 0.  1.
          1   -1    0    0  501    0  0.00000000000E+00 -0.00000000000E+00 -0.15255539989E+04  0.15255539989E+04  0.50400000000E-02 0. -1.
    8880023    1    1    2    0    0 -0.34594836332E+03 -0.44701653549E+03 -0.12053469391E+04  0.14853200002E+04  0.65864270000E+03 0.  0.
    8880022    1    1    2    0    0  0.34594836332E+03  0.44701653549E+03  0.29544074473E+03  0.65588180318E+03  0.15294330000E+03 0.  0.
<mgrwt>
<rscale>  0 0.78661337E+03</rscale>
<asrwt>0</asrwt>
<pdfrwt beam="1">  1        1 0.23470061E+00 0.86793678E+03</pdfrwt>
<pdfrwt beam="2">  1       -1 0.94715047E-01 0.86793678E+03</pdfrwt>
<totfact> 0.69240053E+00</totfact>
</mgrwt>
</event>
<event>
 4    1  0.1521315E-007  0.7255052E+03  0.7818608E-02  0.9904380E-01
         -1   -1    0    0    0  501 -0.00000000000E+00  0.00000000000E+00  0.60772463950E+03  0.60772463952E+03  0.50400000000E-02 0.  1.
          1   -1    0    0  501    0  0.00000000000E+00 -0.00000000000E+00 -0.25764429450E+04  0.25764429450E+04  0.50400000000E-02 0. -1.
    8880023    1    1    2    0    0  0.27253200906E+03  0.13518087698E+03 -0.24721443832E+04  0.25764036220E+04  0.65864270000E+03 0. -1.
    8880022    1    1    2    0    0 -0.27253200906E+03 -0.13518087698E+03  0.50342607771E+03  0.60776396257E+03  0.15294330000E+03 0.  0.
<mgrwt>
<rscale>  0 0.60049471E+03</rscale>
<asrwt>0</asrwt>
<pdfrwt beam="1">  1        1 0.39637583E+00 0.72550518E+03</pdfrwt>
<pdfrwt beam="2">  1       -1 0.93496100E-01 0.72550518E+03</pdfrwt>
<totfact> 0.14271385E+00</totfact>
</mgrwt>
</event>
<event>
 4    1  0.1521315E-007  0.8068120E+03  0.7818608E-02  0.9696256E-01
         -1   -1    0    0    0  501 -0.00000000000E+00  0.00000000000E+00  0.46891897085E+03  0.46891897088E+03  0.50400000000E-02 0.  1.
          1   -1    0    0  501    0  0.00000000000E+00 -0.00000000000E+00 -0.13891734689E+04  0.13891734689E+04  0.50400000000E-02 0. -1.
    8880023    1    1    2    0    0 -0.10723020569E+03  0.45347221425E+03 -0.10747597430E+04  0.13438951140E+04  0.65864270000E+03 0.  0.
    8880022    1    1    2    0    0  0.10723020569E+03 -0.45347221425E+03  0.15450524493E+03  0.51419732577E+03  0.15294330000E+03 0.  0.
<mgrwt>
<rscale>  0 0.71240136E+03</rscale>
<asrwt>0</asrwt>
<pdfrwt beam="1">  1        1 0.21371899E+00 0.80681198E+03</pdfrwt>
<pdfrwt beam="2">  1       -1 0.72141381E-01 0.80681198E+03</pdfrwt>
<totfact> 0.15567817E+01</totfact>
</mgrwt>
</event>
<event>
 4    1  0.1521315E-007  0.1203467E+04  0.7818608E-02  0.9153760E-01
          1   -1    0    0  501    0  0.00000000000E+00  0.00000000000E+00  0.29590727487E+04  0.29590727487E+04  0.50400000000E-02 0. -1.
         -1   -1    0    0    0  501 -0.00000000000E+00 -0.00000000000E+00 -0.60766642102E+03  0.60766642104E+03  0.50400000000E-02 0.  1.
    8880023    1    1    2    0    0  0.85866289608E+03 -0.52651734570E+03  0.22387887600E+04  0.25417528996E+04  0.65864270000E+03 0.  0.
    8880022    1    1    2    0    0 -0.85866289608E+03  0.52651734570E+03  0.11261756767E+03  0.10249862701E+04  0.15294330000E+03 0.  0.
<mgrwt>
<rscale>  0 0.11543721E+04</rscale>
<asrwt>0</asrwt>
<pdfrwt beam="1">  1        1 0.45524197E+00 0.12034669E+04</pdfrwt>
<pdfrwt beam="2">  1       -1 0.93487141E-01 0.12034669E+04</pdfrwt>
<totfact> 0.70758034E-01</totfact>
</mgrwt>
</event>
<event>
 4    1  0.1521315E-007  0.7893278E+03  0.7818608E-02  0.9734365E-01
         -1   -1    0    0    0  501 -0.00000000000E+00  0.00000000000E+00  0.58526673326E+03  0.58526673328E+03  0.50400000000E-02 0.  1.
          1   -1    0    0  501    0  0.00000000000E+00 -0.00000000000E+00 -0.11041161032E+04  0.11041161032E+04  0.50400000000E-02 0. -1.
    8880023    1    1    2    0    0 -0.15486250196E+03 -0.40650439615E+03 -0.82037256152E+03  0.11384417265E+04  0.65864270000E+03 0. -1.
    8880022    1    1    2    0    0  0.15486250196E+03  0.40650439615E+03  0.30152319160E+03  0.55094111001E+03  0.15294330000E+03 0.  1.
<mgrwt>
<rscale>  0 0.69007063E+03</rscale>
<asrwt>0</asrwt>
<pdfrwt beam="1">  1        1 0.16986402E+00 0.78932783E+03</pdfrwt>
<pdfrwt beam="2">  1       -1 0.90041036E-01 0.78932783E+03</pdfrwt>
<totfact> 0.15590142E+01</totfact>
</mgrwt>
</event>
<event>
 4    1  0.1521315E-007  0.8686873E+03  0.7818608E-02  0.9578293E-01
          1   -1    0    0  501    0  0.00000000000E+00  0.00000000000E+00  0.71763800297E+03  0.71763800298E+03  0.50400000000E-02 0. -1.
         -1   -1    0    0    0  501 -0.00000000000E+00 -0.00000000000E+00 -0.12916305584E+04  0.12916305584E+04  0.50400000000E-02 0.  1.
    8880023    1    1    2    0    0  0.50842955897E+03 -0.24961346852E+03 -0.96947831732E+03  0.13017318903E+04  0.65864270000E+03 0.  1.
    8880022    1    1    2    0    0 -0.50842955897E+03  0.24961346852E+03  0.39548576190E+03  0.70753667112E+03  0.15294330000E+03 0.  0.
<mgrwt>
<rscale>  0 0.78749689E+03</rscale>
<asrwt>0</asrwt>
<pdfrwt beam="1">  1        1 0.11040585E+00 0.86868735E+03</pdfrwt>
<pdfrwt beam="2">  1       -1 0.19871239E+00 0.86868735E+03</pdfrwt>
<totfact> 0.41100942E+00</totfact>
</mgrwt>
</event>
<event>
 4    1  0.1521315E-007  0.6979836E+03  0.7818608E-02  0.1000567E+00
          1   -1    0    0  501    0  0.00000000000E+00  0.00000000000E+00  0.51566281876E+03  0.51566281879E+03  0.50400000000E-02 0. -1.
         -1   -1    0    0    0  501 -0.00000000000E+00 -0.00000000000E+00 -0.83515680142E+03  0.83515680144E+03  0.50400000000E-02 0.  1.
    8880023    1    1    2    0    0 -0.23013316355E+03 -0.20238214842E+02  0.23043647652E+03  0.73503879781E+03  0.65864270000E+03 0. -1.
    8880022    1    1    2    0    0  0.23013316355E+03  0.20238214842E+02 -0.54993045919E+03  0.61578082242E+03  0.15294330000E+03 0.  0.
<mgrwt>
<rscale>  0 0.55402268E+03</rscale>
<asrwt>0</asrwt>
<pdfrwt beam="1">  1        1 0.79332741E-01 0.69798357E+03</pdfrwt>
<pdfrwt beam="2">  1       -1 0.12848566E+00 0.69798357E+03</pdfrwt>
<totfact> 0.22872982E+01</totfact>
</mgrwt>
</event>
<event>
 4    1  0.1521315E-007  0.6732740E+03  0.7818608E-02  0.1013417E+00
         -1   -1    0    0    0  501 -0.00000000000E+00  0.00000000000E+00  0.51206432684E+03  0.51206432687E+03  0.50400000000E-02 0.  1.
          1   -1    0    0  501    0  0.00000000000E+00 -0.00000000000E+00 -0.11878359067E+04  0.11878359067E+04  0.50400000000E-02 0. -1.
    8880023    1    1    2    0    0 -0.10746048522E+03  0.89106349803E+02 -0.10644487482E+04  0.12595034900E+04  0.65864270000E+03 0. -1.
    8880022    1    1    2    0    0  0.10746048522E+03 -0.89106349803E+02  0.38867716841E+03  0.44039674354E+03  0.15294330000E+03 0.  0.
<mgrwt>
<rscale>  0 0.50138913E+03</rscale>
<asrwt>0</asrwt>
<pdfrwt beam="1">  1        1 0.18274398E+00 0.67327402E+03</pdfrwt>
<pdfrwt beam="2">  1       -1 0.78779128E-01 0.67327402E+03</pdfrwt>
<totfact> 0.18323813E+01</totfact>
</mgrwt>
</event>
<event>
 4    1  0.1521315E-007  0.9984442E+03  0.7818608E-02  0.9383596E-01
          1   -1    0    0  501    0  0.00000000000E+00  0.00000000000E+00  0.13738361472E+04  0.13738361472E+04  0.50400000000E-02 0. -1.
         -1   -1    0    0    0  501 -0.00000000000E+00 -0.00000000000E+00 -0.84280602639E+03  0.84280602641E+03  0.50400000000E-02 0.  1.
    8880023    1    1    2    0    0  0.37152101325E+03  0.65196069045E+03  0.92002514290E+03  0.13576955016E+04  0.65864270000E+03 0.  0.
    8880022    1    1    2    0    0 -0.37152101325E+03 -0.65196069045E+03 -0.38899502209E+03  0.85894667204E+03  0.15294330000E+03 0.  0.
<mgrwt>
<rscale>  0 0.93438053E+03</rscale>
<asrwt>0</asrwt>
<pdfrwt beam="1">  1        1 0.21135941E+00 0.99844420E+03</pdfrwt>
<pdfrwt beam="2">  1       -1 0.12966247E+00 0.99844420E+03</pdfrwt>
<totfact> 0.41109128E+00</totfact>
</mgrwt>
</event>
<event>
 4    1  0.1521315E-007  0.1427994E+04  0.7818608E-02  0.8962230E-01
          1   -1    0    0  501    0  0.00000000000E+00  0.00000000000E+00  0.12746450070E+04  0.12746450070E+04  0.50400000000E-02 0. -1.
         -1   -1    0    0    0  501 -0.00000000000E+00 -0.00000000000E+00 -0.14622254397E+04  0.14622254397E+04  0.50400000000E-02 0.  1.
    8880023    1    1    2    0    0 -0.12008475054E+04  0.40413264618E+03 -0.28783316258E+03  0.14567141321E+04  0.65864270000E+03 0.  1.
    8880022    1    1    2    0    0  0.12008475054E+04 -0.40413264618E+03  0.10025272986E+03  0.12801563146E+04  0.15294330000E+03 0.  0.
<mgrwt>
<rscale>  0 0.13884386E+04</rscale>
<asrwt>0</asrwt>
<pdfrwt beam="1">  1        1 0.19609923E+00 0.14279944E+04</pdfrwt>
<pdfrwt beam="2">  1       -1 0.22495776E+00 0.14279944E+04</pdfrwt>
<totfact> 0.91903462E-01</totfact>
</mgrwt>
</event>
<event>
 4    1  0.1521315E-007  0.8583638E+03  0.7818608E-02  0.9596481E-01
         -1   -1    0    0    0  501 -0.00000000000E+00  0.00000000000E+00  0.78151331802E+03  0.78151331804E+03  0.50400000000E-02 0.  1.
          1   -1    0    0  501    0  0.00000000000E+00 -0.00000000000E+00 -0.11034492392E+04  0.11034492393E+04  0.50400000000E-02 0. -1.
    8880023    1    1    2    0    0 -0.26493371933E+03 -0.48248136112E+03 -0.77450615742E+03  0.11561349980E+04  0.65864270000E+03 0.  0.
    8880022    1    1    2    0    0  0.26493371933E+03  0.48248136112E+03  0.45257023620E+03  0.72882755929E+03  0.15294330000E+03 0.  0.
<mgrwt>
<rscale>  0 0.77529552E+03</rscale>
<asrwt>0</asrwt>
<pdfrwt beam="1">  1        1 0.16976142E+00 0.85836376E+03</pdfrwt>
<pdfrwt beam="2">  1       -1 0.12023282E+00 0.85836376E+03</pdfrwt>
<totfact> 0.79170978E+00</totfact>
</mgrwt>
</event>
<event>
 4    1  0.1521315E-007  0.7225824E+03  0.7818608E-02  0.9913943E-01
          1   -1    0    0  501    0  0.00000000000E+00  0.00000000000E+00  0.10123853824E+04  0.10123853824E+04  0.50400000000E-02 0. -1.
         -1   -1    0    0    0  501 -0.00000000000E+00 -0.00000000000E+00 -0.62757818796E+03  0.62757818799E+03  0.50400000000E-02 0.  1.
    8880023    1    1    2    0    0 -0.26779549754E+03  0.12884360392E+03  0.81889470424E+03  0.10921143922E+04  0.65864270000E+03 0. -1.
    8880022    1    1    2    0    0  0.26779549754E+03 -0.12884360392E+03 -0.43408750985E+03  0.54784917814E+03  0.15294330000E+03 0.  0.
<mgrwt>
<rscale>  0 0.59590285E+03</rscale>
<asrwt>0</asrwt>
<pdfrwt beam="1">  1        1 0.15575160E+00 0.72258239E+03</pdfrwt>
<pdfrwt beam="2">  1       -1 0.96550490E-01 0.72258239E+03</pdfrwt>
<totfact> 0.15797328E+01</totfact>
</mgrwt>
</event>
<event>
 4    1  0.1521315E-007  0.9675274E+03  0.7818608E-02  0.9425332E-01
         -1   -1    0    0    0  501 -0.00000000000E+00  0.00000000000E+00  0.15028710844E+04  0.15028710844E+04  0.50400000000E-02 0.  1.
          1   -1    0    0  501    0  0.00000000000E+00 -0.00000000000E+00 -0.65944043171E+03  0.65944043173E+03  0.50400000000E-02 0. -1.
    8880023    1    1    2    0    0 -0.62397160412E+03 -0.33609294148E+03 -0.99750144857E+02  0.97265581051E+03  0.65864270000E+03 0.  0.
    8880022    1    1    2    0    0  0.62397160412E+03  0.33609294148E+03  0.94318079752E+03  0.11896557056E+04  0.15294330000E+03 0.  0.
<mgrwt>
<rscale>  0 0.90019943E+03</rscale>
<asrwt>0</asrwt>
<pdfrwt beam="1">  1        1 0.10145237E+00 0.96752738E+03</pdfrwt>
<pdfrwt beam="2">  1       -1 0.23121094E+00 0.96752738E+03</pdfrwt>
<totfact> 0.27909225E+00</totfact>
</mgrwt>
</event>
<event>
 4    1  0.1521315E-007  0.9533494E+03  0.7818608E-02  0.9445311E-01
          1   -1    0    0  501    0  0.00000000000E+00  0.00000000000E+00  0.22364776656E+04  0.22364776656E+04  0.50400000000E-02 0. -1.
         -1   -1    0    0    0  501 -0.00000000000E+00 -0.00000000000E+00 -0.57918321148E+03  0.57918321150E+03  0.50400000000E-02 0.  1.
    8880023    1    1    2    0    0  0.64257742838E+03  0.24931725715E+03  0.18522741034E+04  0.20832173210E+04  0.65864270000E+03 0.  0.
    8880022    1    1    2    0    0 -0.64257742838E+03 -0.24931725715E+03 -0.19497964930E+03  0.73244355607E+03  0.15294330000E+03 0.  0.
<mgrwt>
<rscale>  0 0.88438726E+03</rscale>
<asrwt>0</asrwt>
<pdfrwt beam="1">  1        1 0.34407349E+00 0.95334939E+03</pdfrwt>
<pdfrwt beam="2">  1       -1 0.89105110E-01 0.95334939E+03</pdfrwt>
<totfact> 0.25949840E+00</totfact>
</mgrwt>
</event>
<event>
 4    1  0.1521315E-007  0.6747200E+03  0.7818608E-02  0.1012483E+00
         -1   -1    0    0    0  501 -0.00000000000E+00  0.00000000000E+00  0.25594764473E+03  0.25594764478E+03  0.50400000000E-02 0.  1.
          1   -1    0    0  501    0  0.00000000000E+00 -0.00000000000E+00 -0.18534926613E+04  0.18534926613E+04  0.50400000000E-02 0. -1.
    8880023    1    1    2    0    0 -0.14047526163E+03 -0.41273564685E+02 -0.17318952723E+04  0.18586845474E+04  0.65864270000E+03 0. -1.
    8880022    1    1    2    0    0  0.14047526163E+03  0.41273564685E+02  0.13435025575E+03  0.25075575867E+03  0.15294330000E+03 0.  0.
<mgrwt>
<rscale>  0 0.50499478E+03</rscale>
<asrwt>0</asrwt>
<pdfrwt beam="1">  1        1 0.28515271E+00 0.67471995E+03</pdfrwt>
<pdfrwt beam="2">  1       -1 0.39376562E-01 0.67471995E+03</pdfrwt>
<totfact> 0.24627092E+01</totfact>
</mgrwt>
</event>
<event>
 4    1  0.1521315E-007  0.8747866E+03  0.7818608E-02  0.9567784E-01
         -1   -1    0    0    0  501 -0.00000000000E+00  0.00000000000E+00  0.45506780633E+03  0.45506780635E+03  0.50400000000E-02 0.  1.
          1   -1    0    0  501    0  0.00000000000E+00 -0.00000000000E+00 -0.18831570690E+04  0.18831570690E+04  0.50400000000E-02 0. -1.
    8880023    1    1    2    0    0 -0.56011170301E+03  0.13310217280E+03 -0.97274962940E+02  0.88017835291E+03  0.65864270000E+03 0.  0.
    8880022    1    1    2    0    0  0.56011170301E+03 -0.13310217280E+03 -0.13308142997E+04  0.14580465224E+04  0.15294330000E+03 0.  0.
<mgrwt>
<rscale>  0 0.79465674E+03</rscale>
<asrwt>0</asrwt>
<pdfrwt beam="1">  1        1 0.28971647E+00 0.87478655E+03</pdfrwt>
<pdfrwt beam="2">  1       -1 0.70010433E-01 0.87478655E+03</pdfrwt>
<totfact> 0.75715595E+00</totfact>
</mgrwt>
</event>
<event>
 4    1  0.1521315E-007  0.1246392E+04  0.7818608E-02  0.9113294E-01
         -1   -1    0    0    0  501 -0.00000000000E+00  0.00000000000E+00  0.88064811355E+03  0.88064811356E+03  0.50400000000E-02 0.  1.
          1   -1    0    0  501    0  0.00000000000E+00 -0.00000000000E+00 -0.20583272273E+04  0.20583272273E+04  0.50400000000E-02 0. -1.
    8880023    1    1    2    0    0  0.10455284176E+04 -0.16295336691E+03  0.12624392817E+03  0.12527694151E+04  0.65864270000E+03 0.  0.
    8880022    1    1    2    0    0 -0.10455284176E+04  0.16295336691E+03 -0.13039230420E+04  0.16862059258E+04  0.15294330000E+03 0.  0.
<mgrwt>
<rscale>  0 0.11995004E+04</rscale>
<asrwt>0</asrwt>
<pdfrwt beam="1">  1        1 0.31666573E+00 0.12463923E+04</pdfrwt>
<pdfrwt beam="2">  1       -1 0.13548433E+00 0.12463923E+04</pdfrwt>
<totfact> 0.12146385E+00</totfact>
</mgrwt>
</event>
<event>
 4    1  0.1521315E-007  0.1309837E+04  0.7818608E-02  0.9057111E-01
          1   -1    0    0  501    0  0.00000000000E+00  0.00000000000E+00  0.38311909647E+04  0.38311909647E+04  0.50400000000E-02 0. -1.
         -1   -1    0    0    0  501 -0.00000000000E+00 -0.00000000000E+00 -0.41878540332E+03  0.41878540335E+03  0.50400000000E-02 0.  1.
    8880023    1    1    2    0    0 -0.97354647744E+03  0.57798728631E+03  0.12833594949E+04  0.18337622110E+04  0.65864270000E+03 0.  0.
    8880022    1    1    2    0    0  0.97354647744E+03 -0.57798728631E+03  0.21290460664E+04  0.24162141571E+04  0.15294330000E+03 0.  0.
<mgrwt>
<rscale>  0 0.12658281E+04</rscale>
<asrwt>0</asrwt>
<pdfrwt beam="1">  1        1 0.58941399E+00 0.13098367E+04</pdfrwt>
<pdfrwt beam="2">  1       -1 0.64428525E-01 0.13098367E+04</pdfrwt>
<totfact> 0.32712629E-01</totfact>
</mgrwt>
</event>
<event>
 4    1  0.1521315E-007  0.1076542E+04  0.7818608E-02  0.9287635E-01
          1   -1    0    0  501    0  0.00000000000E+00  0.00000000000E+00  0.50764877851E+03  0.50764877853E+03  0.50400000000E-02 0. -1.
         -1   -1    0    0    0  501 -0.00000000000E+00 -0.00000000000E+00 -0.22031817872E+04  0.22031817872E+04  0.50400000000E-02 0.  1.
    8880023    1    1    2    0    0 -0.35774321480E+03 -0.77275590803E+03 -0.39073760978E+03  0.11452589171E+04  0.65864270000E+03 0.  0.
    8880022    1    1    2    0    0  0.35774321480E+03  0.77275590803E+03 -0.13047953989E+04  0.15655716487E+04  0.15294330000E+03 0.  0.
<mgrwt>
<rscale>  0 0.10192925E+04</rscale>
<asrwt>0</asrwt>
<pdfrwt beam="1">  1        1 0.78099813E-01 0.10765417E+04</pdfrwt>
<pdfrwt beam="2">  1       -1 0.33895104E+00 0.10765417E+04</pdfrwt>
<totfact> 0.80497505E-01</totfact>
</mgrwt>
</event>
<event>
 4    1  0.1521315E-007  0.8709364E+03  0.7818608E-02  0.9574398E-01
         -1   -1    0    0    0  501 -0.00000000000E+00  0.00000000000E+00  0.12390382092E+04  0.12390382093E+04  0.50400000000E-02 0.  1.
          1   -1    0    0  501    0  0.00000000000E+00 -0.00000000000E+00 -0.54428304633E+03  0.54428304635E+03  0.50400000000E-02 0. -1.
    8880023    1    1    2    0    0 -0.17697432150E+03  0.54166421030E+03 -0.11851732135E+01  0.87093721823E+03  0.65864270000E+03 0. -1.
    8880022    1    1    2    0    0  0.17697432150E+03 -0.54166421030E+03  0.69594033613E+03  0.91238403738E+03  0.15294330000E+03 0.  0.
<mgrwt>
<rscale>  0 0.79014111E+03</rscale>
<asrwt>0</asrwt>
<pdfrwt beam="1">  1        1 0.83735853E-01 0.87093641E+03</pdfrwt>
<pdfrwt beam="2">  1       -1 0.19062126E+00 0.87093641E+03</pdfrwt>
<totfact> 0.70099717E+00</totfact>
</mgrwt>
</event>
<event>
 4    1  0.1521315E-007  0.7375748E+03  0.7818608E-02  0.9867069E-01
          1   -1    0    0  501    0  0.00000000000E+00  0.00000000000E+00  0.15738031965E+04  0.15738031965E+04  0.50400000000E-02 0. -1.
         -1   -1    0    0    0  501 -0.00000000000E+00 -0.00000000000E+00 -0.45961315589E+03  0.45961315592E+03  0.50400000000E-02 0.  1.
    8880023    1    1    2    0    0 -0.33068536417E+03  0.29215665500E+02  0.13913128569E+04  0.15747279248E+04  0.65864270000E+03 0.  0.
    8880022    1    1    2    0    0  0.33068536417E+03 -0.29215665500E+02 -0.27712281636E+03  0.45868842753E+03  0.15294330000E+03 0.  1.
<mgrwt>
<rscale>  0 0.61884167E+03</rscale>
<asrwt>0</asrwt>
<pdfrwt beam="1">  1        1 0.24212357E+00 0.73757479E+03</pdfrwt>
<pdfrwt beam="2">  1       -1 0.70709717E-01 0.73757479E+03</pdfrwt>
<totfact> 0.12227867E+01</totfact>
</mgrwt>
</event>
<event>
 4    1  0.2191767E-007  0.7562528E+03  0.7818608E-02  0.9814907E-01
          1   -1    0    0  501    0  0.00000000000E+00  0.00000000000E+00  0.44693810721E+04  0.44693810721E+04  0.50400000000E-02 0. -1.
         -1   -1    0    0    0  501 -0.00000000000E+00 -0.00000000000E+00 -0.89101614529E+03  0.89101614531E+03  0.50400000000E-02 0.  1.
    8880023    1    1    2    0    0 -0.14608835473E+02  0.37134172159E+03  0.43900305353E+04  0.44546926268E+04  0.65864270000E+03 0. -1.
    8880022    1    1    2    0    0  0.14608835473E+02 -0.37134172159E+03 -0.81166560853E+03  0.90570459056E+03  0.15294330000E+03 0.  0.
<mgrwt>
<rscale>  0 0.64568653E+03</rscale>
<asrwt>0</asrwt>
<pdfrwt beam="1">  1        1 0.68759707E+00 0.75625280E+03</pdfrwt>
<pdfrwt beam="2">  1       -1 0.13707941E+00 0.75625280E+03</pdfrwt>
<totfact> 0.17606736E-02</totfact>
</mgrwt>
</event>
<event>
 4    1  0.1521315E-007  0.6640853E+03  0.7818608E-02  0.1020313E+00
         -1   -1    0    0    0  501 -0.00000000000E+00  0.00000000000E+00  0.10292160650E+04  0.10292160650E+04  0.50400000000E-02 0.  1.
          1   -1    0    0  501    0  0.00000000000E+00 -0.00000000000E+00 -0.39259523520E+03  0.39259523523E+03  0.50400000000E-02 0. -1.
    8880023    1    1    2    0    0 -0.73126929342E+01  0.84531749500E+02 -0.93858220929E+02  0.67068521979E+03  0.65864270000E+03 0. -1.
    8880022    1    1    2    0    0  0.73126929342E+01 -0.84531749500E+02  0.73047905071E+03  0.75112608043E+03  0.15294330000E+03 0.  0.
<mgrwt>
<rscale>  0 0.47573671E+03</rscale>
<asrwt>0</asrwt>
<pdfrwt beam="1">  1        1 0.60399267E-01 0.66408531E+03</pdfrwt>
<pdfrwt beam="2">  1       -1 0.15834093E+00 0.66408531E+03</pdfrwt>
<totfact> 0.19173596E+01</totfact>
</mgrwt>
</event>
<event>
 4    1  0.1521315E-007  0.7560682E+03  0.7818608E-02  0.9815395E-01
          1   -1    0    0  501    0  0.00000000000E+00  0.00000000000E+00  0.82142328100E+03  0.82142328102E+03  0.50400000000E-02 0. -1.
         -1   -1    0    0    0  501 -0.00000000000E+00 -0.00000000000E+00 -0.57713348768E+03  0.57713348770E+03  0.50400000000E-02 0.  1.
    8880023    1    1    2    0    0 -0.37122431931E+03 -0.46208910360E+01  0.51455181774E+03  0.91455050560E+03  0.65864270000E+03 0.  0.
    8880022    1    1    2    0    0  0.37122431931E+03  0.46208910360E+01 -0.27026202441E+03  0.48400626312E+03  0.15294330000E+03 0.  0.
<mgrwt>
<rscale>  0 0.64542865E+03</rscale>
<asrwt>0</asrwt>
<pdfrwt beam="1">  1        1 0.12637281E+00 0.75606815E+03</pdfrwt>
<pdfrwt beam="2">  1       -1 0.88789768E-01 0.75606815E+03</pdfrwt>
<totfact> 0.27037381E+01</totfact>
</mgrwt>
</event>
<event>
 4    1  0.1521315E-007  0.7023444E+03  0.7818608E-02  0.9987611E-01
          1   -1    0    0  501    0  0.00000000000E+00  0.00000000000E+00  0.12578608357E+04  0.12578608357E+04  0.50400000000E-02 0. -1.
         -1   -1    0    0    0  501 -0.00000000000E+00 -0.00000000000E+00 -0.24417909244E+03  0.24417909249E+03  0.50400000000E-02 0.  1.
    8880023    1    1    2    0    0  0.22844076001E+03 -0.85395071444E+02  0.98913336603E+03  0.12131251053E+04  0.65864270000E+03 0. -1.
    8880022    1    1    2    0    0 -0.22844076001E+03  0.85395071444E+02  0.24548377253E+02  0.28891482292E+03  0.15294330000E+03 0.  0.
<mgrwt>
<rscale>  0 0.56196817E+03</rscale>
<asrwt>0</asrwt>
<pdfrwt beam="1">  1        1 0.19351705E+00 0.70234443E+03</pdfrwt>
<pdfrwt beam="2">  1       -1 0.37566015E-01 0.70234443E+03</pdfrwt>
<totfact> 0.68127079E+01</totfact>
</mgrwt>
</event>
<event>
 4    1  0.1521315E-007  0.7715532E+03  0.7818608E-02  0.9776066E-01
         -1   -1    0    0    0  501 -0.00000000000E+00  0.00000000000E+00  0.11841522883E+04  0.11841522883E+04  0.50400000000E-02 0.  1.
          1   -1    0    0  501    0  0.00000000000E+00 -0.00000000000E+00 -0.79686538282E+03  0.79686538283E+03  0.50400000000E-02 0. -1.
    8880023    1    1    2    0    0  0.95005903220E+01  0.40173852700E+03 -0.55153899890E+03  0.94841424434E+03  0.65864270000E+03 0. -1.
    8880022    1    1    2    0    0 -0.95005903220E+01 -0.40173852700E+03  0.93882590442E+03  0.10326034268E+04  0.15294330000E+03 0.  0.
<mgrwt>
<rscale>  0 0.66662930E+03</rscale>
<asrwt>0</asrwt>
<pdfrwt beam="1">  1        1 0.12259467E+00 0.77155318E+03</pdfrwt>
<pdfrwt beam="2">  1       -1 0.18217727E+00 0.77155318E+03</pdfrwt>
<totfact> 0.46148736E+00</totfact>
</mgrwt>
</event>
<event>
 4    1  0.1521315E-007  0.6629627E+03  0.7818608E-02  0.1021307E+00
         -1   -1    0    0    0  501 -0.00000000000E+00  0.00000000000E+00  0.32608161223E+03  0.32608161226E+03  0.50400000000E-02 0.  1.
          1   -1    0    0  501    0  0.00000000000E+00 -0.00000000000E+00 -0.15345766050E+04  0.15345766050E+04  0.50400000000E-02 0. -1.
    8880023    1    1    2    0    0 -0.75437753277E+02 -0.42928597789E+01 -0.14328640084E+04  0.15788029504E+04  0.65864270000E+03 0. -1.
    8880022    1    1    2    0    0  0.75437753277E+02  0.42928597789E+01  0.22436901565E+03  0.28185526688E+03  0.15294330000E+03 0.  0.
<mgrwt>
<rscale>  0 0.47217737E+03</rscale>
<asrwt>0</asrwt>
<pdfrwt beam="1">  1        1 0.23608870E+00 0.66296266E+03</pdfrwt>
<pdfrwt beam="2">  1       -1 0.50166403E-01 0.66296266E+03</pdfrwt>
<totfact> 0.25817871E+01</totfact>
</mgrwt>
</event>
<event>
 4    1  0.1521315E-007  0.7239829E+03  0.7818608E-02  0.9909333E-01
         -1   -1    0    0    0  501 -0.00000000000E+00  0.00000000000E+00  0.37156644135E+03  0.37156644138E+03  0.50400000000E-02 0.  1.
          1   -1    0    0  501    0  0.00000000000E+00 -0.00000000000E+00 -0.12463681296E+04  0.12463681296E+04  0.50400000000E-02 0. -1.
    8880023    1    1    2    0    0 -0.76339172970E+02  0.29071178184E+03 -0.10199524657E+04  0.12507814549E+04  0.65864270000E+03 0. -1.
    8880022    1    1    2    0    0  0.76339172970E+02 -0.29071178184E+03  0.14515077744E+03  0.36715311607E+03  0.15294330000E+03 0.  0.
<mgrwt>
<rscale>  0 0.59811112E+03</rscale>
<asrwt>0</asrwt>
<pdfrwt beam="1">  1        1 0.19174894E+00 0.72398288E+03</pdfrwt>
<pdfrwt beam="2">  1       -1 0.57164068E-01 0.72398288E+03</pdfrwt>
<totfact> 0.31619158E+01</totfact>
</mgrwt>
</event>
<event>
 4    1  0.1521315E-007  0.6796968E+03  0.7818608E-02  0.1009496E+00
          1   -1    0    0  501    0  0.00000000000E+00  0.00000000000E+00  0.50490791819E+03  0.50490791821E+03  0.50400000000E-02 0. -1.
         -1   -1    0    0    0  501 -0.00000000000E+00 -0.00000000000E+00 -0.43448197809E+03  0.43448197812E+03  0.50400000000E-02 0.  1.
    8880023    1    1    2    0    0  0.90264008853E+02  0.14152698275E+03  0.15485598720E+03  0.69711409480E+03  0.65864270000E+03 0. -1.
    8880022    1    1    2    0    0 -0.90264008853E+02 -0.14152698275E+03 -0.84430047099E+02  0.24227580153E+03  0.15294330000E+03 0.  1.
<mgrwt>
<rscale>  0 0.51675552E+03</rscale>
<asrwt>0</asrwt>
<pdfrwt beam="1">  1        1 0.77678141E-01 0.67969676E+03</pdfrwt>
<pdfrwt beam="2">  1       -1 0.66843382E-01 0.67969676E+03</pdfrwt>
<totfact> 0.10140432E+02</totfact>
</mgrwt>
</event>
<event>
 4    1  0.1521315E-007  0.9727790E+03  0.7818608E-02  0.9418071E-01
          1   -1    0    0  501    0  0.00000000000E+00  0.00000000000E+00  0.13022516533E+04  0.13022516533E+04  0.50400000000E-02 0. -1.
         -1   -1    0    0    0  501 -0.00000000000E+00 -0.00000000000E+00 -0.96760587735E+03  0.96760587736E+03  0.50400000000E-02 0.  1.
    8880023    1    1    2    0    0 -0.41667054262E+03  0.58212929717E+03  0.91514655632E+03  0.13355868693E+04  0.65864270000E+03 0. -1.
    8880022    1    1    2    0    0  0.41667054262E+03 -0.58212929717E+03 -0.58050078034E+03  0.93427066137E+03  0.15294330000E+03 0.  0.
<mgrwt>
<rscale>  0 0.90603328E+03</rscale>
<asrwt>0</asrwt>
<pdfrwt beam="1">  1        1 0.20034641E+00 0.97277904E+03</pdfrwt>
<pdfrwt beam="2">  1       -1 0.14886244E+00 0.97277904E+03</pdfrwt>
<totfact> 0.32337880E+00</totfact>
</mgrwt>
</event>
<event>
 4    1  0.1521315E-007  0.7816004E+03  0.7818608E-02  0.9752091E-01
         -1   -1    0    0    0  501 -0.00000000000E+00  0.00000000000E+00  0.64178682452E+03  0.64178682454E+03  0.50400000000E-02 0.  1.
          1   -1    0    0  501    0  0.00000000000E+00 -0.00000000000E+00 -0.12059159730E+04  0.12059159730E+04  0.50400000000E-02 0. -1.
    8880023    1    1    2    0    0 -0.12601168163E+03  0.40150960874E+03 -0.96838749862E+03  0.12444570959E+04  0.65864270000E+03 0.  1.
    8880022    1    1    2    0    0  0.12601168163E+03 -0.40150960874E+03  0.40425835016E+03  0.60324570161E+03  0.15294330000E+03 0.  0.
<mgrwt>
<rscale>  0 0.67998228E+03</rscale>
<asrwt>0</asrwt>
<pdfrwt beam="1">  1        1 0.18552553E+00 0.78160036E+03</pdfrwt>
<pdfrwt beam="2">  1       -1 0.98736434E-01 0.78160036E+03</pdfrwt>
<totfact> 0.10690850E+01</totfact>
</mgrwt>
</event>
<event>
 4    1  0.1521315E-007  0.8551446E+03  0.7818608E-02  0.9602259E-01
         -1   -1    0    0    0  501 -0.00000000000E+00  0.00000000000E+00  0.40072814066E+03  0.40072814069E+03  0.50400000000E-02 0.  1.
          1   -1    0    0  501    0  0.00000000000E+00 -0.00000000000E+00 -0.17602728939E+04  0.17602728939E+04  0.50400000000E-02 0. -1.
    8880023    1    1    2    0    0  0.53791896080E+03  0.90028957581E+02 -0.13456641791E+04  0.15943915174E+04  0.65864270000E+03 0.  0.
    8880022    1    1    2    0    0 -0.53791896080E+03 -0.90028957581E+02 -0.13880574114E+02  0.56660951717E+03  0.15294330000E+03 0.  0.
<mgrwt>
<rscale>  0 0.77146821E+03</rscale>
<asrwt>0</asrwt>
<pdfrwt beam="1">  1        1 0.27081121E+00 0.85514457E+03</pdfrwt>
<pdfrwt beam="2">  1       -1 0.61650484E-01 0.85514457E+03</pdfrwt>
<totfact> 0.11870772E+01</totfact>
</mgrwt>
</event>
<event>
 4    1  0.1521315E-007  0.6955313E+03  0.7818608E-02  0.1001627E+00
         -1   -1    0    0    0  501 -0.00000000000E+00  0.00000000000E+00  0.38394410243E+03  0.38394410246E+03  0.50400000000E-02 0.  1.
          1   -1    0    0  501    0  0.00000000000E+00 -0.00000000000E+00 -0.16347103957E+04  0.16347103957E+04  0.50400000000E-02 0. -1.
    8880023    1    1    2    0    0 -0.10808645995E+03  0.19562933385E+03 -0.14982263290E+04  0.16518007925E+04  0.65864270000E+03 0.  0.
    8880022    1    1    2    0    0  0.10808645995E+03 -0.19562933385E+03  0.24746003569E+03  0.36685370567E+03  0.15294330000E+03 0.  1.
<mgrwt>
<rscale>  0 0.54942565E+03</rscale>
<asrwt>0</asrwt>
<pdfrwt beam="1">  1        1 0.25149390E+00 0.69553125E+03</pdfrwt>
<pdfrwt beam="2">  1       -1 0.59068324E-01 0.69553125E+03</pdfrwt>
<totfact> 0.16050922E+01</totfact>
</mgrwt>
</event>
<event>
 4    1  0.1521315E-007  0.8037596E+03  0.7818608E-02  0.9702725E-01
          1   -1    0    0  501    0  0.00000000000E+00  0.00000000000E+00  0.10799595924E+04  0.10799595924E+04  0.50400000000E-02 0. -1.
         -1   -1    0    0    0  501 -0.00000000000E+00 -0.00000000000E+00 -0.66464281551E+03  0.66464281552E+03  0.50400000000E-02 0.  1.
    8880023    1    1    2    0    0 -0.18998038356E+03  0.41967456132E+03  0.79335877742E+03  0.11293571798E+04  0.65864270000E+03 0. -1.
    8880022    1    1    2    0    0  0.18998038356E+03 -0.41967456132E+03 -0.37804200054E+03  0.61524522814E+03  0.15294330000E+03 0.  0.
<mgrwt>
<rscale>  0 0.70854765E+03</rscale>
<asrwt>0</asrwt>
<pdfrwt beam="1">  1        1 0.16614763E+00 0.80375960E+03</pdfrwt>
<pdfrwt beam="2">  1       -1 0.10225274E+00 0.80375960E+03</pdfrwt>
<totfact> 0.12186783E+01</totfact>
</mgrwt>
</event>
<event>
 4    1  0.1521315E-007  0.6645356E+03  0.7818608E-02  0.1019926E+00
         -1   -1    0    0    0  501 -0.00000000000E+00  0.00000000000E+00  0.60966524444E+03  0.60966524446E+03  0.50400000000E-02 0.  1.
          1   -1    0    0  501    0  0.00000000000E+00 -0.00000000000E+00 -0.18491685052E+04  0.18491685052E+04  0.50400000000E-02 0. -1.
    8880023    1    1    2    0    0 -0.40649998610E+02  0.78389601054E+02 -0.17748135728E+04  0.18951439988E+04  0.65864270000E+03 0. -1.
    8880022    1    1    2    0    0  0.40649998610E+02 -0.78389601054E+02  0.53531031205E+03  0.56368975079E+03  0.15294330000E+03 0.  0.
<mgrwt>
<rscale>  0 0.47713236E+03</rscale>
<asrwt>0</asrwt>
<pdfrwt beam="1">  1        1 0.28448746E+00 0.66453560E+03</pdfrwt>
<pdfrwt beam="2">  1       -1 0.93794654E-01 0.66453560E+03</pdfrwt>
<totfact> 0.44267628E+00</totfact>
</mgrwt>
</event>
<event>
 4    1  0.1521315E-007  0.6858297E+03  0.7818608E-02  0.1006201E+00
          1   -1    0    0  501    0  0.00000000000E+00  0.00000000000E+00  0.83627809527E+03  0.83627809528E+03  0.50400000000E-02 0. -1.
         -1   -1    0    0    0  501 -0.00000000000E+00 -0.00000000000E+00 -0.94164719005E+03  0.94164719006E+03  0.50400000000E-02 0.  1.
    8880023    1    1    2    0    0 -0.98643421465E+02 -0.16377300213E+03  0.67365138907E+03  0.96133684059E+03  0.65864270000E+03 0. -1.
    8880022    1    1    2    0    0  0.98643421465E+02  0.16377300213E+03 -0.77902048385E+03  0.81658844475E+03  0.15294330000E+03 0.  0.
<mgrwt>
<rscale>  0 0.53012735E+03</rscale>
<asrwt>0</asrwt>
<pdfrwt beam="1">  1        1 0.12865817E+00 0.68582966E+03</pdfrwt>
<pdfrwt beam="2">  1       -1 0.14486880E+00 0.68582966E+03</pdfrwt>
<totfact> 0.82122807E+00</totfact>
</mgrwt>
</event>
<event>
 4    1  0.1521315E-007  0.7468539E+03  0.7818608E-02  0.9840414E-01
          1   -1    0    0  501    0  0.00000000000E+00  0.00000000000E+00  0.16521811073E+04  0.16521811073E+04  0.50400000000E-02 0. -1.
         -1   -1    0    0    0  501 -0.00000000000E+00 -0.00000000000E+00 -0.57075413665E+03  0.57075413667E+03  0.50400000000E-02 0.  1.
    8880023    1    1    2    0    0 -0.12653542778E+03  0.32858677921E+03  0.14872903598E+04  0.16642786145E+04  0.65864270000E+03 0. -1.
    8880022    1    1    2    0    0  0.12653542778E+03 -0.32858677921E+03 -0.40586338919E+03  0.55865662947E+03  0.15294330000E+03 0.  0.
<mgrwt>
<rscale>  0 0.63238076E+03</rscale>
<asrwt>0</asrwt>
<pdfrwt beam="1">  1        1 0.25418171E+00 0.74685386E+03</pdfrwt>
<pdfrwt beam="2">  1       -1 0.87808329E-01 0.74685386E+03</pdfrwt>
<totfact> 0.68360993E+00</totfact>
</mgrwt>
</event>
<event>
 4    1  0.1521315E-007  0.9653991E+03  0.7818608E-02  0.9428296E-01
          1   -1    0    0  501    0  0.00000000000E+00  0.00000000000E+00  0.16878986574E+04  0.16878986574E+04  0.50400000000E-02 0. -1.
         -1   -1    0    0    0  501 -0.00000000000E+00 -0.00000000000E+00 -0.73258664465E+03  0.73258664467E+03  0.50400000000E-02 0.  1.
    8880023    1    1    2    0    0  0.50474656526E+02 -0.70401528275E+03  0.13007989841E+04  0.16198991983E+04  0.65864270000E+03 0.  0.
    8880022    1    1    2    0    0 -0.50474656526E+02  0.70401528275E+03 -0.34548697130E+03  0.80058610384E+03  0.15294330000E+03 0.  0.
<mgrwt>
<rscale>  0 0.89783174E+03</rscale>
<asrwt>0</asrwt>
<pdfrwt beam="1">  1        1 0.25967671E+00 0.96539910E+03</pdfrwt>
<pdfrwt beam="2">  1       -1 0.11270564E+00 0.96539910E+03</pdfrwt>
<totfact> 0.35410907E+00</totfact>
</mgrwt>
</event>
<event>
 4    1  0.1521315E-007  0.6614943E+03  0.7818608E-02  0.1022675E+00
          1   -1    0    0  501    0  0.00000000000E+00  0.00000000000E+00  0.15402022694E+04  0.15402022694E+04  0.50400000000E-02 0. -1.
         -1   -1    0    0    0  501 -0.00000000000E+00 -0.00000000000E+00 -0.90812880045E+03  0.90812880047E+03  0.50400000000E-02 0.  1.
    8880023    1    1    2    0    0 -0.53384225427E+02  0.30242358088E+02  0.14606868081E+04  0.16034901413E+04  0.65864270000E+03 0. -1.
    8880022    1    1    2    0    0  0.53384225427E+02 -0.30242358088E+02 -0.82861333914E+03  0.84484092855E+03  0.15294330000E+03 0.  0.
<mgrwt>
<rscale>  0 0.46733472E+03</rscale>
<asrwt>0</asrwt>
<pdfrwt beam="1">  1        1 0.23695419E+00 0.66149428E+03</pdfrwt>
<pdfrwt beam="2">  1       -1 0.13971212E+00 0.66149428E+03</pdfrwt>
<totfact> 0.27513038E+00</totfact>
</mgrwt>
</event>
<event>
 4    1  0.1521315E-007  0.6587905E+03  0.7818608E-02  0.1025431E+00
         -1   -1    0    0    0  501 -0.00000000000E+00  0.00000000000E+00  0.44353341515E+03  0.44353341517E+03  0.50400000000E-02 0.  1.
          1   -1    0    0  501    0  0.00000000000E+00 -0.00000000000E+00 -0.56381639862E+03  0.56381639864E+03  0.50400000000E-02 0. -1.
    8880023    1    1    2    0    0  0.33290890619E+01 -0.13550032681E+02 -0.33837484043E+03  0.74060949570E+03  0.65864270000E+03 0. -1.
    8880022    1    1    2    0    0 -0.33290890619E+01  0.13550032681E+02  0.21809185696E+03  0.26674031811E+03  0.15294330000E+03 0.  0.
<mgrwt>
<rscale>  0 0.45776549E+03</rscale>
<asrwt>0</asrwt>
<pdfrwt beam="1">  1        1 0.86740985E-01 0.65879048E+03</pdfrwt>
<pdfrwt beam="2">  1       -1 0.68235910E-01 0.65879048E+03</pdfrwt>
<totfact> 0.83557764E+01</totfact>
</mgrwt>
</event>
<event>
 4    1  0.1521315E-007  0.8020836E+03  0.7818608E-02  0.9706309E-01
         -1   -1    0    0    0  501 -0.00000000000E+00  0.00000000000E+00  0.36344883117E+03  0.36344883120E+03  0.50400000000E-02 0.  1.
          1   -1    0    0  501    0  0.00000000000E+00 -0.00000000000E+00 -0.13037358641E+04  0.13037358641E+04  0.50400000000E-02 0. -1.
    8880023    1    1    2    0    0  0.44688807783E+03  0.99090216563E+02 -0.86341502699E+03  0.11784835766E+04  0.65864270000E+03 0. -1.
    8880022    1    1    2    0    0 -0.44688807783E+03 -0.99090216563E+02 -0.76872005902E+02  0.48870111871E+03  0.15294330000E+03 0.  1.
<mgrwt>
<rscale>  0 0.70642398E+03</rscale>
<asrwt>0</asrwt>
<pdfrwt beam="1">  1        1 0.20057475E+00 0.80208356E+03</pdfrwt>
<pdfrwt beam="2">  1       -1 0.55915205E-01 0.80208356E+03</pdfrwt>
<totfact> 0.29779478E+01</totfact>
</mgrwt>
</event>
<event>
 4    1  0.1521315E-007  0.7545743E+03  0.7818608E-02  0.9819362E-01
         -1   -1    0    0    0  501 -0.00000000000E+00  0.00000000000E+00  0.10939490305E+04  0.10939490305E+04  0.50400000000E-02 0.  1.
          1   -1    0    0  501    0  0.00000000000E+00 -0.00000000000E+00 -0.35768136972E+03  0.35768136976E+03  0.50400000000E-02 0. -1.
    8880023    1    1    2    0    0  0.30306068555E+02 -0.36695201473E+03  0.19498897013E+03  0.77936072754E+03  0.65864270000E+03 0.  0.
    8880022    1    1    2    0    0 -0.30306068555E+02  0.36695201473E+03  0.54127869069E+03  0.67226967276E+03  0.15294330000E+03 0.  0.
<mgrwt>
<rscale>  0 0.64333746E+03</rscale>
<asrwt>0</asrwt>
<pdfrwt beam="1">  1        1 0.55027903E-01 0.75457435E+03</pdfrwt>
<pdfrwt beam="2">  1       -1 0.16829985E+00 0.75457435E+03</pdfrwt>
<totfact> 0.18085850E+01</totfact>
</mgrwt>
</event>
<event>
 4    1  0.1521315E-007  0.6596219E+03  0.7818608E-02  0.1024547E+00
          1   -1    0    0  501    0  0.00000000000E+00  0.00000000000E+00  0.18619149477E+04  0.18619149477E+04  0.50400000000E-02 0. -1.
         -1   -1    0    0    0  501 -0.00000000000E+00 -0.00000000000E+00 -0.17954558529E+03  0.17954558536E+03  0.50400000000E-02 0.  1.
    8880023    1    1    2    0    0 -0.31626441727E+02  0.17049209983E+02  0.17501711302E+04  0.18703475876E+04  0.65864270000E+03 0. -1.
    8880022    1    1    2    0    0  0.31626441727E+02 -0.17049209983E+02 -0.67801767756E+02  0.17111294546E+03  0.15294330000E+03 0.  0.
<mgrwt>
<rscale>  0 0.46080809E+03</rscale>
<asrwt>0</asrwt>
<pdfrwt beam="1">  1        1 0.28644847E+00 0.65962195E+03</pdfrwt>
<pdfrwt beam="2">  1       -1 0.27622396E-01 0.65962195E+03</pdfrwt>
<totfact> 0.45524373E+01</totfact>
</mgrwt>
</event>
<event>
 4    1  0.1521315E-007  0.9656922E+03  0.7818608E-02  0.9427887E-01
          1   -1    0    0  501    0  0.00000000000E+00  0.00000000000E+00  0.10396513615E+04  0.10396513615E+04  0.50400000000E-02 0. -1.
         -1   -1    0    0    0  501 -0.00000000000E+00 -0.00000000000E+00 -0.13046067600E+04  0.13046067600E+04  0.50400000000E-02 0.  1.
    8880023    1    1    2    0    0 -0.65944888870E+03 -0.25274176197E+03 -0.94560906138E+03  0.13515686954E+04  0.65864270000E+03 0.  1.
    8880022    1    1    2    0    0  0.65944888870E+03  0.25274176197E+03  0.68065366287E+03  0.99268942617E+03  0.15294330000E+03 0.  0.
<mgrwt>
<rscale>  0 0.89815795E+03</rscale>
<asrwt>0</asrwt>
<pdfrwt beam="1">  1        1 0.15994636E+00 0.96569221E+03</pdfrwt>
<pdfrwt beam="2">  1       -1 0.20070873E+00 0.96569221E+03</pdfrwt>
<totfact> 0.21166827E+00</totfact>
</mgrwt>
</event>
<event>
 4    1  0.1521315E-007  0.7638474E+03  0.7818608E-02  0.9795247E-01
          1   -1    0    0  501    0  0.00000000000E+00  0.00000000000E+00  0.86135857491E+03  0.86135857493E+03  0.50400000000E-02 0. -1.
         -1   -1    0    0    0  501 -0.00000000000E+00 -0.00000000000E+00 -0.41925106204E+03  0.41925106207E+03  0.50400000000E-02 0.  1.
    8880023    1    1    2    0    0 -0.38431799045E+03 -0.44185816147E+02  0.16702131171E+03  0.78189451268E+03  0.65864270000E+03 0.  1.
    8880022    1    1    2    0    0  0.38431799045E+03  0.44185816147E+02  0.27508620116E+03  0.49871512431E+03  0.15294330000E+03 0.  1.
<mgrwt>
<rscale>  0 0.65618251E+03</rscale>
<asrwt>0</asrwt>
<pdfrwt beam="1">  1        1 0.13251670E+00 0.76384744E+03</pdfrwt>
<pdfrwt beam="2">  1       -1 0.64500165E-01 0.76384744E+03</pdfrwt>
<totfact> 0.48802811E+01</totfact>
</mgrwt>
</event>
<event>
 4    1  0.1521315E-007  0.7023826E+03  0.7818608E-02  0.9987457E-01
         -1   -1    0    0    0  501 -0.00000000000E+00  0.00000000000E+00  0.20616480632E+03  0.20616480638E+03  0.50400000000E-02 0.  1.
          1   -1    0    0  501    0  0.00000000000E+00 -0.00000000000E+00 -0.15831220199E+04  0.15831220199E+04  0.50400000000E-02 0. -1.
    8880023    1    1    2    0    0  0.11882634030E+01  0.24398714091E+03 -0.13207322252E+04  0.14958860096E+04  0.65864270000E+03 0.  0.
    8880022    1    1    2    0    0 -0.11882634030E+01 -0.24398714091E+03 -0.56224988439E+02  0.29340081670E+03  0.15294330000E+03 0.  0.
<mgrwt>
<rscale>  0 0.56203654E+03</rscale>
<asrwt>0</asrwt>
<pdfrwt beam="1">  1        1 0.24355723E+00 0.70238262E+03</pdfrwt>
<pdfrwt beam="2">  1       -1 0.31717664E-01 0.70238262E+03</pdfrwt>
<totfact> 0.54784876E+01</totfact>
</mgrwt>
</event>
<event>
 4    1  0.1521315E-007  0.7300744E+03  0.7818608E-02  0.9889864E-01
          1   -1    0    0  501    0  0.00000000000E+00  0.00000000000E+00  0.13409056473E+04  0.13409056473E+04  0.50400000000E-02 0. -1.
         -1   -1    0    0    0  501 -0.00000000000E+00 -0.00000000000E+00 -0.52816323024E+03  0.52816323026E+03  0.50400000000E-02 0.  1.
    8880023    1    1    2    0    0 -0.28035551699E+03  0.14352437144E+03  0.11634230401E+04  0.13735216917E+04  0.65864270000E+03 0. -1.
    8880022    1    1    2    0    0  0.28035551699E+03 -0.14352437144E+03 -0.35068062299E+03  0.49554718590E+03  0.15294330000E+03 0.  0.
<mgrwt>
<rscale>  0 0.60755036E+03</rscale>
<asrwt>0</asrwt>
<pdfrwt beam="1">  1        1 0.20629318E+00 0.73007443E+03</pdfrwt>
<pdfrwt beam="2">  1       -1 0.81255882E-01 0.73007443E+03</pdfrwt>
<totfact> 0.13244454E+01</totfact>
</mgrwt>
</event>
<event>
 4    1  0.1521315E-007  0.6807958E+03  0.7818608E-02  0.1008877E+00
         -1   -1    0    0    0  501 -0.00000000000E+00  0.00000000000E+00  0.31052328270E+03  0.31052328274E+03  0.50400000000E-02 0.  1.
          1   -1    0    0  501    0  0.00000000000E+00 -0.00000000000E+00 -0.10849423882E+04  0.10849423882E+04  0.50400000000E-02 0. -1.
    8880023    1    1    2    0    0  0.12735268424E+03  0.11599127855E+03 -0.90359951894E+03  0.11313597924E+04  0.65864270000E+03 0. -1.
    8880022    1    1    2    0    0 -0.12735268424E+03 -0.11599127855E+03  0.12918041343E+03  0.26410587860E+03  0.15294330000E+03 0.  0.
<mgrwt>
<rscale>  0 0.51923383E+03</rscale>
<asrwt>0</asrwt>
<pdfrwt beam="1">  1        1 0.16691421E+00 0.68079578E+03</pdfrwt>
<pdfrwt beam="2">  1       -1 0.47772813E-01 0.68079578E+03</pdfrwt>
<totfact> 0.58717864E+01</totfact>
</mgrwt>
</event>
<event>
 4    1  0.1521315E-007  0.1068317E+04  0.7818608E-02  0.9297179E-01
          1   -1    0    0  501    0  0.00000000000E+00  0.00000000000E+00  0.24596740355E+04  0.24596740355E+04  0.50400000000E-02 0. -1.
         -1   -1    0    0    0  501 -0.00000000000E+00 -0.00000000000E+00 -0.69224341560E+03  0.69224341562E+03  0.50400000000E-02 0.  1.
    8880023    1    1    2    0    0  0.83567442779E+03  0.95601485742E+02  0.19986775479E+04  0.22662774632E+04  0.65864270000E+03 0. -1.
    8880022    1    1    2    0    0 -0.83567442779E+03 -0.95601485742E+02 -0.23124692809E+03  0.88563998786E+03  0.15294330000E+03 0.  0.
<mgrwt>
<rscale>  0 0.10104298E+04</rscale>
<asrwt>0</asrwt>
<pdfrwt beam="1">  1        1 0.37841139E+00 0.10683172E+04</pdfrwt>
<pdfrwt beam="2">  1       -1 0.10649899E+00 0.10683172E+04</pdfrwt>
<totfact> 0.11986871E+00</totfact>
</mgrwt>
</event>
<event>
 4    1  0.1521315E-007  0.6734800E+03  0.7818608E-02  0.1013282E+00
         -1   -1    0    0    0  501 -0.00000000000E+00  0.00000000000E+00  0.77873741328E+03  0.77873741330E+03  0.50400000000E-02 0.  1.
          1   -1    0    0  501    0  0.00000000000E+00 -0.00000000000E+00 -0.47321015073E+03  0.47321015075E+03  0.50400000000E-02 0. -1.
    8880023    1    1    2    0    0  0.14337538202E+01 -0.14058107141E+03 -0.20235297761E+03  0.70322260139E+03  0.65864270000E+03 0.  0.
    8880022    1    1    2    0    0 -0.14337538202E+01  0.14058107141E+03  0.50788024017E+03  0.54872496267E+03  0.15294330000E+03 0.  1.
<mgrwt>
<rscale>  0 0.50190857E+03</rscale>
<asrwt>0</asrwt>
<pdfrwt beam="1">  1        1 0.72801562E-01 0.67347999E+03</pdfrwt>
<pdfrwt beam="2">  1       -1 0.11980576E+00 0.67347999E+03</pdfrwt>
<totfact> 0.30656355E+01</totfact>
</mgrwt>
</event>
<event>
 4    1  0.1521315E-007  0.1112873E+04  0.7818608E-02  0.9246857E-01
         -1   -1    0    0    0  501 -0.00000000000E+00  0.00000000000E+00  0.80991373873E+03  0.80991373874E+03  0.50400000000E-02 0.  1.
          1   -1    0    0  501    0  0.00000000000E+00 -0.00000000000E+00 -0.25478477724E+04  0.25478477724E+04  0.50400000000E-02 0. -1.
    8880023    1    1    2    0    0 -0.23724936281E+03 -0.86509531637E+03  0.27703831424E+03  0.11468380881E+04  0.65864270000E+03 0.  0.
    8880022    1    1    2    0    0  0.23724936281E+03  0.86509531637E+03 -0.20149723479E+04  0.22109234230E+04  0.15294330000E+03 0.  0.
<mgrwt>
<rscale>  0 0.10582606E+04</rscale>
<asrwt>0</asrwt>
<pdfrwt beam="1">  1        1 0.39197658E+00 0.11128735E+04</pdfrwt>
<pdfrwt beam="2">  1       -1 0.12460211E+00 0.11128735E+04</pdfrwt>
<totfact> 0.70868594E-01</totfact>
</mgrwt>
</event>
<event>
 4    1  0.1521315E-007  0.1136243E+04  0.7818608E-02  0.9221738E-01
         -1   -1    0    0    0  501 -0.00000000000E+00  0.00000000000E+00  0.75799122330E+03  0.75799122332E+03  0.50400000000E-02 0.  1.
          1   -1    0    0  501    0  0.00000000000E+00 -0.00000000000E+00 -0.14270888148E+04  0.14270888148E+04  0.50400000000E-02 0. -1.
    8880023    1    1    2    0    0 -0.92374480537E+03 -0.62714002434E+02 -0.28756921908E+03  0.11720681608E+04  0.65864270000E+03 0. -1.
    8880022    1    1    2    0    0  0.92374480537E+03  0.62714002434E+02 -0.38152837237E+03  0.10130118773E+04  0.15294330000E+03 0.  0.
<mgrwt>
<rscale>  0 0.10831846E+04</rscale>
<asrwt>0</asrwt>
<pdfrwt beam="1">  1        1 0.21955213E+00 0.11362428E+04</pdfrwt>
<pdfrwt beam="2">  1       -1 0.11661403E+00 0.11362428E+04</pdfrwt>
<totfact> 0.48297415E+00</totfact>
</mgrwt>
</event>
<event>
 4    1  0.1521315E-007  0.6929294E+03  0.7818608E-02  0.1002790E+00
         -1   -1    0    0    0  501 -0.00000000000E+00  0.00000000000E+00  0.70326043981E+03  0.70326043983E+03  0.50400000000E-02 0.  1.
          1   -1    0    0  501    0  0.00000000000E+00 -0.00000000000E+00 -0.39504340762E+03  0.39504340766E+03  0.50400000000E-02 0. -1.
    8880023    1    1    2    0    0  0.94273113764E+01  0.21506303634E+03  0.65316106001E+00  0.69292973430E+03  0.65864270000E+03 0.  0.
    8880022    1    1    2    0    0 -0.94273113764E+01 -0.21506303634E+03  0.30756387113E+03  0.40537411318E+03  0.15294330000E+03 0.  0.
<mgrwt>
<rscale>  0 0.54443529E+03</rscale>
<asrwt>0</asrwt>
<pdfrwt beam="1">  1        1 0.60775910E-01 0.69292943E+03</pdfrwt>
<pdfrwt beam="2">  1       -1 0.10819391E+00 0.69292943E+03</pdfrwt>
<totfact> 0.49659443E+01</totfact>
</mgrwt>
</event>
<event>
 4    1  0.1521315E-007  0.9244291E+03  0.7818608E-02  0.9487901E-01
          1   -1    0    0  501    0  0.00000000000E+00  0.00000000000E+00  0.31491301850E+04  0.31491301850E+04  0.50400000000E-02 0. -1.
         -1   -1    0    0    0  501 -0.00000000000E+00 -0.00000000000E+00 -0.34604773947E+03  0.34604773951E+03  0.50400000000E-02 0.  1.
    8880023    1    1    2    0    0 -0.26612190076E+03  0.59155571089E+03  0.26565713367E+04  0.28128171818E+04  0.65864270000E+03 0. -1.
    8880022    1    1    2    0    0  0.26612190076E+03 -0.59155571089E+03  0.14651110886E+03  0.68236074270E+03  0.15294330000E+03 0.  0.
<mgrwt>
<rscale>  0 0.85181741E+03</rscale>
<asrwt>0</asrwt>
<pdfrwt beam="1">  1        1 0.48448156E+00 0.92442914E+03</pdfrwt>
<pdfrwt beam="2">  1       -1 0.53238115E-01 0.92442914E+03</pdfrwt>
<totfact> 0.17236389E+00</totfact>
</mgrwt>
</event>
<event>
 4    1  0.1521315E-007  0.9277646E+03  0.7818608E-02  0.9482855E-01
         -1   -1    0    0    0  501 -0.00000000000E+00  0.00000000000E+00  0.19254566393E+04  0.19254566393E+04  0.50400000000E-02 0.  1.
          1   -1    0    0  501    0  0.00000000000E+00 -0.00000000000E+00 -0.75061983134E+03  0.75061983135E+03  0.50400000000E-02 0. -1.
    8880023    1    1    2    0    0  0.44452604944E+02  0.65189019193E+03 -0.36452045086E+03  0.99680601010E+03  0.65864270000E+03 0. -1.
    8880022    1    1    2    0    0 -0.44452604944E+02 -0.65189019193E+03  0.15393572588E+04  0.16792704606E+04  0.15294330000E+03 0.  0.
<mgrwt>
<rscale>  0 0.85559751E+03</rscale>
<asrwt>0</asrwt>
<pdfrwt beam="1">  1        1 0.11547998E+00 0.92776455E+03</pdfrwt>
<pdfrwt beam="2">  1       -1 0.29622409E+00 0.92776455E+03</pdfrwt>
<totfact> 0.87558393E-01</totfact>
</mgrwt>
</event>
<event>
 4    1  0.1521315E-007  0.9225472E+03  0.7818608E-02  0.9490764E-01
          1   -1    0    0  501    0  0.00000000000E+00  0.00000000000E+00  0.35676181842E+04  0.35676181842E+04  0.50400000000E-02 0. -1.
         -1   -1    0    0    0  501 -0.00000000000E+00 -0.00000000000E+00 -0.44989645375E+03  0.44989645378E+03  0.50400000000E-02 0.  1.
    8880023    1    1    2    0    0 -0.47356397634E+03  0.43934083792E+03  0.32166674125E+04  0.33463476598E+04  0.65864270000E+03 0.  0.
    8880022    1    1    2    0    0  0.47356397634E+03 -0.43934083792E+03 -0.98945682043E+02  0.67116697816E+03  0.15294330000E+03 0.  0.
<mgrwt>
<rscale>  0 0.84968167E+03</rscale>
<asrwt>0</asrwt>
<pdfrwt beam="1">  1        1 0.54886432E+00 0.92254724E+03</pdfrwt>
<pdfrwt beam="2">  1       -1 0.69214841E-01 0.92254724E+03</pdfrwt>
<totfact> 0.49288572E-01</totfact>
</mgrwt>
</event>
<event>
 4    1  0.1521315E-007  0.8339901E+03  0.7818608E-02  0.9641618E-01
         -1   -1    0    0    0  501 -0.00000000000E+00  0.00000000000E+00  0.10237077738E+04  0.10237077738E+04  0.50400000000E-02 0.  1.
          1   -1    0    0  501    0  0.00000000000E+00 -0.00000000000E+00 -0.47072700914E+03  0.47072700917E+03  0.50400000000E-02 0. -1.
    8880023    1    1    2    0    0 -0.48973665222E+03 -0.14794343585E+03  0.21074232502E+03  0.86020450043E+03  0.65864270000E+03 0. -1.
    8880022    1    1    2    0    0  0.48973665222E+03  0.14794343585E+03  0.34223843968E+03  0.63423028258E+03  0.15294330000E+03 0.  1.
<mgrwt>
<rscale>  0 0.74601798E+03</rscale>
<asrwt>0</asrwt>
<pdfrwt beam="1">  1        1 0.72419541E-01 0.83399008E+03</pdfrwt>
<pdfrwt beam="2">  1       -1 0.15749350E+00 0.83399008E+03</pdfrwt>
<totfact> 0.14978336E+01</totfact>
</mgrwt>
</event>
<event>
 4    1  0.1521315E-007  0.7945579E+03  0.7818608E-02  0.9722689E-01
          1   -1    0    0  501    0  0.00000000000E+00  0.00000000000E+00  0.13580833372E+04  0.13580833372E+04  0.50400000000E-02 0. -1.
         -1   -1    0    0    0  501 -0.00000000000E+00 -0.00000000000E+00 -0.80738915578E+03  0.80738915579E+03  0.50400000000E-02 0.  1.
    8880023    1    1    2    0    0 -0.34610402421E+03 -0.27879037695E+03  0.11537595364E+04  0.14008866278E+04  0.65864270000E+03 0. -1.
    8880022    1    1    2    0    0  0.34610402421E+03  0.27879037695E+03 -0.60306535499E+03  0.76458586520E+03  0.15294330000E+03 0.  0.
<mgrwt>
<rscale>  0 0.69681830E+03</rscale>
<asrwt>0</asrwt>
<pdfrwt beam="1">  1        1 0.20893590E+00 0.79455791E+03</pdfrwt>
<pdfrwt beam="2">  1       -1 0.12421372E+00 0.79455791E+03</pdfrwt>
<totfact> 0.48290773E+00</totfact>
</mgrwt>
</event>
<event>
 4    1  0.1521315E-007  0.7582614E+03  0.7818608E-02  0.9809630E-01
         -1   -1    0    0    0  501 -0.00000000000E+00  0.00000000000E+00  0.18349953092E+03  0.18349953099E+03  0.50400000000E-02 0.  1.
          1   -1    0    0  501    0  0.00000000000E+00 -0.00000000000E+00 -0.24481409494E+04  0.24481409494E+04  0.50400000000E-02 0. -1.
    8880023    1    1    2    0    0 -0.17531465056E+03 -0.33228737586E+03 -0.20207436191E+04  0.21583246066E+04  0.65864270000E+03 0. -1.
    8880022    1    1    2    0    0  0.17531465056E+03  0.33228737586E+03 -0.24389779933E+03  0.47331587379E+03  0.15294330000E+03 0.  0.
<mgrwt>
<rscale>  0 0.64848320E+03</rscale>
<asrwt>0</asrwt>
<pdfrwt beam="1">  1        1 0.37663704E+00 0.75826139E+03</pdfrwt>
<pdfrwt beam="2">  1       -1 0.28230699E-01 0.75826139E+03</pdfrwt>
<totfact> 0.17483212E+01</totfact>
</mgrwt>
</event>
<event>
 4    1  0.1521315E-007  0.7382467E+03  0.7818608E-02  0.9865084E-01
          1   -1    0    0  501    0  0.00000000000E+00  0.00000000000E+00  0.10098894581E+04  0.10098894581E+04  0.50400000000E-02 0. -1.
         -1   -1    0    0    0  501 -0.00000000000E+00 -0.00000000000E+00 -0.30635777983E+03  0.30635777987E+03  0.50400000000E-02 0.  1.
    8880023    1    1    2    0    0  0.52440547034E+02 -0.32931443988E+03  0.53957541833E+03  0.91441229739E+03  0.65864270000E+03 0.  0.
    8880022    1    1    2    0    0 -0.52440547034E+02  0.32931443988E+03  0.16395625994E+03  0.40183494059E+03  0.15294330000E+03 0. -1.
<mgrwt>
<rscale>  0 0.61983716E+03</rscale>
<asrwt>0</asrwt>
<pdfrwt beam="1">  1        1 0.15536761E+00 0.73824672E+03</pdfrwt>
<pdfrwt beam="2">  1       -1 0.47131966E-01 0.73824672E+03</pdfrwt>
<totfact> 0.68280498E+01</totfact>
</mgrwt>
</event>
<event>
 4    1  0.1521315E-007  0.9268789E+03  0.7818608E-02  0.9484191E-01
          1   -1    0    0  501    0  0.00000000000E+00  0.00000000000E+00  0.98793505820E+03  0.98793505821E+03  0.50400000000E-02 0. -1.
         -1   -1    0    0    0  501 -0.00000000000E+00 -0.00000000000E+00 -0.15259127829E+04  0.15259127829E+04  0.50400000000E-02 0.  1.
    8880023    1    1    2    0    0 -0.57875643942E+03  0.30055814558E+03  0.66238540062E+03  0.11392360775E+04  0.65864270000E+03 0. -1.
    8880022    1    1    2    0    0  0.57875643942E+03 -0.30055814558E+03 -0.12003631253E+04  0.13746117636E+04  0.15294330000E+03 0.  0.
<mgrwt>
<rscale>  0 0.85459438E+03</rscale>
<asrwt>0</asrwt>
<pdfrwt beam="1">  1        1 0.15199001E+00 0.92687886E+03</pdfrwt>
<pdfrwt beam="2">  1       -1 0.23475581E+00 0.92687886E+03</pdfrwt>
<totfact> 0.13813923E+00</totfact>
</mgrwt>
</event>
<event>
 4    1  0.1521315E-007  0.6860297E+03  0.7818608E-02  0.1006100E+00
         -1   -1    0    0    0  501 -0.00000000000E+00  0.00000000000E+00  0.10208998392E+04  0.10208998393E+04  0.50400000000E-02 0.  1.
          1   -1    0    0  501    0  0.00000000000E+00 -0.00000000000E+00 -0.24168614151E+03  0.24168614156E+03  0.50400000000E-02 0. -1.
    8880023    1    1    2    0    0 -0.48924073991E+02 -0.18556136365E+03  0.35482743545E+03  0.77235956646E+03  0.65864270000E+03 0. -1.
    8880022    1    1    2    0    0  0.48924073991E+02  0.18556136365E+03  0.42438626228E+03  0.49022641435E+03  0.15294330000E+03 0.  0.
<mgrwt>
<rscale>  0 0.53054620E+03</rscale>
<asrwt>0</asrwt>
<pdfrwt beam="1">  1        1 0.37182483E-01 0.68602973E+03</pdfrwt>
<pdfrwt beam="2">  1       -1 0.15706152E+00 0.68602973E+03</pdfrwt>
<totfact> 0.36736241E+01</totfact>
</mgrwt>
</event>
<event>
 4    1  0.1521315E-007  0.9096340E+03  0.7818608E-02  0.9510740E-01
          1   -1    0    0  501    0  0.00000000000E+00  0.00000000000E+00  0.20478706879E+04  0.20478706879E+04  0.50400000000E-02 0. -1.
         -1   -1    0    0    0  501 -0.00000000000E+00 -0.00000000000E+00 -0.54052733814E+03  0.54052733816E+03  0.50400000000E-02 0.  1.
    8880023    1    1    2    0    0  0.62737877374E+03 -0.44436582750E+01  0.16882992750E+04  0.19177561159E+04  0.65864270000E+03 0.  0.
    8880022    1    1    2    0    0 -0.62737877374E+03  0.44436582750E+01 -0.18095592521E+03  0.67064191020E+03  0.15294330000E+03 0.  0.
<mgrwt>
<rscale>  0 0.83496651E+03</rscale>
<asrwt>0</asrwt>
<pdfrwt beam="1">  1        1 0.31505702E+00 0.90963404E+03</pdfrwt>
<pdfrwt beam="2">  1       -1 0.83158053E-01 0.90963404E+03</pdfrwt>
<totfact> 0.40678998E+00</totfact>
</mgrwt>
</event>
<event>
 4    1  0.1521315E-007  0.7283777E+03  0.7818608E-02  0.9895195E-01
          1   -1    0    0  501    0  0.00000000000E+00  0.00000000000E+00  0.93312121291E+03  0.93312121293E+03  0.50400000000E-02 0. -1.
         -1   -1    0    0    0  501 -0.00000000000E+00 -0.00000000000E+00 -0.48497079468E+03  0.48497079471E+03  0.50400000000E-02 0.  1.
    8880023    1    1    2    0    0 -0.26166989216E+03 -0.16808542031E+03  0.68374587650E+03  0.99902075598E+03  0.65864270000E+03 0. -1.
    8880022    1    1    2    0    0  0.26166989216E+03  0.16808542031E+03 -0.23559545827E+03  0.41907125165E+03  0.15294330000E+03 0.  1.
<mgrwt>
<rscale>  0 0.60494703E+03</rscale>
<asrwt>0</asrwt>
<pdfrwt beam="1">  1        1 0.14355711E+00 0.72837768E+03</pdfrwt>
<pdfrwt beam="2">  1       -1 0.74610892E-01 0.72837768E+03</pdfrwt>
<totfact> 0.31794376E+01</totfact>
</mgrwt>
</event>
<event>
 4    1  0.1521315E-007  0.6763057E+03  0.7818608E-02  0.1011496E+00
          1   -1    0    0  501    0  0.00000000000E+00  0.00000000000E+00  0.11958906766E+04  0.11958906766E+04  0.50400000000E-02 0. -1.
         -1   -1    0    0    0  501 -0.00000000000E+00 -0.00000000000E+00 -0.63448226820E+03  0.63448226822E+03  0.50400000000E-02 0.  1.
    8880023    1    1    2    0    0  0.40999941267E+02  0.14798033104E+03  0.10766293361E+04  0.12714244402E+04  0.65864270000E+03 0. -1.
    8880022    1    1    2    0    0 -0.40999941267E+02 -0.14798033104E+03 -0.51522092765E+03  0.55894850467E+03  0.15294330000E+03 0.  0.
<mgrwt>
<rscale>  0 0.50884534E+03</rscale>
<asrwt>0</asrwt>
<pdfrwt beam="1">  1        1 0.18398318E+00 0.67630569E+03</pdfrwt>
<pdfrwt beam="2">  1       -1 0.97612656E-01 0.67630569E+03</pdfrwt>
<totfact> 0.11327673E+01</totfact>
</mgrwt>
</event>
<event>
 4    1  0.1521315E-007  0.8861380E+03  0.7818608E-02  0.9548661E-01
          1   -1    0    0  501    0  0.00000000000E+00  0.00000000000E+00  0.96967416098E+03  0.96967416100E+03  0.50400000000E-02 0. -1.
         -1   -1    0    0    0  501 -0.00000000000E+00 -0.00000000000E+00 -0.20520537064E+04  0.20520537064E+04  0.50400000000E-02 0.  1.
    8880023    1    1    2    0    0  0.57419442851E+03  0.14741500810E+03 -0.18432122033E+04  0.20451581501E+04  0.65864270000E+03 0.  0.
    8880022    1    1    2    0    0 -0.57419442851E+03 -0.14741500810E+03  0.76083265790E+03  0.97656971727E+03  0.15294330000E+03 0.  0.
<mgrwt>
<rscale>  0 0.80789363E+03</rscale>
<asrwt>0</asrwt>
<pdfrwt beam="1">  1        1 0.14918064E+00 0.88613804E+03</pdfrwt>
<pdfrwt beam="2">  1       -1 0.31570057E+00 0.88613804E+03</pdfrwt>
<totfact> 0.43250891E-01</totfact>
</mgrwt>
</event>
<event>
 4    1  0.1521315E-007  0.8609374E+03  0.7818608E-02  0.9591898E-01
          1   -1    0    0  501    0  0.00000000000E+00  0.00000000000E+00  0.45395091669E+03  0.45395091672E+03  0.50400000000E-02 0. -1.
         -1   -1    0    0    0  501 -0.00000000000E+00 -0.00000000000E+00 -0.41345925225E+04  0.41345925225E+04  0.50400000000E-02 0.  1.
    8880023    1    1    2    0    0 -0.54977932538E+03  0.71733449218E+02  0.23230691241E+01  0.86094053062E+03  0.65864270000E+03 0. -1.
    8880022    1    1    2    0    0  0.54977932538E+03 -0.71733449218E+02 -0.36829646750E+04  0.37276029086E+04  0.15294330000E+03 0.  0.
<mgrwt>
<rscale>  0 0.77834742E+03</rscale>
<asrwt>0</asrwt>
<pdfrwt beam="1">  1        1 0.69838605E-01 0.86093740E+03</pdfrwt>
<pdfrwt beam="2">  1       -1 0.63609113E+00 0.86093740E+03</pdfrwt>
<totfact> 0.16646965E-02</totfact>
</mgrwt>
</event>
<event>
 4    1  0.1521315E-007  0.9658542E+03  0.7818608E-02  0.9427661E-01
         -1   -1    0    0    0  501 -0.00000000000E+00  0.00000000000E+00  0.85861554855E+03  0.85861554856E+03  0.50400000000E-02 0.  1.
          1   -1    0    0  501    0  0.00000000000E+00 -0.00000000000E+00 -0.12133391689E+04  0.12133391689E+04  0.50400000000E-02 0. -1.
    8880023    1    1    2    0    0 -0.42624158949E+03  0.56336689461E+03 -0.77277670056E+03  0.12369552077E+04  0.65864270000E+03 0.  0.
    8880022    1    1    2    0    0  0.42624158949E+03 -0.56336689461E+03  0.41805308019E+03  0.83499950984E+03  0.15294330000E+03 0.  0.
<mgrwt>
<rscale>  0 0.89833822E+03</rscale>
<asrwt>0</asrwt>
<pdfrwt beam="1">  1        1 0.18666756E+00 0.96585421E+03</pdfrwt>
<pdfrwt beam="2">  1       -1 0.13209470E+00 0.96585421E+03</pdfrwt>
<totfact> 0.51263011E+00</totfact>
</mgrwt>
</event>
<event>
 4    1  0.1521315E-007  0.7026477E+03  0.7818608E-02  0.9986390E-01
         -1   -1    0    0    0  501 -0.00000000000E+00  0.00000000000E+00  0.14297088119E+03  0.14297088128E+03  0.50400000000E-02 0.  1.
          1   -1    0    0  501    0  0.00000000000E+00 -0.00000000000E+00 -0.19500729947E+04  0.19500729947E+04  0.50400000000E-02 0. -1.
    8880023    1    1    2    0    0 -0.20304767890E+03  0.13665709750E+03 -0.15680745200E+04  0.17183048125E+04  0.65864270000E+03 0.  0.
    8880022    1    1    2    0    0  0.20304767890E+03 -0.13665709750E+03 -0.23902759347E+03  0.37473906343E+03  0.15294330000E+03 0.  0.
<mgrwt>
<rscale>  0 0.56251056E+03</rscale>
<asrwt>0</asrwt>
<pdfrwt beam="1">  1        1 0.30001121E+00 0.70264766E+03</pdfrwt>
<pdfrwt beam="2">  1       -1 0.21995522E-01 0.70264766E+03</pdfrwt>
<totfact> 0.58239583E+01</totfact>
</mgrwt>
</event>
<event>
 4    1  0.1521315E-007  0.9974953E+03  0.7818608E-02  0.9384842E-01
         -1   -1    0    0    0  501 -0.00000000000E+00  0.00000000000E+00  0.13523364286E+04  0.13523364286E+04  0.50400000000E-02 0.  1.
          1   -1    0    0  501    0  0.00000000000E+00 -0.00000000000E+00 -0.94396321232E+03  0.94396321233E+03  0.50400000000E-02 0. -1.
    8880023    1    1    2    0    0 -0.74701143184E+03  0.56218763697E+02 -0.49437186070E+03  0.11132835989E+04  0.65864270000E+03 0. -1.
    8880022    1    1    2    0    0  0.74701143184E+03 -0.56218763697E+02  0.90274507700E+03  0.11830160420E+04  0.15294330000E+03 0.  1.
<mgrwt>
<rscale>  0 0.93333698E+03</rscale>
<asrwt>0</asrwt>
<pdfrwt beam="1">  1        1 0.14522511E+00 0.99749528E+03</pdfrwt>
<pdfrwt beam="2">  1       -1 0.20805176E+00 0.99749528E+03</pdfrwt>
<totfact> 0.22324910E+00</totfact>
</mgrwt>
</event>
<event>
 4    1  0.1521315E-007  0.8657546E+03  0.7818608E-02  0.9583408E-01
          1   -1    0    0  501    0  0.00000000000E+00  0.00000000000E+00  0.13445090759E+04  0.13445090759E+04  0.50400000000E-02 0. -1.
         -1   -1    0    0    0  501 -0.00000000000E+00 -0.00000000000E+00 -0.64455480263E+03  0.64455480265E+03  0.50400000000E-02 0.  1.
    8880023    1    1    2    0    0 -0.31410402041E+03  0.46589651552E+03  0.10092358581E+04  0.13296947478E+04  0.65864270000E+03 0. -1.
    8880022    1    1    2    0    0  0.31410402041E+03 -0.46589651552E+03 -0.30928158485E+03  0.65936913073E+03  0.15294330000E+03 0.  0.
<mgrwt>
<rscale>  0 0.78404160E+03</rscale>
<asrwt>0</asrwt>
<pdfrwt beam="1">  1        1 0.20684755E+00 0.86575464E+03</pdfrwt>
<pdfrwt beam="2">  1       -1 0.99162278E-01 0.86575464E+03</pdfrwt>
<totfact> 0.83382874E+00</totfact>
</mgrwt>
</event>
<event>
 4    1  0.1521315E-007  0.8029099E+03  0.7818608E-02  0.9704539E-01
         -1   -1    0    0    0  501 -0.00000000000E+00  0.00000000000E+00  0.51034295278E+03  0.51034295280E+03  0.50400000000E-02 0.  1.
          1   -1    0    0  501    0  0.00000000000E+00 -0.00000000000E+00 -0.11181264166E+04  0.11181264167E+04  0.50400000000E-02 0. -1.
    8880023    1    1    2    0    0  0.40514873654E+03 -0.21612161905E+03 -0.77547229634E+03  0.11162533501E+04  0.65864270000E+03 0.  0.
    8880022    1    1    2    0    0 -0.40514873654E+03  0.21612161905E+03  0.16768883247E+03  0.51221601936E+03  0.15294330000E+03 0.  0.
<mgrwt>
<rscale>  0 0.70747167E+03</rscale>
<asrwt>0</asrwt>
<pdfrwt beam="1">  1        1 0.17201945E+00 0.80290987E+03</pdfrwt>
<pdfrwt beam="2">  1       -1 0.78514301E-01 0.80290987E+03</pdfrwt>
<totfact> 0.20419082E+01</totfact>
</mgrwt>
</event>
<event>
 4    1  0.1521315E-007  0.7056035E+03  0.7818608E-02  0.9974704E-01
          1   -1    0    0  501    0  0.00000000000E+00  0.00000000000E+00  0.10688265596E+04  0.10688265596E+04  0.50400000000E-02 0. -1.
         -1   -1    0    0    0  501 -0.00000000000E+00 -0.00000000000E+00 -0.27402450975E+03  0.27402450980E+03  0.50400000000E-02 0.  1.
    8880023    1    1    2    0    0  0.22619295069E+03  0.11359085265E+03  0.77254794443E+03  0.10462823068E+04  0.65864270000E+03 0.  0.
    8880022    1    1    2    0    0 -0.22619295069E+03 -0.11359085265E+03  0.22254105415E+02  0.29656876264E+03  0.15294330000E+03 0.  0.
<mgrwt>
<rscale>  0 0.56773461E+03</rscale>
<asrwt>0</asrwt>
<pdfrwt beam="1">  1        1 0.16443485E+00 0.70560353E+03</pdfrwt>
<pdfrwt beam="2">  1       -1 0.42157617E-01 0.70560353E+03</pdfrwt>
<totfact> 0.75934613E+01</totfact>
</mgrwt>
</event>
<event>
 4    1  0.1521315E-007  0.9691444E+03  0.7818608E-02  0.9423089E-01
         -1   -1    0    0    0  501 -0.00000000000E+00  0.00000000000E+00  0.92307447268E+03  0.92307447269E+03  0.50400000000E-02 0.  1.
          1   -1    0    0  501    0  0.00000000000E+00 -0.00000000000E+00 -0.26147747386E+04  0.26147747386E+04  0.50400000000E-02 0. -1.
    8880023    1    1    2    0    0  0.53269554839E+03 -0.47081430253E+03 -0.23593500370E+04  0.25506417738E+04  0.65864270000E+03 0.  0.
    8880022    1    1    2    0    0 -0.53269554839E+03  0.47081430253E+03  0.66764977112E+03  0.98720743749E+03  0.15294330000E+03 0.  0.
<mgrwt>
<rscale>  0 0.90199699E+03</rscale>
<asrwt>0</asrwt>
<pdfrwt beam="1">  1        1 0.40227303E+00 0.96914440E+03</pdfrwt>
<pdfrwt beam="2">  1       -1 0.14201146E+00 0.96914440E+03</pdfrwt>
<totfact> 0.46675783E-01</totfact>
</mgrwt>
</event>
<event>
 4    1  0.1521315E-007  0.7869466E+03  0.7818608E-02  0.9739765E-01
         -1   -1    0    0    0  501 -0.00000000000E+00  0.00000000000E+00  0.88297830719E+03  0.88297830720E+03  0.50400000000E-02 0.  1.
          1   -1    0    0  501    0  0.00000000000E+00 -0.00000000000E+00 -0.43831861579E+03  0.43831861582E+03  0.50400000000E-02 0. -1.
    8880023    1    1    2    0    0  0.31810102304E+03  0.29032142178E+03  0.26819291557E+03  0.83139186611E+03  0.65864270000E+03 0.  0.
    8880022    1    1    2    0    0 -0.31810102304E+03 -0.29032142178E+03  0.17646677583E+03  0.48990505691E+03  0.15294330000E+03 0. -1.
<mgrwt>
<rscale>  0 0.68697755E+03</rscale>
<asrwt>0</asrwt>
<pdfrwt beam="1">  1        1 0.67433633E-01 0.78694663E+03</pdfrwt>
<pdfrwt beam="2">  1       -1 0.13584282E+00 0.78694663E+03</pdfrwt>
<totfact> 0.24558859E+01</totfact>
</mgrwt>
</event>
<event>
 4    1  0.1521315E-007  0.6799687E+03  0.7818608E-02  0.1009341E+00
         -1   -1    0    0    0  501 -0.00000000000E+00  0.00000000000E+00  0.11796057973E+04  0.11796057973E+04  0.50400000000E-02 0.  1.
          1   -1    0    0  501    0  0.00000000000E+00 -0.00000000000E+00 -0.22639027359E+03  0.22639027365E+03  0.50400000000E-02 0. -1.
    8880023    1    1    2    0    0  0.16783469649E+03  0.19459746026E+02  0.35759848186E+03  0.76826691166E+03  0.65864270000E+03 0. -1.
    8880022    1    1    2    0    0 -0.16783469649E+03 -0.19459746026E+02  0.59561704181E+03  0.63772915926E+03  0.15294330000E+03 0.  0.
<mgrwt>
<rscale>  0 0.51737231E+03</rscale>
<asrwt>0</asrwt>
<pdfrwt beam="1">  1        1 0.34829273E-01 0.67996866E+03</pdfrwt>
<pdfrwt beam="2">  1       -1 0.18147781E+00 0.67996866E+03</pdfrwt>
<totfact> 0.26498267E+01</totfact>
</mgrwt>
</event>
<event>
 4    1  0.1521315E-007  0.6913680E+03  0.7818608E-02  0.1003509E+00
         -1   -1    0    0    0  501 -0.00000000000E+00  0.00000000000E+00  0.31064934942E+03  0.31064934946E+03  0.50400000000E-02 0.  1.
          1   -1    0    0  501    0  0.00000000000E+00 -0.00000000000E+00 -0.24357425868E+04  0.24357425868E+04  0.50400000000E-02 0. -1.
    8880023    1    1    2    0    0 -0.18679840013E+03 -0.96363287166E+02 -0.23204285921E+04  0.24212349292E+04  0.65864270000E+03 0. -1.
    8880022    1    1    2    0    0  0.18679840013E+03  0.96363287166E+02  0.19533535469E+03  0.32515700702E+03  0.15294330000E+03 0.  0.
<mgrwt>
<rscale>  0 0.54137993E+03</rscale>
<asrwt>0</asrwt>
<pdfrwt beam="1">  1        1 0.37472962E+00 0.69136801E+03</pdfrwt>
<pdfrwt beam="2">  1       -1 0.47792209E-01 0.69136801E+03</pdfrwt>
<totfact> 0.70005732E+00</totfact>
</mgrwt>
</event>
<event>
 4    1  0.1521315E-007  0.1029431E+04  0.7818608E-02  0.9344027E-01
          1   -1    0    0  501    0  0.00000000000E+00  0.00000000000E+00  0.20498194449E+04  0.20498194449E+04  0.50400000000E-02 0. -1.
         -1   -1    0    0    0  501 -0.00000000000E+00 -0.00000000000E+00 -0.62299450004E+03  0.62299450006E+03  0.50400000000E-02 0.  1.
    8880023    1    1    2    0    0 -0.67457539542E+03 -0.41335979020E+03  0.15468939301E+04  0.18581198340E+04  0.65864270000E+03 0.  0.
    8880022    1    1    2    0    0  0.67457539542E+03  0.41335979020E+03 -0.12006898522E+03  0.81469411099E+03  0.15294330000E+03 0.  0.
<mgrwt>
<rscale>  0 0.96828785E+03</rscale>
<asrwt>0</asrwt>
<pdfrwt beam="1">  1        1 0.31535683E+00 0.10294311E+04</pdfrwt>
<pdfrwt beam="2">  1       -1 0.95845310E-01 0.10294311E+04</pdfrwt>
<totfact> 0.29159274E+00</totfact>
</mgrwt>
</event>
<event>
 4    1  0.1521315E-007  0.7992268E+03  0.7818608E-02  0.9712470E-01
          1   -1    0    0  501    0  0.00000000000E+00  0.00000000000E+00  0.31493807762E+03  0.31493807766E+03  0.50400000000E-02 0. -1.
         -1   -1    0    0    0  501 -0.00000000000E+00 -0.00000000000E+00 -0.15264303593E+04  0.15264303593E+04  0.50400000000E-02 0.  1.
    8880023    1    1    2    0    0 -0.27267574676E+03  0.36138798912E+03 -0.38603472811E+03  0.88757329789E+03  0.65864270000E+03 0. -1.
    8880022    1    1    2    0    0  0.27267574676E+03 -0.36138798912E+03 -0.82545755355E+03  0.95379513905E+03  0.15294330000E+03 0.  0.
<mgrwt>
<rscale>  0 0.70279147E+03</rscale>
<asrwt>0</asrwt>
<pdfrwt beam="1">  1        1 0.48452013E-01 0.79922684E+03</pdfrwt>
<pdfrwt beam="2">  1       -1 0.23483544E+00 0.79922684E+03</pdfrwt>
<totfact> 0.74245082E+00</totfact>
</mgrwt>
</event>
<event>
 4    1  0.1521315E-007  0.7799214E+03  0.7818608E-02  0.9756022E-01
          1   -1    0    0  501    0  0.00000000000E+00  0.00000000000E+00  0.20519583775E+04  0.20519583776E+04  0.50400000000E-02 0. -1.
         -1   -1    0    0    0  501 -0.00000000000E+00 -0.00000000000E+00 -0.32643960193E+03  0.32643960197E+03  0.50400000000E-02 0.  1.
    8880023    1    1    2    0    0  0.41474156722E+03  0.49564651366E+02  0.17671857901E+04  0.19316374001E+04  0.65864270000E+03 0.  0.
    8880022    1    1    2    0    0 -0.41474156722E+03 -0.49564651366E+02 -0.41667014510E+02  0.44676057946E+03  0.15294330000E+03 0.  1.
<mgrwt>
<rscale>  0 0.67777037E+03</rscale>
<asrwt>0</asrwt>
<pdfrwt beam="1">  1        1 0.31568590E+00 0.77992142E+03</pdfrwt>
<pdfrwt beam="2">  1       -1 0.50221477E-01 0.77992142E+03</pdfrwt>
<totfact> 0.11384232E+01</totfact>
</mgrwt>
</event>
<event>
 4    1  0.1521315E-007  0.8297607E+03  0.7818608E-02  0.9649798E-01
         -1   -1    0    0    0  501 -0.00000000000E+00  0.00000000000E+00  0.74294302477E+03  0.74294302479E+03  0.50400000000E-02 0.  1.
          1   -1    0    0  501    0  0.00000000000E+00 -0.00000000000E+00 -0.68909923973E+03  0.68909923974E+03  0.50400000000E-02 0. -1.
    8880023    1    1    2    0    0 -0.10518638340E+03 -0.49358727147E+03 -0.18972119891E+03  0.85117384205E+03  0.65864270000E+03 0.  0.
    8880022    1    1    2    0    0  0.10518638340E+03  0.49358727147E+03  0.24356498396E+03  0.58086842248E+03  0.15294330000E+03 0.  0.
<mgrwt>
<rscale>  0 0.74086091E+03</rscale>
<asrwt>0</asrwt>
<pdfrwt beam="1">  1        1 0.10601527E+00 0.82976067E+03</pdfrwt>
<pdfrwt beam="2">  1       -1 0.11429893E+00 0.82976067E+03</pdfrwt>
<totfact> 0.19788070E+01</totfact>
</mgrwt>
</event>
<event>
 4    1  0.1521315E-007  0.9786044E+03  0.7818608E-02  0.9410101E-01
          1   -1    0    0  501    0  0.00000000000E+00  0.00000000000E+00  0.51064345904E+03  0.51064345906E+03  0.50400000000E-02 0. -1.
         -1   -1    0    0    0  501 -0.00000000000E+00 -0.00000000000E+00 -0.20835486922E+04  0.20835486922E+04  0.50400000000E-02 0.  1.
    8880023    1    1    2    0    0 -0.53573404982E+03 -0.48666760557E+03 -0.14939974328E+03  0.98994283674E+03  0.65864270000E+03 0. -1.
    8880022    1    1    2    0    0  0.53573404982E+03  0.48666760557E+03 -0.14235054899E+04  0.16042493145E+04  0.15294330000E+03 0.  0.
<mgrwt>
<rscale>  0 0.91249058E+03</rscale>
<asrwt>0</asrwt>
<pdfrwt beam="1">  1        1 0.78560533E-01 0.97860438E+03</pdfrwt>
<pdfrwt beam="2">  1       -1 0.32054595E+00 0.97860438E+03</pdfrwt>
<totfact> 0.10659415E+00</totfact>
</mgrwt>
</event>
<event>
 4    1  0.1521315E-007  0.6736937E+03  0.7818608E-02  0.1013143E+00
         -1   -1    0    0    0  501 -0.00000000000E+00  0.00000000000E+00  0.23271371386E+04  0.23271371386E+04  0.50400000000E-02 0.  1.
          1   -1    0    0  501    0  0.00000000000E+00 -0.00000000000E+00 -0.24455426356E+03  0.24455426361E+03  0.50400000000E-02 0. -1.
    8880023    1    1    2    0    0  0.14431912278E+01  0.14160142844E+03  0.23668206338E+03  0.71405997838E+03  0.65864270000E+03 0. -1.
    8880022    1    1    2    0    0 -0.14431912278E+01 -0.14160142844E+03  0.18459008116E+04  0.18576314238E+04  0.15294330000E+03 0.  0.
<mgrwt>
<rscale>  0 0.50244553E+03</rscale>
<asrwt>0</asrwt>
<pdfrwt beam="1">  1        1 0.37623731E-01 0.67369374E+03</pdfrwt>
<pdfrwt beam="2">  1       -1 0.35802111E+00 0.67369374E+03</pdfrwt>
<totfact> 0.16886494E+00</totfact>
</mgrwt>
</event>
<event>
 4    1  0.1521315E-007  0.6825079E+03  0.7818608E-02  0.1007939E+00
         -1   -1    0    0    0  501 -0.00000000000E+00  0.00000000000E+00  0.40210658666E+03  0.40210658669E+03  0.50400000000E-02 0.  1.
          1   -1    0    0  501    0  0.00000000000E+00 -0.00000000000E+00 -0.52422710903E+03  0.52422710905E+03  0.50400000000E-02 0. -1.
    8880023    1    1    2    0    0  0.12990701700E+03  0.12300833666E+03 -0.79269927888E+02  0.68709592612E+03  0.65864270000E+03 0.  0.
    8880022    1    1    2    0    0 -0.12990701700E+03 -0.12300833666E+03 -0.42850594483E+02  0.23923776963E+03  0.15294330000E+03 0. -1.
<mgrwt>
<rscale>  0 0.52301973E+03</rscale>
<asrwt>0</asrwt>
<pdfrwt beam="1">  1        1 0.80650325E-01 0.68250794E+03</pdfrwt>
<pdfrwt beam="2">  1       -1 0.61862552E-01 0.68250794E+03</pdfrwt>
<totfact> 0.11239122E+02</totfact>
</mgrwt>
</event>
<event>
 4    1  0.1521315E-007  0.7888940E+03  0.7818608E-02  0.9735345E-01
          1   -1    0    0  501    0  0.00000000000E+00  0.00000000000E+00  0.25655223285E+04  0.25655223285E+04  0.50400000000E-02 0. -1.
         -1   -1    0    0    0  501 -0.00000000000E+00 -0.00000000000E+00 -0.44644596656E+03  0.44644596659E+03  0.50400000000E-02 0.  1.
    8880023    1    1    2    0    0  0.14445964706E+03  0.40948134222E+03  0.23628347877E+04  0.24910523879E+04  0.65864270000E+03 0. -1.
    8880022    1    1    2    0    0 -0.14445964706E+03 -0.40948134222E+03 -0.24375842572E+03  0.52091590720E+03  0.15294330000E+03 0.  0.
<mgrwt>
<rscale>  0 0.68950812E+03</rscale>
<asrwt>0</asrwt>
<pdfrwt beam="1">  1        1 0.39469574E+00 0.78889401E+03</pdfrwt>
<pdfrwt beam="2">  1       -1 0.68683995E-01 0.78889401E+03</pdfrwt>
<totfact> 0.27623370E+00</totfact>
</mgrwt>
</event>
<event>
 4    1  0.1521315E-007  0.6724028E+03  0.7818608E-02  0.1013996E+00
         -1   -1    0    0    0  501 -0.00000000000E+00  0.00000000000E+00  0.11002016196E+04  0.11002016197E+04  0.50400000000E-02 0.  1.
          1   -1    0    0  501    0  0.00000000000E+00 -0.00000000000E+00 -0.22166489452E+03  0.22166489458E+03  0.50400000000E-02 0. -1.
    8880023    1    1    2    0    0  0.12627064987E+03  0.48692686832E+02  0.35597876470E+03  0.76081951996E+03  0.65864270000E+03 0.  1.
    8880022    1    1    2    0    0 -0.12627064987E+03 -0.48692686832E+02  0.52255796043E+03  0.56104699428E+03  0.15294330000E+03 0.  0.
<mgrwt>
<rscale>  0 0.49916958E+03</rscale>
<asrwt>0</asrwt>
<pdfrwt beam="1">  1        1 0.34102291E-01 0.67240275E+03</pdfrwt>
<pdfrwt beam="2">  1       -1 0.16926179E+00 0.67240275E+03</pdfrwt>
<totfact> 0.33368261E+01</totfact>
</mgrwt>
</event>
<event>
 4    1  0.1521315E-007  0.6788180E+03  0.7818608E-02  0.1010000E+00
         -1   -1    0    0    0  501 -0.00000000000E+00  0.00000000000E+00  0.60464826819E+03  0.60464826821E+03  0.50400000000E-02 0.  1.
          1   -1    0    0  501    0  0.00000000000E+00 -0.00000000000E+00 -0.42826927690E+03  0.42826927693E+03  0.50400000000E-02 0. -1.
    8880023    1    1    2    0    0  0.15987855094E+03  0.37716392310E+02 -0.89810553412E+02  0.68473339269E+03  0.65864270000E+03 0. -1.
    8880022    1    1    2    0    0 -0.15987855094E+03 -0.37716392310E+02  0.26618954470E+03  0.34818415246E+03  0.15294330000E+03 0.  0.
<mgrwt>
<rscale>  0 0.51474514E+03</rscale>
<asrwt>0</asrwt>
<pdfrwt beam="1">  1        1 0.65887581E-01 0.67881800E+03</pdfrwt>
<pdfrwt beam="2">  1       -1 0.93022810E-01 0.67881800E+03</pdfrwt>
<totfact> 0.63029357E+01</totfact>
</mgrwt>
</event>
<event>
 4    1  0.1521315E-007  0.7492891E+03  0.7818608E-02  0.9833670E-01
          1   -1    0    0  501    0  0.00000000000E+00  0.00000000000E+00  0.35352084610E+03  0.35352084614E+03  0.50400000000E-02 0. -1.
         -1   -1    0    0    0  501 -0.00000000000E+00 -0.00000000000E+00 -0.15831377101E+04  0.15831377101E+04  0.50400000000E-02 0.  1.
    8880023    1    1    2    0    0 -0.41655756858E+02  0.35480805432E+03 -0.11730363328E+03  0.75841565526E+03  0.65864270000E+03 0. -1.
    8880022    1    1    2    0    0  0.41655756858E+02 -0.35480805432E+03 -0.11123132307E+04  0.11782429010E+04  0.15294330000E+03 0.  0.
<mgrwt>
<rscale>  0 0.63586481E+03</rscale>
<asrwt>0</asrwt>
<pdfrwt beam="1">  1        1 0.54387823E-01 0.74928911E+03</pdfrwt>
<pdfrwt beam="2">  1       -1 0.24355964E+00 0.74928911E+03</pdfrwt>
<totfact> 0.56380351E+00</totfact>
</mgrwt>
</event>
<event>
 4    1  0.1521315E-007  0.8705722E+03  0.7818608E-02  0.9575027E-01
          1   -1    0    0  501    0  0.00000000000E+00  0.00000000000E+00  0.18906555865E+04  0.18906555865E+04  0.50400000000E-02 0. -1.
         -1   -1    0    0    0  501 -0.00000000000E+00 -0.00000000000E+00 -0.71340902189E+03  0.71340902190E+03  0.50400000000E-02 0.  1.
    8880023    1    1    2    0    0 -0.54789206043E+03  0.15459656664E+03  0.16386062996E+04  0.18555124951E+04  0.65864270000E+03 0. -1.
    8880022    1    1    2    0    0  0.54789206043E+03 -0.15459656664E+03 -0.46135973494E+03  0.74855211331E+03  0.15294330000E+03 0.  0.
<mgrwt>
<rscale>  0 0.78971328E+03</rscale>
<asrwt>0</asrwt>
<pdfrwt beam="1">  1        1 0.29087009E+00 0.87057223E+03</pdfrwt>
<pdfrwt beam="2">  1       -1 0.10975523E+00 0.87057223E+03</pdfrwt>
<totfact> 0.27914573E+00</totfact>
</mgrwt>
</event>
<event>
 4    1  0.1521315E-007  0.6812776E+03  0.7818608E-02  0.1008610E+00
          1   -1    0    0  501    0  0.00000000000E+00  0.00000000000E+00  0.84527458380E+03  0.84527458382E+03  0.50400000000E-02 0. -1.
         -1   -1    0    0    0  501 -0.00000000000E+00 -0.00000000000E+00 -0.27323767872E+03  0.27323767877E+03  0.50400000000E-02 0.  1.
    8880023    1    1    2    0    0 -0.16295576484E+03 -0.61436279555E+02  0.56752267667E+03  0.88669114833E+03  0.65864270000E+03 0. -1.
    8880022    1    1    2    0    0  0.16295576484E+03  0.61436279555E+02  0.45142284153E+01  0.23182111425E+03  0.15294330000E+03 0.  1.
<mgrwt>
<rscale>  0 0.52030830E+03</rscale>
<asrwt>0</asrwt>
<pdfrwt beam="1">  1        1 0.13004224E+00 0.68127763E+03</pdfrwt>
<pdfrwt beam="2">  1       -1 0.42036567E-01 0.68127763E+03</pdfrwt>
<totfact> 0.11494749E+02</totfact>
</mgrwt>
</event>
<event>
 4    1  0.1521315E-007  0.9314170E+03  0.7818608E-02  0.9477371E-01
         -1   -1    0    0    0  501 -0.00000000000E+00  0.00000000000E+00  0.10010095154E+04  0.10010095154E+04  0.50400000000E-02 0.  1.
          1   -1    0    0  501    0  0.00000000000E+00 -0.00000000000E+00 -0.68742366907E+03  0.68742366909E+03  0.50400000000E-02 0. -1.
    8880023    1    1    2    0    0 -0.31934448792E+03  0.57597447639E+03 -0.26119946795E+02  0.93178321368E+03  0.65864270000E+03 0.  1.
    8880022    1    1    2    0    0  0.31934448792E+03 -0.57597447639E+03  0.33970579309E+03  0.75664997079E+03  0.15294330000E+03 0. -1.
<mgrwt>
<rscale>  0 0.85972947E+03</rscale>
<asrwt>0</asrwt>
<pdfrwt beam="1">  1        1 0.10575749E+00 0.93141704E+03</pdfrwt>
<pdfrwt beam="2">  1       -1 0.15400146E+00 0.93141704E+03</pdfrwt>
<totfact> 0.91826135E+00</totfact>
</mgrwt>
</event>
<event>
 4    1  0.1521315E-007  0.8109816E+03  0.7818608E-02  0.9687536E-01
          1   -1    0    0  501    0  0.00000000000E+00  0.00000000000E+00  0.69068994317E+03  0.69068994319E+03  0.50400000000E-02 0. -1.
         -1   -1    0    0    0  501 -0.00000000000E+00 -0.00000000000E+00 -0.24381160458E+04  0.24381160458E+04  0.50400000000E-02 0.  1.
    8880023    1    1    2    0    0 -0.45969358459E+03  0.11208405239E+03  0.41426155192E+03  0.91066122470E+03  0.65864270000E+03 0. -1.
    8880022    1    1    2    0    0  0.45969358459E+03 -0.11208405239E+03 -0.21616876545E+04  0.22181447643E+04  0.15294330000E+03 0.  0.
<mgrwt>
<rscale>  0 0.71763777E+03</rscale>
<asrwt>0</asrwt>
<pdfrwt beam="1">  1        1 0.10625999E+00 0.81098165E+03</pdfrwt>
<pdfrwt beam="2">  1       -1 0.37509477E+00 0.81098165E+03</pdfrwt>
<totfact> 0.31094839E-01</totfact>
</mgrwt>
</event>
<event>
 4    1  0.1521315E-007  0.7788399E+03  0.7818608E-02  0.9758569E-01
          1   -1    0    0  501    0  0.00000000000E+00  0.00000000000E+00  0.10559290358E+04  0.10559290358E+04  0.50400000000E-02 0. -1.
         -1   -1    0    0    0  501 -0.00000000000E+00 -0.00000000000E+00 -0.17804285645E+04  0.17804285645E+04  0.50400000000E-02 0.  1.
    8880023    1    1    2    0    0 -0.21893793419E+03  0.35333779337E+03  0.87806825904E+03  0.11737101384E+04  0.65864270000E+03 0. -1.
    8880022    1    1    2    0    0  0.21893793419E+03 -0.35333779337E+03 -0.16025677878E+04  0.16626474619E+04  0.15294330000E+03 0.  0.
<mgrwt>
<rscale>  0 0.67634156E+03</rscale>
<asrwt>0</asrwt>
<pdfrwt beam="1">  1        1 0.16245062E+00 0.77883992E+03</pdfrwt>
<pdfrwt beam="2">  1       -1 0.27391209E+00 0.77883992E+03</pdfrwt>
<totfact> 0.70161876E-01</totfact>
</mgrwt>
</event>
<event>
 4    1  0.1521315E-007  0.6945100E+03  0.7818608E-02  0.1002079E+00
          1   -1    0    0  501    0  0.00000000000E+00  0.00000000000E+00  0.28931390598E+03  0.28931390602E+03  0.50400000000E-02 0. -1.
         -1   -1    0    0    0  501 -0.00000000000E+00 -0.00000000000E+00 -0.13346435751E+04  0.13346435752E+04  0.50400000000E-02 0.  1.
    8880023    1    1    2    0    0 -0.20040853841E+03  0.91489831315E+02 -0.17919958709E+03  0.71725634872E+03  0.65864270000E+03 0.  0.
    8880022    1    1    2    0    0  0.20040853841E+03 -0.91489831315E+02 -0.86613008208E+03  0.90670113245E+03  0.15294330000E+03 0.  0.
<mgrwt>
<rscale>  0 0.54748137E+03</rscale>
<asrwt>0</asrwt>
<pdfrwt beam="1">  1        1 0.44509832E-01 0.69451003E+03</pdfrwt>
<pdfrwt beam="2">  1       -1 0.20532978E+00 0.69451003E+03</pdfrwt>
<totfact> 0.13179130E+01</totfact>
</mgrwt>
</event>
<event>
 4    1  0.1521315E-007  0.1085999E+04  0.7818608E-02  0.9276807E-01
         -1   -1    0    0    0  501 -0.00000000000E+00  0.00000000000E+00  0.59217364564E+03  0.59217364567E+03  0.50400000000E-02 0.  1.
          1   -1    0    0  501    0  0.00000000000E+00 -0.00000000000E+00 -0.31019140751E+04  0.31019140751E+04  0.50400000000E-02 0. -1.
    8880023    1    1    2    0    0  0.46093316900E+03 -0.73015388594E+03 -0.25949608056E+04  0.28130438803E+04  0.65864270000E+03 0.  0.
    8880022    1    1    2    0    0 -0.46093316900E+03  0.73015388594E+03  0.85220376114E+02  0.88104384054E+03  0.15294330000E+03 0.  0.
<mgrwt>
<rscale>  0 0.10294641E+04</rscale>
<asrwt>0</asrwt>
<pdfrwt beam="1">  1        1 0.47721754E+00 0.10859992E+04</pdfrwt>
<pdfrwt beam="2">  1       -1 0.91103640E-01 0.10859992E+04</pdfrwt>
<totfact> 0.60068186E-01</totfact>
</mgrwt>
</event>
<event>
 4    1  0.1521315E-007  0.9316134E+03  0.7818608E-02  0.9477077E-01
         -1   -1    0    0    0  501 -0.00000000000E+00  0.00000000000E+00  0.12664622769E+04  0.12664622769E+04  0.50400000000E-02 0.  1.
          1   -1    0    0  501    0  0.00000000000E+00 -0.00000000000E+00 -0.57101813335E+03  0.57101813338E+03  0.50400000000E-02 0. -1.
    8880023    1    1    2    0    0 -0.58119173791E+03  0.31033777210E+03  0.10111479689E+03  0.93708472265E+03  0.65864270000E+03 0.  0.
    8880022    1    1    2    0    0  0.58119173791E+03 -0.31033777210E+03  0.59432934668E+03  0.90039568766E+03  0.15294330000E+03 0.  0.
<mgrwt>
<rscale>  0 0.85995141E+03</rscale>
<asrwt>0</asrwt>
<pdfrwt beam="1">  1        1 0.87848943E-01 0.93161343E+03</pdfrwt>
<pdfrwt beam="2">  1       -1 0.19484035E+00 0.93161343E+03</pdfrwt>
<totfact> 0.60794272E+00</totfact>
</mgrwt>
</event>
<event>
 4    1  0.1521315E-007  0.6612942E+03  0.7818608E-02  0.1022868E+00
          1   -1    0    0  501    0  0.00000000000E+00  0.00000000000E+00  0.46820275842E+03  0.46820275845E+03  0.50400000000E-02 0. -1.
         -1   -1    0    0    0  501 -0.00000000000E+00 -0.00000000000E+00 -0.43564842060E+03  0.43564842063E+03  0.50400000000E-02 0.  1.
    8880023    1    1    2    0    0  0.59039475589E+02  0.37675305763E+01  0.17781140704E+03  0.68478241559E+03  0.65864270000E+03 0.  0.
    8880022    1    1    2    0    0 -0.59039475589E+02 -0.37675305763E+01 -0.14525706921E+03  0.21906876349E+03  0.15294330000E+03 0.  0.
<mgrwt>
<rscale>  0 0.46665717E+03</rscale>
<asrwt>0</asrwt>
<pdfrwt beam="1">  1        1 0.72031193E-01 0.66129423E+03</pdfrwt>
<pdfrwt beam="2">  1       -1 0.67022834E-01 0.66129423E+03</pdfrwt>
<totfact> 0.11193428E+02</totfact>
</mgrwt>
</event>
<event>
 4    1  0.1521315E-007  0.9412805E+03  0.7818608E-02  0.9462772E-01
         -1   -1    0    0    0  501 -0.00000000000E+00  0.00000000000E+00  0.10905327094E+04  0.10905327094E+04  0.50400000000E-02 0.  1.
          1   -1    0    0  501    0  0.00000000000E+00 -0.00000000000E+00 -0.14462184510E+04  0.14462184510E+04  0.50400000000E-02 0. -1.
    8880023    1    1    2    0    0  0.18391780105E+02  0.67220566538E+03 -0.11491696761E+04  0.14854628453E+04  0.65864270000E+03 0.  0.
    8880022    1    1    2    0    0 -0.18391780105E+02 -0.67220566538E+03  0.79348393448E+03  0.10512883151E+04  0.15294330000E+03 0.  0.
<mgrwt>
<rscale>  0 0.87085012E+03</rscale>
<asrwt>0</asrwt>
<pdfrwt beam="1">  1        1 0.22249515E+00 0.94128047E+03</pdfrwt>
<pdfrwt beam="2">  1       -1 0.16777426E+00 0.94128047E+03</pdfrwt>
<totfact> 0.18478000E+00</totfact>
</mgrwt>
</event>
<event>
 4    1  0.1521315E-007  0.1282073E+04  0.7818608E-02  0.9081197E-01
         -1   -1    0    0    0  501 -0.00000000000E+00  0.00000000000E+00  0.12657330071E+04  0.12657330071E+04  0.50400000000E-02 0.  1.
          1   -1    0    0  501    0  0.00000000000E+00 -0.00000000000E+00 -0.31406667854E+04  0.31406667854E+04  0.50400000000E-02 0. -1.
    8880023    1    1    2    0    0 -0.69835641033E+03 -0.84982373053E+03 -0.27225718942E+04  0.30093371320E+04  0.65864270000E+03 0.  0.
    8880022    1    1    2    0    0  0.69835641033E+03  0.84982373053E+03  0.84763811586E+03  0.13970626605E+04  0.15294330000E+03 0.  0.
<mgrwt>
<rscale>  0 0.12368527E+04</rscale>
<asrwt>0</asrwt>
<pdfrwt beam="1">  1        1 0.48317951E+00 0.12820734E+04</pdfrwt>
<pdfrwt beam="2">  1       -1 0.19472815E+00 0.12820734E+04</pdfrwt>
<totfact> 0.75539979E-02</totfact>
</mgrwt>
</event>
<event>
 4    1  0.1521315E-007  0.7241895E+03  0.7818608E-02  0.9908657E-01
         -1   -1    0    0    0  501 -0.00000000000E+00  0.00000000000E+00  0.10733994380E+04  0.10733994381E+04  0.50400000000E-02 0.  1.
          1   -1    0    0  501    0  0.00000000000E+00 -0.00000000000E+00 -0.60685285234E+03  0.60685285237E+03  0.50400000000E-02 0. -1.
    8880023    1    1    2    0    0 -0.22819233742E+03  0.19638862046E+03 -0.34432280644E+03  0.80187819175E+03  0.65864270000E+03 0. -1.
    8880022    1    1    2    0    0  0.22819233742E+03 -0.19638862046E+03  0.81086939214E+03  0.87837409867E+03  0.15294330000E+03 0.  0.
<mgrwt>
<rscale>  0 0.59843565E+03</rscale>
<asrwt>0</asrwt>
<pdfrwt beam="1">  1        1 0.93361977E-01 0.72418951E+03</pdfrwt>
<pdfrwt beam="2">  1       -1 0.16513838E+00 0.72418951E+03</pdfrwt>
<totfact> 0.93182671E+00</totfact>
</mgrwt>
</event>
<event>
 4    1  0.1521315E-007  0.1285614E+04  0.7818608E-02  0.9078083E-01
         -1   -1    0    0    0  501 -0.00000000000E+00  0.00000000000E+00  0.86361253160E+03  0.86361253162E+03  0.50400000000E-02 0.  1.
          1   -1    0    0  501    0  0.00000000000E+00 -0.00000000000E+00 -0.37222314557E+04  0.37222314557E+04  0.50400000000E-02 0. -1.
    8880023    1    1    2    0    0  0.10387769106E+04 -0.37408107805E+03 -0.31764818180E+04  0.34267829038E+04  0.65864270000E+03 0.  0.
    8880022    1    1    2    0    0 -0.10387769106E+04  0.37408107805E+03  0.31786289397E+03  0.11590610835E+04  0.15294330000E+03 0.  0.
<mgrwt>
<rscale>  0 0.12405524E+04</rscale>
<asrwt>0</asrwt>
<pdfrwt beam="1">  1        1 0.57265099E+00 0.12856144E+04</pdfrwt>
<pdfrwt beam="2">  1       -1 0.13286347E+00 0.12856144E+04</pdfrwt>
<totfact> 0.78719718E-02</totfact>
</mgrwt>
</event>
<event>
 4    1  0.1521315E-007  0.9404514E+03  0.7818608E-02  0.9463988E-01
          1   -1    0    0  501    0  0.00000000000E+00  0.00000000000E+00  0.19555208439E+04  0.19555208439E+04  0.50400000000E-02 0. -1.
         -1   -1    0    0    0  501 -0.00000000000E+00 -0.00000000000E+00 -0.62325328123E+03  0.62325328125E+03  0.50400000000E-02 0.  1.
    8880023    1    1    2    0    0  0.59427467886E+03 -0.31221172715E+03  0.15869471543E+04  0.18446815534E+04  0.65864270000E+03 0.  0.
    8880022    1    1    2    0    0 -0.59427467886E+03  0.31221172715E+03 -0.25467959166E+03  0.73409257177E+03  0.15294330000E+03 0.  0.
<mgrwt>
<rscale>  0 0.86991738E+03</rscale>
<asrwt>0</asrwt>
<pdfrwt beam="1">  1        1 0.30084936E+00 0.94045136E+03</pdfrwt>
<pdfrwt beam="2">  1       -1 0.95885121E-01 0.94045136E+03</pdfrwt>
<totfact> 0.34136341E+00</totfact>
</mgrwt>
</event>
<event>
 4    1  0.1521315E-007  0.7192653E+03  0.7818608E-02  0.9925080E-01
          1   -1    0    0  501    0  0.00000000000E+00  0.00000000000E+00  0.21491061823E+04  0.21491061823E+04  0.50400000000E-02 0. -1.
         -1   -1    0    0    0  501 -0.00000000000E+00 -0.00000000000E+00 -0.23416003320E+03  0.23416003325E+03  0.50400000000E-02 0.  1.
    8880023    1    1    2    0    0  0.28809416380E+03 -0.23109889218E+02  0.19261692718E+04  0.20560813661E+04  0.65864270000E+03 0.  0.
    8880022    1    1    2    0    0 -0.28809416380E+03  0.23109889218E+02 -0.11223122714E+02  0.32718484943E+03  0.15294330000E+03 0.  0.
<mgrwt>
<rscale>  0 0.59061055E+03</rscale>
<asrwt>0</asrwt>
<pdfrwt beam="1">  1        1 0.33063172E+00 0.71926526E+03</pdfrwt>
<pdfrwt beam="2">  1       -1 0.36024620E-01 0.71926526E+03</pdfrwt>
<totfact> 0.18223760E+01</totfact>
</mgrwt>
</event>
<event>
 4    1  0.1521315E-007  0.7033257E+03  0.7818608E-02  0.9983675E-01
          1   -1    0    0  501    0  0.00000000000E+00  0.00000000000E+00  0.51215805610E+03  0.51215805612E+03  0.50400000000E-02 0. -1.
         -1   -1    0    0    0  501 -0.00000000000E+00 -0.00000000000E+00 -0.63035824771E+03  0.63035824773E+03  0.50400000000E-02 0.  1.
    8880023    1    1    2    0    0  0.13100490765E+03 -0.20903225255E+03  0.18039728954E+03  0.72609238859E+03  0.65864270000E+03 0. -1.
    8880022    1    1    2    0    0 -0.13100490765E+03  0.20903225255E+03 -0.29859748115E+03  0.41642391526E+03  0.15294330000E+03 0.  0.
<mgrwt>
<rscale>  0 0.56371886E+03</rscale>
<asrwt>0</asrwt>
<pdfrwt beam="1">  1        1 0.78793547E-01 0.70332565E+03</pdfrwt>
<pdfrwt beam="2">  1       -1 0.96978192E-01 0.70332565E+03</pdfrwt>
<totfact> 0.44965855E+01</totfact>
</mgrwt>
</event>
<event>
 4    1  0.1521315E-007  0.7359447E+03  0.7818608E-02  0.9871921E-01
         -1   -1    0    0    0  501 -0.00000000000E+00  0.00000000000E+00  0.76197053891E+03  0.76197053893E+03  0.50400000000E-02 0.  1.
          1   -1    0    0  501    0  0.00000000000E+00 -0.00000000000E+00 -0.16430063777E+04  0.16430063777E+04  0.50400000000E-02 0. -1.
    8880023    1    1    2    0    0  0.30681927171E+03  0.11690319616E+03 -0.15096468434E+04  0.16794785562E+04  0.65864270000E+03 0. -1.
    8880022    1    1    2    0    0 -0.30681927171E+03 -0.11690319616E+03  0.62861100463E+03  0.72549836039E+03  0.15294330000E+03 0.  0.
<mgrwt>
<rscale>  0 0.61641614E+03</rscale>
<asrwt>0</asrwt>
<pdfrwt beam="1">  1        1 0.25277021E+00 0.73594472E+03</pdfrwt>
<pdfrwt beam="2">  1       -1 0.11722624E+00 0.73594472E+03</pdfrwt>
<totfact> 0.35821187E+00</totfact>
</mgrwt>
</event>
<event>
 4    1  0.1521315E-007  0.7897351E+03  0.7818608E-02  0.9733447E-01
         -1   -1    0    0    0  501 -0.00000000000E+00  0.00000000000E+00  0.25796035257E+03  0.25796035262E+03  0.50400000000E-02 0.  1.
          1   -1    0    0  501    0  0.00000000000E+00 -0.00000000000E+00 -0.18320623181E+04  0.18320623181E+04  0.50400000000E-02 0. -1.
    8880023    1    1    2    0    0 -0.43345419351E+03 -0.44595492378E+02 -0.13781007604E+04  0.15883460605E+04  0.65864270000E+03 0.  0.
    8880022    1    1    2    0    0  0.43345419351E+03  0.44595492378E+02 -0.19600120508E+03  0.50167661020E+03  0.15294330000E+03 0.  0.
<mgrwt>
<rscale>  0 0.69059829E+03</rscale>
<asrwt>0</asrwt>
<pdfrwt beam="1">  1        1 0.28185573E+00 0.78973508E+03</pdfrwt>
<pdfrwt beam="2">  1       -1 0.39686209E-01 0.78973508E+03</pdfrwt>
<totfact> 0.24703922E+01</totfact>
</mgrwt>
</event>
<event>
 4    1  0.1521315E-007  0.7617853E+03  0.7818608E-02  0.9800507E-01
         -1   -1    0    0    0  501 -0.00000000000E+00  0.00000000000E+00  0.28461593657E+03  0.28461593661E+03  0.50400000000E-02 0.  1.
          1   -1    0    0  501    0  0.00000000000E+00 -0.00000000000E+00 -0.13016383224E+04  0.13016383224E+04  0.50400000000E-02 0. -1.
    8880023    1    1    2    0    0 -0.36883168412E+03  0.10232234748E+03 -0.44841854776E+03  0.88396610469E+03  0.65864270000E+03 0.  0.
    8880022    1    1    2    0    0  0.36883168412E+03 -0.10232234748E+03 -0.56860383802E+03  0.70228815428E+03  0.15294330000E+03 0.  0.
<mgrwt>
<rscale>  0 0.65335330E+03</rscale>
<asrwt>0</asrwt>
<pdfrwt beam="1">  1        1 0.20025205E+00 0.76178532E+03</pdfrwt>
<pdfrwt beam="2">  1       -1 0.43787068E-01 0.76178532E+03</pdfrwt>
<totfact> 0.47671693E+01</totfact>
</mgrwt>
</event>
<event>
 4    1  0.1521315E-007  0.8231030E+03  0.7818608E-02  0.9662904E-01
          1   -1    0    0  501    0  0.00000000000E+00  0.00000000000E+00  0.93800191353E+03  0.93800191354E+03  0.50400000000E-02 0. -1.
         -1   -1    0    0    0  501 -0.00000000000E+00 -0.00000000000E+00 -0.20038200492E+04  0.20038200492E+04  0.50400000000E-02 0.  1.
    8880023    1    1    2    0    0 -0.20680977070E+03  0.44823885204E+03  0.71329513446E+03  0.10891687219E+04  0.65864270000E+03 0. -1.
    8880022    1    1    2    0    0  0.20680977070E+03 -0.44823885204E+03 -0.17791132701E+04  0.18526532408E+04  0.15294330000E+03 0.  0.
<mgrwt>
<rscale>  0 0.73269092E+03</rscale>
<asrwt>0</asrwt>
<pdfrwt beam="1">  1        1 0.14430799E+00 0.82310300E+03</pdfrwt>
<pdfrwt beam="2">  1       -1 0.30828001E+00 0.82310300E+03</pdfrwt>
<totfact> 0.51775328E-01</totfact>
</mgrwt>
</event>
<event>
 4    1  0.1521315E-007  0.7178272E+03  0.7818608E-02  0.9930008E-01
          1   -1    0    0  501    0  0.00000000000E+00  0.00000000000E+00  0.44746954937E+03  0.44746954940E+03  0.50400000000E-02 0. -1.
         -1   -1    0    0    0  501 -0.00000000000E+00 -0.00000000000E+00 -0.91970234067E+03  0.91970234068E+03  0.50400000000E-02 0.  1.
    8880023    1    1    2    0    0 -0.26534634349E+03 -0.10515260701E+03  0.84837922984E+02  0.72282323718E+03  0.65864270000E+03 0.  0.
    8880022    1    1    2    0    0  0.26534634349E+03  0.10515260701E+03 -0.55707071428E+03  0.64434865290E+03  0.15294330000E+03 0.  0.
<mgrwt>
<rscale>  0 0.58828780E+03</rscale>
<asrwt>0</asrwt>
<pdfrwt beam="1">  1        1 0.68841469E-01 0.71782725E+03</pdfrwt>
<pdfrwt beam="2">  1       -1 0.14149267E+00 0.71782725E+03</pdfrwt>
<totfact> 0.21642449E+01</totfact>
</mgrwt>
</event>
<event>
 4    1  0.1521315E-007  0.1073760E+04  0.7818608E-02  0.9290849E-01
          1   -1    0    0  501    0  0.00000000000E+00  0.00000000000E+00  0.90262765700E+03  0.90262765702E+03  0.50400000000E-02 0. -1.
         -1   -1    0    0    0  501 -0.00000000000E+00 -0.00000000000E+00 -0.10630063921E+04  0.10630063921E+04  0.50400000000E-02 0.  1.
    8880023    1    1    2    0    0 -0.80912570918E+03 -0.25390272521E+03  0.62468409030E+02  0.10755758995E+04  0.65864270000E+03 0. -1.
    8880022    1    1    2    0    0  0.80912570918E+03  0.25390272521E+03 -0.22284714413E+03  0.89005814966E+03  0.15294330000E+03 0.  1.
<mgrwt>
<rscale>  0 0.10162971E+04</rscale>
<asrwt>0</asrwt>
<pdfrwt beam="1">  1        1 0.13886579E+00 0.10737603E+04</pdfrwt>
<pdfrwt beam="2">  1       -1 0.16353944E+00 0.10737603E+04</pdfrwt>
<totfact> 0.49494252E+00</totfact>
</mgrwt>
</event>
<event>
 4    1  0.1521315E-007  0.9006113E+03  0.7818608E-02  0.9525051E-01
          1   -1    0    0  501    0  0.00000000000E+00  0.00000000000E+00  0.24440369026E+04  0.24440369026E+04  0.50400000000E-02 0. -1.
         -1   -1    0    0    0  501 -0.00000000000E+00 -0.00000000000E+00 -0.32941389265E+03  0.32941389269E+03  0.50400000000E-02 0.  1.
    8880023    1    1    2    0    0 -0.41279112439E+03 -0.45485600969E+03  0.47998534310E+03  0.10205325266E+04  0.65864270000E+03 0.  0.
    8880022    1    1    2    0    0  0.41279112439E+03  0.45485600969E+03  0.16346376669E+04  0.17529182687E+04  0.15294330000E+03 0.  0.
<mgrwt>
<rscale>  0 0.82461844E+03</rscale>
<asrwt>0</asrwt>
<pdfrwt beam="1">  1        1 0.37600566E+00 0.90061130E+03</pdfrwt>
<pdfrwt beam="2">  1       -1 0.50679063E-01 0.90061130E+03</pdfrwt>
<totfact> 0.59764520E+00</totfact>
</mgrwt>
</event>
<event>
 4    1  0.1521315E-007  0.9391922E+03  0.7818608E-02  0.9465838E-01
         -1   -1    0    0    0  501 -0.00000000000E+00  0.00000000000E+00  0.11115493177E+04  0.11115493177E+04  0.50400000000E-02 0.  1.
          1   -1    0    0  501    0  0.00000000000E+00 -0.00000000000E+00 -0.14492334689E+04  0.14492334689E+04  0.50400000000E-02 0. -1.
    8880023    1    1    2    0    0 -0.66513164842E+03  0.76626738898E+02 -0.11579633082E+04  0.14909597567E+04  0.65864270000E+03 0. -1.
    8880022    1    1    2    0    0  0.66513164842E+03 -0.76626738898E+02  0.82027915699E+03  0.10698230299E+04  0.15294330000E+03 0.  0.
<mgrwt>
<rscale>  0 0.86850011E+03</rscale>
<asrwt>0</asrwt>
<pdfrwt beam="1">  1        1 0.22295900E+00 0.93919219E+03</pdfrwt>
<pdfrwt beam="2">  1       -1 0.17100759E+00 0.93919219E+03</pdfrwt>
<totfact> 0.17415148E+00</totfact>
</mgrwt>
</event>
<event>
 4    1  0.1521315E-007  0.6983459E+03  0.7818608E-02  0.1000413E+00
          1   -1    0    0  501    0  0.00000000000E+00  0.00000000000E+00  0.91697455643E+03  0.91697455644E+03  0.50400000000E-02 0. -1.
         -1   -1    0    0    0  501 -0.00000000000E+00 -0.00000000000E+00 -0.36115893947E+03  0.36115893950E+03  0.50400000000E-02 0.  1.
    8880023    1    1    2    0    0 -0.22788901550E+03  0.44084262145E+02  0.67905678201E+03  0.97406629395E+03  0.65864270000E+03 0. -1.
    8880022    1    1    2    0    0  0.22788901550E+03 -0.44084262145E+02 -0.12324116505E+03  0.30406720200E+03  0.15294330000E+03 0.  0.
<mgrwt>
<rscale>  0 0.55469372E+03</rscale>
<asrwt>0</asrwt>
<pdfrwt beam="1">  1        1 0.14107301E+00 0.69834593E+03</pdfrwt>
<pdfrwt beam="2">  1       -1 0.55562915E-01 0.69834593E+03</pdfrwt>
<totfact> 0.59319327E+01</totfact>
</mgrwt>
</event>
<event>
 4    1  0.1521315E-007  0.8706306E+03  0.7818608E-02  0.9574926E-01
         -1   -1    0    0    0  501 -0.00000000000E+00  0.00000000000E+00  0.92625543160E+03  0.92625543161E+03  0.50400000000E-02 0.  1.
          1   -1    0    0  501    0  0.00000000000E+00 -0.00000000000E+00 -0.11572860592E+04  0.11572860592E+04  0.50400000000E-02 0. -1.
    8880023    1    1    2    0    0 -0.30465639751E+03  0.48101139746E+03 -0.85839193599E+03  0.12226342082E+04  0.65864270000E+03 0.  0.
    8880022    1    1    2    0    0  0.30465639751E+03 -0.48101139746E+03  0.62736130838E+03  0.86090728264E+03  0.15294330000E+03 0.  0.
<mgrwt>
<rscale>  0 0.78978189E+03</rscale>
<asrwt>0</asrwt>
<pdfrwt beam="1">  1        1 0.17804401E+00 0.87063063E+03</pdfrwt>
<pdfrwt beam="2">  1       -1 0.14250084E+00 0.87063063E+03</pdfrwt>
<totfact> 0.46870721E+00</totfact>
</mgrwt>
</event>
<event>
 4    1  0.1521315E-007  0.7792941E+03  0.7818608E-02  0.9757498E-01
         -1   -1    0    0    0  501 -0.00000000000E+00  0.00000000000E+00  0.17699453368E+04  0.17699453368E+04  0.50400000000E-02 0.  1.
          1   -1    0    0  501    0  0.00000000000E+00 -0.00000000000E+00 -0.30051036118E+03  0.30051036122E+03  0.50400000000E-02 0. -1.
    8880023    1    1    2    0    0  0.41594306331E+03 -0.21919822064E+02  0.32744290284E+03  0.84529176702E+03  0.65864270000E+03 0. -1.
    8880022    1    1    2    0    0 -0.41594306331E+03  0.21919822064E+02  0.11419920727E+04  0.12251639310E+04  0.15294330000E+03 0.  0.
<mgrwt>
<rscale>  0 0.67694200E+03</rscale>
<asrwt>0</asrwt>
<pdfrwt beam="1">  1        1 0.46232364E-01 0.77929411E+03</pdfrwt>
<pdfrwt beam="2">  1       -1 0.27229928E+00 0.77929411E+03</pdfrwt>
<totfact> 0.45343243E+00</totfact>
</mgrwt>
</event>
<event>
 4    1  0.1521315E-007  0.6724339E+03  0.7818608E-02  0.1013975E+00
         -1   -1    0    0    0  501 -0.00000000000E+00  0.00000000000E+00  0.70959360004E+03  0.70959360005E+03  0.50400000000E-02 0.  1.
          1   -1    0    0  501    0  0.00000000000E+00 -0.00000000000E+00 -0.14897007247E+04  0.14897007248E+04  0.50400000000E-02 0. -1.
    8880023    1    1    2    0    0 -0.98768760661E+02  0.92746609131E+02 -0.13964769035E+04  0.15499403698E+04  0.65864270000E+03 0. -1.
    8880022    1    1    2    0    0  0.98768760661E+02 -0.92746609131E+02  0.61636977884E+03  0.64935395499E+03  0.15294330000E+03 0.  0.
<mgrwt>
<rscale>  0 0.49924968E+03</rscale>
<asrwt>0</asrwt>
<pdfrwt beam="1">  1        1 0.22918473E+00 0.67243394E+03</pdfrwt>
<pdfrwt beam="2">  1       -1 0.10916825E+00 0.67243394E+03</pdfrwt>
<totfact> 0.54546703E+00</totfact>
</mgrwt>
</event>
<event>
 4    1  0.1521315E-007  0.7145748E+03  0.7818608E-02  0.9941390E-01
          1   -1    0    0  501    0  0.00000000000E+00  0.00000000000E+00  0.13678213359E+04  0.13678213359E+04  0.50400000000E-02 0. -1.
         -1   -1    0    0    0  501 -0.00000000000E+00 -0.00000000000E+00 -0.55719783213E+03  0.55719783215E+03  0.50400000000E-02 0.  1.
    8880023    1    1    2    0    0 -0.26896812813E+03  0.66806277956E+02  0.12161694711E+04  0.14105620587E+04  0.65864270000E+03 0. -1.
    8880022    1    1    2    0    0  0.26896812813E+03 -0.66806277956E+02 -0.40554596734E+03  0.51445710936E+03  0.15294330000E+03 0.  0.
<mgrwt>
<rscale>  0 0.58296633E+03</rscale>
<asrwt>0</asrwt>
<pdfrwt beam="1">  1        1 0.21043405E+00 0.71457480E+03</pdfrwt>
<pdfrwt beam="2">  1       -1 0.85722745E-01 0.71457480E+03</pdfrwt>
<totfact> 0.11331506E+01</totfact>
</mgrwt>
</event>
<event>
 4    1  0.1521315E-007  0.8704138E+03  0.7818608E-02  0.9575301E-01
          1   -1    0    0  501    0  0.00000000000E+00  0.00000000000E+00  0.12584145516E+04  0.12584145516E+04  0.50400000000E-02 0. -1.
         -1   -1    0    0    0  501 -0.00000000000E+00 -0.00000000000E+00 -0.56409792173E+03  0.56409792175E+03  0.50400000000E-02 0.  1.
    8880023    1    1    2    0    0 -0.19378333044E+03  0.53503080118E+03  0.84626782049E+03  0.12139972684E+04  0.65864270000E+03 0.  0.
    8880022    1    1    2    0    0  0.19378333044E+03 -0.53503080118E+03 -0.15195119061E+03  0.60851520499E+03  0.15294330000E+03 0.  0.
<mgrwt>
<rscale>  0 0.78952708E+03</rscale>
<asrwt>0</asrwt>
<pdfrwt beam="1">  1        1 0.19360224E+00 0.87041378E+03</pdfrwt>
<pdfrwt beam="2">  1       -1 0.86784297E-01 0.87041378E+03</pdfrwt>
<totfact> 0.12911076E+01</totfact>
</mgrwt>
</event>
<event>
 4    1  0.1521315E-007  0.8053763E+03  0.7818608E-02  0.9699290E-01
         -1   -1    0    0    0  501 -0.00000000000E+00  0.00000000000E+00  0.57376887770E+03  0.57376887772E+03  0.50400000000E-02 0.  1.
          1   -1    0    0  501    0  0.00000000000E+00 -0.00000000000E+00 -0.81145798335E+03  0.81145798337E+03  0.50400000000E-02 0. -1.
    8880023    1    1    2    0    0  0.44897231462E+03  0.11508557932E+03 -0.35983160210E+03  0.88210533271E+03  0.65864270000E+03 0.  0.
    8880022    1    1    2    0    0 -0.44897231462E+03 -0.11508557932E+03  0.12214249645E+03  0.50312152838E+03  0.15294330000E+03 0. -1.
<mgrwt>
<rscale>  0 0.71059101E+03</rscale>
<asrwt>0</asrwt>
<pdfrwt beam="1">  1        1 0.12483969E+00 0.80537633E+03</pdfrwt>
<pdfrwt beam="2">  1       -1 0.88272135E-01 0.80537633E+03</pdfrwt>
<totfact> 0.27787807E+01</totfact>
</mgrwt>
</event>
<event>
 4    1  0.1521315E-007  0.9007207E+03  0.7818608E-02  0.9524876E-01
          1   -1    0    0  501    0  0.00000000000E+00  0.00000000000E+00  0.14101315892E+04  0.14101315892E+04  0.50400000000E-02 0. -1.
         -1   -1    0    0    0  501 -0.00000000000E+00 -0.00000000000E+00 -0.12394392760E+04  0.12394392760E+04  0.50400000000E-02 0.  1.
    8880023    1    1    2    0    0  0.15950397270E+03 -0.59333468424E+03  0.11638976504E+04  0.14717185572E+04  0.65864270000E+03 0. -1.
    8880022    1    1    2    0    0 -0.15950397270E+03  0.59333468424E+03 -0.99320533715E+03  0.11778523080E+04  0.15294330000E+03 0.  0.
<mgrwt>
<rscale>  0 0.82474425E+03</rscale>
<asrwt>0</asrwt>
<pdfrwt beam="1">  1        1 0.21694332E+00 0.90072070E+03</pdfrwt>
<pdfrwt beam="2">  1       -1 0.19068297E+00 0.90072070E+03</pdfrwt>
<totfact> 0.13491368E+00</totfact>
</mgrwt>
</event>
<event>
 4    1  0.1521315E-007  0.1056629E+04  0.7818608E-02  0.9310955E-01
         -1   -1    0    0    0  501 -0.00000000000E+00  0.00000000000E+00  0.62071004545E+03  0.62071004547E+03  0.50400000000E-02 0.  1.
          1   -1    0    0  501    0  0.00000000000E+00 -0.00000000000E+00 -0.15704194247E+04  0.15704194247E+04  0.50400000000E-02 0. -1.
    8880023    1    1    2    0    0  0.56845686804E+03  0.59959211629E+03 -0.82734790062E+03  0.13420017406E+04  0.65864270000E+03 0.  0.
    8880022    1    1    2    0    0 -0.56845686804E+03 -0.59959211629E+03 -0.12236147864E+03  0.84912772962E+03  0.15294330000E+03 0.  0.
<mgrwt>
<rscale>  0 0.99780547E+03</rscale>
<asrwt>0</asrwt>
<pdfrwt beam="1">  1        1 0.24160299E+00 0.10566287E+04</pdfrwt>
<pdfrwt beam="2">  1       -1 0.95493854E-01 0.10566287E+04</pdfrwt>
<totfact> 0.61872874E+00</totfact>
</mgrwt>
</event>
<event>
 4    1  0.1521315E-007  0.8097818E+03  0.7818608E-02  0.9690032E-01
          1   -1    0    0  501    0  0.00000000000E+00  0.00000000000E+00  0.82415182936E+03  0.82415182938E+03  0.50400000000E-02 0. -1.
         -1   -1    0    0    0  501 -0.00000000000E+00 -0.00000000000E+00 -0.69467630701E+03  0.69467630702E+03  0.50400000000E-02 0.  1.
    8880023    1    1    2    0    0 -0.28089560579E+03 -0.37819838088E+03  0.45236829871E+03  0.92756867163E+03  0.65864270000E+03 0. -1.
    8880022    1    1    2    0    0  0.28089560579E+03  0.37819838088E+03 -0.32289277635E+03  0.59125946477E+03  0.15294330000E+03 0.  1.
<mgrwt>
<rscale>  0 0.71613418E+03</rscale>
<asrwt>0</asrwt>
<pdfrwt beam="1">  1        1 0.12679259E+00 0.80978180E+03</pdfrwt>
<pdfrwt beam="2">  1       -1 0.10687328E+00 0.80978180E+03</pdfrwt>
<totfact> 0.17577831E+01</totfact>
</mgrwt>
</event>
<event>
 4    1  0.1521315E-007  0.9738817E+03  0.7818608E-02  0.9416555E-01
         -1   -1    0    0    0  501 -0.00000000000E+00  0.00000000000E+00  0.81593449844E+03  0.81593449846E+03  0.50400000000E-02 0.  1.
          1   -1    0    0  501    0  0.00000000000E+00 -0.00000000000E+00 -0.12743710290E+04  0.12743710290E+04  0.50400000000E-02 0. -1.
    8880023    1    1    2    0    0 -0.38047775756E+03  0.60817104010E+03  0.31577993764E+03  0.10237980823E+04  0.65864270000E+03 0.  1.
    8880022    1    1    2    0    0  0.38047775756E+03 -0.60817104010E+03 -0.77421646822E+03  0.10665074452E+04  0.15294330000E+03 0.  0.
<mgrwt>
<rscale>  0 0.90725665E+03</rscale>
<asrwt>0</asrwt>
<pdfrwt beam="1">  1        1 0.19605708E+00 0.97388169E+03</pdfrwt>
<pdfrwt beam="2">  1       -1 0.12552838E+00 0.97388169E+03</pdfrwt>
<totfact> 0.52618662E+00</totfact>
</mgrwt>
</event>
<event>
 4    1  0.1521315E-007  0.7385810E+03  0.7818608E-02  0.9864100E-01
          1   -1    0    0  501    0  0.00000000000E+00  0.00000000000E+00  0.14937624459E+04  0.14937624459E+04  0.50400000000E-02 0. -1.
         -1   -1    0    0    0  501 -0.00000000000E+00 -0.00000000000E+00 -0.26611278735E+03  0.26611278740E+03  0.50400000000E-02 0.  1.
    8880023    1    1    2    0    0 -0.31648743220E+03  0.10736574242E+03  0.11760430779E+04  0.13887329566E+04  0.65864270000E+03 0.  0.
    8880022    1    1    2    0    0  0.31648743220E+03 -0.10736574242E+03  0.51606580666E+02  0.37114227672E+03  0.15294330000E+03 0.  0.
<mgrwt>
<rscale>  0 0.62033149E+03</rscale>
<asrwt>0</asrwt>
<pdfrwt beam="1">  1        1 0.22980961E+00 0.73858101E+03</pdfrwt>
<pdfrwt beam="2">  1       -1 0.40940429E-01 0.73858101E+03</pdfrwt>
<totfact> 0.39761047E+01</totfact>
</mgrwt>
</event>
<event>
 4    1  0.1521315E-007  0.1054520E+04  0.7818608E-02  0.9313467E-01
         -1   -1    0    0    0  501 -0.00000000000E+00  0.00000000000E+00  0.79068354054E+03  0.79068354056E+03  0.50400000000E-02 0.  1.
          1   -1    0    0  501    0  0.00000000000E+00 -0.00000000000E+00 -0.13501956522E+04  0.13501956522E+04  0.50400000000E-02 0. -1.
    8880023    1    1    2    0    0 -0.13091869899E+02 -0.82342620434E+03 -0.73459772703E+03  0.12851638564E+04  0.65864270000E+03 0. -1.
    8880022    1    1    2    0    0  0.13091869899E+02  0.82342620434E+03  0.17508561541E+03  0.85571533631E+03  0.15294330000E+03 0.  0.
<mgrwt>
<rscale>  0 0.99552418E+03</rscale>
<asrwt>0</asrwt>
<pdfrwt beam="1">  1        1 0.20772241E+00 0.10545199E+04</pdfrwt>
<pdfrwt beam="2">  1       -1 0.12164362E+00 0.10545199E+04</pdfrwt>
<totfact> 0.49769652E+00</totfact>
</mgrwt>
</event>
<event>
 4    1  0.1521315E-007  0.1193973E+04  0.7818608E-02  0.9163003E-01
          1   -1    0    0  501    0  0.00000000000E+00  0.00000000000E+00  0.10229900139E+04  0.10229900139E+04  0.50400000000E-02 0. -1.
         -1   -1    0    0    0  501 -0.00000000000E+00 -0.00000000000E+00 -0.17084905150E+04  0.17084905150E+04  0.50400000000E-02 0.  1.
    8880023    1    1    2    0    0  0.89899696777E+03  0.42844568408E+03  0.39163801379E+03  0.12565634852E+04  0.65864270000E+03 0.  0.
    8880022    1    1    2    0    0 -0.89899696777E+03 -0.42844568408E+03 -0.10771385149E+04  0.14749170436E+04  0.15294330000E+03 0.  0.
<mgrwt>
<rscale>  0 0.11443590E+04</rscale>
<asrwt>0</asrwt>
<pdfrwt beam="1">  1        1 0.15738308E+00 0.11939730E+04</pdfrwt>
<pdfrwt beam="2">  1       -1 0.26284469E+00 0.11939730E+04</pdfrwt>
<totfact> 0.82109654E-01</totfact>
</mgrwt>
</event>
<event>
 4    1  0.1521315E-007  0.7240338E+03  0.7818608E-02  0.9909166E-01
         -1   -1    0    0    0  501 -0.00000000000E+00  0.00000000000E+00  0.20611003756E+03  0.20611003762E+03  0.50400000000E-02 0.  1.
          1   -1    0    0  501    0  0.00000000000E+00 -0.00000000000E+00 -0.16283227549E+04  0.16283227549E+04  0.50400000000E-02 0. -1.
    8880023    1    1    2    0    0  0.13677667912E+03 -0.26778128743E+03 -0.12752615361E+04  0.14664640703E+04  0.65864270000E+03 0. -1.
    8880022    1    1    2    0    0 -0.13677667912E+03  0.26778128743E+03 -0.14695118127E+03  0.36796872223E+03  0.15294330000E+03 0.  0.
<mgrwt>
<rscale>  0 0.59819106E+03</rscale>
<asrwt>0</asrwt>
<pdfrwt beam="1">  1        1 0.25051118E+00 0.72403376E+03</pdfrwt>
<pdfrwt beam="2">  1       -1 0.31709238E-01 0.72403376E+03</pdfrwt>
<totfact> 0.50955234E+01</totfact>
</mgrwt>
</event>
<event>
 4    1  0.1521315E-007  0.7496140E+03  0.7818608E-02  0.9832778E-01
         -1   -1    0    0    0  501 -0.00000000000E+00  0.00000000000E+00  0.83498337104E+03  0.83498337106E+03  0.50400000000E-02 0.  1.
          1   -1    0    0  501    0  0.00000000000E+00 -0.00000000000E+00 -0.13733898984E+04  0.13733898984E+04  0.50400000000E-02 0. -1.
    8880023    1    1    2    0    0 -0.35636057710E+03  0.33436900914E+02 -0.12151001336E+04  0.14277217615E+04  0.65864270000E+03 0. -1.
    8880022    1    1    2    0    0  0.35636057710E+03 -0.33436900914E+02  0.67669360621E+03  0.78065150801E+03  0.15294330000E+03 0.  0.
<mgrwt>
<rscale>  0 0.63632757E+03</rscale>
<asrwt>0</asrwt>
<pdfrwt beam="1">  1        1 0.21129075E+00 0.74961396E+03</pdfrwt>
<pdfrwt beam="2">  1       -1 0.12845898E+00 0.74961396E+03</pdfrwt>
<totfact> 0.43646242E+00</totfact>
</mgrwt>
</event>
<event>
 4    1  0.1521315E-007  0.1274297E+04  0.7818608E-02  0.9088080E-01
         -1   -1    0    0    0  501 -0.00000000000E+00  0.00000000000E+00  0.16261205953E+04  0.16261205953E+04  0.50400000000E-02 0.  1.
          1   -1    0    0  501    0  0.00000000000E+00 -0.00000000000E+00 -0.97908009666E+03  0.97908009667E+03  0.50400000000E-02 0. -1.
    8880023    1    1    2    0    0  0.95144612506E+03  0.53364096657E+03 -0.93729125327E+02  0.12777393182E+04  0.65864270000E+03 0. -1.
    8880022    1    1    2    0    0 -0.95144612506E+03 -0.53364096657E+03  0.74076962398E+03  0.13274613738E+04  0.15294330000E+03 0.  1.
<mgrwt>
<rscale>  0 0.12287233E+04</rscale>
<asrwt>0</asrwt>
<pdfrwt beam="1">  1        1 0.15062771E+00 0.12742969E+04</pdfrwt>
<pdfrwt beam="2">  1       -1 0.25017240E+00 0.12742969E+04</pdfrwt>
<totfact> 0.10644322E+00</totfact>
</mgrwt>
</event>
<event>
 4    1  0.1521315E-007  0.9173587E+03  0.7818608E-02  0.9498721E-01
         -1   -1    0    0    0  501 -0.00000000000E+00  0.00000000000E+00  0.86954212563E+03  0.86954212565E+03  0.50400000000E-02 0.  1.
          1   -1    0    0  501    0  0.00000000000E+00 -0.00000000000E+00 -0.75701700559E+03  0.75701700561E+03  0.50400000000E-02 0. -1.
    8880023    1    1    2    0    0 -0.38876564830E+03 -0.50655506416E+03 -0.13014983466E+03  0.92654516784E+03  0.65864270000E+03 0.  0.
    8880022    1    1    2    0    0  0.38876564830E+03  0.50655506416E+03  0.24267495470E+03  0.70001396342E+03  0.15294330000E+03 0.  0.
<mgrwt>
<rscale>  0 0.84378192E+03</rscale>
<asrwt>0</asrwt>
<pdfrwt beam="1">  1        1 0.11646415E+00 0.91735869E+03</pdfrwt>
<pdfrwt beam="2">  1       -1 0.13377571E+00 0.91735869E+03</pdfrwt>
<totfact> 0.11500572E+01</totfact>
</mgrwt>
</event>
<event>
 4    1  0.1521315E-007  0.6630031E+03  0.7818608E-02  0.1021271E+00
          1   -1    0    0  501    0  0.00000000000E+00  0.00000000000E+00  0.65189950034E+03  0.65189950036E+03  0.50400000000E-02 0. -1.
         -1   -1    0    0    0  501 -0.00000000000E+00 -0.00000000000E+00 -0.61289050200E+03  0.61289050202E+03  0.50400000000E-02 0.  1.
    8880023    1    1    2    0    0  0.72599503143E+02 -0.22185253500E+02  0.46236144902E+03  0.80830142220E+03  0.65864270000E+03 0. -1.
    8880022    1    1    2    0    0 -0.72599503143E+02  0.22185253500E+02 -0.42335245068E+03  0.45648858018E+03  0.15294330000E+03 0.  0.
<mgrwt>
<rscale>  0 0.47230757E+03</rscale>
<asrwt>0</asrwt>
<pdfrwt beam="1">  1        1 0.10029223E+00 0.66300308E+03</pdfrwt>
<pdfrwt beam="2">  1       -1 0.94290846E-01 0.66300308E+03</pdfrwt>
<totfact> 0.34124516E+01</totfact>
</mgrwt>
</event>
<event>
 4    1  0.1521315E-007  0.9925710E+03  0.7818608E-02  0.9391342E-01
         -1   -1    0    0    0  501 -0.00000000000E+00  0.00000000000E+00  0.28017107080E+03  0.28017107085E+03  0.50400000000E-02 0.  1.
          1   -1    0    0  501    0  0.00000000000E+00 -0.00000000000E+00 -0.41607022561E+04  0.41607022561E+04  0.50400000000E-02 0. -1.
    8880023    1    1    2    0    0  0.63743961217E+03  0.38086443661E+03 -0.34031737095E+04  0.35449666404E+04  0.65864270000E+03 0.  0.
    8880022    1    1    2    0    0 -0.63743961217E+03 -0.38086443661E+03 -0.47735747574E+03  0.89590668649E+03  0.15294330000E+03 0.  0.
<mgrwt>
<rscale>  0 0.92791621E+03</rscale>
<asrwt>0</asrwt>
<pdfrwt beam="1">  1        1 0.64010800E+00 0.99257100E+03</pdfrwt>
<pdfrwt beam="2">  1       -1 0.43103245E-01 0.99257100E+03</pdfrwt>
<totfact> 0.38711316E-01</totfact>
</mgrwt>
</event>
<event>
 4    1  0.1521315E-007  0.9911969E+03  0.7818608E-02  0.9393166E-01
         -1   -1    0    0    0  501 -0.00000000000E+00  0.00000000000E+00  0.42776779908E+03  0.42776779911E+03  0.50400000000E-02 0.  1.
          1   -1    0    0  501    0  0.00000000000E+00 -0.00000000000E+00 -0.26888623438E+04  0.26888623438E+04  0.50400000000E-02 0. -1.
    8880023    1    1    2    0    0  0.18946554347E+02 -0.74047425963E+03 -0.21295611183E+04  0.23489363261E+04  0.65864270000E+03 0.  0.
    8880022    1    1    2    0    0 -0.18946554347E+02  0.74047425963E+03 -0.13153342639E+03  0.76769381681E+03  0.15294330000E+03 0.  0.
<mgrwt>
<rscale>  0 0.92640196E+03</rscale>
<asrwt>0</asrwt>
<pdfrwt beam="1">  1        1 0.41367112E+00 0.99119691E+03</pdfrwt>
<pdfrwt beam="2">  1       -1 0.65810433E-01 0.99119691E+03</pdfrwt>
<totfact> 0.23936303E+00</totfact>
</mgrwt>
</event>
<event>
 4    1  0.1521315E-007  0.7905344E+03  0.7818608E-02  0.9731649E-01
          1   -1    0    0  501    0  0.00000000000E+00  0.00000000000E+00  0.11777009560E+04  0.11777009560E+04  0.50400000000E-02 0. -1.
         -1   -1    0    0    0  501 -0.00000000000E+00 -0.00000000000E+00 -0.47960714102E+03  0.47960714105E+03  0.50400000000E-02 0.  1.
    8880023    1    1    2    0    0  0.41814459418E+03 -0.12763032929E+03  0.85860853943E+03  0.11671132048E+04  0.65864270000E+03 0.  0.
    8880022    1    1    2    0    0 -0.41814459418E+03  0.12763032929E+03 -0.16051472446E+03  0.49019489224E+03  0.15294330000E+03 0.  0.
<mgrwt>
<rscale>  0 0.69163280E+03</rscale>
<asrwt>0</asrwt>
<pdfrwt beam="1">  1        1 0.18118476E+00 0.79053438E+03</pdfrwt>
<pdfrwt beam="2">  1       -1 0.73785715E-01 0.79053438E+03</pdfrwt>
<totfact> 0.21053308E+01</totfact>
</mgrwt>
</event>
<event>
 4    1  0.1521315E-007  0.7670608E+03  0.7818608E-02  0.9787159E-01
         -1   -1    0    0    0  501 -0.00000000000E+00  0.00000000000E+00  0.17040170667E+04  0.17040170667E+04  0.50400000000E-02 0.  1.
          1   -1    0    0  501    0  0.00000000000E+00 -0.00000000000E+00 -0.40344645501E+03  0.40344645504E+03  0.50400000000E-02 0. -1.
    8880023    1    1    2    0    0 -0.12035384141E+03 -0.37428190961E+03  0.28854511601E+02  0.76760327260E+03  0.65864270000E+03 0. -1.
    8880022    1    1    2    0    0  0.12035384141E+03  0.37428190961E+03  0.12717161001E+04  0.13398602492E+04  0.15294330000E+03 0.  0.
<mgrwt>
<rscale>  0 0.66056223E+03</rscale>
<asrwt>0</asrwt>
<pdfrwt beam="1">  1        1 0.62068685E-01 0.76706075E+03</pdfrwt>
<pdfrwt beam="2">  1       -1 0.26215647E+00 0.76706075E+03</pdfrwt>
<totfact> 0.35853898E+00</totfact>
</mgrwt>
</event>
<event>
 4    1  0.1521315E-007  0.7033794E+03  0.7818608E-02  0.9983461E-01
         -1   -1    0    0    0  501 -0.00000000000E+00  0.00000000000E+00  0.40110745039E+03  0.40110745042E+03  0.50400000000E-02 0.  1.
          1   -1    0    0  501    0  0.00000000000E+00 -0.00000000000E+00 -0.76496931674E+03  0.76496931676E+03  0.50400000000E-02 0. -1.
    8880023    1    1    2    0    0 -0.22351596672E+03 -0.10475214472E+03 -0.48189094480E+03  0.85262036578E+03  0.65864270000E+03 0. -1.
    8880022    1    1    2    0    0  0.22351596672E+03  0.10475214472E+03  0.11802907845E+03  0.31345640140E+03  0.15294330000E+03 0.  1.
<mgrwt>
<rscale>  0 0.56381442E+03</rscale>
<asrwt>0</asrwt>
<pdfrwt beam="1">  1        1 0.11768759E+00 0.70337942E+03</pdfrwt>
<pdfrwt beam="2">  1       -1 0.61708839E-01 0.70337942E+03</pdfrwt>
<totfact> 0.64850759E+01</totfact>
</mgrwt>
</event>
<event>
 4    1  0.1521315E-007  0.8686004E+03  0.7818608E-02  0.9578444E-01
         -1   -1    0    0    0  501 -0.00000000000E+00  0.00000000000E+00  0.15910873193E+04  0.15910873193E+04  0.50400000000E-02 0.  1.
          1   -1    0    0  501    0  0.00000000000E+00 -0.00000000000E+00 -0.81228056483E+03  0.81228056484E+03  0.50400000000E-02 0. -1.
    8880023    1    1    2    0    0 -0.32669704621E+03 -0.46252083957E+03 -0.49589438197E+03  0.10001889478E+04  0.65864270000E+03 0. -1.
    8880022    1    1    2    0    0  0.32669704621E+03  0.46252083957E+03  0.12747011364E+04  0.14031789363E+04  0.15294330000E+03 0.  0.
<mgrwt>
<rscale>  0 0.78739459E+03</rscale>
<asrwt>0</asrwt>
<pdfrwt beam="1">  1        1 0.12496624E+00 0.86860042E+03</pdfrwt>
<pdfrwt beam="2">  1       -1 0.24478266E+00 0.86860042E+03</pdfrwt>
<totfact> 0.16701569E+00</totfact>
</mgrwt>
</event>
<event>
 4    1  0.1521315E-007  0.1193490E+04  0.7818608E-02  0.9163476E-01
         -1   -1    0    0    0  501 -0.00000000000E+00  0.00000000000E+00  0.12009759122E+04  0.12009759122E+04  0.50400000000E-02 0.  1.
          1   -1    0    0  501    0  0.00000000000E+00 -0.00000000000E+00 -0.15012069424E+04  0.15012069424E+04  0.50400000000E-02 0. -1.
    8880023    1    1    2    0    0  0.62449162391E+03  0.77499642147E+03 -0.93125893868E+03  0.15138238533E+04  0.65864270000E+03 0.  0.
    8880022    1    1    2    0    0 -0.62449162391E+03 -0.77499642147E+03  0.63102790855E+03  0.11883590013E+04  0.15294330000E+03 0.  0.
<mgrwt>
<rscale>  0 0.11438498E+04</rscale>
<asrwt>0</asrwt>
<pdfrwt beam="1">  1        1 0.23095491E+00 0.11934904E+04</pdfrwt>
<pdfrwt beam="2">  1       -1 0.18476552E+00 0.11934904E+04</pdfrwt>
<totfact> 0.12320869E+00</totfact>
</mgrwt>
</event>
<event>
 4    1  0.1521315E-007  0.6650868E+03  0.7818608E-02  0.1019461E+00
          1   -1    0    0  501    0  0.00000000000E+00  0.00000000000E+00  0.10840676371E+04  0.10840676371E+04  0.50400000000E-02 0. -1.
         -1   -1    0    0    0  501 -0.00000000000E+00 -0.00000000000E+00 -0.31403484806E+03  0.31403484810E+03  0.50400000000E-02 0.  1.
    8880023    1    1    2    0    0 -0.19063529173E+02  0.90370517853E+02  0.94000613728E+03  0.11514998884E+04  0.65864270000E+03 0. -1.
    8880022    1    1    2    0    0  0.19063529173E+02 -0.90370517853E+02 -0.16997334821E+03  0.24660259682E+03  0.15294330000E+03 0.  0.
<mgrwt>
<rscale>  0 0.47881731E+03</rscale>
<asrwt>0</asrwt>
<pdfrwt beam="1">  1        1 0.16677964E+00 0.66508680E+03</pdfrwt>
<pdfrwt beam="2">  1       -1 0.48313054E-01 0.66508680E+03</pdfrwt>
<totfact> 0.57676504E+01</totfact>
</mgrwt>
</event>
<event>
 4    1  0.1521315E-007  0.6902492E+03  0.7818608E-02  0.1004034E+00
         -1   -1    0    0    0  501 -0.00000000000E+00  0.00000000000E+00  0.85715490197E+03  0.85715490199E+03  0.50400000000E-02 0.  1.
          1   -1    0    0  501    0  0.00000000000E+00 -0.00000000000E+00 -0.58547419946E+03  0.58547419948E+03  0.50400000000E-02 0. -1.
    8880023    1    1    2    0    0  0.68091744158E+02  0.19492877826E+03 -0.34710763075E+03  0.77261091618E+03  0.65864270000E+03 0. -1.
    8880022    1    1    2    0    0 -0.68091744158E+02 -0.19492877826E+03  0.61878833326E+03  0.67001818529E+03  0.15294330000E+03 0.  0.
<mgrwt>
<rscale>  0 0.53916076E+03</rscale>
<asrwt>0</asrwt>
<pdfrwt beam="1">  1        1 0.90072954E-01 0.69024917E+03</pdfrwt>
<pdfrwt beam="2">  1       -1 0.13186998E+00 0.69024917E+03</pdfrwt>
<totfact> 0.17947202E+01</totfact>
</mgrwt>
</event>
<event>
 4    1  0.1521315E-007  0.7602453E+03  0.7818608E-02  0.9804473E-01
         -1   -1    0    0    0  501 -0.00000000000E+00  0.00000000000E+00  0.45004514772E+03  0.45004514775E+03  0.50400000000E-02 0.  1.
          1   -1    0    0  501    0  0.00000000000E+00 -0.00000000000E+00 -0.12901533647E+04  0.12901533647E+04  0.50400000000E-02 0. -1.
    8880023    1    1    2    0    0 -0.35734679323E+03 -0.12831984308E+03 -0.10371206728E+04  0.12859207631E+04  0.65864270000E+03 0. -1.
    8880022    1    1    2    0    0  0.35734679323E+03  0.12831984308E+03  0.19701245586E+03  0.45427774933E+03  0.15294330000E+03 0.  1.
<mgrwt>
<rscale>  0 0.65123057E+03</rscale>
<asrwt>0</asrwt>
<pdfrwt beam="1">  1        1 0.19848513E+00 0.76024530E+03</pdfrwt>
<pdfrwt beam="2">  1       -1 0.69237716E-01 0.76024530E+03</pdfrwt>
<totfact> 0.19997642E+01</totfact>
</mgrwt>
</event>
<event>
 4    1  0.1521315E-007  0.9293921E+03  0.7818608E-02  0.9480406E-01
          1   -1    0    0  501    0  0.00000000000E+00  0.00000000000E+00  0.13053463905E+04  0.13053463905E+04  0.50400000000E-02 0. -1.
         -1   -1    0    0    0  501 -0.00000000000E+00 -0.00000000000E+00 -0.55237751479E+03  0.55237751481E+03  0.50400000000E-02 0.  1.
    8880023    1    1    2    0    0  0.62670054577E+03  0.19288809586E+03  0.73376418378E+03  0.11841365948E+04  0.65864270000E+03 0. -1.
    8880022    1    1    2    0    0 -0.62670054577E+03 -0.19288809586E+03  0.19204691897E+02  0.67358731045E+03  0.15294330000E+03 0.  0.
<mgrwt>
<rscale>  0 0.85743962E+03</rscale>
<asrwt>0</asrwt>
<pdfrwt beam="1">  1        1 0.20082252E+00 0.92939206E+03</pdfrwt>
<pdfrwt beam="2">  1       -1 0.84981157E-01 0.92939206E+03</pdfrwt>
<totfact> 0.12427988E+01</totfact>
</mgrwt>
</event>
<event>
 4    1  0.1521315E-007  0.7468383E+03  0.7818608E-02  0.9840457E-01
         -1   -1    0    0    0  501 -0.00000000000E+00  0.00000000000E+00  0.64541588840E+03  0.64541588842E+03  0.50400000000E-02 0.  1.
          1   -1    0    0  501    0  0.00000000000E+00 -0.00000000000E+00 -0.78322243584E+03  0.78322243586E+03  0.50400000000E-02 0. -1.
    8880023    1    1    2    0    0 -0.32522011243E+03 -0.13486698303E+03 -0.50170183175E+03  0.89970670715E+03  0.65864270000E+03 0. -1.
    8880022    1    1    2    0    0  0.32522011243E+03  0.13486698303E+03  0.36389528431E+03  0.52893161713E+03  0.15294330000E+03 0.  0.
<mgrwt>
<rscale>  0 0.63235839E+03</rscale>
<asrwt>0</asrwt>
<pdfrwt beam="1">  1        1 0.12049576E+00 0.74683829E+03</pdfrwt>
<pdfrwt beam="2">  1       -1 0.99294752E-01 0.74683829E+03</pdfrwt>
<totfact> 0.22757650E+01</totfact>
</mgrwt>
</event>
<event>
 4    1  0.1521315E-007  0.7253318E+03  0.7818608E-02  0.9904941E-01
          1   -1    0    0  501    0  0.00000000000E+00  0.00000000000E+00  0.14044779761E+04  0.14044779761E+04  0.50400000000E-02 0. -1.
         -1   -1    0    0    0  501 -0.00000000000E+00 -0.00000000000E+00 -0.55177797183E+03  0.55177797185E+03  0.50400000000E-02 0.  1.
    8880023    1    1    2    0    0 -0.22215096189E+03  0.20723184055E+03  0.12426270665E+04  0.14388288009E+04  0.65864270000E+03 0. -1.
    8880022    1    1    2    0    0  0.22215096189E+03 -0.20723184055E+03 -0.38992706226E+03  0.51742714705E+03  0.15294330000E+03 0.  0.
<mgrwt>
<rscale>  0 0.60022417E+03</rscale>
<asrwt>0</asrwt>
<pdfrwt beam="1">  1        1 0.21607353E+00 0.72533185E+03</pdfrwt>
<pdfrwt beam="2">  1       -1 0.84888920E-01 0.72533185E+03</pdfrwt>
<totfact> 0.10896351E+01</totfact>
</mgrwt>
</event>
<event>
 4    1  0.1521315E-007  0.1051902E+04  0.7818608E-02  0.9316599E-01
          1   -1    0    0  501    0  0.00000000000E+00  0.00000000000E+00  0.14602915022E+04  0.14602915022E+04  0.50400000000E-02 0. -1.
         -1   -1    0    0    0  501 -0.00000000000E+00 -0.00000000000E+00 -0.12880803979E+04  0.12880803979E+04  0.50400000000E-02 0.  1.
    8880023    1    1    2    0    0  0.62137055554E+03 -0.53533662873E+03  0.10853706762E+04  0.15114649796E+04  0.65864270000E+03 0. -1.
    8880022    1    1    2    0    0 -0.62137055554E+03  0.53533662873E+03 -0.91315957196E+03  0.12369069206E+04  0.15294330000E+03 0.  0.
<mgrwt>
<rscale>  0 0.99268986E+03</rscale>
<asrwt>0</asrwt>
<pdfrwt beam="1">  1        1 0.22466023E+00 0.10519016E+04</pdfrwt>
<pdfrwt beam="2">  1       -1 0.19816622E+00 0.10519016E+04</pdfrwt>
<totfact> 0.10793594E+00</totfact>
</mgrwt>
</event>
<event>
 4    1  0.1521315E-007  0.8426764E+03  0.7818608E-02  0.9625154E-01
         -1   -1    0    0    0  501 -0.00000000000E+00  0.00000000000E+00  0.98708590714E+03  0.98708590715E+03  0.50400000000E-02 0.  1.
          1   -1    0    0  501    0  0.00000000000E+00 -0.00000000000E+00 -0.81847870623E+03  0.81847870625E+03  0.50400000000E-02 0. -1.
    8880023    1    1    2    0    0  0.52421667457E+03  0.38602468946E+02 -0.46963628626E+03  0.96470810101E+03  0.65864270000E+03 0.  0.
    8880022    1    1    2    0    0 -0.52421667457E+03 -0.38602468946E+02  0.63824348716E+03  0.84085651239E+03  0.15294330000E+03 0.  0.
<mgrwt>
<rscale>  0 0.75653448E+03</rscale>
<asrwt>0</asrwt>
<pdfrwt beam="1">  1        1 0.12591980E+00 0.84267638E+03</pdfrwt>
<pdfrwt beam="2">  1       -1 0.15185937E+00 0.84267638E+03</pdfrwt>
<totfact> 0.73375846E+00</totfact>
</mgrwt>
</event>
<event>
 4    1  0.1521315E-007  0.6926839E+03  0.7818608E-02  0.1002902E+00
          1   -1    0    0  501    0  0.00000000000E+00  0.00000000000E+00  0.85930303967E+03  0.85930303969E+03  0.50400000000E-02 0. -1.
         -1   -1    0    0    0  501 -0.00000000000E+00 -0.00000000000E+00 -0.89977995954E+03  0.89977995955E+03  0.50400000000E-02 0.  1.
    8880023    1    1    2    0    0  0.88635280327E+02 -0.19530634986E+03  0.69294544898E+03  0.97978792845E+03  0.65864270000E+03 0. -1.
    8880022    1    1    2    0    0 -0.88635280327E+02  0.19530634986E+03 -0.73342236885E+03  0.77929507079E+03  0.15294330000E+03 0.  0.
<mgrwt>
<rscale>  0 0.54395796E+03</rscale>
<asrwt>0</asrwt>
<pdfrwt beam="1">  1        1 0.13220047E+00 0.69268390E+03</pdfrwt>
<pdfrwt beam="2">  1       -1 0.13842769E+00 0.69268390E+03</pdfrwt>
<totfact> 0.88378366E+00</totfact>
</mgrwt>
</event>
<event>
 4    1  0.1521315E-007  0.7493941E+03  0.7818608E-02  0.9833382E-01
          1   -1    0    0  501    0  0.00000000000E+00  0.00000000000E+00  0.22368108041E+04  0.22368108041E+04  0.50400000000E-02 0. -1.
         -1   -1    0    0    0  501 -0.00000000000E+00 -0.00000000000E+00 -0.43335162016E+03  0.43335162019E+03  0.50400000000E-02 0.  1.
    8880023    1    1    2    0    0 -0.25774538829E+02  0.35653461078E+03 -0.73839517667E+02  0.75302306483E+03  0.65864270000E+03 0.  0.
    8880022    1    1    2    0    0  0.25774538829E+02 -0.35653461078E+03  0.18772987016E+04  0.19171393595E+04  0.15294330000E+03 0. -1.
<mgrwt>
<rscale>  0 0.63601438E+03</rscale>
<asrwt>0</asrwt>
<pdfrwt beam="1">  1        1 0.34412474E+00 0.74939406E+03</pdfrwt>
<pdfrwt beam="2">  1       -1 0.66669480E-01 0.74939406E+03</pdfrwt>
<totfact> 0.49407495E+00</totfact>
</mgrwt>
</event>
<event>
 4    1  0.1521315E-007  0.7730037E+03  0.7818608E-02  0.9772536E-01
         -1   -1    0    0    0  501 -0.00000000000E+00  0.00000000000E+00  0.40116673412E+03  0.40116673415E+03  0.50400000000E-02 0.  1.
          1   -1    0    0  501    0  0.00000000000E+00 -0.00000000000E+00 -0.16213489761E+04  0.16213489761E+04  0.50400000000E-02 0. -1.
    8880023    1    1    2    0    0 -0.12597717546E+03  0.38451825205E+03 -0.13630327584E+04  0.15669693812E+04  0.65864270000E+03 0.  0.
    8880022    1    1    2    0    0  0.12597717546E+03 -0.38451825205E+03  0.14285051639E+03  0.45554632908E+03  0.15294330000E+03 0.  0.
<mgrwt>
<rscale>  0 0.66857496E+03</rscale>
<asrwt>0</asrwt>
<pdfrwt beam="1">  1        1 0.24943830E+00 0.77300371E+03</pdfrwt>
<pdfrwt beam="2">  1       -1 0.61717960E-01 0.77300371E+03</pdfrwt>
<totfact> 0.14862446E+01</totfact>
</mgrwt>
</event>
<event>
 4    1  0.1521315E-007  0.6904081E+03  0.7818608E-02  0.1003959E+00
         -1   -1    0    0    0  501 -0.00000000000E+00  0.00000000000E+00  0.31583705271E+03  0.31583705275E+03  0.50400000000E-02 0.  1.
          1   -1    0    0  501    0  0.00000000000E+00 -0.00000000000E+00 -0.13460855473E+04  0.13460855473E+04  0.50400000000E-02 0. -1.
    8880023    1    1    2    0    0  0.19625156290E+03 -0.65866736244E+02 -0.11778065122E+04  0.13652441134E+04  0.65864270000E+03 0. -1.
    8880022    1    1    2    0    0 -0.19625156290E+03  0.65866736244E+02  0.14755801756E+03  0.29667848666E+03  0.15294330000E+03 0.  0.
<mgrwt>
<rscale>  0 0.53947750E+03</rscale>
<asrwt>0</asrwt>
<pdfrwt beam="1">  1        1 0.20709008E+00 0.69040807E+03</pdfrwt>
<pdfrwt beam="2">  1       -1 0.48590317E-01 0.69040807E+03</pdfrwt>
<totfact> 0.36834265E+01</totfact>
</mgrwt>
</event>
<event>
 4    1  0.1521315E-007  0.7166107E+03  0.7818608E-02  0.9934226E-01
         -1   -1    0    0    0  501 -0.00000000000E+00  0.00000000000E+00  0.94367800329E+02  0.94367800464E+02  0.50400000000E-02 0.  1.
          1   -1    0    0  501    0  0.00000000000E+00 -0.00000000000E+00 -0.33106853224E+04  0.33106853224E+04  0.50400000000E-02 0. -1.
    8880023    1    1    2    0    0 -0.23497593035E+02 -0.28136907968E+03 -0.15441235013E+04  0.17023067554E+04  0.65864270000E+03 0.  0.
    8880022    1    1    2    0    0  0.23497593035E+02  0.28136907968E+03 -0.16721940208E+04  0.17027463675E+04  0.15294330000E+03 0.  0.
<mgrwt>
<rscale>  0 0.58630865E+03</rscale>
<asrwt>0</asrwt>
<pdfrwt beam="1">  1        1 0.50933611E+00 0.71661070E+03</pdfrwt>
<pdfrwt beam="2">  1       -1 0.14518126E-01 0.71661070E+03</pdfrwt>
<totfact> 0.13066608E+01</totfact>
</mgrwt>
</event>
<event>
 4    1  0.1521315E-007  0.7869511E+03  0.7818608E-02  0.9739755E-01
         -1   -1    0    0    0  501 -0.00000000000E+00  0.00000000000E+00  0.12285125092E+04  0.12285125092E+04  0.50400000000E-02 0.  1.
          1   -1    0    0  501    0  0.00000000000E+00 -0.00000000000E+00 -0.74065706857E+03  0.74065706859E+03  0.50400000000E-02 0. -1.
    8880023    1    1    2    0    0 -0.42958680612E+03 -0.30611236300E+02 -0.46380295757E+03  0.91345785973E+03  0.65864270000E+03 0. -1.
    8880022    1    1    2    0    0  0.42958680612E+03  0.30611236300E+02  0.95165839824E+03  0.10557117181E+04  0.15294330000E+03 0.  0.
<mgrwt>
<rscale>  0 0.68698340E+03</rscale>
<asrwt>0</asrwt>
<pdfrwt beam="1">  1        1 0.11394724E+00 0.78695113E+03</pdfrwt>
<pdfrwt beam="2">  1       -1 0.18900192E+00 0.78695113E+03</pdfrwt>
<totfact> 0.46236663E+00</totfact>
</mgrwt>
</event>
<event>
 4    1  0.1521315E-007  0.8297700E+03  0.7818608E-02  0.9649780E-01
          1   -1    0    0  501    0  0.00000000000E+00  0.00000000000E+00  0.11795097801E+04  0.11795097802E+04  0.50400000000E-02 0. -1.
         -1   -1    0    0    0  501 -0.00000000000E+00 -0.00000000000E+00 -0.57513276459E+03  0.57513276461E+03  0.50400000000E-02 0.  1.
    8880023    1    1    2    0    0 -0.50110931918E+03 -0.59978836812E+02  0.83670164370E+03  0.11783835782E+04  0.65864270000E+03 0. -1.
    8880022    1    1    2    0    0  0.50110931918E+03  0.59978836812E+02 -0.23232462815E+03  0.57625896652E+03  0.15294330000E+03 0.  0.
<mgrwt>
<rscale>  0 0.74087228E+03</rscale>
<asrwt>0</asrwt>
<pdfrwt beam="1">  1        1 0.18146304E+00 0.82976998E+03</pdfrwt>
<pdfrwt beam="2">  1       -1 0.88481964E-01 0.82976998E+03</pdfrwt>
<totfact> 0.14182110E+01</totfact>
</mgrwt>
</event>
<event>
 4    1  0.1521315E-007  0.7539749E+03  0.7818608E-02  0.9820963E-01
         -1   -1    0    0    0  501 -0.00000000000E+00  0.00000000000E+00  0.11547020361E+04  0.11547020361E+04  0.50400000000E-02 0.  1.
          1   -1    0    0  501    0  0.00000000000E+00 -0.00000000000E+00 -0.59335035778E+03  0.59335035781E+03  0.50400000000E-02 0. -1.
    8880023    1    1    2    0    0 -0.30332515481E+03  0.20654728782E+03 -0.29049265930E+03  0.80800007612E+03  0.65864270000E+03 0.  0.
    8880022    1    1    2    0    0  0.30332515481E+03 -0.20654728782E+03  0.85184433764E+03  0.94005231781E+03  0.15294330000E+03 0.  0.
<mgrwt>
<rscale>  0 0.64249576E+03</rscale>
<asrwt>0</asrwt>
<pdfrwt beam="1">  1        1 0.91284670E-01 0.75397489E+03</pdfrwt>
<pdfrwt beam="2">  1       -1 0.17764647E+00 0.75397489E+03</pdfrwt>
<totfact> 0.77722868E+00</totfact>
</mgrwt>
</event>
<event>
 4    1  0.1521315E-007  0.9977329E+03  0.7818608E-02  0.9384530E-01
          1   -1    0    0  501    0  0.00000000000E+00  0.00000000000E+00  0.12540276026E+04  0.12540276027E+04  0.50400000000E-02 0. -1.
         -1   -1    0    0    0  501 -0.00000000000E+00 -0.00000000000E+00 -0.65052571253E+03  0.65052571255E+03  0.50400000000E-02 0.  1.
    8880023    1    1    2    0    0  0.39396720283E+03 -0.63753472849E+03  0.54636550377E+03  0.11375351234E+04  0.65864270000E+03 0.  0.
    8880022    1    1    2    0    0 -0.39396720283E+03  0.63753472849E+03  0.57136386352E+02  0.76701819183E+03  0.15294330000E+03 0.  0.
<mgrwt>
<rscale>  0 0.93359830E+03</rscale>
<asrwt>0</asrwt>
<pdfrwt beam="1">  1        1 0.19292732E+00 0.99773288E+03</pdfrwt>
<pdfrwt beam="2">  1       -1 0.10008088E+00 0.99773288E+03</pdfrwt>
<totfact> 0.93240188E+00</totfact>
</mgrwt>
</event>
<event>
 4    1  0.1521315E-007  0.6777931E+03  0.7818608E-02  0.1010601E+00
         -1   -1    0    0    0  501 -0.00000000000E+00  0.00000000000E+00  0.15309205650E+04  0.15309205650E+04  0.50400000000E-02 0.  1.
          1   -1    0    0  501    0  0.00000000000E+00 -0.00000000000E+00 -0.68438034962E+03  0.68438034964E+03  0.50400000000E-02 0. -1.
    8880023    1    1    2    0    0 -0.12320363351E+03 -0.10204952128E+03 -0.50532820223E+03  0.84543482205E+03  0.65864270000E+03 0. -1.
    8880022    1    1    2    0    0  0.12320363351E+03  0.10204952128E+03  0.13518684176E+04  0.13698660926E+04  0.15294330000E+03 0.  0.
<mgrwt>
<rscale>  0 0.51236637E+03</rscale>
<asrwt>0</asrwt>
<pdfrwt beam="1">  1        1 0.10528929E+00 0.67779307E+03</pdfrwt>
<pdfrwt beam="2">  1       -1 0.23552624E+00 0.67779307E+03</pdfrwt>
<totfact> 0.25843038E+00</totfact>
</mgrwt>
</event>
<event>
 4    1  0.1521315E-007  0.6704402E+03  0.7818608E-02  0.1015349E+00
          1   -1    0    0  501    0  0.00000000000E+00  0.00000000000E+00  0.68172639451E+03  0.68172639453E+03  0.50400000000E-02 0. -1.
         -1   -1    0    0    0  501 -0.00000000000E+00 -0.00000000000E+00 -0.38767123705E+03  0.38767123708E+03  0.50400000000E-02 0.  1.
    8880023    1    1    2    0    0 -0.12473013349E+03  0.11058236727E+02  0.45853745602E+03  0.81224792744E+03  0.65864270000E+03 0.  0.
    8880022    1    1    2    0    0  0.12473013349E+03 -0.11058236727E+02 -0.16448229856E+03  0.25714970417E+03  0.15294330000E+03 0.  0.
<mgrwt>
<rscale>  0 0.49402920E+03</rscale>
<asrwt>0</asrwt>
<pdfrwt beam="1">  1        1 0.10488098E+00 0.67044023E+03</pdfrwt>
<pdfrwt beam="2">  1       -1 0.59641729E-01 0.67044023E+03</pdfrwt>
<totfact> 0.82934288E+01</totfact>
</mgrwt>
</event>
<event>
 4    1  0.1521315E-007  0.7360135E+03  0.7818608E-02  0.9871715E-01
          1   -1    0    0  501    0  0.00000000000E+00  0.00000000000E+00  0.87850322545E+03  0.87850322547E+03  0.50400000000E-02 0. -1.
         -1   -1    0    0    0  501 -0.00000000000E+00 -0.00000000000E+00 -0.94734612049E+03  0.94734612050E+03  0.50400000000E-02 0.  1.
    8880023    1    1    2    0    0  0.13496168365E+03 -0.29948456305E+03  0.67485679732E+03  0.99857276285E+03  0.65864270000E+03 0.  0.
    8880022    1    1    2    0    0 -0.13496168365E+03  0.29948456305E+03 -0.74369969235E+03  0.82727658312E+03  0.15294330000E+03 0.  0.
<mgrwt>
<rscale>  0 0.61651878E+03</rscale>
<asrwt>0</asrwt>
<pdfrwt beam="1">  1        1 0.13515434E+00 0.73601350E+03</pdfrwt>
<pdfrwt beam="2">  1       -1 0.14574556E+00 0.73601350E+03</pdfrwt>
<totfact> 0.73979458E+00</totfact>
</mgrwt>
</event>
<event>
 4    1  0.1521315E-007  0.1184360E+04  0.7818608E-02  0.9172477E-01
         -1   -1    0    0    0  501 -0.00000000000E+00  0.00000000000E+00  0.22362751642E+04  0.22362751642E+04  0.50400000000E-02 0.  1.
          1   -1    0    0  501    0  0.00000000000E+00 -0.00000000000E+00 -0.55850416868E+03  0.55850416871E+03  0.50400000000E-02 0. -1.
    8880023    1    1    2    0    0 -0.64476052524E+03  0.74376236063E+03  0.60178099207E+03  0.13284762522E+04  0.65864270000E+03 0. -1.
    8880022    1    1    2    0    0  0.64476052524E+03 -0.74376236063E+03  0.10759900035E+04  0.14663030807E+04  0.15294330000E+03 0.  0.
<mgrwt>
<rscale>  0 0.11342079E+04</rscale>
<asrwt>0</asrwt>
<pdfrwt beam="1">  1        1 0.85923718E-01 0.11843601E+04</pdfrwt>
<pdfrwt beam="2">  1       -1 0.34404233E+00 0.11843601E+04</pdfrwt>
<totfact> 0.64274553E-01</totfact>
</mgrwt>
</event>
<event>
 4    1  0.1521315E-007  0.6704561E+03  0.7818608E-02  0.1015338E+00
         -1   -1    0    0    0  501 -0.00000000000E+00  0.00000000000E+00  0.70669606203E+03  0.70669606205E+03  0.50400000000E-02 0.  1.
          1   -1    0    0  501    0  0.00000000000E+00 -0.00000000000E+00 -0.75483491999E+03  0.75483492001E+03  0.50400000000E-02 0. -1.
    8880023    1    1    2    0    0 -0.12201088543E+03 -0.28539416878E+02 -0.58476362920E+03  0.88964029966E+03  0.65864270000E+03 0. -1.
    8880022    1    1    2    0    0  0.12201088543E+03  0.28539416878E+02  0.53662477124E+03  0.57189068239E+03  0.15294330000E+03 0.  0.
<mgrwt>
<rscale>  0 0.49407156E+03</rscale>
<asrwt>0</asrwt>
<pdfrwt beam="1">  1        1 0.11612845E+00 0.67045608E+03</pdfrwt>
<pdfrwt beam="2">  1       -1 0.10872247E+00 0.67045608E+03</pdfrwt>
<totfact> 0.19733859E+01</totfact>
</mgrwt>
</event>
<event>
 4    1  0.1521315E-007  0.7107508E+03  0.7818608E-02  0.9955223E-01
          1   -1    0    0  501    0  0.00000000000E+00  0.00000000000E+00  0.59868058586E+03  0.59868058588E+03  0.50400000000E-02 0. -1.
         -1   -1    0    0    0  501 -0.00000000000E+00 -0.00000000000E+00 -0.49149881717E+03  0.49149881719E+03  0.50400000000E-02 0.  1.
    8880023    1    1    2    0    0  0.26359004961E+03 -0.43322180982E+02  0.24653311027E+03  0.75229336455E+03  0.65864270000E+03 0.  0.
    8880022    1    1    2    0    0 -0.26359004961E+03  0.43322180982E+02 -0.13935134157E+03  0.33788603853E+03  0.15294330000E+03 0. -1.
<mgrwt>
<rscale>  0 0.57657975E+03</rscale>
<asrwt>0</asrwt>
<pdfrwt beam="1">  1        1 0.92104705E-01 0.71075082E+03</pdfrwt>
<pdfrwt beam="2">  1       -1 0.75615203E-01 0.71075082E+03</pdfrwt>
<totfact> 0.61841170E+01</totfact>
</mgrwt>
</event>
<event>
 4    1  0.1521315E-007  0.8519940E+03  0.7818608E-02  0.9607966E-01
          1   -1    0    0  501    0  0.00000000000E+00  0.00000000000E+00  0.54823019645E+03  0.54823019647E+03  0.50400000000E-02 0. -1.
         -1   -1    0    0    0  501 -0.00000000000E+00 -0.00000000000E+00 -0.13698906965E+04  0.13698906965E+04  0.50400000000E-02 0.  1.
    8880023    1    1    2    0    0 -0.92025898587E+02  0.53255505241E+03  0.80091196899E+02  0.85575022988E+03  0.65864270000E+03 0.  0.
    8880022    1    1    2    0    0  0.92025898587E+02 -0.53255505241E+03 -0.90175169698E+03  0.10623706631E+04  0.15294330000E+03 0.  0.
<mgrwt>
<rscale>  0 0.76771158E+03</rscale>
<asrwt>0</asrwt>
<pdfrwt beam="1">  1        1 0.84343107E-01 0.85199405E+03</pdfrwt>
<pdfrwt beam="2">  1       -1 0.21075241E+00 0.85199405E+03</pdfrwt>
<totfact> 0.50619005E+00</totfact>
</mgrwt>
</event>
<event>
 4    1  0.1521315E-007  0.8483444E+03  0.7818608E-02  0.9614643E-01
         -1   -1    0    0    0  501 -0.00000000000E+00  0.00000000000E+00  0.29725131843E+03  0.29725131847E+03  0.50400000000E-02 0.  1.
          1   -1    0    0  501    0  0.00000000000E+00 -0.00000000000E+00 -0.21021073249E+04  0.21021073249E+04  0.50400000000E-02 0. -1.
    8880023    1    1    2    0    0  0.20276146871E+03  0.49473806173E+03 -0.15919387358E+04  0.18038728081E+04  0.65864270000E+03 0. -1.
    8880022    1    1    2    0    0 -0.20276146871E+03 -0.49473806173E+03 -0.21291727072E+03  0.59548583535E+03  0.15294330000E+03 0.  0.
<mgrwt>
<rscale>  0 0.76334575E+03</rscale>
<asrwt>0</asrwt>
<pdfrwt beam="1">  1        1 0.32340112E+00 0.84834437E+03</pdfrwt>
<pdfrwt beam="2">  1       -1 0.45730973E-01 0.84834437E+03</pdfrwt>
<totfact> 0.12445638E+01</totfact>
</mgrwt>
</event>
<event>
 4    1  0.1521315E-007  0.9047273E+03  0.7818608E-02  0.9518485E-01
         -1   -1    0    0    0  501 -0.00000000000E+00  0.00000000000E+00  0.16312371655E+04  0.16312371655E+04  0.50400000000E-02 0.  1.
          1   -1    0    0  501    0  0.00000000000E+00 -0.00000000000E+00 -0.45497574377E+03  0.45497574380E+03  0.50400000000E-02 0. -1.
    8880023    1    1    2    0    0 -0.47121854342E+03  0.40332902450E+03  0.21150933661E+03  0.92912196368E+03  0.65864270000E+03 0.  0.
    8880022    1    1    2    0    0  0.47121854342E+03 -0.40332902450E+03  0.96475208508E+03  0.11570909456E+04  0.15294330000E+03 0.  0.
<mgrwt>
<rscale>  0 0.82934608E+03</rscale>
<asrwt>0</asrwt>
<pdfrwt beam="1">  1        1 0.69996268E-01 0.90472726E+03</pdfrwt>
<pdfrwt beam="2">  1       -1 0.25095957E+00 0.90472726E+03</pdfrwt>
<totfact> 0.35363118E+00</totfact>
</mgrwt>
</event>
<event>
 4    1  0.1521315E-007  0.7970505E+03  0.7818608E-02  0.9717210E-01
         -1   -1    0    0    0  501 -0.00000000000E+00  0.00000000000E+00  0.55474857292E+03  0.55474857295E+03  0.50400000000E-02 0.  1.
          1   -1    0    0  501    0  0.00000000000E+00 -0.00000000000E+00 -0.16289701315E+04  0.16289701316E+04  0.50400000000E-02 0. -1.
    8880023    1    1    2    0    0 -0.22092683339E+03  0.39073088832E+03 -0.13981871722E+04  0.16094150700E+04  0.65864270000E+03 0.  0.
    8880022    1    1    2    0    0  0.22092683339E+03 -0.39073088832E+03  0.32396561358E+03  0.57430363449E+03  0.15294330000E+03 0.  0.
<mgrwt>
<rscale>  0 0.70001291E+03</rscale>
<asrwt>0</asrwt>
<pdfrwt beam="1">  1        1 0.25061079E+00 0.79705050E+03</pdfrwt>
<pdfrwt beam="2">  1       -1 0.85345935E-01 0.79705050E+03</pdfrwt>
<totfact> 0.74815227E+00</totfact>
</mgrwt>
</event>
<event>
 4    1  0.1521315E-007  0.8925221E+03  0.7818608E-02  0.9538144E-01
         -1   -1    0    0    0  501 -0.00000000000E+00  0.00000000000E+00  0.64043076301E+03  0.64043076303E+03  0.50400000000E-02 0.  1.
          1   -1    0    0  501    0  0.00000000000E+00 -0.00000000000E+00 -0.23097828063E+04  0.23097828063E+04  0.50400000000E-02 0. -1.
    8880023    1    1    2    0    0  0.50252081032E+03  0.33205164769E+03 -0.20399583742E+04  0.22266624882E+04  0.65864270000E+03 0.  0.
    8880022    1    1    2    0    0 -0.50252081032E+03 -0.33205164769E+03  0.37060633090E+03  0.72355108116E+03  0.15294330000E+03 0.  0.
<mgrwt>
<rscale>  0 0.81529080E+03</rscale>
<asrwt>0</asrwt>
<pdfrwt beam="1">  1        1 0.35535120E+00 0.89252208E+03</pdfrwt>
<pdfrwt beam="2">  1       -1 0.98527811E-01 0.89252208E+03</pdfrwt>
<totfact> 0.18664400E+00</totfact>
</mgrwt>
</event>
<event>
 4    1  0.1521315E-007  0.9856643E+03  0.7818608E-02  0.9400558E-01
          1   -1    0    0  501    0  0.00000000000E+00  0.00000000000E+00  0.58280451428E+03  0.58280451430E+03  0.50400000000E-02 0. -1.
         -1   -1    0    0    0  501 -0.00000000000E+00 -0.00000000000E+00 -0.13262984905E+04  0.13262984906E+04  0.50400000000E-02 0.  1.
    8880023    1    1    2    0    0 -0.61039602694E+03  0.40637493717E+03 -0.26652486439E+03  0.10210629799E+04  0.65864270000E+03 0. -1.
    8880022    1    1    2    0    0  0.61039602694E+03 -0.40637493717E+03 -0.47696911188E+03  0.88804002498E+03  0.15294330000E+03 0.  1.
<mgrwt>
<rscale>  0 0.92029764E+03</rscale>
<asrwt>0</asrwt>
<pdfrwt beam="1">  1        1 0.89662233E-01 0.98566430E+03</pdfrwt>
<pdfrwt beam="2">  1       -1 0.20404592E+00 0.98566430E+03</pdfrwt>
<totfact> 0.50725174E+00</totfact>
</mgrwt>
</event>
<event>
 4    1  0.1521315E-007  0.8635239E+03  0.7818608E-02  0.9587326E-01
         -1   -1    0    0    0  501 -0.00000000000E+00  0.00000000000E+00  0.15459791831E+03  0.15459791840E+03  0.50400000000E-02 0.  1.
          1   -1    0    0  501    0  0.00000000000E+00 -0.00000000000E+00 -0.41281714577E+04  0.41281714577E+04  0.50400000000E-02 0. -1.
    8880023    1    1    2    0    0  0.18664842607E+02 -0.55813524261E+03 -0.32121852887E+04  0.33262302777E+04  0.65864270000E+03 0.  0.
    8880022    1    1    2    0    0 -0.18664842607E+02  0.55813524261E+03 -0.76138825074E+03  0.95653909840E+03  0.15294330000E+03 0.  0.
<mgrwt>
<rscale>  0 0.78140768E+03</rscale>
<asrwt>0</asrwt>
<pdfrwt beam="1">  1        1 0.63510322E+00 0.86352390E+03</pdfrwt>
<pdfrwt beam="2">  1       -1 0.23784298E-01 0.86352390E+03</pdfrwt>
<totfact> 0.12150365E+00</totfact>
</mgrwt>
</event>
<event>
 4    1  0.1521315E-007  0.7541854E+03  0.7818608E-02  0.9820400E-01
         -1   -1    0    0    0  501 -0.00000000000E+00  0.00000000000E+00  0.14788238039E+04  0.14788238039E+04  0.50400000000E-02 0.  1.
          1   -1    0    0  501    0  0.00000000000E+00 -0.00000000000E+00 -0.35903919560E+03  0.35903919564E+03  0.50400000000E-02 0. -1.
    8880023    1    1    2    0    0  0.17966708876E+03 -0.32047638421E+03  0.12245190189E+03  0.76406154867E+03  0.65864270000E+03 0. -1.
    8880022    1    1    2    0    0 -0.17966708876E+03  0.32047638421E+03  0.99733270643E+03  0.10738014509E+04  0.15294330000E+03 0.  0.
<mgrwt>
<rscale>  0 0.64279147E+03</rscale>
<asrwt>0</asrwt>
<pdfrwt beam="1">  1        1 0.55236799E-01 0.75418538E+03</pdfrwt>
<pdfrwt beam="2">  1       -1 0.22751135E+00 0.75418538E+03</pdfrwt>
<totfact> 0.70266159E+00</totfact>
</mgrwt>
</event>
<event>
 4    1  0.1521315E-007  0.8945955E+03  0.7818608E-02  0.9534764E-01
         -1   -1    0    0    0  501 -0.00000000000E+00  0.00000000000E+00  0.67227175603E+03  0.67227175605E+03  0.50400000000E-02 0.  1.
          1   -1    0    0  501    0  0.00000000000E+00 -0.00000000000E+00 -0.13013552262E+04  0.13013552262E+04  0.50400000000E-02 0. -1.
    8880023    1    1    2    0    0 -0.13446619087E+03  0.59026249057E+03  0.21848589753E+03  0.92088938421E+03  0.65864270000E+03 0.  1.
    8880022    1    1    2    0    0  0.13446619087E+03 -0.59026249057E+03 -0.84756936770E+03  0.10527375981E+04  0.15294330000E+03 0.  0.
<mgrwt>
<rscale>  0 0.81768641E+03</rscale>
<asrwt>0</asrwt>
<pdfrwt beam="1">  1        1 0.20020850E+00 0.89459553E+03</pdfrwt>
<pdfrwt beam="2">  1       -1 0.10342642E+00 0.89459553E+03</pdfrwt>
<totfact> 0.80904140E+00</totfact>
</mgrwt>
</event>
<event>
 4    1  0.1521315E-007  0.6865914E+03  0.7818608E-02  0.1005817E+00
         -1   -1    0    0    0  501 -0.00000000000E+00  0.00000000000E+00  0.22717484325E+03  0.22717484331E+03  0.50400000000E-02 0.  1.
          1   -1    0    0  501    0  0.00000000000E+00 -0.00000000000E+00 -0.17563098603E+04  0.17563098603E+04  0.50400000000E-02 0. -1.
    8880023    1    1    2    0    0  0.19144961459E+03 -0.30734171788E+02 -0.15875939514E+04  0.17297000621E+04  0.65864270000E+03 0.  0.
    8880022    1    1    2    0    0 -0.19144961459E+03  0.30734171788E+02  0.58458934314E+02  0.25378464149E+03  0.15294330000E+03 0.  0.
<mgrwt>
<rscale>  0 0.53171680E+03</rscale>
<asrwt>0</asrwt>
<pdfrwt beam="1">  1        1 0.27020151E+00 0.68659140E+03</pdfrwt>
<pdfrwt beam="2">  1       -1 0.34949977E-01 0.68659140E+03</pdfrwt>
<totfact> 0.35360477E+01</totfact>
</mgrwt>
</event>
<event>
 4    1  0.1521315E-007  0.8114860E+03  0.7818608E-02  0.9686490E-01
         -1   -1    0    0    0  501 -0.00000000000E+00  0.00000000000E+00  0.82357533016E+03  0.82357533018E+03  0.50400000000E-02 0.  1.
          1   -1    0    0  501    0  0.00000000000E+00 -0.00000000000E+00 -0.74621855168E+03  0.74621855169E+03  0.50400000000E-02 0. -1.
    8880023    1    1    2    0    0  0.70182301424E+02 -0.46880042810E+03  0.46802054868E+03  0.93677790168E+03  0.65864270000E+03 0.  0.
    8880022    1    1    2    0    0 -0.70182301424E+02  0.46880042810E+03 -0.39066377020E+03  0.63301598019E+03  0.15294330000E+03 0.  0.
<mgrwt>
<rscale>  0 0.71826909E+03</rscale>
<asrwt>0</asrwt>
<pdfrwt beam="1">  1        1 0.11480285E+00 0.81148605E+03</pdfrwt>
<pdfrwt beam="2">  1       -1 0.12670390E+00 0.81148605E+03</pdfrwt>
<totfact> 0.13645136E+01</totfact>
</mgrwt>
</event>
<event>
 4    1  0.1521315E-007  0.7069483E+03  0.7818608E-02  0.9969512E-01
         -1   -1    0    0    0  501 -0.00000000000E+00  0.00000000000E+00  0.51402675530E+03  0.51402675533E+03  0.50400000000E-02 0.  1.
          1   -1    0    0  501    0  0.00000000000E+00 -0.00000000000E+00 -0.16243275072E+04  0.16243275073E+04  0.50400000000E-02 0. -1.
    8880023    1    1    2    0    0  0.10124884177E+03  0.23603902735E+03 -0.14934903399E+04  0.16523587238E+04  0.65864270000E+03 0. -1.
    8880022    1    1    2    0    0 -0.10124884177E+03 -0.23603902735E+03  0.38318958797E+03  0.48599553880E+03  0.15294330000E+03 0.  0.
<mgrwt>
<rscale>  0 0.57007511E+03</rscale>
<asrwt>0</asrwt>
<pdfrwt beam="1">  1        1 0.24989654E+00 0.70694834E+03</pdfrwt>
<pdfrwt beam="2">  1       -1 0.79081040E-01 0.70694834E+03</pdfrwt>
<totfact> 0.89961914E+00</totfact>
</mgrwt>
</event>
<event>
 4    1  0.1521315E-007  0.8774541E+03  0.7818608E-02  0.9563240E-01
         -1   -1    0    0    0  501 -0.00000000000E+00  0.00000000000E+00  0.61092855573E+03  0.61092855575E+03  0.50400000000E-02 0.  1.
          1   -1    0    0  501    0  0.00000000000E+00 -0.00000000000E+00 -0.10132799884E+04  0.10132799884E+04  0.50400000000E-02 0. -1.
    8880023    1    1    2    0    0 -0.54182712263E+03 -0.20624957903E+03 -0.51019239691E+03  0.10149985260E+04  0.65864270000E+03 0.  0.
    8880022    1    1    2    0    0  0.54182712263E+03  0.20624957903E+03  0.10784096421E+03  0.60921001817E+03  0.15294330000E+03 0.  0.
<mgrwt>
<rscale>  0 0.79777745E+03</rscale>
<asrwt>0</asrwt>
<pdfrwt beam="1">  1        1 0.15588923E+00 0.87745412E+03</pdfrwt>
<pdfrwt beam="2">  1       -1 0.93989009E-01 0.87745412E+03</pdfrwt>
<totfact> 0.16448363E+01</totfact>
</mgrwt>
</event>
<event>
 4    1  0.1521315E-007  0.6977473E+03  0.7818608E-02  0.1000668E+00
         -1   -1    0    0    0  501 -0.00000000000E+00  0.00000000000E+00  0.47911525046E+03  0.47911525049E+03  0.50400000000E-02 0.  1.
          1   -1    0    0  501    0  0.00000000000E+00 -0.00000000000E+00 -0.72812859776E+03  0.72812859778E+03  0.50400000000E-02 0. -1.
    8880023    1    1    2    0    0  0.16187671489E+03  0.16382027515E+03 -0.48006323985E+03  0.84694278077E+03  0.65864270000E+03 0. -1.
    8880022    1    1    2    0    0 -0.16187671489E+03 -0.16382027515E+03  0.23104989256E+03  0.36030106750E+03  0.15294330000E+03 0.  0.
<mgrwt>
<rscale>  0 0.55358412E+03</rscale>
<asrwt>0</asrwt>
<pdfrwt beam="1">  1        1 0.11201978E+00 0.69774735E+03</pdfrwt>
<pdfrwt beam="2">  1       -1 0.73710039E-01 0.69774735E+03</pdfrwt>
<totfact> 0.48862419E+01</totfact>
</mgrwt>
</event>
<event>
 4    1  0.1521315E-007  0.1145455E+04  0.7818608E-02  0.9212059E-01
          1   -1    0    0  501    0  0.00000000000E+00  0.00000000000E+00  0.32600894359E+04  0.32600894359E+04  0.50400000000E-02 0. -1.
         -1   -1    0    0    0  501 -0.00000000000E+00 -0.00000000000E+00 -0.43590248222E+03  0.43590248225E+03  0.50400000000E-02 0.  1.
    8880023    1    1    2    0    0 -0.78825220398E+03 -0.50686868761E+03  0.23932144765E+04  0.26532137382E+04  0.65864270000E+03 0.  0.
    8880022    1    1    2    0    0  0.78825220398E+03  0.50686868761E+03  0.43097247716E+03  0.10427781800E+04  0.15294330000E+03 0.  0.
<mgrwt>
<rscale>  0 0.10929827E+04</rscale>
<asrwt>0</asrwt>
<pdfrwt beam="1">  1        1 0.50155221E+00 0.11454552E+04</pdfrwt>
<pdfrwt beam="2">  1       -1 0.67061922E-01 0.11454552E+04</pdfrwt>
<totfact> 0.87198595E-01</totfact>
</mgrwt>
</event>
<event>
 4    1  0.1521315E-007  0.1113560E+04  0.7818608E-02  0.9246107E-01
          1   -1    0    0  501    0  0.00000000000E+00  0.00000000000E+00  0.14889449646E+04  0.14889449646E+04  0.50400000000E-02 0. -1.
         -1   -1    0    0    0  501 -0.00000000000E+00 -0.00000000000E+00 -0.12755183066E+04  0.12755183066E+04  0.50400000000E-02 0.  1.
    8880023    1    1    2    0    0 -0.48093729171E+03 -0.75822468135E+03 -0.82300507129E+03  0.13846851265E+04  0.65864270000E+03 0.  0.
    8880022    1    1    2    0    0  0.48093729171E+03  0.75822468135E+03  0.10364317293E+04  0.13797781447E+04  0.15294330000E+03 0.  0.
<mgrwt>
<rscale>  0 0.10589942E+04</rscale>
<asrwt>0</asrwt>
<pdfrwt beam="1">  1        1 0.22906846E+00 0.11135599E+04</pdfrwt>
<pdfrwt beam="2">  1       -1 0.19623359E+00 0.11135599E+04</pdfrwt>
<totfact> 0.10544236E+00</totfact>
</mgrwt>
</event>
<event>
 4    1  0.1521315E-007  0.7725470E+03  0.7818608E-02  0.9773645E-01
          1   -1    0    0  501    0  0.00000000000E+00  0.00000000000E+00  0.14530510310E+04  0.14530510310E+04  0.50400000000E-02 0. -1.
         -1   -1    0    0    0  501 -0.00000000000E+00 -0.00000000000E+00 -0.32696001287E+03  0.32696001291E+03  0.50400000000E-02 0.  1.
    8880023    1    1    2    0    0 -0.18244194407E+03  0.36018542878E+03  0.11043058325E+04  0.13477092357E+04  0.65864270000E+03 0.  0.
    8880022    1    1    2    0    0  0.18244194407E+03 -0.36018542878E+03  0.21785185650E+02  0.43230180822E+03  0.15294330000E+03 0.  0.
<mgrwt>
<rscale>  0 0.66796298E+03</rscale>
<asrwt>0</asrwt>
<pdfrwt beam="1">  1        1 0.22354631E+00 0.77254696E+03</pdfrwt>
<pdfrwt beam="2">  1       -1 0.50301540E-01 0.77254696E+03</pdfrwt>
<totfact> 0.28794560E+01</totfact>
</mgrwt>
</event>
<event>
 4    1  0.1521315E-007  0.1104088E+04  0.7818608E-02  0.9256519E-01
          1   -1    0    0  501    0  0.00000000000E+00  0.00000000000E+00  0.12576534622E+04  0.12576534622E+04  0.50400000000E-02 0. -1.
         -1   -1    0    0    0  501 -0.00000000000E+00 -0.00000000000E+00 -0.90906266496E+03  0.90906266497E+03  0.50400000000E-02 0.  1.
    8880023    1    1    2    0    0  0.78085167319E+03  0.41889107984E+03  0.56726958199E+03  0.12412912862E+04  0.65864270000E+03 0. -1.
    8880022    1    1    2    0    0 -0.78085167319E+03 -0.41889107984E+03 -0.21867878479E+03  0.92542484094E+03  0.15294330000E+03 0.  0.
<mgrwt>
<rscale>  0 0.10488629E+04</rscale>
<asrwt>0</asrwt>
<pdfrwt beam="1">  1        1 0.19348515E+00 0.11040875E+04</pdfrwt>
<pdfrwt beam="2">  1       -1 0.13985580E+00 0.11040875E+04</pdfrwt>
<totfact> 0.40437476E+00</totfact>
</mgrwt>
</event>
<event>
 4    1  0.1521315E-007  0.6650531E+03  0.7818608E-02  0.1019489E+00
         -1   -1    0    0    0  501 -0.00000000000E+00  0.00000000000E+00  0.18678766001E+03  0.18678766008E+03  0.50400000000E-02 0.  1.
          1   -1    0    0  501    0  0.00000000000E+00 -0.00000000000E+00 -0.97741996313E+03  0.97741996314E+03  0.50400000000E-02 0. -1.
    8880023    1    1    2    0    0  0.52117868689E+02 -0.75954918372E+02 -0.69391671784E+03  0.96115349421E+03  0.65864270000E+03 0. -1.
    8880022    1    1    2    0    0 -0.52117868689E+02  0.75954918372E+02 -0.96715585269E+02  0.20305412902E+03  0.15294330000E+03 0.  0.
<mgrwt>
<rscale>  0 0.47871502E+03</rscale>
<asrwt>0</asrwt>
<pdfrwt beam="1">  1        1 0.15037230E+00 0.66505310E+03</pdfrwt>
<pdfrwt beam="2">  1       -1 0.28736564E-01 0.66505310E+03</pdfrwt>
<totfact> 0.17699797E+02</totfact>
</mgrwt>
</event>
<event>
 4    1  0.1521315E-007  0.8094639E+03  0.7818608E-02  0.9690695E-01
          1   -1    0    0  501    0  0.00000000000E+00  0.00000000000E+00  0.32269520062E+04  0.32269520062E+04  0.50400000000E-02 0. -1.
         -1   -1    0    0    0  501 -0.00000000000E+00 -0.00000000000E+00 -0.30964151468E+03  0.30964151472E+03  0.50400000000E-02 0.  1.
    8880023    1    1    2    0    0  0.46206609123E+03 -0.88974971118E+02  0.29319024490E+04  0.30415923124E+04  0.65864270000E+03 0. -1.
    8880022    1    1    2    0    0 -0.46206609123E+03  0.88974971118E+02 -0.14591957524E+02  0.49500120847E+03  0.15294330000E+03 0.  0.
<mgrwt>
<rscale>  0 0.71573538E+03</rscale>
<asrwt>0</asrwt>
<pdfrwt beam="1">  1        1 0.49645418E+00 0.80946391E+03</pdfrwt>
<pdfrwt beam="2">  1       -1 0.47637154E-01 0.80946391E+03</pdfrwt>
<totfact> 0.19050122E+00</totfact>
</mgrwt>
</event>
<event>
 4    1  0.1521315E-007  0.6992508E+03  0.7818608E-02  0.1000032E+00
          1   -1    0    0  501    0  0.00000000000E+00  0.00000000000E+00  0.85091533338E+03  0.85091533339E+03  0.50400000000E-02 0. -1.
         -1   -1    0    0    0  501 -0.00000000000E+00 -0.00000000000E+00 -0.48254096015E+03  0.48254096018E+03  0.50400000000E-02 0.  1.
    8880023    1    1    2    0    0  0.81908895208E+02 -0.22007350906E+03  0.63653688991E+03  0.94558491686E+03  0.65864270000E+03 0. -1.
    8880022    1    1    2    0    0 -0.81908895208E+02  0.22007350906E+03 -0.26816251669E+03  0.38787137672E+03  0.15294330000E+03 0.  0.
<mgrwt>
<rscale>  0 0.55636049E+03</rscale>
<asrwt>0</asrwt>
<pdfrwt beam="1">  1        1 0.13091005E+00 0.69925076E+03</pdfrwt>
<pdfrwt beam="2">  1       -1 0.74237072E-01 0.69925076E+03</pdfrwt>
<totfact> 0.37620180E+01</totfact>
</mgrwt>
</event>
<event>
 4    1  0.1521315E-007  0.6982185E+03  0.7818608E-02  0.1000467E+00
          1   -1    0    0  501    0  0.00000000000E+00  0.00000000000E+00  0.10273264825E+04  0.10273264825E+04  0.50400000000E-02 0. -1.
         -1   -1    0    0    0  501 -0.00000000000E+00 -0.00000000000E+00 -0.10659192880E+04  0.10659192880E+04  0.50400000000E-02 0.  1.
    8880023    1    1    2    0    0  0.23008669463E+03  0.27550822916E+02  0.88589103328E+03  0.11279681130E+04  0.65864270000E+03 0. -1.
    8880022    1    1    2    0    0 -0.23008669463E+03 -0.27550822916E+02 -0.92448383878E+03  0.96527765750E+03  0.15294330000E+03 0.  0.
<mgrwt>
<rscale>  0 0.55445807E+03</rscale>
<asrwt>0</asrwt>
<pdfrwt beam="1">  1        1 0.15805023E+00 0.69821855E+03</pdfrwt>
<pdfrwt beam="2">  1       -1 0.16398758E+00 0.69821855E+03</pdfrwt>
<totfact> 0.41144847E+00</totfact>
</mgrwt>
</event>
<event>
 4    1  0.1521315E-007  0.8239664E+03  0.7818608E-02  0.9661188E-01
         -1   -1    0    0    0  501 -0.00000000000E+00  0.00000000000E+00  0.52056487969E+03  0.52056487972E+03  0.50400000000E-02 0.  1.
          1   -1    0    0  501    0  0.00000000000E+00 -0.00000000000E+00 -0.14204517090E+04  0.14204517091E+04  0.50400000000E-02 0. -1.
    8880023    1    1    2    0    0  0.38549947737E+03  0.31064552774E+03 -0.11095493613E+04  0.13820349064E+04  0.65864270000E+03 0. -1.
    8880022    1    1    2    0    0 -0.38549947737E+03 -0.31064552774E+03  0.20966253195E+03  0.55898168241E+03  0.15294330000E+03 0.  0.
<mgrwt>
<rscale>  0 0.73375422E+03</rscale>
<asrwt>0</asrwt>
<pdfrwt beam="1">  1        1 0.21853103E+00 0.82396644E+03</pdfrwt>
<pdfrwt beam="2">  1       -1 0.80086905E-01 0.82396644E+03</pdfrwt>
<totfact> 0.11869434E+01</totfact>
</mgrwt>
</event>
<event>
 4    1  0.1521315E-007  0.1165414E+04  0.7818608E-02  0.9191498E-01
         -1   -1    0    0    0  501 -0.00000000000E+00  0.00000000000E+00  0.84419362556E+03  0.84419362558E+03  0.50400000000E-02 0.  1.
          1   -1    0    0  501    0  0.00000000000E+00 -0.00000000000E+00 -0.15447240977E+04  0.15447240977E+04  0.50400000000E-02 0. -1.
    8880023    1    1    2    0    0 -0.13867960954E+03  0.95139269655E+03  0.39440408829E+02  0.11660814077E+04  0.65864270000E+03 0.  0.
    8880022    1    1    2    0    0  0.13867960954E+03 -0.95139269655E+03 -0.73997088098E+03  0.12228363156E+04  0.15294330000E+03 0.  0.
<mgrwt>
<rscale>  0 0.11141616E+04</rscale>
<asrwt>0</asrwt>
<pdfrwt beam="1">  1        1 0.23764986E+00 0.11654142E+04</pdfrwt>
<pdfrwt beam="2">  1       -1 0.12987594E+00 0.11654142E+04</pdfrwt>
<totfact> 0.30532447E+00</totfact>
</mgrwt>
</event>
<event>
 4    1  0.1521315E-007  0.6749575E+03  0.7818608E-02  0.1012333E+00
         -1   -1    0    0    0  501 -0.00000000000E+00  0.00000000000E+00  0.63647715671E+03  0.63647715673E+03  0.50400000000E-02 0.  1.
          1   -1    0    0  501    0  0.00000000000E+00 -0.00000000000E+00 -0.39769644646E+03  0.39769644649E+03  0.50400000000E-02 0. -1.
    8880023    1    1    2    0    0  0.12392525951E+03  0.79999722114E+02 -0.48675190085E+02  0.67671035597E+03  0.65864270000E+03 0.  0.
    8880022    1    1    2    0    0 -0.12392525951E+03 -0.79999722114E+02  0.28745590034E+03  0.35746324725E+03  0.15294330000E+03 0.  0.
<mgrwt>
<rscale>  0 0.50557831E+03</rscale>
<asrwt>0</asrwt>
<pdfrwt beam="1">  1        1 0.61184069E-01 0.67495750E+03</pdfrwt>
<pdfrwt beam="2">  1       -1 0.97919563E-01 0.67495750E+03</pdfrwt>
<totfact> 0.62020418E+01</totfact>
</mgrwt>
</event>
<event>
 4    1  0.1521315E-007  0.1003640E+04  0.7818608E-02  0.9376810E-01
         -1   -1    0    0    0  501 -0.00000000000E+00  0.00000000000E+00  0.77037161525E+03  0.77037161527E+03  0.50400000000E-02 0.  1.
          1   -1    0    0  501    0  0.00000000000E+00 -0.00000000000E+00 -0.12574887095E+04  0.12574887095E+04  0.50400000000E-02 0. -1.
    8880023    1    1    2    0    0 -0.33370752981E+03  0.67979651443E+03  0.16467969952E+03  0.10170612696E+04  0.65864270000E+03 0.  0.
    8880022    1    1    2    0    0  0.33370752981E+03 -0.67979651443E+03 -0.65179679375E+03  0.10107990551E+04  0.15294330000E+03 0.  0.
<mgrwt>
<rscale>  0 0.94008931E+03</rscale>
<asrwt>0</asrwt>
<pdfrwt beam="1">  1        1 0.19345980E+00 0.10036405E+04</pdfrwt>
<pdfrwt beam="2">  1       -1 0.11851871E+00 0.10036405E+04</pdfrwt>
<totfact> 0.62137934E+00</totfact>
</mgrwt>
</event>
<event>
 4    1  0.1521315E-007  0.8756427E+03  0.7818608E-02  0.9566322E-01
          1   -1    0    0  501    0  0.00000000000E+00  0.00000000000E+00  0.73860670930E+03  0.73860670931E+03  0.50400000000E-02 0. -1.
         -1   -1    0    0    0  501 -0.00000000000E+00 -0.00000000000E+00 -0.12937245294E+04  0.12937245294E+04  0.50400000000E-02 0.  1.
    8880023    1    1    2    0    0  0.31071651262E+01 -0.57700109150E+03  0.35421498913E+03  0.94457311991E+03  0.65864270000E+03 0. -1.
    8880022    1    1    2    0    0 -0.31071651262E+01  0.57700109150E+03 -0.90933280921E+03  0.10877581188E+04  0.15294330000E+03 0.  0.
<mgrwt>
<rscale>  0 0.79565900E+03</rscale>
<asrwt>0</asrwt>
<pdfrwt beam="1">  1        1 0.11363180E+00 0.87564269E+03</pdfrwt>
<pdfrwt beam="2">  1       -1 0.19903454E+00 0.87564269E+03</pdfrwt>
<totfact> 0.39081548E+00</totfact>
</mgrwt>
</event>
<event>
 4    1  0.1521315E-007  0.7430520E+03  0.7818608E-02  0.9851144E-01
         -1   -1    0    0    0  501 -0.00000000000E+00  0.00000000000E+00  0.27108711213E+03  0.27108711218E+03  0.50400000000E-02 0.  1.
          1   -1    0    0  501    0  0.00000000000E+00 -0.00000000000E+00 -0.16794900217E+04  0.16794900217E+04  0.50400000000E-02 0. -1.
    8880023    1    1    2    0    0 -0.29677503000E+02 -0.34268839781E+03 -0.13870369806E+04  0.15735303886E+04  0.65864270000E+03 0.  1.
    8880022    1    1    2    0    0  0.29677503000E+02  0.34268839781E+03 -0.21365928995E+02  0.37704674526E+03  0.15294330000E+03 0.  0.
<mgrwt>
<rscale>  0 0.62688606E+03</rscale>
<asrwt>0</asrwt>
<pdfrwt beam="1">  1        1 0.25838307E+00 0.74305202E+03</pdfrwt>
<pdfrwt beam="2">  1       -1 0.41705711E-01 0.74305202E+03</pdfrwt>
<totfact> 0.28737632E+01</totfact>
</mgrwt>
</event>
<event>
 4    1  0.1521315E-007  0.7172631E+03  0.7818608E-02  0.9931958E-01
         -1   -1    0    0    0  501 -0.00000000000E+00  0.00000000000E+00  0.54816473473E+03  0.54816473475E+03  0.50400000000E-02 0.  1.
          1   -1    0    0  501    0  0.00000000000E+00 -0.00000000000E+00 -0.83211473139E+03  0.83211473141E+03  0.50400000000E-02 0. -1.
    8880023    1    1    2    0    0 -0.26924881680E+03  0.90339337156E+02 -0.59518281544E+03  0.93204555213E+03  0.65864270000E+03 0.  0.
    8880022    1    1    2    0    0  0.26924881680E+03 -0.90339337156E+02  0.31123281878E+03  0.44823391403E+03  0.15294330000E+03 0.  0.
<mgrwt>
<rscale>  0 0.58737162E+03</rscale>
<asrwt>0</asrwt>
<pdfrwt beam="1">  1        1 0.12801765E+00 0.71726308E+03</pdfrwt>
<pdfrwt beam="2">  1       -1 0.84333036E-01 0.71726308E+03</pdfrwt>
<totfact> 0.29737177E+01</totfact>
</mgrwt>
</event>
<event>
 4    1  0.1521315E-007  0.7217782E+03  0.7818608E-02  0.9916615E-01
          1   -1    0    0  501    0  0.00000000000E+00  0.00000000000E+00  0.15299733311E+04  0.15299733311E+04  0.50400000000E-02 0. -1.
         -1   -1    0    0    0  501 -0.00000000000E+00 -0.00000000000E+00 -0.74455075191E+03  0.74455075193E+03  0.50400000000E-02 0.  1.
    8880023    1    1    2    0    0  0.60288023987E+02 -0.28899634070E+03  0.14003773054E+04  0.15754429011E+04  0.65864270000E+03 0. -1.
    8880022    1    1    2    0    0 -0.60288023987E+02  0.28899634070E+03 -0.61495472618E+03  0.69908118201E+03  0.15294330000E+03 0.  0.
<mgrwt>
<rscale>  0 0.59462791E+03</rscale>
<asrwt>0</asrwt>
<pdfrwt beam="1">  1        1 0.23538051E+00 0.72177818E+03</pdfrwt>
<pdfrwt beam="2">  1       -1 0.11454627E+00 0.72177818E+03</pdfrwt>
<totfact> 0.45286029E+00</totfact>
</mgrwt>
</event>
<event>
 4    1  0.1521315E-007  0.7107715E+03  0.7818608E-02  0.9955147E-01
          1   -1    0    0  501    0  0.00000000000E+00  0.00000000000E+00  0.12574929482E+04  0.12574929482E+04  0.50400000000E-02 0. -1.
         -1   -1    0    0    0  501 -0.00000000000E+00 -0.00000000000E+00 -0.23426904172E+03  0.23426904178E+03  0.50400000000E-02 0.  1.
    8880023    1    1    2    0    0 -0.20031118832E+03  0.17680872781E+03  0.45042921630E+03  0.84147643078E+03  0.65864270000E+03 0.  1.
    8880022    1    1    2    0    0  0.20031118832E+03 -0.17680872781E+03  0.57279469013E+03  0.65028555916E+03  0.15294330000E+03 0.  0.
<mgrwt>
<rscale>  0 0.57661466E+03</rscale>
<asrwt>0</asrwt>
<pdfrwt beam="1">  1        1 0.19346045E+00 0.71077149E+03</pdfrwt>
<pdfrwt beam="2">  1       -1 0.36041392E-01 0.71077149E+03</pdfrwt>
<totfact> 0.73360464E+01</totfact>
</mgrwt>
</event>
<event>
 4    1  0.1521315E-007  0.7759042E+03  0.7818608E-02  0.9765548E-01
         -1   -1    0    0    0  501 -0.00000000000E+00  0.00000000000E+00  0.12170262436E+04  0.12170262436E+04  0.50400000000E-02 0.  1.
          1   -1    0    0  501    0  0.00000000000E+00 -0.00000000000E+00 -0.41753512028E+03  0.41753512031E+03  0.50400000000E-02 0. -1.
    8880023    1    1    2    0    0 -0.35679682617E+03 -0.20226991819E+03  0.63836171419E+02  0.77852575938E+03  0.65864270000E+03 0.  0.
    8880022    1    1    2    0    0  0.35679682617E+03  0.20226991819E+03  0.73565495187E+03  0.85603560452E+03  0.15294330000E+03 0.  0.
<mgrwt>
<rscale>  0 0.67244689E+03</rscale>
<asrwt>0</asrwt>
<pdfrwt beam="1">  1        1 0.64236172E-01 0.77590418E+03</pdfrwt>
<pdfrwt beam="2">  1       -1 0.18723481E+00 0.77590418E+03</pdfrwt>
<totfact> 0.10754787E+01</totfact>
</mgrwt>
</event>
<event>
 4    1  0.1521315E-007  0.1145330E+04  0.7818608E-02  0.9212189E-01
         -1   -1    0    0    0  501 -0.00000000000E+00  0.00000000000E+00  0.16166710216E+04  0.16166710216E+04  0.50400000000E-02 0.  1.
          1   -1    0    0  501    0  0.00000000000E+00 -0.00000000000E+00 -0.10229350110E+04  0.10229350110E+04  0.50400000000E-02 0. -1.
    8880023    1    1    2    0    0  0.93204552939E+03 -0.96239693199E+02 -0.44828547272E+03  0.12299353718E+04  0.65864270000E+03 0.  0.
    8880022    1    1    2    0    0 -0.93204552939E+03  0.96239693199E+02  0.10420214833E+04  0.14096706609E+04  0.15294330000E+03 0.  0.
<mgrwt>
<rscale>  0 0.10928498E+04</rscale>
<asrwt>0</asrwt>
<pdfrwt beam="1">  1        1 0.15737462E+00 0.11453302E+04</pdfrwt>
<pdfrwt beam="2">  1       -1 0.24871862E+00 0.11453302E+04</pdfrwt>
<totfact> 0.10204049E+00</totfact>
</mgrwt>
</event>
<event>
 4    1  0.1521315E-007  0.7909605E+03  0.7818608E-02  0.9730693E-01
         -1   -1    0    0    0  501 -0.00000000000E+00  0.00000000000E+00  0.36158382425E+03  0.36158382429E+03  0.50400000000E-02 0.  1.
          1   -1    0    0  501    0  0.00000000000E+00 -0.00000000000E+00 -0.17277598822E+04  0.17277598822E+04  0.50400000000E-02 0. -1.
    8880023    1    1    2    0    0 -0.15131494229E+03 -0.41098907864E+03 -0.14168604609E+04  0.16226866631E+04  0.65864270000E+03 0.  0.
    8880022    1    1    2    0    0  0.15131494229E+03  0.41098907864E+03  0.50684402913E+02  0.46665704348E+03  0.15294330000E+03 0.  0.
<mgrwt>
<rscale>  0 0.69218364E+03</rscale>
<asrwt>0</asrwt>
<pdfrwt beam="1">  1        1 0.26580921E+00 0.79096045E+03</pdfrwt>
<pdfrwt beam="2">  1       -1 0.55628282E-01 0.79096045E+03</pdfrwt>
<totfact> 0.15406757E+01</totfact>
</mgrwt>
</event>
<event>
 4    1  0.1521315E-007  0.6833219E+03  0.7818608E-02  0.1007504E+00
         -1   -1    0    0    0  501 -0.00000000000E+00  0.00000000000E+00  0.48880137900E+03  0.48880137903E+03  0.50400000000E-02 0.  1.
          1   -1    0    0  501    0  0.00000000000E+00 -0.00000000000E+00 -0.61083109969E+03  0.61083109971E+03  0.50400000000E-02 0. -1.
    8880023    1    1    2    0    0 -0.71138206711E+02  0.16750501282E+03 -0.35219462616E+03  0.76874562421E+03  0.65864270000E+03 0. -1.
    8880022    1    1    2    0    0  0.71138206711E+02 -0.16750501282E+03  0.23016490548E+03  0.33088685453E+03  0.15294330000E+03 0.  1.
<mgrwt>
<rscale>  0 0.52478918E+03</rscale>
<asrwt>0</asrwt>
<pdfrwt beam="1">  1        1 0.93974016E-01 0.68332187E+03</pdfrwt>
<pdfrwt beam="2">  1       -1 0.75200212E-01 0.68332187E+03</pdfrwt>
<totfact> 0.60920009E+01</totfact>
</mgrwt>
</event>
<event>
 4    1  0.1521315E-007  0.1440863E+04  0.7818608E-02  0.8952564E-01
         -1   -1    0    0    0  501 -0.00000000000E+00  0.00000000000E+00  0.14562980777E+04  0.14562980777E+04  0.50400000000E-02 0.  1.
          1   -1    0    0  501    0  0.00000000000E+00 -0.00000000000E+00 -0.13093750313E+04  0.13093750313E+04  0.50400000000E-02 0. -1.
    8880023    1    1    2    0    0  0.12510139318E+04 -0.27792124610E+03 -0.12655071359E+03  0.14464098195E+04  0.65864270000E+03 0.  0.
    8880022    1    1    2    0    0 -0.12510139318E+04  0.27792124610E+03  0.27347375998E+03  0.13192632895E+04  0.15294330000E+03 0.  0.
<mgrwt>
<rscale>  0 0.14017339E+04</rscale>
<asrwt>0</asrwt>
<pdfrwt beam="1">  1        1 0.20144231E+00 0.14408630E+04</pdfrwt>
<pdfrwt beam="2">  1       -1 0.22404586E+00 0.14408630E+04</pdfrwt>
<totfact> 0.87863098E-01</totfact>
</mgrwt>
</event>
<event>
 4    1  0.1521315E-007  0.6984924E+03  0.7818608E-02  0.1000351E+00
         -1   -1    0    0    0  501 -0.00000000000E+00  0.00000000000E+00  0.76813372594E+03  0.76813372596E+03  0.50400000000E-02 0.  1.
          1   -1    0    0  501    0  0.00000000000E+00 -0.00000000000E+00 -0.35659663162E+03  0.35659663165E+03  0.50400000000E-02 0. -1.
    8880023    1    1    2    0    0 -0.15261264570E+03 -0.17547315676E+03  0.97775036755E+02  0.70530249712E+03  0.65864270000E+03 0. -1.
    8880022    1    1    2    0    0  0.15261264570E+03  0.17547315676E+03  0.31376205757E+03  0.41942786049E+03  0.15294330000E+03 0.  0.
<mgrwt>
<rscale>  0 0.55496442E+03</rscale>
<asrwt>0</asrwt>
<pdfrwt beam="1">  1        1 0.54861020E-01 0.69849242E+03</pdfrwt>
<pdfrwt beam="2">  1       -1 0.11817442E+00 0.69849242E+03</pdfrwt>
<totfact> 0.46051160E+01</totfact>
</mgrwt>
</event>
<event>
 4    1  0.1521315E-007  0.7332129E+03  0.7818608E-02  0.9880178E-01
         -1   -1    0    0    0  501 -0.00000000000E+00  0.00000000000E+00  0.48824855174E+03  0.48824855177E+03  0.50400000000E-02 0.  1.
          1   -1    0    0  501    0  0.00000000000E+00 -0.00000000000E+00 -0.65190889929E+03  0.65190889931E+03  0.50400000000E-02 0. -1.
    8880023    1    1    2    0    0  0.88965959381E+02 -0.30963840687E+03 -0.24740823797E+03  0.77382939167E+03  0.65864270000E+03 0.  0.
    8880022    1    1    2    0    0 -0.88965959381E+02  0.30963840687E+03  0.83747890428E+02  0.36632805940E+03  0.15294330000E+03 0.  0.
<mgrwt>
<rscale>  0 0.61231654E+03</rscale>
<asrwt>0</asrwt>
<pdfrwt beam="1">  1        1 0.10029368E+00 0.73321286E+03</pdfrwt>
<pdfrwt beam="2">  1       -1 0.75115161E-01 0.73321286E+03</pdfrwt>
<totfact> 0.55288962E+01</totfact>
</mgrwt>
</event>
<event>
 4    1  0.1521315E-007  0.6728597E+03  0.7818608E-02  0.1013691E+00
         -1   -1    0    0    0  501 -0.00000000000E+00  0.00000000000E+00  0.29697569318E+03  0.29697569323E+03  0.50400000000E-02 0.  1.
          1   -1    0    0  501    0  0.00000000000E+00 -0.00000000000E+00 -0.23905674861E+04  0.23905674861E+04  0.50400000000E-02 0. -1.
    8880023    1    1    2    0    0  0.11490589854E+03  0.75674246811E+02 -0.22998327787E+04  0.23962410091E+04  0.65864270000E+03 0. -1.
    8880022    1    1    2    0    0 -0.11490589854E+03 -0.75674246811E+02  0.20624098582E+03  0.29130217026E+03  0.15294330000E+03 0.  0.
<mgrwt>
<rscale>  0 0.50033819E+03</rscale>
<asrwt>0</asrwt>
<pdfrwt beam="1">  1        1 0.36777960E+00 0.67285969E+03</pdfrwt>
<pdfrwt beam="2">  1       -1 0.45688570E-01 0.67285969E+03</pdfrwt>
<totfact> 0.81984828E+00</totfact>
</mgrwt>
</event>
<event>
 4    1  0.1521315E-007  0.8483570E+03  0.7818608E-02  0.9614619E-01
         -1   -1    0    0    0  501 -0.00000000000E+00  0.00000000000E+00  0.29775755269E+03  0.29775755273E+03  0.50400000000E-02 0.  1.
          1   -1    0    0  501    0  0.00000000000E+00 -0.00000000000E+00 -0.18446795783E+04  0.18446795783E+04  0.50400000000E-02 0. -1.
    8880023    1    1    2    0    0 -0.16479735036E+03  0.50866606892E+03 -0.12536190341E+04  0.15136942311E+04  0.65864270000E+03 0.  0.
    8880022    1    1    2    0    0  0.16479735036E+03 -0.50866606892E+03 -0.29330299148E+03  0.62874289991E+03  0.15294330000E+03 0.  0.
<mgrwt>
<rscale>  0 0.76336085E+03</rscale>
<asrwt>0</asrwt>
<pdfrwt beam="1">  1        1 0.28379685E+00 0.84835697E+03</pdfrwt>
<pdfrwt beam="2">  1       -1 0.45808855E-01 0.84835697E+03</pdfrwt>
<totfact> 0.18463393E+01</totfact>
</mgrwt>
</event>
<event>
 4    1  0.1521315E-007  0.6664844E+03  0.7818608E-02  0.1018319E+00
          1   -1    0    0  501    0  0.00000000000E+00  0.00000000000E+00  0.26980260864E+03  0.26980260868E+03  0.50400000000E-02 0. -1.
         -1   -1    0    0    0  501 -0.00000000000E+00 -0.00000000000E+00 -0.15192618187E+04  0.15192618187E+04  0.50400000000E-02 0.  1.
    8880023    1    1    2    0    0 -0.56953311644E+02  0.84543639571E+02 -0.16161163707E+03  0.68579868343E+03  0.65864270000E+03 0. -1.
    8880022    1    1    2    0    0  0.56953311644E+02 -0.84543639571E+02 -0.10878475730E+04  0.11032657440E+04  0.15294330000E+03 0.  0.
<mgrwt>
<rscale>  0 0.48298064E+03</rscale>
<asrwt>0</asrwt>
<pdfrwt beam="1">  1        1 0.41508095E-01 0.66648444E+03</pdfrwt>
<pdfrwt beam="2">  1       -1 0.23373258E+00 0.66648444E+03</pdfrwt>
<totfact> 0.93827383E+00</totfact>
</mgrwt>
</event>
<event>
 4    1  0.1521315E-007  0.9996489E+03  0.7818608E-02  0.9382017E-01
          1   -1    0    0  501    0  0.00000000000E+00  0.00000000000E+00  0.11245680522E+04  0.11245680523E+04  0.50400000000E-02 0. -1.
         -1   -1    0    0    0  501 -0.00000000000E+00 -0.00000000000E+00 -0.11450362877E+04  0.11450362877E+04  0.50400000000E-02 0.  1.
    8880023    1    1    2    0    0 -0.38824568682E+03 -0.64401315608E+03  0.69732828909E+03  0.12188374000E+04  0.65864270000E+03 0. -1.
    8880022    1    1    2    0    0  0.38824568682E+03  0.64401315608E+03 -0.71779652459E+03  0.10507669400E+04  0.15294330000E+03 0.  0.
<mgrwt>
<rscale>  0 0.93570489E+03</rscale>
<asrwt>0</asrwt>
<pdfrwt beam="1">  1        1 0.17301047E+00 0.99964887E+03</pdfrwt>
<pdfrwt beam="2">  1       -1 0.17615943E+00 0.99964887E+03</pdfrwt>
<totfact> 0.27056351E+00</totfact>
</mgrwt>
</event>
<event>
 4    1  0.1521315E-007  0.6898559E+03  0.7818608E-02  0.1004221E+00
          1   -1    0    0  501    0  0.00000000000E+00  0.00000000000E+00  0.42763954457E+03  0.42763954460E+03  0.50400000000E-02 0. -1.
         -1   -1    0    0    0  501 -0.00000000000E+00 -0.00000000000E+00 -0.85934396551E+03  0.85934396552E+03  0.50400000000E-02 0.  1.
    8880023    1    1    2    0    0  0.14499780538E+03 -0.14514347161E+03  0.99846049881E+02  0.69704406665E+03  0.65864270000E+03 0. -1.
    8880022    1    1    2    0    0 -0.14499780538E+03  0.14514347161E+03 -0.53155047082E+03  0.58993944347E+03  0.15294330000E+03 0.  0.
<mgrwt>
<rscale>  0 0.53837462E+03</rscale>
<asrwt>0</asrwt>
<pdfrwt beam="1">  1        1 0.65790699E-01 0.68985592E+03</pdfrwt>
<pdfrwt beam="2">  1       -1 0.13220676E+00 0.68985592E+03</pdfrwt>
<totfact> 0.27464357E+01</totfact>
</mgrwt>
</event>
<event>
 4    1  0.1521315E-007  0.8605865E+03  0.7818608E-02  0.9592521E-01
          1   -1    0    0  501    0  0.00000000000E+00  0.00000000000E+00  0.22316371748E+04  0.22316371748E+04  0.50400000000E-02 0. -1.
         -1   -1    0    0    0  501 -0.00000000000E+00 -0.00000000000E+00 -0.57119284251E+03  0.57119284253E+03  0.50400000000E-02 0.  1.
    8880023    1    1    2    0    0  0.79572272428E+02  0.54814892381E+03  0.19702602313E+04  0.21500080405E+04  0.65864270000E+03 0.  0.
    8880022    1    1    2    0    0 -0.79572272428E+02 -0.54814892381E+03 -0.30981589892E+03  0.65282197684E+03  0.15294330000E+03 0.  0.
<mgrwt>
<rscale>  0 0.77793177E+03</rscale>
<asrwt>0</asrwt>
<pdfrwt beam="1">  1        1 0.34332880E+00 0.86058654E+03</pdfrwt>
<pdfrwt beam="2">  1       -1 0.87875821E-01 0.86058654E+03</pdfrwt>
<totfact> 0.27350295E+00</totfact>
</mgrwt>
</event>
<event>
 4    1  0.1521315E-007  0.7117934E+03  0.7818608E-02  0.9951401E-01
          1   -1    0    0  501    0  0.00000000000E+00  0.00000000000E+00  0.22274285470E+04  0.22274285470E+04  0.50400000000E-02 0. -1.
         -1   -1    0    0    0  501 -0.00000000000E+00 -0.00000000000E+00 -0.41177259767E+03  0.41177259770E+03  0.50400000000E-02 0.  1.
    8880023    1    1    2    0    0  0.26988727051E+03  0.73494653768E+00  0.21006388530E+04  0.22179570500E+04  0.65864270000E+03 0. -1.
    8880022    1    1    2    0    0 -0.26988727051E+03 -0.73494653768E+00 -0.28498290363E+03  0.42124409468E+03  0.15294330000E+03 0.  0.
<mgrwt>
<rscale>  0 0.57833575E+03</rscale>
<asrwt>0</asrwt>
<pdfrwt beam="1">  1        1 0.34268131E+00 0.71179343E+03</pdfrwt>
<pdfrwt beam="2">  1       -1 0.63349631E-01 0.71179343E+03</pdfrwt>
<totfact> 0.55921989E+00</totfact>
</mgrwt>
</event>
<event>
 4    1  0.1521315E-007  0.7718023E+03  0.7818608E-02  0.9775458E-01
         -1   -1    0    0    0  501 -0.00000000000E+00  0.00000000000E+00  0.44548261481E+03  0.44548261484E+03  0.50400000000E-02 0.  1.
          1   -1    0    0  501    0  0.00000000000E+00 -0.00000000000E+00 -0.14988019803E+04  0.14988019803E+04  0.50400000000E-02 0. -1.
    8880023    1    1    2    0    0  0.29962286881E+03  0.26850454954E+03 -0.12515645110E+04  0.14704055522E+04  0.65864270000E+03 0. -1.
    8880022    1    1    2    0    0 -0.29962286881E+03 -0.26850454954E+03  0.19824514545E+03  0.47387904295E+03  0.15294330000E+03 0.  0.
<mgrwt>
<rscale>  0 0.66696388E+03</rscale>
<asrwt>0</asrwt>
<pdfrwt beam="1">  1        1 0.23058492E+00 0.77180228E+03</pdfrwt>
<pdfrwt beam="2">  1       -1 0.68535788E-01 0.77180228E+03</pdfrwt>
<totfact> 0.14592727E+01</totfact>
</mgrwt>
</event>
<event>
 4    1  0.1521315E-007  0.1409340E+04  0.7818608E-02  0.8976459E-01
         -1   -1    0    0    0  501 -0.00000000000E+00  0.00000000000E+00  0.77219368668E+03  0.77219368670E+03  0.50400000000E-02 0.  1.
          1   -1    0    0  501    0  0.00000000000E+00 -0.00000000000E+00 -0.29464240260E+04  0.29464240260E+04  0.50400000000E-02 0. -1.
    8880023    1    1    2    0    0  0.26725046856E+03  0.12169661733E+04 -0.26556402641E+03  0.14341422309E+04  0.65864270000E+03 0.  0.
    8880022    1    1    2    0    0 -0.26725046856E+03 -0.12169661733E+04 -0.19086663129E+04  0.22844754818E+04  0.15294330000E+03 0.  0.
<mgrwt>
<rscale>  0 0.13691475E+04</rscale>
<asrwt>0</asrwt>
<pdfrwt beam="1">  1        1 0.45329600E+00 0.14093402E+04</pdfrwt>
<pdfrwt beam="2">  1       -1 0.11879903E+00 0.14093402E+04</pdfrwt>
<totfact> 0.40092098E-01</totfact>
</mgrwt>
</event>
<event>
 4    1  0.1521315E-007  0.8598851E+03  0.7818608E-02  0.9593768E-01
         -1   -1    0    0    0  501 -0.00000000000E+00  0.00000000000E+00  0.60114506392E+03  0.60114506394E+03  0.50400000000E-02 0.  1.
          1   -1    0    0  501    0  0.00000000000E+00 -0.00000000000E+00 -0.13463571954E+04  0.13463571954E+04  0.50400000000E-02 0. -1.
    8880023    1    1    2    0    0  0.53920810769E+03 -0.12184755243E+03 -0.10008782535E+04  0.13195301035E+04  0.65864270000E+03 0.  0.
    8880022    1    1    2    0    0 -0.53920810769E+03  0.12184755243E+03  0.25566612210E+03  0.62797215578E+03  0.15294330000E+03 0.  0.
<mgrwt>
<rscale>  0 0.77710043E+03</rscale>
<asrwt>0</asrwt>
<pdfrwt beam="1">  1        1 0.20713188E+00 0.85988512E+03</pdfrwt>
<pdfrwt beam="2">  1       -1 0.92483856E-01 0.85988512E+03</pdfrwt>
<totfact> 0.97331842E+00</totfact>
</mgrwt>
</event>
<event>
 4    1  0.1521315E-007  0.7028726E+03  0.7818608E-02  0.9985487E-01
          1   -1    0    0  501    0  0.00000000000E+00  0.00000000000E+00  0.91202838747E+03  0.91202838749E+03  0.50400000000E-02 0. -1.
         -1   -1    0    0    0  501 -0.00000000000E+00 -0.00000000000E+00 -0.61832076594E+03  0.61832076596E+03  0.50400000000E-02 0.  1.
    8880023    1    1    2    0    0 -0.21485959176E+03  0.11855377162E+03  0.72584946102E+03  0.10103896710E+04  0.65864270000E+03 0. -1.
    8880022    1    1    2    0    0  0.21485959176E+03 -0.11855377162E+03 -0.43214183949E+03  0.51995948245E+03  0.15294330000E+03 0.  0.
<mgrwt>
<rscale>  0 0.56291207E+03</rscale>
<asrwt>0</asrwt>
<pdfrwt beam="1">  1        1 0.14031206E+00 0.70287257E+03</pdfrwt>
<pdfrwt beam="2">  1       -1 0.95126273E-01 0.70287257E+03</pdfrwt>
<totfact> 0.19645019E+01</totfact>
</mgrwt>
</event>
<event>
 4    1  0.1521315E-007  0.8238354E+03  0.7818608E-02  0.9661448E-01
          1   -1    0    0  501    0  0.00000000000E+00  0.00000000000E+00  0.10754449442E+04  0.10754449443E+04  0.50400000000E-02 0. -1.
         -1   -1    0    0    0  501 -0.00000000000E+00 -0.00000000000E+00 -0.65733442471E+03  0.65733442473E+03  0.50400000000E-02 0.  1.
    8880023    1    1    2    0    0 -0.10620741904E+03  0.48333692952E+03  0.75289153219E+03  0.11160423239E+04  0.65864270000E+03 0.  0.
    8880022    1    1    2    0    0  0.10620741904E+03 -0.48333692952E+03 -0.33478101265E+03  0.61673704506E+03  0.15294330000E+03 0.  0.
<mgrwt>
<rscale>  0 0.73359295E+03</rscale>
<asrwt>0</asrwt>
<pdfrwt beam="1">  1        1 0.16545307E+00 0.82383543E+03</pdfrwt>
<pdfrwt beam="2">  1       -1 0.10112837E+00 0.82383543E+03</pdfrwt>
<totfact> 0.12567848E+01</totfact>
</mgrwt>
</event>
<event>
 4    1  0.1521315E-007  0.7611526E+03  0.7818608E-02  0.9802133E-01
          1   -1    0    0  501    0  0.00000000000E+00  0.00000000000E+00  0.10283940250E+04  0.10283940250E+04  0.50400000000E-02 0. -1.
         -1   -1    0    0    0  501 -0.00000000000E+00 -0.00000000000E+00 -0.37724809462E+03  0.37724809465E+03  0.50400000000E-02 0.  1.
    8880023    1    1    2    0    0 -0.30976220761E+03  0.22268909379E+03  0.18333490854E+03  0.78292078316E+03  0.65864270000E+03 0.  0.
    8880022    1    1    2    0    0  0.30976220761E+03 -0.22268909379E+03  0.46781102179E+03  0.62272133646E+03  0.15294330000E+03 0.  0.
<mgrwt>
<rscale>  0 0.65248218E+03</rscale>
<asrwt>0</asrwt>
<pdfrwt beam="1">  1        1 0.15821447E+00 0.76115259E+03</pdfrwt>
<pdfrwt beam="2">  1       -1 0.58038168E-01 0.76115259E+03</pdfrwt>
<totfact> 0.44284039E+01</totfact>
</mgrwt>
</event>
<event>
 4    1  0.1521315E-007  0.9521927E+03  0.7818608E-02  0.9446966E-01
         -1   -1    0    0    0  501 -0.00000000000E+00  0.00000000000E+00  0.61738070619E+03  0.61738070621E+03  0.50400000000E-02 0.  1.
          1   -1    0    0  501    0  0.00000000000E+00 -0.00000000000E+00 -0.17883561657E+04  0.17883561657E+04  0.50400000000E-02 0. -1.
    8880023    1    1    2    0    0 -0.89114626417E+01 -0.68759094303E+03 -0.13748391956E+04  0.16723796636E+04  0.65864270000E+03 0.  0.
    8880022    1    1    2    0    0  0.89114626417E+01  0.68759094303E+03  0.20386373611E+03  0.73335720833E+03  0.15294330000E+03 0.  0.
<mgrwt>
<rscale>  0 0.88309303E+03</rscale>
<asrwt>0</asrwt>
<pdfrwt beam="1">  1        1 0.27513172E+00 0.95219269E+03</pdfrwt>
<pdfrwt beam="2">  1       -1 0.94981648E-01 0.95219269E+03</pdfrwt>
<totfact> 0.45110075E+00</totfact>
</mgrwt>
</event>
<event>
 4    1  0.1521315E-007  0.6694666E+03  0.7818608E-02  0.1016048E+00
          1   -1    0    0  501    0  0.00000000000E+00  0.00000000000E+00  0.97290165554E+03  0.97290165555E+03  0.50400000000E-02 0. -1.
         -1   -1    0    0    0  501 -0.00000000000E+00 -0.00000000000E+00 -0.31597192128E+03  0.31597192132E+03  0.50400000000E-02 0.  1.
    8880023    1    1    2    0    0 -0.10507062989E+03  0.57753187330E+02  0.80321750601E+03  0.10456308317E+04  0.65864270000E+03 0. -1.
    8880022    1    1    2    0    0  0.10507062989E+03 -0.57753187330E+02 -0.14628777175E+03  0.24324274520E+03  0.15294330000E+03 0.  0.
<mgrwt>
<rscale>  0 0.49140052E+03</rscale>
<asrwt>0</asrwt>
<pdfrwt beam="1">  1        1 0.14967718E+00 0.66946656E+03</pdfrwt>
<pdfrwt beam="2">  1       -1 0.48611065E-01 0.66946656E+03</pdfrwt>
<totfact> 0.69297351E+01</totfact>
</mgrwt>
</event>
<event>
 4    1  0.1521315E-007  0.8702346E+03  0.7818608E-02  0.9575611E-01
          1   -1    0    0  501    0  0.00000000000E+00  0.00000000000E+00  0.70836149311E+03  0.70836149313E+03  0.50400000000E-02 0. -1.
         -1   -1    0    0    0  501 -0.00000000000E+00 -0.00000000000E+00 -0.10759783563E+04  0.10759783563E+04  0.50400000000E-02 0.  1.
    8880023    1    1    2    0    0  0.56061954128E+03  0.95936247934E+02  0.27499668658E+03  0.91265076433E+03  0.65864270000E+03 0.  0.
    8880022    1    1    2    0    0 -0.56061954128E+03 -0.95936247934E+02 -0.64261354971E+03  0.87168908507E+03  0.15294330000E+03 0.  0.
<mgrwt>
<rscale>  0 0.78931650E+03</rscale>
<asrwt>0</asrwt>
<pdfrwt beam="1">  1        1 0.10897869E+00 0.87023459E+03</pdfrwt>
<pdfrwt beam="2">  1       -1 0.16553513E+00 0.87023459E+03</pdfrwt>
<totfact> 0.72256036E+00</totfact>
</mgrwt>
</event>
<event>
 4    1  0.1521315E-007  0.7217382E+03  0.7818608E-02  0.9916748E-01
         -1   -1    0    0    0  501 -0.00000000000E+00  0.00000000000E+00  0.12225270573E+04  0.12225270573E+04  0.50400000000E-02 0.  1.
          1   -1    0    0  501    0  0.00000000000E+00 -0.00000000000E+00 -0.90073004473E+03  0.90073004474E+03  0.50400000000E-02 0. -1.
    8880023    1    1    2    0    0 -0.10382086069E+03  0.27625552186E+03 -0.72617448214E+03  0.10238337117E+04  0.65864270000E+03 0. -1.
    8880022    1    1    2    0    0  0.10382086069E+03 -0.27625552186E+03  0.10479714947E+04  0.10994233904E+04  0.15294330000E+03 0.  0.
<mgrwt>
<rscale>  0 0.59456447E+03</rscale>
<asrwt>0</asrwt>
<pdfrwt beam="1">  1        1 0.13857385E+00 0.72173824E+03</pdfrwt>
<pdfrwt beam="2">  1       -1 0.18808108E+00 0.72173824E+03</pdfrwt>
<totfact> 0.34578366E+00</totfact>
</mgrwt>
</event>
<event>
 4    1  0.1521315E-007  0.7203727E+03  0.7818608E-02  0.9921327E-01
          1   -1    0    0  501    0  0.00000000000E+00  0.00000000000E+00  0.21896671261E+04  0.21896671261E+04  0.50400000000E-02 0. -1.
         -1   -1    0    0    0  501 -0.00000000000E+00 -0.00000000000E+00 -0.13319259307E+03  0.13319259316E+03  0.50400000000E-02 0.  1.
    8880023    1    1    2    0    0 -0.10576499237E+03 -0.27191968555E+03  0.16446045474E+04  0.17954556170E+04  0.65864270000E+03 0.  0.
    8880022    1    1    2    0    0  0.10576499237E+03  0.27191968555E+03  0.41186998556E+03  0.52740410221E+03  0.15294330000E+03 0.  0.
<mgrwt>
<rscale>  0 0.59238730E+03</rscale>
<asrwt>0</asrwt>
<pdfrwt beam="1">  1        1 0.33687185E+00 0.72037265E+03</pdfrwt>
<pdfrwt beam="2">  1       -1 0.20491169E-01 0.72037265E+03</pdfrwt>
<totfact> 0.45253260E+01</totfact>
</mgrwt>
</event>
<event>
 4    1  0.1521315E-007  0.7225762E+03  0.7818608E-02  0.9913963E-01
         -1   -1    0    0    0  501 -0.00000000000E+00  0.00000000000E+00  0.24544088676E+03  0.24544088681E+03  0.50400000000E-02 0.  1.
          1   -1    0    0  501    0  0.00000000000E+00 -0.00000000000E+00 -0.12741472780E+04  0.12741472780E+04  0.50400000000E-02 0. -1.
    8880023    1    1    2    0    0  0.11891583955E+03 -0.27233286473E+03 -0.91640891719E+03  0.11670139999E+04  0.65864270000E+03 0.  0.
    8880022    1    1    2    0    0 -0.11891583955E+03  0.27233286473E+03 -0.11229747406E+03  0.35257416496E+03  0.15294330000E+03 0.  0.
<mgrwt>
<rscale>  0 0.59589306E+03</rscale>
<asrwt>0</asrwt>
<pdfrwt beam="1">  1        1 0.19602265E+00 0.72257621E+03</pdfrwt>
<pdfrwt beam="2">  1       -1 0.37760137E-01 0.72257621E+03</pdfrwt>
<totfact> 0.65585163E+01</totfact>
</mgrwt>
</event>
<event>
 4    1  0.1521315E-007  0.6735702E+03  0.7818608E-02  0.1013223E+00
         -1   -1    0    0    0  501 -0.00000000000E+00  0.00000000000E+00  0.13175736611E+04  0.13175736611E+04  0.50400000000E-02 0.  1.
          1   -1    0    0  501    0  0.00000000000E+00 -0.00000000000E+00 -0.12058480018E+04  0.12058480018E+04  0.50400000000E-02 0. -1.
    8880023    1    1    2    0    0  0.92471578625E+02  0.10646870518E+03 -0.11022428784E+04  0.12917570001E+04  0.65864270000E+03 0.  0.
    8880022    1    1    2    0    0 -0.92471578625E+02 -0.10646870518E+03  0.12139685377E+04  0.12316646628E+04  0.15294330000E+03 0.  0.
<mgrwt>
<rscale>  0 0.50213538E+03</rscale>
<asrwt>0</asrwt>
<pdfrwt beam="1">  1        1 0.18551508E+00 0.67357018E+03</pdfrwt>
<pdfrwt beam="2">  1       -1 0.20270364E+00 0.67357018E+03</pdfrwt>
<totfact> 0.16220153E+00</totfact>
</mgrwt>
</event>
<event>
 4    1  0.1521315E-007  0.8077088E+03  0.7818608E-02  0.9694369E-01
          1   -1    0    0  501    0  0.00000000000E+00  0.00000000000E+00  0.15464796340E+04  0.15464796340E+04  0.50400000000E-02 0. -1.
         -1   -1    0    0    0  501 -0.00000000000E+00 -0.00000000000E+00 -0.44051990304E+03  0.44051990307E+03  0.50400000000E-02 0.  1.
    8880023    1    1    2    0    0  0.45362860992E+03  0.11315620929E+03  0.12375345208E+04  0.14777973948E+04  0.65864270000E+03 0. -1.
    8880022    1    1    2    0    0 -0.45362860992E+03 -0.11315620929E+03 -0.13157478983E+03  0.50920214235E+03  0.15294330000E+03 0.  0.
<mgrwt>
<rscale>  0 0.71353024E+03</rscale>
<asrwt>0</asrwt>
<pdfrwt beam="1">  1        1 0.23791995E+00 0.80770877E+03</pdfrwt>
<pdfrwt beam="2">  1       -1 0.67772291E-01 0.80770877E+03</pdfrwt>
<totfact> 0.13783037E+01</totfact>
</mgrwt>
</event>
<event>
 4    1  0.1521315E-007  0.6712198E+03  0.7818608E-02  0.1014803E+00
          1   -1    0    0  501    0  0.00000000000E+00  0.00000000000E+00  0.18221518998E+04  0.18221518998E+04  0.50400000000E-02 0. -1.
         -1   -1    0    0    0  501 -0.00000000000E+00 -0.00000000000E+00 -0.10543660142E+03  0.10543660154E+03  0.50400000000E-02 0.  1.
    8880023    1    1    2    0    0  0.58743264253E+02  0.11521740035E+03  0.14045046230E+04  0.15566532250E+04  0.65864270000E+03 0. -1.
    8880022    1    1    2    0    0 -0.58743264253E+02 -0.11521740035E+03  0.31221067531E+03  0.37093527634E+03  0.15294330000E+03 0.  1.
<mgrwt>
<rscale>  0 0.49609548E+03</rscale>
<asrwt>0</asrwt>
<pdfrwt beam="1">  1        1 0.28033109E+00 0.67121981E+03</pdfrwt>
<pdfrwt beam="2">  1       -1 0.16221014E-01 0.67121981E+03</pdfrwt>
<totfact> 0.11778642E+02</totfact>
</mgrwt>
</event>
<event>
 4    1  0.1521315E-007  0.8744667E+03  0.7818608E-02  0.9568331E-01
          1   -1    0    0  501    0  0.00000000000E+00  0.00000000000E+00  0.83712017340E+03  0.83712017342E+03  0.50400000000E-02 0. -1.
         -1   -1    0    0    0  501 -0.00000000000E+00 -0.00000000000E+00 -0.17696304370E+04  0.17696304370E+04  0.50400000000E-02 0.  1.
    8880023    1    1    2    0    0  0.14266625607E+02 -0.57504632586E+03  0.53360897453E+03  0.10244171794E+04  0.65864270000E+03 0. -1.
    8880022    1    1    2    0    0 -0.14266625607E+02  0.57504632586E+03 -0.14661192382E+04  0.15823334310E+04  0.15294330000E+03 0.  0.
<mgrwt>
<rscale>  0 0.79428212E+03</rscale>
<asrwt>0</asrwt>
<pdfrwt beam="1">  1        1 0.12878772E+00 0.87446671E+03</pdfrwt>
<pdfrwt beam="2">  1       -1 0.27225084E+00 0.87446671E+03</pdfrwt>
<totfact> 0.10568257E+00</totfact>
</mgrwt>
</event>
<event>
 4    1  0.2498508E-007  0.7511989E+03  0.7818608E-02  0.9828450E-01
          1   -1    0    0  501    0  0.00000000000E+00  0.00000000000E+00  0.32825759471E+04  0.32825759471E+04  0.50400000000E-02 0. -1.
         -1   -1    0    0    0  501 -0.00000000000E+00 -0.00000000000E+00 -0.95069487978E+03  0.95069487979E+03  0.50400000000E-02 0.  1.
    8880023    1    1    2    0    0  0.35874484010E+03 -0.42328371244E+02  0.31966289460E+04  0.32837077178E+04  0.65864270000E+03 0. -1.
    8880022    1    1    2    0    0 -0.35874484010E+03  0.42328371244E+02 -0.86474787871E+03  0.94956310905E+03  0.15294330000E+03 0.  0.
<mgrwt>
<rscale>  0 0.63857865E+03</rscale>
<asrwt>0</asrwt>
<pdfrwt beam="1">  1        1 0.50501168E+00 0.75119888E+03</pdfrwt>
<pdfrwt beam="2">  1       -1 0.14626075E+00 0.75119888E+03</pdfrwt>
<totfact> 0.15067075E-01</totfact>
</mgrwt>
</event>
<event>
 4    1  0.1521315E-007  0.7029065E+03  0.7818608E-02  0.9985351E-01
         -1   -1    0    0    0  501 -0.00000000000E+00  0.00000000000E+00  0.64087729108E+03  0.64087729110E+03  0.50400000000E-02 0.  1.
          1   -1    0    0  501    0  0.00000000000E+00 -0.00000000000E+00 -0.43288587071E+03  0.43288587074E+03  0.50400000000E-02 0. -1.
    8880023    1    1    2    0    0  0.20218652913E+03 -0.13924037587E+03 -0.23492535159E+02  0.70329892671E+03  0.65864270000E+03 0. -1.
    8880022    1    1    2    0    0 -0.20218652913E+03  0.13924037587E+03  0.23148395553E+03  0.37046423514E+03  0.15294330000E+03 0. -1.
<mgrwt>
<rscale>  0 0.56297250E+03</rscale>
<asrwt>0</asrwt>
<pdfrwt beam="1">  1        1 0.66597826E-01 0.70290645E+03</pdfrwt>
<pdfrwt beam="2">  1       -1 0.98596507E-01 0.70290645E+03</pdfrwt>
<totfact> 0.54424131E+01</totfact>
</mgrwt>
</event>
<event>
 4    1  0.1521315E-007  0.7764906E+03  0.7818608E-02  0.9764146E-01
          1   -1    0    0  501    0  0.00000000000E+00  0.00000000000E+00  0.41940672342E+03  0.41940672345E+03  0.50400000000E-02 0. -1.
         -1   -1    0    0    0  501 -0.00000000000E+00 -0.00000000000E+00 -0.97403595058E+03  0.97403595060E+03  0.50400000000E-02 0.  1.
    8880023    1    1    2    0    0 -0.34204446755E+03  0.22832666761E+03 -0.13853930991E+03  0.78875270622E+03  0.65864270000E+03 0. -1.
    8880022    1    1    2    0    0  0.34204446755E+03 -0.22832666761E+03 -0.41608991726E+03  0.60468996782E+03  0.15294330000E+03 0.  0.
<mgrwt>
<rscale>  0 0.67322681E+03</rscale>
<asrwt>0</asrwt>
<pdfrwt beam="1">  1        1 0.64524111E-01 0.77649063E+03</pdfrwt>
<pdfrwt beam="2">  1       -1 0.14985168E+00 0.77649063E+03</pdfrwt>
<totfact> 0.20152604E+01</totfact>
</mgrwt>
</event>
<event>
 4    1  0.1521315E-007  0.1066439E+04  0.7818608E-02  0.9299376E-01
         -1   -1    0    0    0  501 -0.00000000000E+00  0.00000000000E+00  0.68340963611E+03  0.68340963613E+03  0.50400000000E-02 0.  1.
          1   -1    0    0  501    0  0.00000000000E+00 -0.00000000000E+00 -0.29956772807E+04  0.29956772807E+04  0.50400000000E-02 0. -1.
    8880023    1    1    2    0    0  0.60505676432E+03  0.58085096913E+03  0.14672832129E+03  0.10764854588E+04  0.65864270000E+03 0.  1.
    8880022    1    1    2    0    0 -0.60505676432E+03 -0.58085096913E+03 -0.24589959659E+04  0.26026014581E+04  0.15294330000E+03 0.  0.
<mgrwt>
<rscale>  0 0.10084034E+04</rscale>
<asrwt>0</asrwt>
<pdfrwt beam="1">  1        1 0.46087342E+00 0.10664388E+04</pdfrwt>
<pdfrwt beam="2">  1       -1 0.10513995E+00 0.10664388E+04</pdfrwt>
<totfact> 0.51932362E-01</totfact>
</mgrwt>
</event>
<event>
 4    1  0.1521315E-007  0.9563918E+03  0.7818608E-02  0.9440977E-01
          1   -1    0    0  501    0  0.00000000000E+00  0.00000000000E+00  0.14728250895E+04  0.14728250895E+04  0.50400000000E-02 0. -1.
         -1   -1    0    0    0  501 -0.00000000000E+00 -0.00000000000E+00 -0.72733053653E+03  0.72733053655E+03  0.50400000000E-02 0.  1.
    8880023    1    1    2    0    0  0.65950329930E+03  0.21431407285E+03  0.10563518989E+04  0.14249788294E+04  0.65864270000E+03 0.  0.
    8880022    1    1    2    0    0 -0.65950329930E+03 -0.21431407285E+03 -0.31085734591E+03  0.77517679669E+03  0.15294330000E+03 0.  0.
<mgrwt>
<rscale>  0 0.88778834E+03</rscale>
<asrwt>0</asrwt>
<pdfrwt beam="1">  1        1 0.22658848E+00 0.95639183E+03</pdfrwt>
<pdfrwt beam="2">  1       -1 0.11189701E+00 0.95639183E+03</pdfrwt>
<totfact> 0.50608328E+00</totfact>
</mgrwt>
</event>
<event>
 4    1  0.1521315E-007  0.7629504E+03  0.7818608E-02  0.9797528E-01
         -1   -1    0    0    0  501 -0.00000000000E+00  0.00000000000E+00  0.37571772592E+03  0.37571772595E+03  0.50400000000E-02 0.  1.
          1   -1    0    0  501    0  0.00000000000E+00 -0.00000000000E+00 -0.24950191624E+04  0.24950191624E+04  0.50400000000E-02 0. -1.
    8880023    1    1    2    0    0 -0.21722312940E+03  0.31795786421E+03 -0.22966348223E+04  0.24200464468E+04  0.65864270000E+03 0. -1.
    8880022    1    1    2    0    0  0.21722312940E+03 -0.31795786421E+03  0.17733338584E+03  0.45069044155E+03  0.15294330000E+03 0.  0.
<mgrwt>
<rscale>  0 0.65495359E+03</rscale>
<asrwt>0</asrwt>
<pdfrwt beam="1">  1        1 0.38384909E+00 0.76295039E+03</pdfrwt>
<pdfrwt beam="2">  1       -1 0.57802729E-01 0.76295039E+03</pdfrwt>
<totfact> 0.43761728E+00</totfact>
</mgrwt>
</event>
<event>
 4    1  0.1521315E-007  0.6843198E+03  0.7818608E-02  0.1006979E+00
         -1   -1    0    0    0  501 -0.00000000000E+00  0.00000000000E+00  0.11007035899E+03  0.11007035910E+03  0.50400000000E-02 0.  1.
          1   -1    0    0  501    0  0.00000000000E+00 -0.00000000000E+00 -0.22201152995E+04  0.22201152995E+04  0.50400000000E-02 0. -1.
    8880023    1    1    2    0    0  0.16751497589E+03 -0.80138140005E+02 -0.18658995095E+04  0.19874291370E+04  0.65864270000E+03 0. -1.
    8880022    1    1    2    0    0 -0.16751497589E+03  0.80138140005E+02 -0.24414543101E+03  0.34275652164E+03  0.15294330000E+03 0.  0.
<mgrwt>
<rscale>  0 0.52693342E+03</rscale>
<asrwt>0</asrwt>
<pdfrwt beam="1">  1        1 0.34155617E+00 0.68431980E+03</pdfrwt>
<pdfrwt beam="2">  1       -1 0.16933903E-01 0.68431980E+03</pdfrwt>
<totfact> 0.59459408E+01</totfact>
</mgrwt>
</event>
<event>
 4    1  0.1521315E-007  0.6712264E+03  0.7818608E-02  0.1014799E+00
          1   -1    0    0  501    0  0.00000000000E+00  0.00000000000E+00  0.60515233080E+03  0.60515233082E+03  0.50400000000E-02 0. -1.
         -1   -1    0    0    0  501 -0.00000000000E+00 -0.00000000000E+00 -0.55964965470E+03  0.55964965472E+03  0.50400000000E-02 0.  1.
    8880023    1    1    2    0    0  0.11652380144E+03 -0.56186097730E+02  0.38264977597E+03  0.77263557464E+03  0.65864270000E+03 0. -1.
    8880022    1    1    2    0    0 -0.11652380144E+03  0.56186097730E+02 -0.33714709986E+03  0.39216641090E+03  0.15294330000E+03 0.  1.
<mgrwt>
<rscale>  0 0.49611282E+03</rscale>
<asrwt>0</asrwt>
<pdfrwt beam="1">  1        1 0.93100359E-01 0.67122640E+03</pdfrwt>
<pdfrwt beam="2">  1       -1 0.86099946E-01 0.67122640E+03</pdfrwt>
<totfact> 0.46379616E+01</totfact>
</mgrwt>
</event>
<event>
 4    1  0.1918740E-007  0.9505218E+03  0.7818608E-02  0.9449364E-01
         -1   -1    0    0    0  501 -0.00000000000E+00  0.00000000000E+00  0.13694056303E+04  0.13694056303E+04  0.50400000000E-02 0.  1.
          1   -1    0    0  501    0  0.00000000000E+00 -0.00000000000E+00 -0.18410825555E+04  0.18410825556E+04  0.50400000000E-02 0. -1.
    8880023    1    1    2    0    0 -0.57514329923E+03  0.37268162895E+03 -0.16119609002E+04  0.18713389755E+04  0.65864270000E+03 0.  0.
    8880022    1    1    2    0    0  0.57514329923E+03 -0.37268162895E+03  0.11402839749E+04  0.13391492103E+04  0.15294330000E+03 0.  0.
<mgrwt>
<rscale>  0 0.88122226E+03</rscale>
<asrwt>0</asrwt>
<pdfrwt beam="1">  1        1 0.28324347E+00 0.95052176E+03</pdfrwt>
<pdfrwt beam="2">  1       -1 0.21067779E+00 0.95052176E+03</pdfrwt>
<totfact> 0.49577316E-01</totfact>
</mgrwt>
</event>
<event>
 4    1  0.1521315E-007  0.1006332E+04  0.7818608E-02  0.9373320E-01
         -1   -1    0    0    0  501 -0.00000000000E+00  0.00000000000E+00  0.56451994112E+03  0.56451994114E+03  0.50400000000E-02 0.  1.
          1   -1    0    0  501    0  0.00000000000E+00 -0.00000000000E+00 -0.17399911759E+04  0.17399911759E+04  0.50400000000E-02 0. -1.
    8880023    1    1    2    0    0 -0.43572418310E+03  0.62372939195E+03 -0.14841788192E+03  0.10172177702E+04  0.65864270000E+03 0.  0.
    8880022    1    1    2    0    0  0.43572418310E+03 -0.62372939195E+03 -0.10270533528E+04  0.12872933468E+04  0.15294330000E+03 0.  0.
<mgrwt>
<rscale>  0 0.94304252E+03</rscale>
<asrwt>0</asrwt>
<pdfrwt beam="1">  1        1 0.26769095E+00 0.10063320E+04</pdfrwt>
<pdfrwt beam="2">  1       -1 0.86849222E-01 0.10063320E+04</pdfrwt>
<totfact> 0.58902084E+00</totfact>
</mgrwt>
</event>
<event>
 4    1  0.1521315E-007  0.7317221E+03  0.7818608E-02  0.9884751E-01
          1   -1    0    0  501    0  0.00000000000E+00  0.00000000000E+00  0.14115319724E+04  0.14115319724E+04  0.50400000000E-02 0. -1.
         -1   -1    0    0    0  501 -0.00000000000E+00 -0.00000000000E+00 -0.49891802486E+03  0.49891802489E+03  0.50400000000E-02 0.  1.
    8880023    1    1    2    0    0 -0.30868377547E+03  0.79507380062E+02  0.12327087069E+04  0.14335229538E+04  0.65864270000E+03 0. -1.
    8880022    1    1    2    0    0  0.30868377547E+03 -0.79507380062E+02 -0.32009475944E+03  0.47692704343E+03  0.15294330000E+03 0.  0.
<mgrwt>
<rscale>  0 0.61006043E+03</rscale>
<asrwt>0</asrwt>
<pdfrwt beam="1">  1        1 0.21715876E+00 0.73172215E+03</pdfrwt>
<pdfrwt beam="2">  1       -1 0.76756621E-01 0.73172215E+03</pdfrwt>
<totfact> 0.13335919E+01</totfact>
</mgrwt>
</event>
<event>
 4    1  0.1521315E-007  0.7358045E+03  0.7818608E-02  0.9872341E-01
         -1   -1    0    0    0  501 -0.00000000000E+00  0.00000000000E+00  0.36245892740E+03  0.36245892744E+03  0.50400000000E-02 0.  1.
          1   -1    0    0  501    0  0.00000000000E+00 -0.00000000000E+00 -0.94867230502E+03  0.94867230503E+03  0.50400000000E-02 0. -1.
    8880023    1    1    2    0    0  0.32708757196E+03 -0.24735128979E+02 -0.16185675645E+03  0.75339625842E+03  0.65864270000E+03 0.  1.
    8880022    1    1    2    0    0 -0.32708757196E+03  0.24735128979E+02 -0.42435662116E+03  0.55773497404E+03  0.15294330000E+03 0. -1.
<mgrwt>
<rscale>  0 0.61620684E+03</rscale>
<asrwt>0</asrwt>
<pdfrwt beam="1">  1        1 0.14594958E+00 0.73580453E+03</pdfrwt>
<pdfrwt beam="2">  1       -1 0.55762912E-01 0.73580453E+03</pdfrwt>
<totfact> 0.55368768E+01</totfact>
</mgrwt>
</event>
<event>
 4    1  0.1521315E-007  0.8958519E+03  0.7818608E-02  0.9532724E-01
          1   -1    0    0  501    0  0.00000000000E+00  0.00000000000E+00  0.23857841217E+04  0.23857841217E+04  0.50400000000E-02 0. -1.
         -1   -1    0    0    0  501 -0.00000000000E+00 -0.00000000000E+00 -0.25493673571E+03  0.25493673576E+03  0.50400000000E-02 0.  1.
    8880023    1    1    2    0    0  0.32552189844E+03  0.51261670489E+03  0.15294191693E+04  0.17724766837E+04  0.65864270000E+03 0.  1.
    8880022    1    1    2    0    0 -0.32552189844E+03 -0.51261670489E+03  0.60142821675E+03  0.86824417384E+03  0.15294330000E+03 0. -1.
<mgrwt>
<rscale>  0 0.81913635E+03</rscale>
<asrwt>0</asrwt>
<pdfrwt beam="1">  1        1 0.36704371E+00 0.89585188E+03</pdfrwt>
<pdfrwt beam="2">  1       -1 0.39221037E-01 0.89585188E+03</pdfrwt>
<totfact> 0.10558070E+01</totfact>
</mgrwt>
</event>
<event>
 4    1  0.1521315E-007  0.8196328E+03  0.7818608E-02  0.9669851E-01
         -1   -1    0    0    0  501 -0.00000000000E+00  0.00000000000E+00  0.18095089449E+03  0.18095089456E+03  0.50400000000E-02 0.  1.
          1   -1    0    0  501    0  0.00000000000E+00 -0.00000000000E+00 -0.26675062522E+04  0.26675062522E+04  0.50400000000E-02 0. -1.
    8880023    1    1    2    0    0  0.40075735542E+03 -0.27817494368E+03 -0.19066966075E+04  0.20754011460E+04  0.65864270000E+03 0.  1.
    8880022    1    1    2    0    0 -0.40075735542E+03  0.27817494368E+03 -0.57985875018E+03  0.77305600081E+03  0.15294330000E+03 0. -1.
<mgrwt>
<rscale>  0 0.72840585E+03</rscale>
<asrwt>0</asrwt>
<pdfrwt beam="1">  1        1 0.41038555E+00 0.81963282E+03</pdfrwt>
<pdfrwt beam="2">  1       -1 0.27838601E-01 0.81963282E+03</pdfrwt>
<totfact> 0.12549543E+01</totfact>
</mgrwt>
</event>
<event>
 4    1  0.1521315E-007  0.7340987E+03  0.7818608E-02  0.9877483E-01
         -1   -1    0    0    0  501 -0.00000000000E+00  0.00000000000E+00  0.67491430586E+03  0.67491430588E+03  0.50400000000E-02 0.  1.
          1   -1    0    0  501    0  0.00000000000E+00 -0.00000000000E+00 -0.17280881192E+04  0.17280881193E+04  0.50400000000E-02 0. -1.
    8880023    1    1    2    0    0 -0.47702679842E+02 -0.32064793154E+03 -0.15935742504E+04  0.17545312022E+04  0.65864270000E+03 0. -1.
    8880022    1    1    2    0    0  0.47702679842E+02  0.32064793154E+03  0.54040043700E+03  0.64847122295E+03  0.15294330000E+03 0.  0.
<mgrwt>
<rscale>  0 0.61365070E+03</rscale>
<asrwt>0</asrwt>
<pdfrwt beam="1">  1        1 0.26585971E+00 0.73409866E+03</pdfrwt>
<pdfrwt beam="2">  1       -1 0.10383297E+00 0.73409866E+03</pdfrwt>
<totfact> 0.41808217E+00</totfact>
</mgrwt>
</event>
<event>
 4    1  0.1521315E-007  0.1346488E+04  0.7818608E-02  0.9026420E-01
          1   -1    0    0  501    0  0.00000000000E+00  0.00000000000E+00  0.16295686716E+04  0.16295686716E+04  0.50400000000E-02 0. -1.
         -1   -1    0    0    0  501 -0.00000000000E+00 -0.00000000000E+00 -0.10131293361E+04  0.10131293361E+04  0.50400000000E-02 0.  1.
    8880023    1    1    2    0    0 -0.11743922687E+04  0.46236304731E+01  0.55622113437E+03  0.14568495926E+04  0.65864270000E+03 0.  1.
    8880022    1    1    2    0    0  0.11743922687E+04 -0.46236304731E+01  0.60218201175E+02  0.11858484151E+04  0.15294330000E+03 0. -1.
<mgrwt>
<rscale>  0 0.13039739E+04</rscale>
<asrwt>0</asrwt>
<pdfrwt beam="1">  1        1 0.25070287E+00 0.13464876E+04</pdfrwt>
<pdfrwt beam="2">  1       -1 0.15586605E+00 0.13464876E+04</pdfrwt>
<totfact> 0.16153275E+00</totfact>
</mgrwt>
</event>
<event>
 4    1  0.1521315E-007  0.7238539E+03  0.7818608E-02  0.9909755E-01
         -1   -1    0    0    0  501 -0.00000000000E+00  0.00000000000E+00  0.24478716569E+03  0.24478716575E+03  0.50400000000E-02 0.  1.
          1   -1    0    0  501    0  0.00000000000E+00 -0.00000000000E+00 -0.35557074908E+04  0.35557074908E+04  0.50400000000E-02 0. -1.
    8880023    1    1    2    0    0  0.11756101576E+03 -0.27628538890E+03 -0.33798985110E+04  0.34565413869E+04  0.65864270000E+03 0. -1.
    8880022    1    1    2    0    0 -0.11756101576E+03  0.27628538890E+03  0.68978185892E+02  0.34395326963E+03  0.15294330000E+03 0.  0.
<mgrwt>
<rscale>  0 0.59790831E+03</rscale>
<asrwt>0</asrwt>
<pdfrwt beam="1">  1        1 0.54703188E+00 0.72385386E+03</pdfrwt>
<pdfrwt beam="2">  1       -1 0.37659567E-01 0.72385386E+03</pdfrwt>
<totfact> 0.16804165E+00</totfact>
</mgrwt>
</event>
<event>
 4    1  0.1521315E-007  0.7018015E+03  0.7818608E-02  0.9989808E-01
          1   -1    0    0  501    0  0.00000000000E+00  0.00000000000E+00  0.11487897298E+04  0.11487897298E+04  0.50400000000E-02 0. -1.
         -1   -1    0    0    0  501 -0.00000000000E+00 -0.00000000000E+00 -0.13565565775E+04  0.13565565775E+04  0.50400000000E-02 0.  1.
    8880023    1    1    2    0    0 -0.24101602107E+03 -0.25027476956E+02  0.10235990072E+04  0.12410802677E+04  0.65864270000E+03 0. -1.
    8880022    1    1    2    0    0  0.24101602107E+03  0.25027476956E+02 -0.12313658549E+04  0.12642660395E+04  0.15294330000E+03 0.  0.
<mgrwt>
<rscale>  0 0.56099380E+03</rscale>
<asrwt>0</asrwt>
<pdfrwt beam="1">  1        1 0.17673688E+00 0.70180147E+03</pdfrwt>
<pdfrwt beam="2">  1       -1 0.20870101E+00 0.70180147E+03</pdfrwt>
<totfact> 0.16159574E+00</totfact>
</mgrwt>
</event>
<event>
 4    1  0.1521315E-007  0.9934564E+03  0.7818608E-02  0.9390169E-01
          1   -1    0    0  501    0  0.00000000000E+00  0.00000000000E+00  0.95823719767E+03  0.95823719768E+03  0.50400000000E-02 0. -1.
         -1   -1    0    0    0  501 -0.00000000000E+00 -0.00000000000E+00 -0.10563394423E+04  0.10563394423E+04  0.50400000000E-02 0.  1.
    8880023    1    1    2    0    0 -0.71659297123E+03 -0.19909798811E+03  0.43735286706E+03  0.10854645235E+04  0.65864270000E+03 0. -1.
    8880022    1    1    2    0    0  0.71659297123E+03  0.19909798811E+03 -0.53545511168E+03  0.92911211644E+03  0.15294330000E+03 0.  0.
<mgrwt>
<rscale>  0 0.92889160E+03</rscale>
<asrwt>0</asrwt>
<pdfrwt beam="1">  1        1 0.14742111E+00 0.99345644E+03</pdfrwt>
<pdfrwt beam="2">  1       -1 0.16251376E+00 0.99345644E+03</pdfrwt>
<totfact> 0.45827829E+00</totfact>
</mgrwt>
</event>
<event>
 4    1  0.1521315E-007  0.7534698E+03  0.7818608E-02  0.9822316E-01
         -1   -1    0    0    0  501 -0.00000000000E+00  0.00000000000E+00  0.19161531793E+04  0.19161531793E+04  0.50400000000E-02 0.  1.
          1   -1    0    0  501    0  0.00000000000E+00 -0.00000000000E+00 -0.48405765818E+03  0.48405765820E+03  0.50400000000E-02 0. -1.
    8880023    1    1    2    0    0  0.34520698568E+03 -0.12140319787E+03 -0.15077635964E+03  0.76840764982E+03  0.65864270000E+03 0. -1.
    8880022    1    1    2    0    0 -0.34520698568E+03  0.12140319787E+03  0.15828718808E+04  0.16318031877E+04  0.15294330000E+03 0.  0.
<mgrwt>
<rscale>  0 0.64178549E+03</rscale>
<asrwt>0</asrwt>
<pdfrwt beam="1">  1        1 0.74470409E-01 0.75346984E+03</pdfrwt>
<pdfrwt beam="2">  1       -1 0.29479280E+00 0.75346984E+03</pdfrwt>
<totfact> 0.17390983E+00</totfact>
</mgrwt>
</event>
<event>
 4    1  0.1521315E-007  0.7092458E+03  0.7818608E-02  0.9960812E-01
          1   -1    0    0  501    0  0.00000000000E+00  0.00000000000E+00  0.79362664536E+03  0.79362664538E+03  0.50400000000E-02 0. -1.
         -1   -1    0    0    0  501 -0.00000000000E+00 -0.00000000000E+00 -0.79014365277E+03  0.79014365278E+03  0.50400000000E-02 0.  1.
    8880023    1    1    2    0    0 -0.25436467811E+03  0.67215890642E+02  0.59028568008E+03  0.92274956288E+03  0.65864270000E+03 0. -1.
    8880022    1    1    2    0    0  0.25436467811E+03 -0.67215890642E+02 -0.58680268748E+03  0.66102073528E+03  0.15294330000E+03 0.  0.
<mgrwt>
<rscale>  0 0.57402446E+03</rscale>
<asrwt>0</asrwt>
<pdfrwt beam="1">  1        1 0.12209641E+00 0.70924578E+03</pdfrwt>
<pdfrwt beam="2">  1       -1 0.12156056E+00 0.70924578E+03</pdfrwt>
<totfact> 0.13897065E+01</totfact>
</mgrwt>
</event>
<event>
 4    1  0.1521315E-007  0.8086762E+03  0.7818608E-02  0.9692341E-01
         -1   -1    0    0    0  501 -0.00000000000E+00  0.00000000000E+00  0.59217276486E+03  0.59217276488E+03  0.50400000000E-02 0.  1.
          1   -1    0    0  501    0  0.00000000000E+00 -0.00000000000E+00 -0.14910947219E+04  0.14910947219E+04  0.50400000000E-02 0. -1.
    8880023    1    1    2    0    0 -0.46769822574E+03 -0.37488849775E+02 -0.12421188593E+04  0.14821661551E+04  0.65864270000E+03 0. -1.
    8880022    1    1    2    0    0  0.46769822574E+03  0.37488849775E+02  0.34319690231E+03  0.60110133171E+03  0.15294330000E+03 0.  0.
<mgrwt>
<rscale>  0 0.71474645E+03</rscale>
<asrwt>0</asrwt>
<pdfrwt beam="1">  1        1 0.22939919E+00 0.80867623E+03</pdfrwt>
<pdfrwt beam="2">  1       -1 0.91103503E-01 0.80867623E+03</pdfrwt>
<totfact> 0.80390391E+00</totfact>
</mgrwt>
</event>
<event>
 4    1  0.1521315E-007  0.2015723E+04  0.7818608E-02  0.8611748E-01
         -1   -1    0    0    0  501 -0.00000000000E+00  0.00000000000E+00  0.34715710675E+04  0.34715710675E+04  0.50400000000E-02 0.  1.
          1   -1    0    0  501    0  0.00000000000E+00 -0.00000000000E+00 -0.26014445840E+04  0.26014445840E+04  0.50400000000E-02 0. -1.
    8880023    1    1    2    0    0  0.17310013382E+04  0.79559019213E+03 -0.18584243233E+04  0.27416930095E+04  0.65864270000E+03 0.  0.
    8880022    1    1    2    0    0 -0.17310013382E+04 -0.79559019213E+03  0.27285508068E+04  0.33313226419E+04  0.15294330000E+03 0.  0.
<mgrwt>
<rscale>  0 0.19890707E+04</rscale>
<asrwt>0</asrwt>
<pdfrwt beam="1">  1        1 0.40022225E+00 0.20157231E+04</pdfrwt>
<pdfrwt beam="2">  1       -1 0.53408785E+00 0.20157231E+04</pdfrwt>
<totfact> 0.91654262E-04</totfact>
</mgrwt>
</event>
<event>
 4    1  0.1521315E-007  0.1048960E+04  0.7818608E-02  0.9320132E-01
          1   -1    0    0  501    0  0.00000000000E+00  0.00000000000E+00  0.12633215122E+04  0.12633215123E+04  0.50400000000E-02 0. -1.
         -1   -1    0    0    0  501 -0.00000000000E+00 -0.00000000000E+00 -0.88574339727E+03  0.88574339728E+03  0.50400000000E-02 0.  1.
    8880023    1    1    2    0    0 -0.53758273272E+03  0.61442059392E+03  0.69672059087E+03  0.12592607549E+04  0.65864270000E+03 0. -1.
    8880022    1    1    2    0    0  0.53758273272E+03 -0.61442059392E+03 -0.31914247589E+03  0.88980415468E+03  0.15294330000E+03 0.  0.
<mgrwt>
<rscale>  0 0.98950404E+03</rscale>
<asrwt>0</asrwt>
<pdfrwt beam="1">  1        1 0.19435716E+00 0.10489605E+04</pdfrwt>
<pdfrwt beam="2">  1       -1 0.13626822E+00 0.10489605E+04</pdfrwt>
<totfact> 0.43128413E+00</totfact>
</mgrwt>
</event>
<event>
 4    1  0.1521315E-007  0.1141185E+04  0.7818608E-02  0.9216530E-01
          1   -1    0    0  501    0  0.00000000000E+00  0.00000000000E+00  0.16950496860E+04  0.16950496860E+04  0.50400000000E-02 0. -1.
         -1   -1    0    0    0  501 -0.00000000000E+00 -0.00000000000E+00 -0.72750261163E+03  0.72750261164E+03  0.50400000000E-02 0.  1.
    8880023    1    1    2    0    0  0.25825710059E+03  0.89543071255E+03  0.93880188862E+03  0.14777185400E+04  0.65864270000E+03 0. -1.
    8880022    1    1    2    0    0 -0.25825710059E+03 -0.89543071255E+03  0.28745185760E+02  0.94483375770E+03  0.15294330000E+03 0.  0.
<mgrwt>
<rscale>  0 0.10884428E+04</rscale>
<asrwt>0</asrwt>
<pdfrwt beam="1">  1        1 0.26077687E+00 0.11411850E+04</pdfrwt>
<pdfrwt beam="2">  1       -1 0.11192348E+00 0.11411850E+04</pdfrwt>
<totfact> 0.34836182E+00</totfact>
</mgrwt>
</event>
<event>
 4    1  0.1521315E-007  0.7652279E+03  0.7818608E-02  0.9791756E-01
         -1   -1    0    0    0  501 -0.00000000000E+00  0.00000000000E+00  0.84832254795E+03  0.84832254796E+03  0.50400000000E-02 0.  1.
          1   -1    0    0  501    0  0.00000000000E+00 -0.00000000000E+00 -0.17339688095E+04  0.17339688095E+04  0.50400000000E-02 0. -1.
    8880023    1    1    2    0    0 -0.29364800009E+03  0.25599698488E+03 -0.15891028467E+04  0.17637521560E+04  0.65864270000E+03 0. -1.
    8880022    1    1    2    0    0  0.29364800009E+03 -0.25599698488E+03  0.70345658511E+03  0.81853920149E+03  0.15294330000E+03 0.  0.
<mgrwt>
<rscale>  0 0.65806837E+03</rscale>
<asrwt>0</asrwt>
<pdfrwt beam="1">  1        1 0.26676443E+00 0.76522795E+03</pdfrwt>
<pdfrwt beam="2">  1       -1 0.13051116E+00 0.76522795E+03</pdfrwt>
<totfact> 0.23738975E+00</totfact>
</mgrwt>
</event>
<event>
 4    1  0.1521315E-007  0.7012828E+03  0.7818608E-02  0.9991921E-01
          1   -1    0    0  501    0  0.00000000000E+00  0.00000000000E+00  0.19918860725E+04  0.19918860725E+04  0.50400000000E-02 0. -1.
         -1   -1    0    0    0  501 -0.00000000000E+00 -0.00000000000E+00 -0.18466653924E+03  0.18466653931E+03  0.50400000000E-02 0.  1.
    8880023    1    1    2    0    0 -0.21385096574E+03  0.11070258278E+03  0.17504318126E+04  0.18856852956E+04  0.65864270000E+03 0. -1.
    8880022    1    1    2    0    0  0.21385096574E+03 -0.11070258278E+03  0.56787720660E+02  0.29086731617E+03  0.15294330000E+03 0.  0.
<mgrwt>
<rscale>  0 0.56005913E+03</rscale>
<asrwt>0</asrwt>
<pdfrwt beam="1">  1        1 0.30644400E+00 0.70128276E+03</pdfrwt>
<pdfrwt beam="2">  1       -1 0.28410238E-01 0.70128276E+03</pdfrwt>
<totfact> 0.35322652E+01</totfact>
</mgrwt>
</event>
<event>
 4    1  0.1521315E-007  0.8515169E+03  0.7818608E-02  0.9608835E-01
         -1   -1    0    0    0  501 -0.00000000000E+00  0.00000000000E+00  0.65809935014E+03  0.65809935016E+03  0.50400000000E-02 0.  1.
          1   -1    0    0  501    0  0.00000000000E+00 -0.00000000000E+00 -0.14449225039E+04  0.14449225039E+04  0.50400000000E-02 0. -1.
    8880023    1    1    2    0    0 -0.52192424032E+03 -0.13735297880E+03 -0.11528417157E+04  0.14332218883E+04  0.65864270000E+03 0. -1.
    8880022    1    1    2    0    0  0.52192424032E+03  0.13735297880E+03  0.36601856194E+03  0.66979996575E+03  0.15294330000E+03 0.  0.
<mgrwt>
<rscale>  0 0.76714162E+03</rscale>
<asrwt>0</asrwt>
<pdfrwt beam="1">  1        1 0.22229577E+00 0.85151686E+03</pdfrwt>
<pdfrwt beam="2">  1       -1 0.10124605E+00 0.85151686E+03</pdfrwt>
<totfact> 0.67791712E+00</totfact>
</mgrwt>
</event>
<event>
 4    1  0.1521315E-007  0.1321068E+04  0.7818608E-02  0.9047577E-01
          1   -1    0    0  501    0  0.00000000000E+00  0.00000000000E+00  0.91157656275E+03  0.91157656277E+03  0.50400000000E-02 0. -1.
         -1   -1    0    0    0  501 -0.00000000000E+00 -0.00000000000E+00 -0.29257906301E+04  0.29257906301E+04  0.50400000000E-02 0.  1.
    8880023    1    1    2    0    0 -0.43380363957E+03  0.10598228953E+04  0.20360199697E+03  0.13366653083E+04  0.65864270000E+03 0.  0.
    8880022    1    1    2    0    0  0.43380363957E+03 -0.10598228953E+04 -0.22178160643E+04  0.25007018845E+04  0.15294330000E+03 0.  0.
<mgrwt>
<rscale>  0 0.12775295E+04</rscale>
<asrwt>0</asrwt>
<pdfrwt beam="1">  1        1 0.14024255E+00 0.13210679E+04</pdfrwt>
<pdfrwt beam="2">  1       -1 0.45012163E+00 0.13210679E+04</pdfrwt>
<totfact> 0.56055876E-02</totfact>
</mgrwt>
</event>
<event>
 4    1  0.1521315E-007  0.6984003E+03  0.7818608E-02  0.1000390E+00
          1   -1    0    0  501    0  0.00000000000E+00  0.00000000000E+00  0.82819369283E+03  0.82819369285E+03  0.50400000000E-02 0. -1.
         -1   -1    0    0    0  501 -0.00000000000E+00 -0.00000000000E+00 -0.57064299936E+03  0.57064299939E+03  0.50400000000E-02 0.  1.
    8880023    1    1    2    0    0  0.13298553752E+03 -0.19044059050E+03  0.62553536165E+03  0.93758064541E+03  0.65864270000E+03 0. -1.
    8880022    1    1    2    0    0 -0.13298553752E+03  0.19044059050E+03 -0.36798466818E+03  0.46125604683E+03  0.15294330000E+03 0.  0.
<mgrwt>
<rscale>  0 0.55479423E+03</rscale>
<asrwt>0</asrwt>
<pdfrwt beam="1">  1        1 0.12741441E+00 0.69840030E+03</pdfrwt>
<pdfrwt beam="2">  1       -1 0.87791231E-01 0.69840030E+03</pdfrwt>
<totfact> 0.27525816E+01</totfact>
</mgrwt>
</event>
<event>
 4    1  0.1521315E-007  0.7916928E+03  0.7818608E-02  0.9729054E-01
          1   -1    0    0  501    0  0.00000000000E+00  0.00000000000E+00  0.90902889927E+03  0.90902889928E+03  0.50400000000E-02 0. -1.
         -1   -1    0    0    0  501 -0.00000000000E+00 -0.00000000000E+00 -0.60973034619E+03  0.60973034621E+03  0.50400000000E-02 0.  1.
    8880023    1    1    2    0    0  0.36357907522E+03  0.24653116298E+03  0.57461443092E+03  0.97824297020E+03  0.65864270000E+03 0. -1.
    8880022    1    1    2    0    0 -0.36357907522E+03 -0.24653116298E+03 -0.27531587784E+03  0.54051627530E+03  0.15294330000E+03 0.  0.
<mgrwt>
<rscale>  0 0.69312955E+03</rscale>
<asrwt>0</asrwt>
<pdfrwt beam="1">  1        1 0.13985060E+00 0.79169285E+03</pdfrwt>
<pdfrwt beam="2">  1       -1 0.93804669E-01 0.79169285E+03</pdfrwt>
<totfact> 0.20168211E+01</totfact>
</mgrwt>
</event>
<event>
 4    1  0.1521315E-007  0.7151014E+03  0.7818608E-02  0.9939524E-01
          1   -1    0    0  501    0  0.00000000000E+00  0.00000000000E+00  0.69531359857E+03  0.69531359859E+03  0.50400000000E-02 0. -1.
         -1   -1    0    0    0  501 -0.00000000000E+00 -0.00000000000E+00 -0.39737330581E+03  0.39737330584E+03  0.50400000000E-02 0.  1.
    8880023    1    1    2    0    0 -0.15434477147E+03 -0.23181343801E+03  0.29864569730E+03  0.77495757129E+03  0.65864270000E+03 0.  0.
    8880022    1    1    2    0    0  0.15434477147E+03  0.23181343801E+03 -0.70540453743E+00  0.31772933314E+03  0.15294330000E+03 0. -1.
<mgrwt>
<rscale>  0 0.58383452E+03</rscale>
<asrwt>0</asrwt>
<pdfrwt beam="1">  1        1 0.10697132E+00 0.71510138E+03</pdfrwt>
<pdfrwt beam="2">  1       -1 0.61134355E-01 0.71510138E+03</pdfrwt>
<totfact> 0.76397509E+01</totfact>
</mgrwt>
</event>
<event>
 4    1  0.1521315E-007  0.9439728E+03  0.7818608E-02  0.9458840E-01
          1   -1    0    0  501    0  0.00000000000E+00  0.00000000000E+00  0.17276792328E+04  0.17276792328E+04  0.50400000000E-02 0. -1.
         -1   -1    0    0    0  501 -0.00000000000E+00 -0.00000000000E+00 -0.65855577251E+03  0.65855577252E+03  0.50400000000E-02 0.  1.
    8880023    1    1    2    0    0  0.87454658534E+02  0.67054160266E+03  0.13423544345E+04  0.16410362557E+04  0.65864270000E+03 0.  0.
    8880022    1    1    2    0    0 -0.87454658534E+02 -0.67054160266E+03 -0.27323097425E+03  0.74519874967E+03  0.15294330000E+03 0.  0.
<mgrwt>
<rscale>  0 0.87387642E+03</rscale>
<asrwt>0</asrwt>
<pdfrwt beam="1">  1        1 0.26579680E+00 0.94397276E+03</pdfrwt>
<pdfrwt beam="2">  1       -1 0.10131627E+00 0.94397276E+03</pdfrwt>
<totfact> 0.42851566E+00</totfact>
</mgrwt>
</event>
<event>
 4    1  0.1521315E-007  0.6589701E+03  0.7818608E-02  0.1025237E+00
          1   -1    0    0  501    0  0.00000000000E+00  0.00000000000E+00  0.39227901325E+03  0.39227901329E+03  0.50400000000E-02 0. -1.
         -1   -1    0    0    0  501 -0.00000000000E+00 -0.00000000000E+00 -0.42169284425E+03  0.42169284428E+03  0.50400000000E-02 0.  1.
    8880023    1    1    2    0    0  0.17480683803E+02 -0.11216158382E+02 -0.18277465540E+02  0.65922351940E+03  0.65864270000E+03 0.  0.
    8880022    1    1    2    0    0 -0.17480683803E+02  0.11216158382E+02 -0.11136365454E+02  0.15474833817E+03  0.15294330000E+03 0. -1.
<mgrwt>
<rscale>  0 0.45843092E+03</rscale>
<asrwt>0</asrwt>
<pdfrwt beam="1">  1        1 0.60350618E-01 0.65897009E+03</pdfrwt>
<pdfrwt beam="2">  1       -1 0.64875822E-01 0.65897009E+03</pdfrwt>
<totfact> 0.15135554E+02</totfact>
</mgrwt>
</event>
<event>
 4    1  0.1521315E-007  0.1305946E+04  0.7818608E-02  0.9060442E-01
          1   -1    0    0  501    0  0.00000000000E+00  0.00000000000E+00  0.21030697704E+04  0.21030697704E+04  0.50400000000E-02 0. -1.
         -1   -1    0    0    0  501 -0.00000000000E+00 -0.00000000000E+00 -0.91255054324E+03  0.91255054326E+03  0.50400000000E-02 0.  1.
    8880023    1    1    2    0    0 -0.54896383356E+02  0.11263532148E+04  0.13361018046E+04  0.18683317200E+04  0.65864270000E+03 0.  0.
    8880022    1    1    2    0    0  0.54896383356E+02 -0.11263532148E+04 -0.14558257739E+03  0.11472885937E+04  0.15294330000E+03 0.  0.
<mgrwt>
<rscale>  0 0.12617720E+04</rscale>
<asrwt>0</asrwt>
<pdfrwt beam="1">  1        1 0.32354919E+00 0.13059462E+04</pdfrwt>
<pdfrwt beam="2">  1       -1 0.14039239E+00 0.13059462E+04</pdfrwt>
<totfact> 0.10249516E+00</totfact>
</mgrwt>
</event>
<event>
 4    1  0.1521315E-007  0.8597102E+03  0.7818608E-02  0.9594079E-01
         -1   -1    0    0    0  501 -0.00000000000E+00  0.00000000000E+00  0.96055583486E+03  0.96055583487E+03  0.50400000000E-02 0.  1.
          1   -1    0    0  501    0  0.00000000000E+00 -0.00000000000E+00 -0.11145265969E+04  0.11145265969E+04  0.50400000000E-02 0. -1.
    8880023    1    1    2    0    0  0.80275406961E+02 -0.54666925383E+03 -0.82566802610E+03  0.11919854486E+04  0.65864270000E+03 0.  0.
    8880022    1    1    2    0    0 -0.80275406961E+02  0.54666925383E+03  0.67169726410E+03  0.88309698316E+03  0.15294330000E+03 0.  0.
<mgrwt>
<rscale>  0 0.77689303E+03</rscale>
<asrwt>0</asrwt>
<pdfrwt beam="1">  1        1 0.17146563E+00 0.85971020E+03</pdfrwt>
<pdfrwt beam="2">  1       -1 0.14777782E+00 0.85971020E+03</pdfrwt>
<totfact> 0.45851071E+00</totfact>
</mgrwt>
</event>
<event>
 4    1  0.1521315E-007  0.6870241E+03  0.7818608E-02  0.1005600E+00
         -1   -1    0    0    0  501 -0.00000000000E+00  0.00000000000E+00  0.46199490314E+03  0.46199490317E+03  0.50400000000E-02 0.  1.
          1   -1    0    0  501    0  0.00000000000E+00 -0.00000000000E+00 -0.54253501426E+03  0.54253501428E+03  0.50400000000E-02 0. -1.
    8880023    1    1    2    0    0 -0.17450468650E+03 -0.87977572399E+02 -0.21807675446E+03  0.72080483902E+03  0.65864270000E+03 0.  0.
    8880022    1    1    2    0    0  0.17450468650E+03  0.87977572399E+02  0.13753664334E+03  0.28372507843E+03  0.15294330000E+03 0. -1.
<mgrwt>
<rscale>  0 0.53261343E+03</rscale>
<asrwt>0</asrwt>
<pdfrwt beam="1">  1        1 0.83466926E-01 0.68702412E+03</pdfrwt>
<pdfrwt beam="2">  1       -1 0.71076139E-01 0.68702412E+03</pdfrwt>
<totfact> 0.80968051E+01</totfact>
</mgrwt>
</event>
<event>
 4    1  0.1521315E-007  0.7112292E+03  0.7818608E-02  0.9953464E-01
          1   -1    0    0  501    0  0.00000000000E+00  0.00000000000E+00  0.99078136962E+03  0.99078136964E+03  0.50400000000E-02 0. -1.
         -1   -1    0    0    0  501 -0.00000000000E+00 -0.00000000000E+00 -0.28616562195E+03  0.28616562200E+03  0.50400000000E-02 0.  1.
    8880023    1    1    2    0    0  0.26104828684E+03  0.62374306984E+02  0.64946672974E+03  0.96314796451E+03  0.65864270000E+03 0.  0.
    8880022    1    1    2    0    0 -0.26104828684E+03 -0.62374306984E+02  0.55149017934E+02  0.31379902713E+03  0.15294330000E+03 0.  0.
<mgrwt>
<rscale>  0 0.57738686E+03</rscale>
<asrwt>0</asrwt>
<pdfrwt beam="1">  1        1 0.15242790E+00 0.71122920E+03</pdfrwt>
<pdfrwt beam="2">  1       -1 0.44025480E-01 0.71122920E+03</pdfrwt>
<totfact> 0.80397249E+01</totfact>
</mgrwt>
</event>
<event>
 4    1  0.1521315E-007  0.8375959E+03  0.7818608E-02  0.9634730E-01
          1   -1    0    0  501    0  0.00000000000E+00  0.00000000000E+00  0.69099268232E+03  0.69099268234E+03  0.50400000000E-02 0. -1.
         -1   -1    0    0    0  501 -0.00000000000E+00 -0.00000000000E+00 -0.76478870894E+03  0.76478870896E+03  0.50400000000E-02 0.  1.
    8880023    1    1    2    0    0  0.26013962884E+03 -0.44730750495E+03 -0.27245036129E+03  0.88079284517E+03  0.65864270000E+03 0.  1.
    8880022    1    1    2    0    0 -0.26013962884E+03  0.44730750495E+03  0.19865433467E+03  0.57498854612E+03  0.15294330000E+03 0.  0.
<mgrwt>
<rscale>  0 0.75039542E+03</rscale>
<asrwt>0</asrwt>
<pdfrwt beam="1">  1        1 0.10630657E+00 0.83759587E+03</pdfrwt>
<pdfrwt beam="2">  1       -1 0.11765980E+00 0.83759587E+03</pdfrwt>
<totfact> 0.18365875E+01</totfact>
</mgrwt>
</event>
<event>
 4    1  0.1521315E-007  0.7933062E+03  0.7818608E-02  0.9725461E-01
         -1   -1    0    0    0  501 -0.00000000000E+00  0.00000000000E+00  0.23138334643E+03  0.23138334648E+03  0.50400000000E-02 0.  1.
          1   -1    0    0  501    0  0.00000000000E+00 -0.00000000000E+00 -0.48322504438E+04  0.48322504438E+04  0.50400000000E-02 0. -1.
    8880023    1    1    2    0    0 -0.43792352667E+03  0.61216481883E+02 -0.45196604032E+04  0.45887541707E+04  0.65864270000E+03 0. -1.
    8880022    1    1    2    0    0  0.43792352667E+03 -0.61216481883E+02 -0.81206694152E+02  0.47487961954E+03  0.15294330000E+03 0.  0.
<mgrwt>
<rscale>  0 0.69520893E+03</rscale>
<asrwt>0</asrwt>
<pdfrwt beam="1">  1        1 0.74342307E+00 0.79330617E+03</pdfrwt>
<pdfrwt beam="2">  1       -1 0.35597442E-01 0.79330617E+03</pdfrwt>
<totfact> 0.11954000E-01</totfact>
</mgrwt>
</event>
<event>
 4    1  0.1521315E-007  0.1008494E+04  0.7818608E-02  0.9370528E-01
         -1   -1    0    0    0  501 -0.00000000000E+00  0.00000000000E+00  0.65458880750E+03  0.65458880752E+03  0.50400000000E-02 0.  1.
          1   -1    0    0  501    0  0.00000000000E+00 -0.00000000000E+00 -0.22830925370E+04  0.22830925370E+04  0.50400000000E-02 0. -1.
    8880023    1    1    2    0    0 -0.61935313687E+03  0.44682381469E+03 -0.18679755767E+04  0.21228266041E+04  0.65864270000E+03 0. -1.
    8880022    1    1    2    0    0  0.61935313687E+03 -0.44682381469E+03  0.23947184716E+03  0.81485474050E+03  0.15294330000E+03 0.  0.
<mgrwt>
<rscale>  0 0.94541281E+03</rscale>
<asrwt>0</asrwt>
<pdfrwt beam="1">  1        1 0.35124500E+00 0.10084939E+04</pdfrwt>
<pdfrwt beam="2">  1       -1 0.10070597E+00 0.10084939E+04</pdfrwt>
<totfact> 0.18175132E+00</totfact>
</mgrwt>
</event>
<event>
 4    1  0.1521315E-007  0.1363720E+04  0.7818608E-02  0.9012399E-01
         -1   -1    0    0    0  501 -0.00000000000E+00  0.00000000000E+00  0.20912380416E+04  0.20912380416E+04  0.50400000000E-02 0.  1.
          1   -1    0    0  501    0  0.00000000000E+00 -0.00000000000E+00 -0.92618211125E+03  0.92618211127E+03  0.50400000000E-02 0. -1.
    8880023    1    1    2    0    0  0.43797543334E+03  0.11108998331E+04  0.11949367710E+04  0.18131753949E+04  0.65864270000E+03 0.  0.
    8880022    1    1    2    0    0 -0.43797543334E+03 -0.11108998331E+04 -0.29880840743E+02  0.12042447580E+04  0.15294330000E+03 0.  0.
<mgrwt>
<rscale>  0 0.13218710E+04</rscale>
<asrwt>0</asrwt>
<pdfrwt beam="1">  1        1 0.14248956E+00 0.13637196E+04</pdfrwt>
<pdfrwt beam="2">  1       -1 0.32172893E+00 0.13637196E+04</pdfrwt>
<totfact> 0.39974677E-01</totfact>
</mgrwt>
</event>
<event>
 4    1  0.1521315E-007  0.7133878E+03  0.7818608E-02  0.9945629E-01
         -1   -1    0    0    0  501 -0.00000000000E+00  0.00000000000E+00  0.20060440759E+03  0.20060440765E+03  0.50400000000E-02 0.  1.
          1   -1    0    0  501    0  0.00000000000E+00 -0.00000000000E+00 -0.15097577632E+04  0.15097577632E+04  0.50400000000E-02 0. -1.
    8880023    1    1    2    0    0 -0.24966473278E+03 -0.11304621982E+03 -0.11624950710E+04  0.13639343543E+04  0.65864270000E+03 0.  0.
    8880022    1    1    2    0    0  0.24966473278E+03  0.11304621982E+03 -0.14665828465E+03  0.34642781655E+03  0.15294330000E+03 0.  0.
<mgrwt>
<rscale>  0 0.58099949E+03</rscale>
<asrwt>0</asrwt>
<pdfrwt beam="1">  1        1 0.23227042E+00 0.71338779E+03</pdfrwt>
<pdfrwt beam="2">  1       -1 0.30862217E-01 0.71338779E+03</pdfrwt>
<totfact> 0.64390785E+01</totfact>
</mgrwt>
</event>
<event>
 4    1  0.1521315E-007  0.8619042E+03  0.7818608E-02  0.9590185E-01
         -1   -1    0    0    0  501 -0.00000000000E+00  0.00000000000E+00  0.38201754770E+03  0.38201754773E+03  0.50400000000E-02 0.  1.
          1   -1    0    0  501    0  0.00000000000E+00 -0.00000000000E+00 -0.15495755526E+04  0.15495755526E+04  0.50400000000E-02 0. -1.
    8880023    1    1    2    0    0 -0.43173934859E+03 -0.35024242202E+03 -0.34795339115E+03  0.92948931569E+03  0.65864270000E+03 0.  0.
    8880022    1    1    2    0    0  0.43173934859E+03  0.35024242202E+03 -0.81960461372E+03  0.10021037846E+04  0.15294330000E+03 0.  0.
<mgrwt>
<rscale>  0 0.77949209E+03</rscale>
<asrwt>0</asrwt>
<pdfrwt beam="1">  1        1 0.23839624E+00 0.86190419E+03</pdfrwt>
<pdfrwt beam="2">  1       -1 0.58771931E-01 0.86190419E+03</pdfrwt>
<totfact> 0.18113142E+01</totfact>
</mgrwt>
</event>
<event>
 4    1  0.1521315E-007  0.7657766E+03  0.7818608E-02  0.9790376E-01
         -1   -1    0    0    0  501 -0.00000000000E+00  0.00000000000E+00  0.65331660332E+03  0.65331660334E+03  0.50400000000E-02 0.  1.
          1   -1    0    0  501    0  0.00000000000E+00 -0.00000000000E+00 -0.13825269169E+04  0.13825269169E+04  0.50400000000E-02 0. -1.
    8880023    1    1    2    0    0  0.39090553770E+02 -0.38868442175E+03 -0.11884719656E+04  0.14138173398E+04  0.65864270000E+03 0. -1.
    8880022    1    1    2    0    0 -0.39090553770E+02  0.38868442175E+03  0.45926165201E+03  0.62202618042E+03  0.15294330000E+03 0.  0.
<mgrwt>
<rscale>  0 0.65881612E+03</rscale>
<asrwt>0</asrwt>
<pdfrwt beam="1">  1        1 0.21269645E+00 0.76577664E+03</pdfrwt>
<pdfrwt beam="2">  1       -1 0.10051025E+00 0.76577664E+03</pdfrwt>
<totfact> 0.77112732E+00</totfact>
</mgrwt>
</event>
<event>
 4    1  0.1521315E-007  0.7089660E+03  0.7818608E-02  0.9961861E-01
         -1   -1    0    0    0  501 -0.00000000000E+00  0.00000000000E+00  0.16725216370E+04  0.16725216370E+04  0.50400000000E-02 0.  1.
          1   -1    0    0  501    0  0.00000000000E+00 -0.00000000000E+00 -0.24321622548E+03  0.24321622553E+03  0.50400000000E-02 0. -1.
    8880023    1    1    2    0    0 -0.19215793262E+02 -0.26163600349E+03  0.34260780616E+03  0.78740901705E+03  0.65864270000E+03 0. -1.
    8880022    1    1    2    0    0  0.19215793262E+02  0.26163600349E+03  0.10866976054E+04  0.11283288455E+04  0.15294330000E+03 0.  0.
<mgrwt>
<rscale>  0 0.57354680E+03</rscale>
<asrwt>0</asrwt>
<pdfrwt beam="1">  1        1 0.37417881E-01 0.70896604E+03</pdfrwt>
<pdfrwt beam="2">  1       -1 0.25731102E+00 0.70896604E+03</pdfrwt>
<totfact> 0.75094856E+00</totfact>
</mgrwt>
</event>
<event>
 4    1  0.1521315E-007  0.8062454E+03  0.7818608E-02  0.9697451E-01
          1   -1    0    0  501    0  0.00000000000E+00  0.00000000000E+00  0.15276934248E+04  0.15276934248E+04  0.50400000000E-02 0. -1.
         -1   -1    0    0    0  501 -0.00000000000E+00 -0.00000000000E+00 -0.63721722464E+03  0.63721722466E+03  0.50400000000E-02 0.  1.
    8880023    1    1    2    0    0 -0.42787681681E+03 -0.18205172974E+03  0.12979709873E+04  0.15279922424E+04  0.65864270000E+03 0. -1.
    8880022    1    1    2    0    0  0.42787681681E+03  0.18205172974E+03 -0.40749478717E+03  0.63691840706E+03  0.15294330000E+03 0.  0.
<mgrwt>
<rscale>  0 0.71168734E+03</rscale>
<asrwt>0</asrwt>
<pdfrwt beam="1">  1        1 0.23502975E+00 0.80624538E+03</pdfrwt>
<pdfrwt beam="2">  1       -1 0.98033420E-01 0.80624538E+03</pdfrwt>
<totfact> 0.64419349E+00</totfact>
</mgrwt>
</event>
<event>
 4    1  0.1521315E-007  0.9438992E+03  0.7818608E-02  0.9458947E-01
         -1   -1    0    0    0  501 -0.00000000000E+00  0.00000000000E+00  0.63976563586E+03  0.63976563588E+03  0.50400000000E-02 0.  1.
          1   -1    0    0  501    0  0.00000000000E+00 -0.00000000000E+00 -0.13613007306E+04  0.13613007306E+04  0.50400000000E-02 0. -1.
    8880023    1    1    2    0    0 -0.63897613278E+03  0.22100919204E+03 -0.87944827865E+03  0.12901066011E+04  0.65864270000E+03 0.  0.
    8880022    1    1    2    0    0  0.63897613278E+03 -0.22100919204E+03  0.15791318394E+03  0.71095976532E+03  0.15294330000E+03 0.  0.
<mgrwt>
<rscale>  0 0.87379383E+03</rscale>
<asrwt>0</asrwt>
<pdfrwt beam="1">  1        1 0.20943088E+00 0.94389924E+03</pdfrwt>
<pdfrwt beam="2">  1       -1 0.98425482E-01 0.94389924E+03</pdfrwt>
<totfact> 0.81746236E+00</totfact>
</mgrwt>
</event>
<event>
 4    1  0.1521315E-007  0.8988674E+03  0.7818608E-02  0.9527852E-01
         -1   -1    0    0    0  501 -0.00000000000E+00  0.00000000000E+00  0.75715381965E+03  0.75715381967E+03  0.50400000000E-02 0.  1.
          1   -1    0    0  501    0  0.00000000000E+00 -0.00000000000E+00 -0.18477607326E+04  0.18477607326E+04  0.50400000000E-02 0. -1.
    8880023    1    1    2    0    0 -0.31640420747E+03 -0.52348899486E+03 -0.15725418697E+04  0.18113118142E+04  0.65864270000E+03 0. -1.
    8880022    1    1    2    0    0  0.31640420747E+03  0.52348899486E+03  0.48193495674E+03  0.79360273802E+03  0.15294330000E+03 0.  0.
<mgrwt>
<rscale>  0 0.82261167E+03</rscale>
<asrwt>0</asrwt>
<pdfrwt beam="1">  1        1 0.28427088E+00 0.89886737E+03</pdfrwt>
<pdfrwt beam="2">  1       -1 0.11648520E+00 0.89886737E+03</pdfrwt>
<totfact> 0.25767956E+00</totfact>
</mgrwt>
</event>
<event>
 4    1  0.1521315E-007  0.6885412E+03  0.7818608E-02  0.1004854E+00
          1   -1    0    0  501    0  0.00000000000E+00  0.00000000000E+00  0.91988307137E+03  0.91988307138E+03  0.50400000000E-02 0. -1.
         -1   -1    0    0    0  501 -0.00000000000E+00 -0.00000000000E+00 -0.31057398350E+03  0.31057398354E+03  0.50400000000E-02 0.  1.
    8880023    1    1    2    0    0  0.16638764400E+03  0.11222252184E+03  0.68070689194E+03  0.96822044054E+03  0.65864270000E+03 0. -1.
    8880022    1    1    2    0    0 -0.16638764400E+03 -0.11222252184E+03 -0.71397804073E+02  0.26223661438E+03  0.15294330000E+03 0.  0.
<mgrwt>
<rscale>  0 0.53572218E+03</rscale>
<asrwt>0</asrwt>
<pdfrwt beam="1">  1        1 0.14152047E+00 0.68854117E+03</pdfrwt>
<pdfrwt beam="2">  1       -1 0.47780612E-01 0.68854117E+03</pdfrwt>
<totfact> 0.78701929E+01</totfact>
</mgrwt>
</event>
<event>
 4    1  0.1722102E-007  0.1014686E+04  0.7818608E-02  0.9362591E-01
          1   -1    0    0  501    0  0.00000000000E+00  0.00000000000E+00  0.31203303970E+04  0.31203303970E+04  0.50400000000E-02 0. -1.
         -1   -1    0    0    0  501 -0.00000000000E+00 -0.00000000000E+00 -0.10361818340E+04  0.10361818340E+04  0.50400000000E-02 0.  1.
    8880023    1    1    2    0    0  0.33995068464E+03 -0.69297251944E+03  0.28702044969E+04  0.30442834035E+04  0.65864270000E+03 0. -1.
    8880022    1    1    2    0    0 -0.33995068464E+03  0.69297251944E+03 -0.78605593384E+03  0.11122288275E+04  0.15294330000E+03 0.  0.
<mgrwt>
<rscale>  0 0.95219279E+03</rscale>
<asrwt>0</asrwt>
<pdfrwt beam="1">  1        1 0.48005083E+00 0.10146860E+04</pdfrwt>
<pdfrwt beam="2">  1       -1 0.15941259E+00 0.10146860E+04</pdfrwt>
<totfact> 0.14789748E-01</totfact>
</mgrwt>
</event>
<event>
 4    1  0.1521315E-007  0.7060701E+03  0.7818608E-02  0.9972894E-01
         -1   -1    0    0    0  501 -0.00000000000E+00  0.00000000000E+00  0.10053843175E+04  0.10053843175E+04  0.50400000000E-02 0.  1.
          1   -1    0    0  501    0  0.00000000000E+00 -0.00000000000E+00 -0.25053208105E+03  0.25053208110E+03  0.50400000000E-02 0. -1.
    8880023    1    1    2    0    0  0.32922737653E+02 -0.25227146689E+03  0.50770830239E+03  0.86965667147E+03  0.65864270000E+03 0. -1.
    8880022    1    1    2    0    0 -0.32922737653E+02  0.25227146689E+03  0.24714393409E+03  0.38625972717E+03  0.15294330000E+03 0. -1.
<mgrwt>
<rscale>  0 0.56854913E+03</rscale>
<asrwt>0</asrwt>
<pdfrwt beam="1">  1        1 0.38543397E-01 0.70607011E+03</pdfrwt>
<pdfrwt beam="2">  1       -1 0.15467451E+00 0.70607011E+03</pdfrwt>
<totfact> 0.36501752E+01</totfact>
</mgrwt>
</event>
<event>
 4    1  0.1521315E-007  0.7238831E+03  0.7818608E-02  0.9909659E-01
         -1   -1    0    0    0  501 -0.00000000000E+00  0.00000000000E+00  0.11937020361E+04  0.11937020362E+04  0.50400000000E-02 0.  1.
          1   -1    0    0  501    0  0.00000000000E+00 -0.00000000000E+00 -0.10290351820E+04  0.10290351820E+04  0.50400000000E-02 0. -1.
    8880023    1    1    2    0    0 -0.19443534137E+03  0.22889166913E+03 -0.87162292737E+03  0.11330195197E+04  0.65864270000E+03 0. -1.
    8880022    1    1    2    0    0  0.19443534137E+03 -0.22889166913E+03  0.10362897815E+04  0.10897176985E+04  0.15294330000E+03 0.  0.
<mgrwt>
<rscale>  0 0.59795423E+03</rscale>
<asrwt>0</asrwt>
<pdfrwt beam="1">  1        1 0.15831311E+00 0.72388307E+03</pdfrwt>
<pdfrwt beam="2">  1       -1 0.18364647E+00 0.72388307E+03</pdfrwt>
<totfact> 0.29427950E+00</totfact>
</mgrwt>
</event>
<event>
 4    1  0.1521315E-007  0.6903929E+03  0.7818608E-02  0.1003966E+00
          1   -1    0    0  501    0  0.00000000000E+00  0.00000000000E+00  0.35776715622E+03  0.35776715625E+03  0.50400000000E-02 0. -1.
         -1   -1    0    0    0  501 -0.00000000000E+00 -0.00000000000E+00 -0.18417650224E+04  0.18417650224E+04  0.50400000000E-02 0.  1.
    8880023    1    1    2    0    0 -0.14412159365E+03  0.14853003922E+03  0.30318200013E+01  0.69039959770E+03  0.65864270000E+03 0.  0.
    8880022    1    1    2    0    0  0.14412159365E+03 -0.14853003922E+03 -0.14870296861E+04  0.15091325809E+04  0.15294330000E+03 0.  1.
<mgrwt>
<rscale>  0 0.53944735E+03</rscale>
<asrwt>0</asrwt>
<pdfrwt beam="1">  1        1 0.55041102E-01 0.69039294E+03</pdfrwt>
<pdfrwt beam="2">  1       -1 0.28334846E+00 0.69039294E+03</pdfrwt>
<totfact> 0.31123988E+00</totfact>
</mgrwt>
</event>
<event>
 4    1  0.1521315E-007  0.7845169E+03  0.7818608E-02  0.9745332E-01
         -1   -1    0    0    0  501 -0.00000000000E+00  0.00000000000E+00  0.94139386726E+03  0.94139386728E+03  0.50400000000E-02 0.  1.
          1   -1    0    0  501    0  0.00000000000E+00 -0.00000000000E+00 -0.79411153820E+03  0.79411153821E+03  0.50400000000E-02 0. -1.
    8880023    1    1    2    0    0  0.42425443023E+03 -0.40801944417E+02 -0.51118500442E+03  0.93636367681E+03  0.65864270000E+03 0.  0.
    8880022    1    1    2    0    0 -0.42425443023E+03  0.40801944417E+02  0.65846733349E+03  0.79914172868E+03  0.15294330000E+03 0.  0.
<mgrwt>
<rscale>  0 0.68380734E+03</rscale>
<asrwt>0</asrwt>
<pdfrwt beam="1">  1        1 0.12217101E+00 0.78451694E+03</pdfrwt>
<pdfrwt beam="2">  1       -1 0.14482983E+00 0.78451694E+03</pdfrwt>
<totfact> 0.88081366E+00</totfact>
</mgrwt>
</event>
<event>
 4    1  0.1521315E-007  0.8590185E+03  0.7818608E-02  0.9595312E-01
         -1   -1    0    0    0  501 -0.00000000000E+00  0.00000000000E+00  0.10018165722E+04  0.10018165722E+04  0.50400000000E-02 0.  1.
          1   -1    0    0  501    0  0.00000000000E+00 -0.00000000000E+00 -0.15349983330E+04  0.15349983330E+04  0.50400000000E-02 0. -1.
    8880023    1    1    2    0    0 -0.55109636792E+03 -0.19881771072E+02 -0.13133084177E+04  0.15692965615E+04  0.65864270000E+03 0.  0.
    8880022    1    1    2    0    0  0.55109636792E+03  0.19881771072E+02  0.78012665695E+03  0.96751834373E+03  0.15294330000E+03 0.  0.
<mgrwt>
<rscale>  0 0.77607253E+03</rscale>
<asrwt>0</asrwt>
<pdfrwt beam="1">  1        1 0.23615359E+00 0.85901845E+03</pdfrwt>
<pdfrwt beam="2">  1       -1 0.15412563E+00 0.85901845E+03</pdfrwt>
<totfact> 0.20601270E+00</totfact>
</mgrwt>
</event>
<event>
 4    1  0.1521315E-007  0.6640141E+03  0.7818608E-02  0.1020375E+00
          1   -1    0    0  501    0  0.00000000000E+00  0.00000000000E+00  0.32766004156E+03  0.32766004160E+03  0.50400000000E-02 0. -1.
         -1   -1    0    0    0  501 -0.00000000000E+00 -0.00000000000E+00 -0.11209809184E+04  0.11209809185E+04  0.50400000000E-02 0.  1.
    8880023    1    1    2    0    0 -0.37905296798E+02  0.75284188017E+02 -0.29024761193E+02  0.66464815016E+03  0.65864270000E+03 0. -1.
    8880022    1    1    2    0    0  0.37905296798E+02 -0.75284188017E+02 -0.76429611568E+03  0.78399280989E+03  0.15294330000E+03 0.  0.
<mgrwt>
<rscale>  0 0.47551437E+03</rscale>
<asrwt>0</asrwt>
<pdfrwt beam="1">  1        1 0.50409238E-01 0.66401410E+03</pdfrwt>
<pdfrwt beam="2">  1       -1 0.17245860E+00 0.66401410E+03</pdfrwt>
<totfact> 0.19102249E+01</totfact>
</mgrwt>
</event>
<event>
 4    1  0.1521315E-007  0.7511883E+03  0.7818608E-02  0.9828478E-01
         -1   -1    0    0    0  501 -0.00000000000E+00  0.00000000000E+00  0.20130566712E+04  0.20130566712E+04  0.50400000000E-02 0.  1.
          1   -1    0    0  501    0  0.00000000000E+00 -0.00000000000E+00 -0.24941613724E+03  0.24941613729E+03  0.50400000000E-02 0. -1.
    8880023    1    1    2    0    0  0.36093477473E+03  0.14135566492E+02  0.41553608237E+03  0.85846034729E+03  0.65864270000E+03 0.  0.
    8880022    1    1    2    0    0 -0.36093477473E+03 -0.14135566492E+02  0.13481044516E+04  0.14040124612E+04  0.15294330000E+03 0.  0.
<mgrwt>
<rscale>  0 0.63856373E+03</rscale>
<asrwt>0</asrwt>
<pdfrwt beam="1">  1        1 0.38371712E-01 0.75118835E+03</pdfrwt>
<pdfrwt beam="2">  1       -1 0.30970104E+00 0.75118835E+03</pdfrwt>
<totfact> 0.33413534E+00</totfact>
</mgrwt>
</event>
<event>
 4    1  0.2291971E-007  0.6731979E+03  0.7818608E-02  0.1013467E+00
         -1   -1    0    0    0  501 -0.00000000000E+00  0.00000000000E+00  0.13116897415E+04  0.13116897415E+04  0.50400000000E-02 0.  1.
          1   -1    0    0  501    0  0.00000000000E+00 -0.00000000000E+00 -0.15981323476E+04  0.15981323476E+04  0.50400000000E-02 0. -1.
    8880023    1    1    2    0    0 -0.18184800614E+02  0.13803827702E+03 -0.15182317495E+04  0.16607899038E+04  0.65864270000E+03 0. -1.
    8880022    1    1    2    0    0  0.18184800614E+02 -0.13803827702E+03  0.12317891435E+04  0.12490321853E+04  0.15294330000E+03 0.  0.
<mgrwt>
<rscale>  0 0.50119676E+03</rscale>
<asrwt>0</asrwt>
<pdfrwt beam="1">  1        1 0.24586651E+00 0.67319793E+03</pdfrwt>
<pdfrwt beam="2">  1       -1 0.20179842E+00 0.67319793E+03</pdfrwt>
<totfact> 0.87896526E-01</totfact>
</mgrwt>
</event>
<event>
 4    1  0.1521315E-007  0.8288219E+03  0.7818608E-02  0.9651629E-01
         -1   -1    0    0    0  501 -0.00000000000E+00  0.00000000000E+00  0.32237918070E+03  0.32237918074E+03  0.50400000000E-02 0.  1.
          1   -1    0    0  501    0  0.00000000000E+00 -0.00000000000E+00 -0.22860002056E+04  0.22860002056E+04  0.50400000000E-02 0. -1.
    8880023    1    1    2    0    0 -0.31889994145E+03 -0.38915085646E+03 -0.19071922512E+04  0.20795018757E+04  0.65864270000E+03 0. -1.
    8880022    1    1    2    0    0  0.31889994145E+03  0.38915085646E+03 -0.56428773686E+02  0.52887751063E+03  0.15294330000E+03 0.  0.
<mgrwt>
<rscale>  0 0.73971284E+03</rscale>
<asrwt>0</asrwt>
<pdfrwt beam="1">  1        1 0.35169233E+00 0.82882192E+03</pdfrwt>
<pdfrwt beam="2">  1       -1 0.49596799E-01 0.82882192E+03</pdfrwt>
<totfact> 0.80566288E+00</totfact>
</mgrwt>
</event>
<event>
 4    1  0.1521315E-007  0.9118863E+03  0.7818608E-02  0.9507213E-01
          1   -1    0    0  501    0  0.00000000000E+00  0.00000000000E+00  0.11701572816E+04  0.11701572816E+04  0.50400000000E-02 0. -1.
         -1   -1    0    0    0  501 -0.00000000000E+00 -0.00000000000E+00 -0.69289713779E+03  0.69289713781E+03  0.50400000000E-02 0.  1.
    8880023    1    1    2    0    0 -0.59742971296E+03 -0.20200043979E+03  0.72852740306E+03  0.11671712911E+04  0.65864270000E+03 0.  0.
    8880022    1    1    2    0    0  0.59742971296E+03  0.20200043979E+03 -0.25126725926E+03  0.69588312826E+03  0.15294330000E+03 0.  0.
<mgrwt>
<rscale>  0 0.83754087E+03</rscale>
<asrwt>0</asrwt>
<pdfrwt beam="1">  1        1 0.18002420E+00 0.91188631E+03</pdfrwt>
<pdfrwt beam="2">  1       -1 0.10659956E+00 0.91188631E+03</pdfrwt>
<totfact> 0.93578884E+00</totfact>
</mgrwt>
</event>
<event>
 4    1  0.1521315E-007  0.7637086E+03  0.7818608E-02  0.9795599E-01
         -1   -1    0    0    0  501 -0.00000000000E+00  0.00000000000E+00  0.58327588445E+03  0.58327588447E+03  0.50400000000E-02 0.  1.
          1   -1    0    0  501    0  0.00000000000E+00 -0.00000000000E+00 -0.40999239901E+04  0.40999239901E+04  0.50400000000E-02 0. -1.
    8880023    1    1    2    0    0 -0.35289596228E+03  0.15781342705E+03 -0.39846714166E+04  0.40571981888E+04  0.65864270000E+03 0.  0.
    8880022    1    1    2    0    0  0.35289596228E+03 -0.15781342705E+03  0.46802331102E+03  0.62600168580E+03  0.15294330000E+03 0.  1.
<mgrwt>
<rscale>  0 0.65599250E+03</rscale>
<asrwt>0</asrwt>
<pdfrwt beam="1">  1        1 0.63075752E+00 0.76370861E+03</pdfrwt>
<pdfrwt beam="2">  1       -1 0.89734754E-01 0.76370861E+03</pdfrwt>
<totfact> 0.10643114E-01</totfact>
</mgrwt>
</event>
<event>
 4    1  0.1521315E-007  0.7142575E+03  0.7818608E-02  0.9942518E-01
          1   -1    0    0  501    0  0.00000000000E+00  0.00000000000E+00  0.77850638803E+03  0.77850638804E+03  0.50400000000E-02 0. -1.
         -1   -1    0    0    0  501 -0.00000000000E+00 -0.00000000000E+00 -0.14358632888E+04  0.14358632888E+04  0.50400000000E-02 0.  1.
    8880023    1    1    2    0    0 -0.40601760956E+02 -0.27332227680E+03  0.59076308882E+03  0.92691143232E+03  0.65864270000E+03 0.  0.
    8880022    1    1    2    0    0  0.40601760956E+02  0.27332227680E+03 -0.12481199895E+04  0.12874582445E+04  0.15294330000E+03 0.  0.
<mgrwt>
<rscale>  0 0.58244191E+03</rscale>
<asrwt>0</asrwt>
<pdfrwt beam="1">  1        1 0.11977021E+00 0.71425750E+03</pdfrwt>
<pdfrwt beam="2">  1       -1 0.22090204E+00 0.71425750E+03</pdfrwt>
<totfact> 0.26278940E+00</totfact>
</mgrwt>
</event>
<event>
 4    1  0.1521315E-007  0.6969053E+03  0.7818608E-02  0.1001029E+00
         -1   -1    0    0    0  501 -0.00000000000E+00  0.00000000000E+00  0.32080749987E+03  0.32080749991E+03  0.50400000000E-02 0.  1.
          1   -1    0    0  501    0  0.00000000000E+00 -0.00000000000E+00 -0.81203688471E+03  0.81203688472E+03  0.50400000000E-02 0. -1.
    8880023    1    1    2    0    0  0.14627955911E+03  0.17455395637E+03 -0.50106172495E+03  0.85833551224E+03  0.65864270000E+03 0.  0.
    8880022    1    1    2    0    0 -0.14627955911E+03 -0.17455395637E+03  0.98323401132E+01  0.27450887239E+03  0.15294330000E+03 0.  0.
<mgrwt>
<rscale>  0 0.55201354E+03</rscale>
<asrwt>0</asrwt>
<pdfrwt beam="1">  1        1 0.12492875E+00 0.69690530E+03</pdfrwt>
<pdfrwt beam="2">  1       -1 0.49355000E-01 0.69690530E+03</pdfrwt>
<totfact> 0.90899864E+01</totfact>
</mgrwt>
</event>
<event>
 4    1  0.1521315E-007  0.9510523E+03  0.7818608E-02  0.9448602E-01
          1   -1    0    0  501    0  0.00000000000E+00  0.00000000000E+00  0.34796748979E+04  0.34796748979E+04  0.50400000000E-02 0. -1.
         -1   -1    0    0    0  501 -0.00000000000E+00 -0.00000000000E+00 -0.23736971804E+03  0.23736971810E+03  0.50400000000E-02 0.  1.
    8880023    1    1    2    0    0 -0.54849556843E+03 -0.41212005750E+03  0.10589572667E+04  0.14233379884E+04  0.65864270000E+03 0.  0.
    8880022    1    1    2    0    0  0.54849556843E+03  0.41212005750E+03  0.21833479132E+04  0.22937066276E+04  0.15294330000E+03 0.  0.
<mgrwt>
<rscale>  0 0.88181643E+03</rscale>
<asrwt>0</asrwt>
<pdfrwt beam="1">  1        1 0.53533458E+00 0.95105233E+03</pdfrwt>
<pdfrwt beam="2">  1       -1 0.36518419E-01 0.95105233E+03</pdfrwt>
<totfact> 0.19493149E+00</totfact>
</mgrwt>
</event>
<event>
 4    1  0.1521315E-007  0.7965235E+03  0.7818608E-02  0.9718364E-01
         -1   -1    0    0    0  501 -0.00000000000E+00  0.00000000000E+00  0.65126043687E+03  0.65126043689E+03  0.50400000000E-02 0.  1.
          1   -1    0    0  501    0  0.00000000000E+00 -0.00000000000E+00 -0.15013000346E+04  0.15013000346E+04  0.50400000000E-02 0. -1.
    8880023    1    1    2    0    0 -0.18882798197E+03 -0.40618148396E+03 -0.12836188645E+04  0.15106710431E+04  0.65864270000E+03 0.  0.
    8880022    1    1    2    0    0  0.18882798197E+03  0.40618148396E+03  0.43357926682E+03  0.64188942842E+03  0.15294330000E+03 0.  0.
<mgrwt>
<rscale>  0 0.69933853E+03</rscale>
<asrwt>0</asrwt>
<pdfrwt beam="1">  1        1 0.23096923E+00 0.79652345E+03</pdfrwt>
<pdfrwt beam="2">  1       -1 0.10019391E+00 0.79652345E+03</pdfrwt>
<totfact> 0.64002184E+00</totfact>
</mgrwt>
</event>
<event>
 4    1  0.1521315E-007  0.7877216E+03  0.7818608E-02  0.9738002E-01
         -1   -1    0    0    0  501 -0.00000000000E+00  0.00000000000E+00  0.38450064081E+03  0.38450064084E+03  0.50400000000E-02 0.  1.
          1   -1    0    0  501    0  0.00000000000E+00 -0.00000000000E+00 -0.22063691246E+04  0.22063691246E+04  0.50400000000E-02 0. -1.
    8880023    1    1    2    0    0  0.31132704600E+03  0.29961733367E+03 -0.19598242346E+04  0.21122065034E+04  0.65864270000E+03 0.  0.
    8880022    1    1    2    0    0 -0.31132704600E+03 -0.29961733367E+03  0.13795575084E+03  0.47866326202E+03  0.15294330000E+03 0.  0.
<mgrwt>
<rscale>  0 0.68798566E+03</rscale>
<asrwt>0</asrwt>
<pdfrwt beam="1">  1        1 0.33944140E+00 0.78772158E+03</pdfrwt>
<pdfrwt beam="2">  1       -1 0.59153946E-01 0.78772158E+03</pdfrwt>
<totfact> 0.65310468E+00</totfact>
</mgrwt>
</event>
<event>
 4    1  0.1521315E-007  0.9687880E+03  0.7818608E-02  0.9423582E-01
         -1   -1    0    0    0  501 -0.00000000000E+00  0.00000000000E+00  0.11155467427E+04  0.11155467427E+04  0.50400000000E-02 0.  1.
          1   -1    0    0  501    0  0.00000000000E+00 -0.00000000000E+00 -0.15075253613E+04  0.15075253613E+04  0.50400000000E-02 0. -1.
    8880023    1    1    2    0    0 -0.18310448560E+03 -0.68644932722E+03 -0.11960962268E+04  0.15392193870E+04  0.65864270000E+03 0.  0.
    8880022    1    1    2    0    0  0.18310448560E+03  0.68644932722E+03  0.80411760815E+03  0.10838527170E+04  0.15294330000E+03 0.  0.
<mgrwt>
<rscale>  0 0.90160087E+03</rscale>
<asrwt>0</asrwt>
<pdfrwt beam="1">  1        1 0.23192698E+00 0.96878797E+03</pdfrwt>
<pdfrwt beam="2">  1       -1 0.17162258E+00 0.96878797E+03</pdfrwt>
<totfact> 0.15639283E+00</totfact>
</mgrwt>
</event>
<event>
 4    1  0.1521315E-007  0.6659187E+03  0.7818608E-02  0.1018775E+00
         -1   -1    0    0    0  501 -0.00000000000E+00  0.00000000000E+00  0.47598285448E+02  0.47598285714E+02  0.50400000000E-02 0.  1.
          1   -1    0    0  501    0  0.00000000000E+00 -0.00000000000E+00 -0.40752181104E+04  0.40752181104E+04  0.50400000000E-02 0. -1.
    8880023    1    1    2    0    0  0.97615667654E+02 -0.10425964408E+02 -0.35472997036E+04  0.36092634862E+04  0.65864270000E+03 0. -1.
    8880022    1    1    2    0    0 -0.97615667654E+02  0.10425964408E+02 -0.48032012133E+03  0.51355290991E+03  0.15294330000E+03 0.  0.
<mgrwt>
<rscale>  0 0.48131359E+03</rscale>
<asrwt>0</asrwt>
<pdfrwt beam="1">  1        1 0.62695636E+00 0.66591871E+03</pdfrwt>
<pdfrwt beam="2">  1       -1 0.73228163E-02 0.66591871E+03</pdfrwt>
<totfact> 0.94628078E+00</totfact>
</mgrwt>
</event>
<event>
 4    1  0.1521315E-007  0.7686847E+03  0.7818608E-02  0.9783121E-01
         -1   -1    0    0    0  501 -0.00000000000E+00  0.00000000000E+00  0.21352147967E+03  0.21352147972E+03  0.50400000000E-02 0.  1.
          1   -1    0    0  501    0  0.00000000000E+00 -0.00000000000E+00 -0.25575181994E+04  0.25575181994E+04  0.50400000000E-02 0. -1.
    8880023    1    1    2    0    0 -0.33342288265E+03 -0.21423160337E+03 -0.59741628479E+03  0.97354117640E+03  0.65864270000E+03 0.  1.
    8880022    1    1    2    0    0  0.33342288265E+03  0.21423160337E+03 -0.17465804350E+04  0.17974985028E+04  0.15294330000E+03 0.  0.
<mgrwt>
<rscale>  0 0.66276276E+03</rscale>
<asrwt>0</asrwt>
<pdfrwt beam="1">  1        1 0.39346432E+00 0.76868472E+03</pdfrwt>
<pdfrwt beam="2">  1       -1 0.32849460E-01 0.76868472E+03</pdfrwt>
<totfact> 0.11276940E+01</totfact>
</mgrwt>
</event>
<event>
 4    1  0.1521315E-007  0.9326418E+03  0.7818608E-02  0.9475541E-01
         -1   -1    0    0    0  501 -0.00000000000E+00  0.00000000000E+00  0.10730455744E+04  0.10730455744E+04  0.50400000000E-02 0.  1.
          1   -1    0    0  501    0  0.00000000000E+00 -0.00000000000E+00 -0.86859058199E+03  0.86859058200E+03  0.50400000000E-02 0. -1.
    8880023    1    1    2    0    0  0.40154311101E+03 -0.52418858055E+03 -0.41741067608E+03  0.10217888318E+04  0.65864270000E+03 0. -1.
    8880022    1    1    2    0    0 -0.40154311101E+03  0.52418858055E+03  0.62186566848E+03  0.91984732463E+03  0.15294330000E+03 0.  0.
<mgrwt>
<rscale>  0 0.86111329E+03</rscale>
<asrwt>0</asrwt>
<pdfrwt beam="1">  1        1 0.13362932E+00 0.93264181E+03</pdfrwt>
<pdfrwt beam="2">  1       -1 0.16508393E+00 0.93264181E+03</pdfrwt>
<totfact> 0.52242819E+00</totfact>
</mgrwt>
</event>
<event>
 4    1  0.1521315E-007  0.8189631E+03  0.7818608E-02  0.9671201E-01
          1   -1    0    0  501    0  0.00000000000E+00  0.00000000000E+00  0.24333840940E+04  0.24333840940E+04  0.50400000000E-02 0. -1.
         -1   -1    0    0    0  501 -0.00000000000E+00 -0.00000000000E+00 -0.49186769577E+03  0.49186769580E+03  0.50400000000E-02 0.  1.
    8880023    1    1    2    0    0 -0.45983507653E+03  0.15950566665E+03  0.22041955195E+04  0.23514205175E+04  0.65864270000E+03 0. -1.
    8880022    1    1    2    0    0  0.45983507653E+03 -0.15950566665E+03 -0.26267912133E+03  0.57383127233E+03  0.15294330000E+03 0.  0.
<mgrwt>
<rscale>  0 0.72757668E+03</rscale>
<asrwt>0</asrwt>
<pdfrwt beam="1">  1        1 0.37436679E+00 0.81896310E+03</pdfrwt>
<pdfrwt beam="2">  1       -1 0.75671952E-01 0.81896310E+03</pdfrwt>
<totfact> 0.27692094E+00</totfact>
</mgrwt>
</event>
<event>
 4    1  0.1521315E-007  0.1049369E+04  0.7818608E-02  0.9319640E-01
         -1   -1    0    0    0  501 -0.00000000000E+00  0.00000000000E+00  0.10603286020E+04  0.10603286021E+04  0.50400000000E-02 0.  1.
          1   -1    0    0  501    0  0.00000000000E+00 -0.00000000000E+00 -0.13016284607E+04  0.13016284607E+04  0.50400000000E-02 0. -1.
    8880023    1    1    2    0    0  0.42503371694E+03  0.69764777160E+03 -0.83460304831E+03  0.13407977209E+04  0.65864270000E+03 0.  0.
    8880022    1    1    2    0    0 -0.42503371694E+03 -0.69764777160E+03  0.59330318963E+03  0.10211593419E+04  0.15294330000E+03 0.  0.
<mgrwt>
<rscale>  0 0.98994721E+03</rscale>
<asrwt>0</asrwt>
<pdfrwt beam="1">  1        1 0.20025053E+00 0.10493695E+04</pdfrwt>
<pdfrwt beam="2">  1       -1 0.16312748E+00 0.10493695E+04</pdfrwt>
<totfact> 0.24916144E+00</totfact>
</mgrwt>
</event>
<event>
 4    1  0.1521315E-007  0.7632379E+03  0.7818608E-02  0.9796796E-01
         -1   -1    0    0    0  501 -0.00000000000E+00  0.00000000000E+00  0.20849719259E+04  0.20849719259E+04  0.50400000000E-02 0.  1.
          1   -1    0    0  501    0  0.00000000000E+00 -0.00000000000E+00 -0.35276103875E+03  0.35276103879E+03  0.50400000000E-02 0. -1.
    8880023    1    1    2    0    0  0.38152651733E+03  0.56208857048E+02  0.11952587752E+03  0.77254032950E+03  0.65864270000E+03 0. -1.
    8880022    1    1    2    0    0 -0.38152651733E+03 -0.56208857048E+02  0.16126850096E+04  0.16651926352E+04  0.15294330000E+03 0.  0.
<mgrwt>
<rscale>  0 0.65534780E+03</rscale>
<asrwt>0</asrwt>
<pdfrwt beam="1">  1        1 0.54270929E-01 0.76323792E+03</pdfrwt>
<pdfrwt beam="2">  1       -1 0.32076491E+00 0.76323792E+03</pdfrwt>
<totfact> 0.18048439E+00</totfact>
</mgrwt>
</event>
<event>
 4    1  0.1521315E-007  0.8994088E+03  0.7818608E-02  0.9526981E-01
         -1   -1    0    0    0  501 -0.00000000000E+00  0.00000000000E+00  0.69239490037E+03  0.69239490038E+03  0.50400000000E-02 0.  1.
          1   -1    0    0  501    0  0.00000000000E+00 -0.00000000000E+00 -0.10128157678E+04  0.10128157678E+04  0.50400000000E-02 0. -1.
    8880023    1    1    2    0    0  0.10826058636E+03 -0.60283141039E+03 -0.52522630158E+03  0.10415368155E+04  0.65864270000E+03 0.  0.
    8880022    1    1    2    0    0 -0.10826058636E+03  0.60283141039E+03  0.20480543412E+03  0.66367385271E+03  0.15294330000E+03 0.  0.
<mgrwt>
<rscale>  0 0.82323499E+03</rscale>
<asrwt>0</asrwt>
<pdfrwt beam="1">  1        1 0.15581781E+00 0.89940884E+03</pdfrwt>
<pdfrwt beam="2">  1       -1 0.10652229E+00 0.89940884E+03</pdfrwt>
<totfact> 0.12332245E+01</totfact>
</mgrwt>
</event>
<event>
 4    1  0.1521315E-007  0.9105950E+03  0.7818608E-02  0.9509233E-01
         -1   -1    0    0    0  501 -0.00000000000E+00  0.00000000000E+00  0.15111950576E+04  0.15111950576E+04  0.50400000000E-02 0.  1.
          1   -1    0    0  501    0  0.00000000000E+00 -0.00000000000E+00 -0.99268699370E+03  0.99268699371E+03  0.50400000000E-02 0. -1.
    8880023    1    1    2    0    0  0.41282576965E+03 -0.47428680609E+03 -0.68361678247E+03  0.11386462146E+04  0.65864270000E+03 0. -1.
    8880022    1    1    2    0    0 -0.41282576965E+03  0.47428680609E+03  0.12021248463E+04  0.13652358367E+04  0.15294330000E+03 0.  0.
<mgrwt>
<rscale>  0 0.83606534E+03</rscale>
<asrwt>0</asrwt>
<pdfrwt beam="1">  1        1 0.15272108E+00 0.91059502E+03</pdfrwt>
<pdfrwt beam="2">  1       -1 0.23249155E+00 0.91059502E+03</pdfrwt>
<totfact> 0.14207842E+00</totfact>
</mgrwt>
</event>
<event>
 4    1  0.1521315E-007  0.7608290E+03  0.7818608E-02  0.9802966E-01
         -1   -1    0    0    0  501 -0.00000000000E+00  0.00000000000E+00  0.18969327136E+04  0.18969327136E+04  0.50400000000E-02 0.  1.
          1   -1    0    0  501    0  0.00000000000E+00 -0.00000000000E+00 -0.39079846119E+03  0.39079846122E+03  0.50400000000E-02 0. -1.
    8880023    1    1    2    0    0  0.34319972784E+03  0.16511978052E+03  0.36323980434E+02  0.76169563011E+03  0.65864270000E+03 0. -1.
    8880022    1    1    2    0    0 -0.34319972784E+03 -0.16511978052E+03  0.14698102720E+04  0.15260355447E+04  0.15294330000E+03 0.  0.
<mgrwt>
<rscale>  0 0.65203616E+03</rscale>
<asrwt>0</asrwt>
<pdfrwt beam="1">  1        1 0.60122841E-01 0.76082902E+03</pdfrwt>
<pdfrwt beam="2">  1       -1 0.29183580E+00 0.76082902E+03</pdfrwt>
<totfact> 0.24180524E+00</totfact>
</mgrwt>
</event>
<event>
 4    1  0.1521315E-007  0.8122876E+03  0.7818608E-02  0.9684831E-01
         -1   -1    0    0    0  501 -0.00000000000E+00  0.00000000000E+00  0.61907931946E+03  0.61907931948E+03  0.50400000000E-02 0.  1.
          1   -1    0    0  501    0  0.00000000000E+00 -0.00000000000E+00 -0.13710876950E+04  0.13710876950E+04  0.50400000000E-02 0. -1.
    8880023    1    1    2    0    0 -0.38560101347E+03 -0.27805179752E+03 -0.11101784083E+04  0.13756115906E+04  0.65864270000E+03 0. -1.
    8880022    1    1    2    0    0  0.38560101347E+03  0.27805179752E+03  0.35817003273E+03  0.61455542391E+03  0.15294330000E+03 0.  0.
<mgrwt>
<rscale>  0 0.71927144E+03</rscale>
<asrwt>0</asrwt>
<pdfrwt beam="1">  1        1 0.21093657E+00 0.81228760E+03</pdfrwt>
<pdfrwt beam="2">  1       -1 0.95242973E-01 0.81228760E+03</pdfrwt>
<totfact> 0.88131434E+00</totfact>
</mgrwt>
</event>
<event>
 4    1  0.1521315E-007  0.6715515E+03  0.7818608E-02  0.1014574E+00
          1   -1    0    0  501    0  0.00000000000E+00  0.00000000000E+00  0.10526323087E+04  0.10526323087E+04  0.50400000000E-02 0. -1.
         -1   -1    0    0    0  501 -0.00000000000E+00 -0.00000000000E+00 -0.29120436020E+03  0.29120436024E+03  0.50400000000E-02 0.  1.
    8880023    1    1    2    0    0  0.33537387843E+02 -0.12667458211E+03  0.88241350903E+03  0.11088890897E+04  0.65864270000E+03 0. -1.
    8880022    1    1    2    0    0 -0.33537387843E+02  0.12667458211E+03 -0.12098556049E+03  0.23494757926E+03  0.15294330000E+03 0.  0.
<mgrwt>
<rscale>  0 0.49696472E+03</rscale>
<asrwt>0</asrwt>
<pdfrwt beam="1">  1        1 0.16194343E+00 0.67155150E+03</pdfrwt>
<pdfrwt beam="2">  1       -1 0.44800671E-01 0.67155150E+03</pdfrwt>
<totfact> 0.70058305E+01</totfact>
</mgrwt>
</event>
<event>
 4    1  0.1521315E-007  0.7183834E+03  0.7818608E-02  0.9928094E-01
         -1   -1    0    0    0  501 -0.00000000000E+00  0.00000000000E+00  0.59748389438E+03  0.59748389440E+03  0.50400000000E-02 0.  1.
          1   -1    0    0  501    0  0.00000000000E+00 -0.00000000000E+00 -0.20518198757E+04  0.20518198757E+04  0.50400000000E-02 0. -1.
    8880023    1    1    2    0    0  0.13079714136E+03  0.25525794523E+03 -0.19378306993E+04  0.20667033015E+04  0.65864270000E+03 0. -1.
    8880022    1    1    2    0    0 -0.13079714136E+03 -0.25525794523E+03  0.48349471796E+03  0.58260046868E+03  0.15294330000E+03 0.  0.
<mgrwt>
<rscale>  0 0.58918824E+03</rscale>
<asrwt>0</asrwt>
<pdfrwt beam="1">  1        1 0.31566459E+00 0.71838341E+03</pdfrwt>
<pdfrwt beam="2">  1       -1 0.91920600E-01 0.71838341E+03</pdfrwt>
<totfact> 0.33549598E+00</totfact>
</mgrwt>
</event>
<event>
 4    1  0.1521315E-007  0.6866878E+03  0.7818608E-02  0.1005768E+00
          1   -1    0    0  501    0  0.00000000000E+00  0.00000000000E+00  0.16800119090E+04  0.16800119090E+04  0.50400000000E-02 0. -1.
         -1   -1    0    0    0  501 -0.00000000000E+00 -0.00000000000E+00 -0.13689628297E+03  0.13689628307E+03  0.50400000000E-02 0.  1.
    8880023    1    1    2    0    0 -0.18791685714E+03 -0.49165100201E+02  0.93180481792E+03  0.11574974632E+04  0.65864270000E+03 0.  0.
    8880022    1    1    2    0    0  0.18791685714E+03  0.49165100201E+02  0.61131080807E+03  0.65941072887E+03  0.15294330000E+03 0.  0.
<mgrwt>
<rscale>  0 0.53191698E+03</rscale>
<asrwt>0</asrwt>
<pdfrwt beam="1">  1        1 0.25846336E+00 0.68668782E+03</pdfrwt>
<pdfrwt beam="2">  1       -1 0.21060967E-01 0.68668782E+03</pdfrwt>
<totfact> 0.95113278E+01</totfact>
</mgrwt>
</event>
<event>
 4    1  0.1521315E-007  0.7918739E+03  0.7818608E-02  0.9728650E-01
         -1   -1    0    0    0  501 -0.00000000000E+00  0.00000000000E+00  0.23653258100E+03  0.23653258106E+03  0.50400000000E-02 0.  1.
          1   -1    0    0  501    0  0.00000000000E+00 -0.00000000000E+00 -0.22015130422E+04  0.22015130422E+04  0.50400000000E-02 0. -1.
    8880023    1    1    2    0    0  0.41744319440E+03  0.13782301331E+03 -0.17590510123E+04  0.19290735273E+04  0.65864270000E+03 0.  0.
    8880022    1    1    2    0    0 -0.41744319440E+03 -0.13782301331E+03 -0.20592944890E+03  0.50897209598E+03  0.15294330000E+03 0.  0.
<mgrwt>
<rscale>  0 0.69336315E+03</rscale>
<asrwt>0</asrwt>
<pdfrwt beam="1">  1        1 0.33869430E+00 0.79187386E+03</pdfrwt>
<pdfrwt beam="2">  1       -1 0.36389629E-01 0.79187386E+03</pdfrwt>
<totfact> 0.16334134E+01</totfact>
</mgrwt>
</event>
<event>
 4    1  0.1521315E-007  0.7078125E+03  0.7818608E-02  0.9966215E-01
          1   -1    0    0  501    0  0.00000000000E+00  0.00000000000E+00  0.21426963373E+04  0.21426963374E+04  0.50400000000E-02 0. -1.
         -1   -1    0    0    0  501 -0.00000000000E+00 -0.00000000000E+00 -0.21794107754E+03  0.21794107760E+03  0.50400000000E-02 0.  1.
    8880023    1    1    2    0    0 -0.19539081140E+03  0.17032547821E+03  0.19340777902E+04  0.20595279659E+04  0.65864270000E+03 0. -1.
    8880022    1    1    2    0    0  0.19539081140E+03 -0.17032547821E+03 -0.93225303743E+01  0.30110944903E+03  0.15294330000E+03 0.  1.
<mgrwt>
<rscale>  0 0.57156774E+03</rscale>
<asrwt>0</asrwt>
<pdfrwt beam="1">  1        1 0.32964560E+00 0.70781251E+03</pdfrwt>
<pdfrwt beam="2">  1       -1 0.33529396E-01 0.70781251E+03</pdfrwt>
<totfact> 0.20946117E+01</totfact>
</mgrwt>
</event>
<event>
 4    1  0.1521315E-007  0.7026389E+03  0.7818608E-02  0.9986425E-01
         -1   -1    0    0    0  501 -0.00000000000E+00  0.00000000000E+00  0.19972257190E+03  0.19972257197E+03  0.50400000000E-02 0.  1.
          1   -1    0    0  501    0  0.00000000000E+00 -0.00000000000E+00 -0.13695668915E+04  0.13695668915E+04  0.50400000000E-02 0. -1.
    8880023    1    1    2    0    0 -0.24471583858E+03 -0.23324561342E+01 -0.10344596170E+04  0.12505231655E+04  0.65864270000E+03 0. -1.
    8880022    1    1    2    0    0  0.24471583858E+03  0.23324561342E+01 -0.13538470257E+03  0.31876629795E+03  0.15294330000E+03 0.  0.
<mgrwt>
<rscale>  0 0.56249500E+03</rscale>
<asrwt>0</asrwt>
<pdfrwt beam="1">  1        1 0.21070259E+00 0.70263895E+03</pdfrwt>
<pdfrwt beam="2">  1       -1 0.30726550E-01 0.70263895E+03</pdfrwt>
<totfact> 0.81151347E+01</totfact>
</mgrwt>
</event>
<event>
 4    1  0.1521315E-007  0.7786289E+03  0.7818608E-02  0.9759068E-01
         -1   -1    0    0    0  501 -0.00000000000E+00  0.00000000000E+00  0.56739146768E+03  0.56739146770E+03  0.50400000000E-02 0.  1.
          1   -1    0    0  501    0  0.00000000000E+00 -0.00000000000E+00 -0.18656448045E+04  0.18656448045E+04  0.50400000000E-02 0. -1.
    8880023    1    1    2    0    0  0.35969191661E+03 -0.20754386814E+03 -0.16780295518E+04  0.18498773243E+04  0.65864270000E+03 0. -1.
    8880022    1    1    2    0    0 -0.35969191661E+03  0.20754386814E+03  0.37977621495E+03  0.58315894791E+03  0.15294330000E+03 0.  0.
<mgrwt>
<rscale>  0 0.67606238E+03</rscale>
<asrwt>0</asrwt>
<pdfrwt beam="1">  1        1 0.28702227E+00 0.77862888E+03</pdfrwt>
<pdfrwt beam="2">  1       -1 0.87290996E-01 0.77862888E+03</pdfrwt>
<totfact> 0.49518406E+00</totfact>
</mgrwt>
</event>
<event>
 4    1  0.1521315E-007  0.7045259E+03  0.7818608E-02  0.9978920E-01
          1   -1    0    0  501    0  0.00000000000E+00  0.00000000000E+00  0.18111129956E+03  0.18111129963E+03  0.50400000000E-02 0. -1.
         -1   -1    0    0    0  501 -0.00000000000E+00 -0.00000000000E+00 -0.16208349791E+04  0.16208349791E+04  0.50400000000E-02 0.  1.
    8880023    1    1    2    0    0  0.22428569804E+03 -0.11064588695E+03 -0.64617461887E+03  0.95598035073E+03  0.65864270000E+03 0.  0.
    8880022    1    1    2    0    0 -0.22428569804E+03  0.11064588695E+03 -0.79354906066E+03  0.84596592800E+03  0.15294330000E+03 0.  0.
<mgrwt>
<rscale>  0 0.56584313E+03</rscale>
<asrwt>0</asrwt>
<pdfrwt beam="1">  1        1 0.27863278E-01 0.70452593E+03</pdfrwt>
<pdfrwt beam="2">  1       -1 0.24935922E+00 0.70452593E+03</pdfrwt>
<totfact> 0.12386800E+01</totfact>
</mgrwt>
</event>
<event>
 4    1  0.1521315E-007  0.6708669E+03  0.7818608E-02  0.1015049E+00
          1   -1    0    0  501    0  0.00000000000E+00  0.00000000000E+00  0.21361470026E+04  0.21361470026E+04  0.50400000000E-02 0. -1.
         -1   -1    0    0    0  501 -0.00000000000E+00 -0.00000000000E+00 -0.15404034297E+03  0.15404034305E+03  0.50400000000E-02 0.  1.
    8880023    1    1    2    0    0 -0.71837300023E+02 -0.10531664327E+03  0.19805368265E+04  0.20910735330E+04  0.65864270000E+03 0. -1.
    8880022    1    1    2    0    0  0.71837300023E+02  0.10531664327E+03  0.15698331874E+01  0.19911381272E+03  0.15294330000E+03 0.  0.
<mgrwt>
<rscale>  0 0.49516421E+03</rscale>
<asrwt>0</asrwt>
<pdfrwt beam="1">  1        1 0.32863795E+00 0.67086690E+03</pdfrwt>
<pdfrwt beam="2">  1       -1 0.23698518E-01 0.67086690E+03</pdfrwt>
<totfact> 0.38748781E+01</totfact>
</mgrwt>
</event>
<event>
 4    1  0.1521315E-007  0.8810994E+03  0.7818608E-02  0.9557081E-01
          1   -1    0    0  501    0  0.00000000000E+00  0.00000000000E+00  0.93758820879E+03  0.93758820881E+03  0.50400000000E-02 0. -1.
         -1   -1    0    0    0  501 -0.00000000000E+00 -0.00000000000E+00 -0.62164744232E+03  0.62164744234E+03  0.50400000000E-02 0.  1.
    8880023    1    1    2    0    0  0.38192902718E+03 -0.44345936091E+03  0.36201828122E+03  0.95257200714E+03  0.65864270000E+03 0.  1.
    8880022    1    1    2    0    0 -0.38192902718E+03  0.44345936091E+03 -0.46077514742E+02  0.60666364401E+03  0.15294330000E+03 0. -1.
<mgrwt>
<rscale>  0 0.80203183E+03</rscale>
<asrwt>0</asrwt>
<pdfrwt beam="1">  1        1 0.14424434E+00 0.88109942E+03</pdfrwt>
<pdfrwt beam="2">  1       -1 0.95638068E-01 0.88109942E+03</pdfrwt>
<totfact> 0.18139784E+01</totfact>
</mgrwt>
</event>
<event>
 4    1  0.1521315E-007  0.8818688E+03  0.7818608E-02  0.9555788E-01
         -1   -1    0    0    0  501 -0.00000000000E+00  0.00000000000E+00  0.14378159784E+04  0.14378159784E+04  0.50400000000E-02 0.  1.
          1   -1    0    0  501    0  0.00000000000E+00 -0.00000000000E+00 -0.66722901513E+03  0.66722901515E+03  0.50400000000E-02 0. -1.
    8880023    1    1    2    0    0 -0.18559701104E+02  0.58612104837E+03 -0.25129329518E+03  0.91697375770E+03  0.65864270000E+03 0.  0.
    8880022    1    1    2    0    0  0.18559701104E+02 -0.58612104837E+03  0.10218802584E+04  0.11880712358E+04  0.15294330000E+03 0.  0.
<mgrwt>
<rscale>  0 0.80292827E+03</rscale>
<asrwt>0</asrwt>
<pdfrwt beam="1">  1        1 0.10265062E+00 0.88186878E+03</pdfrwt>
<pdfrwt beam="2">  1       -1 0.22120246E+00 0.88186878E+03</pdfrwt>
<totfact> 0.32290838E+00</totfact>
</mgrwt>
</event>
<event>
 4    1  0.1521315E-007  0.6595290E+03  0.7818608E-02  0.1024644E+00
         -1   -1    0    0    0  501 -0.00000000000E+00  0.00000000000E+00  0.19542927403E+03  0.19542927410E+03  0.50400000000E-02 0.  1.
          1   -1    0    0  501    0  0.00000000000E+00 -0.00000000000E+00 -0.25269946346E+04  0.25269946346E+04  0.50400000000E-02 0. -1.
    8880023    1    1    2    0    0 -0.25535130286E+02  0.22719824272E+02 -0.24427853544E+04  0.25302527003E+04  0.65864270000E+03 0. -1.
    8880022    1    1    2    0    0  0.25535130286E+02 -0.22719824272E+02  0.11121999386E+03  0.19217120841E+03  0.15294330000E+03 0.  0.
<mgrwt>
<rscale>  0 0.46047249E+03</rscale>
<asrwt>0</asrwt>
<pdfrwt beam="1">  1        1 0.38876838E+00 0.65952895E+03</pdfrwt>
<pdfrwt beam="2">  1       -1 0.30066044E-01 0.65952895E+03</pdfrwt>
<totfact> 0.14072849E+01</totfact>
</mgrwt>
</event>
<event>
 4    1  0.1521315E-007  0.8747580E+03  0.7818608E-02  0.9567832E-01
          1   -1    0    0  501    0  0.00000000000E+00  0.00000000000E+00  0.61059378053E+03  0.61059378056E+03  0.50400000000E-02 0. -1.
         -1   -1    0    0    0  501 -0.00000000000E+00 -0.00000000000E+00 -0.10952729911E+04  0.10952729911E+04  0.50400000000E-02 0.  1.
    8880023    1    1    2    0    0 -0.57245633507E+03 -0.60705313260E+02  0.88516572630E+02  0.87922510230E+03  0.65864270000E+03 0.  0.
    8880022    1    1    2    0    0  0.57245633507E+03  0.60705313260E+02 -0.57319578315E+03  0.82664166932E+03  0.15294330000E+03 0.  0.
<mgrwt>
<rscale>  0 0.79462332E+03</rscale>
<asrwt>0</asrwt>
<pdfrwt beam="1">  1        1 0.93937504E-01 0.87475802E+03</pdfrwt>
<pdfrwt beam="2">  1       -1 0.16850354E+00 0.87475802E+03</pdfrwt>
<totfact> 0.85629926E+00</totfact>
</mgrwt>
</event>
<event>
 4    1  0.1521315E-007  0.1195494E+04  0.7818608E-02  0.9161515E-01
          1   -1    0    0  501    0  0.00000000000E+00  0.00000000000E+00  0.34043524177E+04  0.34043524177E+04  0.50400000000E-02 0. -1.
         -1   -1    0    0    0  501 -0.00000000000E+00 -0.00000000000E+00 -0.10388831455E+04  0.10388831455E+04  0.50400000000E-02 0.  1.
    8880023    1    1    2    0    0 -0.70000789572E+02  0.99523625591E+03  0.30147186948E+04  0.32431056613E+04  0.65864270000E+03 0.  0.
    8880022    1    1    2    0    0  0.70000789572E+02 -0.99523625591E+03 -0.64924942262E+03  0.12001299019E+04  0.15294330000E+03 0.  0.
<mgrwt>
<rscale>  0 0.11459639E+04</rscale>
<asrwt>0</asrwt>
<pdfrwt beam="1">  1        1 0.52374652E+00 0.11954938E+04</pdfrwt>
<pdfrwt beam="2">  1       -1 0.15982818E+00 0.11954938E+04</pdfrwt>
<totfact> 0.86978315E-02</totfact>
</mgrwt>
</event>
<event>
 4    1  0.1521315E-007  0.7253462E+03  0.7818608E-02  0.9904895E-01
         -1   -1    0    0    0  501 -0.00000000000E+00  0.00000000000E+00  0.47120451747E+03  0.47120451749E+03  0.50400000000E-02 0.  1.
          1   -1    0    0  501    0  0.00000000000E+00 -0.00000000000E+00 -0.12713011736E+04  0.12713011736E+04  0.50400000000E-02 0. -1.
    8880023    1    1    2    0    0 -0.30336330579E+03 -0.16960691842E+02 -0.10806942897E+04  0.13015480454E+04  0.65864270000E+03 0. -1.
    8880022    1    1    2    0    0  0.30336330579E+03  0.16960691842E+02  0.28059763355E+03  0.44095764574E+03  0.15294330000E+03 0.  0.
<mgrwt>
<rscale>  0 0.60024663E+03</rscale>
<asrwt>0</asrwt>
<pdfrwt beam="1">  1        1 0.19558479E+00 0.72534624E+03</pdfrwt>
<pdfrwt beam="2">  1       -1 0.72493003E-01 0.72534624E+03</pdfrwt>
<totfact> 0.18851895E+01</totfact>
</mgrwt>
</event>
<event>
 4    1  0.1521315E-007  0.7099576E+03  0.7818608E-02  0.9958159E-01
          1   -1    0    0  501    0  0.00000000000E+00  0.00000000000E+00  0.15782136311E+04  0.15782136311E+04  0.50400000000E-02 0. -1.
         -1   -1    0    0    0  501 -0.00000000000E+00 -0.00000000000E+00 -0.68899095597E+03  0.68899095599E+03  0.50400000000E-02 0.  1.
    8880023    1    1    2    0    0 -0.26499757546E+03  0.24131952306E+01  0.14578215992E+04  0.16215065710E+04  0.65864270000E+03 0. -1.
    8880022    1    1    2    0    0  0.26499757546E+03 -0.24131952306E+01 -0.56859892406E+03  0.64569801608E+03  0.15294330000E+03 0.  0.
<mgrwt>
<rscale>  0 0.57523601E+03</rscale>
<asrwt>0</asrwt>
<pdfrwt beam="1">  1        1 0.24280210E+00 0.70995757E+03</pdfrwt>
<pdfrwt beam="2">  1       -1 0.10599861E+00 0.70995757E+03</pdfrwt>
<totfact> 0.50517136E+00</totfact>
</mgrwt>
</event>
<event>
 4    1  0.1521315E-007  0.6694421E+03  0.7818608E-02  0.1016066E+00
         -1   -1    0    0    0  501 -0.00000000000E+00  0.00000000000E+00  0.62890403655E+03  0.62890403657E+03  0.50400000000E-02 0.  1.
          1   -1    0    0  501    0  0.00000000000E+00 -0.00000000000E+00 -0.74822773416E+03  0.74822773417E+03  0.50400000000E-02 0. -1.
    8880023    1    1    2    0    0 -0.83905090470E+02  0.85454213042E+02 -0.57455100144E+03  0.88219133200E+03  0.65864270000E+03 0. -1.
    8880022    1    1    2    0    0  0.83905090470E+02 -0.85454213042E+02  0.45522730384E+03  0.49494043875E+03  0.15294330000E+03 0.  0.
<mgrwt>
<rscale>  0 0.49133371E+03</rscale>
<asrwt>0</asrwt>
<pdfrwt beam="1">  1        1 0.11511196E+00 0.66944208E+03</pdfrwt>
<pdfrwt beam="2">  1       -1 0.96754467E-01 0.66944208E+03</pdfrwt>
<totfact> 0.26151849E+01</totfact>
</mgrwt>
</event>
<event>
 4    1  0.1521315E-007  0.7163491E+03  0.7818608E-02  0.9935139E-01
         -1   -1    0    0    0  501 -0.00000000000E+00  0.00000000000E+00  0.43826810955E+03  0.43826810958E+03  0.50400000000E-02 0.  1.
          1   -1    0    0  501    0  0.00000000000E+00 -0.00000000000E+00 -0.68897908020E+03  0.68897908022E+03  0.50400000000E-02 0. -1.
    8880023    1    1    2    0    0  0.13280526624E+03  0.24841213621E+03  0.63428803735E+01  0.71637718177E+03  0.65864270000E+03 0.  1.
    8880022    1    1    2    0    0 -0.13280526624E+03 -0.24841213621E+03 -0.25705385103E+03  0.41087000803E+03  0.15294330000E+03 0.  0.
<mgrwt>
<rscale>  0 0.58588132E+03</rscale>
<asrwt>0</asrwt>
<pdfrwt beam="1">  1        1 0.10599678E+00 0.71634910E+03</pdfrwt>
<pdfrwt beam="2">  1       -1 0.67425863E-01 0.71634910E+03</pdfrwt>
<totfact> 0.63661770E+01</totfact>
</mgrwt>
</event>
<event>
 4    1  0.1521315E-007  0.6854329E+03  0.7818608E-02  0.1006404E+00
         -1   -1    0    0    0  501 -0.00000000000E+00  0.00000000000E+00  0.99051126528E+03  0.99051126529E+03  0.50400000000E-02 0.  1.
          1   -1    0    0  501    0  0.00000000000E+00 -0.00000000000E+00 -0.52961104363E+03  0.52961104365E+03  0.50400000000E-02 0. -1.
    8880023    1    1    2    0    0 -0.12467144592E+03 -0.14305646289E+03 -0.27980996835E+03  0.74034582842E+03  0.65864270000E+03 0. -1.
    8880022    1    1    2    0    0  0.12467144592E+03  0.14305646289E+03  0.74071019000E+03  0.77977648053E+03  0.15294330000E+03 0.  0.
<mgrwt>
<rscale>  0 0.52929383E+03</rscale>
<asrwt>0</asrwt>
<pdfrwt beam="1">  1        1 0.81478623E-01 0.68543295E+03</pdfrwt>
<pdfrwt beam="2">  1       -1 0.15238635E+00 0.68543295E+03</pdfrwt>
<totfact> 0.14173546E+01</totfact>
</mgrwt>
</event>
<event>
 4    1  0.1521315E-007  0.1296841E+04  0.7818608E-02  0.9068293E-01
          1   -1    0    0  501    0  0.00000000000E+00  0.00000000000E+00  0.22834158107E+04  0.22834158107E+04  0.50400000000E-02 0. -1.
         -1   -1    0    0    0  501 -0.00000000000E+00 -0.00000000000E+00 -0.75213485393E+03  0.75213485395E+03  0.50400000000E-02 0.  1.
    8880023    1    1    2    0    0  0.77288696972E+03 -0.80661800387E+03  0.13869503937E+04  0.18987965854E+04  0.65864270000E+03 0.  0.
    8880022    1    1    2    0    0 -0.77288696972E+03  0.80661800387E+03  0.14433056309E+03  0.11367540792E+04  0.15294330000E+03 0.  0.
<mgrwt>
<rscale>  0 0.12522743E+04</rscale>
<asrwt>0</asrwt>
<pdfrwt beam="1">  1        1 0.35129473E+00 0.12968412E+04</pdfrwt>
<pdfrwt beam="2">  1       -1 0.11571306E+00 0.12968412E+04</pdfrwt>
<totfact> 0.12601683E+00</totfact>
</mgrwt>
</event>
<event>
 4    1  0.1521315E-007  0.9172389E+03  0.7818608E-02  0.9498906E-01
          1   -1    0    0  501    0  0.00000000000E+00  0.00000000000E+00  0.26840426199E+04  0.26840426199E+04  0.50400000000E-02 0. -1.
         -1   -1    0    0    0  501 -0.00000000000E+00 -0.00000000000E+00 -0.28655060722E+03  0.28655060726E+03  0.50400000000E-02 0.  1.
    8880023    1    1    2    0    0 -0.32410203898E+03 -0.54997713678E+03  0.20073149218E+04  0.22069527372E+04  0.65864270000E+03 0.  0.
    8880022    1    1    2    0    0  0.32410203898E+03  0.54997713678E+03  0.39017709087E+03  0.76364048996E+03  0.15294330000E+03 0.  0.
<mgrwt>
<rscale>  0 0.84364550E+03</rscale>
<asrwt>0</asrwt>
<pdfrwt beam="1">  1        1 0.41292963E+00 0.91723889E+03</pdfrwt>
<pdfrwt beam="2">  1       -1 0.44084709E-01 0.91723889E+03</pdfrwt>
<totfact> 0.52949689E+00</totfact>
</mgrwt>
</event>
<event>
 4    1  0.1521315E-007  0.7132958E+03  0.7818608E-02  0.9945960E-01
         -1   -1    0    0    0  501 -0.00000000000E+00  0.00000000000E+00  0.22182598214E+03  0.22182598220E+03  0.50400000000E-02 0.  1.
          1   -1    0    0  501    0  0.00000000000E+00 -0.00000000000E+00 -0.12440285521E+04  0.12440285522E+04  0.50400000000E-02 0. -1.
    8880023    1    1    2    0    0  0.27040511640E+03  0.43147647052E+02 -0.84427850987E+03  0.11052588181E+04  0.65864270000E+03 0. -1.
    8880022    1    1    2    0    0 -0.27040511640E+03 -0.43147647052E+02 -0.17792406014E+03  0.36059571630E+03  0.15294330000E+03 0.  0.
<mgrwt>
<rscale>  0 0.58084645E+03</rscale>
<asrwt>0</asrwt>
<pdfrwt beam="1">  1        1 0.19138900E+00 0.71329577E+03</pdfrwt>
<pdfrwt beam="2">  1       -1 0.34127075E-01 0.71329577E+03</pdfrwt>
<totfact> 0.82633209E+01</totfact>
</mgrwt>
</event>
<event>
 4    1  0.1521315E-007  0.7729666E+03  0.7818608E-02  0.9772626E-01
         -1   -1    0    0    0  501 -0.00000000000E+00  0.00000000000E+00  0.40202971880E+03  0.40202971883E+03  0.50400000000E-02 0.  1.
          1   -1    0    0  501    0  0.00000000000E+00 -0.00000000000E+00 -0.19817599741E+04  0.19817599741E+04  0.50400000000E-02 0. -1.
    8880023    1    1    2    0    0  0.26567997579E+03 -0.30509227154E+03 -0.17545667647E+04  0.19172850288E+04  0.65864270000E+03 0. -1.
    8880022    1    1    2    0    0 -0.26567997579E+03  0.30509227154E+03  0.17483650934E+03  0.46650466418E+03  0.15294330000E+03 0.  0.
<mgrwt>
<rscale>  0 0.66852524E+03</rscale>
<asrwt>0</asrwt>
<pdfrwt beam="1">  1        1 0.30488614E+00 0.77296659E+03</pdfrwt>
<pdfrwt beam="2">  1       -1 0.61850727E-01 0.77296659E+03</pdfrwt>
<totfact> 0.84774594E+00</totfact>
</mgrwt>
</event>
<event>
 4    1  0.1521315E-007  0.7792307E+03  0.7818608E-02  0.9757647E-01
          1   -1    0    0  501    0  0.00000000000E+00  0.00000000000E+00  0.10873624758E+04  0.10873624758E+04  0.50400000000E-02 0. -1.
         -1   -1    0    0    0  501 -0.00000000000E+00 -0.00000000000E+00 -0.99202224834E+03  0.99202224835E+03  0.50400000000E-02 0.  1.
    8880023    1    1    2    0    0 -0.31990029626E+02  0.41517089804E+03  0.88160335460E+03  0.11766158752E+04  0.65864270000E+03 0. -1.
    8880022    1    1    2    0    0  0.31990029626E+02 -0.41517089804E+03 -0.78626312715E+03  0.90276884899E+03  0.15294330000E+03 0.  0.
<mgrwt>
<rscale>  0 0.67685816E+03</rscale>
<asrwt>0</asrwt>
<pdfrwt beam="1">  1        1 0.16728653E+00 0.77923067E+03</pdfrwt>
<pdfrwt beam="2">  1       -1 0.15261881E+00 0.77923067E+03</pdfrwt>
<totfact> 0.44579802E+00</totfact>
</mgrwt>
</event>
<event>
 4    1  0.1521315E-007  0.1475934E+04  0.7818608E-02  0.8926820E-01
          1   -1    0    0  501    0  0.00000000000E+00  0.00000000000E+00  0.14256116404E+04  0.14256116404E+04  0.50400000000E-02 0. -1.
         -1   -1    0    0    0  501 -0.00000000000E+00 -0.00000000000E+00 -0.19953666042E+04  0.19953666042E+04  0.50400000000E-02 0.  1.
    8880023    1    1    2    0    0 -0.10884252592E+04 -0.74826496422E+03  0.65359111112E+03  0.16141751913E+04  0.65864270000E+03 0. -1.
    8880022    1    1    2    0    0  0.10884252592E+04  0.74826496422E+03 -0.12233460749E+04  0.18068030533E+04  0.15294330000E+03 0.  0.
<mgrwt>
<rscale>  0 0.14379184E+04</rscale>
<asrwt>0</asrwt>
<pdfrwt beam="1">  1        1 0.21932487E+00 0.14759337E+04</pdfrwt>
<pdfrwt beam="2">  1       -1 0.30697948E+00 0.14759337E+04</pdfrwt>
<totfact> 0.20815171E-01</totfact>
</mgrwt>
</event>
<event>
 4    1  0.1521315E-007  0.7010185E+03  0.7818608E-02  0.9993002E-01
         -1   -1    0    0    0  501 -0.00000000000E+00  0.00000000000E+00  0.60508376789E+03  0.60508376791E+03  0.50400000000E-02 0.  1.
          1   -1    0    0  501    0  0.00000000000E+00 -0.00000000000E+00 -0.75598427069E+03  0.75598427071E+03  0.50400000000E-02 0. -1.
    8880023    1    1    2    0    0 -0.21032871310E+03 -0.11566551396E+03 -0.53582435458E+03  0.88234609077E+03  0.65864270000E+03 0. -1.
    8880022    1    1    2    0    0  0.21032871310E+03  0.11566551396E+03  0.38492385177E+03  0.47872194785E+03  0.15294330000E+03 0.  0.
<mgrwt>
<rscale>  0 0.55958144E+03</rscale>
<asrwt>0</asrwt>
<pdfrwt beam="1">  1        1 0.11630527E+00 0.70101846E+03</pdfrwt>
<pdfrwt beam="2">  1       -1 0.93089811E-01 0.70101846E+03</pdfrwt>
<totfact> 0.27952047E+01</totfact>
</mgrwt>
</event>
<event>
 4    1  0.1521315E-007  0.6931351E+03  0.7818608E-02  0.1002697E+00
          1   -1    0    0  501    0  0.00000000000E+00  0.00000000000E+00  0.10313573505E+04  0.10313573505E+04  0.50400000000E-02 0. -1.
         -1   -1    0    0    0  501 -0.00000000000E+00 -0.00000000000E+00 -0.82781996021E+03  0.82781996023E+03  0.50400000000E-02 0.  1.
    8880023    1    1    2    0    0 -0.18226469886E+03  0.11578266498E+03  0.88733571815E+03  0.11259666642E+04  0.65864270000E+03 0. -1.
    8880022    1    1    2    0    0  0.18226469886E+03 -0.11578266498E+03 -0.68379832787E+03  0.73321064652E+03  0.15294330000E+03 0.  0.
<mgrwt>
<rscale>  0 0.54483424E+03</rscale>
<asrwt>0</asrwt>
<pdfrwt beam="1">  1        1 0.15867036E+00 0.69313509E+03</pdfrwt>
<pdfrwt beam="2">  1       -1 0.12735692E+00 0.69313509E+03</pdfrwt>
<totfact> 0.79685136E+00</totfact>
</mgrwt>
</event>
<event>
 4    1  0.1521315E-007  0.7839555E+03  0.7818608E-02  0.9746626E-01
         -1   -1    0    0    0  501 -0.00000000000E+00  0.00000000000E+00  0.39161122240E+03  0.39161122243E+03  0.50400000000E-02 0.  1.
          1   -1    0    0  501    0  0.00000000000E+00 -0.00000000000E+00 -0.13181091215E+04  0.13181091216E+04  0.50400000000E-02 0. -1.
    8880023    1    1    2    0    0  0.29356231150E+03 -0.30756646232E+03 -0.97969961623E+03  0.12547499766E+04  0.65864270000E+03 0.  0.
    8880022    1    1    2    0    0 -0.29356231150E+03  0.30756646232E+03  0.53201717080E+02  0.45497036738E+03  0.15294330000E+03 0.  0.
<mgrwt>
<rscale>  0 0.68307265E+03</rscale>
<asrwt>0</asrwt>
<pdfrwt beam="1">  1        1 0.20278602E+00 0.78395546E+03</pdfrwt>
<pdfrwt beam="2">  1       -1 0.60247881E-01 0.78395546E+03</pdfrwt>
<totfact> 0.25188141E+01</totfact>
</mgrwt>
</event>
<event>
 4    1  0.1521315E-007  0.9386077E+03  0.7818608E-02  0.9466698E-01
          1   -1    0    0  501    0  0.00000000000E+00  0.00000000000E+00  0.37953472465E+04  0.37953472465E+04  0.50400000000E-02 0. -1.
         -1   -1    0    0    0  501 -0.00000000000E+00 -0.00000000000E+00 -0.68214772671E+03  0.68214772673E+03  0.50400000000E-02 0.  1.
    8880023    1    1    2    0    0 -0.32993233043E+02  0.66789647412E+03  0.35448506023E+04  0.36670083518E+04  0.65864270000E+03 0. -1.
    8880022    1    1    2    0    0  0.32993233043E+02 -0.66789647412E+03 -0.43165108245E+03  0.81048662145E+03  0.15294330000E+03 0.  0.
<mgrwt>
<rscale>  0 0.86784197E+03</rscale>
<asrwt>0</asrwt>
<pdfrwt beam="1">  1        1 0.58389957E+00 0.93860772E+03</pdfrwt>
<pdfrwt beam="2">  1       -1 0.10494581E+00 0.93860772E+03</pdfrwt>
<totfact> 0.13013661E-01</totfact>
</mgrwt>
</event>
<event>
 4    1  0.1521315E-007  0.1141116E+04  0.7818608E-02  0.9216603E-01
          1   -1    0    0  501    0  0.00000000000E+00  0.00000000000E+00  0.12375623942E+04  0.12375623942E+04  0.50400000000E-02 0. -1.
         -1   -1    0    0    0  501 -0.00000000000E+00 -0.00000000000E+00 -0.10473981779E+04  0.10473981779E+04  0.50400000000E-02 0.  1.
    8880023    1    1    2    0    0  0.49895473649E+03 -0.78700648170E+03  0.55961294618E+03  0.12709492071E+04  0.65864270000E+03 0. -1.
    8880022    1    1    2    0    0 -0.49895473649E+03  0.78700648170E+03 -0.36944872983E+03  0.10140113650E+04  0.15294330000E+03 0.  0.
<mgrwt>
<rscale>  0 0.10883692E+04</rscale>
<asrwt>0</asrwt>
<pdfrwt beam="1">  1        1 0.19039421E+00 0.11411158E+04</pdfrwt>
<pdfrwt beam="2">  1       -1 0.16113818E+00 0.11411158E+04</pdfrwt>
<totfact> 0.28372246E+00</totfact>
</mgrwt>
</event>
<event>
 4    1  0.1521315E-007  0.7058474E+03  0.7818608E-02  0.9973757E-01
         -1   -1    0    0    0  501 -0.00000000000E+00  0.00000000000E+00  0.40543980127E+03  0.40543980130E+03  0.50400000000E-02 0.  1.
          1   -1    0    0  501    0  0.00000000000E+00 -0.00000000000E+00 -0.23728317208E+04  0.23728317208E+04  0.50400000000E-02 0. -1.
    8880023    1    1    2    0    0 -0.20751288104E+03  0.14611227663E+03 -0.22564778357E+04  0.23642996473E+04  0.65864270000E+03 0. -1.
    8880022    1    1    2    0    0  0.20751288104E+03 -0.14611227663E+03  0.28908591615E+03  0.41397187478E+03  0.15294330000E+03 0.  0.
<mgrwt>
<rscale>  0 0.56816073E+03</rscale>
<asrwt>0</asrwt>
<pdfrwt beam="1">  1        1 0.36505103E+00 0.70584743E+03</pdfrwt>
<pdfrwt beam="2">  1       -1 0.62375355E-01 0.70584743E+03</pdfrwt>
<totfact> 0.46084039E+00</totfact>
</mgrwt>
</event>
<event>
 4    1  0.1521315E-007  0.6599237E+03  0.7818608E-02  0.1024235E+00
          1   -1    0    0  501    0  0.00000000000E+00  0.00000000000E+00  0.20304301714E+04  0.20304301714E+04  0.50400000000E-02 0. -1.
         -1   -1    0    0    0  501 -0.00000000000E+00 -0.00000000000E+00 -0.47623837555E+03  0.47623837558E+03  0.50400000000E-02 0.  1.
    8880023    1    1    2    0    0 -0.16309293224E+02 -0.37723441908E+02  0.19615631131E+04  0.20695963626E+04  0.65864270000E+03 0. -1.
    8880022    1    1    2    0    0  0.16309293224E+02  0.37723441908E+02 -0.40737131733E+03  0.43707218432E+03  0.15294330000E+03 0.  0.
<mgrwt>
<rscale>  0 0.46188914E+03</rscale>
<asrwt>0</asrwt>
<pdfrwt beam="1">  1        1 0.31237387E+00 0.65992368E+03</pdfrwt>
<pdfrwt beam="2">  1       -1 0.73267442E-01 0.65992368E+03</pdfrwt>
<totfact> 0.56941185E+00</totfact>
</mgrwt>
</event>
<event>
 4    1  0.1521315E-007  0.7520670E+03  0.7818608E-02  0.9826096E-01
         -1   -1    0    0    0  501 -0.00000000000E+00  0.00000000000E+00  0.24263923615E+03  0.24263923620E+03  0.50400000000E-02 0.  1.
          1   -1    0    0  501    0  0.00000000000E+00 -0.00000000000E+00 -0.16644339101E+04  0.16644339101E+04  0.50400000000E-02 0. -1.
    8880023    1    1    2    0    0  0.30630874260E+03  0.19485762165E+03 -0.49586220334E+03  0.90082410573E+03  0.65864270000E+03 0.  1.
    8880022    1    1    2    0    0 -0.30630874260E+03 -0.19485762165E+03 -0.92593247062E+03  0.10062490406E+04  0.15294330000E+03 0.  0.
<mgrwt>
<rscale>  0 0.63980706E+03</rscale>
<asrwt>0</asrwt>
<pdfrwt beam="1">  1        1 0.25606675E+00 0.75206698E+03</pdfrwt>
<pdfrwt beam="2">  1       -1 0.37329114E-01 0.75206698E+03</pdfrwt>
<totfact> 0.35934456E+01</totfact>
</mgrwt>
</event>
<event>
 4    1  0.1521315E-007  0.6652632E+03  0.7818608E-02  0.1019314E+00
          1   -1    0    0  501    0  0.00000000000E+00  0.00000000000E+00  0.11155636570E+04  0.11155636570E+04  0.50400000000E-02 0. -1.
         -1   -1    0    0    0  501 -0.00000000000E+00 -0.00000000000E+00 -0.29586520854E+03  0.29586520858E+03  0.50400000000E-02 0.  1.
    8880023    1    1    2    0    0  0.61881538145E+02 -0.70253844572E+02  0.97084157061E+03  0.11769063212E+04  0.65864270000E+03 0. -1.
    8880022    1    1    2    0    0 -0.61881538145E+02  0.70253844572E+02 -0.15114312214E+03  0.23452254438E+03  0.15294330000E+03 0.  0.
<mgrwt>
<rscale>  0 0.47935125E+03</rscale>
<asrwt>0</asrwt>
<pdfrwt beam="1">  1        1 0.17162518E+00 0.66526321E+03</pdfrwt>
<pdfrwt beam="2">  1       -1 0.45517724E-01 0.66526321E+03</pdfrwt>
<totfact> 0.61079044E+01</totfact>
</mgrwt>
</event>
<event>
 4    1  0.1521315E-007  0.6607203E+03  0.7818608E-02  0.1023430E+00
         -1   -1    0    0    0  501 -0.00000000000E+00  0.00000000000E+00  0.42213605672E+03  0.42213605675E+03  0.50400000000E-02 0.  1.
          1   -1    0    0  501    0  0.00000000000E+00 -0.00000000000E+00 -0.75055551358E+03  0.75055551360E+03  0.50400000000E-02 0. -1.
    8880023    1    1    2    0    0 -0.47131594994E+02  0.22797994072E+02 -0.57631105062E+03  0.87674726638E+03  0.65864270000E+03 0. -1.
    8880022    1    1    2    0    0  0.47131594994E+02 -0.22797994072E+02  0.24789159376E+03  0.29594430397E+03  0.15294330000E+03 0.  0.
<mgrwt>
<rscale>  0 0.46468801E+03</rscale>
<asrwt>0</asrwt>
<pdfrwt beam="1">  1        1 0.11547008E+00 0.66072032E+03</pdfrwt>
<pdfrwt beam="2">  1       -1 0.64944008E-01 0.66072032E+03</pdfrwt>
<totfact> 0.60574884E+01</totfact>
</mgrwt>
</event>
<event>
 4    1  0.1521315E-007  0.7778366E+03  0.7818608E-02  0.9760944E-01
         -1   -1    0    0    0  501 -0.00000000000E+00  0.00000000000E+00  0.61111999685E+03  0.61111999687E+03  0.50400000000E-02 0.  1.
          1   -1    0    0  501    0  0.00000000000E+00 -0.00000000000E+00 -0.20269957470E+04  0.20269957470E+04  0.50400000000E-02 0. -1.
    8880023    1    1    2    0    0  0.40156733027E+03  0.99816124589E+02 -0.18575706649E+04  0.20138516730E+04  0.65864270000E+03 0. -1.
    8880022    1    1    2    0    0 -0.40156733027E+03 -0.99816124589E+02  0.44169491475E+03  0.62426407089E+03  0.15294330000E+03 0.  0.
<mgrwt>
<rscale>  0 0.67501321E+03</rscale>
<asrwt>0</asrwt>
<pdfrwt beam="1">  1        1 0.31184550E+00 0.77783661E+03</pdfrwt>
<pdfrwt beam="2">  1       -1 0.94018462E-01 0.77783661E+03</pdfrwt>
<totfact> 0.32789327E+00</totfact>
</mgrwt>
</event>
<event>
 4    1  0.1521315E-007  0.1049134E+04  0.7818608E-02  0.9319924E-01
          1   -1    0    0  501    0  0.00000000000E+00  0.00000000000E+00  0.17521463090E+04  0.17521463090E+04  0.50400000000E-02 0. -1.
         -1   -1    0    0    0  501 -0.00000000000E+00 -0.00000000000E+00 -0.50551322769E+03  0.50551322771E+03  0.50400000000E-02 0.  1.
    8880023    1    1    2    0    0  0.69803855573E+02  0.81363295827E+03  0.75109803056E+03  0.12902827701E+04  0.65864270000E+03 0. -1.
    8880022    1    1    2    0    0 -0.69803855573E+02 -0.81363295827E+03  0.49553505072E+03  0.96737676659E+03  0.15294330000E+03 0.  1.
<mgrwt>
<rscale>  0 0.98969167E+03</rscale>
<asrwt>0</asrwt>
<pdfrwt beam="1">  1        1 0.26956097E+00 0.10491336E+04</pdfrwt>
<pdfrwt beam="2">  1       -1 0.77771266E-01 0.10491336E+04</pdfrwt>
<totfact> 0.72928084E+00</totfact>
</mgrwt>
</event>
<event>
 4    1  0.1521315E-007  0.9332399E+03  0.7818608E-02  0.9474650E-01
          1   -1    0    0  501    0  0.00000000000E+00  0.00000000000E+00  0.48611549304E+03  0.48611549306E+03  0.50400000000E-02 0. -1.
         -1   -1    0    0    0  501 -0.00000000000E+00 -0.00000000000E+00 -0.18085764445E+04  0.18085764445E+04  0.50400000000E-02 0.  1.
    8880023    1    1    2    0    0 -0.24829454468E+03 -0.61276127080E+03 -0.15742605095E+03  0.94642470577E+03  0.65864270000E+03 0. -1.
    8880022    1    1    2    0    0  0.24829454468E+03  0.61276127080E+03 -0.11650349005E+04  0.13482672318E+04  0.15294330000E+03 0.  0.
<mgrwt>
<rscale>  0 0.86178878E+03</rscale>
<asrwt>0</asrwt>
<pdfrwt beam="1">  1        1 0.74786999E-01 0.93323993E+03</pdfrwt>
<pdfrwt beam="2">  1       -1 0.27824253E+00 0.93323993E+03</pdfrwt>
<totfact> 0.21480314E+00</totfact>
</mgrwt>
</event>
<event>
 4    1  0.1521315E-007  0.1137226E+04  0.7818608E-02  0.9220699E-01
         -1   -1    0    0    0  501 -0.00000000000E+00  0.00000000000E+00  0.14847575653E+04  0.14847575653E+04  0.50400000000E-02 0.  1.
          1   -1    0    0  501    0  0.00000000000E+00 -0.00000000000E+00 -0.87929122316E+03  0.87929122318E+03  0.50400000000E-02 0. -1.
    8880023    1    1    2    0    0 -0.79820577353E+03 -0.47153064608E+03  0.81780477910E+03  0.14007456836E+04  0.65864270000E+03 0. -1.
    8880022    1    1    2    0    0  0.79820577353E+03  0.47153064608E+03 -0.21233843696E+03  0.96330310490E+03  0.15294330000E+03 0.  0.
<mgrwt>
<rscale>  0 0.10842314E+04</rscale>
<asrwt>0</asrwt>
<pdfrwt beam="1">  1        1 0.13527557E+00 0.11372264E+04</pdfrwt>
<pdfrwt beam="2">  1       -1 0.22842424E+00 0.11372264E+04</pdfrwt>
<totfact> 0.18105530E+00</totfact>
</mgrwt>
</event>
<event>
 4    1  0.1521315E-007  0.9809245E+03  0.7818608E-02  0.9406951E-01
          1   -1    0    0  501    0  0.00000000000E+00  0.00000000000E+00  0.23007421517E+04  0.23007421517E+04  0.50400000000E-02 0. -1.
         -1   -1    0    0    0  501 -0.00000000000E+00 -0.00000000000E+00 -0.56577179089E+03  0.56577179091E+03  0.50400000000E-02 0.  1.
    8880023    1    1    2    0    0 -0.60377253201E+03 -0.40479787001E+03  0.18698602965E+04  0.21115374305E+04  0.65864270000E+03 0.  0.
    8880022    1    1    2    0    0  0.60377253201E+03  0.40479787001E+03 -0.13488993569E+03  0.75497651204E+03  0.15294330000E+03 0.  0.
<mgrwt>
<rscale>  0 0.91505841E+03</rscale>
<asrwt>0</asrwt>
<pdfrwt beam="1">  1        1 0.35396033E+00 0.98092446E+03</pdfrwt>
<pdfrwt beam="2">  1       -1 0.87041815E-01 0.98092446E+03</pdfrwt>
<totfact> 0.24612655E+00</totfact>
</mgrwt>
</event>
<event>
 4    1  0.1521315E-007  0.1163658E+04  0.7818608E-02  0.9193285E-01
         -1   -1    0    0    0  501 -0.00000000000E+00  0.00000000000E+00  0.80635927698E+03  0.80635927699E+03  0.50400000000E-02 0.  1.
          1   -1    0    0  501    0  0.00000000000E+00 -0.00000000000E+00 -0.18119642900E+04  0.18119642900E+04  0.50400000000E-02 0. -1.
    8880023    1    1    2    0    0 -0.93645386532E+03 -0.20819424849E+03 -0.11502181896E+04  0.16361854348E+04  0.65864270000E+03 0.  1.
    8880022    1    1    2    0    0  0.93645386532E+03  0.20819424849E+03  0.14461317657E+03  0.98213813225E+03  0.15294330000E+03 0.  0.
<mgrwt>
<rscale>  0 0.11123011E+04</rscale>
<asrwt>0</asrwt>
<pdfrwt beam="1">  1        1 0.27876374E+00 0.11636584E+04</pdfrwt>
<pdfrwt beam="2">  1       -1 0.12405527E+00 0.11636584E+04</pdfrwt>
<totfact> 0.22519756E+00</totfact>
</mgrwt>
</event>
<event>
 4    1  0.1521315E-007  0.6649005E+03  0.7818608E-02  0.1019617E+00
          1   -1    0    0  501    0  0.00000000000E+00  0.00000000000E+00  0.14020623034E+04  0.14020623034E+04  0.50400000000E-02 0. -1.
         -1   -1    0    0    0  501 -0.00000000000E+00 -0.00000000000E+00 -0.23119846802E+03  0.23119846807E+03  0.50400000000E-02 0.  1.
    8880023    1    1    2    0    0 -0.89851972669E+02  0.14459739999E+02  0.12670849415E+04  0.14309426671E+04  0.65864270000E+03 0. -1.
    8880022    1    1    2    0    0  0.89851972669E+02 -0.14459739999E+02 -0.96221106185E+02  0.20231810439E+03  0.15294330000E+03 0.  0.
<mgrwt>
<rscale>  0 0.47825063E+03</rscale>
<asrwt>0</asrwt>
<pdfrwt beam="1">  1        1 0.21570189E+00 0.66490049E+03</pdfrwt>
<pdfrwt beam="2">  1       -1 0.35568995E-01 0.66490049E+03</pdfrwt>
<totfact> 0.59761444E+01</totfact>
</mgrwt>
</event>
<event>
 4    1  0.1521315E-007  0.7884942E+03  0.7818608E-02  0.9736249E-01
         -1   -1    0    0    0  501 -0.00000000000E+00  0.00000000000E+00  0.16574669049E+03  0.16574669057E+03  0.50400000000E-02 0.  1.
          1   -1    0    0  501    0  0.00000000000E+00 -0.00000000000E+00 -0.26037794709E+04  0.26037794709E+04  0.50400000000E-02 0. -1.
    8880023    1    1    2    0    0 -0.42288995435E+03 -0.95273456608E+02 -0.19274980351E+04  0.20825397539E+04  0.65864270000E+03 0.  0.
    8880022    1    1    2    0    0  0.42288995435E+03  0.95273456608E+02 -0.51053474537E+03  0.68698640763E+03  0.15294330000E+03 0.  0.
<mgrwt>
<rscale>  0 0.68898935E+03</rscale>
<asrwt>0</asrwt>
<pdfrwt beam="1">  1        1 0.40058143E+00 0.78849423E+03</pdfrwt>
<pdfrwt beam="2">  1       -1 0.25499493E-01 0.78849423E+03</pdfrwt>
<totfact> 0.16225531E+01</totfact>
</mgrwt>
</event>
<event>
 4    1  0.1521315E-007  0.7082299E+03  0.7818608E-02  0.9964634E-01
         -1   -1    0    0    0  501 -0.00000000000E+00  0.00000000000E+00  0.45116870374E+03  0.45116870376E+03  0.50400000000E-02 0.  1.
          1   -1    0    0  501    0  0.00000000000E+00 -0.00000000000E+00 -0.76697641080E+03  0.76697641082E+03  0.50400000000E-02 0. -1.
    8880023    1    1    2    0    0 -0.28904727613E+02 -0.25873526496E+03 -0.49772512491E+03  0.86563267431E+03  0.65864270000E+03 0. -1.
    8880022    1    1    2    0    0  0.28904727613E+02  0.25873526496E+03  0.18191741784E+03  0.35251244027E+03  0.15294330000E+03 0.  0.
<mgrwt>
<rscale>  0 0.57228563E+03</rscale>
<asrwt>0</asrwt>
<pdfrwt beam="1">  1        1 0.11799637E+00 0.70822993E+03</pdfrwt>
<pdfrwt beam="2">  1       -1 0.69410570E-01 0.70822993E+03</pdfrwt>
<totfact> 0.50964231E+01</totfact>
</mgrwt>
</event>
<event>
 4    1  0.1521315E-007  0.7057077E+03  0.7818608E-02  0.9974299E-01
         -1   -1    0    0    0  501 -0.00000000000E+00  0.00000000000E+00  0.16913188347E+04  0.16913188347E+04  0.50400000000E-02 0.  1.
          1   -1    0    0  501    0  0.00000000000E+00 -0.00000000000E+00 -0.18214151204E+03  0.18214151211E+03  0.50400000000E-02 0. -1.
    8880023    1    1    2    0    0  0.24166988860E+03  0.76216023629E+02  0.63073186502E+03  0.94649147335E+03  0.65864270000E+03 0.  0.
    8880022    1    1    2    0    0 -0.24166988860E+03 -0.76216023629E+02  0.87844545768E+03  0.92696887350E+03  0.15294330000E+03 0.  0.
<mgrwt>
<rscale>  0 0.56791677E+03</rscale>
<asrwt>0</asrwt>
<pdfrwt beam="1">  1        1 0.28021770E-01 0.70570775E+03</pdfrwt>
<pdfrwt beam="2">  1       -1 0.26020290E+00 0.70570775E+03</pdfrwt>
<totfact> 0.10470968E+01</totfact>
</mgrwt>
</event>
<event>
 4    1  0.1521315E-007  0.6587657E+03  0.7818608E-02  0.1025458E+00
          1   -1    0    0  501    0  0.00000000000E+00  0.00000000000E+00  0.15638675634E+04  0.15638675634E+04  0.50400000000E-02 0. -1.
         -1   -1    0    0    0  501 -0.00000000000E+00 -0.00000000000E+00 -0.12489049373E+03  0.12489049383E+03  0.50400000000E-02 0.  1.
    8880023    1    1    2    0    0  0.61261274461E+01  0.11155980422E+02  0.13706948658E+04  0.15207815776E+04  0.65864270000E+03 0. -1.
    8880022    1    1    2    0    0 -0.61261274461E+01 -0.11155980422E+02  0.68282203880E+02  0.16797647966E+03  0.15294330000E+03 0.  0.
<mgrwt>
<rscale>  0 0.45767318E+03</rscale>
<asrwt>0</asrwt>
<pdfrwt beam="1">  1        1 0.24059500E+00 0.65876566E+03</pdfrwt>
<pdfrwt beam="2">  1       -1 0.19213923E-01 0.65876566E+03</pdfrwt>
<totfact> 0.13310241E+02</totfact>
</mgrwt>
</event>
<event>
 4    1  0.1521315E-007  0.7478130E+03  0.7818608E-02  0.9837746E-01
         -1   -1    0    0    0  501 -0.00000000000E+00  0.00000000000E+00  0.10924257312E+04  0.10924257312E+04  0.50400000000E-02 0.  1.
          1   -1    0    0  501    0  0.00000000000E+00 -0.00000000000E+00 -0.68549389574E+03  0.68549389576E+03  0.50400000000E-02 0. -1.
    8880023    1    1    2    0    0  0.42656408390E+01  0.35411286261E+03 -0.42554207204E+03  0.86041291046E+03  0.65864270000E+03 0. -1.
    8880022    1    1    2    0    0 -0.42656408390E+01 -0.35411286261E+03  0.83247390745E+03  0.91750671646E+03  0.15294330000E+03 0.  0.
<mgrwt>
<rscale>  0 0.63375623E+03</rscale>
<asrwt>0</asrwt>
<pdfrwt beam="1">  1        1 0.10546060E+00 0.74781303E+03</pdfrwt>
<pdfrwt beam="2">  1       -1 0.16806549E+00 0.74781303E+03</pdfrwt>
<totfact> 0.73882629E+00</totfact>
</mgrwt>
</event>
<event>
 4    1  0.1521315E-007  0.9175796E+03  0.7818608E-02  0.9498380E-01
          1   -1    0    0  501    0  0.00000000000E+00  0.00000000000E+00  0.17276923828E+04  0.17276923828E+04  0.50400000000E-02 0. -1.
         -1   -1    0    0    0  501 -0.00000000000E+00 -0.00000000000E+00 -0.68019081291E+03  0.68019081293E+03  0.50400000000E-02 0.  1.
    8880023    1    1    2    0    0  0.26943952694E+03 -0.57926192579E+03  0.13911544217E+04  0.16665121868E+04  0.65864270000E+03 0.  0.
    8880022    1    1    2    0    0 -0.26943952694E+03  0.57926192579E+03 -0.34365285183E+03  0.74137100896E+03  0.15294330000E+03 0.  0.
<mgrwt>
<rscale>  0 0.84403340E+03</rscale>
<asrwt>0</asrwt>
<pdfrwt beam="1">  1        1 0.26579882E+00 0.91757956E+03</pdfrwt>
<pdfrwt beam="2">  1       -1 0.10464474E+00 0.91757956E+03</pdfrwt>
<totfact> 0.39905438E+00</totfact>
</mgrwt>
</event>
<event>
 4    1  0.1521315E-007  0.1077708E+04  0.7818608E-02  0.9286291E-01
          1   -1    0    0  501    0  0.00000000000E+00  0.00000000000E+00  0.33113182939E+04  0.33113182939E+04  0.50400000000E-02 0. -1.
         -1   -1    0    0    0  501 -0.00000000000E+00 -0.00000000000E+00 -0.31397154999E+03  0.31397155003E+03  0.50400000000E-02 0.  1.
    8880023    1    1    2    0    0 -0.18772283257E+03  0.83210839327E+03  0.11028682543E+04  0.15420028640E+04  0.65864270000E+03 0.  0.
    8880022    1    1    2    0    0  0.18772283257E+03 -0.83210839327E+03  0.18944784896E+04  0.20832869799E+04  0.15294330000E+03 0.  0.
<mgrwt>
<rscale>  0 0.10205479E+04</rscale>
<asrwt>0</asrwt>
<pdfrwt beam="1">  1        1 0.50943356E+00 0.10777080E+04</pdfrwt>
<pdfrwt beam="2">  1       -1 0.48303317E-01 0.10777080E+04</pdfrwt>
<totfact> 0.15343335E+00</totfact>
</mgrwt>
</event>
<event>
 4    1  0.1521315E-007  0.7884771E+03  0.7818608E-02  0.9736288E-01
         -1   -1    0    0    0  501 -0.00000000000E+00  0.00000000000E+00  0.40463121354E+03  0.40463121357E+03  0.50400000000E-02 0.  1.
          1   -1    0    0  501    0  0.00000000000E+00 -0.00000000000E+00 -0.21381369822E+04  0.21381369822E+04  0.50400000000E-02 0. -1.
    8880023    1    1    2    0    0 -0.43344784869E+03 -0.29841922786E+01 -0.18974523338E+04  0.20547558269E+04  0.65864270000E+03 0. -1.
    8880022    1    1    2    0    0  0.43344784869E+03  0.29841922786E+01  0.16394656512E+03  0.48801236887E+03  0.15294330000E+03 0.  0.
<mgrwt>
<rscale>  0 0.68896712E+03</rscale>
<asrwt>0</asrwt>
<pdfrwt beam="1">  1        1 0.32894414E+00 0.78847711E+03</pdfrwt>
<pdfrwt beam="2">  1       -1 0.62250957E-01 0.78847711E+03</pdfrwt>
<totfact> 0.65601610E+00</totfact>
</mgrwt>
</event>
<event>
 4    1  0.1521315E-007  0.8454195E+03  0.7818608E-02  0.9620045E-01
         -1   -1    0    0    0  501 -0.00000000000E+00  0.00000000000E+00  0.12782934270E+04  0.12782934270E+04  0.50400000000E-02 0.  1.
          1   -1    0    0  501    0  0.00000000000E+00 -0.00000000000E+00 -0.81957590981E+03  0.81957590982E+03  0.50400000000E-02 0. -1.
    8880023    1    1    2    0    0 -0.46547725712E+03  0.25348537160E+03 -0.50693275935E+03  0.98575602421E+03  0.65864270000E+03 0. -1.
    8880022    1    1    2    0    0  0.46547725712E+03 -0.25348537160E+03  0.96565027650E+03  0.11121133126E+04  0.15294330000E+03 0.  0.
<mgrwt>
<rscale>  0 0.75983573E+03</rscale>
<asrwt>0</asrwt>
<pdfrwt beam="1">  1        1 0.12608860E+00 0.84541949E+03</pdfrwt>
<pdfrwt beam="2">  1       -1 0.19666053E+00 0.84541949E+03</pdfrwt>
<totfact> 0.34562963E+00</totfact>
</mgrwt>
</event>
<event>
 4    1  0.1521315E-007  0.7111772E+03  0.7818608E-02  0.9953655E-01
          1   -1    0    0  501    0  0.00000000000E+00  0.00000000000E+00  0.18945027270E+04  0.18945027270E+04  0.50400000000E-02 0. -1.
         -1   -1    0    0    0  501 -0.00000000000E+00 -0.00000000000E+00 -0.28784652357E+03  0.28784652361E+03  0.50400000000E-02 0.  1.
    8880023    1    1    2    0    0  0.26592395321E+03  0.35316334891E+02  0.17137946610E+04  0.18554959280E+04  0.65864270000E+03 0. -1.
    8880022    1    1    2    0    0 -0.26592395321E+03 -0.35316334891E+02 -0.10713845759E+03  0.32685332263E+03  0.15294330000E+03 0.  0.
<mgrwt>
<rscale>  0 0.57729924E+03</rscale>
<asrwt>0</asrwt>
<pdfrwt beam="1">  1        1 0.29146195E+00 0.71117719E+03</pdfrwt>
<pdfrwt beam="2">  1       -1 0.44284082E-01 0.71117719E+03</pdfrwt>
<totfact> 0.18548438E+01</totfact>
</mgrwt>
</event>
<event>
 4    1  0.1521315E-007  0.7884713E+03  0.7818608E-02  0.9736301E-01
          1   -1    0    0  501    0  0.00000000000E+00  0.00000000000E+00  0.17545971915E+03  0.17545971922E+03  0.50400000000E-02 0. -1.
         -1   -1    0    0    0  501 -0.00000000000E+00 -0.00000000000E+00 -0.23931050528E+04  0.23931050528E+04  0.50400000000E-02 0.  1.
    8880023    1    1    2    0    0 -0.43311261706E+03 -0.17035407799E+02 -0.10452520774E+04  0.13092894469E+04  0.65864270000E+03 0.  0.
    8880022    1    1    2    0    0  0.43311261706E+03  0.17035407799E+02 -0.11723932563E+04  0.12592753252E+04  0.15294330000E+03 0. -1.
<mgrwt>
<rscale>  0 0.68895955E+03</rscale>
<asrwt>0</asrwt>
<pdfrwt beam="1">  1        1 0.26993805E-01 0.78847127E+03</pdfrwt>
<pdfrwt beam="2">  1       -1 0.36816998E+00 0.78847127E+03</pdfrwt>
<totfact> 0.21839271E+00</totfact>
</mgrwt>
</event>
<event>
 4    1  0.4053582E-007  0.8186591E+03  0.7818608E-02  0.9671815E-01
          1   -1    0    0  501    0  0.00000000000E+00  0.00000000000E+00  0.16185037000E+04  0.16185037000E+04  0.50400000000E-02 0. -1.
         -1   -1    0    0    0  501 -0.00000000000E+00 -0.00000000000E+00 -0.24916432082E+04  0.24916432082E+04  0.50400000000E-02 0.  1.
    8880023    1    1    2    0    0 -0.42430315967E+03 -0.23740130591E+03  0.14859955703E+04  0.16965805588E+04  0.65864270000E+03 0.  0.
    8880022    1    1    2    0    0  0.42430315967E+03  0.23740130591E+03 -0.23591350785E+04  0.24135663494E+04  0.15294330000E+03 0.  0.
<mgrwt>
<rscale>  0 0.72720009E+03</rscale>
<asrwt>0</asrwt>
<pdfrwt beam="1">  1        1 0.24900057E+00 0.81865912E+03</pdfrwt>
<pdfrwt beam="2">  1       -1 0.38332973E+00 0.81865912E+03</pdfrwt>
<totfact> 0.54011027E-02</totfact>
</mgrwt>
</event>
<event>
 4    1  0.1521315E-007  0.6715038E+03  0.7818608E-02  0.1014607E+00
         -1   -1    0    0    0  501 -0.00000000000E+00  0.00000000000E+00  0.20103062102E+03  0.20103062108E+03  0.50400000000E-02 0.  1.
          1   -1    0    0  501    0  0.00000000000E+00 -0.00000000000E+00 -0.12236513314E+04  0.12236513314E+04  0.50400000000E-02 0. -1.
    8880023    1    1    2    0    0  0.11443232939E+03 -0.63343606082E+02 -0.42647740087E+03  0.79548749214E+03  0.65864270000E+03 0.  1.
    8880022    1    1    2    0    0 -0.11443232939E+03  0.63343606082E+02 -0.59614330947E+03  0.62919446030E+03  0.15294330000E+03 0.  0.
<mgrwt>
<rscale>  0 0.49684013E+03</rscale>
<asrwt>0</asrwt>
<pdfrwt beam="1">  1        1 0.18825405E+00 0.67150382E+03</pdfrwt>
<pdfrwt beam="2">  1       -1 0.30927789E-01 0.67150382E+03</pdfrwt>
<totfact> 0.10202913E+02</totfact>
</mgrwt>
</event>
<event>
 4    1  0.1521315E-007  0.6652500E+03  0.7818608E-02  0.1019325E+00
          1   -1    0    0  501    0  0.00000000000E+00  0.00000000000E+00  0.32705196663E+04  0.32705196663E+04  0.50400000000E-02 0. -1.
         -1   -1    0    0    0  501 -0.00000000000E+00 -0.00000000000E+00 -0.90189227388E+02  0.90189227528E+02  0.50400000000E-02 0.  1.
    8880023    1    1    2    0    0 -0.79564167372E+02 -0.49162126546E+02  0.30884052119E+04  0.31592411004E+04  0.65864270000E+03 0. -1.
    8880022    1    1    2    0    0  0.79564167372E+02  0.49162126546E+02  0.91925227054E+02  0.20146779346E+03  0.15294330000E+03 0.  0.
<mgrwt>
<rscale>  0 0.47931140E+03</rscale>
<asrwt>0</asrwt>
<pdfrwt beam="1">  1        1 0.50315686E+00 0.66525001E+03</pdfrwt>
<pdfrwt beam="2">  1       -1 0.13875266E-01 0.66525001E+03</pdfrwt>
<totfact> 0.15201497E+01</totfact>
</mgrwt>
</event>
<event>
 4    1  0.1521315E-007  0.9464187E+03  0.7818608E-02  0.9455286E-01
         -1   -1    0    0    0  501 -0.00000000000E+00  0.00000000000E+00  0.50177903206E+03  0.50177903208E+03  0.50400000000E-02 0.  1.
          1   -1    0    0  501    0  0.00000000000E+00 -0.00000000000E+00 -0.16025225492E+04  0.16025225493E+04  0.50400000000E-02 0. -1.
    8880023    1    1    2    0    0 -0.47222416720E+03  0.48877652104E+03 -0.10382538137E+04  0.14048769838E+04  0.65864270000E+03 0. -1.
    8880022    1    1    2    0    0  0.47222416720E+03 -0.48877652104E+03 -0.62489703486E+02  0.69942459756E+03  0.15294330000E+03 0.  0.
<mgrwt>
<rscale>  0 0.87662254E+03</rscale>
<asrwt>0</asrwt>
<pdfrwt beam="1">  1        1 0.24654193E+00 0.94641870E+03</pdfrwt>
<pdfrwt beam="2">  1       -1 0.77196774E-01 0.94641870E+03</pdfrwt>
<totfact> 0.94736916E+00</totfact>
</mgrwt>
</event>
<event>
 4    1  0.1521315E-007  0.7439013E+03  0.7818608E-02  0.9848725E-01
         -1   -1    0    0    0  501 -0.00000000000E+00  0.00000000000E+00  0.50235432641E+03  0.50235432644E+03  0.50400000000E-02 0.  1.
          1   -1    0    0  501    0  0.00000000000E+00 -0.00000000000E+00 -0.92836129079E+03  0.92836129080E+03  0.50400000000E-02 0. -1.
    8880023    1    1    2    0    0 -0.31439760768E+02 -0.34436967818E+03 -0.65287276660E+03  0.98976360280E+03  0.65864270000E+03 0. -1.
    8880022    1    1    2    0    0  0.31439760768E+02  0.34436967818E+03  0.22686580222E+03  0.44095201444E+03  0.15294330000E+03 0.  0.
<mgrwt>
<rscale>  0 0.62811957E+03</rscale>
<asrwt>0</asrwt>
<pdfrwt beam="1">  1        1 0.14282481E+00 0.74390130E+03</pdfrwt>
<pdfrwt beam="2">  1       -1 0.77285281E-01 0.74390130E+03</pdfrwt>
<totfact> 0.29746987E+01</totfact>
</mgrwt>
</event>
<event>
 4    1  0.1521315E-007  0.8299551E+03  0.7818608E-02  0.9649420E-01
          1   -1    0    0  501    0  0.00000000000E+00  0.00000000000E+00  0.86334813012E+03  0.86334813014E+03  0.50400000000E-02 0. -1.
         -1   -1    0    0    0  501 -0.00000000000E+00 -0.00000000000E+00 -0.56775093399E+03  0.56775093401E+03  0.50400000000E-02 0.  1.
    8880023    1    1    2    0    0  0.29135698354E+02  0.50414921328E+03  0.34984299131E+03  0.90067510402E+03  0.65864270000E+03 0. -1.
    8880022    1    1    2    0    0 -0.29135698354E+02 -0.50414921328E+03 -0.54245795172E+02  0.53042396013E+03  0.15294330000E+03 0.  0.
<mgrwt>
<rscale>  0 0.74109857E+03</rscale>
<asrwt>0</asrwt>
<pdfrwt beam="1">  1        1 0.13282279E+00 0.82995513E+03</pdfrwt>
<pdfrwt beam="2">  1       -1 0.87346298E-01 0.82995513E+03</pdfrwt>
<totfact> 0.25635807E+01</totfact>
</mgrwt>
</event>
<event>
 4    1  0.1521315E-007  0.7413193E+03  0.7818608E-02  0.9856121E-01
          1   -1    0    0  501    0  0.00000000000E+00  0.00000000000E+00  0.41027926074E+03  0.41027926077E+03  0.50400000000E-02 0. -1.
         -1   -1    0    0    0  501 -0.00000000000E+00 -0.00000000000E+00 -0.35280959681E+04  0.35280959681E+04  0.50400000000E-02 0.  1.
    8880023    1    1    2    0    0  0.28425129367E+03 -0.18693653071E+03  0.55328650667E+02  0.74338114740E+03  0.65864270000E+03 0. -1.
    8880022    1    1    2    0    0 -0.28425129367E+03  0.18693653071E+03 -0.31731453580E+04  0.31949940815E+04  0.15294330000E+03 0.  0.
<mgrwt>
<rscale>  0 0.62435817E+03</rscale>
<asrwt>0</asrwt>
<pdfrwt beam="1">  1        1 0.63119889E-01 0.74131928E+03</pdfrwt>
<pdfrwt beam="2">  1       -1 0.54278397E+00 0.74131928E+03</pdfrwt>
<totfact> 0.50094480E-02</totfact>
</mgrwt>
</event>
<event>
 4    1  0.1521315E-007  0.7136099E+03  0.7818608E-02  0.9944832E-01
         -1   -1    0    0    0  501 -0.00000000000E+00  0.00000000000E+00  0.78465524398E+03  0.78465524400E+03  0.50400000000E-02 0.  1.
          1   -1    0    0  501    0  0.00000000000E+00 -0.00000000000E+00 -0.79867235457E+03  0.79867235459E+03  0.50400000000E-02 0. -1.
    8880023    1    1    2    0    0  0.72243220843E+02  0.26497137679E+03 -0.59080373361E+03  0.92643843367E+03  0.65864270000E+03 0. -1.
    8880022    1    1    2    0    0 -0.72243220843E+02 -0.26497137679E+03  0.57678662302E+03  0.65688916491E+03  0.15294330000E+03 0.  0.
<mgrwt>
<rscale>  0 0.58136861E+03</rscale>
<asrwt>0</asrwt>
<pdfrwt beam="1">  1        1 0.12287267E+00 0.71360992E+03</pdfrwt>
<pdfrwt beam="2">  1       -1 0.12071619E+00 0.71360992E+03</pdfrwt>
<totfact> 0.13986389E+01</totfact>
</mgrwt>
</event>
<event>
 4    1  0.1521315E-007  0.6651055E+03  0.7818608E-02  0.1019445E+00
          1   -1    0    0  501    0  0.00000000000E+00  0.00000000000E+00  0.16721751574E+04  0.16721751574E+04  0.50400000000E-02 0. -1.
         -1   -1    0    0    0  501 -0.00000000000E+00 -0.00000000000E+00 -0.27391413983E+03  0.27391413988E+03  0.50400000000E-02 0.  1.
    8880023    1    1    2    0    0  0.63804691996E+02  0.66963264617E+02  0.15657398618E+04  0.17011486233E+04  0.65864270000E+03 0. -1.
    8880022    1    1    2    0    0 -0.63804691996E+02 -0.66963264617E+02 -0.16747884418E+03  0.24494067402E+03  0.15294330000E+03 0.  0.
<mgrwt>
<rscale>  0 0.47887402E+03</rscale>
<asrwt>0</asrwt>
<pdfrwt beam="1">  1        1 0.25725772E+00 0.66510550E+03</pdfrwt>
<pdfrwt beam="2">  1       -1 0.42140637E-01 0.66510550E+03</pdfrwt>
<totfact> 0.28819949E+01</totfact>
</mgrwt>
</event>
<event>
 4    1  0.1521315E-007  0.1022935E+04  0.7818608E-02  0.9352149E-01
          1   -1    0    0  501    0  0.00000000000E+00  0.00000000000E+00  0.70677373800E+03  0.70677373802E+03  0.50400000000E-02 0. -1.
         -1   -1    0    0    0  501 -0.00000000000E+00 -0.00000000000E+00 -0.22853506192E+04  0.22853506192E+04  0.50400000000E-02 0.  1.
    8880023    1    1    2    0    0 -0.21201001983E+03  0.75341671391E+03  0.20057849649E+03  0.10424139930E+04  0.65864270000E+03 0. -1.
    8880022    1    1    2    0    0  0.21201001983E+03 -0.75341671391E+03 -0.17791553777E+04  0.19497103642E+04  0.15294330000E+03 0.  0.
<mgrwt>
<rscale>  0 0.96120506E+03</rscale>
<asrwt>0</asrwt>
<pdfrwt beam="1">  1        1 0.10873442E+00 0.10229346E+04</pdfrwt>
<pdfrwt beam="2">  1       -1 0.35159240E+00 0.10229346E+04</pdfrwt>
<totfact> 0.41401692E-01</totfact>
</mgrwt>
</event>
<event>
 4    1  0.1521315E-007  0.7642750E+03  0.7818608E-02  0.9794163E-01
          1   -1    0    0  501    0  0.00000000000E+00  0.00000000000E+00  0.27138208403E+04  0.27138208403E+04  0.50400000000E-02 0. -1.
         -1   -1    0    0    0  501 -0.00000000000E+00 -0.00000000000E+00 -0.19822673049E+03  0.19822673056E+03  0.50400000000E-02 0.  1.
    8880023    1    1    2    0    0 -0.34182476704E+03  0.18292605567E+03  0.23366866846E+04  0.24584997421E+04  0.65864270000E+03 0.  0.
    8880022    1    1    2    0    0  0.34182476704E+03 -0.18292605567E+03  0.17890742511E+03  0.45354782876E+03  0.15294330000E+03 0.  0.
<mgrwt>
<rscale>  0 0.65676732E+03</rscale>
<asrwt>0</asrwt>
<pdfrwt beam="1">  1        1 0.41751087E+00 0.76427503E+03</pdfrwt>
<pdfrwt beam="2">  1       -1 0.30496422E-01 0.76427503E+03</pdfrwt>
<totfact> 0.10029389E+01</totfact>
</mgrwt>
</event>
<event>
 4    1  0.1521315E-007  0.6704800E+03  0.7818608E-02  0.1015321E+00
          1   -1    0    0  501    0  0.00000000000E+00  0.00000000000E+00  0.15787298997E+04  0.15787298997E+04  0.50400000000E-02 0. -1.
         -1   -1    0    0    0  501 -0.00000000000E+00 -0.00000000000E+00 -0.54759261831E+03  0.54759261833E+03  0.50400000000E-02 0.  1.
    8880023    1    1    2    0    0 -0.11649102492E+02  0.12489020058E+03  0.14860305978E+04  0.16302853762E+04  0.65864270000E+03 0.  0.
    8880022    1    1    2    0    0  0.11649102492E+02 -0.12489020058E+03 -0.45489331642E+03  0.49603714189E+03  0.15294330000E+03 0.  0.
<mgrwt>
<rscale>  0 0.49413551E+03</rscale>
<asrwt>0</asrwt>
<pdfrwt beam="1">  1        1 0.24288153E+00 0.67048003E+03</pdfrwt>
<pdfrwt beam="2">  1       -1 0.84245018E-01 0.67048003E+03</pdfrwt>
<totfact> 0.84923815E+00</totfact>
</mgrwt>
</event>
<event>
 4    1  0.1521315E-007  0.9995871E+03  0.7818608E-02  0.9382098E-01
          1   -1    0    0  501    0  0.00000000000E+00  0.00000000000E+00  0.14849877691E+04  0.14849877691E+04  0.50400000000E-02 0. -1.
         -1   -1    0    0    0  501 -0.00000000000E+00 -0.00000000000E+00 -0.55683430276E+03  0.55683430278E+03  0.50400000000E-02 0.  1.
    8880023    1    1    2    0    0 -0.50832519600E+03 -0.55404839847E+03  0.28176423070E+03  0.10385400429E+04  0.65864270000E+03 0.  1.
    8880022    1    1    2    0    0  0.50832519600E+03  0.55404839847E+03  0.64638923568E+03  0.10032820290E+04  0.15294330000E+03 0.  0.
<mgrwt>
<rscale>  0 0.93563697E+03</rscale>
<asrwt>0</asrwt>
<pdfrwt beam="1">  1        1 0.22845965E+00 0.99958708E+03</pdfrwt>
<pdfrwt beam="2">  1       -1 0.85666818E-01 0.99958708E+03</pdfrwt>
<totfact> 0.90706809E+00</totfact>
</mgrwt>
</event>
<event>
 4    1  0.1521315E-007  0.6733133E+03  0.7818608E-02  0.1013391E+00
          1   -1    0    0  501    0  0.00000000000E+00  0.00000000000E+00  0.79751156494E+03  0.79751156496E+03  0.50400000000E-02 0. -1.
         -1   -1    0    0    0  501 -0.00000000000E+00 -0.00000000000E+00 -0.25128327822E+03  0.25128327827E+03  0.50400000000E-02 0.  1.
    8880023    1    1    2    0    0 -0.85459028436E+02  0.11062253898E+03  0.49404569313E+03  0.83512390987E+03  0.65864270000E+03 0.  0.
    8880022    1    1    2    0    0  0.85459028436E+02 -0.11062253898E+03  0.52182593593E+02  0.21367093336E+03  0.15294330000E+03 0.  0.
<mgrwt>
<rscale>  0 0.50148834E+03</rscale>
<asrwt>0</asrwt>
<pdfrwt beam="1">  1        1 0.12269409E+00 0.67331330E+03</pdfrwt>
<pdfrwt beam="2">  1       -1 0.38658966E-01 0.67331330E+03</pdfrwt>
<totfact> 0.14708474E+02</totfact>
</mgrwt>
</event>
<event>
 4    1  0.1521315E-007  0.9077506E+03  0.7818608E-02  0.9513702E-01
          1   -1    0    0  501    0  0.00000000000E+00  0.00000000000E+00  0.10224959616E+04  0.10224959616E+04  0.50400000000E-02 0. -1.
         -1   -1    0    0    0  501 -0.00000000000E+00 -0.00000000000E+00 -0.10928377120E+04  0.10928377120E+04  0.50400000000E-02 0.  1.
    8880023    1    1    2    0    0  0.41476641102E+03 -0.46708653991E+03  0.67476444660E+03  0.11310695275E+04  0.65864270000E+03 0. -1.
    8880022    1    1    2    0    0 -0.41476641102E+03  0.46708653991E+03 -0.74510619700E+03  0.98426414610E+03  0.15294330000E+03 0.  0.
<mgrwt>
<rscale>  0 0.83281114E+03</rscale>
<asrwt>0</asrwt>
<pdfrwt beam="1">  1        1 0.15730707E+00 0.90775064E+03</pdfrwt>
<pdfrwt beam="2">  1       -1 0.16812888E+00 0.90775064E+03</pdfrwt>
<totfact> 0.37460206E+00</totfact>
</mgrwt>
</event>
<event>
 4    1  0.1521315E-007  0.8182908E+03  0.7818608E-02  0.9672559E-01
         -1   -1    0    0    0  501 -0.00000000000E+00  0.00000000000E+00  0.28951231681E+03  0.28951231685E+03  0.50400000000E-02 0.  1.
          1   -1    0    0  501    0  0.00000000000E+00 -0.00000000000E+00 -0.19623960497E+04  0.19623960497E+04  0.50400000000E-02 0. -1.
    8880023    1    1    2    0    0 -0.40353974309E+03  0.27008383207E+03 -0.15098583918E+04  0.17173445112E+04  0.65864270000E+03 0. -1.
    8880022    1    1    2    0    0  0.40353974309E+03 -0.27008383207E+03 -0.16302534109E+03  0.53456385535E+03  0.15294330000E+03 0.  0.
<mgrwt>
<rscale>  0 0.72674356E+03</rscale>
<asrwt>0</asrwt>
<pdfrwt beam="1">  1        1 0.30190708E+00 0.81829078E+03</pdfrwt>
<pdfrwt beam="2">  1       -1 0.44540358E-01 0.81829078E+03</pdfrwt>
<totfact> 0.16284310E+01</totfact>
</mgrwt>
</event>
<event>
 4    1  0.1521315E-007  0.1035894E+04  0.7818608E-02  0.9336034E-01
          1   -1    0    0  501    0  0.00000000000E+00  0.00000000000E+00  0.13676917522E+04  0.13676917522E+04  0.50400000000E-02 0. -1.
         -1   -1    0    0    0  501 -0.00000000000E+00 -0.00000000000E+00 -0.16778884358E+04  0.16778884358E+04  0.50400000000E-02 0.  1.
    8880023    1    1    2    0    0 -0.56101759488E+03 -0.56967169940E+03  0.10406974418E+04  0.14683759595E+04  0.65864270000E+03 0. -1.
    8880022    1    1    2    0    0  0.56101759488E+03  0.56967169940E+03 -0.13508941255E+04  0.15772042284E+04  0.15294330000E+03 0.  0.
<mgrwt>
<rscale>  0 0.97532140E+03</rscale>
<asrwt>0</asrwt>
<pdfrwt beam="1">  1        1 0.21041412E+00 0.10358942E+04</pdfrwt>
<pdfrwt beam="2">  1       -1 0.25813668E+00 0.10358942E+04</pdfrwt>
<totfact> 0.50210530E-01</totfact>
</mgrwt>
</event>
<event>
 4    1  0.1521315E-007  0.6761942E+03  0.7818608E-02  0.1011564E+00
         -1   -1    0    0    0  501 -0.00000000000E+00  0.00000000000E+00  0.71918785444E+03  0.71918785446E+03  0.50400000000E-02 0.  1.
          1   -1    0    0  501    0  0.00000000000E+00 -0.00000000000E+00 -0.72592004469E+03  0.72592004471E+03  0.50400000000E-02 0. -1.
    8880023    1    1    2    0    0  0.63373143003E+01  0.15293217788E+03 -0.54274375761E+03  0.86706943509E+03  0.65864270000E+03 0. -1.
    8880022    1    1    2    0    0 -0.63373143003E+01 -0.15293217788E+03  0.53601156737E+03  0.57803846407E+03  0.15294330000E+03 0.  0.
<mgrwt>
<rscale>  0 0.50857803E+03</rscale>
<asrwt>0</asrwt>
<pdfrwt beam="1">  1        1 0.11168001E+00 0.67619422E+03</pdfrwt>
<pdfrwt beam="2">  1       -1 0.11064429E+00 0.67619422E+03</pdfrwt>
<totfact> 0.20096534E+01</totfact>
</mgrwt>
</event>
<event>
 4    1  0.1521315E-007  0.6606670E+03  0.7818608E-02  0.1023483E+00
         -1   -1    0    0    0  501 -0.00000000000E+00  0.00000000000E+00  0.13265269230E+04  0.13265269230E+04  0.50400000000E-02 0.  1.
          1   -1    0    0  501    0  0.00000000000E+00 -0.00000000000E+00 -0.21428729375E+03  0.21428729381E+03  0.50400000000E-02 0. -1.
    8880023    1    1    2    0    0 -0.34654220618E+02  0.38338170344E+02  0.32330556948E+03  0.73553207125E+03  0.65864270000E+03 0. -1.
    8880022    1    1    2    0    0  0.34654220618E+02 -0.38338170344E+02  0.78893405978E+03  0.80528214559E+03  0.15294330000E+03 0.  0.
<mgrwt>
<rscale>  0 0.46450324E+03</rscale>
<asrwt>0</asrwt>
<pdfrwt beam="1">  1        1 0.32967276E-01 0.66066704E+03</pdfrwt>
<pdfrwt beam="2">  1       -1 0.20408106E+00 0.66066704E+03</pdfrwt>
<totfact> 0.19882919E+01</totfact>
</mgrwt>
</event>
<event>
 4    1  0.1521315E-007  0.8919412E+03  0.7818608E-02  0.9539094E-01
          1   -1    0    0  501    0  0.00000000000E+00  0.00000000000E+00  0.17797973175E+04  0.17797973175E+04  0.50400000000E-02 0. -1.
         -1   -1    0    0    0  501 -0.00000000000E+00 -0.00000000000E+00 -0.57509378686E+03  0.57509378688E+03  0.50400000000E-02 0.  1.
    8880023    1    1    2    0    0  0.52731848222E+03  0.28928212402E+03 -0.11230985445E+03  0.89898422602E+03  0.65864270000E+03 0.  0.
    8880022    1    1    2    0    0 -0.52731848222E+03 -0.28928212402E+03  0.13170133850E+04  0.14559068783E+04  0.15294330000E+03 0.  0.
<mgrwt>
<rscale>  0 0.81461909E+03</rscale>
<asrwt>0</asrwt>
<pdfrwt beam="1">  1        1 0.27381496E+00 0.89194122E+03</pdfrwt>
<pdfrwt beam="2">  1       -1 0.88475969E-01 0.89194122E+03</pdfrwt>
<totfact> 0.53959827E+00</totfact>
</mgrwt>
</event>
<event>
 4    1  0.1521315E-007  0.6990135E+03  0.7818608E-02  0.1000132E+00
          1   -1    0    0  501    0  0.00000000000E+00  0.00000000000E+00  0.73592954318E+03  0.73592954320E+03  0.50400000000E-02 0. -1.
         -1   -1    0    0    0  501 -0.00000000000E+00 -0.00000000000E+00 -0.20791189148E+04  0.20791189148E+04  0.50400000000E-02 0.  1.
    8880023    1    1    2    0    0  0.23381700360E+03  0.11802857571E+02  0.55737044053E+03  0.89402556611E+03  0.65864270000E+03 0.  0.
    8880022    1    1    2    0    0 -0.23381700360E+03 -0.11802857571E+02 -0.19005598121E+04  0.19210228918E+04  0.15294330000E+03 0.  0.
<mgrwt>
<rscale>  0 0.55592469E+03</rscale>
<asrwt>0</asrwt>
<pdfrwt beam="1">  1        1 0.11321993E+00 0.69901352E+03</pdfrwt>
<pdfrwt beam="2">  1       -1 0.31986445E+00 0.69901352E+03</pdfrwt>
<totfact> 0.66415653E-01</totfact>
</mgrwt>
</event>
<event>
 4    1  0.1521315E-007  0.8594234E+03  0.7818608E-02  0.9594590E-01
          1   -1    0    0  501    0  0.00000000000E+00  0.00000000000E+00  0.85484110830E+03  0.85484110831E+03  0.50400000000E-02 0. -1.
         -1   -1    0    0    0  501 -0.00000000000E+00 -0.00000000000E+00 -0.97393630585E+03  0.97393630586E+03  0.50400000000E-02 0.  1.
    8880023    1    1    2    0    0 -0.16046086051E+03  0.52825240893E+03  0.49269802429E+03  0.99063608086E+03  0.65864270000E+03 0. -1.
    8880022    1    1    2    0    0  0.16046086051E+03 -0.52825240893E+03 -0.61179322184E+03  0.83814133331E+03  0.15294330000E+03 0.  1.
<mgrwt>
<rscale>  0 0.77655286E+03</rscale>
<asrwt>0</asrwt>
<pdfrwt beam="1">  1        1 0.13151402E+00 0.85942335E+03</pdfrwt>
<pdfrwt beam="2">  1       -1 0.14983635E+00 0.85942335E+03</pdfrwt>
<totfact> 0.70713883E+00</totfact>
</mgrwt>
</event>
<event>
 4    1  0.1521315E-007  0.8302665E+03  0.7818608E-02  0.9648814E-01
         -1   -1    0    0    0  501 -0.00000000000E+00  0.00000000000E+00  0.19493590078E+04  0.19493590078E+04  0.50400000000E-02 0.  1.
          1   -1    0    0  501    0  0.00000000000E+00 -0.00000000000E+00 -0.30647739165E+03  0.30647739169E+03  0.50400000000E-02 0. -1.
    8880023    1    1    2    0    0  0.50467615348E+03 -0.28884501640E+02  0.43450937112E+03  0.93709174267E+03  0.65864270000E+03 0. -1.
    8880022    1    1    2    0    0 -0.50467615348E+03  0.28884501640E+02  0.12083722450E+04  0.13187446568E+04  0.15294330000E+03 0.  0.
<mgrwt>
<rscale>  0 0.74147906E+03</rscale>
<asrwt>0</asrwt>
<pdfrwt beam="1">  1        1 0.47150369E-01 0.83026655E+03</pdfrwt>
<pdfrwt beam="2">  1       -1 0.29990138E+00 0.83026655E+03</pdfrwt>
<totfact> 0.29225720E+00</totfact>
</mgrwt>
</event>
<event>
 4    1  0.1521315E-007  0.8203735E+03  0.7818608E-02  0.9668361E-01
          1   -1    0    0  501    0  0.00000000000E+00  0.00000000000E+00  0.48377113710E+03  0.48377113712E+03  0.50400000000E-02 0. -1.
         -1   -1    0    0    0  501 -0.00000000000E+00 -0.00000000000E+00 -0.11071424174E+04  0.11071424174E+04  0.50400000000E-02 0.  1.
    8880023    1    1    2    0    0  0.40879278189E+02  0.48737184879E+03 -0.69282708118E+03  0.10737886222E+04  0.65864270000E+03 0.  1.
    8880022    1    1    2    0    0 -0.40879278189E+02 -0.48737184879E+03  0.69455800903E+02  0.51712493236E+03  0.15294330000E+03 0.  0.
<mgrwt>
<rscale>  0 0.72932202E+03</rscale>
<asrwt>0</asrwt>
<pdfrwt beam="1">  1        1 0.74426329E-01 0.82037348E+03</pdfrwt>
<pdfrwt beam="2">  1       -1 0.17032960E+00 0.82037348E+03</pdfrwt>
<totfact> 0.11591875E+01</totfact>
</mgrwt>
</event>
<event>
 4    1  0.1521315E-007  0.1163087E+04  0.7818608E-02  0.9193867E-01
          1   -1    0    0  501    0  0.00000000000E+00  0.00000000000E+00  0.13520500970E+04  0.13520500970E+04  0.50400000000E-02 0. -1.
         -1   -1    0    0    0  501 -0.00000000000E+00 -0.00000000000E+00 -0.17135320355E+04  0.17135320355E+04  0.50400000000E-02 0.  1.
    8880023    1    1    2    0    0  0.65344813261E+03  0.70140368155E+03  0.90226918476E+03  0.14720263158E+04  0.65864270000E+03 0.  0.
    8880022    1    1    2    0    0 -0.65344813261E+03 -0.70140368155E+03 -0.12637511232E+04  0.15935558167E+04  0.15294330000E+03 0.  0.
<mgrwt>
<rscale>  0 0.11116957E+04</rscale>
<asrwt>0</asrwt>
<pdfrwt beam="1">  1        1 0.20800771E+00 0.11630872E+04</pdfrwt>
<pdfrwt beam="2">  1       -1 0.26362031E+00 0.11630872E+04</pdfrwt>
<totfact> 0.46581354E-01</totfact>
</mgrwt>
</event>
<event>
 4    1  0.1521315E-007  0.7489186E+03  0.7818608E-02  0.9834690E-01
          1   -1    0    0  501    0  0.00000000000E+00  0.00000000000E+00  0.12912902170E+04  0.12912902170E+04  0.50400000000E-02 0. -1.
         -1   -1    0    0    0  501 -0.00000000000E+00 -0.00000000000E+00 -0.13427476080E+04  0.13427476080E+04  0.50400000000E-02 0.  1.
    8880023    1    1    2    0    0 -0.18661325110E+03  0.30371765884E+03  0.11495271157E+04  0.13719663690E+04  0.65864270000E+03 0. -1.
    8880022    1    1    2    0    0  0.18661325110E+03 -0.30371765884E+03 -0.12009845066E+04  0.12620714560E+04  0.15294330000E+03 0.  0.
<mgrwt>
<rscale>  0 0.63533652E+03</rscale>
<asrwt>0</asrwt>
<pdfrwt beam="1">  1        1 0.19866003E+00 0.74891864E+03</pdfrwt>
<pdfrwt beam="2">  1       -1 0.20657655E+00 0.74891864E+03</pdfrwt>
<totfact> 0.13063714E+00</totfact>
</mgrwt>
</event>
<event>
 4    1  0.1521315E-007  0.6766632E+03  0.7818608E-02  0.1011278E+00
          1   -1    0    0  501    0  0.00000000000E+00  0.00000000000E+00  0.12922625188E+04  0.12922625189E+04  0.50400000000E-02 0. -1.
         -1   -1    0    0    0  501 -0.00000000000E+00 -0.00000000000E+00 -0.28459927157E+03  0.28459927162E+03  0.50400000000E-02 0.  1.
    8880023    1    1    2    0    0  0.11509597022E+03  0.10399895396E+03  0.11372924866E+04  0.13233696654E+04  0.65864270000E+03 0. -1.
    8880022    1    1    2    0    0 -0.11509597022E+03 -0.10399895396E+03 -0.12962923935E+03  0.25349212512E+03  0.15294330000E+03 0.  0.
<mgrwt>
<rscale>  0 0.50969938E+03</rscale>
<asrwt>0</asrwt>
<pdfrwt beam="1">  1        1 0.19880962E+00 0.67666319E+03</pdfrwt>
<pdfrwt beam="2">  1       -1 0.43784503E-01 0.67666319E+03</pdfrwt>
<totfact> 0.48867508E+01</totfact>
</mgrwt>
</event>
<event>
 4    1  0.1521315E-007  0.7581919E+03  0.7818608E-02  0.9809811E-01
         -1   -1    0    0    0  501 -0.00000000000E+00  0.00000000000E+00  0.42070468435E+03  0.42070468438E+03  0.50400000000E-02 0.  1.
          1   -1    0    0  501    0  0.00000000000E+00 -0.00000000000E+00 -0.12634070273E+04  0.12634070273E+04  0.50400000000E-02 0. -1.
    8880023    1    1    2    0    0  0.36365518803E+03  0.93806450992E+02 -0.99499666970E+03  0.12509489698E+04  0.65864270000E+03 0.  0.
    8880022    1    1    2    0    0 -0.36365518803E+03 -0.93806450992E+02  0.15229432673E+03  0.43316274193E+03  0.15294330000E+03 0.  0.
<mgrwt>
<rscale>  0 0.64838670E+03</rscale>
<asrwt>0</asrwt>
<pdfrwt beam="1">  1        1 0.19437031E+00 0.75819190E+03</pdfrwt>
<pdfrwt beam="2">  1       -1 0.64723798E-01 0.75819190E+03</pdfrwt>
<totfact> 0.23953141E+01</totfact>
</mgrwt>
</event>
<event>
 4    1  0.1521315E-007  0.6813079E+03  0.7818608E-02  0.1008593E+00
         -1   -1    0    0    0  501 -0.00000000000E+00  0.00000000000E+00  0.53677097258E+03  0.53677097260E+03  0.50400000000E-02 0.  1.
          1   -1    0    0  501    0  0.00000000000E+00 -0.00000000000E+00 -0.71547261237E+03  0.71547261239E+03  0.50400000000E-02 0. -1.
    8880023    1    1    2    0    0  0.93831469960E+02  0.14685356723E+03 -0.50775554128E+03  0.84970360181E+03  0.65864270000E+03 0.  0.
    8880022    1    1    2    0    0 -0.93831469960E+02 -0.14685356723E+03  0.32905390149E+03  0.40253998319E+03  0.15294330000E+03 0.  0.
<mgrwt>
<rscale>  0 0.52037567E+03</rscale>
<asrwt>0</asrwt>
<pdfrwt beam="1">  1        1 0.11007271E+00 0.68130795E+03</pdfrwt>
<pdfrwt beam="2">  1       -1 0.82580150E-01 0.68130795E+03</pdfrwt>
<totfact> 0.39579913E+01</totfact>
</mgrwt>
</event>
<event>
 4    1  0.1521315E-007  0.6762364E+03  0.7818608E-02  0.1011538E+00
         -1   -1    0    0    0  501 -0.00000000000E+00  0.00000000000E+00  0.53452156415E+03  0.53452156417E+03  0.50400000000E-02 0.  1.
          1   -1    0    0  501    0  0.00000000000E+00 -0.00000000000E+00 -0.42623952703E+03  0.42623952706E+03  0.50400000000E-02 0. -1.
    8880023    1    1    2    0    0 -0.14824262514E+03  0.38852596048E+02 -0.70601261658E+02  0.67991186527E+03  0.65864270000E+03 0. -1.
    8880022    1    1    2    0    0  0.14824262514E+03 -0.38852596048E+02  0.17888329877E+03  0.28084922596E+03  0.15294330000E+03 0.  1.
<mgrwt>
<rscale>  0 0.50867913E+03</rscale>
<asrwt>0</asrwt>
<pdfrwt beam="1">  1        1 0.65575312E-01 0.67623635E+03</pdfrwt>
<pdfrwt beam="2">  1       -1 0.82234086E-01 0.67623635E+03</pdfrwt>
<totfact> 0.82967715E+01</totfact>
</mgrwt>
</event>
<event>
 4    1  0.1521315E-007  0.6710547E+03  0.7818608E-02  0.1014918E+00
         -1   -1    0    0    0  501 -0.00000000000E+00  0.00000000000E+00  0.82820905491E+03  0.82820905493E+03  0.50400000000E-02 0.  1.
          1   -1    0    0  501    0  0.00000000000E+00 -0.00000000000E+00 -0.33986802927E+03  0.33986802931E+03  0.50400000000E-02 0. -1.
    8880023    1    1    2    0    0  0.97233951588E+02  0.83962915261E+02  0.34169313123E+02  0.67192407361E+03  0.65864270000E+03 0.  0.
    8880022    1    1    2    0    0 -0.97233951588E+02 -0.83962915261E+02  0.45417171252E+03  0.49615301062E+03  0.15294330000E+03 0.  0.
<mgrwt>
<rscale>  0 0.49566064E+03</rscale>
<asrwt>0</asrwt>
<pdfrwt beam="1">  1        1 0.52287390E-01 0.67105471E+03</pdfrwt>
<pdfrwt beam="2">  1       -1 0.12741678E+00 0.67105471E+03</pdfrwt>
<totfact> 0.40851423E+01</totfact>
</mgrwt>
</event>
<event>
 4    1  0.1521315E-007  0.7875983E+03  0.7818608E-02  0.9738282E-01
          1   -1    0    0  501    0  0.00000000000E+00  0.00000000000E+00  0.23878661648E+04  0.23878661648E+04  0.50400000000E-02 0. -1.
         -1   -1    0    0    0  501 -0.00000000000E+00 -0.00000000000E+00 -0.52255883351E+03  0.52255883354E+03  0.50400000000E-02 0.  1.
    8880023    1    1    2    0    0 -0.37441358678E+03  0.21521000091E+03  0.22041213482E+04  0.23406114591E+04  0.65864270000E+03 0.  0.
    8880022    1    1    2    0    0  0.37441358678E+03 -0.21521000091E+03 -0.33881401692E+03  0.56981353927E+03  0.15294330000E+03 0.  0.
<mgrwt>
<rscale>  0 0.68782539E+03</rscale>
<asrwt>0</asrwt>
<pdfrwt beam="1">  1        1 0.36736402E+00 0.78759830E+03</pdfrwt>
<pdfrwt beam="2">  1       -1 0.80393667E-01 0.78759830E+03</pdfrwt>
<totfact> 0.26321000E+00</totfact>
</mgrwt>
</event>
<event>
 4    1  0.1521315E-007  0.6990929E+03  0.7818608E-02  0.1000098E+00
          1   -1    0    0  501    0  0.00000000000E+00  0.00000000000E+00  0.59394933783E+03  0.59394933786E+03  0.50400000000E-02 0. -1.
         -1   -1    0    0    0  501 -0.00000000000E+00 -0.00000000000E+00 -0.55038453713E+03  0.55038453716E+03  0.50400000000E-02 0.  1.
    8880023    1    1    2    0    0 -0.16967628049E+03  0.16164994714E+03  0.30374322765E+03  0.76222759080E+03  0.65864270000E+03 0. -1.
    8880022    1    1    2    0    0  0.16967628049E+03 -0.16164994714E+03 -0.26017842695E+03  0.38210628421E+03  0.15294330000E+03 0.  0.
<mgrwt>
<rscale>  0 0.55607069E+03</rscale>
<asrwt>0</asrwt>
<pdfrwt beam="1">  1        1 0.91376820E-01 0.69909295E+03</pdfrwt>
<pdfrwt beam="2">  1       -1 0.84674545E-01 0.69909295E+03</pdfrwt>
<totfact> 0.49256170E+01</totfact>
</mgrwt>
</event>
<event>
 4    1  0.1521315E-007  0.7687943E+03  0.7818608E-02  0.9782850E-01
         -1   -1    0    0    0  501 -0.00000000000E+00  0.00000000000E+00  0.13198696270E+04  0.13198696270E+04  0.50400000000E-02 0.  1.
          1   -1    0    0  501    0  0.00000000000E+00 -0.00000000000E+00 -0.73995621589E+03  0.73995621590E+03  0.50400000000E-02 0. -1.
    8880023    1    1    2    0    0 -0.37711769013E+03  0.12254286800E+03 -0.48789886284E+03  0.91054380088E+03  0.65864270000E+03 0. -1.
    8880022    1    1    2    0    0  0.37711769013E+03 -0.12254286800E+03  0.10678122739E+04  0.11492820420E+04  0.15294330000E+03 0.  0.
<mgrwt>
<rscale>  0 0.66291097E+03</rscale>
<asrwt>0</asrwt>
<pdfrwt beam="1">  1        1 0.11383942E+00 0.76879432E+03</pdfrwt>
<pdfrwt beam="2">  1       -1 0.20305687E+00 0.76879432E+03</pdfrwt>
<totfact> 0.37139450E+00</totfact>
</mgrwt>
</event>
<event>
 4    1  0.1521315E-007  0.6636962E+03  0.7818608E-02  0.1020653E+00
          1   -1    0    0  501    0  0.00000000000E+00  0.00000000000E+00  0.35150745988E+03  0.35150745991E+03  0.50400000000E-02 0. -1.
         -1   -1    0    0    0  501 -0.00000000000E+00 -0.00000000000E+00 -0.62663201561E+03  0.62663201563E+03  0.50400000000E-02 0.  1.
    8880023    1    1    2    0    0  0.80077489578E+02  0.16434628387E+02 -0.12978391343E+02  0.66382312874E+03  0.65864270000E+03 0. -1.
    8880022    1    1    2    0    0 -0.80077489578E+02 -0.16434628387E+02 -0.26214616440E+03  0.31431634681E+03  0.15294330000E+03 0.  0.
<mgrwt>
<rscale>  0 0.47451637E+03</rscale>
<asrwt>0</asrwt>
<pdfrwt beam="1">  1        1 0.54078071E-01 0.66369625E+03</pdfrwt>
<pdfrwt beam="2">  1       -1 0.96404925E-01 0.66369625E+03</pdfrwt>
<totfact> 0.75609805E+01</totfact>
</mgrwt>
</event>
<event>
 4    1  0.1521315E-007  0.6842950E+03  0.7818608E-02  0.1006992E+00
         -1   -1    0    0    0  501 -0.00000000000E+00  0.00000000000E+00  0.23582711664E+03  0.23582711670E+03  0.50400000000E-02 0.  1.
          1   -1    0    0  501    0  0.00000000000E+00 -0.00000000000E+00 -0.15566808412E+04  0.15566808412E+04  0.50400000000E-02 0. -1.
    8880023    1    1    2    0    0 -0.12459743566E+03 -0.13756773239E+03 -0.13839356158E+04  0.15438709133E+04  0.65864270000E+03 0.  0.
    8880022    1    1    2    0    0  0.12459743566E+03  0.13756773239E+03  0.63081891192E+02  0.24863704466E+03  0.15294330000E+03 0.  0.
<mgrwt>
<rscale>  0 0.52688039E+03</rscale>
<asrwt>0</asrwt>
<pdfrwt beam="1">  1        1 0.23948935E+00 0.68429497E+03</pdfrwt>
<pdfrwt beam="2">  1       -1 0.36281096E-01 0.68429497E+03</pdfrwt>
<totfact> 0.45099585E+01</totfact>
</mgrwt>
</event>
<event>
 4    1  0.1521315E-007  0.7190192E+03  0.7818608E-02  0.9925919E-01
          1   -1    0    0  501    0  0.00000000000E+00  0.00000000000E+00  0.16139171129E+04  0.16139171129E+04  0.50400000000E-02 0. -1.
         -1   -1    0    0    0  501 -0.00000000000E+00 -0.00000000000E+00 -0.34230363608E+03  0.34230363612E+03  0.50400000000E-02 0.  1.
    8880023    1    1    2    0    0  0.28385915553E+03 -0.51013219552E+02  0.14245491197E+04  0.15957220214E+04  0.65864270000E+03 0. -1.
    8880022    1    1    2    0    0 -0.28385915553E+03  0.51013219552E+02 -0.15293564291E+03  0.36049872765E+03  0.15294330000E+03 0.  0.
<mgrwt>
<rscale>  0 0.59021431E+03</rscale>
<asrwt>0</asrwt>
<pdfrwt beam="1">  1        1 0.24829494E+00 0.71901918E+03</pdfrwt>
<pdfrwt beam="2">  1       -1 0.52662099E-01 0.71901918E+03</pdfrwt>
<totfact> 0.20633212E+01</totfact>
</mgrwt>
</event>
<event>
 4    1  0.1521315E-007  0.8074767E+03  0.7818608E-02  0.9694857E-01
         -1   -1    0    0    0  501 -0.00000000000E+00  0.00000000000E+00  0.67619732028E+03  0.67619732030E+03  0.50400000000E-02 0.  1.
          1   -1    0    0  501    0  0.00000000000E+00 -0.00000000000E+00 -0.93984764454E+03  0.93984764456E+03  0.50400000000E-02 0. -1.
    8880023    1    1    2    0    0  0.32613806002E+03 -0.33442837108E+03 -0.61233779925E+03  0.10133983206E+04  0.65864270000E+03 0.  0.
    8880022    1    1    2    0    0 -0.32613806002E+03  0.33442837108E+03  0.34868747499E+03  0.60264664424E+03  0.15294330000E+03 0.  0.
<mgrwt>
<rscale>  0 0.71323822E+03</rscale>
<asrwt>0</asrwt>
<pdfrwt beam="1">  1        1 0.14459194E+00 0.80747667E+03</pdfrwt>
<pdfrwt beam="2">  1       -1 0.10403036E+00 0.80747667E+03</pdfrwt>
<totfact> 0.15028203E+01</totfact>
</mgrwt>
</event>
<event>
 4    1  0.1521315E-007  0.7428464E+03  0.7818608E-02  0.9851732E-01
          1   -1    0    0  501    0  0.00000000000E+00  0.00000000000E+00  0.17546848278E+04  0.17546848278E+04  0.50400000000E-02 0. -1.
         -1   -1    0    0    0  501 -0.00000000000E+00 -0.00000000000E+00 -0.43733627449E+03  0.43733627452E+03  0.50400000000E-02 0.  1.
    8880023    1    1    2    0    0 -0.11509519089E+03 -0.32367209057E+03  0.15714503194E+04  0.17381820496E+04  0.65864270000E+03 0.  0.
    8880022    1    1    2    0    0  0.11509519089E+03  0.32367209057E+03 -0.25410176608E+03  0.45383905266E+03  0.15294330000E+03 0.  1.
<mgrwt>
<rscale>  0 0.62658684E+03</rscale>
<asrwt>0</asrwt>
<pdfrwt beam="1">  1        1 0.26995151E+00 0.74284637E+03</pdfrwt>
<pdfrwt beam="2">  1       -1 0.67282504E-01 0.74284637E+03</pdfrwt>
<totfact> 0.10208650E+01</totfact>
</mgrwt>
</event>
<event>
 4    1  0.1521315E-007  0.7136913E+03  0.7818608E-02  0.9944541E-01
          1   -1    0    0  501    0  0.00000000000E+00  0.00000000000E+00  0.19177296761E+04  0.19177296761E+04  0.50400000000E-02 0. -1.
         -1   -1    0    0    0  501 -0.00000000000E+00 -0.00000000000E+00 -0.32602006695E+03  0.32602006699E+03  0.50400000000E-02 0.  1.
    8880023    1    1    2    0    0  0.27431261022E+03 -0.17254760573E+02  0.17512263526E+04  0.18910708816E+04  0.65864270000E+03 0. -1.
    8880022    1    1    2    0    0 -0.27431261022E+03  0.17254760573E+02 -0.15951674346E+03  0.35267886149E+03  0.15294330000E+03 0.  0.
<mgrwt>
<rscale>  0 0.58150379E+03</rscale>
<asrwt>0</asrwt>
<pdfrwt beam="1">  1        1 0.29503534E+00 0.71369135E+03</pdfrwt>
<pdfrwt beam="2">  1       -1 0.50156933E-01 0.71369135E+03</pdfrwt>
<totfact> 0.14171758E+01</totfact>
</mgrwt>
</event>
<event>
 4    1  0.1521315E-007  0.1111324E+04  0.7818608E-02  0.9248552E-01
         -1   -1    0    0    0  501 -0.00000000000E+00  0.00000000000E+00  0.15080919859E+04  0.15080919860E+04  0.50400000000E-02 0.  1.
          1   -1    0    0  501    0  0.00000000000E+00 -0.00000000000E+00 -0.17294579049E+04  0.17294579049E+04  0.50400000000E-02 0. -1.
    8880023    1    1    2    0    0  0.63602237754E+03 -0.62984594652E+03 -0.13759175175E+04  0.17686688787E+04  0.65864270000E+03 0. -1.
    8880022    1    1    2    0    0 -0.63602237754E+03  0.62984594652E+03  0.11545515986E+04  0.14688810122E+04  0.15294330000E+03 0.  0.
<mgrwt>
<rscale>  0 0.10566042E+04</rscale>
<asrwt>0</asrwt>
<pdfrwt beam="1">  1        1 0.26607045E+00 0.11113238E+04</pdfrwt>
<pdfrwt beam="2">  1       -1 0.23201415E+00 0.11113238E+04</pdfrwt>
<totfact> 0.41391010E-01</totfact>
</mgrwt>
</event>
<event>
 4    1  0.1521315E-007  0.8307040E+03  0.7818608E-02  0.9647964E-01
         -1   -1    0    0    0  501 -0.00000000000E+00  0.00000000000E+00  0.10971317110E+04  0.10971317110E+04  0.50400000000E-02 0.  1.
          1   -1    0    0  501    0  0.00000000000E+00 -0.00000000000E+00 -0.75079703873E+03  0.75079703875E+03  0.50400000000E-02 0. -1.
    8880023    1    1    2    0    0 -0.40778556433E+03  0.29994983672E+03 -0.40895561831E+03  0.92591245538E+03  0.65864270000E+03 0.  0.
    8880022    1    1    2    0    0  0.40778556433E+03 -0.29994983672E+03  0.75529029053E+03  0.92201629433E+03  0.15294330000E+03 0.  0.
<mgrwt>
<rscale>  0 0.74201333E+03</rscale>
<asrwt>0</asrwt>
<pdfrwt beam="1">  1        1 0.11550724E+00 0.83070403E+03</pdfrwt>
<pdfrwt beam="2">  1       -1 0.16878949E+00 0.83070403E+03</pdfrwt>
<totfact> 0.62811308E+00</totfact>
</mgrwt>
</event>
<event>
 4    1  0.1521315E-007  0.7477882E+03  0.7818608E-02  0.9837815E-01
          1   -1    0    0  501    0  0.00000000000E+00  0.00000000000E+00  0.22053335586E+04  0.22053335586E+04  0.50400000000E-02 0. -1.
         -1   -1    0    0    0  501 -0.00000000000E+00 -0.00000000000E+00 -0.51402781940E+03  0.51402781943E+03  0.50400000000E-02 0.  1.
    8880023    1    1    2    0    0  0.34602861817E+03 -0.75107744978E+02  0.20564757311E+04  0.21882137959E+04  0.65864270000E+03 0. -1.
    8880022    1    1    2    0    0 -0.34602861817E+03  0.75107744978E+02 -0.36516999190E+03  0.53114758208E+03  0.15294330000E+03 0.  0.
<mgrwt>
<rscale>  0 0.63372067E+03</rscale>
<asrwt>0</asrwt>
<pdfrwt beam="1">  1        1 0.33928208E+00 0.74778819E+03</pdfrwt>
<pdfrwt beam="2">  1       -1 0.79081204E-01 0.74778819E+03</pdfrwt>
<totfact> 0.36459957E+00</totfact>
</mgrwt>
</event>
<event>
 4    1  0.1521315E-007  0.6608486E+03  0.7818608E-02  0.1023303E+00
          1   -1    0    0  501    0  0.00000000000E+00  0.00000000000E+00  0.18296115131E+04  0.18296115131E+04  0.50400000000E-02 0. -1.
         -1   -1    0    0    0  501 -0.00000000000E+00 -0.00000000000E+00 -0.95206692984E+02  0.95206693118E+02  0.50400000000E-02 0.  1.
    8880023    1    1    2    0    0 -0.29505082742E+02 -0.45166984746E+02  0.15067627635E+04  0.16453129909E+04  0.65864270000E+03 0.  0.
    8880022    1    1    2    0    0  0.29505082742E+02  0.45166984746E+02  0.22764205663E+03  0.27950521530E+03  0.15294330000E+03 0.  0.
<mgrwt>
<rscale>  0 0.46513133E+03</rscale>
<asrwt>0</asrwt>
<pdfrwt beam="1">  1        1 0.28147865E+00 0.66084856E+03</pdfrwt>
<pdfrwt beam="2">  1       -1 0.14647186E-01 0.66084856E+03</pdfrwt>
<totfact> 0.13761816E+02</totfact>
</mgrwt>
</event>
<event>
 4    1  0.1521315E-007  0.7376944E+03  0.7818608E-02  0.9866715E-01
          1   -1    0    0  501    0  0.00000000000E+00  0.00000000000E+00  0.71664703700E+03  0.71664703702E+03  0.50400000000E-02 0. -1.
         -1   -1    0    0    0  501 -0.00000000000E+00 -0.00000000000E+00 -0.74031569262E+03  0.74031569264E+03  0.50400000000E-02 0.  1.
    8880023    1    1    2    0    0 -0.30361653642E+03  0.13490672447E+03  0.44572510088E+03  0.86189552576E+03  0.65864270000E+03 0. -1.
    8880022    1    1    2    0    0  0.30361653642E+03 -0.13490672447E+03 -0.46939375651E+03  0.59506720390E+03  0.15294330000E+03 0.  0.
<mgrwt>
<rscale>  0 0.61901906E+03</rscale>
<asrwt>0</asrwt>
<pdfrwt beam="1">  1        1 0.11025339E+00 0.73769440E+03</pdfrwt>
<pdfrwt beam="2">  1       -1 0.11389472E+00 0.73769440E+03</pdfrwt>
<totfact> 0.18993253E+01</totfact>
</mgrwt>
</event>
<event>
 4    1  0.1521315E-007  0.8909855E+03  0.7818608E-02  0.9540661E-01
         -1   -1    0    0    0  501 -0.00000000000E+00  0.00000000000E+00  0.38335742189E+03  0.38335742193E+03  0.50400000000E-02 0.  1.
          1   -1    0    0  501    0  0.00000000000E+00 -0.00000000000E+00 -0.21823718654E+04  0.21823718654E+04  0.50400000000E-02 0. -1.
    8880023    1    1    2    0    0  0.82699602901E+02  0.59431113074E+03 -0.17257581248E+04  0.19421885223E+04  0.65864270000E+03 0.  0.
    8880022    1    1    2    0    0 -0.82699602901E+02 -0.59431113074E+03 -0.73256318691E+02  0.62354076505E+03  0.15294330000E+03 0.  0.
<mgrwt>
<rscale>  0 0.81351332E+03</rscale>
<asrwt>0</asrwt>
<pdfrwt beam="1">  1        1 0.33574951E+00 0.89098549E+03</pdfrwt>
<pdfrwt beam="2">  1       -1 0.58978066E-01 0.89098549E+03</pdfrwt>
<totfact> 0.67125199E+00</totfact>
</mgrwt>
</event>
<event>
 4    1  0.1521315E-007  0.7139292E+03  0.7818608E-02  0.9943690E-01
         -1   -1    0    0    0  501 -0.00000000000E+00  0.00000000000E+00  0.29127896799E+03  0.29127896804E+03  0.50400000000E-02 0.  1.
          1   -1    0    0  501    0  0.00000000000E+00 -0.00000000000E+00 -0.97591758160E+03  0.97591758162E+03  0.50400000000E-02 0. -1.
    8880023    1    1    2    0    0 -0.20959959930E+03 -0.17875315932E+03 -0.61997189901E+03  0.94554748470E+03  0.65864270000E+03 0. -1.
    8880022    1    1    2    0    0  0.20959959930E+03  0.17875315932E+03 -0.64666714599E+02  0.32164906496E+03  0.15294330000E+03 0.  1.
<mgrwt>
<rscale>  0 0.58189828E+03</rscale>
<asrwt>0</asrwt>
<pdfrwt beam="1">  1        1 0.15014116E+00 0.71392919E+03</pdfrwt>
<pdfrwt beam="2">  1       -1 0.44812149E-01 0.71392919E+03</pdfrwt>
<totfact> 0.79889420E+01</totfact>
</mgrwt>
</event>
<event>
 4    1  0.1521315E-007  0.7176174E+03  0.7818608E-02  0.9930732E-01
         -1   -1    0    0    0  501 -0.00000000000E+00  0.00000000000E+00  0.11443243476E+04  0.11443243476E+04  0.50400000000E-02 0.  1.
          1   -1    0    0  501    0  0.00000000000E+00 -0.00000000000E+00 -0.56444260892E+03  0.56444260894E+03  0.50400000000E-02 0. -1.
    8880023    1    1    2    0    0  0.27725457849E+03  0.65532140976E+02 -0.29511864189E+03  0.77593155745E+03  0.65864270000E+03 0. -1.
    8880022    1    1    2    0    0 -0.27725457849E+03 -0.65532140976E+02  0.87500038052E+03  0.93283539905E+03  0.15294330000E+03 0.  0.
<mgrwt>
<rscale>  0 0.58794739E+03</rscale>
<asrwt>0</asrwt>
<pdfrwt beam="1">  1        1 0.86837326E-01 0.71761743E+03</pdfrwt>
<pdfrwt beam="2">  1       -1 0.17604990E+00 0.71761743E+03</pdfrwt>
<totfact> 0.86102808E+00</totfact>
</mgrwt>
</event>
<event>
 4    1  0.1521315E-007  0.1255241E+04  0.7818608E-02  0.9105210E-01
         -1   -1    0    0    0  501 -0.00000000000E+00  0.00000000000E+00  0.70567447112E+03  0.70567447114E+03  0.50400000000E-02 0.  1.
          1   -1    0    0  501    0  0.00000000000E+00 -0.00000000000E+00 -0.38199201149E+04  0.38199201149E+04  0.50400000000E-02 0. -1.
    8880023    1    1    2    0    0 -0.64459533026E+03  0.85224146424E+03 -0.32052906752E+04  0.34423127650E+04  0.65864270000E+03 0.  0.
    8880022    1    1    2    0    0  0.64459533026E+03 -0.85224146424E+03  0.91045031392E+02  0.10832818211E+04  0.15294330000E+03 0.  0.
<mgrwt>
<rscale>  0 0.12087758E+04</rscale>
<asrwt>0</asrwt>
<pdfrwt beam="1">  1        1 0.58768001E+00 0.12552406E+04</pdfrwt>
<pdfrwt beam="2">  1       -1 0.10856531E+00 0.12552406E+04</pdfrwt>
<totfact> 0.10803617E-01</totfact>
</mgrwt>
</event>
<event>
 4    1  0.1521315E-007  0.6750959E+03  0.7818608E-02  0.1012246E+00
          1   -1    0    0  501    0  0.00000000000E+00  0.00000000000E+00  0.27389889578E+03  0.27389889582E+03  0.50400000000E-02 0. -1.
         -1   -1    0    0    0  501 -0.00000000000E+00 -0.00000000000E+00 -0.24496078697E+04  0.24496078697E+04  0.50400000000E-02 0.  1.
    8880023    1    1    2    0    0 -0.14435560240E+03 -0.33252585020E+02 -0.15636432082E+03  0.69296773478E+03  0.65864270000E+03 0. -1.
    8880022    1    1    2    0    0  0.14435560240E+03  0.33252585020E+02 -0.20193446531E+04  0.20305390308E+04  0.15294330000E+03 0.  0.
<mgrwt>
<rscale>  0 0.50591717E+03</rscale>
<asrwt>0</asrwt>
<pdfrwt beam="1">  1        1 0.42138293E-01 0.67509590E+03</pdfrwt>
<pdfrwt beam="2">  1       -1 0.37686274E+00 0.67509590E+03</pdfrwt>
<totfact> 0.10945877E+00</totfact>
</mgrwt>
</event>
<event>
 4    1  0.1521315E-007  0.7019971E+03  0.7818608E-02  0.9989015E-01
          1   -1    0    0  501    0  0.00000000000E+00  0.00000000000E+00  0.59007831236E+03  0.59007831238E+03  0.50400000000E-02 0. -1.
         -1   -1    0    0    0  501 -0.00000000000E+00 -0.00000000000E+00 -0.57533534061E+03  0.57533534063E+03  0.50400000000E-02 0.  1.
    8880023    1    1    2    0    0  0.18849962520E+03 -0.15315885299E+03  0.29756744050E+03  0.76246070775E+03  0.65864270000E+03 0. -1.
    8880022    1    1    2    0    0 -0.18849962520E+03  0.15315885299E+03 -0.28282446875E+03  0.40295294526E+03  0.15294330000E+03 0.  0.
<mgrwt>
<rscale>  0 0.56134536E+03</rscale>
<asrwt>0</asrwt>
<pdfrwt beam="1">  1        1 0.90781280E-01 0.70199711E+03</pdfrwt>
<pdfrwt beam="2">  1       -1 0.88513128E-01 0.70199711E+03</pdfrwt>
<totfact> 0.45144755E+01</totfact>
</mgrwt>
</event>
<event>
 4    1  0.1521315E-007  0.6771406E+03  0.7818608E-02  0.1010990E+00
         -1   -1    0    0    0  501 -0.00000000000E+00  0.00000000000E+00  0.33783344299E+03  0.33783344302E+03  0.50400000000E-02 0.  1.
          1   -1    0    0  501    0  0.00000000000E+00 -0.00000000000E+00 -0.77386385855E+03  0.77386385857E+03  0.50400000000E-02 0. -1.
    8880023    1    1    2    0    0 -0.12488546290E+03 -0.95461039104E+02 -0.54273134626E+03  0.86779992470E+03  0.65864270000E+03 0. -1.
    8880022    1    1    2    0    0  0.12488546290E+03  0.95461039104E+02  0.10670093069E+03  0.24389737689E+03  0.15294330000E+03 0.  0.
<mgrwt>
<rscale>  0 0.51083215E+03</rscale>
<asrwt>0</asrwt>
<pdfrwt beam="1">  1        1 0.11905598E+00 0.67714060E+03</pdfrwt>
<pdfrwt beam="2">  1       -1 0.51974376E-01 0.67714060E+03</pdfrwt>
<totfact> 0.89098262E+01</totfact>
</mgrwt>
</event>
<event>
 4    1  0.1521315E-007  0.1080646E+04  0.7818608E-02  0.9282917E-01
          1   -1    0    0  501    0  0.00000000000E+00  0.00000000000E+00  0.23567866109E+04  0.23567866109E+04  0.50400000000E-02 0. -1.
         -1   -1    0    0    0  501 -0.00000000000E+00 -0.00000000000E+00 -0.51698505459E+03  0.51698505462E+03  0.50400000000E-02 0.  1.
    8880023    1    1    2    0    0  0.77251013565E+03  0.37042352667E+03  0.16668154914E+04  0.19864716427E+04  0.65864270000E+03 0.  0.
    8880022    1    1    2    0    0 -0.77251013565E+03 -0.37042352667E+03  0.17298606494E+03  0.88730002281E+03  0.15294330000E+03 0.  0.
<mgrwt>
<rscale>  0 0.10237092E+04</rscale>
<asrwt>0</asrwt>
<pdfrwt beam="1">  1        1 0.36258256E+00 0.10806460E+04</pdfrwt>
<pdfrwt beam="2">  1       -1 0.79536162E-01 0.10806460E+04</pdfrwt>
<totfact> 0.27015159E+00</totfact>
</mgrwt>
</event>
<event>
 4    1  0.1521315E-007  0.7423416E+03  0.7818608E-02  0.9853178E-01
          1   -1    0    0  501    0  0.00000000000E+00  0.00000000000E+00  0.34837618525E+04  0.34837618525E+04  0.50400000000E-02 0. -1.
         -1   -1    0    0    0  501 -0.00000000000E+00 -0.00000000000E+00 -0.12344851120E+03  0.12344851130E+03  0.50400000000E-02 0.  1.
    8880023    1    1    2    0    0 -0.28230624193E+03  0.19381446397E+03  0.29876884787E+04  0.30785310641E+04  0.65864270000E+03 0. -1.
    8880022    1    1    2    0    0  0.28230624193E+03 -0.19381446397E+03  0.37262486257E+03  0.52867929967E+03  0.15294330000E+03 0.  0.
<mgrwt>
<rscale>  0 0.62585149E+03</rscale>
<asrwt>0</asrwt>
<pdfrwt beam="1">  1        1 0.53596332E+00 0.74234161E+03</pdfrwt>
<pdfrwt beam="2">  1       -1 0.18992080E-01 0.74234161E+03</pdfrwt>
<totfact> 0.61876587E+00</totfact>
</mgrwt>
</event>
<event>
 4    1  0.1521315E-007  0.7348211E+03  0.7818608E-02  0.9875298E-01
         -1   -1    0    0    0  501 -0.00000000000E+00  0.00000000000E+00  0.74001857747E+03  0.74001857748E+03  0.50400000000E-02 0.  1.
          1   -1    0    0  501    0  0.00000000000E+00 -0.00000000000E+00 -0.10453053363E+04  0.10453053363E+04  0.50400000000E-02 0. -1.
    8880023    1    1    2    0    0  0.19831314526E+03 -0.25850286934E+03 -0.85555356712E+03  0.11278004919E+04  0.65864270000E+03 0. -1.
    8880022    1    1    2    0    0 -0.19831314526E+03  0.25850286934E+03  0.55026680828E+03  0.65752342190E+03  0.15294330000E+03 0.  0.
<mgrwt>
<rscale>  0 0.61473531E+03</rscale>
<asrwt>0</asrwt>
<pdfrwt beam="1">  1        1 0.16081621E+00 0.73482110E+03</pdfrwt>
<pdfrwt beam="2">  1       -1 0.11384901E+00 0.73482110E+03</pdfrwt>
<totfact> 0.10157258E+01</totfact>
</mgrwt>
</event>
<event>
 4    1  0.1521315E-007  0.7108433E+03  0.7818608E-02  0.9954883E-01
          1   -1    0    0  501    0  0.00000000000E+00  0.00000000000E+00  0.10626500011E+03  0.10626500022E+03  0.50400000000E-02 0. -1.
         -1   -1    0    0    0  501 -0.00000000000E+00 -0.00000000000E+00 -0.33519023671E+04  0.33519023671E+04  0.50400000000E-02 0.  1.
    8880023    1    1    2    0    0  0.14689489027E+03  0.22340516130E+03 -0.12423647437E+04  0.14313519265E+04  0.65864270000E+03 0. -1.
    8880022    1    1    2    0    0 -0.14689489027E+03 -0.22340516130E+03 -0.20032726233E+04  0.20268154408E+04  0.15294330000E+03 0.  0.
<mgrwt>
<rscale>  0 0.57673595E+03</rscale>
<asrwt>0</asrwt>
<pdfrwt beam="1">  1        1 0.16348464E-01 0.71084329E+03</pdfrwt>
<pdfrwt beam="2">  1       -1 0.51567721E+00 0.71084329E+03</pdfrwt>
<totfact> 0.43084380E-01</totfact>
</mgrwt>
</event>
<event>
 4    1  0.1521315E-007  0.7199353E+03  0.7818608E-02  0.9922805E-01
          1   -1    0    0  501    0  0.00000000000E+00  0.00000000000E+00  0.20931044974E+04  0.20931044974E+04  0.50400000000E-02 0. -1.
         -1   -1    0    0    0  501 -0.00000000000E+00 -0.00000000000E+00 -0.14594530712E+03  0.14594530720E+03  0.50400000000E-02 0.  1.
    8880023    1    1    2    0    0  0.63482455940E+02 -0.28366626648E+03  0.16324576322E+04  0.17841593820E+04  0.65864270000E+03 0. -1.
    8880022    1    1    2    0    0 -0.63482455940E+02  0.28366626648E+03  0.31470155801E+03  0.45489042261E+03  0.15294330000E+03 0.  0.
<mgrwt>
<rscale>  0 0.59168674E+03</rscale>
<asrwt>0</asrwt>
<pdfrwt beam="1">  1        1 0.32201611E+00 0.71993526E+03</pdfrwt>
<pdfrwt beam="2">  1       -1 0.22453122E-01 0.71993526E+03</pdfrwt>
<totfact> 0.45053661E+01</totfact>
</mgrwt>
</event>
<event>
 4    1  0.1521315E-007  0.7368203E+03  0.7818608E-02  0.9869308E-01
          1   -1    0    0  501    0  0.00000000000E+00  0.00000000000E+00  0.98186090931E+03  0.98186090932E+03  0.50400000000E-02 0. -1.
         -1   -1    0    0    0  501 -0.00000000000E+00 -0.00000000000E+00 -0.62556949751E+03  0.62556949753E+03  0.50400000000E-02 0.  1.
    8880023    1    1    2    0    0 -0.26528560333E+03  0.19676744618E+03  0.76363894567E+03  0.10611543360E+04  0.65864270000E+03 0. -1.
    8880022    1    1    2    0    0  0.26528560333E+03 -0.19676744618E+03 -0.40734753387E+03  0.54627607085E+03  0.15294330000E+03 0.  0.
<mgrwt>
<rscale>  0 0.61772080E+03</rscale>
<asrwt>0</asrwt>
<pdfrwt beam="1">  1        1 0.15105553E+00 0.73682025E+03</pdfrwt>
<pdfrwt beam="2">  1       -1 0.96241461E-01 0.73682025E+03</pdfrwt>
<totfact> 0.16772454E+01</totfact>
</mgrwt>
</event>
<event>
 4    1  0.1521315E-007  0.6868441E+03  0.7818608E-02  0.1005690E+00
         -1   -1    0    0    0  501 -0.00000000000E+00  0.00000000000E+00  0.10232513102E+04  0.10232513102E+04  0.50400000000E-02 0.  1.
          1   -1    0    0  501    0  0.00000000000E+00 -0.00000000000E+00 -0.59046696106E+03  0.59046696108E+03  0.50400000000E-02 0. -1.
    8880023    1    1    2    0    0 -0.19092128708E+03  0.38647697876E+02 -0.36540146294E+03  0.77799294200E+03  0.65864270000E+03 0. -1.
    8880022    1    1    2    0    0  0.19092128708E+03 -0.38647697876E+02  0.79818581204E+03  0.83572532926E+03  0.15294330000E+03 0.  0.
<mgrwt>
<rscale>  0 0.53224092E+03</rscale>
<asrwt>0</asrwt>
<pdfrwt beam="1">  1        1 0.90841072E-01 0.68684408E+03</pdfrwt>
<pdfrwt beam="2">  1       -1 0.15742328E+00 0.68684408E+03</pdfrwt>
<totfact> 0.11128114E+01</totfact>
</mgrwt>
</event>
<event>
 4    1  0.1521315E-007  0.7519827E+03  0.7818608E-02  0.9826324E-01
         -1   -1    0    0    0  501 -0.00000000000E+00  0.00000000000E+00  0.58945348400E+03  0.58945348402E+03  0.50400000000E-02 0.  1.
          1   -1    0    0  501    0  0.00000000000E+00 -0.00000000000E+00 -0.26739633279E+04  0.26739633279E+04  0.50400000000E-02 0. -1.
    8880023    1    1    2    0    0  0.33752356854E+03 -0.13321284027E+03 -0.25471797468E+04  0.26558619484E+04  0.65864270000E+03 0.  0.
    8880022    1    1    2    0    0 -0.33752356854E+03  0.13321284027E+03  0.46266990291E+03  0.60755486354E+03  0.15294330000E+03 0.  0.
<mgrwt>
<rscale>  0 0.63968798E+03</rscale>
<asrwt>0</asrwt>
<pdfrwt beam="1">  1        1 0.41137897E+00 0.75198273E+03</pdfrwt>
<pdfrwt beam="2">  1       -1 0.90685153E-01 0.75198273E+03</pdfrwt>
<totfact> 0.13005890E+00</totfact>
</mgrwt>
</event>
<event>
 4    1  0.1521315E-007  0.7424434E+03  0.7818608E-02  0.9852886E-01
          1   -1    0    0  501    0  0.00000000000E+00  0.00000000000E+00  0.27990262257E+04  0.27990262257E+04  0.50400000000E-02 0. -1.
         -1   -1    0    0    0  501 -0.00000000000E+00 -0.00000000000E+00 -0.14851061051E+03  0.14851061060E+03  0.50400000000E-02 0.  1.
    8880023    1    1    2    0    0  0.13145252326E+03 -0.31643671991E+03  0.23569137570E+04  0.24710857184E+04  0.65864270000E+03 0. -1.
    8880022    1    1    2    0    0 -0.13145252326E+03  0.31643671991E+03  0.29360185817E+03  0.47645111786E+03  0.15294330000E+03 0.  0.
<mgrwt>
<rscale>  0 0.62599985E+03</rscale>
<asrwt>0</asrwt>
<pdfrwt beam="1">  1        1 0.43061947E+00 0.74244338E+03</pdfrwt>
<pdfrwt beam="2">  1       -1 0.22847783E-01 0.74244338E+03</pdfrwt>
<totfact> 0.14408168E+01</totfact>
</mgrwt>
</event>
<event>
 4    1  0.1521315E-007  0.6858894E+03  0.7818608E-02  0.1006171E+00
          1   -1    0    0  501    0  0.00000000000E+00  0.00000000000E+00  0.23662493269E+03  0.23662493274E+03  0.50400000000E-02 0. -1.
         -1   -1    0    0    0  501 -0.00000000000E+00 -0.00000000000E+00 -0.94318809622E+03  0.94318809623E+03  0.50400000000E-02 0.  1.
    8880023    1    1    2    0    0 -0.18769659303E+03  0.37470443377E+02 -0.42636762972E+03  0.80760981117E+03  0.65864270000E+03 0. -1.
    8880022    1    1    2    0    0  0.18769659303E+03 -0.37470443377E+02 -0.28019553382E+03  0.37220321781E+03  0.15294330000E+03 0. -1.
<mgrwt>
<rscale>  0 0.53025249E+03</rscale>
<asrwt>0</asrwt>
<pdfrwt beam="1">  1        1 0.36403836E-01 0.68588939E+03</pdfrwt>
<pdfrwt beam="2">  1       -1 0.14510586E+00 0.68588939E+03</pdfrwt>
<totfact> 0.46711533E+01</totfact>
</mgrwt>
</event>
<event>
 4    1  0.1521315E-007  0.6730796E+03  0.7818608E-02  0.1013545E+00
          1   -1    0    0  501    0  0.00000000000E+00  0.00000000000E+00  0.10472447497E+04  0.10472447498E+04  0.50400000000E-02 0. -1.
         -1   -1    0    0    0  501 -0.00000000000E+00 -0.00000000000E+00 -0.25838017678E+03  0.25838017683E+03  0.50400000000E-02 0.  1.
    8880023    1    1    2    0    0 -0.13584636138E+03 -0.27780414320E+02  0.85564439312E+03  0.10886521571E+04  0.65864270000E+03 0. -1.
    8880022    1    1    2    0    0  0.13584636138E+03  0.27780414320E+02 -0.66779820161E+02  0.21697276953E+03  0.15294330000E+03 0.  0.
<mgrwt>
<rscale>  0 0.50089709E+03</rscale>
<asrwt>0</asrwt>
<pdfrwt beam="1">  1        1 0.16111458E+00 0.67307963E+03</pdfrwt>
<pdfrwt beam="2">  1       -1 0.39750796E-01 0.67307963E+03</pdfrwt>
<totfact> 0.88034901E+01</totfact>
</mgrwt>
</event>
<event>
 4    1  0.1521315E-007  0.6613900E+03  0.7818608E-02  0.1022775E+00
         -1   -1    0    0    0  501 -0.00000000000E+00  0.00000000000E+00  0.52556776005E+03  0.52556776008E+03  0.50400000000E-02 0.  1.
          1   -1    0    0  501    0  0.00000000000E+00 -0.00000000000E+00 -0.53102249516E+03  0.53102249519E+03  0.50400000000E-02 0. -1.
    8880023    1    1    2    0    0  0.73904022869E+00 -0.60216465439E+02 -0.29456481730E+03  0.72402017012E+03  0.65864270000E+03 0. -1.
    8880022    1    1    2    0    0 -0.73904022869E+00  0.60216465439E+02  0.28911008219E+03  0.33257008514E+03  0.15294330000E+03 0.  0.
<mgrwt>
<rscale>  0 0.46698220E+03</rscale>
<asrwt>0</asrwt>
<pdfrwt beam="1">  1        1 0.81695769E-01 0.66139003E+03</pdfrwt>
<pdfrwt beam="2">  1       -1 0.80856578E-01 0.66139003E+03</pdfrwt>
<totfact> 0.63883612E+01</totfact>
</mgrwt>
</event>
<event>
 4    1  0.1521315E-007  0.1255645E+04  0.7818608E-02  0.9104842E-01
          1   -1    0    0  501    0  0.00000000000E+00  0.00000000000E+00  0.16846004292E+04  0.16846004292E+04  0.50400000000E-02 0. -1.
         -1   -1    0    0    0  501 -0.00000000000E+00 -0.00000000000E+00 -0.96167640471E+03  0.96167640472E+03  0.50400000000E-02 0.  1.
    8880023    1    1    2    0    0 -0.81168020214E+03  0.69570860547E+03  0.90940418169E+03  0.15503745954E+04  0.65864270000E+03 0. -1.
    8880022    1    1    2    0    0  0.81168020214E+03 -0.69570860547E+03 -0.18648015720E+03  0.10959022385E+04  0.15294330000E+03 0.  0.
<mgrwt>
<rscale>  0 0.12092000E+04</rscale>
<asrwt>0</asrwt>
<pdfrwt beam="1">  1        1 0.25916930E+00 0.12556454E+04</pdfrwt>
<pdfrwt beam="2">  1       -1 0.14795022E+00 0.12556454E+04</pdfrwt>
<totfact> 0.17240713E+00</totfact>
</mgrwt>
</event>
<event>
 4    1  0.1521315E-007  0.6688631E+03  0.7818608E-02  0.1016491E+00
          1   -1    0    0  501    0  0.00000000000E+00  0.00000000000E+00  0.37781356974E+03  0.37781356977E+03  0.50400000000E-02 0. -1.
         -1   -1    0    0    0  501 -0.00000000000E+00 -0.00000000000E+00 -0.10191590584E+04  0.10191590584E+04  0.50400000000E-02 0.  1.
    8880023    1    1    2    0    0 -0.45567481917E+02  0.10719750393E+03  0.58295891310E+02  0.67139877678E+03  0.65864270000E+03 0. -1.
    8880022    1    1    2    0    0  0.45567481917E+02 -0.10719750393E+03 -0.69964137997E+03  0.72557385140E+03  0.15294330000E+03 0.  0.
<mgrwt>
<rscale>  0 0.48974329E+03</rscale>
<asrwt>0</asrwt>
<pdfrwt beam="1">  1        1 0.58125165E-01 0.66886314E+03</pdfrwt>
<pdfrwt beam="2">  1       -1 0.15679370E+00 0.66886314E+03</pdfrwt>
<totfact> 0.20707171E+01</totfact>
</mgrwt>
</event>
<event>
 4    1  0.1521315E-007  0.7952666E+03  0.7818608E-02  0.9721126E-01
         -1   -1    0    0    0  501 -0.00000000000E+00  0.00000000000E+00  0.52755502138E+03  0.52755502140E+03  0.50400000000E-02 0.  1.
          1   -1    0    0  501    0  0.00000000000E+00 -0.00000000000E+00 -0.17590194766E+04  0.17590194766E+04  0.50400000000E-02 0. -1.
    8880023    1    1    2    0    0  0.44531589233E+03 -0.18233292005E+02 -0.15331044139E+04  0.17270952629E+04  0.65864270000E+03 0.  0.
    8880022    1    1    2    0    0 -0.44531589233E+03  0.18233292005E+02  0.30163995864E+03  0.55947923515E+03  0.15294330000E+03 0.  0.
<mgrwt>
<rscale>  0 0.69772789E+03</rscale>
<asrwt>0</asrwt>
<pdfrwt beam="1">  1        1 0.27061838E+00 0.79526656E+03</pdfrwt>
<pdfrwt beam="2">  1       -1 0.81162312E-01 0.79526656E+03</pdfrwt>
<totfact> 0.68126668E+00</totfact>
</mgrwt>
</event>
<event>
 4    1  0.1521315E-007  0.7666169E+03  0.7818608E-02  0.9788269E-01
          1   -1    0    0  501    0  0.00000000000E+00  0.00000000000E+00  0.90072668363E+03  0.90072668364E+03  0.50400000000E-02 0. -1.
         -1   -1    0    0    0  501 -0.00000000000E+00 -0.00000000000E+00 -0.57206701247E+03  0.57206701250E+03  0.50400000000E-02 0.  1.
    8880023    1    1    2    0    0  0.39227546376E+03 -0.33542160483E+01 -0.20450064798E+03  0.79342423175E+03  0.65864270000E+03 0.  1.
    8880022    1    1    2    0    0 -0.39227546376E+03  0.33542160483E+01  0.53316031914E+03  0.67936946439E+03  0.15294330000E+03 0.  0.
<mgrwt>
<rscale>  0 0.65995932E+03</rscale>
<asrwt>0</asrwt>
<pdfrwt beam="1">  1        1 0.13857334E+00 0.76661692E+03</pdfrwt>
<pdfrwt beam="2">  1       -1 0.88010310E-01 0.76661692E+03</pdfrwt>
<totfact> 0.23646927E+01</totfact>
</mgrwt>
</event>
<event>
 4    1  0.1521315E-007  0.8470292E+03  0.7818608E-02  0.9617066E-01
          1   -1    0    0  501    0  0.00000000000E+00  0.00000000000E+00  0.11382020631E+04  0.11382020631E+04  0.50400000000E-02 0. -1.
         -1   -1    0    0    0  501 -0.00000000000E+00 -0.00000000000E+00 -0.65089218578E+03  0.65089218580E+03  0.50400000000E-02 0.  1.
    8880023    1    1    2    0    0 -0.27391447256E+03  0.45674846232E+03 -0.23471825014E+03  0.87894889460E+03  0.65864270000E+03 0.  1.
    8880022    1    1    2    0    0  0.27391447256E+03 -0.45674846232E+03  0.72202812746E+03  0.91014535431E+03  0.15294330000E+03 0.  0.
<mgrwt>
<rscale>  0 0.76176876E+03</rscale>
<asrwt>0</asrwt>
<pdfrwt beam="1">  1        1 0.17510801E+00 0.84702922E+03</pdfrwt>
<pdfrwt beam="2">  1       -1 0.10013726E+00 0.84702922E+03</pdfrwt>
<totfact> 0.11507123E+01</totfact>
</mgrwt>
</event>
<event>
 4    1  0.1521315E-007  0.7656441E+03  0.7818608E-02  0.9790709E-01
         -1   -1    0    0    0  501 -0.00000000000E+00  0.00000000000E+00  0.36759397352E+03  0.36759397355E+03  0.50400000000E-02 0.  1.
          1   -1    0    0  501    0  0.00000000000E+00 -0.00000000000E+00 -0.12776041999E+04  0.12776041999E+04  0.50400000000E-02 0. -1.
    8880023    1    1    2    0    0 -0.11674240648E+03 -0.37252105927E+03 -0.95442536962E+03  0.12235762018E+04  0.65864270000E+03 0.  0.
    8880022    1    1    2    0    0  0.11674240648E+03  0.37252105927E+03  0.44415143225E+02  0.42162197171E+03  0.15294330000E+03 0.  0.
<mgrwt>
<rscale>  0 0.65863564E+03</rscale>
<asrwt>0</asrwt>
<pdfrwt beam="1">  1        1 0.19655449E+00 0.76564413E+03</pdfrwt>
<pdfrwt beam="2">  1       -1 0.56552920E-01 0.76564413E+03</pdfrwt>
<totfact> 0.30525323E+01</totfact>
</mgrwt>
</event>
<event>
 4    1  0.1521315E-007  0.8214504E+03  0.7818608E-02  0.9666202E-01
         -1   -1    0    0    0  501 -0.00000000000E+00  0.00000000000E+00  0.10145451333E+04  0.10145451333E+04  0.50400000000E-02 0.  1.
          1   -1    0    0  501    0  0.00000000000E+00 -0.00000000000E+00 -0.10673468872E+04  0.10673468872E+04  0.50400000000E-02 0. -1.
    8880023    1    1    2    0    0  0.32242262425E+03 -0.37015432157E+03 -0.81847391305E+03  0.11596035197E+04  0.65864270000E+03 0. -1.
    8880022    1    1    2    0    0 -0.32242262425E+03  0.37015432157E+03  0.76567215914E+03  0.92228850079E+03  0.15294330000E+03 0.  0.
<mgrwt>
<rscale>  0 0.73065261E+03</rscale>
<asrwt>0</asrwt>
<pdfrwt beam="1">  1        1 0.16420721E+00 0.82145041E+03</pdfrwt>
<pdfrwt beam="2">  1       -1 0.15608387E+00 0.82145041E+03</pdfrwt>
<totfact> 0.43142416E+00</totfact>
</mgrwt>
</event>
<event>
 4    1  0.1521315E-007  0.7804668E+03  0.7818608E-02  0.9754742E-01
         -1   -1    0    0    0  501 -0.00000000000E+00  0.00000000000E+00  0.39468207742E+03  0.39468207745E+03  0.50400000000E-02 0.  1.
          1   -1    0    0  501    0  0.00000000000E+00 -0.00000000000E+00 -0.13677015646E+04  0.13677015646E+04  0.50400000000E-02 0. -1.
    8880023    1    1    2    0    0 -0.80799317647E+02  0.41084020027E+03 -0.10517689564E+04  0.13097123134E+04  0.65864270000E+03 0. -1.
    8880022    1    1    2    0    0  0.80799317647E+02 -0.41084020027E+03  0.78749469238E+02  0.45267132868E+03  0.15294330000E+03 0.  0.
<mgrwt>
<rscale>  0 0.67848968E+03</rscale>
<asrwt>0</asrwt>
<pdfrwt beam="1">  1        1 0.21041562E+00 0.78046679E+03</pdfrwt>
<pdfrwt beam="2">  1       -1 0.60720320E-01 0.78046679E+03</pdfrwt>
<totfact> 0.22900967E+01</totfact>
</mgrwt>
</event>
<event>
 4    1  0.1521315E-007  0.7883487E+03  0.7818608E-02  0.9736579E-01
          1   -1    0    0  501    0  0.00000000000E+00  0.00000000000E+00  0.43113058299E+03  0.43113058302E+03  0.50400000000E-02 0. -1.
         -1   -1    0    0    0  501 -0.00000000000E+00 -0.00000000000E+00 -0.98333166871E+03  0.98333166872E+03  0.50400000000E-02 0.  1.
    8880023    1    1    2    0    0  0.29808526383E+03 -0.31437026049E+03 -0.14712922160E+03  0.80196053476E+03  0.65864270000E+03 0.  0.
    8880022    1    1    2    0    0 -0.29808526383E+03  0.31437026049E+03 -0.40507186412E+03  0.61250171699E+03  0.15294330000E+03 0.  0.
<mgrwt>
<rscale>  0 0.68880043E+03</rscale>
<asrwt>0</asrwt>
<pdfrwt beam="1">  1        1 0.66327782E-01 0.78834871E+03</pdfrwt>
<pdfrwt beam="2">  1       -1 0.15128179E+00 0.78834871E+03</pdfrwt>
<totfact> 0.18910064E+01</totfact>
</mgrwt>
</event>
<event>
 4    1  0.1521315E-007  0.9664495E+03  0.7818608E-02  0.9426832E-01
         -1   -1    0    0    0  501 -0.00000000000E+00  0.00000000000E+00  0.40413854329E+03  0.40413854332E+03  0.50400000000E-02 0.  1.
          1   -1    0    0  501    0  0.00000000000E+00 -0.00000000000E+00 -0.19813948828E+04  0.19813948829E+04  0.50400000000E-02 0. -1.
    8880023    1    1    2    0    0  0.25910210091E+02 -0.70678363296E+03 -0.50086290305E+03  0.10885257446E+04  0.65864270000E+03 0.  1.
    8880022    1    1    2    0    0 -0.25910210091E+02  0.70678363296E+03 -0.10763934365E+04  0.12970076815E+04  0.15294330000E+03 0.  0.
<mgrwt>
<rscale>  0 0.89900056E+03</rscale>
<asrwt>0</asrwt>
<pdfrwt beam="1">  1        1 0.30482998E+00 0.96644951E+03</pdfrwt>
<pdfrwt beam="2">  1       -1 0.62175162E-01 0.96644951E+03</pdfrwt>
<totfact> 0.81722760E+00</totfact>
</mgrwt>
</event>
<event>
 4    1  0.1521315E-007  0.7240852E+03  0.7818608E-02  0.9908998E-01
          1   -1    0    0  501    0  0.00000000000E+00  0.00000000000E+00  0.96879082480E+03  0.96879082482E+03  0.50400000000E-02 0. -1.
         -1   -1    0    0    0  501 -0.00000000000E+00 -0.00000000000E+00 -0.30044566719E+03  0.30044566723E+03  0.50400000000E-02 0.  1.
    8880023    1    1    2    0    0  0.19039497245E+03  0.23289243743E+03  0.55815145495E+03  0.91423869196E+03  0.65864270000E+03 0.  0.
    8880022    1    1    2    0    0 -0.19039497245E+03 -0.23289243743E+03  0.11019370267E+03  0.35499780009E+03  0.15294330000E+03 0.  0.
<mgrwt>
<rscale>  0 0.59827182E+03</rscale>
<asrwt>0</asrwt>
<pdfrwt beam="1">  1        1 0.14904474E+00 0.72408517E+03</pdfrwt>
<pdfrwt beam="2">  1       -1 0.46222410E-01 0.72408517E+03</pdfrwt>
<totfact> 0.76323459E+01</totfact>
</mgrwt>
</event>
<event>
 4    1  0.1521315E-007  0.6884373E+03  0.7818608E-02  0.1004904E+00
         -1   -1    0    0    0  501 -0.00000000000E+00  0.00000000000E+00  0.32648808687E+03  0.32648808691E+03  0.50400000000E-02 0.  1.
          1   -1    0    0  501    0  0.00000000000E+00 -0.00000000000E+00 -0.74650559971E+03  0.74650559973E+03  0.50400000000E-02 0. -1.
    8880023    1    1    2    0    0 -0.19218626190E+03  0.56569582004E+02 -0.15187909029E+03  0.70499158945E+03  0.65864270000E+03 0.  0.
    8880022    1    1    2    0    0  0.19218626190E+03 -0.56569582004E+02 -0.26813842255E+03  0.36800209719E+03  0.15294330000E+03 0.  0.
<mgrwt>
<rscale>  0 0.53551095E+03</rscale>
<asrwt>0</asrwt>
<pdfrwt beam="1">  1        1 0.11484702E+00 0.68843728E+03</pdfrwt>
<pdfrwt beam="2">  1       -1 0.50228937E-01 0.68843728E+03</pdfrwt>
<totfact> 0.10045220E+02</totfact>
</mgrwt>
</event>
<event>
 4    1  0.1521315E-007  0.6679508E+03  0.7818608E-02  0.1017176E+00
         -1   -1    0    0    0  501 -0.00000000000E+00  0.00000000000E+00  0.11701834955E+03  0.11701834966E+03  0.50400000000E-02 0.  1.
          1   -1    0    0  501    0  0.00000000000E+00 -0.00000000000E+00 -0.15726596973E+04  0.15726596973E+04  0.50400000000E-02 0. -1.
    8880023    1    1    2    0    0 -0.72501835170E+02  0.84211369044E+02 -0.11670059153E+04  0.13446416189E+04  0.65864270000E+03 0. -1.
    8880022    1    1    2    0    0  0.72501835170E+02 -0.84211369044E+02 -0.28863543244E+03  0.34503642801E+03  0.15294330000E+03 0. -1.
<mgrwt>
<rscale>  0 0.48719437E+03</rscale>
<asrwt>0</asrwt>
<pdfrwt beam="1">  1        1 0.24194763E+00 0.66795080E+03</pdfrwt>
<pdfrwt beam="2">  1       -1 0.18002824E-01 0.66795080E+03</pdfrwt>
<totfact> 0.14606667E+02</totfact>
</mgrwt>
</event>
<event>
 4    1  0.1521315E-007  0.6685446E+03  0.7818608E-02  0.1016728E+00
         -1   -1    0    0    0  501 -0.00000000000E+00  0.00000000000E+00  0.24571069129E+03  0.24571069134E+03  0.50400000000E-02 0.  1.
          1   -1    0    0  501    0  0.00000000000E+00 -0.00000000000E+00 -0.75530111478E+03  0.75530111480E+03  0.50400000000E-02 0. -1.
    8880023    1    1    2    0    0 -0.10625196163E+03  0.43036860563E+02 -0.42340118894E+03  0.79134090238E+03  0.65864270000E+03 0.  0.
    8880022    1    1    2    0    0  0.10625196163E+03 -0.43036860563E+02 -0.86189234556E+02  0.20967090376E+03  0.15294330000E+03 0.  0.
<mgrwt>
<rscale>  0 0.48885932E+03</rscale>
<asrwt>0</asrwt>
<pdfrwt beam="1">  1        1 0.11620017E+00 0.66854458E+03</pdfrwt>
<pdfrwt beam="2">  1       -1 0.37801645E-01 0.66854458E+03</pdfrwt>
<totfact> 0.16685169E+02</totfact>
</mgrwt>
</event>
<event>
 4    1  0.1521315E-007  0.7210719E+03  0.7818608E-02  0.9918976E-01
         -1   -1    0    0    0  501 -0.00000000000E+00  0.00000000000E+00  0.45902722648E+03  0.45902722651E+03  0.50400000000E-02 0.  1.
          1   -1    0    0  501    0  0.00000000000E+00 -0.00000000000E+00 -0.12613099452E+04  0.12613099452E+04  0.50400000000E-02 0. -1.
    8880023    1    1    2    0    0 -0.11979359157E+03  0.26792538424E+03 -0.10729945956E+04  0.12927730368E+04  0.65864270000E+03 0.  0.
    8880022    1    1    2    0    0  0.11979359157E+03 -0.26792538424E+03  0.27071187697E+03  0.42756413489E+03  0.15294330000E+03 0.  0.
<mgrwt>
<rscale>  0 0.59350404E+03</rscale>
<asrwt>0</asrwt>
<pdfrwt beam="1">  1        1 0.19404768E+00 0.72107193E+03</pdfrwt>
<pdfrwt beam="2">  1       -1 0.70619574E-01 0.72107193E+03</pdfrwt>
<totfact> 0.20234727E+01</totfact>
</mgrwt>
</event>
<event>
 4    1  0.1521315E-007  0.7606016E+03  0.7818608E-02  0.9803553E-01
         -1   -1    0    0    0  501 -0.00000000000E+00  0.00000000000E+00  0.24044900372E+03  0.24044900377E+03  0.50400000000E-02 0.  1.
          1   -1    0    0  501    0  0.00000000000E+00 -0.00000000000E+00 -0.24945827665E+04  0.24945827665E+04  0.50400000000E-02 0. -1.
    8880023    1    1    2    0    0  0.27904198001E+03 -0.25853456872E+03 -0.44754255868E+03  0.88250161355E+03  0.65864270000E+03 0.  0.
    8880022    1    1    2    0    0 -0.27904198001E+03  0.25853456872E+03 -0.18065912041E+04  0.18525301568E+04  0.15294330000E+03 0.  0.
<mgrwt>
<rscale>  0 0.65172241E+03</rscale>
<asrwt>0</asrwt>
<pdfrwt beam="1">  1        1 0.38378195E+00 0.76060158E+03</pdfrwt>
<pdfrwt beam="2">  1       -1 0.36992156E-01 0.76060158E+03</pdfrwt>
<totfact> 0.10091431E+01</totfact>
</mgrwt>
</event>
<event>
 4    1  0.1521315E-007  0.6899267E+03  0.7818608E-02  0.1004187E+00
          1   -1    0    0  501    0  0.00000000000E+00  0.00000000000E+00  0.36101385666E+03  0.36101385670E+03  0.50400000000E-02 0. -1.
         -1   -1    0    0    0  501 -0.00000000000E+00 -0.00000000000E+00 -0.67385123079E+03  0.67385123081E+03  0.50400000000E-02 0.  1.
    8880023    1    1    2    0    0  0.17383001547E+03 -0.10941558730E+03 -0.90708172761E+02  0.69586408435E+03  0.65864270000E+03 0.  0.
    8880022    1    1    2    0    0 -0.17383001547E+03  0.10941558730E+03 -0.22212920137E+03  0.33900100315E+03  0.15294330000E+03 0. -1.
<mgrwt>
<rscale>  0 0.53851634E+03</rscale>
<asrwt>0</asrwt>
<pdfrwt beam="1">  1        1 0.55540594E-01 0.68992670E+03</pdfrwt>
<pdfrwt beam="2">  1       -1 0.10366942E+00 0.68992670E+03</pdfrwt>
<totfact> 0.61757736E+01</totfact>
</mgrwt>
</event>
<event>
 4    1  0.1521315E-007  0.7065210E+03  0.7818608E-02  0.9971154E-01
         -1   -1    0    0    0  501 -0.00000000000E+00  0.00000000000E+00  0.56273058960E+03  0.56273058963E+03  0.50400000000E-02 0.  1.
          1   -1    0    0  501    0  0.00000000000E+00 -0.00000000000E+00 -0.12362310184E+04  0.12362310184E+04  0.50400000000E-02 0. -1.
    8880023    1    1    2    0    0  0.20136118146E+03 -0.15752916078E+03 -0.10826824604E+04  0.12928160264E+04  0.65864270000E+03 0. -1.
    8880022    1    1    2    0    0 -0.20136118146E+03  0.15752916078E+03  0.40918203153E+03  0.50614558166E+03  0.15294330000E+03 0.  0.
<mgrwt>
<rscale>  0 0.56933378E+03</rscale>
<asrwt>0</asrwt>
<pdfrwt beam="1">  1        1 0.19018939E+00 0.70652103E+03</pdfrwt>
<pdfrwt beam="2">  1       -1 0.86573937E-01 0.70652103E+03</pdfrwt>
<totfact> 0.13753636E+01</totfact>
</mgrwt>
</event>
<event>
 4    1  0.1521315E-007  0.6922328E+03  0.7818608E-02  0.1003109E+00
          1   -1    0    0  501    0  0.00000000000E+00  0.00000000000E+00  0.14357026352E+04  0.14357026352E+04  0.50400000000E-02 0. -1.
         -1   -1    0    0    0  501 -0.00000000000E+00 -0.00000000000E+00 -0.49053438272E+03  0.49053438274E+03  0.50400000000E-02 0.  1.
    8880023    1    1    2    0    0 -0.19637887676E+03 -0.82531228341E+02  0.13072197547E+04  0.14791922661E+04  0.65864270000E+03 0. -1.
    8880022    1    1    2    0    0  0.19637887676E+03  0.82531228341E+02 -0.36205150219E+03  0.44704475183E+03  0.15294330000E+03 0.  0.
<mgrwt>
<rscale>  0 0.54307801E+03</rscale>
<asrwt>0</asrwt>
<pdfrwt beam="1">  1        1 0.22087733E+00 0.69223282E+03</pdfrwt>
<pdfrwt beam="2">  1       -1 0.75466829E-01 0.69223282E+03</pdfrwt>
<totfact> 0.13374233E+01</totfact>
</mgrwt>
</event>
<event>
 4    1  0.1521315E-007  0.1002596E+04  0.7818608E-02  0.9378169E-01
         -1   -1    0    0    0  501 -0.00000000000E+00  0.00000000000E+00  0.19360717056E+04  0.19360717056E+04  0.50400000000E-02 0.  1.
          1   -1    0    0  501    0  0.00000000000E+00 -0.00000000000E+00 -0.44409588519E+03  0.44409588521E+03  0.50400000000E-02 0. -1.
    8880023    1    1    2    0    0 -0.53178581420E+03 -0.53720748927E+03  0.11795319091E+04  0.15480612939E+04  0.65864270000E+03 0.  0.
    8880022    1    1    2    0    0  0.53178581420E+03  0.53720748927E+03  0.31244391133E+03  0.83210629697E+03  0.15294330000E+03 0.  0.
<mgrwt>
<rscale>  0 0.93894232E+03</rscale>
<asrwt>0</asrwt>
<pdfrwt beam="1">  1        1 0.68322444E-01 0.10025958E+04</pdfrwt>
<pdfrwt beam="2">  1       -1 0.29785718E+00 0.10025958E+04</pdfrwt>
<totfact> 0.18022677E+00</totfact>
</mgrwt>
</event>
<event>
 4    1  0.1521315E-007  0.1014954E+04  0.7818608E-02  0.9362250E-01
          1   -1    0    0  501    0  0.00000000000E+00  0.00000000000E+00  0.43327654377E+03  0.43327654379E+03  0.50400000000E-02 0. -1.
         -1   -1    0    0    0  501 -0.00000000000E+00 -0.00000000000E+00 -0.20280037403E+04  0.20280037403E+04  0.50400000000E-02 0.  1.
    8880023    1    1    2    0    0  0.71024403989E+03 -0.30310739630E+03 -0.55384519417E+03  0.11562332789E+04  0.65864270000E+03 0. -1.
    8880022    1    1    2    0    0 -0.71024403989E+03  0.30310739630E+03 -0.10408820024E+04  0.13050470052E+04  0.15294330000E+03 0.  0.
<mgrwt>
<rscale>  0 0.95248561E+03</rscale>
<asrwt>0</asrwt>
<pdfrwt beam="1">  1        1 0.66657931E-01 0.10149536E+04</pdfrwt>
<pdfrwt beam="2">  1       -1 0.31200057E+00 0.10149536E+04</pdfrwt>
<totfact> 0.15084478E+00</totfact>
</mgrwt>
</event>
<event>
 4    1  0.1521315E-007  0.6842722E+03  0.7818608E-02  0.1007003E+00
         -1   -1    0    0    0  501 -0.00000000000E+00  0.00000000000E+00  0.40170793101E+03  0.40170793104E+03  0.50400000000E-02 0.  1.
          1   -1    0    0  501    0  0.00000000000E+00 -0.00000000000E+00 -0.75188109109E+03  0.75188109111E+03  0.50400000000E-02 0. -1.
    8880023    1    1    2    0    0  0.17361574751E+03 -0.65390028787E+02 -0.51982099029E+03  0.85932668518E+03  0.65864270000E+03 0. -1.
    8880022    1    1    2    0    0 -0.17361574751E+03  0.65390028787E+02  0.16964783021E+03  0.29426233697E+03  0.15294330000E+03 0.  0.
<mgrwt>
<rscale>  0 0.52683182E+03</rscale>
<asrwt>0</asrwt>
<pdfrwt beam="1">  1        1 0.11567401E+00 0.68427223E+03</pdfrwt>
<pdfrwt beam="2">  1       -1 0.61801220E-01 0.68427223E+03</pdfrwt>
<totfact> 0.66534449E+01</totfact>
</mgrwt>
</event>
<event>
 4    1  0.1521315E-007  0.7807397E+03  0.7818608E-02  0.9754102E-01
          1   -1    0    0  501    0  0.00000000000E+00  0.00000000000E+00  0.23843878491E+04  0.23843878491E+04  0.50400000000E-02 0. -1.
         -1   -1    0    0    0  501 -0.00000000000E+00 -0.00000000000E+00 -0.16667390769E+03  0.16667390777E+03  0.50400000000E-02 0.  1.
    8880023    1    1    2    0    0 -0.36138627649E+03 -0.21247159590E+03  0.16781238617E+04  0.18508522689E+04  0.65864270000E+03 0. -1.
    8880022    1    1    2    0    0  0.36138627649E+03  0.21247159590E+03  0.53959007978E+03  0.70020948802E+03  0.15294330000E+03 0.  0.
<mgrwt>
<rscale>  0 0.67884929E+03</rscale>
<asrwt>0</asrwt>
<pdfrwt beam="1">  1        1 0.36682892E+00 0.78073967E+03</pdfrwt>
<pdfrwt beam="2">  1       -1 0.25642139E-01 0.78073967E+03</pdfrwt>
<totfact> 0.22720791E+01</totfact>
</mgrwt>
</event>
<event>
 4    1  0.1521315E-007  0.9738789E+03  0.7818608E-02  0.9416559E-01
          1   -1    0    0  501    0  0.00000000000E+00  0.00000000000E+00  0.38197533363E+04  0.38197533363E+04  0.50400000000E-02 0. -1.
         -1   -1    0    0    0  501 -0.00000000000E+00 -0.00000000000E+00 -0.25055804795E+03  0.25055804800E+03  0.50400000000E-02 0.  1.
    8880023    1    1    2    0    0 -0.63703753398E+03  0.32986818173E+03  0.98949939093E+03  0.13883620162E+04  0.65864270000E+03 0.  0.
    8880022    1    1    2    0    0  0.63703753398E+03 -0.32986818173E+03  0.25796958974E+04  0.26819493681E+04  0.15294330000E+03 0.  0.
<mgrwt>
<rscale>  0 0.90725351E+03</rscale>
<asrwt>0</asrwt>
<pdfrwt beam="1">  1        1 0.58765438E+00 0.97387886E+03</pdfrwt>
<pdfrwt beam="2">  1       -1 0.38547391E-01 0.97387886E+03</pdfrwt>
<totfact> 0.94067292E-01</totfact>
</mgrwt>
</event>
<event>
 4    1  0.1521315E-007  0.8759785E+03  0.7818608E-02  0.9565749E-01
         -1   -1    0    0    0  501 -0.00000000000E+00  0.00000000000E+00  0.40462799544E+03  0.40462799547E+03  0.50400000000E-02 0.  1.
          1   -1    0    0  501    0  0.00000000000E+00 -0.00000000000E+00 -0.17726858749E+04  0.17726858749E+04  0.50400000000E-02 0. -1.
    8880023    1    1    2    0    0 -0.96041651682E+02 -0.56947701290E+03 -0.13116018895E+04  0.15772247113E+04  0.65864270000E+03 0.  1.
    8880022    1    1    2    0    0  0.96041651682E+02  0.56947701290E+03 -0.56455989998E+02  0.60008915913E+03  0.15294330000E+03 0.  0.
<mgrwt>
<rscale>  0 0.79605191E+03</rscale>
<asrwt>0</asrwt>
<pdfrwt beam="1">  1        1 0.27272090E+00 0.87597847E+03</pdfrwt>
<pdfrwt beam="2">  1       -1 0.62250462E-01 0.87597847E+03</pdfrwt>
<totfact> 0.11391382E+01</totfact>
</mgrwt>
</event>
<event>
 4    1  0.1521315E-007  0.7430269E+03  0.7818608E-02  0.9851216E-01
         -1   -1    0    0    0  501 -0.00000000000E+00  0.00000000000E+00  0.11623523774E+04  0.11623523774E+04  0.50400000000E-02 0.  1.
          1   -1    0    0  501    0  0.00000000000E+00 -0.00000000000E+00 -0.30072131903E+03  0.30072131907E+03  0.50400000000E-02 0. -1.
    8880023    1    1    2    0    0  0.54220581831E+01 -0.34387396695E+03  0.33324501283E+03  0.81433478908E+03  0.65864270000E+03 0. -1.
    8880022    1    1    2    0    0 -0.54220581831E+01  0.34387396695E+03  0.52838604556E+03  0.64873890743E+03  0.15294330000E+03 0.  0.
<mgrwt>
<rscale>  0 0.62684946E+03</rscale>
<asrwt>0</asrwt>
<pdfrwt beam="1">  1        1 0.46264819E-01 0.74302686E+03</pdfrwt>
<pdfrwt beam="2">  1       -1 0.17882344E+00 0.74302686E+03</pdfrwt>
<totfact> 0.19047361E+01</totfact>
</mgrwt>
</event>
<event>
 4    1  0.1521315E-007  0.7090544E+03  0.7818608E-02  0.9961529E-01
         -1   -1    0    0    0  501 -0.00000000000E+00  0.00000000000E+00  0.38002842598E+03  0.38002842601E+03  0.50400000000E-02 0.  1.
          1   -1    0    0  501    0  0.00000000000E+00 -0.00000000000E+00 -0.11421807340E+04  0.11421807340E+04  0.50400000000E-02 0. -1.
    8880023    1    1    2    0    0 -0.25206518376E+03 -0.73559618347E+02 -0.93435377507E+03  0.11729343791E+04  0.65864270000E+03 0. -1.
    8880022    1    1    2    0    0  0.25206518376E+03  0.73559618347E+02  0.17220146709E+03  0.34927478093E+03  0.15294330000E+03 0.  0.
<mgrwt>
<rscale>  0 0.57369769E+03</rscale>
<asrwt>0</asrwt>
<pdfrwt beam="1">  1        1 0.17572011E+00 0.70905436E+03</pdfrwt>
<pdfrwt beam="2">  1       -1 0.58465912E-01 0.70905436E+03</pdfrwt>
<totfact> 0.36066273E+01</totfact>
</mgrwt>
</event>
<event>
 4    1  0.1521315E-007  0.1166619E+04  0.7818608E-02  0.9190274E-01
         -1   -1    0    0    0  501 -0.00000000000E+00  0.00000000000E+00  0.11073500967E+04  0.11073500968E+04  0.50400000000E-02 0.  1.
          1   -1    0    0  501    0  0.00000000000E+00 -0.00000000000E+00 -0.19189451692E+04  0.19189451692E+04  0.50400000000E-02 0. -1.
    8880023    1    1    2    0    0  0.69016895436E+03  0.67145812587E+03 -0.14498899413E+04  0.18609621836E+04  0.65864270000E+03 0. -1.
    8880022    1    1    2    0    0 -0.69016895436E+03 -0.67145812587E+03  0.63829486887E+03  0.11653330824E+04  0.15294330000E+03 0.  0.
<mgrwt>
<rscale>  0 0.11154378E+04</rscale>
<asrwt>0</asrwt>
<pdfrwt beam="1">  1        1 0.29522233E+00 0.11666188E+04</pdfrwt>
<pdfrwt beam="2">  1       -1 0.17036155E+00 0.11666188E+04</pdfrwt>
<totfact> 0.81567746E-01</totfact>
</mgrwt>
</event>
<event>
 4    1  0.1521315E-007  0.6593352E+03  0.7818608E-02  0.1024848E+00
         -1   -1    0    0    0  501 -0.00000000000E+00  0.00000000000E+00  0.33009037632E+04  0.33009037632E+04  0.50400000000E-02 0.  1.
          1   -1    0    0  501    0  0.00000000000E+00 -0.00000000000E+00 -0.57801487038E+03  0.57801487040E+03  0.50400000000E-02 0. -1.
    8880023    1    1    2    0    0  0.57072356922E+01 -0.29667775466E+02 -0.38740119635E+03  0.76472389961E+03  0.65864270000E+03 0.  0.
    8880022    1    1    2    0    0 -0.57072356922E+01  0.29667775466E+02  0.31102900891E+04  0.31141947340E+04  0.15294330000E+03 0.  1.
<mgrwt>
<rscale>  0 0.45976969E+03</rscale>
<asrwt>0</asrwt>
<pdfrwt beam="1">  1        1 0.88925363E-01 0.65933524E+03</pdfrwt>
<pdfrwt beam="2">  1       -1 0.50783136E+00 0.65933524E+03</pdfrwt>
<totfact> 0.52360608E-02</totfact>
</mgrwt>
</event>
<event>
 4    1  0.1521315E-007  0.6594508E+03  0.7818608E-02  0.1024726E+00
         -1   -1    0    0    0  501 -0.00000000000E+00  0.00000000000E+00  0.71510303091E+03  0.71510303093E+03  0.50400000000E-02 0.  1.
          1   -1    0    0  501    0  0.00000000000E+00 -0.00000000000E+00 -0.35178745382E+03  0.35178745386E+03  0.50400000000E-02 0. -1.
    8880023    1    1    2    0    0 -0.53230922547E+01  0.32200365640E+02 -0.12781881924E+02  0.65957469753E+03  0.65864270000E+03 0. -1.
    8880022    1    1    2    0    0  0.53230922547E+01 -0.32200365640E+02  0.37609745901E+03  0.40731578725E+03  0.15294330000E+03 0.  0.
<mgrwt>
<rscale>  0 0.46018969E+03</rscale>
<asrwt>0</asrwt>
<pdfrwt beam="1">  1        1 0.54121147E-01 0.65945084E+03</pdfrwt>
<pdfrwt beam="2">  1       -1 0.11001585E+00 0.65945084E+03</pdfrwt>
<totfact> 0.55769930E+01</totfact>
</mgrwt>
</event>
<event>
 4    1  0.1521315E-007  0.8239550E+03  0.7818608E-02  0.9661211E-01
          1   -1    0    0  501    0  0.00000000000E+00  0.00000000000E+00  0.49269173592E+03  0.49269173595E+03  0.50400000000E-02 0. -1.
         -1   -1    0    0    0  501 -0.00000000000E+00 -0.00000000000E+00 -0.16720102152E+04  0.16720102153E+04  0.50400000000E-02 0.  1.
    8880023    1    1    2    0    0 -0.44143400735E+03 -0.22411517595E+03  0.55250646769E+02  0.82580532523E+03  0.65864270000E+03 0.  0.
    8880022    1    1    2    0    0  0.44143400735E+03  0.22411517595E+03 -0.12345691261E+04  0.13388966260E+04  0.15294330000E+03 0.  0.
<mgrwt>
<rscale>  0 0.73374011E+03</rscale>
<asrwt>0</asrwt>
<pdfrwt beam="1">  1        1 0.75798729E-01 0.82395498E+03</pdfrwt>
<pdfrwt beam="2">  1       -1 0.25723234E+00 0.82395498E+03</pdfrwt>
<totfact> 0.29207827E+00</totfact>
</mgrwt>
</event>
<event>
 4    1  0.1521315E-007  0.6991246E+03  0.7818608E-02  0.1000085E+00
          1   -1    0    0  501    0  0.00000000000E+00  0.00000000000E+00  0.12301355414E+04  0.12301355414E+04  0.50400000000E-02 0. -1.
         -1   -1    0    0    0  501 -0.00000000000E+00 -0.00000000000E+00 -0.19480256207E+03  0.19480256214E+03  0.50400000000E-02 0.  1.
    8880023    1    1    2    0    0 -0.22787885240E+03 -0.55102481914E+02  0.73882359372E+03  0.10171703711E+04  0.65864270000E+03 0. -1.
    8880022    1    1    2    0    0  0.22787885240E+03  0.55102481914E+02  0.29650938562E+03  0.40776773249E+03  0.15294330000E+03 0. -1.
<mgrwt>
<rscale>  0 0.55612892E+03</rscale>
<asrwt>0</asrwt>
<pdfrwt beam="1">  1        1 0.18925163E+00 0.69912464E+03</pdfrwt>
<pdfrwt beam="2">  1       -1 0.29969624E-01 0.69912464E+03</pdfrwt>
<totfact> 0.10636355E+02</totfact>
</mgrwt>
</event>
<event>
 4    1  0.1521315E-007  0.7691880E+03  0.7818608E-02  0.9781876E-01
         -1   -1    0    0    0  501 -0.00000000000E+00  0.00000000000E+00  0.53639859769E+03  0.53639859772E+03  0.50400000000E-02 0.  1.
          1   -1    0    0  501    0  0.00000000000E+00 -0.00000000000E+00 -0.21326130585E+04  0.21326130585E+04  0.50400000000E-02 0. -1.
    8880023    1    1    2    0    0  0.34676086346E+03 -0.19389909695E+03 -0.19622181900E+04  0.21075935063E+04  0.65864270000E+03 0. -1.
    8880022    1    1    2    0    0 -0.34676086346E+03  0.19389909695E+03  0.36600372924E+03  0.56141814991E+03  0.15294330000E+03 0.  0.
<mgrwt>
<rscale>  0 0.66344300E+03</rscale>
<asrwt>0</asrwt>
<pdfrwt beam="1">  1        1 0.32809431E+00 0.76918799E+03</pdfrwt>
<pdfrwt beam="2">  1       -1 0.82522862E-01 0.76918799E+03</pdfrwt>
<totfact> 0.37113311E+00</totfact>
</mgrwt>
</event>
<event>
 4    1  0.1625760E-007  0.6801338E+03  0.7818608E-02  0.1009248E+00
         -1   -1    0    0    0  501 -0.00000000000E+00  0.00000000000E+00  0.79374703242E+03  0.79374703243E+03  0.50400000000E-02 0.  1.
          1   -1    0    0  501    0  0.00000000000E+00 -0.00000000000E+00 -0.15063104656E+04  0.15063104656E+04  0.50400000000E-02 0. -1.
    8880023    1    1    2    0    0  0.12425184269E+03  0.11546968488E+03 -0.14103841935E+04  0.15658114663E+04  0.65864270000E+03 0. -1.
    8880022    1    1    2    0    0 -0.12425184269E+03 -0.11546968488E+03  0.69782076032E+03  0.73424603171E+03  0.15294330000E+03 0.  0.
<mgrwt>
<rscale>  0 0.51774573E+03</rscale>
<asrwt>0</asrwt>
<pdfrwt beam="1">  1        1 0.23174007E+00 0.68013379E+03</pdfrwt>
<pdfrwt beam="2">  1       -1 0.12211493E+00 0.68013379E+03</pdfrwt>
<totfact> 0.40572495E+00</totfact>
</mgrwt>
</event>
<event>
 4    1  0.1521315E-007  0.8576907E+03  0.7818608E-02  0.9597684E-01
          1   -1    0    0  501    0  0.00000000000E+00  0.00000000000E+00  0.19995574191E+04  0.19995574191E+04  0.50400000000E-02 0. -1.
         -1   -1    0    0    0  501 -0.00000000000E+00 -0.00000000000E+00 -0.37102695670E+03  0.37102695673E+03  0.50400000000E-02 0.  1.
    8880023    1    1    2    0    0  0.54800786990E+03 -0.38865978101E+02  0.15805805745E+04  0.17982959568E+04  0.65864270000E+03 0. -1.
    8880022    1    1    2    0    0 -0.54800786990E+03  0.38865978101E+02  0.47949887905E+02  0.57228841897E+03  0.15294330000E+03 0.  0.
<mgrwt>
<rscale>  0 0.77449628E+03</rscale>
<asrwt>0</asrwt>
<pdfrwt beam="1">  1        1 0.30762422E+00 0.85769073E+03</pdfrwt>
<pdfrwt beam="2">  1       -1 0.57081070E-01 0.85769073E+03</pdfrwt>
<totfact> 0.95408164E+00</totfact>
</mgrwt>
</event>
<event>
 4    1  0.1521315E-007  0.1039265E+04  0.7818608E-02  0.9331899E-01
         -1   -1    0    0    0  501 -0.00000000000E+00  0.00000000000E+00  0.14479439098E+04  0.14479439098E+04  0.50400000000E-02 0.  1.
          1   -1    0    0  501    0  0.00000000000E+00 -0.00000000000E+00 -0.11227116627E+04  0.11227116627E+04  0.50400000000E-02 0. -1.
    8880023    1    1    2    0    0  0.17536779414E+03 -0.78454269837E+03 -0.70436317777E+03  0.12554675628E+04  0.65864270000E+03 0. -1.
    8880022    1    1    2    0    0 -0.17536779414E+03  0.78454269837E+03  0.10295954249E+04  0.13151880096E+04  0.15294330000E+03 0.  0.
<mgrwt>
<rscale>  0 0.97898462E+03</rscale>
<asrwt>0</asrwt>
<pdfrwt beam="1">  1        1 0.17272487E+00 0.10392648E+04</pdfrwt>
<pdfrwt beam="2">  1       -1 0.22276060E+00 0.10392648E+04</pdfrwt>
<totfact> 0.12865861E+00</totfact>
</mgrwt>
</event>
<event>
 4    1  0.1521315E-007  0.7737624E+03  0.7818608E-02  0.9770698E-01
          1   -1    0    0  501    0  0.00000000000E+00  0.00000000000E+00  0.91715664983E+03  0.91715664985E+03  0.50400000000E-02 0. -1.
         -1   -1    0    0    0  501 -0.00000000000E+00 -0.00000000000E+00 -0.15427369961E+04  0.15427369961E+04  0.50400000000E-02 0.  1.
    8880023    1    1    2    0    0 -0.37647541730E+03  0.15219845250E+03  0.71334410534E+03  0.10524106269E+04  0.65864270000E+03 0. -1.
    8880022    1    1    2    0    0  0.37647541730E+03 -0.15219845250E+03 -0.13389244516E+04  0.14074830191E+04  0.15294330000E+03 0.  0.
<mgrwt>
<rscale>  0 0.66959017E+03</rscale>
<asrwt>0</asrwt>
<pdfrwt beam="1">  1        1 0.14110102E+00 0.77376244E+03</pdfrwt>
<pdfrwt beam="2">  1       -1 0.23734415E+00 0.77376244E+03</pdfrwt>
<totfact> 0.15509406E+00</totfact>
</mgrwt>
</event>
<event>
 4    1  0.1521315E-007  0.7156983E+03  0.7818608E-02  0.9937420E-01
         -1   -1    0    0    0  501 -0.00000000000E+00  0.00000000000E+00  0.43809572137E+03  0.43809572140E+03  0.50400000000E-02 0.  1.
          1   -1    0    0  501    0  0.00000000000E+00 -0.00000000000E+00 -0.95341257267E+03  0.95341257268E+03  0.50400000000E-02 0. -1.
    8880023    1    1    2    0    0  0.41578909517E+02  0.27692064587E+03 -0.71778025847E+03  0.10136234782E+04  0.65864270000E+03 0.  0.
    8880022    1    1    2    0    0 -0.41578909517E+02 -0.27692064587E+03  0.20246340717E+03  0.37788481589E+03  0.15294330000E+03 0.  0.
<mgrwt>
<rscale>  0 0.58481553E+03</rscale>
<asrwt>0</asrwt>
<pdfrwt beam="1">  1        1 0.14667886E+00 0.71569830E+03</pdfrwt>
<pdfrwt beam="2">  1       -1 0.67399342E-01 0.71569830E+03</pdfrwt>
<totfact> 0.37793590E+01</totfact>
</mgrwt>
</event>
<event>
 4    1  0.1521315E-007  0.8211415E+03  0.7818608E-02  0.9666820E-01
         -1   -1    0    0    0  501 -0.00000000000E+00  0.00000000000E+00  0.27733433151E+03  0.27733433156E+03  0.50400000000E-02 0.  1.
          1   -1    0    0  501    0  0.00000000000E+00 -0.00000000000E+00 -0.23659151045E+04  0.23659151045E+04  0.50400000000E-02 0. -1.
    8880023    1    1    2    0    0  0.49034826406E+03  0.46677319020E+01 -0.19429396618E+04  0.21093335306E+04  0.65864270000E+03 0. -1.
    8880022    1    1    2    0    0 -0.49034826406E+03 -0.46677319020E+01 -0.14564111119E+03  0.53391590543E+03  0.15294330000E+03 0.  0.
<mgrwt>
<rscale>  0 0.73027116E+03</rscale>
<asrwt>0</asrwt>
<pdfrwt beam="1">  1        1 0.36398693E+00 0.82114153E+03</pdfrwt>
<pdfrwt beam="2">  1       -1 0.42666822E-01 0.82114153E+03</pdfrwt>
<totfact> 0.94336116E+00</totfact>
</mgrwt>
</event>
<event>
 4    1  0.1521315E-007  0.6972990E+03  0.7818608E-02  0.1000860E+00
         -1   -1    0    0    0  501 -0.00000000000E+00  0.00000000000E+00  0.20948861486E+03  0.20948861492E+03  0.50400000000E-02 0.  1.
          1   -1    0    0  501    0  0.00000000000E+00 -0.00000000000E+00 -0.12842930533E+04  0.12842930533E+04  0.50400000000E-02 0. -1.
    8880023    1    1    2    0    0  0.20251827931E+03  0.10678043579E+03 -0.97964758489E+03  0.12024705035E+04  0.65864270000E+03 0. -1.
    8880022    1    1    2    0    0 -0.20251827931E+03 -0.10678043579E+03 -0.95156853580E+02  0.29131116477E+03  0.15294330000E+03 0.  1.
<mgrwt>
<rscale>  0 0.55274932E+03</rscale>
<asrwt>0</asrwt>
<pdfrwt beam="1">  1        1 0.19758354E+00 0.69729902E+03</pdfrwt>
<pdfrwt beam="2">  1       -1 0.32229018E-01 0.69729902E+03</pdfrwt>
<totfact> 0.85715609E+01</totfact>
</mgrwt>
</event>
<event>
 4    1  0.1521315E-007  0.1159264E+04  0.7818608E-02  0.9197775E-01
          1   -1    0    0  501    0  0.00000000000E+00  0.00000000000E+00  0.14084529902E+04  0.14084529902E+04  0.50400000000E-02 0. -1.
         -1   -1    0    0    0  501 -0.00000000000E+00 -0.00000000000E+00 -0.16075241868E+04  0.16075241868E+04  0.50400000000E-02 0.  1.
    8880023    1    1    2    0    0 -0.68844935347E+03  0.66039428441E+03  0.96133297277E+03  0.15060061135E+04  0.65864270000E+03 0. -1.
    8880022    1    1    2    0    0  0.68844935347E+03 -0.66039428441E+03 -0.11604041694E+04  0.15099710635E+04  0.15294330000E+03 0.  1.
<mgrwt>
<rscale>  0 0.11076425E+04</rscale>
<asrwt>0</asrwt>
<pdfrwt beam="1">  1        1 0.21668508E+00 0.11592641E+04</pdfrwt>
<pdfrwt beam="2">  1       -1 0.24731141E+00 0.11592641E+04</pdfrwt>
<totfact> 0.54269505E-01</totfact>
</mgrwt>
</event>
<event>
 4    1  0.1521315E-007  0.7473590E+03  0.7818608E-02  0.9839007E-01
          1   -1    0    0  501    0  0.00000000000E+00  0.00000000000E+00  0.24390940575E+04  0.24390940575E+04  0.50400000000E-02 0. -1.
         -1   -1    0    0    0  501 -0.00000000000E+00 -0.00000000000E+00 -0.33282056033E+03  0.33282056036E+03  0.50400000000E-02 0.  1.
    8880023    1    1    2    0    0 -0.29611592610E+03  0.19248553478E+03  0.22424113621E+04  0.23636738874E+04  0.65864270000E+03 0. -1.
    8880022    1    1    2    0    0  0.29611592610E+03 -0.19248553478E+03 -0.13613786488E+03  0.40824073053E+03  0.15294330000E+03 0.  0.
<mgrwt>
<rscale>  0 0.63310572E+03</rscale>
<asrwt>0</asrwt>
<pdfrwt beam="1">  1        1 0.37524523E+00 0.74735904E+03</pdfrwt>
<pdfrwt beam="2">  1       -1 0.51203165E-01 0.74735904E+03</pdfrwt>
<totfact> 0.60518378E+00</totfact>
</mgrwt>
</event>
<event>
 4    1  0.1521315E-007  0.1226114E+04  0.7818608E-02  0.9132147E-01
         -1   -1    0    0    0  501 -0.00000000000E+00  0.00000000000E+00  0.12575434729E+04  0.12575434729E+04  0.50400000000E-02 0.  1.
          1   -1    0    0  501    0  0.00000000000E+00 -0.00000000000E+00 -0.12100847879E+04  0.12100847879E+04  0.50400000000E-02 0. -1.
    8880023    1    1    2    0    0  0.76483549912E+03 -0.69611161391E+03 -0.45487074634E+03  0.13077699805E+04  0.65864270000E+03 0.  0.
    8880022    1    1    2    0    0 -0.76483549912E+03  0.69611161391E+03  0.50232943133E+03  0.11598582803E+04  0.15294330000E+03 0.  0.
<mgrwt>
<rscale>  0 0.11782093E+04</rscale>
<asrwt>0</asrwt>
<pdfrwt beam="1">  1        1 0.18616689E+00 0.12261137E+04</pdfrwt>
<pdfrwt beam="2">  1       -1 0.19346823E+00 0.12261137E+04</pdfrwt>
<totfact> 0.17154258E+00</totfact>
</mgrwt>
</event>
<event>
 4    1  0.1521315E-007  0.8023132E+03  0.7818608E-02  0.9705817E-01
         -1   -1    0    0    0  501 -0.00000000000E+00  0.00000000000E+00  0.49840332671E+03  0.49840332673E+03  0.50400000000E-02 0.  1.
          1   -1    0    0  501    0  0.00000000000E+00 -0.00000000000E+00 -0.97705385773E+03  0.97705385774E+03  0.50400000000E-02 0. -1.
    8880023    1    1    2    0    0 -0.32094995269E+03  0.32693634324E+03 -0.56963076095E+03  0.98396425481E+03  0.65864270000E+03 0.  1.
    8880022    1    1    2    0    0  0.32094995269E+03 -0.32693634324E+03  0.90980229922E+02  0.49149292967E+03  0.15294330000E+03 0.  0.
<mgrwt>
<rscale>  0 0.70671527E+03</rscale>
<asrwt>0</asrwt>
<pdfrwt beam="1">  1        1 0.15031598E+00 0.80231319E+03</pdfrwt>
<pdfrwt beam="2">  1       -1 0.76677435E-01 0.80231319E+03</pdfrwt>
<totfact> 0.27498961E+01</totfact>
</mgrwt>
</event>
<event>
 4    1  0.1521315E-007  0.6697958E+03  0.7818608E-02  0.1015810E+00
          1   -1    0    0  501    0  0.00000000000E+00  0.00000000000E+00  0.11188440373E+04  0.11188440373E+04  0.50400000000E-02 0. -1.
         -1   -1    0    0    0  501 -0.00000000000E+00 -0.00000000000E+00 -0.52743817217E+03  0.52743817219E+03  0.50400000000E-02 0.  1.
    8880023    1    1    2    0    0 -0.11744015979E+02  0.12115398622E+03  0.99407870855E+03  0.11986738069E+04  0.65864270000E+03 0.  0.
    8880022    1    1    2    0    0  0.11744015979E+02 -0.12115398622E+03 -0.40267284339E+03  0.44760840263E+03  0.15294330000E+03 0.  1.
<mgrwt>
<rscale>  0 0.49229555E+03</rscale>
<asrwt>0</asrwt>
<pdfrwt beam="1">  1        1 0.17212985E+00 0.66979580E+03</pdfrwt>
<pdfrwt beam="2">  1       -1 0.81144334E-01 0.66979580E+03</pdfrwt>
<totfact> 0.19341317E+01</totfact>
</mgrwt>
</event>
<event>
 4    1  0.1521315E-007  0.8746013E+03  0.7818608E-02  0.9568100E-01
          1   -1    0    0  501    0  0.00000000000E+00  0.00000000000E+00  0.43506086324E+03  0.43506086327E+03  0.50400000000E-02 0. -1.
         -1   -1    0    0    0  501 -0.00000000000E+00 -0.00000000000E+00 -0.18453618447E+04  0.18453618447E+04  0.50400000000E-02 0.  1.
    8880023    1    1    2    0    0  0.57084566754E+03 -0.72473860883E+02 -0.14394280774E+04  0.16843041985E+04  0.65864270000E+03 0.  1.
    8880022    1    1    2    0    0 -0.57084566754E+03  0.72473860883E+02  0.29127095951E+02  0.59611850952E+03  0.15294330000E+03 0.  0.
<mgrwt>
<rscale>  0 0.79443978E+03</rscale>
<asrwt>0</asrwt>
<pdfrwt beam="1">  1        1 0.66932442E-01 0.87460131E+03</pdfrwt>
<pdfrwt beam="2">  1       -1 0.28390182E+00 0.87460131E+03</pdfrwt>
<totfact> 0.23159056E+00</totfact>
</mgrwt>
</event>
<event>
 4    1  0.1521315E-007  0.7811798E+03  0.7818608E-02  0.9753073E-01
         -1   -1    0    0    0  501 -0.00000000000E+00  0.00000000000E+00  0.26024506232E+03  0.26024506236E+03  0.50400000000E-02 0.  1.
          1   -1    0    0  501    0  0.00000000000E+00 -0.00000000000E+00 -0.15896731066E+04  0.15896731066E+04  0.50400000000E-02 0. -1.
    8880023    1    1    2    0    0  0.34033024204E+03 -0.24618495131E+03 -0.56394218095E+03  0.96346909323E+03  0.65864270000E+03 0.  1.
    8880022    1    1    2    0    0 -0.34033024204E+03  0.24618495131E+03 -0.76548586331E+03  0.88644907572E+03  0.15294330000E+03 0.  1.
<mgrwt>
<rscale>  0 0.67942894E+03</rscale>
<asrwt>0</asrwt>
<pdfrwt beam="1">  1        1 0.24456509E+00 0.78117982E+03</pdfrwt>
<pdfrwt beam="2">  1       -1 0.40037703E-01 0.78117982E+03</pdfrwt>
<totfact> 0.35447871E+01</totfact>
</mgrwt>
</event>
<event>
 4    1  0.1521315E-007  0.7149463E+03  0.7818608E-02  0.9940072E-01
         -1   -1    0    0    0  501 -0.00000000000E+00  0.00000000000E+00  0.93125633560E+03  0.93125633561E+03  0.50400000000E-02 0.  1.
          1   -1    0    0  501    0  0.00000000000E+00 -0.00000000000E+00 -0.47988939629E+03  0.47988939632E+03  0.50400000000E-02 0. -1.
    8880023    1    1    2    0    0  0.26906166340E+03 -0.70312174808E+02 -0.15060003673E+03  0.73063572180E+03  0.65864270000E+03 0.  0.
    8880022    1    1    2    0    0 -0.26906166340E+03  0.70312174808E+02  0.60196697604E+03  0.68051001013E+03  0.15294330000E+03 0.  0.
<mgrwt>
<rscale>  0 0.58357908E+03</rscale>
<asrwt>0</asrwt>
<pdfrwt beam="1">  1        1 0.73829138E-01 0.71494628E+03</pdfrwt>
<pdfrwt beam="2">  1       -1 0.14327020E+00 0.71494628E+03</pdfrwt>
<totfact> 0.19059875E+01</totfact>
</mgrwt>
</event>
<event>
 4    1  0.1521315E-007  0.6594070E+03  0.7818608E-02  0.1024772E+00
         -1   -1    0    0    0  501 -0.00000000000E+00  0.00000000000E+00  0.30705725890E+03  0.30705725894E+03  0.50400000000E-02 0.  1.
          1   -1    0    0  501    0  0.00000000000E+00 -0.00000000000E+00 -0.16777189745E+04  0.16777189745E+04  0.50400000000E-02 0. -1.
    8880023    1    1    2    0    0 -0.24674416774E+02  0.19965408889E+02 -0.15866530559E+04  0.17182216302E+04  0.65864270000E+03 0. -1.
    8880022    1    1    2    0    0  0.24674416774E+02 -0.19965408889E+02  0.21599134032E+03  0.26655460323E+03  0.15294330000E+03 0.  0.
<mgrwt>
<rscale>  0 0.46003080E+03</rscale>
<asrwt>0</asrwt>
<pdfrwt beam="1">  1        1 0.25811061E+00 0.65940704E+03</pdfrwt>
<pdfrwt beam="2">  1       -1 0.47239579E-01 0.65940704E+03</pdfrwt>
<totfact> 0.23150665E+01</totfact>
</mgrwt>
</event>
<event>
 4    1  0.1521315E-007  0.7203995E+03  0.7818608E-02  0.9921237E-01
          1   -1    0    0  501    0  0.00000000000E+00  0.00000000000E+00  0.14623111823E+04  0.14623111823E+04  0.50400000000E-02 0. -1.
         -1   -1    0    0    0  501 -0.00000000000E+00 -0.00000000000E+00 -0.10015426148E+04  0.10015426148E+04  0.50400000000E-02 0.  1.
    8880023    1    1    2    0    0 -0.21567548938E+03  0.19659422941E+03  0.13419493177E+04  0.15230900779E+04  0.65864270000E+03 0.  0.
    8880022    1    1    2    0    0  0.21567548938E+03 -0.19659422941E+03 -0.88118075022E+03  0.94076371918E+03  0.15294330000E+03 0.  1.
<mgrwt>
<rscale>  0 0.59243022E+03</rscale>
<asrwt>0</asrwt>
<pdfrwt beam="1">  1        1 0.22497095E+00 0.72039948E+03</pdfrwt>
<pdfrwt beam="2">  1       -1 0.15408348E+00 0.72039948E+03</pdfrwt>
<totfact> 0.23699318E+00</totfact>
</mgrwt>
</event>
<event>
 4    1  0.1521315E-007  0.1513481E+04  0.7818608E-02  0.8900175E-01
          1   -1    0    0  501    0  0.00000000000E+00  0.00000000000E+00  0.14850073147E+04  0.14850073147E+04  0.50400000000E-02 0. -1.
         -1   -1    0    0    0  501 -0.00000000000E+00 -0.00000000000E+00 -0.16100998716E+04  0.16100998716E+04  0.50400000000E-02 0.  1.
    8880023    1    1    2    0    0 -0.83190417921E+03  0.10792351728E+04  0.49200059554E+03  0.15914420862E+04  0.65864270000E+03 0. -1.
    8880022    1    1    2    0    0  0.83190417921E+03 -0.10792351728E+04 -0.61709315236E+03  0.15036651001E+04  0.15294330000E+03 0.  0.
<mgrwt>
<rscale>  0 0.14765844E+04</rscale>
<asrwt>0</asrwt>
<pdfrwt beam="1">  1        1 0.22846266E+00 0.15134805E+04</pdfrwt>
<pdfrwt beam="2">  1       -1 0.24770767E+00 0.15134805E+04</pdfrwt>
<totfact> 0.45675322E-01</totfact>
</mgrwt>
</event>
<event>
 4    1  0.1521315E-007  0.8629777E+03  0.7818608E-02  0.9588288E-01
         -1   -1    0    0    0  501 -0.00000000000E+00  0.00000000000E+00  0.79044889915E+03  0.79044889917E+03  0.50400000000E-02 0.  1.
          1   -1    0    0  501    0  0.00000000000E+00 -0.00000000000E+00 -0.10358515515E+04  0.10358515515E+04  0.50400000000E-02 0. -1.
    8880023    1    1    2    0    0  0.13670660064E+03 -0.54058456997E+03 -0.68350894102E+03  0.11008701334E+04  0.65864270000E+03 0. -1.
    8880022    1    1    2    0    0 -0.13670660064E+03  0.54058456997E+03  0.43810628870E+03  0.72543031723E+03  0.15294330000E+03 0.  0.
<mgrwt>
<rscale>  0 0.78076205E+03</rscale>
<asrwt>0</asrwt>
<pdfrwt beam="1">  1        1 0.15936178E+00 0.86297774E+03</pdfrwt>
<pdfrwt beam="2">  1       -1 0.12160752E+00 0.86297774E+03</pdfrwt>
<totfact> 0.86575224E+00</totfact>
</mgrwt>
</event>
<event>
 4    1  0.1521315E-007  0.1056420E+04  0.7818608E-02  0.9311203E-01
         -1   -1    0    0    0  501 -0.00000000000E+00  0.00000000000E+00  0.51778428192E+03  0.51778428195E+03  0.50400000000E-02 0.  1.
          1   -1    0    0  501    0  0.00000000000E+00 -0.00000000000E+00 -0.28070888983E+04  0.28070888983E+04  0.50400000000E-02 0. -1.
    8880023    1    1    2    0    0 -0.79842506137E+03 -0.21149705220E+03 -0.22480020415E+04  0.24838552628E+04  0.65864270000E+03 0.  0.
    8880022    1    1    2    0    0  0.79842506137E+03  0.21149705220E+03 -0.41302574849E+02  0.84101791742E+03  0.15294330000E+03 0.  0.
<mgrwt>
<rscale>  0 0.99758008E+03</rscale>
<asrwt>0</asrwt>
<pdfrwt beam="1">  1        1 0.43185982E+00 0.10564203E+04</pdfrwt>
<pdfrwt beam="2">  1       -1 0.79659122E-01 0.10564203E+04</pdfrwt>
<totfact> 0.13167263E+00</totfact>
</mgrwt>
</event>
<event>
 4    1  0.1521315E-007  0.7438774E+03  0.7818608E-02  0.9848793E-01
         -1   -1    0    0    0  501 -0.00000000000E+00  0.00000000000E+00  0.13009215215E+04  0.13009215215E+04  0.50400000000E-02 0.  1.
          1   -1    0    0  501    0  0.00000000000E+00 -0.00000000000E+00 -0.40224649444E+03  0.40224649447E+03  0.50400000000E-02 0. -1.
    8880023    1    1    2    0    0  0.24345756049E+03 -0.24550304100E+03  0.17244264121E+02  0.74407721226E+03  0.65864270000E+03 0. -1.
    8880022    1    1    2    0    0 -0.24345756049E+03  0.24550304100E+03  0.88143076291E+03  0.95909080369E+03  0.15294330000E+03 0.  0.
<mgrwt>
<rscale>  0 0.62808486E+03</rscale>
<asrwt>0</asrwt>
<pdfrwt beam="1">  1        1 0.61884077E-01 0.74387736E+03</pdfrwt>
<pdfrwt beam="2">  1       -1 0.20014177E+00 0.74387736E+03</pdfrwt>
<totfact> 0.92351522E+00</totfact>
</mgrwt>
</event>
<event>
 4    1  0.1521315E-007  0.6829203E+03  0.7818608E-02  0.1007718E+00
         -1   -1    0    0    0  501 -0.00000000000E+00  0.00000000000E+00  0.35735122136E+03  0.35735122140E+03  0.50400000000E-02 0.  1.
          1   -1    0    0  501    0  0.00000000000E+00 -0.00000000000E+00 -0.10563648636E+04  0.10563648636E+04  0.50400000000E-02 0. -1.
    8880023    1    1    2    0    0  0.17727649526E+03 -0.33808038890E+02 -0.88139912725E+03  0.11150087744E+04  0.65864270000E+03 0. -1.
    8880022    1    1    2    0    0 -0.17727649526E+03  0.33808038890E+02  0.18238548499E+03  0.29870731061E+03  0.15294330000E+03 0.  0.
<mgrwt>
<rscale>  0 0.52391855E+03</rscale>
<asrwt>0</asrwt>
<pdfrwt beam="1">  1        1 0.16251767E+00 0.68292031E+03</pdfrwt>
<pdfrwt beam="2">  1       -1 0.54977111E-01 0.68292031E+03</pdfrwt>
<totfact> 0.47231073E+01</totfact>
</mgrwt>
</event>
<event>
 4    1  0.1521315E-007  0.7168716E+03  0.7818608E-02  0.9933317E-01
          1   -1    0    0  501    0  0.00000000000E+00  0.00000000000E+00  0.41357348090E+03  0.41357348093E+03  0.50400000000E-02 0. -1.
         -1   -1    0    0    0  501 -0.00000000000E+00 -0.00000000000E+00 -0.84384324151E+03  0.84384324152E+03  0.50400000000E-02 0.  1.
    8880023    1    1    2    0    0 -0.13867127165E+03  0.24670823390E+03  0.41147962618E+01  0.71688340200E+03  0.65864270000E+03 0. -1.
    8880022    1    1    2    0    0  0.13867127165E+03 -0.24670823390E+03 -0.43438455687E+03  0.54053332045E+03  0.15294330000E+03 0.  0.
<mgrwt>
<rscale>  0 0.58673420E+03</rscale>
<asrwt>0</asrwt>
<pdfrwt beam="1">  1        1 0.63626690E-01 0.71687159E+03</pdfrwt>
<pdfrwt beam="2">  1       -1 0.12982204E+00 0.71687159E+03</pdfrwt>
<totfact> 0.29981156E+01</totfact>
</mgrwt>
</event>
<event>
 4    1  0.1521315E-007  0.6890208E+03  0.7818608E-02  0.1004621E+00
         -1   -1    0    0    0  501 -0.00000000000E+00  0.00000000000E+00  0.34175418385E+03  0.34175418388E+03  0.50400000000E-02 0.  1.
          1   -1    0    0  501    0  0.00000000000E+00 -0.00000000000E+00 -0.66171569824E+03  0.66171569825E+03  0.50400000000E-02 0. -1.
    8880023    1    1    2    0    0  0.10043303740E+03 -0.17564912170E+03 -0.17328583221E+03  0.71047701924E+03  0.65864270000E+03 0.  0.
    8880022    1    1    2    0    0 -0.10043303740E+03  0.17564912170E+03 -0.14667568217E+03  0.29299286290E+03  0.15294330000E+03 0.  0.
<mgrwt>
<rscale>  0 0.53669410E+03</rscale>
<asrwt>0</asrwt>
<pdfrwt beam="1">  1        1 0.10180241E+00 0.68902077E+03</pdfrwt>
<pdfrwt beam="2">  1       -1 0.52577567E-01 0.68902077E+03</pdfrwt>
<totfact> 0.11049255E+02</totfact>
</mgrwt>
</event>
<event>
 4    1  0.1521315E-007  0.6833146E+03  0.7818608E-02  0.1007508E+00
         -1   -1    0    0    0  501 -0.00000000000E+00  0.00000000000E+00  0.19985895637E+03  0.19985895643E+03  0.50400000000E-02 0.  1.
          1   -1    0    0  501    0  0.00000000000E+00 -0.00000000000E+00 -0.13891343247E+04  0.13891343247E+04  0.50400000000E-02 0. -1.
    8880023    1    1    2    0    0 -0.46307014815E+02  0.17596683985E+03 -0.11642760733E+04  0.13499843145E+04  0.65864270000E+03 0.  0.
    8880022    1    1    2    0    0  0.46307014815E+02 -0.17596683985E+03 -0.24999295025E+02  0.23900896660E+03  0.15294330000E+03 0.  0.
<mgrwt>
<rscale>  0 0.52477351E+03</rscale>
<asrwt>0</asrwt>
<pdfrwt beam="1">  1        1 0.21371297E+00 0.68331462E+03</pdfrwt>
<pdfrwt beam="2">  1       -1 0.30747533E-01 0.68331462E+03</pdfrwt>
<totfact> 0.78712457E+01</totfact>
</mgrwt>
</event>
<event>
 4    1  0.1521315E-007  0.1113645E+04  0.7818608E-02  0.9246014E-01
         -1   -1    0    0    0  501 -0.00000000000E+00  0.00000000000E+00  0.10108804063E+04  0.10108804063E+04  0.50400000000E-02 0.  1.
          1   -1    0    0  501    0  0.00000000000E+00 -0.00000000000E+00 -0.29961390622E+04  0.29961390622E+04  0.50400000000E-02 0. -1.
    8880023    1    1    2    0    0  0.43048065667E+03 -0.78808701064E+03 -0.26532035587E+04  0.28774457531E+04  0.65864270000E+03 0.  0.
    8880022    1    1    2    0    0 -0.43048065667E+03  0.78808701064E+03  0.66794490280E+03  0.11295737153E+04  0.15294330000E+03 0.  0.
<mgrwt>
<rscale>  0 0.10590850E+04</rscale>
<asrwt>0</asrwt>
<pdfrwt beam="1">  1        1 0.46094447E+00 0.11136449E+04</pdfrwt>
<pdfrwt beam="2">  1       -1 0.15552006E+00 0.11136449E+04</pdfrwt>
<totfact> 0.19152846E-01</totfact>
</mgrwt>
</event>
<event>
 4    1  0.1521315E-007  0.1254933E+04  0.7818608E-02  0.9105489E-01
          1   -1    0    0  501    0  0.00000000000E+00  0.00000000000E+00  0.14278587219E+04  0.14278587219E+04  0.50400000000E-02 0. -1.
         -1   -1    0    0    0  501 -0.00000000000E+00 -0.00000000000E+00 -0.11128172662E+04  0.11128172662E+04  0.50400000000E-02 0.  1.
    8880023    1    1    2    0    0 -0.78029439848E+03  0.72951174306E+03  0.64670371908E+03  0.14117657873E+04  0.65864270000E+03 0.  0.
    8880022    1    1    2    0    0  0.78029439848E+03 -0.72951174306E+03 -0.33166226335E+03  0.11289102008E+04  0.15294330000E+03 0.  0.
<mgrwt>
<rscale>  0 0.12084536E+04</rscale>
<asrwt>0</asrwt>
<pdfrwt beam="1">  1        1 0.21967057E+00 0.12549330E+04</pdfrwt>
<pdfrwt beam="2">  1       -1 0.17120266E+00 0.12549330E+04</pdfrwt>
<totfact> 0.17250612E+00</totfact>
</mgrwt>
</event>
<event>
 4    1  0.1521315E-007  0.9495048E+03  0.7818608E-02  0.9450827E-01
          1   -1    0    0  501    0  0.00000000000E+00  0.00000000000E+00  0.14914937703E+04  0.14914937704E+04  0.50400000000E-02 0. -1.
         -1   -1    0    0    0  501 -0.00000000000E+00 -0.00000000000E+00 -0.61168405103E+03  0.61168405105E+03  0.50400000000E-02 0.  1.
    8880023    1    1    2    0    0 -0.61208161747E+03  0.30513159454E+03  0.10145176912E+04  0.13895342919E+04  0.65864270000E+03 0. -1.
    8880022    1    1    2    0    0  0.61208161747E+03 -0.30513159454E+03 -0.13470797190E+03  0.71364352946E+03  0.15294330000E+03 0.  0.
<mgrwt>
<rscale>  0 0.88008301E+03</rscale>
<asrwt>0</asrwt>
<pdfrwt beam="1">  1        1 0.22946058E+00 0.94950482E+03</pdfrwt>
<pdfrwt beam="2">  1       -1 0.94105238E-01 0.94950482E+03</pdfrwt>
<totfact> 0.73375308E+00</totfact>
</mgrwt>
</event>
<event>
 4    1  0.1521315E-007  0.7708386E+03  0.7818608E-02  0.9777815E-01
          1   -1    0    0  501    0  0.00000000000E+00  0.00000000000E+00  0.76956247841E+03  0.76956247842E+03  0.50400000000E-02 0. -1.
         -1   -1    0    0    0  501 -0.00000000000E+00 -0.00000000000E+00 -0.49101069347E+03  0.49101069349E+03  0.50400000000E-02 0.  1.
    8880023    1    1    2    0    0  0.34195099907E+03 -0.20844995024E+03  0.44425165236E+02  0.77211765236E+03  0.65864270000E+03 0.  0.
    8880022    1    1    2    0    0 -0.34195099907E+03  0.20844995024E+03  0.23412661970E+03  0.48845551956E+03  0.15294330000E+03 0.  0.
<mgrwt>
<rscale>  0 0.66566839E+03</rscale>
<asrwt>0</asrwt>
<pdfrwt beam="1">  1        1 0.11839423E+00 0.77083855E+03</pdfrwt>
<pdfrwt beam="2">  1       -1 0.75540108E-01 0.77083855E+03</pdfrwt>
<totfact> 0.42318359E+01</totfact>
</mgrwt>
</event>
<event>
 4    1  0.1521315E-007  0.1402967E+04  0.7818608E-02  0.8981381E-01
         -1   -1    0    0    0  501 -0.00000000000E+00  0.00000000000E+00  0.14211483599E+04  0.14211483599E+04  0.50400000000E-02 0.  1.
          1   -1    0    0  501    0  0.00000000000E+00 -0.00000000000E+00 -0.20749056555E+04  0.20749056556E+04  0.50400000000E-02 0. -1.
    8880023    1    1    2    0    0  0.56031598571E+03 -0.11047858506E+04 -0.14483446473E+04  0.20164370070E+04  0.65864270000E+03 0.  0.
    8880022    1    1    2    0    0 -0.56031598571E+03  0.11047858506E+04  0.79458735168E+03  0.14796170085E+04  0.15294330000E+03 0.  0.
<mgrwt>
<rscale>  0 0.13625515E+04</rscale>
<asrwt>0</asrwt>
<pdfrwt beam="1">  1        1 0.31921625E+00 0.14029669E+04</pdfrwt>
<pdfrwt beam="2">  1       -1 0.21863821E+00 0.14029669E+04</pdfrwt>
<totfact> 0.28465539E-01</totfact>
</mgrwt>
</event>
<event>
 4    1  0.2504132E-007  0.8474085E+03  0.7818608E-02  0.9616366E-01
         -1   -1    0    0    0  501 -0.00000000000E+00  0.00000000000E+00  0.14873594332E+04  0.14873594333E+04  0.50400000000E-02 0.  1.
          1   -1    0    0  501    0  0.00000000000E+00 -0.00000000000E+00 -0.22056201017E+04  0.22056201017E+04  0.50400000000E-02 0. -1.
    8880023    1    1    2    0    0 -0.34765576773E+03 -0.40426029964E+03 -0.20673611393E+04  0.22342970280E+04  0.65864270000E+03 0. -1.
    8880022    1    1    2    0    0  0.34765576773E+03  0.40426029964E+03  0.13491004708E+04  0.14586825070E+04  0.15294330000E+03 0.  0.
<mgrwt>
<rscale>  0 0.76222373E+03</rscale>
<asrwt>0</asrwt>
<pdfrwt beam="1">  1        1 0.33932617E+00 0.84740848E+03</pdfrwt>
<pdfrwt beam="2">  1       -1 0.22882453E+00 0.84740848E+03</pdfrwt>
<totfact> 0.21792490E-01</totfact>
</mgrwt>
</event>
<event>
 4    1  0.1521315E-007  0.7704266E+03  0.7818608E-02  0.9778825E-01
         -1   -1    0    0    0  501 -0.00000000000E+00  0.00000000000E+00  0.45995971636E+03  0.45995971638E+03  0.50400000000E-02 0.  1.
          1   -1    0    0  501    0  0.00000000000E+00 -0.00000000000E+00 -0.15815325065E+04  0.15815325065E+04  0.50400000000E-02 0. -1.
    8880023    1    1    2    0    0  0.32195826050E+03 -0.23683277740E+03 -0.13515138891E+04  0.15556821284E+04  0.65864270000E+03 0.  0.
    8880022    1    1    2    0    0 -0.32195826050E+03  0.23683277740E+03  0.22994109891E+03  0.48581009452E+03  0.15294330000E+03 0.  0.
<mgrwt>
<rscale>  0 0.66511372E+03</rscale>
<asrwt>0</asrwt>
<pdfrwt beam="1">  1        1 0.24331269E+00 0.77042657E+03</pdfrwt>
<pdfrwt beam="2">  1       -1 0.70763034E-01 0.77042657E+03</pdfrwt>
<totfact> 0.12005241E+01</totfact>
</mgrwt>
</event>
<event>
 4    1  0.1521315E-007  0.7054971E+03  0.7818608E-02  0.9975118E-01
          1   -1    0    0  501    0  0.00000000000E+00  0.00000000000E+00  0.12358907437E+04  0.12358907437E+04  0.50400000000E-02 0. -1.
         -1   -1    0    0    0  501 -0.00000000000E+00 -0.00000000000E+00 -0.27929019212E+03  0.27929019217E+03  0.50400000000E-02 0.  1.
    8880023    1    1    2    0    0 -0.15577910700E+03  0.19912023797E+03  0.99232239066E+03  0.12175507926E+04  0.65864270000E+03 0. -1.
    8880022    1    1    2    0    0  0.15577910700E+03 -0.19912023797E+03 -0.35721839124E+02  0.29763014322E+03  0.15294330000E+03 0.  1.
<mgrwt>
<rscale>  0 0.56754850E+03</rscale>
<asrwt>0</asrwt>
<pdfrwt beam="1">  1        1 0.19013703E+00 0.70549713E+03</pdfrwt>
<pdfrwt beam="2">  1       -1 0.42967723E-01 0.70549713E+03</pdfrwt>
<totfact> 0.55304008E+01</totfact>
</mgrwt>
</event>
<event>
 4    1  0.1521315E-007  0.7156760E+03  0.7818608E-02  0.9937498E-01
         -1   -1    0    0    0  501 -0.00000000000E+00  0.00000000000E+00  0.23939830060E+03  0.23939830065E+03  0.50400000000E-02 0.  1.
          1   -1    0    0  501    0  0.00000000000E+00 -0.00000000000E+00 -0.12508732928E+04  0.12508732928E+04  0.50400000000E-02 0. -1.
    8880023    1    1    2    0    0  0.83856967845E+02  0.26711407581E+03 -0.45268216956E+03  0.84682540908E+03  0.65864270000E+03 0. -1.
    8880022    1    1    2    0    0 -0.83856967845E+02 -0.26711407581E+03 -0.55879282265E+03  0.64344618439E+03  0.15294330000E+03 0.  0.
<mgrwt>
<rscale>  0 0.58477893E+03</rscale>
<asrwt>0</asrwt>
<pdfrwt beam="1">  1        1 0.19244204E+00 0.71567599E+03</pdfrwt>
<pdfrwt beam="2">  1       -1 0.36830508E-01 0.71567599E+03</pdfrwt>
<totfact> 0.71307015E+01</totfact>
</mgrwt>
</event>
<event>
 4    1  0.1521315E-007  0.1382421E+04  0.7818608E-02  0.8997464E-01
         -1   -1    0    0    0  501 -0.00000000000E+00  0.00000000000E+00  0.15479961779E+04  0.15479961779E+04  0.50400000000E-02 0.  1.
          1   -1    0    0  501    0  0.00000000000E+00 -0.00000000000E+00 -0.18641754759E+04  0.18641754759E+04  0.50400000000E-02 0. -1.
    8880023    1    1    2    0    0  0.71701747599E+03 -0.98140838732E+03  0.92888132333E+03  0.16655050894E+04  0.65864270000E+03 0.  0.
    8880022    1    1    2    0    0 -0.71701747599E+03  0.98140838732E+03 -0.12450606214E+04  0.17466665645E+04  0.15294330000E+03 0.  0.
<mgrwt>
<rscale>  0 0.13412685E+04</rscale>
<asrwt>0</asrwt>
<pdfrwt beam="1">  1        1 0.28679623E+00 0.13824206E+04</pdfrwt>
<pdfrwt beam="2">  1       -1 0.23815326E+00 0.13824206E+04</pdfrwt>
<totfact> 0.29420428E-01</totfact>
</mgrwt>
</event>
<event>
 4    1  0.1521315E-007  0.1310668E+04  0.7818608E-02  0.9056402E-01
          1   -1    0    0  501    0  0.00000000000E+00  0.00000000000E+00  0.12401389619E+04  0.12401389619E+04  0.50400000000E-02 0. -1.
         -1   -1    0    0    0  501 -0.00000000000E+00 -0.00000000000E+00 -0.14959732407E+04  0.14959732407E+04  0.50400000000E-02 0.  1.
    8880023    1    1    2    0    0 -0.88393175062E+03 -0.70901734252E+03 -0.72771342704E+03  0.14991390762E+04  0.65864270000E+03 0.  0.
    8880022    1    1    2    0    0  0.88393175062E+03  0.70901734252E+03  0.47187914821E+03  0.12369731263E+04  0.15294330000E+03 0.  0.
<mgrwt>
<rscale>  0 0.12666948E+04</rscale>
<asrwt>0</asrwt>
<pdfrwt beam="1">  1        1 0.19079061E+00 0.13106682E+04</pdfrwt>
<pdfrwt beam="2">  1       -1 0.23014973E+00 0.13106682E+04</pdfrwt>
<totfact> 0.91049981E-01</totfact>
</mgrwt>
</event>
<event>
 4    1  0.1570297E-007  0.7001593E+03  0.7818608E-02  0.9996541E-01
         -1   -1    0    0    0  501 -0.00000000000E+00  0.00000000000E+00  0.13260556322E+04  0.13260556322E+04  0.50400000000E-02 0.  1.
          1   -1    0    0  501    0  0.00000000000E+00 -0.00000000000E+00 -0.97005054001E+03  0.97005054003E+03  0.50400000000E-02 0. -1.
    8880023    1    1    2    0    0 -0.17168926890E+03  0.16412091920E+03 -0.82484263631E+03  0.10819373652E+04  0.65864270000E+03 0. -1.
    8880022    1    1    2    0    0  0.17168926890E+03 -0.16412091920E+03  0.11808477285E+04  0.12141688070E+04  0.15294330000E+03 0.  0.
<mgrwt>
<rscale>  0 0.55802172E+03</rscale>
<asrwt>0</asrwt>
<pdfrwt beam="1">  1        1 0.14923854E+00 0.70015933E+03</pdfrwt>
<pdfrwt beam="2">  1       -1 0.20400856E+00 0.70015933E+03</pdfrwt>
<totfact> 0.23741076E+00</totfact>
</mgrwt>
</event>
<event>
 4    1  0.1521315E-007  0.1332140E+04  0.7818608E-02  0.9038291E-01
         -1   -1    0    0    0  501 -0.00000000000E+00  0.00000000000E+00  0.64504795533E+03  0.64504795535E+03  0.50400000000E-02 0.  1.
          1   -1    0    0  501    0  0.00000000000E+00 -0.00000000000E+00 -0.30559738305E+04  0.30559738305E+04  0.50400000000E-02 0. -1.
    8880023    1    1    2    0    0 -0.99108448240E+03  0.59878008698E+03 -0.42714890400E+03  0.13989469026E+04  0.65864270000E+03 0.  0.
    8880022    1    1    2    0    0  0.99108448240E+03 -0.59878008698E+03 -0.19837769712E+04  0.23020748833E+04  0.15294330000E+03 0.  0.
<mgrwt>
<rscale>  0 0.12890543E+04</rscale>
<asrwt>0</asrwt>
<pdfrwt beam="1">  1        1 0.47014981E+00 0.13321397E+04</pdfrwt>
<pdfrwt beam="2">  1       -1 0.99238149E-01 0.13321397E+04</pdfrwt>
<totfact> 0.51654490E-01</totfact>
</mgrwt>
</event>
<event>
 4    1  0.1521315E-007  0.7606815E+03  0.7818608E-02  0.9803346E-01
          1   -1    0    0  501    0  0.00000000000E+00  0.00000000000E+00  0.65152939631E+03  0.65152939633E+03  0.50400000000E-02 0. -1.
         -1   -1    0    0    0  501 -0.00000000000E+00 -0.00000000000E+00 -0.71994307528E+03  0.71994307530E+03  0.50400000000E-02 0.  1.
    8880023    1    1    2    0    0 -0.37945178413E+03 -0.29026169330E+02  0.30236821476E+03  0.81857370990E+03  0.65864270000E+03 0. -1.
    8880022    1    1    2    0    0  0.37945178413E+03  0.29026169330E+02 -0.37078189374E+03  0.55289876173E+03  0.15294330000E+03 0.  0.
<mgrwt>
<rscale>  0 0.65183272E+03</rscale>
<asrwt>0</asrwt>
<pdfrwt beam="1">  1        1 0.10023529E+00 0.76068152E+03</pdfrwt>
<pdfrwt beam="2">  1       -1 0.11076047E+00 0.76068152E+03</pdfrwt>
<totfact> 0.23350684E+01</totfact>
</mgrwt>
</event>
<event>
 4    1  0.1521315E-007  0.1087318E+04  0.7818608E-02  0.9275308E-01
          1   -1    0    0  501    0  0.00000000000E+00  0.00000000000E+00  0.15017910172E+04  0.15017910172E+04  0.50400000000E-02 0. -1.
         -1   -1    0    0    0  501 -0.00000000000E+00 -0.00000000000E+00 -0.74630741993E+03  0.74630741995E+03  0.50400000000E-02 0.  1.
    8880023    1    1    2    0    0 -0.26945608398E+03  0.82209766653E+03  0.82781608556E+03  0.13665799765E+04  0.65864270000E+03 0. -1.
    8880022    1    1    2    0    0  0.26945608398E+03 -0.82209766653E+03 -0.72332488297E+02  0.88151846061E+03  0.15294330000E+03 0.  0.
<mgrwt>
<rscale>  0 0.10308813E+04</rscale>
<asrwt>0</asrwt>
<pdfrwt beam="1">  1        1 0.23104477E+00 0.10873184E+04</pdfrwt>
<pdfrwt beam="2">  1       -1 0.11481653E+00 0.10873184E+04</pdfrwt>
<totfact> 0.44728111E+00</totfact>
</mgrwt>
</event>
<event>
 4    1  0.1521315E-007  0.6901242E+03  0.7818608E-02  0.1004094E+00
         -1   -1    0    0    0  501 -0.00000000000E+00  0.00000000000E+00  0.85736469200E+03  0.85736469202E+03  0.50400000000E-02 0.  1.
          1   -1    0    0  501    0  0.00000000000E+00 -0.00000000000E+00 -0.83386035516E+03  0.83386035518E+03  0.50400000000E-02 0. -1.
    8880023    1    1    2    0    0  0.17041962206E+03  0.11583736223E+03 -0.66381638596E+03  0.95756124744E+03  0.65864270000E+03 0. -1.
    8880022    1    1    2    0    0 -0.17041962206E+03 -0.11583736223E+03  0.68732072280E+03  0.73366379975E+03  0.15294330000E+03 0.  0.
<mgrwt>
<rscale>  0 0.53891119E+03</rscale>
<asrwt>0</asrwt>
<pdfrwt beam="1">  1        1 0.12828621E+00 0.69012415E+03</pdfrwt>
<pdfrwt beam="2">  1       -1 0.13190226E+00 0.69012415E+03</pdfrwt>
<totfact> 0.10504711E+01</totfact>
</mgrwt>
</event>
<event>
 4    1  0.1521315E-007  0.7470015E+03  0.7818608E-02  0.9840002E-01
          1   -1    0    0  501    0  0.00000000000E+00  0.00000000000E+00  0.33244976654E+04  0.33244976654E+04  0.50400000000E-02 0. -1.
         -1   -1    0    0    0  501 -0.00000000000E+00 -0.00000000000E+00 -0.24774399174E+03  0.24774399179E+03  0.50400000000E-02 0.  1.
    8880023    1    1    2    0    0  0.12127078418E+02 -0.35221297551E+03  0.30986701308E+04  0.31874390711E+04  0.65864270000E+03 0. -1.
    8880022    1    1    2    0    0 -0.12127078418E+02  0.35221297551E+03 -0.21916457154E+02  0.38480258609E+03  0.15294330000E+03 0.  0.
<mgrwt>
<rscale>  0 0.63259276E+03</rscale>
<asrwt>0</asrwt>
<pdfrwt beam="1">  1        1 0.51146114E+00 0.74700151E+03</pdfrwt>
<pdfrwt beam="2">  1       -1 0.38114463E-01 0.74700151E+03</pdfrwt>
<totfact> 0.24595278E+00</totfact>
</mgrwt>
</event>
<event>
 4    1  0.1521315E-007  0.7671937E+03  0.7818608E-02  0.9786827E-01
         -1   -1    0    0    0  501 -0.00000000000E+00  0.00000000000E+00  0.62821102106E+03  0.62821102108E+03  0.50400000000E-02 0.  1.
          1   -1    0    0  501    0  0.00000000000E+00 -0.00000000000E+00 -0.64098560622E+03  0.64098560624E+03  0.50400000000E-02 0. -1.
    8880023    1    1    2    0    0 -0.22671923794E+03  0.32151884158E+03 -0.22119645602E+03  0.79844477377E+03  0.65864270000E+03 0.  0.
    8880022    1    1    2    0    0  0.22671923794E+03 -0.32151884158E+03  0.20842187086E+03  0.47075185355E+03  0.15294330000E+03 0.  0.
<mgrwt>
<rscale>  0 0.66074270E+03</rscale>
<asrwt>0</asrwt>
<pdfrwt beam="1">  1        1 0.98613170E-01 0.76719371E+03</pdfrwt>
<pdfrwt beam="2">  1       -1 0.96647850E-01 0.76719371E+03</pdfrwt>
<totfact> 0.32744371E+01</totfact>
</mgrwt>
</event>
<event>
 4    1  0.1521315E-007  0.6619905E+03  0.7818608E-02  0.1022204E+00
          1   -1    0    0  501    0  0.00000000000E+00  0.00000000000E+00  0.11024043799E+04  0.11024043799E+04  0.50400000000E-02 0. -1.
         -1   -1    0    0    0  501 -0.00000000000E+00 -0.00000000000E+00 -0.60996283693E+03  0.60996283695E+03  0.50400000000E-02 0.  1.
    8880023    1    1    2    0    0 -0.45412571023E+02  0.48568033168E+02  0.98812596181E+03  0.11893797872E+04  0.65864270000E+03 0. -1.
    8880022    1    1    2    0    0  0.45412571023E+02 -0.48568033168E+02 -0.49568441888E+03  0.52298742966E+03  0.15294330000E+03 0.  0.
<mgrwt>
<rscale>  0 0.46899628E+03</rscale>
<asrwt>0</asrwt>
<pdfrwt beam="1">  1        1 0.16960067E+00 0.66199045E+03</pdfrwt>
<pdfrwt beam="2">  1       -1 0.93840438E-01 0.66199045E+03</pdfrwt>
<totfact> 0.14517384E+01</totfact>
</mgrwt>
</event>
<event>
 4    1  0.1521315E-007  0.7974641E+03  0.7818608E-02  0.9716306E-01
          1   -1    0    0  501    0  0.00000000000E+00  0.00000000000E+00  0.67501680365E+03  0.67501680367E+03  0.50400000000E-02 0. -1.
         -1   -1    0    0    0  501 -0.00000000000E+00 -0.00000000000E+00 -0.16831300426E+04  0.16831300426E+04  0.50400000000E-02 0.  1.
    8880023    1    1    2    0    0  0.26904923662E+03  0.36021014356E+03  0.38556236416E+03  0.88578066256E+03  0.65864270000E+03 0. -1.
    8880022    1    1    2    0    0 -0.26904923662E+03 -0.36021014356E+03 -0.13936756031E+04  0.14723661837E+04  0.15294330000E+03 0.  0.
<mgrwt>
<rscale>  0 0.70054176E+03</rscale>
<asrwt>0</asrwt>
<pdfrwt beam="1">  1        1 0.10384874E+00 0.79746413E+03</pdfrwt>
<pdfrwt beam="2">  1       -1 0.25894308E+00 0.79746413E+03</pdfrwt>
<totfact> 0.18234398E+00</totfact>
</mgrwt>
</event>
<event>
 4    1  0.1521315E-007  0.8064051E+03  0.7818608E-02  0.9697114E-01
         -1   -1    0    0    0  501 -0.00000000000E+00  0.00000000000E+00  0.94824152891E+03  0.94824152893E+03  0.50400000000E-02 0.  1.
          1   -1    0    0  501    0  0.00000000000E+00 -0.00000000000E+00 -0.11569835831E+04  0.11569835831E+04  0.50400000000E-02 0. -1.
    8880023    1    1    2    0    0 -0.18035905765E+03 -0.42889353864E+03 -0.93155810176E+03  0.12321078526E+04  0.65864270000E+03 0.  0.
    8880022    1    1    2    0    0  0.18035905765E+03  0.42889353864E+03  0.72281604756E+03  0.87311725947E+03  0.15294330000E+03 0.  0.
<mgrwt>
<rscale>  0 0.71188874E+03</rscale>
<asrwt>0</asrwt>
<pdfrwt beam="1">  1        1 0.17799747E+00 0.80640515E+03</pdfrwt>
<pdfrwt beam="2">  1       -1 0.14588331E+00 0.80640515E+03</pdfrwt>
<totfact> 0.44485387E+00</totfact>
</mgrwt>
</event>
<event>
 4    1  0.1521315E-007  0.6794293E+03  0.7818608E-02  0.1009648E+00
         -1   -1    0    0    0  501 -0.00000000000E+00  0.00000000000E+00  0.26264092778E+03  0.26264092783E+03  0.50400000000E-02 0.  1.
          1   -1    0    0  501    0  0.00000000000E+00 -0.00000000000E+00 -0.13013862401E+04  0.13013862401E+04  0.50400000000E-02 0. -1.
    8880023    1    1    2    0    0  0.73967935921E+02 -0.14947459982E+03 -0.11312181345E+04  0.13195751535E+04  0.65864270000E+03 0. -1.
    8880022    1    1    2    0    0 -0.73967935921E+02  0.14947459982E+03  0.92472822175E+02  0.24445201450E+03  0.15294330000E+03 0.  1.
<mgrwt>
<rscale>  0 0.51614631E+03</rscale>
<asrwt>0</asrwt>
<pdfrwt beam="1">  1        1 0.20021326E+00 0.67942926E+03</pdfrwt>
<pdfrwt beam="2">  1       -1 0.40406297E-01 0.67942926E+03</pdfrwt>
<totfact> 0.55759446E+01</totfact>
</mgrwt>
</event>
<event>
 4    1  0.1521315E-007  0.8974485E+03  0.7818608E-02  0.9530140E-01
          1   -1    0    0  501    0  0.00000000000E+00  0.00000000000E+00  0.14861763487E+04  0.14861763487E+04  0.50400000000E-02 0. -1.
         -1   -1    0    0    0  501 -0.00000000000E+00 -0.00000000000E+00 -0.53327103147E+03  0.53327103150E+03  0.50400000000E-02 0.  1.
    8880023    1    1    2    0    0  0.58493098448E+03  0.17163724892E+03  0.10524396787E+04  0.13831280076E+04  0.65864270000E+03 0.  0.
    8880022    1    1    2    0    0 -0.58493098448E+03 -0.17163724892E+03 -0.99534361478E+02  0.63631937260E+03  0.15294330000E+03 0.  0.
<mgrwt>
<rscale>  0 0.82097728E+03</rscale>
<asrwt>0</asrwt>
<pdfrwt beam="1">  1        1 0.22864251E+00 0.89744850E+03</pdfrwt>
<pdfrwt beam="2">  1       -1 0.82041700E-01 0.89744850E+03</pdfrwt>
<totfact> 0.10059546E+01</totfact>
</mgrwt>
</event>
<event>
 4    1  0.1521315E-007  0.1993898E+04  0.7818608E-02  0.8622242E-01
          1   -1    0    0  501    0  0.00000000000E+00  0.00000000000E+00  0.23220524252E+04  0.23220524252E+04  0.50400000000E-02 0. -1.
         -1   -1    0    0    0  501 -0.00000000000E+00 -0.00000000000E+00 -0.17700140588E+04  0.17700140588E+04  0.50400000000E-02 0.  1.
    8880023    1    1    2    0    0 -0.78307722429E+03  0.17113183293E+04  0.87329010491E+03  0.21767558837E+04  0.65864270000E+03 0.  0.
    8880022    1    1    2    0    0  0.78307722429E+03 -0.17113183293E+04 -0.32125173846E+03  0.19153106004E+04  0.15294330000E+03 0.  0.
<mgrwt>
<rscale>  0 0.19669256E+04</rscale>
<asrwt>0</asrwt>
<pdfrwt beam="1">  1        1 0.35723884E+00 0.19938983E+04</pdfrwt>
<pdfrwt beam="2">  1       -1 0.27230985E+00 0.19938983E+04</pdfrwt>
<totfact> 0.79999804E-02</totfact>
</mgrwt>
</event>
<event>
 4    1  0.1521315E-007  0.8297913E+03  0.7818608E-02  0.9649739E-01
         -1   -1    0    0    0  501 -0.00000000000E+00  0.00000000000E+00  0.56691034335E+04  0.56691034335E+04  0.50400000000E-02 0.  1.
          1   -1    0    0  501    0  0.00000000000E+00 -0.00000000000E+00 -0.17575695885E+03  0.17575695892E+03  0.50400000000E-02 0. -1.
    8880023    1    1    2    0    0  0.53907257782E+02 -0.50183396817E+03  0.91099512883E+03  0.12322603844E+04  0.65864270000E+03 0. -1.
    8880022    1    1    2    0    0 -0.53907257782E+02  0.50183396817E+03  0.45823513458E+04  0.46126000080E+04  0.15294330000E+03 0.  0.
<mgrwt>
<rscale>  0 0.74089829E+03</rscale>
<asrwt>0</asrwt>
<pdfrwt beam="1">  1        1 0.27039537E-01 0.82979126E+03</pdfrwt>
<pdfrwt beam="2">  1       -1 0.87216961E+00 0.82979126E+03</pdfrwt>
<totfact> 0.37523565E-03</totfact>
</mgrwt>
</event>
<event>
 4    1  0.1676350E-007  0.6649210E+03  0.7818608E-02  0.1019600E+00
          1   -1    0    0  501    0  0.00000000000E+00  0.00000000000E+00  0.18908505481E+04  0.18908505481E+04  0.50400000000E-02 0. -1.
         -1   -1    0    0    0  501 -0.00000000000E+00 -0.00000000000E+00 -0.95436863688E+03  0.95436863689E+03  0.50400000000E-02 0.  1.
    8880023    1    1    2    0    0 -0.79035382130E+02  0.45422333581E+02  0.18232716941E+04  0.19407317323E+04  0.65864270000E+03 0. -1.
    8880022    1    1    2    0    0  0.79035382130E+02 -0.45422333581E+02 -0.88678978289E+03  0.90448745268E+03  0.15294330000E+03 0.  0.
<mgrwt>
<rscale>  0 0.47831326E+03</rscale>
<asrwt>0</asrwt>
<pdfrwt beam="1">  1        1 0.29090008E+00 0.66492104E+03</pdfrwt>
<pdfrwt beam="2">  1       -1 0.14682595E+00 0.66492104E+03</pdfrwt>
<totfact> 0.14037470E+00</totfact>
</mgrwt>
</event>
<event>
 4    1  0.1521315E-007  0.6749153E+03  0.7818608E-02  0.1012360E+00
          1   -1    0    0  501    0  0.00000000000E+00  0.00000000000E+00  0.14488235597E+04  0.14488235597E+04  0.50400000000E-02 0. -1.
         -1   -1    0    0    0  501 -0.00000000000E+00 -0.00000000000E+00 -0.17730519825E+03  0.17730519832E+03  0.50400000000E-02 0.  1.
    8880023    1    1    2    0    0  0.14714454927E+03  0.69933120172E+01  0.12395588514E+04  0.14113882446E+04  0.65864270000E+03 0. -1.
    8880022    1    1    2    0    0 -0.14714454927E+03 -0.69933120172E+01  0.31959510070E+02  0.21474051339E+03  0.15294330000E+03 0.  1.
<mgrwt>
<rscale>  0 0.50547476E+03</rscale>
<asrwt>0</asrwt>
<pdfrwt beam="1">  1        1 0.22289594E+00 0.67491528E+03</pdfrwt>
<pdfrwt beam="2">  1       -1 0.27277722E-01 0.67491528E+03</pdfrwt>
<totfact> 0.88171469E+01</totfact>
</mgrwt>
</event>
<event>
 4    1  0.1521315E-007  0.7871236E+03  0.7818608E-02  0.9739362E-01
         -1   -1    0    0    0  501 -0.00000000000E+00  0.00000000000E+00  0.70749802646E+03  0.70749802648E+03  0.50400000000E-02 0.  1.
          1   -1    0    0  501    0  0.00000000000E+00 -0.00000000000E+00 -0.23304310226E+04  0.23304310226E+04  0.50400000000E-02 0. -1.
    8880023    1    1    2    0    0  0.34602294480E+03  0.25694631499E+03 -0.21796718147E+04  0.23174409838E+04  0.65864270000E+03 0.  0.
    8880022    1    1    2    0    0 -0.34602294480E+03 -0.25694631499E+03  0.55673881859E+03  0.72048806531E+03  0.15294330000E+03 0.  0.
<mgrwt>
<rscale>  0 0.68720784E+03</rscale>
<asrwt>0</asrwt>
<pdfrwt beam="1">  1        1 0.35852784E+00 0.78712356E+03</pdfrwt>
<pdfrwt beam="2">  1       -1 0.10884585E+00 0.78712356E+03</pdfrwt>
<totfact> 0.14632288E+00</totfact>
</mgrwt>
</event>
<event>
 4    1  0.1521315E-007  0.1011912E+04  0.7818608E-02  0.9366136E-01
          1   -1    0    0  501    0  0.00000000000E+00  0.00000000000E+00  0.52587924260E+03  0.52587924263E+03  0.50400000000E-02 0. -1.
         -1   -1    0    0    0  501 -0.00000000000E+00 -0.00000000000E+00 -0.31706032004E+04  0.31706032004E+04  0.50400000000E-02 0.  1.
    8880023    1    1    2    0    0  0.72582586874E+03 -0.25166029188E+03 -0.27271797010E+04  0.29088615337E+04  0.65864270000E+03 0.  0.
    8880022    1    1    2    0    0 -0.72582586874E+03  0.25166029188E+03  0.82455743220E+02  0.78762090935E+03  0.15294330000E+03 0.  0.
<mgrwt>
<rscale>  0 0.94915725E+03</rscale>
<asrwt>0</asrwt>
<pdfrwt beam="1">  1        1 0.80904501E-01 0.10119122E+04</pdfrwt>
<pdfrwt beam="2">  1       -1 0.48778510E+00 0.10119122E+04</pdfrwt>
<totfact> 0.75514828E-02</totfact>
</mgrwt>
</event>
<event>
 4    1  0.1521315E-007  0.7283733E+03  0.7818608E-02  0.9895209E-01
          1   -1    0    0  501    0  0.00000000000E+00  0.00000000000E+00  0.74600351840E+03  0.74600351842E+03  0.50400000000E-02 0. -1.
         -1   -1    0    0    0  501 -0.00000000000E+00 -0.00000000000E+00 -0.60508066759E+03  0.60508066761E+03  0.50400000000E-02 0.  1.
    8880023    1    1    2    0    0  0.30075151233E+03  0.79157910624E+02  0.47511629905E+03  0.86963391773E+03  0.65864270000E+03 0. -1.
    8880022    1    1    2    0    0 -0.30075151233E+03 -0.79157910624E+02 -0.33419344823E+03  0.48145026829E+03  0.15294330000E+03 0.  0.
<mgrwt>
<rscale>  0 0.60494027E+03</rscale>
<asrwt>0</asrwt>
<pdfrwt beam="1">  1        1 0.11476977E+00 0.72837329E+03</pdfrwt>
<pdfrwt beam="2">  1       -1 0.93089334E-01 0.72837329E+03</pdfrwt>
<totfact> 0.28447638E+01</totfact>
</mgrwt>
</event>
<event>
 4    1  0.1521315E-007  0.6907588E+03  0.7818608E-02  0.1003794E+00
         -1   -1    0    0    0  501 -0.00000000000E+00  0.00000000000E+00  0.38281969240E+03  0.38281969243E+03  0.50400000000E-02 0.  1.
          1   -1    0    0  501    0  0.00000000000E+00 -0.00000000000E+00 -0.24916512141E+04  0.24916512141E+04  0.50400000000E-02 0. -1.
    8880023    1    1    2    0    0 -0.42618897397E+02 -0.20376727425E+03 -0.23928450620E+04  0.24905531855E+04  0.65864270000E+03 0. -1.
    8880022    1    1    2    0    0  0.42618897397E+02  0.20376727425E+03  0.28401354031E+03  0.38391772109E+03  0.15294330000E+03 0.  0.
<mgrwt>
<rscale>  0 0.54017469E+03</rscale>
<asrwt>0</asrwt>
<pdfrwt beam="1">  1        1 0.38333095E+00 0.69075877E+03</pdfrwt>
<pdfrwt beam="2">  1       -1 0.58895339E-01 0.69075877E+03</pdfrwt>
<totfact> 0.42997891E+00</totfact>
</mgrwt>
</event>
<event>
 4    1  0.1521315E-007  0.6649340E+03  0.7818608E-02  0.1019589E+00
          1   -1    0    0  501    0  0.00000000000E+00  0.00000000000E+00  0.19465539706E+03  0.19465539713E+03  0.50400000000E-02 0. -1.
         -1   -1    0    0    0  501 -0.00000000000E+00 -0.00000000000E+00 -0.94134507063E+03  0.94134507064E+03  0.50400000000E-02 0.  1.
    8880023    1    1    2    0    0 -0.15033527749E+02 -0.90005920762E+02 -0.50099610921E+03  0.83254692387E+03  0.65864270000E+03 0.  1.
    8880022    1    1    2    0    0  0.15033527749E+02  0.90005920762E+02 -0.24569356435E+03  0.30345354390E+03  0.15294330000E+03 0.  0.
<mgrwt>
<rscale>  0 0.47835288E+03</rscale>
<asrwt>0</asrwt>
<pdfrwt beam="1">  1        1 0.29946985E-01 0.66493404E+03</pdfrwt>
<pdfrwt beam="2">  1       -1 0.14482232E+00 0.66493404E+03</pdfrwt>
<totfact> 0.60549165E+01</totfact>
</mgrwt>
</event>
<event>
 4    1  0.1521315E-007  0.6785720E+03  0.7818608E-02  0.1010143E+00
         -1   -1    0    0    0  501 -0.00000000000E+00  0.00000000000E+00  0.46560669338E+03  0.46560669341E+03  0.50400000000E-02 0.  1.
          1   -1    0    0  501    0  0.00000000000E+00 -0.00000000000E+00 -0.33449760653E+04  0.33449760653E+04  0.50400000000E-02 0. -1.
    8880023    1    1    2    0    0 -0.15182882805E+03 -0.59980955632E+02 -0.32812268020E+04  0.33506580310E+04  0.65864270000E+03 0. -1.
    8880022    1    1    2    0    0  0.15182882805E+03  0.59980955632E+02  0.40185743008E+03  0.45992472775E+03  0.15294330000E+03 0.  0.
<mgrwt>
<rscale>  0 0.51417751E+03</rscale>
<asrwt>0</asrwt>
<pdfrwt beam="1">  1        1 0.51461169E+00 0.67857197E+03</pdfrwt>
<pdfrwt beam="2">  1       -1 0.71631801E-01 0.67857197E+03</pdfrwt>
<totfact> 0.71985222E-01</totfact>
</mgrwt>
</event>
<event>
 4    1  0.1521315E-007  0.6942986E+03  0.7818608E-02  0.1002173E+00
         -1   -1    0    0    0  501 -0.00000000000E+00  0.00000000000E+00  0.90757267357E+03  0.90757267358E+03  0.50400000000E-02 0.  1.
          1   -1    0    0  501    0  0.00000000000E+00 -0.00000000000E+00 -0.29479847912E+03  0.29479847916E+03  0.50400000000E-02 0. -1.
    8880023    1    1    2    0    0  0.16312090682E+03 -0.14707777880E+03  0.22237966291E+03  0.72904267639E+03  0.65864270000E+03 0. -1.
    8880022    1    1    2    0    0 -0.16312090682E+03  0.14707777880E+03  0.39039453154E+03  0.47332847635E+03  0.15294330000E+03 0.  0.
<mgrwt>
<rscale>  0 0.54707650E+03</rscale>
<asrwt>0</asrwt>
<pdfrwt beam="1">  1        1 0.45353613E-01 0.69429857E+03</pdfrwt>
<pdfrwt beam="2">  1       -1 0.13962656E+00 0.69429857E+03</pdfrwt>
<totfact> 0.38862238E+01</totfact>
</mgrwt>
</event>
<event>
 4    1  0.1521315E-007  0.8541712E+03  0.7818608E-02  0.9604017E-01
          1   -1    0    0  501    0  0.00000000000E+00  0.00000000000E+00  0.11356918560E+04  0.11356918561E+04  0.50400000000E-02 0. -1.
         -1   -1    0    0    0  501 -0.00000000000E+00 -0.00000000000E+00 -0.74576569967E+03  0.74576569969E+03  0.50400000000E-02 0.  1.
    8880023    1    1    2    0    0 -0.25624342814E+03  0.47972657925E+03  0.81021075912E+03  0.11773062328E+04  0.65864270000E+03 0.  0.
    8880022    1    1    2    0    0  0.25624342814E+03 -0.47972657925E+03 -0.42028460275E+03  0.70415132296E+03  0.15294330000E+03 0.  0.
<mgrwt>
<rscale>  0 0.77030879E+03</rscale>
<asrwt>0</asrwt>
<pdfrwt beam="1">  1        1 0.17472182E+00 0.85417123E+03</pdfrwt>
<pdfrwt beam="2">  1       -1 0.11473319E+00 0.85417123E+03</pdfrwt>
<totfact> 0.83946717E+00</totfact>
</mgrwt>
</event>
<event>
 4    1  0.1521315E-007  0.9075602E+03  0.7818608E-02  0.9514002E-01
          1   -1    0    0  501    0  0.00000000000E+00  0.00000000000E+00  0.20781760221E+04  0.20781760221E+04  0.50400000000E-02 0. -1.
         -1   -1    0    0    0  501 -0.00000000000E+00 -0.00000000000E+00 -0.41569837799E+03  0.41569837802E+03  0.50400000000E-02 0.  1.
    8880023    1    1    2    0    0 -0.29112712891E+03  0.55235882722E+03  0.16109034162E+04  0.18489660088E+04  0.65864270000E+03 0.  0.
    8880022    1    1    2    0    0  0.29112712891E+03 -0.55235882722E+03  0.51574227931E+02  0.64490839132E+03  0.15294330000E+03 0.  0.
<mgrwt>
<rscale>  0 0.83259305E+03</rscale>
<asrwt>0</asrwt>
<pdfrwt beam="1">  1        1 0.31971939E+00 0.90756018E+03</pdfrwt>
<pdfrwt beam="2">  1       -1 0.63953596E-01 0.90756018E+03</pdfrwt>
<totfact> 0.66998675E+00</totfact>
</mgrwt>
</event>
<event>
 4    1  0.1521315E-007  0.1215051E+04  0.7818608E-02  0.9142628E-01
          1   -1    0    0  501    0  0.00000000000E+00  0.00000000000E+00  0.89955759520E+03  0.89955759521E+03  0.50400000000E-02 0. -1.
         -1   -1    0    0    0  501 -0.00000000000E+00 -0.00000000000E+00 -0.16035125463E+04  0.16035125463E+04  0.50400000000E-02 0.  1.
    8880023    1    1    2    0    0  0.44342003104E+03  0.91973820353E+03  0.63383228017E+02  0.12167034671E+04  0.65864270000E+03 0.  0.
    8880022    1    1    2    0    0 -0.44342003104E+03 -0.91973820353E+03 -0.76733817915E+03  0.12863666745E+04  0.15294330000E+03 0.  0.
<mgrwt>
<rscale>  0 0.11665736E+04</rscale>
<asrwt>0</asrwt>
<pdfrwt beam="1">  1        1 0.13839348E+00 0.12150514E+04</pdfrwt>
<pdfrwt beam="2">  1       -1 0.24669424E+00 0.12150514E+04</pdfrwt>
<totfact> 0.13093899E+00</totfact>
</mgrwt>
</event>
<event>
 4    1  0.1521315E-007  0.1151705E+04  0.7818608E-02  0.9205561E-01
          1   -1    0    0  501    0  0.00000000000E+00  0.00000000000E+00  0.14850364360E+04  0.14850364360E+04  0.50400000000E-02 0. -1.
         -1   -1    0    0    0  501 -0.00000000000E+00 -0.00000000000E+00 -0.91539014364E+03  0.91539014365E+03  0.50400000000E-02 0.  1.
    8880023    1    1    2    0    0  0.89807923648E+03 -0.29337287246E+03 -0.20416181151E+03  0.11696607238E+04  0.65864270000E+03 0.  0.
    8880022    1    1    2    0    0 -0.89807923648E+03  0.29337287246E+03  0.77380810387E+03  0.12307658558E+04  0.15294330000E+03 0.  0.
<mgrwt>
<rscale>  0 0.10996214E+04</rscale>
<asrwt>0</asrwt>
<pdfrwt beam="1">  1        1 0.22846714E+00 0.11517049E+04</pdfrwt>
<pdfrwt beam="2">  1       -1 0.14082925E+00 0.11517049E+04</pdfrwt>
<totfact> 0.27287465E+00</totfact>
</mgrwt>
</event>
<event>
 4    1  0.1521315E-007  0.7244590E+03  0.7818608E-02  0.9907777E-01
         -1   -1    0    0    0  501 -0.00000000000E+00  0.00000000000E+00  0.82174025431E+03  0.82174025432E+03  0.50400000000E-02 0.  1.
          1   -1    0    0  501    0  0.00000000000E+00 -0.00000000000E+00 -0.22219651945E+04  0.22219651945E+04  0.50400000000E-02 0. -1.
    8880023    1    1    2    0    0  0.27142998595E+03 -0.13174385557E+03 -0.21243422774E+04  0.22444756623E+04  0.65864270000E+03 0. -1.
    8880022    1    1    2    0    0 -0.27142998595E+03  0.13174385557E+03  0.72411733717E+03  0.79922978658E+03  0.15294330000E+03 0.  0.
<mgrwt>
<rscale>  0 0.59885851E+03</rscale>
<asrwt>0</asrwt>
<pdfrwt beam="1">  1        1 0.34184080E+00 0.72445903E+03</pdfrwt>
<pdfrwt beam="2">  1       -1 0.12642158E+00 0.72445903E+03</pdfrwt>
<totfact> 0.12217490E+00</totfact>
</mgrwt>
</event>
<event>
 4    1  0.1521315E-007  0.6716029E+03  0.7818608E-02  0.1014539E+00
          1   -1    0    0  501    0  0.00000000000E+00  0.00000000000E+00  0.30874909848E+04  0.30874909848E+04  0.50400000000E-02 0. -1.
         -1   -1    0    0    0  501 -0.00000000000E+00 -0.00000000000E+00 -0.10827899208E+03  0.10827899220E+03  0.50400000000E-02 0.  1.
    8880023    1    1    2    0    0  0.37293527741E+02  0.12589453406E+03  0.29039569951E+04  0.29806067631E+04  0.65864270000E+03 0. -1.
    8880022    1    1    2    0    0 -0.37293527741E+02 -0.12589453406E+03  0.75254997643E+02  0.21516321387E+03  0.15294330000E+03 0.  0.
<mgrwt>
<rscale>  0 0.49709890E+03</rscale>
<asrwt>0</asrwt>
<pdfrwt beam="1">  1        1 0.47499862E+00 0.67160289E+03</pdfrwt>
<pdfrwt beam="2">  1       -1 0.16658306E-01 0.67160289E+03</pdfrwt>
<totfact> 0.15363582E+01</totfact>
</mgrwt>
</event>
<event>
 4    1  0.1521315E-007  0.6997057E+03  0.7818608E-02  0.9998424E-01
          1   -1    0    0  501    0  0.00000000000E+00  0.00000000000E+00  0.13908236296E+04  0.13908236296E+04  0.50400000000E-02 0. -1.
         -1   -1    0    0    0  501 -0.00000000000E+00 -0.00000000000E+00 -0.23549913787E+03  0.23549913792E+03  0.50400000000E-02 0.  1.
    8880023    1    1    2    0    0 -0.23490106810E+03  0.24482549141E+02  0.11485146477E+04  0.13448695139E+04  0.65864270000E+03 0.  0.
    8880022    1    1    2    0    0  0.23490106810E+03 -0.24482549141E+02  0.68098439976E+01  0.28145325367E+03  0.15294330000E+03 0.  0.
<mgrwt>
<rscale>  0 0.55719390E+03</rscale>
<asrwt>0</asrwt>
<pdfrwt beam="1">  1        1 0.21397286E+00 0.69970573E+03</pdfrwt>
<pdfrwt beam="2">  1       -1 0.36230638E-01 0.69970573E+03</pdfrwt>
<totfact> 0.58641417E+01</totfact>
</mgrwt>
</event>
<event>
 4    1  0.1521315E-007  0.7654530E+03  0.7818608E-02  0.9791189E-01
         -1   -1    0    0    0  501 -0.00000000000E+00  0.00000000000E+00  0.26121381707E+03  0.26121381711E+03  0.50400000000E-02 0.  1.
          1   -1    0    0  501    0  0.00000000000E+00 -0.00000000000E+00 -0.31963099322E+04  0.31963099322E+04  0.50400000000E-02 0. -1.
    8880023    1    1    2    0    0  0.40118152100E+01  0.38998982300E+03 -0.29405671061E+04  0.30385610523E+04  0.65864270000E+03 0. -1.
    8880022    1    1    2    0    0 -0.40118152100E+01 -0.38998982300E+03  0.54709910174E+01  0.41896269698E+03  0.15294330000E+03 0.  0.
<mgrwt>
<rscale>  0 0.65837525E+03</rscale>
<asrwt>0</asrwt>
<pdfrwt beam="1">  1        1 0.49173996E+00 0.76545304E+03</pdfrwt>
<pdfrwt beam="2">  1       -1 0.40186743E-01 0.76545304E+03</pdfrwt>
<totfact> 0.27726108E+00</totfact>
</mgrwt>
</event>
<event>
 4    1  0.1521315E-007  0.1380254E+04  0.7818608E-02  0.8999179E-01
         -1   -1    0    0    0  501 -0.00000000000E+00  0.00000000000E+00  0.24140956303E+04  0.24140956303E+04  0.50400000000E-02 0.  1.
          1   -1    0    0  501    0  0.00000000000E+00 -0.00000000000E+00 -0.99953843681E+03  0.99953843683E+03  0.50400000000E-02 0. -1.
    8880023    1    1    2    0    0 -0.72751236130E+03  0.97057600324E+03 -0.19333906175E+03  0.13937296054E+04  0.65864270000E+03 0. -1.
    8880022    1    1    2    0    0  0.72751236130E+03 -0.97057600324E+03  0.16078962552E+04  0.20199044617E+04  0.15294330000E+03 0.  0.
<mgrwt>
<rscale>  0 0.13390229E+04</rscale>
<asrwt>0</asrwt>
<pdfrwt beam="1">  1        1 0.15377515E+00 0.13802544E+04</pdfrwt>
<pdfrwt beam="2">  1       -1 0.37139932E+00 0.13802544E+04</pdfrwt>
<totfact> 0.16368187E-01</totfact>
</mgrwt>
</event>
<event>
 4    1  0.1521315E-007  0.7468015E+03  0.7818608E-02  0.9840560E-01
          1   -1    0    0  501    0  0.00000000000E+00  0.00000000000E+00  0.64484402865E+03  0.64484402867E+03  0.50400000000E-02 0. -1.
         -1   -1    0    0    0  501 -0.00000000000E+00 -0.00000000000E+00 -0.73033181039E+03  0.73033181040E+03  0.50400000000E-02 0.  1.
    8880023    1    1    2    0    0  0.19826633891E+03  0.29084831075E+03 -0.42801825907E+03  0.86076252089E+03  0.65864270000E+03 0.  1.
    8880022    1    1    2    0    0 -0.19826633891E+03 -0.29084831075E+03  0.34253047733E+03  0.51441331818E+03  0.15294330000E+03 0.  0.
<mgrwt>
<rscale>  0 0.63230555E+03</rscale>
<asrwt>0</asrwt>
<pdfrwt beam="1">  1        1 0.99206774E-01 0.74680150E+03</pdfrwt>
<pdfrwt beam="2">  1       -1 0.11235874E+00 0.74680150E+03</pdfrwt>
<totfact> 0.22951334E+01</totfact>
</mgrwt>
</event>
<event>
 4    1  0.1521315E-007  0.7719232E+03  0.7818608E-02  0.9775163E-01
         -1   -1    0    0    0  501 -0.00000000000E+00  0.00000000000E+00  0.13326901048E+03  0.13326901057E+03  0.50400000000E-02 0.  1.
          1   -1    0    0  501    0  0.00000000000E+00 -0.00000000000E+00 -0.43329028077E+04  0.43329028077E+04  0.50400000000E-02 0. -1.
    8880023    1    1    2    0    0 -0.39262258043E+03 -0.88897139690E+02 -0.38035267462E+04  0.38810670063E+04  0.65864270000E+03 0.  0.
    8880022    1    1    2    0    0  0.39262258043E+03  0.88897139690E+02 -0.39610705102E+03  0.58510481197E+03  0.15294330000E+03 0.  0.
<mgrwt>
<rscale>  0 0.66712620E+03</rscale>
<asrwt>0</asrwt>
<pdfrwt beam="1">  1        1 0.66660032E+00 0.77192318E+03</pdfrwt>
<pdfrwt beam="2">  1       -1 0.20502928E-01 0.77192318E+03</pdfrwt>
<totfact> 0.10306322E+00</totfact>
</mgrwt>
</event>
<event>
 4    1  0.1521315E-007  0.7021425E+03  0.7818608E-02  0.9988427E-01
         -1   -1    0    0    0  501 -0.00000000000E+00  0.00000000000E+00  0.38845766387E+03  0.38845766390E+03  0.50400000000E-02 0.  1.
          1   -1    0    0  501    0  0.00000000000E+00 -0.00000000000E+00 -0.41662687360E+04  0.41662687360E+04  0.50400000000E-02 0. -1.
    8880023    1    1    2    0    0  0.74995914055E+02  0.23145072251E+03 -0.40786735256E+04  0.41386690806E+04  0.65864270000E+03 0. -1.
    8880022    1    1    2    0    0 -0.74995914055E+02 -0.23145072251E+03  0.30086245343E+03  0.41605731934E+03  0.15294330000E+03 0.  0.
<mgrwt>
<rscale>  0 0.56160619E+03</rscale>
<asrwt>0</asrwt>
<pdfrwt beam="1">  1        1 0.64096439E+00 0.70214246E+03</pdfrwt>
<pdfrwt beam="2">  1       -1 0.59762720E-01 0.70214246E+03</pdfrwt>
<totfact> 0.21957255E-01</totfact>
</mgrwt>
</event>
<event>
 4    1  0.1521315E-007  0.6990002E+03  0.7818608E-02  0.1000137E+00
          1   -1    0    0  501    0  0.00000000000E+00  0.00000000000E+00  0.57346352876E+03  0.57346352878E+03  0.50400000000E-02 0. -1.
         -1   -1    0    0    0  501 -0.00000000000E+00 -0.00000000000E+00 -0.11329198169E+04  0.11329198169E+04  0.50400000000E-02 0.  1.
    8880023    1    1    2    0    0  0.22569055730E+03  0.62087637287E+02  0.33074601931E+03  0.77330087153E+03  0.65864270000E+03 0. -1.
    8880022    1    1    2    0    0 -0.22569055730E+03 -0.62087637287E+02 -0.89020230746E+03  0.93308247416E+03  0.15294330000E+03 0.  0.
<mgrwt>
<rscale>  0 0.55590023E+03</rscale>
<asrwt>0</asrwt>
<pdfrwt beam="1">  1        1 0.88225158E-01 0.69900022E+03</pdfrwt>
<pdfrwt beam="2">  1       -1 0.17429536E+00 0.69900022E+03</pdfrwt>
<totfact> 0.86907169E+00</totfact>
</mgrwt>
</event>
<event>
 4    1  0.1521315E-007  0.6611273E+03  0.7818608E-02  0.1023030E+00
         -1   -1    0    0    0  501 -0.00000000000E+00  0.00000000000E+00  0.33690326914E+03  0.33690326918E+03  0.50400000000E-02 0.  1.
          1   -1    0    0  501    0  0.00000000000E+00 -0.00000000000E+00 -0.77114761867E+03  0.77114761869E+03  0.50400000000E-02 0. -1.
    8880023    1    1    2    0    0 -0.57182778915E+02  0.30372939123E+01 -0.58723631346E+03  0.88427133249E+03  0.65864270000E+03 0.  0.
    8880022    1    1    2    0    0  0.57182778915E+02 -0.30372939123E+01  0.15299196394E+03  0.22377955537E+03  0.15294330000E+03 0.  1.
<mgrwt>
<rscale>  0 0.46608832E+03</rscale>
<asrwt>0</asrwt>
<pdfrwt beam="1">  1        1 0.11863809E+00 0.66112730E+03</pdfrwt>
<pdfrwt beam="2">  1       -1 0.51831272E-01 0.66112730E+03</pdfrwt>
<totfact> 0.90187389E+01</totfact>
</mgrwt>
</event>
<event>
 4    1  0.1521315E-007  0.8427943E+03  0.7818608E-02  0.9624934E-01
          1   -1    0    0  501    0  0.00000000000E+00  0.00000000000E+00  0.16872282612E+04  0.16872282612E+04  0.50400000000E-02 0. -1.
         -1   -1    0    0    0  501 -0.00000000000E+00 -0.00000000000E+00 -0.45089640518E+03  0.45089640521E+03  0.50400000000E-02 0.  1.
    8880023    1    1    2    0    0 -0.51952832592E+03  0.81131324488E+02  0.13378435885E+04  0.15811791950E+04  0.65864270000E+03 0. -1.
    8880022    1    1    2    0    0  0.51952832592E+03 -0.81131324488E+02 -0.10151173249E+03  0.55694547138E+03  0.15294330000E+03 0.  0.
<mgrwt>
<rscale>  0 0.75667655E+03</rscale>
<asrwt>0</asrwt>
<pdfrwt beam="1">  1        1 0.25957358E+00 0.84279427E+03</pdfrwt>
<pdfrwt beam="2">  1       -1 0.69368678E-01 0.84279427E+03</pdfrwt>
<totfact> 0.10499074E+01</totfact>
</mgrwt>
</event>
<event>
 4    1  0.1521315E-007  0.6995480E+03  0.7818608E-02  0.9999081E-01
          1   -1    0    0  501    0  0.00000000000E+00  0.00000000000E+00  0.56978123443E+03  0.56978123445E+03  0.50400000000E-02 0. -1.
         -1   -1    0    0    0  501 -0.00000000000E+00 -0.00000000000E+00 -0.61279706547E+03  0.61279706549E+03  0.50400000000E-02 0.  1.
    8880023    1    1    2    0    0 -0.14040469346E+03  0.18932445775E+03  0.28084583300E+03  0.75381815872E+03  0.65864270000E+03 0. -1.
    8880022    1    1    2    0    0  0.14040469346E+03 -0.18932445775E+03 -0.32386166403E+03  0.42876014121E+03  0.15294330000E+03 0.  0.
<mgrwt>
<rscale>  0 0.55690536E+03</rscale>
<asrwt>0</asrwt>
<pdfrwt beam="1">  1        1 0.87658652E-01 0.69954802E+03</pdfrwt>
<pdfrwt beam="2">  1       -1 0.94276472E-01 0.69954802E+03</pdfrwt>
<totfact> 0.41290752E+01</totfact>
</mgrwt>
</event>
<event>
 4    1  0.1521315E-007  0.8958696E+03  0.7818608E-02  0.9532695E-01
         -1   -1    0    0    0  501 -0.00000000000E+00  0.00000000000E+00  0.18510107363E+03  0.18510107370E+03  0.50400000000E-02 0.  1.
          1   -1    0    0  501    0  0.00000000000E+00 -0.00000000000E+00 -0.33121682085E+04  0.33121682085E+04  0.50400000000E-02 0. -1.
    8880023    1    1    2    0    0  0.58643158856E+03 -0.15770284162E+03 -0.22301830116E+04  0.24033931567E+04  0.65864270000E+03 0.  0.
    8880022    1    1    2    0    0 -0.58643158856E+03  0.15770284162E+03 -0.89688412330E+03  0.10938761255E+04  0.15294330000E+03 0.  0.
<mgrwt>
<rscale>  0 0.81915683E+03</rscale>
<asrwt>0</asrwt>
<pdfrwt beam="1">  1        1 0.50956430E+00 0.89586963E+03</pdfrwt>
<pdfrwt beam="2">  1       -1 0.28477091E-01 0.89586963E+03</pdfrwt>
<totfact> 0.40972079E+00</totfact>
</mgrwt>
</event>
<event>
 4    1  0.1521315E-007  0.8193471E+03  0.7818608E-02  0.9670426E-01
         -1   -1    0    0    0  501 -0.00000000000E+00  0.00000000000E+00  0.85330599225E+03  0.85330599227E+03  0.50400000000E-02 0.  1.
          1   -1    0    0  501    0  0.00000000000E+00 -0.00000000000E+00 -0.72849128829E+03  0.72849128831E+03  0.50400000000E-02 0. -1.
    8880023    1    1    2    0    0 -0.45679033363E+03 -0.16988829743E+03 -0.34385123269E+03  0.88857375551E+03  0.65864270000E+03 0. -1.
    8880022    1    1    2    0    0  0.45679033363E+03  0.16988829743E+03  0.46866593666E+03  0.69322352506E+03  0.15294330000E+03 0.  0.
<mgrwt>
<rscale>  0 0.72805218E+03</rscale>
<asrwt>0</asrwt>
<pdfrwt beam="1">  1        1 0.11207558E+00 0.81934709E+03</pdfrwt>
<pdfrwt beam="2">  1       -1 0.13127784E+00 0.81934709E+03</pdfrwt>
<totfact> 0.12942687E+01</totfact>
</mgrwt>
</event>
<event>
 4    1  0.1521315E-007  0.1238906E+04  0.7818608E-02  0.9120200E-01
         -1   -1    0    0    0  501 -0.00000000000E+00  0.00000000000E+00  0.10532504289E+04  0.10532504290E+04  0.50400000000E-02 0.  1.
          1   -1    0    0  501    0  0.00000000000E+00 -0.00000000000E+00 -0.23981319083E+04  0.23981319083E+04  0.50400000000E-02 0. -1.
    8880023    1    1    2    0    0  0.99861164035E+03  0.32226244097E+03  0.48986712687E+03  0.13322380783E+04  0.65864270000E+03 0.  1.
    8880022    1    1    2    0    0 -0.99861164035E+03 -0.32226244097E+03 -0.18347486063E+04  0.21191442590E+04  0.15294330000E+03 0.  0.
<mgrwt>
<rscale>  0 0.11916461E+04</rscale>
<asrwt>0</asrwt>
<pdfrwt beam="1">  1        1 0.36894337E+00 0.12389062E+04</pdfrwt>
<pdfrwt beam="2">  1       -1 0.16203853E+00 0.12389062E+04</pdfrwt>
<totfact> 0.44041331E-01</totfact>
</mgrwt>
</event>
<event>
 4    1  0.1521315E-007  0.6670600E+03  0.7818608E-02  0.1017864E+00
          1   -1    0    0  501    0  0.00000000000E+00  0.00000000000E+00  0.96409454699E+03  0.96409454700E+03  0.50400000000E-02 0. -1.
         -1   -1    0    0    0  501 -0.00000000000E+00 -0.00000000000E+00 -0.38964372492E+03  0.38964372495E+03  0.50400000000E-02 0.  1.
    8880023    1    1    2    0    0 -0.10518304269E+03  0.97653136262E+01  0.81279838169E+03  0.10514800280E+04  0.65864270000E+03 0. -1.
    8880022    1    1    2    0    0  0.10518304269E+03 -0.97653136262E+01 -0.23834755963E+03  0.30225824391E+03  0.15294330000E+03 0.  0.
<mgrwt>
<rscale>  0 0.48465249E+03</rscale>
<asrwt>0</asrwt>
<pdfrwt beam="1">  1        1 0.14832224E+00 0.66706000E+03</pdfrwt>
<pdfrwt beam="2">  1       -1 0.59945189E-01 0.66706000E+03</pdfrwt>
<totfact> 0.47085533E+01</totfact>
</mgrwt>
</event>
<event>
 4    1  0.1521315E-007  0.7233313E+03  0.7818608E-02  0.9911471E-01
         -1   -1    0    0    0  501 -0.00000000000E+00  0.00000000000E+00  0.61552735149E+03  0.61552735152E+03  0.50400000000E-02 0.  1.
          1   -1    0    0  501    0  0.00000000000E+00 -0.00000000000E+00 -0.78719594252E+03  0.78719594254E+03  0.50400000000E-02 0. -1.
    8880023    1    1    2    0    0 -0.29564466146E+03 -0.44634422647E+02 -0.54119623420E+03  0.90338340018E+03  0.65864270000E+03 0. -1.
    8880022    1    1    2    0    0  0.29564466146E+03  0.44634422647E+02  0.36952764318E+03  0.49933989388E+03  0.15294330000E+03 0.  0.
<mgrwt>
<rscale>  0 0.59708562E+03</rscale>
<asrwt>0</asrwt>
<pdfrwt beam="1">  1        1 0.12110707E+00 0.72333132E+03</pdfrwt>
<pdfrwt beam="2">  1       -1 0.94696516E-01 0.72333132E+03</pdfrwt>
<totfact> 0.25188120E+01</totfact>
</mgrwt>
</event>
<event>
 4    1  0.1521315E-007  0.8125899E+03  0.7818608E-02  0.9684207E-01
          1   -1    0    0  501    0  0.00000000000E+00  0.00000000000E+00  0.12637295017E+04  0.12637295017E+04  0.50400000000E-02 0. -1.
         -1   -1    0    0    0  501 -0.00000000000E+00 -0.00000000000E+00 -0.11990012269E+04  0.11990012269E+04  0.50400000000E-02 0.  1.
    8880023    1    1    2    0    0  0.37308644892E+03  0.29546336995E+03  0.10679026300E+04  0.13419084673E+04  0.65864270000E+03 0. -1.
    8880022    1    1    2    0    0 -0.37308644892E+03 -0.29546336995E+03 -0.10031743552E+04  0.11208222612E+04  0.15294330000E+03 0.  0.
<mgrwt>
<rscale>  0 0.71964914E+03</rscale>
<asrwt>0</asrwt>
<pdfrwt beam="1">  1        1 0.19441992E+00 0.81258988E+03</pdfrwt>
<pdfrwt beam="2">  1       -1 0.18446173E+00 0.81258988E+03</pdfrwt>
<totfact> 0.19201826E+00</totfact>
</mgrwt>
</event>
<event>
 4    1  0.1521315E-007  0.7350402E+03  0.7818608E-02  0.9874637E-01
         -1   -1    0    0    0  501 -0.00000000000E+00  0.00000000000E+00  0.98780344392E+03  0.98780344393E+03  0.50400000000E-02 0.  1.
          1   -1    0    0  501    0  0.00000000000E+00 -0.00000000000E+00 -0.60789906505E+03  0.60789906507E+03  0.50400000000E-02 0. -1.
    8880023    1    1    2    0    0  0.26478678847E+03 -0.19068776030E+03 -0.32526162050E+03  0.80379051581E+03  0.65864270000E+03 0. -1.
    8880022    1    1    2    0    0 -0.26478678847E+03  0.19068776030E+03  0.70516599937E+03  0.79191199319E+03  0.15294330000E+03 0.  0.
<mgrwt>
<rscale>  0 0.61506362E+03</rscale>
<asrwt>0</asrwt>
<pdfrwt beam="1">  1        1 0.93522934E-01 0.73504018E+03</pdfrwt>
<pdfrwt beam="2">  1       -1 0.15196976E+00 0.73504018E+03</pdfrwt>
<totfact> 0.11673869E+01</totfact>
</mgrwt>
</event>
<event>
 4    1  0.1521315E-007  0.7684952E+03  0.7818608E-02  0.9783591E-01
         -1   -1    0    0    0  501 -0.00000000000E+00  0.00000000000E+00  0.34005268946E+03  0.34005268949E+03  0.50400000000E-02 0.  1.
          1   -1    0    0  501    0  0.00000000000E+00 -0.00000000000E+00 -0.16398334778E+04  0.16398334778E+04  0.50400000000E-02 0. -1.
    8880023    1    1    2    0    0  0.38950495276E+03  0.71137119889E+02 -0.13490410081E+04  0.15525773558E+04  0.65864270000E+03 0. -1.
    8880022    1    1    2    0    0 -0.38950495276E+03 -0.71137119889E+02  0.49260219807E+02  0.42730881142E+03  0.15294330000E+03 0. -1.
<mgrwt>
<rscale>  0 0.66250633E+03</rscale>
<asrwt>0</asrwt>
<pdfrwt beam="1">  1        1 0.25228207E+00 0.76849516E+03</pdfrwt>
<pdfrwt beam="2">  1       -1 0.52315799E-01 0.76849516E+03</pdfrwt>
<totfact> 0.19936053E+01</totfact>
</mgrwt>
</event>
<event>
 4    1  0.1521315E-007  0.1101083E+04  0.7818608E-02  0.9259851E-01
          1   -1    0    0  501    0  0.00000000000E+00  0.00000000000E+00  0.39640935188E+04  0.39640935188E+04  0.50400000000E-02 0. -1.
         -1   -1    0    0    0  501 -0.00000000000E+00 -0.00000000000E+00 -0.57136750451E+03  0.57136750453E+03  0.50400000000E-02 0.  1.
    8880023    1    1    2    0    0  0.33363543408E+03  0.81686063757E+03  0.80178758979E+02  0.11039985252E+04  0.65864270000E+03 0.  1.
    8880022    1    1    2    0    0 -0.33363543408E+03 -0.81686063757E+03  0.33125472553E+04  0.34314624981E+04  0.15294330000E+03 0.  0.
<mgrwt>
<rscale>  0 0.10456457E+04</rscale>
<asrwt>0</asrwt>
<pdfrwt beam="1">  1        1 0.60986054E+00 0.11010832E+04</pdfrwt>
<pdfrwt beam="2">  1       -1 0.87902693E-01 0.11010832E+04</pdfrwt>
<totfact> 0.13558584E-01</totfact>
</mgrwt>
</event>
<event>
 4    1  0.1521315E-007  0.7249326E+03  0.7818608E-02  0.9906236E-01
          1   -1    0    0  501    0  0.00000000000E+00  0.00000000000E+00  0.15144783815E+04  0.15144783815E+04  0.50400000000E-02 0. -1.
         -1   -1    0    0    0  501 -0.00000000000E+00 -0.00000000000E+00 -0.22636594483E+03  0.22636594488E+03  0.50400000000E-02 0.  1.
    8880023    1    1    2    0    0 -0.27969145181E+03  0.11614528993E+03  0.11797558420E+04  0.13846844730E+04  0.65864270000E+03 0.  1.
    8880022    1    1    2    0    0  0.27969145181E+03 -0.11614528993E+03  0.10835659467E+03  0.35615985346E+03  0.15294330000E+03 0.  0.
<mgrwt>
<rscale>  0 0.59960014E+03</rscale>
<asrwt>0</asrwt>
<pdfrwt beam="1">  1        1 0.23299668E+00 0.72493258E+03</pdfrwt>
<pdfrwt beam="2">  1       -1 0.34825529E-01 0.72493258E+03</pdfrwt>
<totfact> 0.51584745E+01</totfact>
</mgrwt>
</event>
<event>
 4    1  0.1521315E-007  0.8515518E+03  0.7818608E-02  0.9608772E-01
          1   -1    0    0  501    0  0.00000000000E+00  0.00000000000E+00  0.91988733945E+03  0.91988733947E+03  0.50400000000E-02 0. -1.
         -1   -1    0    0    0  501 -0.00000000000E+00 -0.00000000000E+00 -0.10343338195E+04  0.10343338195E+04  0.50400000000E-02 0.  1.
    8880023    1    1    2    0    0 -0.17660423699E+02 -0.53946112989E+03  0.60303473144E+03  0.10434516255E+04  0.65864270000E+03 0. -1.
    8880022    1    1    2    0    0  0.17660423699E+02  0.53946112989E+03 -0.71748121152E+03  0.91076953348E+03  0.15294330000E+03 0.  0.
<mgrwt>
<rscale>  0 0.76718332E+03</rscale>
<asrwt>0</asrwt>
<pdfrwt beam="1">  1        1 0.14152113E+00 0.85155176E+03</pdfrwt>
<pdfrwt beam="2">  1       -1 0.15912828E+00 0.85155176E+03</pdfrwt>
<totfact> 0.53095717E+00</totfact>
</mgrwt>
</event>
<event>
 4    1  0.1521315E-007  0.7565447E+03  0.7818608E-02  0.9814136E-01
         -1   -1    0    0    0  501 -0.00000000000E+00  0.00000000000E+00  0.85735224058E+03  0.85735224059E+03  0.50400000000E-02 0.  1.
          1   -1    0    0  501    0  0.00000000000E+00 -0.00000000000E+00 -0.15791789206E+04  0.15791789206E+04  0.50400000000E-02 0. -1.
    8880023    1    1    2    0    0 -0.26085756515E+03  0.26552414185E+03 -0.14324012387E+04  0.16199176689E+04  0.65864270000E+03 0.  0.
    8880022    1    1    2    0    0  0.26085756515E+03 -0.26552414185E+03  0.71057455871E+03  0.81661349224E+03  0.15294330000E+03 0.  0.
<mgrwt>
<rscale>  0 0.64609398E+03</rscale>
<asrwt>0</asrwt>
<pdfrwt beam="1">  1        1 0.24295060E+00 0.75654474E+03</pdfrwt>
<pdfrwt beam="2">  1       -1 0.13190035E+00 0.75654474E+03</pdfrwt>
<totfact> 0.29448965E+00</totfact>
</mgrwt>
</event>
<event>
 4    1  0.1521315E-007  0.8178580E+03  0.7818608E-02  0.9673435E-01
         -1   -1    0    0    0  501 -0.00000000000E+00  0.00000000000E+00  0.43516029457E+03  0.43516029460E+03  0.50400000000E-02 0.  1.
          1   -1    0    0  501    0  0.00000000000E+00 -0.00000000000E+00 -0.20621206375E+04  0.20621206375E+04  0.50400000000E-02 0. -1.
    8880023    1    1    2    0    0 -0.42162879933E+01  0.48483379007E+03 -0.17861895248E+04  0.19645266112E+04  0.65864270000E+03 0. -1.
    8880022    1    1    2    0    0  0.42162879933E+01 -0.48483379007E+03  0.15922918192E+03  0.53275432093E+03  0.15294330000E+03 0.  0.
<mgrwt>
<rscale>  0 0.72620694E+03</rscale>
<asrwt>0</asrwt>
<pdfrwt beam="1">  1        1 0.31724932E+00 0.81785805E+03</pdfrwt>
<pdfrwt beam="2">  1       -1 0.66947738E-01 0.81785805E+03</pdfrwt>
<totfact> 0.63450552E+00</totfact>
</mgrwt>
</event>
<event>
 4    1  0.1521315E-007  0.1128193E+04  0.7818608E-02  0.9230297E-01
          1   -1    0    0  501    0  0.00000000000E+00  0.00000000000E+00  0.18810075562E+04  0.18810075562E+04  0.50400000000E-02 0. -1.
         -1   -1    0    0    0  501 -0.00000000000E+00 -0.00000000000E+00 -0.73664362800E+03  0.73664362802E+03  0.50400000000E-02 0.  1.
    8880023    1    1    2    0    0  0.83954343327E+03 -0.36630037368E+03  0.12490246429E+04  0.16831167235E+04  0.65864270000E+03 0.  0.
    8880022    1    1    2    0    0 -0.83954343327E+03  0.36630037368E+03 -0.10466071468E+03  0.93453446074E+03  0.15294330000E+03 0.  0.
<mgrwt>
<rscale>  0 0.10746108E+04</rscale>
<asrwt>0</asrwt>
<pdfrwt beam="1">  1        1 0.28938578E+00 0.11281930E+04</pdfrwt>
<pdfrwt beam="2">  1       -1 0.11332979E+00 0.11281930E+04</pdfrwt>
<totfact> 0.25332709E+00</totfact>
</mgrwt>
</event>
<event>
 4    1  0.1521315E-007  0.7306337E+03  0.7818608E-02  0.9888122E-01
          1   -1    0    0  501    0  0.00000000000E+00  0.00000000000E+00  0.12353463192E+04  0.12353463192E+04  0.50400000000E-02 0. -1.
         -1   -1    0    0    0  501 -0.00000000000E+00 -0.00000000000E+00 -0.76518335708E+03  0.76518335709E+03  0.50400000000E-02 0.  1.
    8880023    1    1    2    0    0  0.27445556721E+03 -0.15712887826E+03  0.10757610914E+04  0.13004181923E+04  0.65864270000E+03 0. -1.
    8880022    1    1    2    0    0 -0.27445556721E+03  0.15712887826E+03 -0.60559812933E+03  0.70011148399E+03  0.15294330000E+03 0.  0.
<mgrwt>
<rscale>  0 0.60840424E+03</rscale>
<asrwt>0</asrwt>
<pdfrwt beam="1">  1        1 0.19005328E+00 0.73063366E+03</pdfrwt>
<pdfrwt beam="2">  1       -1 0.11772052E+00 0.73063366E+03</pdfrwt>
<totfact> 0.67949327E+00</totfact>
</mgrwt>
</event>
<event>
 4    1  0.1521315E-007  0.7047247E+03  0.7818608E-02  0.9978138E-01
         -1   -1    0    0    0  501 -0.00000000000E+00  0.00000000000E+00  0.55062224890E+03  0.55062224893E+03  0.50400000000E-02 0.  1.
          1   -1    0    0  501    0  0.00000000000E+00 -0.00000000000E+00 -0.98236491375E+03  0.98236491376E+03  0.50400000000E-02 0. -1.
    8880023    1    1    2    0    0  0.23026358037E+03  0.99022349733E+02 -0.79729847427E+03  0.10641061063E+04  0.65864270000E+03 0.  0.
    8880022    1    1    2    0    0 -0.23026358037E+03 -0.99022349733E+02  0.36555580943E+03  0.46888105636E+03  0.15294330000E+03 0.  1.
<mgrwt>
<rscale>  0 0.56619317E+03</rscale>
<asrwt>0</asrwt>
<pdfrwt beam="1">  1        1 0.15113306E+00 0.70472473E+03</pdfrwt>
<pdfrwt beam="2">  1       -1 0.84711115E-01 0.70472473E+03</pdfrwt>
<totfact> 0.22281544E+01</totfact>
</mgrwt>
</event>
<event>
 4    1  0.1521315E-007  0.7729735E+03  0.7818608E-02  0.9772609E-01
          1   -1    0    0  501    0  0.00000000000E+00  0.00000000000E+00  0.25703134787E+04  0.25703134787E+04  0.50400000000E-02 0. -1.
         -1   -1    0    0    0  501 -0.00000000000E+00 -0.00000000000E+00 -0.32796078712E+03  0.32796078716E+03  0.50400000000E-02 0.  1.
    8880023    1    1    2    0    0  0.15199827846E+03  0.37493255058E+03  0.23318241074E+04  0.24566016706E+04  0.65864270000E+03 0.  0.
    8880022    1    1    2    0    0 -0.15199827846E+03 -0.37493255058E+03 -0.89471415777E+02  0.44167259525E+03  0.15294330000E+03 0.  0.
<mgrwt>
<rscale>  0 0.66853455E+03</rscale>
<asrwt>0</asrwt>
<pdfrwt beam="1">  1        1 0.39543284E+00 0.77297354E+03</pdfrwt>
<pdfrwt beam="2">  1       -1 0.50455506E-01 0.77297354E+03</pdfrwt>
<totfact> 0.50401549E+00</totfact>
</mgrwt>
</event>
<event>
 4    1  0.1521315E-007  0.9471875E+03  0.7818608E-02  0.9454172E-01
         -1   -1    0    0    0  501 -0.00000000000E+00  0.00000000000E+00  0.45352138834E+03  0.45352138837E+03  0.50400000000E-02 0.  1.
          1   -1    0    0  501    0  0.00000000000E+00 -0.00000000000E+00 -0.22478300701E+04  0.22478300701E+04  0.50400000000E-02 0. -1.
    8880023    1    1    2    0    0 -0.65336919061E+03 -0.19095195936E+03 -0.17649638425E+04  0.20030630348E+04  0.65864270000E+03 0.  0.
    8880022    1    1    2    0    0  0.65336919061E+03  0.19095195936E+03 -0.29344839311E+02  0.69828842367E+03  0.15294330000E+03 0.  0.
<mgrwt>
<rscale>  0 0.87748504E+03</rscale>
<asrwt>0</asrwt>
<pdfrwt beam="1">  1        1 0.34582000E+00 0.94718750E+03</pdfrwt>
<pdfrwt beam="2">  1       -1 0.69772523E-01 0.94718750E+03</pdfrwt>
<totfact> 0.42906492E+00</totfact>
</mgrwt>
</event>
<event>
 4    1  0.1521315E-007  0.6728236E+03  0.7818608E-02  0.1013715E+00
         -1   -1    0    0    0  501 -0.00000000000E+00  0.00000000000E+00  0.46449083651E+03  0.46449083653E+03  0.50400000000E-02 0.  1.
          1   -1    0    0  501    0  0.00000000000E+00 -0.00000000000E+00 -0.18115237317E+04  0.18115237317E+04  0.50400000000E-02 0. -1.
    8880023    1    1    2    0    0  0.10258639787E+01 -0.13740580804E+03 -0.17217792240E+04  0.18485711539E+04  0.65864270000E+03 0. -1.
    8880022    1    1    2    0    0 -0.10258639787E+01  0.13740580804E+03  0.37474632883E+03  0.42744341434E+03  0.15294330000E+03 0.  0.
<mgrwt>
<rscale>  0 0.50024630E+03</rscale>
<asrwt>0</asrwt>
<pdfrwt beam="1">  1        1 0.27869596E+00 0.67282361E+03</pdfrwt>
<pdfrwt beam="2">  1       -1 0.71460129E-01 0.67282361E+03</pdfrwt>
<totfact> 0.83683388E+00</totfact>
</mgrwt>
</event>
<event>
 4    1  0.1521315E-007  0.6894028E+03  0.7818608E-02  0.1004438E+00
          1   -1    0    0  501    0  0.00000000000E+00  0.00000000000E+00  0.23959010264E+04  0.23959010264E+04  0.50400000000E-02 0. -1.
         -1   -1    0    0    0  501 -0.00000000000E+00 -0.00000000000E+00 -0.10717613339E+03  0.10717613351E+03  0.50400000000E-02 0.  1.
    8880023    1    1    2    0    0 -0.13949149921E+03  0.14835141674E+03  0.11904569081E+04  0.13756685202E+04  0.65864270000E+03 0.  1.
    8880022    1    1    2    0    0  0.13949149921E+03 -0.14835141674E+03  0.10982679849E+04  0.11274086397E+04  0.15294330000E+03 0.  0.
<mgrwt>
<rscale>  0 0.53746471E+03</rscale>
<asrwt>0</asrwt>
<pdfrwt beam="1">  1        1 0.36860012E+00 0.68940280E+03</pdfrwt>
<pdfrwt beam="2">  1       -1 0.16488638E-01 0.68940280E+03</pdfrwt>
<totfact> 0.47264315E+01</totfact>
</mgrwt>
</event>
<event>
 4    1  0.1521315E-007  0.6962859E+03  0.7818608E-02  0.1001297E+00
          1   -1    0    0  501    0  0.00000000000E+00  0.00000000000E+00  0.12491112960E+04  0.12491112960E+04  0.50400000000E-02 0. -1.
         -1   -1    0    0    0  501 -0.00000000000E+00 -0.00000000000E+00 -0.47342285262E+03  0.47342285264E+03  0.50400000000E-02 0.  1.
    8880023    1    1    2    0    0 -0.22289946534E+03 -0.36327425351E+02  0.10980876361E+04  0.13002347927E+04  0.65864270000E+03 0. -1.
    8880022    1    1    2    0    0  0.22289946534E+03  0.36327425351E+02 -0.32239919273E+03  0.42229935587E+03  0.15294330000E+03 0.  0.
<mgrwt>
<rscale>  0 0.55085087E+03</rscale>
<asrwt>0</asrwt>
<pdfrwt beam="1">  1        1 0.19217097E+00 0.69628590E+03</pdfrwt>
<pdfrwt beam="2">  1       -1 0.72834286E-01 0.69628590E+03</pdfrwt>
<totfact> 0.19438691E+01</totfact>
</mgrwt>
</event>
<event>
 4    1  0.1521315E-007  0.8195161E+03  0.7818608E-02  0.9670086E-01
         -1   -1    0    0    0  501 -0.00000000000E+00  0.00000000000E+00  0.32207554613E+03  0.32207554617E+03  0.50400000000E-02 0.  1.
          1   -1    0    0  501    0  0.00000000000E+00 -0.00000000000E+00 -0.21451935036E+04  0.21451935036E+04  0.50400000000E-02 0. -1.
    8880023    1    1    2    0    0 -0.32551180173E+03  0.36309581370E+03 -0.17736346604E+04  0.19538133528E+04  0.65864270000E+03 0. -1.
    8880022    1    1    2    0    0  0.32551180173E+03 -0.36309581370E+03 -0.49483297073E+02  0.51345569691E+03  0.15294330000E+03 0.  0.
<mgrwt>
<rscale>  0 0.72826145E+03</rscale>
<asrwt>0</asrwt>
<pdfrwt beam="1">  1        1 0.33002976E+00 0.81951614E+03</pdfrwt>
<pdfrwt beam="2">  1       -1 0.49550085E-01 0.81951614E+03</pdfrwt>
<totfact> 0.10054198E+01</totfact>
</mgrwt>
</event>
<event>
 4    1  0.1521315E-007  0.6858544E+03  0.7818608E-02  0.1006189E+00
         -1   -1    0    0    0  501 -0.00000000000E+00  0.00000000000E+00  0.33055805405E+03  0.33055805409E+03  0.50400000000E-02 0.  1.
          1   -1    0    0  501    0  0.00000000000E+00 -0.00000000000E+00 -0.72612944930E+03  0.72612944932E+03  0.50400000000E-02 0. -1.
    8880023    1    1    2    0    0  0.41835794097E+02  0.18664351880E+03 -0.42980926555E+03  0.80940240165E+03  0.65864270000E+03 0. -1.
    8880022    1    1    2    0    0 -0.41835794097E+02 -0.18664351880E+03  0.34237870297E+02  0.24728510176E+03  0.15294330000E+03 0.  1.
<mgrwt>
<rscale>  0 0.53017917E+03</rscale>
<asrwt>0</asrwt>
<pdfrwt beam="1">  1        1 0.11171222E+00 0.68585439E+03</pdfrwt>
<pdfrwt beam="2">  1       -1 0.50855085E-01 0.68585439E+03</pdfrwt>
<totfact> 0.10240548E+02</totfact>
</mgrwt>
</event>
<event>
 4    1  0.1521315E-007  0.7201829E+03  0.7818608E-02  0.9921968E-01
         -1   -1    0    0    0  501 -0.00000000000E+00  0.00000000000E+00  0.49343194831E+03  0.49343194833E+03  0.50400000000E-02 0.  1.
          1   -1    0    0  501    0  0.00000000000E+00 -0.00000000000E+00 -0.78912241248E+03  0.78912241250E+03  0.50400000000E-02 0. -1.
    8880023    1    1    2    0    0 -0.10941562252E+03  0.26996552614E+03 -0.51656310019E+03  0.88628483373E+03  0.65864270000E+03 0.  0.
    8880022    1    1    2    0    0  0.10941562252E+03 -0.26996552614E+03  0.22087263602E+03  0.39626952710E+03  0.15294330000E+03 0.  0.
<mgrwt>
<rscale>  0 0.59208353E+03</rscale>
<asrwt>0</asrwt>
<pdfrwt beam="1">  1        1 0.12140345E+00 0.72018287E+03</pdfrwt>
<pdfrwt beam="2">  1       -1 0.75912607E-01 0.72018287E+03</pdfrwt>
<totfact> 0.40457781E+01</totfact>
</mgrwt>
</event>
<event>
 4    1  0.1521315E-007  0.1009234E+04  0.7818608E-02  0.9369575E-01
         -1   -1    0    0    0  501 -0.00000000000E+00  0.00000000000E+00  0.60404621761E+03  0.60404621763E+03  0.50400000000E-02 0.  1.
          1   -1    0    0  501    0  0.00000000000E+00 -0.00000000000E+00 -0.15005858210E+04  0.15005858210E+04  0.50400000000E-02 0. -1.
    8880023    1    1    2    0    0  0.60025362273E+03 -0.47374917219E+03 -0.14137620682E+03  0.10190878902E+04  0.65864270000E+03 0.  0.
    8880022    1    1    2    0    0 -0.60025362273E+03  0.47374917219E+03 -0.75516339654E+03  0.10855441484E+04  0.15294330000E+03 0.  0.
<mgrwt>
<rscale>  0 0.94622362E+03</rscale>
<asrwt>0</asrwt>
<pdfrwt beam="1">  1        1 0.23085936E+00 0.10092338E+04</pdfrwt>
<pdfrwt beam="2">  1       -1 0.92930188E-01 0.10092338E+04</pdfrwt>
<totfact> 0.73863197E+00</totfact>
</mgrwt>
</event>
<event>
 4    1  0.1521315E-007  0.7043951E+03  0.7818608E-02  0.9979435E-01
         -1   -1    0    0    0  501 -0.00000000000E+00  0.00000000000E+00  0.17439772981E+03  0.17439772989E+03  0.50400000000E-02 0.  1.
          1   -1    0    0  501    0  0.00000000000E+00 -0.00000000000E+00 -0.16969744692E+04  0.16969744692E+04  0.50400000000E-02 0. -1.
    8880023    1    1    2    0    0 -0.74574830135E+02  0.23832940347E+03 -0.13716114373E+04  0.15419112981E+04  0.65864270000E+03 0. -1.
    8880022    1    1    2    0    0  0.74574830135E+02 -0.23832940347E+03 -0.15096530201E+03  0.32946090098E+03  0.15294330000E+03 0.  0.
<mgrwt>
<rscale>  0 0.56561255E+03</rscale>
<asrwt>0</asrwt>
<pdfrwt beam="1">  1        1 0.26107298E+00 0.70439514E+03</pdfrwt>
<pdfrwt beam="2">  1       -1 0.26830421E-01 0.70439514E+03</pdfrwt>
<totfact> 0.61359921E+01</totfact>
</mgrwt>
</event>
<event>
 4    1  0.1521315E-007  0.9088878E+03  0.7818608E-02  0.9511912E-01
         -1   -1    0    0    0  501 -0.00000000000E+00  0.00000000000E+00  0.97277657679E+03  0.97277657680E+03  0.50400000000E-02 0.  1.
          1   -1    0    0  501    0  0.00000000000E+00 -0.00000000000E+00 -0.77451629566E+03  0.77451629568E+03  0.50400000000E-02 0. -1.
    8880023    1    1    2    0    0  0.22765043608E+03 -0.58347416256E+03 -0.27265927011E+03  0.94890468608E+03  0.65864270000E+03 0.  0.
    8880022    1    1    2    0    0 -0.22765043608E+03  0.58347416256E+03  0.47091955124E+03  0.79838818640E+03  0.15294330000E+03 0.  0.
<mgrwt>
<rscale>  0 0.83411280E+03</rscale>
<asrwt>0</asrwt>
<pdfrwt beam="1">  1        1 0.11915635E+00 0.90888780E+03</pdfrwt>
<pdfrwt beam="2">  1       -1 0.14965793E+00 0.90888780E+03</pdfrwt>
<totfact> 0.82724029E+00</totfact>
</mgrwt>
</event>
<event>
 4    1  0.1521315E-007  0.6723152E+03  0.7818608E-02  0.1014055E+00
          1   -1    0    0  501    0  0.00000000000E+00  0.00000000000E+00  0.41967656961E+03  0.41967656964E+03  0.50400000000E-02 0. -1.
         -1   -1    0    0    0  501 -0.00000000000E+00 -0.00000000000E+00 -0.18414971763E+04  0.18414971763E+04  0.50400000000E-02 0.  1.
    8880023    1    1    2    0    0 -0.10782654830E+03  0.81061755433E+02  0.13946280723E+03  0.68662774017E+03  0.65864270000E+03 0. -1.
    8880022    1    1    2    0    0  0.10782654830E+03 -0.81061755433E+02 -0.15612834139E+04  0.15745460058E+04  0.15294330000E+03 0.  0.
<mgrwt>
<rscale>  0 0.49894459E+03</rscale>
<asrwt>0</asrwt>
<pdfrwt beam="1">  1        1 0.64565627E-01 0.67231524E+03</pdfrwt>
<pdfrwt beam="2">  1       -1 0.28330725E+00 0.67231524E+03</pdfrwt>
<totfact> 0.25312381E+00</totfact>
</mgrwt>
</event>
<event>
 4    1  0.1521315E-007  0.7491529E+03  0.7818608E-02  0.9834045E-01
          1   -1    0    0  501    0  0.00000000000E+00  0.00000000000E+00  0.26114441559E+04  0.26114441559E+04  0.50400000000E-02 0. -1.
         -1   -1    0    0    0  501 -0.00000000000E+00 -0.00000000000E+00 -0.30682605697E+03  0.30682605701E+03  0.50400000000E-02 0.  1.
    8880023    1    1    2    0    0  0.22040143778E+03 -0.28078994947E+03  0.24034897437E+04  0.25175370790E+04  0.65864270000E+03 0. -1.
    8880022    1    1    2    0    0 -0.22040143778E+03  0.28078994947E+03 -0.98871644781E+02  0.40073313396E+03  0.15294330000E+03 0.  0.
<mgrwt>
<rscale>  0 0.63567058E+03</rscale>
<asrwt>0</asrwt>
<pdfrwt beam="1">  1        1 0.40176065E+00 0.74915285E+03</pdfrwt>
<pdfrwt beam="2">  1       -1 0.47204008E-01 0.74915285E+03</pdfrwt>
<totfact> 0.53770301E+00</totfact>
</mgrwt>
</event>
<event>
 4    1  0.1521315E-007  0.7624135E+03  0.7818608E-02  0.9798899E-01
          1   -1    0    0  501    0  0.00000000000E+00  0.00000000000E+00  0.92141524332E+03  0.92141524333E+03  0.50400000000E-02 0. -1.
         -1   -1    0    0    0  501 -0.00000000000E+00 -0.00000000000E+00 -0.50421093010E+03  0.50421093012E+03  0.50400000000E-02 0.  1.
    8880023    1    1    2    0    0  0.35307694413E+03  0.15099939268E+03  0.60337928467E+03  0.97228643542E+03  0.65864270000E+03 0.  1.
    8880022    1    1    2    0    0 -0.35307694413E+03 -0.15099939268E+03 -0.18617497146E+03  0.45333973803E+03  0.15294330000E+03 0.  0.
<mgrwt>
<rscale>  0 0.65421674E+03</rscale>
<asrwt>0</asrwt>
<pdfrwt beam="1">  1        1 0.14175619E+00 0.76241350E+03</pdfrwt>
<pdfrwt beam="2">  1       -1 0.77570914E-01 0.76241350E+03</pdfrwt>
<totfact> 0.29839161E+01</totfact>
</mgrwt>
</event>
<event>
 4    1  0.1521315E-007  0.7408760E+03  0.7818608E-02  0.9857403E-01
         -1   -1    0    0    0  501 -0.00000000000E+00  0.00000000000E+00  0.65617708838E+03  0.65617708840E+03  0.50400000000E-02 0.  1.
          1   -1    0    0  501    0  0.00000000000E+00 -0.00000000000E+00 -0.72229429848E+03  0.72229429850E+03  0.50400000000E-02 0. -1.
    8880023    1    1    2    0    0 -0.40586485776E+02  0.33680819812E+03 -0.43114908274E+03  0.85719703859E+03  0.65864270000E+03 0. -1.
    8880022    1    1    2    0    0  0.40586485776E+02 -0.33680819812E+03  0.36503187264E+03  0.52127434831E+03  0.15294330000E+03 0.  0.
<mgrwt>
<rscale>  0 0.62370899E+03</rscale>
<asrwt>0</asrwt>
<pdfrwt beam="1">  1        1 0.11112220E+00 0.74087599E+03</pdfrwt>
<pdfrwt beam="2">  1       -1 0.10095032E+00 0.74087599E+03</pdfrwt>
<totfact> 0.24870092E+01</totfact>
</mgrwt>
</event>
<event>
 4    1  0.1521315E-007  0.6779969E+03  0.7818608E-02  0.1010480E+00
          1   -1    0    0  501    0  0.00000000000E+00  0.00000000000E+00  0.16634477574E+04  0.16634477574E+04  0.50400000000E-02 0. -1.
         -1   -1    0    0    0  501 -0.00000000000E+00 -0.00000000000E+00 -0.23706213858E+03  0.23706213864E+03  0.50400000000E-02 0.  1.
    8880023    1    1    2    0    0  0.50371321625E+02 -0.15274915372E+03  0.15163487042E+04  0.16610217256E+04  0.65864270000E+03 0. -1.
    8880022    1    1    2    0    0 -0.50371321625E+02  0.15274915372E+03 -0.89963085417E+02  0.23948817039E+03  0.15294330000E+03 0.  0.
<mgrwt>
<rscale>  0 0.51284241E+03</rscale>
<asrwt>0</asrwt>
<pdfrwt beam="1">  1        1 0.25591505E+00 0.67799689E+03</pdfrwt>
<pdfrwt beam="2">  1       -1 0.36471097E-01 0.67799689E+03</pdfrwt>
<totfact> 0.37873810E+01</totfact>
</mgrwt>
</event>
<event>
 4    1  0.1521315E-007  0.7413153E+03  0.7818608E-02  0.9856132E-01
         -1   -1    0    0    0  501 -0.00000000000E+00  0.00000000000E+00  0.25510306578E+03  0.25510306583E+03  0.50400000000E-02 0.  1.
          1   -1    0    0  501    0  0.00000000000E+00 -0.00000000000E+00 -0.24794398217E+04  0.24794398217E+04  0.50400000000E-02 0. -1.
    8880023    1    1    2    0    0 -0.30229623021E+03 -0.15606118322E+03 -0.22417436443E+04  0.23611359293E+04  0.65864270000E+03 0. -1.
    8880022    1    1    2    0    0  0.30229623021E+03  0.15606118322E+03  0.17406888330E+02  0.37340695827E+03  0.15294330000E+03 0.  0.
<mgrwt>
<rscale>  0 0.62435229E+03</rscale>
<asrwt>0</asrwt>
<pdfrwt beam="1">  1        1 0.38145226E+00 0.74131526E+03</pdfrwt>
<pdfrwt beam="2">  1       -1 0.39246627E-01 0.74131526E+03</pdfrwt>
<totfact> 0.93171532E+00</totfact>
</mgrwt>
</event>
<event>
 4    1  0.1521315E-007  0.1157663E+04  0.7818608E-02  0.9199417E-01
         -1   -1    0    0    0  501 -0.00000000000E+00  0.00000000000E+00  0.68817686057E+03  0.68817686059E+03  0.50400000000E-02 0.  1.
          1   -1    0    0  501    0  0.00000000000E+00 -0.00000000000E+00 -0.32460139990E+04  0.32460139990E+04  0.50400000000E-02 0. -1.
    8880023    1    1    2    0    0 -0.62443052213E+03 -0.71865161504E+03  0.44949434295E+02  0.11585354024E+04  0.65864270000E+03 0.  0.
    8880022    1    1    2    0    0  0.62443052213E+03  0.71865161504E+03 -0.26027865728E+04  0.27756554572E+04  0.15294330000E+03 0.  1.
<mgrwt>
<rscale>  0 0.11059444E+04</rscale>
<asrwt>0</asrwt>
<pdfrwt beam="1">  1        1 0.49938676E+00 0.11576631E+04</pdfrwt>
<pdfrwt beam="2">  1       -1 0.10587336E+00 0.11576631E+04</pdfrwt>
<totfact> 0.32968184E-01</totfact>
</mgrwt>
</event>
<event>
 4    1  0.1521315E-007  0.1242972E+04  0.7818608E-02  0.9116442E-01
         -1   -1    0    0    0  501 -0.00000000000E+00  0.00000000000E+00  0.13847577892E+04  0.13847577892E+04  0.50400000000E-02 0.  1.
          1   -1    0    0  501    0  0.00000000000E+00 -0.00000000000E+00 -0.21072565995E+04  0.21072565996E+04  0.50400000000E-02 0. -1.
    8880023    1    1    2    0    0 -0.95015160826E+03 -0.45648824288E+03 -0.16594952947E+04  0.20733799541E+04  0.65864270000E+03 0.  0.
    8880022    1    1    2    0    0  0.95015160826E+03  0.45648824288E+03  0.93699648439E+03  0.14186344347E+04  0.15294330000E+03 0.  0.
<mgrwt>
<rscale>  0 0.11959129E+04</rscale>
<asrwt>0</asrwt>
<pdfrwt beam="1">  1        1 0.32419332E+00 0.12429722E+04</pdfrwt>
<pdfrwt beam="2">  1       -1 0.21303966E+00 0.12429722E+04</pdfrwt>
<totfact> 0.30158164E-01</totfact>
</mgrwt>
</event>
<event>
 4    1  0.1521315E-007  0.9398204E+03  0.7818608E-02  0.9464914E-01
          1   -1    0    0  501    0  0.00000000000E+00  0.00000000000E+00  0.98239829578E+03  0.98239829579E+03  0.50400000000E-02 0. -1.
         -1   -1    0    0    0  501 -0.00000000000E+00 -0.00000000000E+00 -0.10168665069E+04  0.10168665069E+04  0.50400000000E-02 0.  1.
    8880023    1    1    2    0    0 -0.66945089536E+03 -0.35884069691E+02 -0.59480972195E+03  0.11122324305E+04  0.65864270000E+03 0.  0.
    8880022    1    1    2    0    0  0.66945089536E+03  0.35884069691E+02  0.56034151079E+03  0.88703237229E+03  0.15294330000E+03 0.  0.
<mgrwt>
<rscale>  0 0.86920730E+03</rscale>
<asrwt>0</asrwt>
<pdfrwt beam="1">  1        1 0.15113820E+00 0.93982039E+03</pdfrwt>
<pdfrwt beam="2">  1       -1 0.15644100E+00 0.93982039E+03</pdfrwt>
<totfact> 0.49071559E+00</totfact>
</mgrwt>
</event>
<event>
 4    1  0.1521315E-007  0.8607735E+03  0.7818608E-02  0.9592189E-01
          1   -1    0    0  501    0  0.00000000000E+00  0.00000000000E+00  0.12125383399E+04  0.12125383400E+04  0.50400000000E-02 0. -1.
         -1   -1    0    0    0  501 -0.00000000000E+00 -0.00000000000E+00 -0.44432829740E+03  0.44432829743E+03  0.50400000000E-02 0.  1.
    8880023    1    1    2    0    0  0.19218274560E+03 -0.51979473897E+03  0.62686760695E+03  0.10648445808E+04  0.65864270000E+03 0.  0.
    8880022    1    1    2    0    0 -0.19218274560E+03  0.51979473897E+03  0.14134243559E+03  0.59202205658E+03  0.15294330000E+03 0.  0.
<mgrwt>
<rscale>  0 0.77815325E+03</rscale>
<asrwt>0</asrwt>
<pdfrwt beam="1">  1        1 0.18654436E+00 0.86077348E+03</pdfrwt>
<pdfrwt beam="2">  1       -1 0.68358200E-01 0.86077348E+03</pdfrwt>
<totfact> 0.23060811E+01</totfact>
</mgrwt>
</event>
<event>
 4    1  0.1521315E-007  0.7989690E+03  0.7818608E-02  0.9713030E-01
          1   -1    0    0  501    0  0.00000000000E+00  0.00000000000E+00  0.31303892152E+04  0.31303892152E+04  0.50400000000E-02 0. -1.
         -1   -1    0    0    0  501 -0.00000000000E+00 -0.00000000000E+00 -0.24940481481E+03  0.24940481486E+03  0.50400000000E-02 0.  1.
    8880023    1    1    2    0    0  0.43486726097E+03 -0.12422454642E+03  0.27790358867E+04  0.28916071550E+04  0.65864270000E+03 0.  0.
    8880022    1    1    2    0    0 -0.43486726097E+03  0.12422454642E+03  0.10194851368E+03  0.48818687513E+03  0.15294330000E+03 0.  0.
<mgrwt>
<rscale>  0 0.70246281E+03</rscale>
<asrwt>0</asrwt>
<pdfrwt beam="1">  1        1 0.48159830E+00 0.79896901E+03</pdfrwt>
<pdfrwt beam="2">  1       -1 0.38369975E-01 0.79896901E+03</pdfrwt>
<totfact> 0.33493123E+00</totfact>
</mgrwt>
</event>
<event>
 4    1  0.1521315E-007  0.6862786E+03  0.7818608E-02  0.1005974E+00
         -1   -1    0    0    0  501 -0.00000000000E+00  0.00000000000E+00  0.21862005657E+03  0.21862005663E+03  0.50400000000E-02 0.  1.
          1   -1    0    0  501    0  0.00000000000E+00 -0.00000000000E+00 -0.24663097919E+04  0.24663097919E+04  0.50400000000E-02 0. -1.
    8880023    1    1    2    0    0  0.15249529610E+03  0.11795449067E+03 -0.23272271067E+04  0.24263067179E+04  0.65864270000E+03 0. -1.
    8880022    1    1    2    0    0 -0.15249529610E+03 -0.11795449067E+03  0.79537371386E+02  0.25862313056E+03  0.15294330000E+03 0.  0.
<mgrwt>
<rscale>  0 0.53106579E+03</rscale>
<asrwt>0</asrwt>
<pdfrwt beam="1">  1        1 0.37943226E+00 0.68627858E+03</pdfrwt>
<pdfrwt beam="2">  1       -1 0.33633857E-01 0.68627858E+03</pdfrwt>
<totfact> 0.12654322E+01</totfact>
</mgrwt>
</event>
<event>
 4    1  0.1521315E-007  0.7657316E+03  0.7818608E-02  0.9790489E-01
         -1   -1    0    0    0  501 -0.00000000000E+00  0.00000000000E+00  0.42034694901E+03  0.42034694904E+03  0.50400000000E-02 0.  1.
          1   -1    0    0  501    0  0.00000000000E+00 -0.00000000000E+00 -0.15503719846E+04  0.15503719846E+04  0.50400000000E-02 0. -1.
    8880023    1    1    2    0    0  0.19645044456E+03 -0.33755279253E+03 -0.13075462285E+04  0.15152630171E+04  0.65864270000E+03 0.  0.
    8880022    1    1    2    0    0 -0.19645044456E+03  0.33755279253E+03  0.17752119299E+03  0.45545591652E+03  0.15294330000E+03 0.  0.
<mgrwt>
<rscale>  0 0.65875477E+03</rscale>
<asrwt>0</asrwt>
<pdfrwt beam="1">  1        1 0.23851876E+00 0.76573159E+03</pdfrwt>
<pdfrwt beam="2">  1       -1 0.64668762E-01 0.76573159E+03</pdfrwt>
<totfact> 0.15144168E+01</totfact>
</mgrwt>
</event>
<event>
 4    1  0.1521315E-007  0.7373358E+03  0.7818608E-02  0.9867777E-01
         -1   -1    0    0    0  501 -0.00000000000E+00  0.00000000000E+00  0.37304180937E+03  0.37304180940E+03  0.50400000000E-02 0.  1.
          1   -1    0    0  501    0  0.00000000000E+00 -0.00000000000E+00 -0.28191220487E+04  0.28191220487E+04  0.50400000000E-02 0. -1.
    8880023    1    1    2    0    0 -0.19173049195E+03  0.27035782166E+03 -0.26659475433E+04  0.27660333409E+04  0.65864270000E+03 0. -1.
    8880022    1    1    2    0    0  0.19173049195E+03 -0.27035782166E+03  0.21986730398E+03  0.42613051716E+03  0.15294330000E+03 0.  0.
<mgrwt>
<rscale>  0 0.61848705E+03</rscale>
<asrwt>0</asrwt>
<pdfrwt beam="1">  1        1 0.43371107E+00 0.73733584E+03</pdfrwt>
<pdfrwt beam="2">  1       -1 0.57391049E-01 0.73733584E+03</pdfrwt>
<totfact> 0.26611433E+00</totfact>
</mgrwt>
</event>
<event>
 4    1  0.1521315E-007  0.1039701E+04  0.7818608E-02  0.9331366E-01
          1   -1    0    0  501    0  0.00000000000E+00  0.00000000000E+00  0.16939810440E+04  0.16939810440E+04  0.50400000000E-02 0. -1.
         -1   -1    0    0    0  501 -0.00000000000E+00 -0.00000000000E+00 -0.87655154605E+03  0.87655154606E+03  0.50400000000E-02 0.  1.
    8880023    1    1    2    0    0  0.58652298879E+03  0.55059804066E+03  0.12649090287E+04  0.16373675445E+04  0.65864270000E+03 0.  0.
    8880022    1    1    2    0    0 -0.58652298879E+03 -0.55059804066E+03 -0.44747953074E+03  0.93316504553E+03  0.15294330000E+03 0.  0.
<mgrwt>
<rscale>  0 0.97945817E+03</rscale>
<asrwt>0</asrwt>
<pdfrwt beam="1">  1        1 0.26061247E+00 0.10397007E+04</pdfrwt>
<pdfrwt beam="2">  1       -1 0.13485408E+00 0.10397007E+04</pdfrwt>
<totfact> 0.22264916E+00</totfact>
</mgrwt>
</event>
<event>
 4    1  0.1521315E-007  0.7712603E+03  0.7818608E-02  0.9776782E-01
         -1   -1    0    0    0  501 -0.00000000000E+00  0.00000000000E+00  0.28561137290E+03  0.28561137295E+03  0.50400000000E-02 0.  1.
          1   -1    0    0  501    0  0.00000000000E+00 -0.00000000000E+00 -0.21967958524E+04  0.21967958524E+04  0.50400000000E-02 0. -1.
    8880023    1    1    2    0    0 -0.35754915227E+03 -0.18218365332E+03 -0.19024839439E+04  0.20528730217E+04  0.65864270000E+03 0.  0.
    8880022    1    1    2    0    0  0.35754915227E+03  0.18218365332E+03 -0.87005355749E+01  0.42953420371E+03  0.15294330000E+03 0.  0.
<mgrwt>
<rscale>  0 0.66623570E+03</rscale>
<asrwt>0</asrwt>
<pdfrwt beam="1">  1        1 0.33796858E+00 0.77126032E+03</pdfrwt>
<pdfrwt beam="2">  1       -1 0.43940213E-01 0.77126032E+03</pdfrwt>
<totfact> 0.11707419E+01</totfact>
</mgrwt>
</event>
<event>
 4    1  0.1521315E-007  0.6935369E+03  0.7818608E-02  0.1002515E+00
         -1   -1    0    0    0  501 -0.00000000000E+00  0.00000000000E+00  0.14466699282E+03  0.14466699290E+03  0.50400000000E-02 0.  1.
          1   -1    0    0  501    0  0.00000000000E+00 -0.00000000000E+00 -0.28608055614E+04  0.28608055614E+04  0.50400000000E-02 0. -1.
    8880023    1    1    2    0    0 -0.15360196300E+03  0.15358946239E+03 -0.26393340728E+04  0.27289334620E+04  0.65864270000E+03 0. -1.
    8880022    1    1    2    0    0  0.15360196300E+03 -0.15358946239E+03 -0.76804495823E+02  0.27653909233E+03  0.15294330000E+03 0.  0.
<mgrwt>
<rscale>  0 0.54561150E+03</rscale>
<asrwt>0</asrwt>
<pdfrwt beam="1">  1        1 0.44012389E+00 0.69353694E+03</pdfrwt>
<pdfrwt beam="2">  1       -1 0.22256463E-01 0.69353694E+03</pdfrwt>
<totfact> 0.13737535E+01</totfact>
</mgrwt>
</event>
<event>
 4    1  0.1521315E-007  0.7159507E+03  0.7818608E-02  0.9936533E-01
          1   -1    0    0  501    0  0.00000000000E+00  0.00000000000E+00  0.92606728034E+03  0.92606728035E+03  0.50400000000E-02 0. -1.
         -1   -1    0    0    0  501 -0.00000000000E+00 -0.00000000000E+00 -0.20164843528E+04  0.20164843528E+04  0.50400000000E-02 0.  1.
    8880023    1    1    2    0    0  0.15571870762E+03  0.23350987147E+03  0.77201096237E+03  0.10528942531E+04  0.65864270000E+03 0. -1.
    8880022    1    1    2    0    0 -0.15571870762E+03 -0.23350987147E+03 -0.18624280349E+04  0.18896573801E+04  0.15294330000E+03 0.  0.
<mgrwt>
<rscale>  0 0.58522931E+03</rscale>
<asrwt>0</asrwt>
<pdfrwt beam="1">  1        1 0.14247189E+00 0.71595068E+03</pdfrwt>
<pdfrwt beam="2">  1       -1 0.31022836E+00 0.71595068E+03</pdfrwt>
<totfact> 0.52592640E-01</totfact>
</mgrwt>
</event>
<event>
 4    1  0.1521315E-007  0.1151802E+04  0.7818608E-02  0.9205460E-01
          1   -1    0    0  501    0  0.00000000000E+00  0.00000000000E+00  0.18765781753E+04  0.18765781753E+04  0.50400000000E-02 0. -1.
         -1   -1    0    0    0  501 -0.00000000000E+00 -0.00000000000E+00 -0.18024866192E+04  0.18024866192E+04  0.50400000000E-02 0.  1.
    8880023    1    1    2    0    0  0.91092759187E+03  0.25109654921E+03  0.15431939776E+04  0.19256418185E+04  0.65864270000E+03 0.  0.
    8880022    1    1    2    0    0 -0.91092759187E+03 -0.25109654921E+03 -0.14691024215E+04  0.17534229759E+04  0.15294330000E+03 0.  0.
<mgrwt>
<rscale>  0 0.10997249E+04</rscale>
<asrwt>0</asrwt>
<pdfrwt beam="1">  1        1 0.28870433E+00 0.11518024E+04</pdfrwt>
<pdfrwt beam="2">  1       -1 0.27730563E+00 0.11518024E+04</pdfrwt>
<totfact> 0.16599011E-01</totfact>
</mgrwt>
</event>
<event>
 4    1  0.1521315E-007  0.7989697E+03  0.7818608E-02  0.9713028E-01
         -1   -1    0    0    0  501 -0.00000000000E+00  0.00000000000E+00  0.33994065334E+03  0.33994065338E+03  0.50400000000E-02 0.  1.
          1   -1    0    0  501    0  0.00000000000E+00 -0.00000000000E+00 -0.16260540485E+04  0.16260540485E+04  0.50400000000E-02 0. -1.
    8880023    1    1    2    0    0 -0.87999234561E+02 -0.44361980108E+03 -0.12547624426E+04  0.14875420622E+04  0.65864270000E+03 0. -1.
    8880022    1    1    2    0    0  0.87999234561E+02  0.44361980108E+03 -0.31350952569E+02  0.47845263970E+03  0.15294330000E+03 0.  0.
<mgrwt>
<rscale>  0 0.70246370E+03</rscale>
<asrwt>0</asrwt>
<pdfrwt beam="1">  1        1 0.25016216E+00 0.79896971E+03</pdfrwt>
<pdfrwt beam="2">  1       -1 0.52298563E-01 0.79896971E+03</pdfrwt>
<totfact> 0.20302368E+01</totfact>
</mgrwt>
</event>
<event>
 4    1  0.1521315E-007  0.8415701E+03  0.7818608E-02  0.9627227E-01
          1   -1    0    0  501    0  0.00000000000E+00  0.00000000000E+00  0.42006429702E+03  0.42006429705E+03  0.50400000000E-02 0. -1.
         -1   -1    0    0    0  501 -0.00000000000E+00 -0.00000000000E+00 -0.17528095476E+04  0.17528095476E+04  0.50400000000E-02 0.  1.
    8880023    1    1    2    0    0  0.76134024998E+02  0.51829872042E+03 -0.12926409201E+03  0.85143958394E+03  0.65864270000E+03 0.  0.
    8880022    1    1    2    0    0 -0.76134024998E+02 -0.51829872042E+03 -0.12034811586E+04  0.13214342607E+04  0.15294330000E+03 0.  0.
<mgrwt>
<rscale>  0 0.75520043E+03</rscale>
<asrwt>0</asrwt>
<pdfrwt beam="1">  1        1 0.64625278E-01 0.84157006E+03</pdfrwt>
<pdfrwt beam="2">  1       -1 0.26966300E+00 0.84157006E+03</pdfrwt>
<totfact> 0.30088474E+00</totfact>
</mgrwt>
</event>
<event>
 4    1  0.1521315E-007  0.8930236E+03  0.7818608E-02  0.9537325E-01
         -1   -1    0    0    0  501 -0.00000000000E+00  0.00000000000E+00  0.18314045230E+04  0.18314045230E+04  0.50400000000E-02 0.  1.
          1   -1    0    0  501    0  0.00000000000E+00 -0.00000000000E+00 -0.46940894517E+03  0.46940894520E+03  0.50400000000E-02 0. -1.
    8880023    1    1    2    0    0 -0.20299697733E+03 -0.56786722053E+03  0.10615437353E+03  0.89931079736E+03  0.65864270000E+03 0. -1.
    8880022    1    1    2    0    0  0.20299697733E+03  0.56786722053E+03  0.12558412043E+04  0.14015026709E+04  0.15294330000E+03 0.  0.
<mgrwt>
<rscale>  0 0.81587055E+03</rscale>
<asrwt>0</asrwt>
<pdfrwt beam="1">  1        1 0.72216763E-01 0.89302361E+03</pdfrwt>
<pdfrwt beam="2">  1       -1 0.28175454E+00 0.89302361E+03</pdfrwt>
<totfact> 0.21511073E+00</totfact>
</mgrwt>
</event>
<event>
 4    1  0.1521315E-007  0.7130395E+03  0.7818608E-02  0.9946883E-01
         -1   -1    0    0    0  501 -0.00000000000E+00  0.00000000000E+00  0.78164996998E+03  0.78164997000E+03  0.50400000000E-02 0.  1.
          1   -1    0    0  501    0  0.00000000000E+00 -0.00000000000E+00 -0.19993303761E+04  0.19993303761E+04  0.50400000000E-02 0. -1.
    8880023    1    1    2    0    0 -0.86649559335E+02 -0.25905014895E+03 -0.19004764196E+04  0.20298364352E+04  0.65864270000E+03 0. -1.
    8880022    1    1    2    0    0  0.86649559335E+02  0.25905014895E+03  0.68279601352E+03  0.75114391091E+03  0.15294330000E+03 0.  0.
<mgrwt>
<rscale>  0 0.58041978E+03</rscale>
<asrwt>0</asrwt>
<pdfrwt beam="1">  1        1 0.30758929E+00 0.71303950E+03</pdfrwt>
<pdfrwt beam="2">  1       -1 0.12025384E+00 0.71303950E+03</pdfrwt>
<totfact> 0.19522972E+00</totfact>
</mgrwt>
</event>
<event>
 4    1  0.1521315E-007  0.8038616E+03  0.7818608E-02  0.9702508E-01
         -1   -1    0    0    0  501 -0.00000000000E+00  0.00000000000E+00  0.16153990639E+04  0.16153990639E+04  0.50400000000E-02 0.  1.
          1   -1    0    0  501    0  0.00000000000E+00 -0.00000000000E+00 -0.31541260283E+03  0.31541260287E+03  0.50400000000E-02 0. -1.
    8880023    1    1    2    0    0  0.40955917633E+03 -0.21129249811E+03  0.11848118194E+04  0.14317725002E+04  0.65864270000E+03 0.  1.
    8880022    1    1    2    0    0 -0.40955917633E+03  0.21129249811E+03  0.11517464166E+03  0.49903916657E+03  0.15294330000E+03 0.  0.
<mgrwt>
<rscale>  0 0.70867669E+03</rscale>
<asrwt>0</asrwt>
<pdfrwt beam="1">  1        1 0.48525015E-01 0.80386158E+03</pdfrwt>
<pdfrwt beam="2">  1       -1 0.24852294E+00 0.80386158E+03</pdfrwt>
<totfact> 0.60342255E+00</totfact>
</mgrwt>
</event>
<event>
 4    1  0.1521315E-007  0.1079078E+04  0.7818608E-02  0.9284716E-01
         -1   -1    0    0    0  501 -0.00000000000E+00  0.00000000000E+00  0.17739103415E+04  0.17739103415E+04  0.50400000000E-02 0.  1.
          1   -1    0    0  501    0  0.00000000000E+00 -0.00000000000E+00 -0.62948562164E+03  0.62948562166E+03  0.50400000000E-02 0. -1.
    8880023    1    1    2    0    0 -0.79079985527E+03 -0.32439752533E+03  0.10893472450E+04  0.15333250771E+04  0.65864270000E+03 0.  1.
    8880022    1    1    2    0    0  0.79079985527E+03  0.32439752533E+03  0.55077474836E+02  0.87007088607E+03  0.15294330000E+03 0.  0.
<mgrwt>
<rscale>  0 0.10220218E+04</rscale>
<asrwt>0</asrwt>
<pdfrwt beam="1">  1        1 0.96843940E-01 0.10790776E+04</pdfrwt>
<pdfrwt beam="2">  1       -1 0.27290929E+00 0.10790776E+04</pdfrwt>
<totfact> 0.15809693E+00</totfact>
</mgrwt>
</event>
<event>
 4    1  0.1521315E-007  0.8861592E+03  0.7818608E-02  0.9548626E-01
         -1   -1    0    0    0  501 -0.00000000000E+00  0.00000000000E+00  0.52335135935E+03  0.52335135937E+03  0.50400000000E-02 0.  1.
          1   -1    0    0  501    0  0.00000000000E+00 -0.00000000000E+00 -0.13327286607E+04  0.13327286607E+04  0.50400000000E-02 0. -1.
    8880023    1    1    2    0    0  0.27048438300E+03 -0.52754725161E+03 -0.86872610925E+03  0.12409525226E+04  0.65864270000E+03 0. -1.
    8880022    1    1    2    0    0 -0.27048438300E+03  0.52754725161E+03  0.59348807939E+02  0.61512749747E+03  0.15294330000E+03 0.  0.
<mgrwt>
<rscale>  0 0.80791818E+03</rscale>
<asrwt>0</asrwt>
<pdfrwt beam="1">  1        1 0.20503518E+00 0.88615919E+03</pdfrwt>
<pdfrwt beam="2">  1       -1 0.80515595E-01 0.88615919E+03</pdfrwt>
<totfact> 0.13413830E+01</totfact>
</mgrwt>
</event>
<event>
 4    1  0.1521315E-007  0.6609549E+03  0.7818608E-02  0.1023199E+00
         -1   -1    0    0    0  501 -0.00000000000E+00  0.00000000000E+00  0.15389415213E+03  0.15389415222E+03  0.50400000000E-02 0.  1.
          1   -1    0    0  501    0  0.00000000000E+00 -0.00000000000E+00 -0.11238804713E+04  0.11238804713E+04  0.50400000000E-02 0. -1.
    8880023    1    1    2    0    0  0.38291868079E+02 -0.39810912901E+02 -0.84434969643E+03  0.10722815825E+04  0.65864270000E+03 0. -1.
    8880022    1    1    2    0    0 -0.38291868079E+02  0.39810912901E+02 -0.12563662277E+03  0.20549304111E+03  0.15294330000E+03 0.  0.
<mgrwt>
<rscale>  0 0.46549751E+03</rscale>
<asrwt>0</asrwt>
<pdfrwt beam="1">  1        1 0.17290468E+00 0.66095490E+03</pdfrwt>
<pdfrwt beam="2">  1       -1 0.23676024E-01 0.66095490E+03</pdfrwt>
<totfact> 0.19098320E+02</totfact>
</mgrwt>
</event>
<event>
 4    1  0.1521315E-007  0.1088446E+04  0.7818608E-02  0.9274030E-01
          1   -1    0    0  501    0  0.00000000000E+00  0.00000000000E+00  0.14713302846E+04  0.14713302846E+04  0.50400000000E-02 0. -1.
         -1   -1    0    0    0  501 -0.00000000000E+00 -0.00000000000E+00 -0.12651924295E+04  0.12651924295E+04  0.50400000000E-02 0.  1.
    8880023    1    1    2    0    0 -0.77894232848E+03  0.37967568755E+03  0.10535945941E+04  0.15148519908E+04  0.65864270000E+03 0.  0.
    8880022    1    1    2    0    0  0.77894232848E+03 -0.37967568755E+03 -0.84745673900E+03  0.12216707234E+04  0.15294330000E+03 0.  0.
<mgrwt>
<rscale>  0 0.10320925E+04</rscale>
<asrwt>0</asrwt>
<pdfrwt beam="1">  1        1 0.22635850E+00 0.10884461E+04</pdfrwt>
<pdfrwt beam="2">  1       -1 0.19464499E+00 0.10884461E+04</pdfrwt>
<totfact> 0.11162126E+00</totfact>
</mgrwt>
</event>
<event>
 4    1  0.1521315E-007  0.6794159E+03  0.7818608E-02  0.1009656E+00
          1   -1    0    0  501    0  0.00000000000E+00  0.00000000000E+00  0.18548730408E+04  0.18548730408E+04  0.50400000000E-02 0. -1.
         -1   -1    0    0    0  501 -0.00000000000E+00 -0.00000000000E+00 -0.28809410586E+03  0.28809410590E+03  0.50400000000E-02 0.  1.
    8880023    1    1    2    0    0  0.14276574565E+03 -0.86102834083E+02  0.17335256402E+04  0.18619122181E+04  0.65864270000E+03 0. -1.
    8880022    1    1    2    0    0 -0.14276574565E+03  0.86102834083E+02 -0.16674670530E+03  0.28105492864E+03  0.15294330000E+03 0.  0.
<mgrwt>
<rscale>  0 0.51611582E+03</rscale>
<asrwt>0</asrwt>
<pdfrwt beam="1">  1        1 0.28536508E+00 0.67941590E+03</pdfrwt>
<pdfrwt beam="2">  1       -1 0.44322170E-01 0.67941590E+03</pdfrwt>
<totfact> 0.19777502E+01</totfact>
</mgrwt>
</event>
<event>
 4    1  0.1521315E-007  0.6716286E+03  0.7818608E-02  0.1014521E+00
         -1   -1    0    0    0  501 -0.00000000000E+00  0.00000000000E+00  0.51598053254E+03  0.51598053257E+03  0.50400000000E-02 0.  1.
          1   -1    0    0  501    0  0.00000000000E+00 -0.00000000000E+00 -0.94709851758E+03  0.94709851759E+03  0.50400000000E-02 0. -1.
    8880023    1    1    2    0    0 -0.11204528152E+03 -0.68706507962E+02 -0.79885802891E+03  0.10436757571E+04  0.65864270000E+03 0. -1.
    8880022    1    1    2    0    0  0.11204528152E+03  0.68706507962E+02  0.36774004387E+03  0.41940329306E+03  0.15294330000E+03 0.  0.
<mgrwt>
<rscale>  0 0.49716588E+03</rscale>
<asrwt>0</asrwt>
<pdfrwt beam="1">  1        1 0.14570746E+00 0.67162857E+03</pdfrwt>
<pdfrwt beam="2">  1       -1 0.79381620E-01 0.67162857E+03</pdfrwt>
<totfact> 0.27397243E+01</totfact>
</mgrwt>
</event>
<event>
 4    1  0.1521315E-007  0.6999056E+03  0.7818608E-02  0.9997593E-01
          1   -1    0    0  501    0  0.00000000000E+00  0.00000000000E+00  0.10244493832E+04  0.10244493832E+04  0.50400000000E-02 0. -1.
         -1   -1    0    0    0  501 -0.00000000000E+00 -0.00000000000E+00 -0.41538939913E+03  0.41538939916E+03  0.50400000000E-02 0.  1.
    8880023    1    1    2    0    0  0.36352734157E+02 -0.23395745358E+03  0.82708970628E+03  0.10834875172E+04  0.65864270000E+03 0. -1.
    8880022    1    1    2    0    0 -0.36352734157E+02  0.23395745358E+03 -0.21802972227E+03  0.35635126515E+03  0.15294330000E+03 0.  0.
<mgrwt>
<rscale>  0 0.55755899E+03</rscale>
<asrwt>0</asrwt>
<pdfrwt beam="1">  1        1 0.15760759E+00 0.69990558E+03</pdfrwt>
<pdfrwt beam="2">  1       -1 0.63906062E-01 0.69990558E+03</pdfrwt>
<totfact> 0.37103230E+01</totfact>
</mgrwt>
</event>
<event>
 4    1  0.1521315E-007  0.7975035E+03  0.7818608E-02  0.9716220E-01
         -1   -1    0    0    0  501 -0.00000000000E+00  0.00000000000E+00  0.80622755578E+03  0.80622755580E+03  0.50400000000E-02 0.  1.
          1   -1    0    0  501    0  0.00000000000E+00 -0.00000000000E+00 -0.51351589153E+03  0.51351589156E+03  0.50400000000E-02 0. -1.
    8880023    1    1    2    0    0  0.25048255561E+03  0.37344355913E+03  0.87319531267E+02  0.80226959890E+03  0.65864270000E+03 0. -1.
    8880022    1    1    2    0    0 -0.25048255561E+03 -0.37344355913E+03  0.20539213298E+03  0.51747384845E+03  0.15294330000E+03 0.  0.
<mgrwt>
<rscale>  0 0.70059205E+03</rscale>
<asrwt>0</asrwt>
<pdfrwt beam="1">  1        1 0.79002445E-01 0.79750349E+03</pdfrwt>
<pdfrwt beam="2">  1       -1 0.12403501E+00 0.79750349E+03</pdfrwt>
<totfact> 0.24857945E+01</totfact>
</mgrwt>
</event>
<event>
 4    1  0.1521315E-007  0.7410810E+03  0.7818608E-02  0.9856809E-01
          1   -1    0    0  501    0  0.00000000000E+00  0.00000000000E+00  0.17120674199E+04  0.17120674199E+04  0.50400000000E-02 0. -1.
         -1   -1    0    0    0  501 -0.00000000000E+00 -0.00000000000E+00 -0.25547938488E+03  0.25547938492E+03  0.50400000000E-02 0.  1.
    8880023    1    1    2    0    0  0.31876354525E+02 -0.33819343760E+03  0.14089718263E+04  0.15919807526E+04  0.65864270000E+03 0. -1.
    8880022    1    1    2    0    0 -0.31876354525E+02  0.33819343760E+03  0.47616208737E+02  0.37556605220E+03  0.15294330000E+03 0.  0.
<mgrwt>
<rscale>  0 0.62400941E+03</rscale>
<asrwt>0</asrwt>
<pdfrwt beam="1">  1        1 0.26339500E+00 0.74108104E+03</pdfrwt>
<pdfrwt beam="2">  1       -1 0.39304519E-01 0.74108104E+03</pdfrwt>
<totfact> 0.30449420E+01</totfact>
</mgrwt>
</event>
<event>
 4    1  0.1521315E-007  0.7167121E+03  0.7818608E-02  0.9933872E-01
          1   -1    0    0  501    0  0.00000000000E+00  0.00000000000E+00  0.17851901928E+04  0.17851901928E+04  0.50400000000E-02 0. -1.
         -1   -1    0    0    0  501 -0.00000000000E+00 -0.00000000000E+00 -0.48619316498E+03  0.48619316500E+03  0.50400000000E-02 0.  1.
    8880023    1    1    2    0    0  0.69872787426E+02  0.27383163972E+03  0.16479240338E+04  0.17970336115E+04  0.65864270000E+03 0. -1.
    8880022    1    1    2    0    0 -0.69872787426E+02 -0.27383163972E+03 -0.34892700598E+03  0.47434974634E+03  0.15294330000E+03 0.  0.
<mgrwt>
<rscale>  0 0.58647405E+03</rscale>
<asrwt>0</asrwt>
<pdfrwt beam="1">  1        1 0.27464464E+00 0.71671206E+03</pdfrwt>
<pdfrwt beam="2">  1       -1 0.74798950E-01 0.71671206E+03</pdfrwt>
<totfact> 0.78690406E+00</totfact>
</mgrwt>
</event>
<event>
 4    1  0.1521315E-007  0.8145944E+03  0.7818608E-02  0.9680085E-01
          1   -1    0    0  501    0  0.00000000000E+00  0.00000000000E+00  0.89628959530E+03  0.89628959531E+03  0.50400000000E-02 0. -1.
         -1   -1    0    0    0  501 -0.00000000000E+00 -0.00000000000E+00 -0.11833079921E+04  0.11833079921E+04  0.50400000000E-02 0.  1.
    8880023    1    1    2    0    0  0.36929559984E+03  0.30557244853E+03  0.63257268663E+03  0.10313642283E+04  0.65864270000E+03 0. -1.
    8880022    1    1    2    0    0 -0.36929559984E+03 -0.30557244853E+03 -0.91959108346E+03  0.10482333591E+04  0.15294330000E+03 0.  0.
<mgrwt>
<rscale>  0 0.72214982E+03</rscale>
<asrwt>0</asrwt>
<pdfrwt beam="1">  1        1 0.13789071E+00 0.81459436E+03</pdfrwt>
<pdfrwt beam="2">  1       -1 0.18204738E+00 0.81459436E+03</pdfrwt>
<totfact> 0.37899031E+00</totfact>
</mgrwt>
</event>
<event>
 4    1  0.1521315E-007  0.6662727E+03  0.7818608E-02  0.1018489E+00
         -1   -1    0    0    0  501 -0.00000000000E+00  0.00000000000E+00  0.94113622060E+02  0.94113622195E+02  0.50400000000E-02 0.  1.
          1   -1    0    0  501    0  0.00000000000E+00 -0.00000000000E+00 -0.20732144585E+04  0.20732144585E+04  0.50400000000E-02 0. -1.
    8880023    1    1    2    0    0 -0.95122556524E+02 -0.32569091097E+02 -0.17596613952E+04  0.18815757967E+04  0.65864270000E+03 0.  0.
    8880022    1    1    2    0    0  0.95122556524E+02  0.32569091097E+02 -0.21943944116E+03  0.28575228399E+03  0.15294330000E+03 0.  0.
<mgrwt>
<rscale>  0 0.48235938E+03</rscale>
<asrwt>0</asrwt>
<pdfrwt beam="1">  1        1 0.31895604E+00 0.66627266E+03</pdfrwt>
<pdfrwt beam="2">  1       -1 0.14479020E-01 0.66627266E+03</pdfrwt>
<totfact> 0.96422987E+01</totfact>
</mgrwt>
</event>
<event>
 4    1  0.1521315E-007  0.8874780E+03  0.7818608E-02  0.9546440E-01
         -1   -1    0    0    0  501 -0.00000000000E+00  0.00000000000E+00  0.14417454331E+04  0.14417454332E+04  0.50400000000E-02 0.  1.
          1   -1    0    0  501    0  0.00000000000E+00 -0.00000000000E+00 -0.54023531139E+03  0.54023531141E+03  0.50400000000E-02 0. -1.
    8880023    1    1    2    0    0 -0.41941203407E+03 -0.42178265509E+03 -0.44221831026E+01  0.88748905595E+03  0.65864270000E+03 0.  0.
    8880022    1    1    2    0    0  0.41941203407E+03  0.42178265509E+03  0.90593230486E+03  0.10944916886E+04  0.15294330000E+03 0.  0.
<mgrwt>
<rscale>  0 0.80944899E+03</rscale>
<asrwt>0</asrwt>
<pdfrwt beam="1">  1        1 0.83113127E-01 0.88747804E+03</pdfrwt>
<pdfrwt beam="2">  1       -1 0.22180699E+00 0.88747804E+03</pdfrwt>
<totfact> 0.43393179E+00</totfact>
</mgrwt>
</event>
<event>
 4    1  0.1521315E-007  0.8969860E+03  0.7818608E-02  0.9530887E-01
          1   -1    0    0  501    0  0.00000000000E+00  0.00000000000E+00  0.13727185809E+04  0.13727185809E+04  0.50400000000E-02 0. -1.
         -1   -1    0    0    0  501 -0.00000000000E+00 -0.00000000000E+00 -0.50495124203E+03  0.50495124205E+03  0.50400000000E-02 0.  1.
    8880023    1    1    2    0    0  0.60043847125E+03 -0.10122909031E+03  0.87035204472E+03  0.12498386194E+04  0.65864270000E+03 0.  0.
    8880022    1    1    2    0    0 -0.60043847125E+03  0.10122909031E+03 -0.25847058405E+01  0.62783120359E+03  0.15294330000E+03 0.  0.
<mgrwt>
<rscale>  0 0.82044421E+03</rscale>
<asrwt>0</asrwt>
<pdfrwt beam="1">  1        1 0.21118747E+00 0.89698600E+03</pdfrwt>
<pdfrwt beam="2">  1       -1 0.77684807E-01 0.89698600E+03</pdfrwt>
<totfact> 0.13547987E+01</totfact>
</mgrwt>
</event>
<event>
 4    1  0.1521315E-007  0.7685026E+03  0.7818608E-02  0.9783572E-01
          1   -1    0    0  501    0  0.00000000000E+00  0.00000000000E+00  0.22712716306E+03  0.22712716311E+03  0.50400000000E-02 0. -1.
         -1   -1    0    0    0  501 -0.00000000000E+00 -0.00000000000E+00 -0.20920500253E+04  0.20920500253E+04  0.50400000000E-02 0.  1.
    8880023    1    1    2    0    0 -0.28266388321E+03 -0.27728542391E+03 -0.57100937095E+03  0.95741735161E+03  0.65864270000E+03 0.  0.
    8880022    1    1    2    0    0  0.28266388321E+03  0.27728542391E+03 -0.12939134912E+04  0.13617598368E+04  0.15294330000E+03 0.  0.
<mgrwt>
<rscale>  0 0.66251643E+03</rscale>
<asrwt>0</asrwt>
<pdfrwt beam="1">  1        1 0.34942642E-01 0.76850262E+03</pdfrwt>
<pdfrwt beam="2">  1       -1 0.32185384E+00 0.76850262E+03</pdfrwt>
<totfact> 0.31431483E+00</totfact>
</mgrwt>
</event>
<event>
 4    1  0.1521315E-007  0.7353014E+03  0.7818608E-02  0.9873851E-01
          1   -1    0    0  501    0  0.00000000000E+00  0.00000000000E+00  0.16613652597E+04  0.16613652597E+04  0.50400000000E-02 0. -1.
         -1   -1    0    0    0  501 -0.00000000000E+00 -0.00000000000E+00 -0.18636084825E+03  0.18636084832E+03  0.50400000000E-02 0.  1.
    8880023    1    1    2    0    0 -0.24611711724E+03  0.21513794943E+03  0.11318658674E+04  0.13497364634E+04  0.65864270000E+03 0. -1.
    8880022    1    1    2    0    0  0.24611711724E+03 -0.21513794943E+03  0.34313854402E+03  0.49798964456E+03  0.15294330000E+03 0.  1.
<mgrwt>
<rscale>  0 0.61545473E+03</rscale>
<asrwt>0</asrwt>
<pdfrwt beam="1">  1        1 0.25559467E+00 0.73530142E+03</pdfrwt>
<pdfrwt beam="2">  1       -1 0.28670898E-01 0.73530142E+03</pdfrwt>
<totfact> 0.57628195E+01</totfact>
</mgrwt>
</event>
<event>
 4    1  0.1521315E-007  0.7125654E+03  0.7818608E-02  0.9948595E-01
         -1   -1    0    0    0  501 -0.00000000000E+00  0.00000000000E+00  0.27484974294E+04  0.27484974295E+04  0.50400000000E-02 0.  1.
          1   -1    0    0  501    0  0.00000000000E+00 -0.00000000000E+00 -0.20151248717E+03  0.20151248723E+03  0.50400000000E-02 0. -1.
    8880023    1    1    2    0    0  0.23388297126E+03  0.13870096022E+03  0.47893813335E+03  0.85856341784E+03  0.65864270000E+03 0. -1.
    8880022    1    1    2    0    0 -0.23388297126E+03 -0.13870096022E+03  0.20680468089E+04  0.20914464988E+04  0.15294330000E+03 0.  0.
<mgrwt>
<rscale>  0 0.57962866E+03</rscale>
<asrwt>0</asrwt>
<pdfrwt beam="1">  1        1 0.31001922E-01 0.71256537E+03</pdfrwt>
<pdfrwt beam="2">  1       -1 0.42284574E+00 0.71256537E+03</pdfrwt>
<totfact> 0.78893448E-01</totfact>
</mgrwt>
</event>
<event>
 4    1  0.1521315E-007  0.8081829E+03  0.7818608E-02  0.9693374E-01
          1   -1    0    0  501    0  0.00000000000E+00  0.00000000000E+00  0.35289003969E+03  0.35289003973E+03  0.50400000000E-02 0. -1.
         -1   -1    0    0    0  501 -0.00000000000E+00 -0.00000000000E+00 -0.14694527412E+04  0.14694527413E+04  0.50400000000E-02 0.  1.
    8880023    1    1    2    0    0  0.55706991786E+02  0.46502278690E+03 -0.10502520113E+04  0.13252127961E+04  0.65864270000E+03 0.  1.
    8880022    1    1    2    0    0 -0.55706991786E+02 -0.46502278690E+03 -0.66310690233E+02  0.49712998493E+03  0.15294330000E+03 0.  0.
<mgrwt>
<rscale>  0 0.71412655E+03</rscale>
<asrwt>0</asrwt>
<pdfrwt beam="1">  1        1 0.54290776E-01 0.80818294E+03</pdfrwt>
<pdfrwt beam="2">  1       -1 0.22606965E+00 0.80818294E+03</pdfrwt>
<totfact> 0.72972170E+00</totfact>
</mgrwt>
</event>
<event>
 4    1  0.1521315E-007  0.1030665E+04  0.7818608E-02  0.9342494E-01
         -1   -1    0    0    0  501 -0.00000000000E+00  0.00000000000E+00  0.55574829925E+03  0.55574829928E+03  0.50400000000E-02 0.  1.
          1   -1    0    0  501    0  0.00000000000E+00 -0.00000000000E+00 -0.30067603947E+04  0.30067603947E+04  0.50400000000E-02 0. -1.
    8880023    1    1    2    0    0 -0.73536710219E+03  0.29613432217E+03 -0.25487374808E+04  0.27492423073E+04  0.65864270000E+03 0.  0.
    8880022    1    1    2    0    0  0.73536710219E+03 -0.29613432217E+03  0.97725385386E+02  0.81326638669E+03  0.15294330000E+03 0.  0.
<mgrwt>
<rscale>  0 0.96963168E+03</rscale>
<asrwt>0</asrwt>
<pdfrwt beam="1">  1        1 0.46257851E+00 0.10306651E+04</pdfrwt>
<pdfrwt beam="2">  1       -1 0.85499740E-01 0.10306651E+04</pdfrwt>
<totfact> 0.81727091E-01</totfact>
</mgrwt>
</event>
<event>
 4    1  0.1521315E-007  0.7836960E+03  0.7818608E-02  0.9747226E-01
          1   -1    0    0  501    0  0.00000000000E+00  0.00000000000E+00  0.58336651340E+03  0.58336651342E+03  0.50400000000E-02 0. -1.
         -1   -1    0    0    0  501 -0.00000000000E+00 -0.00000000000E+00 -0.13323413075E+04  0.13323413075E+04  0.50400000000E-02 0.  1.
    8880023    1    1    2    0    0  0.19750742258E+03 -0.37597877002E+03  0.24742622418E+03  0.82182672149E+03  0.65864270000E+03 0.  0.
    8880022    1    1    2    0    0 -0.19750742258E+03  0.37597877002E+03 -0.99640101831E+03  0.10938810995E+04  0.15294330000E+03 0.  0.
<mgrwt>
<rscale>  0 0.68273288E+03</rscale>
<asrwt>0</asrwt>
<pdfrwt beam="1">  1        1 0.89748695E-01 0.78369600E+03</pdfrwt>
<pdfrwt beam="2">  1       -1 0.20497559E+00 0.78369600E+03</pdfrwt>
<totfact> 0.51166918E+00</totfact>
</mgrwt>
</event>
<event>
 4    1  0.1521315E-007  0.7599054E+03  0.7818608E-02  0.9805353E-01
         -1   -1    0    0    0  501 -0.00000000000E+00  0.00000000000E+00  0.30785273240E+03  0.30785273244E+03  0.50400000000E-02 0.  1.
          1   -1    0    0  501    0  0.00000000000E+00 -0.00000000000E+00 -0.12875771253E+04  0.12875771253E+04  0.50400000000E-02 0. -1.
    8880023    1    1    2    0    0  0.20402954110E+03  0.31940241199E+03 -0.90194887143E+03  0.11793930335E+04  0.65864270000E+03 0.  0.
    8880022    1    1    2    0    0 -0.20402954110E+03 -0.31940241199E+03 -0.77775521484E+02  0.41603682431E+03  0.15294330000E+03 0.  0.
<mgrwt>
<rscale>  0 0.65076085E+03</rscale>
<asrwt>0</asrwt>
<pdfrwt beam="1">  1        1 0.19808879E+00 0.75990536E+03</pdfrwt>
<pdfrwt beam="2">  1       -1 0.47361959E-01 0.75990536E+03</pdfrwt>
<totfact> 0.42155333E+01</totfact>
</mgrwt>
</event>
<event>
 4    1  0.1521315E-007  0.6602738E+03  0.7818608E-02  0.1023878E+00
         -1   -1    0    0    0  501 -0.00000000000E+00  0.00000000000E+00  0.32031677529E+03  0.32031677533E+03  0.50400000000E-02 0.  1.
          1   -1    0    0  501    0  0.00000000000E+00 -0.00000000000E+00 -0.11797532042E+04  0.11797532042E+04  0.50400000000E-02 0. -1.
    8880023    1    1    2    0    0  0.66623003125E+01  0.45901101171E+02 -0.10568010036E+04  0.12461098927E+04  0.65864270000E+03 0. -1.
    8880022    1    1    2    0    0 -0.66623003125E+01 -0.45901101171E+02  0.19736457468E+03  0.25396008680E+03  0.15294330000E+03 0.  0.
<mgrwt>
<rscale>  0 0.46312896E+03</rscale>
<asrwt>0</asrwt>
<pdfrwt beam="1">  1        1 0.18150049E+00 0.66027381E+03</pdfrwt>
<pdfrwt beam="2">  1       -1 0.49279505E-01 0.66027381E+03</pdfrwt>
<totfact> 0.47274638E+01</totfact>
</mgrwt>
</event>
<event>
 4    1  0.1521315E-007  0.7103454E+03  0.7818608E-02  0.9956721E-01
         -1   -1    0    0    0  501 -0.00000000000E+00  0.00000000000E+00  0.17691933694E+03  0.17691933701E+03  0.50400000000E-02 0.  1.
          1   -1    0    0  501    0  0.00000000000E+00 -0.00000000000E+00 -0.20201895558E+04  0.20201895558E+04  0.50400000000E-02 0. -1.
    8880023    1    1    2    0    0  0.63148846561E+02  0.25844263615E+03 -0.17297218715E+04  0.18699006209E+04  0.65864270000E+03 0. -1.
    8880022    1    1    2    0    0 -0.63148846561E+02 -0.25844263615E+03 -0.11354834733E+03  0.32720827190E+03  0.15294330000E+03 0.  0.
<mgrwt>
<rscale>  0 0.57589382E+03</rscale>
<asrwt>0</asrwt>
<pdfrwt beam="1">  1        1 0.31079838E+00 0.71034539E+03</pdfrwt>
<pdfrwt beam="2">  1       -1 0.27218361E-01 0.71034539E+03</pdfrwt>
<totfact> 0.36370017E+01</totfact>
</mgrwt>
</event>
<event>
 4    1  0.1521315E-007  0.7183268E+03  0.7818608E-02  0.9928289E-01
         -1   -1    0    0    0  501 -0.00000000000E+00  0.00000000000E+00  0.76756446878E+03  0.76756446880E+03  0.50400000000E-02 0.  1.
          1   -1    0    0  501    0  0.00000000000E+00 -0.00000000000E+00 -0.10283019668E+04  0.10283019668E+04  0.50400000000E-02 0. -1.
    8880023    1    1    2    0    0  0.90243449791E+02  0.27210151622E+03 -0.85614148575E+03  0.11175739641E+04  0.65864270000E+03 0. -1.
    8880022    1    1    2    0    0 -0.90243449791E+02 -0.27210151622E+03  0.59540398770E+03  0.67829247153E+03  0.15294330000E+03 0.  0.
<mgrwt>
<rscale>  0 0.58909664E+03</rscale>
<asrwt>0</asrwt>
<pdfrwt beam="1">  1        1 0.15820030E+00 0.71832675E+03</pdfrwt>
<pdfrwt beam="2">  1       -1 0.11808684E+00 0.71832675E+03</pdfrwt>
<totfact> 0.96101246E+00</totfact>
</mgrwt>
</event>
<event>
 4    1  0.1521315E-007  0.1233206E+04  0.7818608E-02  0.9125501E-01
         -1   -1    0    0    0  501 -0.00000000000E+00  0.00000000000E+00  0.11685069730E+04  0.11685069730E+04  0.50400000000E-02 0.  1.
          1   -1    0    0  501    0  0.00000000000E+00 -0.00000000000E+00 -0.14584568196E+04  0.14584568196E+04  0.50400000000E-02 0. -1.
    8880023    1    1    2    0    0 -0.10107274760E+04 -0.25576560716E+03 -0.78590304359E+03  0.14623405474E+04  0.65864270000E+03 0. -1.
    8880022    1    1    2    0    0  0.10107274760E+04  0.25576560716E+03  0.49595319699E+03  0.11646232451E+04  0.15294330000E+03 0.  0.
<mgrwt>
<rscale>  0 0.11856609E+04</rscale>
<asrwt>0</asrwt>
<pdfrwt beam="1">  1        1 0.22437797E+00 0.12332057E+04</pdfrwt>
<pdfrwt beam="2">  1       -1 0.17977030E+00 0.12332057E+04</pdfrwt>
<totfact> 0.14258741E+00</totfact>
</mgrwt>
</event>
<event>
 4    1  0.1521315E-007  0.7130556E+03  0.7818608E-02  0.9946825E-01
         -1   -1    0    0    0  501 -0.00000000000E+00  0.00000000000E+00  0.31720087985E+03  0.31720087989E+03  0.50400000000E-02 0.  1.
          1   -1    0    0  501    0  0.00000000000E+00 -0.00000000000E+00 -0.20513116163E+04  0.20513116163E+04  0.50400000000E-02 0. -1.
    8880023    1    1    2    0    0  0.25751912077E+03  0.91224854916E+02 -0.18890704771E+04  0.20191670425E+04  0.65864270000E+03 0. -1.
    8880022    1    1    2    0    0 -0.25751912077E+03 -0.91224854916E+02  0.15495974073E+03  0.34934545364E+03  0.15294330000E+03 0.  0.
<mgrwt>
<rscale>  0 0.58044659E+03</rscale>
<asrwt>0</asrwt>
<pdfrwt beam="1">  1        1 0.31558639E+00 0.71305559E+03</pdfrwt>
<pdfrwt beam="2">  1       -1 0.48800137E-01 0.71305559E+03</pdfrwt>
<totfact> 0.12155784E+01</totfact>
</mgrwt>
</event>
<event>
 4    1  0.1521315E-007  0.6668374E+03  0.7818608E-02  0.1018039E+00
         -1   -1    0    0    0  501 -0.00000000000E+00  0.00000000000E+00  0.77545127094E+03  0.77545127096E+03  0.50400000000E-02 0.  1.
          1   -1    0    0  501    0  0.00000000000E+00 -0.00000000000E+00 -0.33267957021E+03  0.33267957025E+03  0.50400000000E-02 0. -1.
    8880023    1    1    2    0    0 -0.90088833471E+02 -0.52401377878E+02  0.43743545228E+02  0.66827060861E+03  0.65864270000E+03 0. -1.
    8880022    1    1    2    0    0  0.90088833471E+02  0.52401377878E+02  0.39902815550E+03  0.43986023259E+03  0.15294330000E+03 0.  1.
<mgrwt>
<rscale>  0 0.48400870E+03</rscale>
<asrwt>0</asrwt>
<pdfrwt beam="1">  1        1 0.51181472E-01 0.66683739E+03</pdfrwt>
<pdfrwt beam="2">  1       -1 0.11930020E+00 0.66683739E+03</pdfrwt>
<totfact> 0.49410550E+01</totfact>
</mgrwt>
</event>
<event>
 4    1  0.1521315E-007  0.6656864E+03  0.7818608E-02  0.1018964E+00
          1   -1    0    0  501    0  0.00000000000E+00  0.00000000000E+00  0.76664898034E+03  0.76664898036E+03  0.50400000000E-02 0. -1.
         -1   -1    0    0    0  501 -0.00000000000E+00 -0.00000000000E+00 -0.34341783855E+03  0.34341783859E+03  0.50400000000E-02 0.  1.
    8880023    1    1    2    0    0 -0.14380046082E+02 -0.95505743035E+02  0.57058465937E+03  0.87675834324E+03  0.65864270000E+03 0. -1.
    8880022    1    1    2    0    0  0.14380046082E+02  0.95505743035E+02 -0.14735351758E+03  0.23330847571E+03  0.15294330000E+03 0.  0.
<mgrwt>
<rscale>  0 0.48062190E+03</rscale>
<asrwt>0</asrwt>
<pdfrwt beam="1">  1        1 0.11794600E+00 0.66568637E+03</pdfrwt>
<pdfrwt beam="2">  1       -1 0.52833514E-01 0.66568637E+03</pdfrwt>
<totfact> 0.87716148E+01</totfact>
</mgrwt>
</event>
<event>
 4    1  0.1521315E-007  0.1590028E+04  0.7818608E-02  0.8848548E-01
          1   -1    0    0  501    0  0.00000000000E+00  0.00000000000E+00  0.24774827005E+04  0.24774827005E+04  0.50400000000E-02 0. -1.
         -1   -1    0    0    0  501 -0.00000000000E+00 -0.00000000000E+00 -0.10008325161E+04  0.10008325161E+04  0.50400000000E-02 0.  1.
    8880023    1    1    2    0    0 -0.13320883471E+04  0.56561425842E+03  0.12117829110E+04  0.19991515409E+04  0.65864270000E+03 0.  0.
    8880022    1    1    2    0    0  0.13320883471E+04 -0.56561425842E+03  0.26486727337E+03  0.14791636757E+04  0.15294330000E+03 0.  0.
<mgrwt>
<rscale>  0 0.15552079E+04</rscale>
<asrwt>0</asrwt>
<pdfrwt beam="1">  1        1 0.38115118E+00 0.15900280E+04</pdfrwt>
<pdfrwt beam="2">  1       -1 0.15397423E+00 0.15900280E+04</pdfrwt>
<totfact> 0.42907348E-01</totfact>
</mgrwt>
</event>
<event>
 4    1  0.1813733E-007  0.7655583E+03  0.7818608E-02  0.9790925E-01
          1   -1    0    0  501    0  0.00000000000E+00  0.00000000000E+00  0.25346671066E+04  0.25346671066E+04  0.50400000000E-02 0. -1.
         -1   -1    0    0    0  501 -0.00000000000E+00 -0.00000000000E+00 -0.92931856056E+03  0.92931856057E+03  0.50400000000E-02 0.  1.
    8880023    1    1    2    0    0  0.38153063662E+03  0.81875833809E+02  0.24252289524E+04  0.25431899175E+04  0.65864270000E+03 0. -1.
    8880022    1    1    2    0    0 -0.38153063662E+03 -0.81875833809E+02 -0.81988040635E+03  0.92079574965E+03  0.15294330000E+03 0.  0.
<mgrwt>
<rscale>  0 0.65851867E+03</rscale>
<asrwt>0</asrwt>
<pdfrwt beam="1">  1        1 0.38994879E+00 0.76555828E+03</pdfrwt>
<pdfrwt beam="2">  1       -1 0.14297209E+00 0.76555828E+03</pdfrwt>
<totfact> 0.54282064E-01</totfact>
</mgrwt>
</event>
<event>
 4    1  0.1521315E-007  0.6988997E+03  0.7818608E-02  0.1000180E+00
         -1   -1    0    0    0  501 -0.00000000000E+00  0.00000000000E+00  0.30112271465E+03  0.30112271469E+03  0.50400000000E-02 0.  1.
          1   -1    0    0  501    0  0.00000000000E+00 -0.00000000000E+00 -0.16961228293E+04  0.16961228293E+04  0.50400000000E-02 0. -1.
    8880023    1    1    2    0    0 -0.72198961151E+01  0.23366310727E+03 -0.15336348333E+04  0.16853772820E+04  0.65864270000E+03 0. -1.
    8880022    1    1    2    0    0  0.72198961151E+01 -0.23366310727E+03  0.13863471864E+03  0.31186826198E+03  0.15294330000E+03 0.  0.
<mgrwt>
<rscale>  0 0.55571529E+03</rscale>
<asrwt>0</asrwt>
<pdfrwt beam="1">  1        1 0.26094197E+00 0.69889969E+03</pdfrwt>
<pdfrwt beam="2">  1       -1 0.46326573E-01 0.69889969E+03</pdfrwt>
<totfact> 0.23200786E+01</totfact>
</mgrwt>
</event>
<event>
 4    1  0.1521315E-007  0.7106736E+03  0.7818608E-02  0.9955508E-01
         -1   -1    0    0    0  501 -0.00000000000E+00  0.00000000000E+00  0.45656847252E+03  0.45656847255E+03  0.50400000000E-02 0.  1.
          1   -1    0    0  501    0  0.00000000000E+00 -0.00000000000E+00 -0.90038831683E+03  0.90038831685E+03  0.50400000000E-02 0. -1.
    8880023    1    1    2    0    0  0.26441785778E+03  0.36468083110E+02 -0.66876062174E+03  0.97585741789E+03  0.65864270000E+03 0. -1.
    8880022    1    1    2    0    0 -0.26441785778E+03 -0.36468083110E+02  0.22494077743E+03  0.38109937151E+03  0.15294330000E+03 0.  0.
<mgrwt>
<rscale>  0 0.57644919E+03</rscale>
<asrwt>0</asrwt>
<pdfrwt beam="1">  1        1 0.13852128E+00 0.71067358E+03</pdfrwt>
<pdfrwt beam="2">  1       -1 0.70241304E-01 0.71067358E+03</pdfrwt>
<totfact> 0.38339282E+01</totfact>
</mgrwt>
</event>
<event>
 4    1  0.1521315E-007  0.8112923E+03  0.7818608E-02  0.9686891E-01
          1   -1    0    0  501    0  0.00000000000E+00  0.00000000000E+00  0.75183883196E+03  0.75183883197E+03  0.50400000000E-02 0. -1.
         -1   -1    0    0    0  501 -0.00000000000E+00 -0.00000000000E+00 -0.15001257032E+04  0.15001257032E+04  0.50400000000E-02 0.  1.
    8880023    1    1    2    0    0 -0.47239647571E+03 -0.35022874245E+02  0.46881467815E+03  0.93700717217E+03  0.65864270000E+03 0. -1.
    8880022    1    1    2    0    0  0.47239647571E+03  0.35022874245E+02 -0.12171015494E+04  0.13149573630E+04  0.15294330000E+03 0.  0.
<mgrwt>
<rscale>  0 0.71802668E+03</rscale>
<asrwt>0</asrwt>
<pdfrwt beam="1">  1        1 0.11566751E+00 0.81129233E+03</pdfrwt>
<pdfrwt beam="2">  1       -1 0.23078857E+00 0.81129233E+03</pdfrwt>
<totfact> 0.23507355E+00</totfact>
</mgrwt>
</event>
<event>
 4    1  0.1521315E-007  0.7945572E+03  0.7818608E-02  0.9722690E-01
         -1   -1    0    0    0  501 -0.00000000000E+00  0.00000000000E+00  0.49997814479E+03  0.49997814482E+03  0.50400000000E-02 0.  1.
          1   -1    0    0  501    0  0.00000000000E+00 -0.00000000000E+00 -0.20676783108E+04  0.20676783108E+04  0.50400000000E-02 0. -1.
    8880023    1    1    2    0    0  0.34837364307E+03  0.27594695321E+03 -0.18541623844E+04  0.20172355515E+04  0.65864270000E+03 0.  0.
    8880022    1    1    2    0    0 -0.34837364307E+03 -0.27594695321E+03  0.28646221837E+03  0.55042090417E+03  0.15294330000E+03 0.  0.
<mgrwt>
<rscale>  0 0.69681737E+03</rscale>
<asrwt>0</asrwt>
<pdfrwt beam="1">  1        1 0.31810435E+00 0.79455719E+03</pdfrwt>
<pdfrwt beam="2">  1       -1 0.76919716E-01 0.79455719E+03</pdfrwt>
<totfact> 0.47416945E+00</totfact>
</mgrwt>
</event>
<event>
 4    1  0.1521315E-007  0.7466334E+03  0.7818608E-02  0.9841029E-01
          1   -1    0    0  501    0  0.00000000000E+00  0.00000000000E+00  0.18650983098E+04  0.18650983098E+04  0.50400000000E-02 0. -1.
         -1   -1    0    0    0  501 -0.00000000000E+00 -0.00000000000E+00 -0.30652146718E+03  0.30652146722E+03  0.50400000000E-02 0.  1.
    8880023    1    1    2    0    0  0.31800817026E+03 -0.15007330634E+03  0.16195238796E+04  0.17833448899E+04  0.65864270000E+03 0. -1.
    8880022    1    1    2    0    0 -0.31800817026E+03  0.15007330634E+03 -0.60947036954E+02  0.38827488710E+03  0.15294330000E+03 0.  0.
<mgrwt>
<rscale>  0 0.63206398E+03</rscale>
<asrwt>0</asrwt>
<pdfrwt beam="1">  1        1 0.28693820E+00 0.74663338E+03</pdfrwt>
<pdfrwt beam="2">  1       -1 0.47157149E-01 0.74663338E+03</pdfrwt>
<totfact> 0.17175584E+01</totfact>
</mgrwt>
</event>
<event>
 4    1  0.1521315E-007  0.7664524E+03  0.7818608E-02  0.9788680E-01
         -1   -1    0    0    0  501 -0.00000000000E+00  0.00000000000E+00  0.32312780393E+03  0.32312780397E+03  0.50400000000E-02 0.  1.
          1   -1    0    0  501    0  0.00000000000E+00 -0.00000000000E+00 -0.22416662290E+04  0.22416662290E+04  0.50400000000E-02 0. -1.
    8880023    1    1    2    0    0  0.39154896916E+03  0.18125410196E+02 -0.19949888778E+04  0.21371546399E+04  0.65864270000E+03 0. -1.
    8880022    1    1    2    0    0 -0.39154896916E+03 -0.18125410196E+02  0.76450452819E+02  0.42763939306E+03  0.15294330000E+03 0.  0.
<mgrwt>
<rscale>  0 0.65973573E+03</rscale>
<asrwt>0</asrwt>
<pdfrwt beam="1">  1        1 0.34487172E+00 0.76645243E+03</pdfrwt>
<pdfrwt beam="2">  1       -1 0.49711971E-01 0.76645243E+03</pdfrwt>
<totfact> 0.86762392E+00</totfact>
</mgrwt>
</event>
<event>
 4    1  0.1521315E-007  0.7414878E+03  0.7818608E-02  0.9855634E-01
         -1   -1    0    0    0  501 -0.00000000000E+00  0.00000000000E+00  0.44185622973E+03  0.44185622976E+03  0.50400000000E-02 0.  1.
          1   -1    0    0  501    0  0.00000000000E+00 -0.00000000000E+00 -0.75739761851E+03  0.75739761853E+03  0.50400000000E-02 0. -1.
    8880023    1    1    2    0    0  0.22632633199E+03  0.25450022732E+03 -0.35821019063E+03  0.82347964225E+03  0.65864270000E+03 0. -1.
    8880022    1    1    2    0    0 -0.22632633199E+03 -0.25450022732E+03  0.42668801847E+02  0.37577420604E+03  0.15294330000E+03 0.  1.
<mgrwt>
<rscale>  0 0.62460472E+03</rscale>
<asrwt>0</asrwt>
<pdfrwt beam="1">  1        1 0.11652271E+00 0.74148782E+03</pdfrwt>
<pdfrwt beam="2">  1       -1 0.67977881E-01 0.74148782E+03</pdfrwt>
<totfact> 0.54058870E+01</totfact>
</mgrwt>
</event>
<event>
 4    1  0.1521315E-007  0.9100706E+03  0.7818608E-02  0.9510055E-01
         -1   -1    0    0    0  501 -0.00000000000E+00  0.00000000000E+00  0.15569053161E+04  0.15569053161E+04  0.50400000000E-02 0.  1.
          1   -1    0    0  501    0  0.00000000000E+00 -0.00000000000E+00 -0.67991399399E+03  0.67991399401E+03  0.50400000000E-02 0. -1.
    8880023    1    1    2    0    0  0.34831959157E+03 -0.52258183235E+03 -0.24454059210E+03  0.94235270299E+03  0.65864270000E+03 0. -1.
    8880022    1    1    2    0    0 -0.34831959157E+03  0.52258183235E+03  0.11215319142E+04  0.12944666071E+04  0.15294330000E+03 0.  0.
<mgrwt>
<rscale>  0 0.83546578E+03</rscale>
<asrwt>0</asrwt>
<pdfrwt beam="1">  1        1 0.10460215E+00 0.91007061E+03</pdfrwt>
<pdfrwt beam="2">  1       -1 0.23952389E+00 0.91007061E+03</pdfrwt>
<totfact> 0.23691040E+00</totfact>
</mgrwt>
</event>
<event>
 4    1  0.1521315E-007  0.7686924E+03  0.7818608E-02  0.9783102E-01
         -1   -1    0    0    0  501 -0.00000000000E+00  0.00000000000E+00  0.53171530826E+03  0.53171530828E+03  0.50400000000E-02 0.  1.
          1   -1    0    0  501    0  0.00000000000E+00 -0.00000000000E+00 -0.11940095660E+04  0.11940095660E+04  0.50400000000E-02 0. -1.
    8880023    1    1    2    0    0  0.36346512660E+03  0.15802203476E+03  0.17362052661E+03  0.78805593409E+03  0.65864270000E+03 0.  1.
    8880022    1    1    2    0    0 -0.36346512660E+03 -0.15802203476E+03 -0.83591478437E+03  0.93766894023E+03  0.15294330000E+03 0.  0.
<mgrwt>
<rscale>  0 0.66277320E+03</rscale>
<asrwt>0</asrwt>
<pdfrwt beam="1">  1        1 0.18369378E+00 0.76869244E+03</pdfrwt>
<pdfrwt beam="2">  1       -1 0.81802355E-01 0.76869244E+03</pdfrwt>
<totfact> 0.16528899E+01</totfact>
</mgrwt>
</event>
<event>
 4    1  0.1521315E-007  0.8057422E+03  0.7818608E-02  0.9698515E-01
         -1   -1    0    0    0  501 -0.00000000000E+00  0.00000000000E+00  0.56425950021E+03  0.56425950023E+03  0.50400000000E-02 0.  1.
          1   -1    0    0  501    0  0.00000000000E+00 -0.00000000000E+00 -0.25612684880E+04  0.25612684880E+04  0.50400000000E-02 0. -1.
    8880023    1    1    2    0    0 -0.11067200669E+03 -0.45073502069E+03 -0.23748522007E+04  0.25078164872E+04  0.65864270000E+03 0. -1.
    8880022    1    1    2    0    0  0.11067200669E+03  0.45073502069E+03  0.37784321293E+03  0.61771150104E+03  0.15294330000E+03 0.  0.
<mgrwt>
<rscale>  0 0.71105279E+03</rscale>
<asrwt>0</asrwt>
<pdfrwt beam="1">  1        1 0.39404130E+00 0.80574224E+03</pdfrwt>
<pdfrwt beam="2">  1       -1 0.86809156E-01 0.80574224E+03</pdfrwt>
<totfact> 0.16931505E+00</totfact>
</mgrwt>
</event>
<event>
 4    1  0.1521315E-007  0.7775954E+03  0.7818608E-02  0.9761516E-01
         -1   -1    0    0    0  501 -0.00000000000E+00  0.00000000000E+00  0.10606168920E+04  0.10606168920E+04  0.50400000000E-02 0.  1.
          1   -1    0    0  501    0  0.00000000000E+00 -0.00000000000E+00 -0.45884059520E+03  0.45884059523E+03  0.50400000000E-02 0. -1.
    8880023    1    1    2    0    0 -0.31406660624E+03  0.26871266903E+03  0.50357806271E+01  0.77761166208E+03  0.65864270000E+03 0.  0.
    8880022    1    1    2    0    0  0.31406660624E+03 -0.26871266903E+03  0.59674051617E+03  0.74184582516E+03  0.15294330000E+03 0.  0.
<mgrwt>
<rscale>  0 0.67469339E+03</rscale>
<asrwt>0</asrwt>
<pdfrwt beam="1">  1        1 0.70590861E-01 0.77759536E+03</pdfrwt>
<pdfrwt beam="2">  1       -1 0.16317183E+00 0.77759536E+03</pdfrwt>
<totfact> 0.14136802E+01</totfact>
</mgrwt>
</event>
<event>
 4    1  0.1521315E-007  0.7761483E+03  0.7818608E-02  0.9764964E-01
          1   -1    0    0  501    0  0.00000000000E+00  0.00000000000E+00  0.11007041393E+04  0.11007041394E+04  0.50400000000E-02 0. -1.
         -1   -1    0    0    0  501 -0.00000000000E+00 -0.00000000000E+00 -0.42889221649E+03  0.42889221652E+03  0.50400000000E-02 0.  1.
    8880023    1    1    2    0    0 -0.40352225910E+03  0.75932314666E+02  0.75592304886E+03  0.10834324123E+04  0.65864270000E+03 0. -1.
    8880022    1    1    2    0    0  0.40352225910E+03 -0.75932314666E+02 -0.84111126002E+02  0.44616394356E+03  0.15294330000E+03 0.  0.
<mgrwt>
<rscale>  0 0.67277162E+03</rscale>
<asrwt>0</asrwt>
<pdfrwt beam="1">  1        1 0.16933910E+00 0.77614827E+03</pdfrwt>
<pdfrwt beam="2">  1       -1 0.65983418E-01 0.77614827E+03</pdfrwt>
<totfact> 0.30212445E+01</totfact>
</mgrwt>
</event>
<event>
 4    1  0.1521315E-007  0.8481804E+03  0.7818608E-02  0.9614944E-01
         -1   -1    0    0    0  501 -0.00000000000E+00  0.00000000000E+00  0.10485520898E+04  0.10485520898E+04  0.50400000000E-02 0.  1.
          1   -1    0    0  501    0  0.00000000000E+00 -0.00000000000E+00 -0.65771874784E+03  0.65771874786E+03  0.50400000000E-02 0. -1.
    8880023    1    1    2    0    0 -0.11056873100E+03 -0.52285207237E+03 -0.22414925139E+03  0.87729859627E+03  0.65864270000E+03 0. -1.
    8880022    1    1    2    0    0  0.11056873100E+03  0.52285207237E+03  0.61498259333E+03  0.82897224138E+03  0.15294330000E+03 0.  0.
<mgrwt>
<rscale>  0 0.76314921E+03</rscale>
<asrwt>0</asrwt>
<pdfrwt beam="1">  1        1 0.10118750E+00 0.84818037E+03</pdfrwt>
<pdfrwt beam="2">  1       -1 0.16131571E+00 0.84818037E+03</pdfrwt>
<totfact> 0.87099458E+00</totfact>
</mgrwt>
</event>
<event>
 4    1  0.1521315E-007  0.7158947E+03  0.7818608E-02  0.9936730E-01
          1   -1    0    0  501    0  0.00000000000E+00  0.00000000000E+00  0.10392284906E+04  0.10392284907E+04  0.50400000000E-02 0. -1.
         -1   -1    0    0    0  501 -0.00000000000E+00 -0.00000000000E+00 -0.37164383492E+03  0.37164383495E+03  0.50400000000E-02 0.  1.
    8880023    1    1    2    0    0 -0.28044602143E+03 -0.67167562204E+01  0.79235619574E+03  0.10678640517E+04  0.65864270000E+03 0. -1.
    8880022    1    1    2    0    0  0.28044602143E+03  0.67167562204E+01 -0.12477154001E+03  0.34300827390E+03  0.15294330000E+03 0.  0.
<mgrwt>
<rscale>  0 0.58513766E+03</rscale>
<asrwt>0</asrwt>
<pdfrwt beam="1">  1        1 0.15988130E+00 0.71589475E+03</pdfrwt>
<pdfrwt beam="2">  1       -1 0.57175975E-01 0.71589475E+03</pdfrwt>
<totfact> 0.44944628E+01</totfact>
</mgrwt>
</event>
<event>
 4    1  0.1521315E-007  0.7745662E+03  0.7818608E-02  0.9768759E-01
         -1   -1    0    0    0  501 -0.00000000000E+00  0.00000000000E+00  0.27000354770E+04  0.27000354770E+04  0.50400000000E-02 0.  1.
          1   -1    0    0  501    0  0.00000000000E+00 -0.00000000000E+00 -0.74404369756E+03  0.74404369758E+03  0.50400000000E-02 0. -1.
    8880023    1    1    2    0    0 -0.23404956559E+03  0.33371164962E+03 -0.51816894566E+03  0.93190768145E+03  0.65864270000E+03 0. -1.
    8880022    1    1    2    0    0  0.23404956559E+03 -0.33371164962E+03  0.24741607251E+04  0.25121714931E+04  0.15294330000E+03 0.  0.
<mgrwt>
<rscale>  0 0.67066387E+03</rscale>
<asrwt>0</asrwt>
<pdfrwt beam="1">  1        1 0.11446826E+00 0.77456625E+03</pdfrwt>
<pdfrwt beam="2">  1       -1 0.41539007E+00 0.77456625E+03</pdfrwt>
<totfact> 0.14934806E-01</totfact>
</mgrwt>
</event>
<event>
 4    1  0.1521315E-007  0.1295076E+04  0.7818608E-02  0.9069824E-01
         -1   -1    0    0    0  501 -0.00000000000E+00  0.00000000000E+00  0.10116856136E+04  0.10116856136E+04  0.50400000000E-02 0.  1.
          1   -1    0    0  501    0  0.00000000000E+00 -0.00000000000E+00 -0.15160574461E+04  0.15160574461E+04  0.50400000000E-02 0. -1.
    8880023    1    1    2    0    0  0.58565962247E+03 -0.94890130315E+03 -0.53639731332E+03  0.14017643028E+04  0.65864270000E+03 0.  0.
    8880022    1    1    2    0    0 -0.58565962247E+03  0.94890130315E+03  0.32025480821E+02  0.11259787569E+04  0.15294330000E+03 0.  0.
<mgrwt>
<rscale>  0 0.12504317E+04</rscale>
<asrwt>0</asrwt>
<pdfrwt beam="1">  1        1 0.23323961E+00 0.12950757E+04</pdfrwt>
<pdfrwt beam="2">  1       -1 0.15564394E+00 0.12950757E+04</pdfrwt>
<totfact> 0.19525895E+00</totfact>
</mgrwt>
</event>
<event>
 4    1  0.1521315E-007  0.7481311E+03  0.7818608E-02  0.9836865E-01
         -1   -1    0    0    0  501 -0.00000000000E+00  0.00000000000E+00  0.51882165709E+03  0.51882165712E+03  0.50400000000E-02 0.  1.
          1   -1    0    0  501    0  0.00000000000E+00 -0.00000000000E+00 -0.21281324480E+04  0.21281324480E+04  0.50400000000E-02 0. -1.
    8880023    1    1    2    0    0  0.25219915856E+03 -0.24957059087E+03 -0.19768594936E+04  0.21136871952E+04  0.65864270000E+03 0. -1.
    8880022    1    1    2    0    0 -0.25219915856E+03  0.24957059087E+03  0.36754870267E+03  0.53326690996E+03  0.15294330000E+03 0.  0.
<mgrwt>
<rscale>  0 0.63421139E+03</rscale>
<asrwt>0</asrwt>
<pdfrwt beam="1">  1        1 0.32740499E+00 0.74813107E+03</pdfrwt>
<pdfrwt beam="2">  1       -1 0.79818718E-01 0.74813107E+03</pdfrwt>
<totfact> 0.40273602E+00</totfact>
</mgrwt>
</event>
<event>
 4    1  0.1521315E-007  0.1327168E+04  0.7818608E-02  0.9042447E-01
          1   -1    0    0  501    0  0.00000000000E+00  0.00000000000E+00  0.21283176278E+04  0.21283176278E+04  0.50400000000E-02 0. -1.
         -1   -1    0    0    0  501 -0.00000000000E+00 -0.00000000000E+00 -0.10398593099E+04  0.10398593099E+04  0.50400000000E-02 0.  1.
    8880023    1    1    2    0    0 -0.26854061408E+03  0.11204686977E+04  0.14356609849E+04  0.19551206699E+04  0.65864270000E+03 0.  0.
    8880022    1    1    2    0    0  0.26854061408E+03 -0.11204686977E+04 -0.34720266701E+03  0.12130562678E+04  0.15294330000E+03 0.  0.
<mgrwt>
<rscale>  0 0.12838803E+04</rscale>
<asrwt>0</asrwt>
<pdfrwt beam="1">  1        1 0.32743348E+00 0.13271678E+04</pdfrwt>
<pdfrwt beam="2">  1       -1 0.15997835E+00 0.13271678E+04</pdfrwt>
<totfact> 0.68949292E-01</totfact>
</mgrwt>
</event>
<event>
 4    1  0.1521315E-007  0.7029137E+03  0.7818608E-02  0.9985322E-01
          1   -1    0    0  501    0  0.00000000000E+00  0.00000000000E+00  0.13401241890E+04  0.13401241890E+04  0.50400000000E-02 0. -1.
         -1   -1    0    0    0  501 -0.00000000000E+00 -0.00000000000E+00 -0.15840765079E+04  0.15840765079E+04  0.50400000000E-02 0.  1.
    8880023    1    1    2    0    0 -0.82840849750E+02  0.23111652597E+03  0.12329473548E+04  0.14192416429E+04  0.65864270000E+03 0. -1.
    8880022    1    1    2    0    0  0.82840849750E+02 -0.23111652597E+03 -0.14768996737E+04  0.15049590540E+04  0.15294330000E+03 0.  0.
<mgrwt>
<rscale>  0 0.56298542E+03</rscale>
<asrwt>0</asrwt>
<pdfrwt beam="1">  1        1 0.20617295E+00 0.70291369E+03</pdfrwt>
<pdfrwt beam="2">  1       -1 0.24370408E+00 0.70291369E+03</pdfrwt>
<totfact> 0.69338799E-01</totfact>
</mgrwt>
</event>
<event>
 4    1  0.1521315E-007  0.7061359E+03  0.7818608E-02  0.9972640E-01
          1   -1    0    0  501    0  0.00000000000E+00  0.00000000000E+00  0.13406056754E+04  0.13406056754E+04  0.50400000000E-02 0. -1.
         -1   -1    0    0    0  501 -0.00000000000E+00 -0.00000000000E+00 -0.22944106442E+03  0.22944106448E+03  0.50400000000E-02 0.  1.
    8880023    1    1    2    0    0 -0.24910216085E+03 -0.52591684241E+02  0.10523043431E+04  0.12672696668E+04  0.65864270000E+03 0. -1.
    8880022    1    1    2    0    0  0.24910216085E+03  0.52591684241E+02  0.58860267865E+02  0.30277707301E+03  0.15294330000E+03 0.  0.
<mgrwt>
<rscale>  0 0.56866384E+03</rscale>
<asrwt>0</asrwt>
<pdfrwt beam="1">  1        1 0.20624703E+00 0.70613595E+03</pdfrwt>
<pdfrwt beam="2">  1       -1 0.35298626E-01 0.70613595E+03</pdfrwt>
<totfact> 0.66543540E+01</totfact>
</mgrwt>
</event>
<event>
 4    1  0.1521315E-007  0.7696742E+03  0.7818608E-02  0.9780676E-01
         -1   -1    0    0    0  501 -0.00000000000E+00  0.00000000000E+00  0.13738040118E+04  0.13738040118E+04  0.50400000000E-02 0.  1.
          1   -1    0    0  501    0  0.00000000000E+00 -0.00000000000E+00 -0.94897438866E+03  0.94897438867E+03  0.50400000000E-02 0. -1.
    8880023    1    1    2    0    0 -0.27421070382E+03  0.28878486120E+03 -0.74892192220E+03  0.10739098929E+04  0.65864270000E+03 0. -1.
    8880022    1    1    2    0    0  0.27421070382E+03 -0.28878486120E+03  0.11737515454E+04  0.12488685077E+04  0.15294330000E+03 0.  0.
<mgrwt>
<rscale>  0 0.66409945E+03</rscale>
<asrwt>0</asrwt>
<pdfrwt beam="1">  1        1 0.14599606E+00 0.76967422E+03</pdfrwt>
<pdfrwt beam="2">  1       -1 0.21135446E+00 0.76967422E+03</pdfrwt>
<totfact> 0.21735654E+00</totfact>
</mgrwt>
</event>
<event>
 4    1  0.1521315E-007  0.7154421E+03  0.7818608E-02  0.9938321E-01
          1   -1    0    0  501    0  0.00000000000E+00  0.00000000000E+00  0.40509149238E+03  0.40509149241E+03  0.50400000000E-02 0. -1.
         -1   -1    0    0    0  501 -0.00000000000E+00 -0.00000000000E+00 -0.70525624909E+03  0.70525624911E+03  0.50400000000E-02 0.  1.
    8880023    1    1    2    0    0  0.16677115396E+03 -0.22413072988E+03 -0.73032751427E+02  0.71916005931E+03  0.65864270000E+03 0.  1.
    8880022    1    1    2    0    0 -0.16677115396E+03  0.22413072988E+03 -0.22713200528E+03  0.39118768220E+03  0.15294330000E+03 0. -1.
<mgrwt>
<rscale>  0 0.58439490E+03</rscale>
<asrwt>0</asrwt>
<pdfrwt beam="1">  1        1 0.62321768E-01 0.71544211E+03</pdfrwt>
<pdfrwt beam="2">  1       -1 0.10850096E+00 0.71544211E+03</pdfrwt>
<totfact> 0.47623732E+01</totfact>
</mgrwt>
</event>
<event>
 4    1  0.1521315E-007  0.6703980E+03  0.7818608E-02  0.1015379E+00
         -1   -1    0    0    0  501 -0.00000000000E+00  0.00000000000E+00  0.53519912285E+03  0.53519912287E+03  0.50400000000E-02 0.  1.
          1   -1    0    0  501    0  0.00000000000E+00 -0.00000000000E+00 -0.87258479160E+03  0.87258479161E+03  0.50400000000E-02 0. -1.
    8880023    1    1    2    0    0 -0.11777029912E+03  0.41873843738E+02 -0.71592679253E+03  0.98080815692E+03  0.65864270000E+03 0. -1.
    8880022    1    1    2    0    0  0.11777029912E+03 -0.41873843738E+02  0.37854112378E+03  0.42697575757E+03  0.15294330000E+03 0.  0.
<mgrwt>
<rscale>  0 0.49391630E+03</rscale>
<asrwt>0</asrwt>
<pdfrwt beam="1">  1        1 0.13424381E+00 0.67039799E+03</pdfrwt>
<pdfrwt beam="2">  1       -1 0.82338327E-01 0.67039799E+03</pdfrwt>
<totfact> 0.29119901E+01</totfact>
</mgrwt>
</event>
<event>
 4    1  0.1521315E-007  0.7246425E+03  0.7818608E-02  0.9907179E-01
          1   -1    0    0  501    0  0.00000000000E+00  0.00000000000E+00  0.16131151313E+04  0.16131151313E+04  0.50400000000E-02 0. -1.
         -1   -1    0    0    0  501 -0.00000000000E+00 -0.00000000000E+00 -0.30850158007E+03  0.30850158012E+03  0.50400000000E-02 0.  1.
    8880023    1    1    2    0    0 -0.19247012997E+03  0.23292003242E+03  0.13942330937E+04  0.15713028410E+04  0.65864270000E+03 0. -1.
    8880022    1    1    2    0    0  0.19247012997E+03 -0.23292003242E+03 -0.89619542406E+02  0.35031387045E+03  0.15294330000E+03 0.  0.
<mgrwt>
<rscale>  0 0.59914598E+03</rscale>
<asrwt>0</asrwt>
<pdfrwt beam="1">  1        1 0.24817156E+00 0.72464246E+03</pdfrwt>
<pdfrwt beam="2">  1       -1 0.47461781E-01 0.72464246E+03</pdfrwt>
<totfact> 0.25133796E+01</totfact>
</mgrwt>
</event>
<event>
 4    1  0.1521315E-007  0.6876235E+03  0.7818608E-02  0.1005303E+00
          1   -1    0    0  501    0  0.00000000000E+00  0.00000000000E+00  0.84991074548E+03  0.84991074550E+03  0.50400000000E-02 0. -1.
         -1   -1    0    0    0  501 -0.00000000000E+00 -0.00000000000E+00 -0.33173891848E+03  0.33173891852E+03  0.50400000000E-02 0.  1.
    8880023    1    1    2    0    0 -0.19684860358E+03  0.16323360756E+02  0.60629843961E+03  0.91674632749E+03  0.65864270000E+03 0. -1.
    8880022    1    1    2    0    0  0.19684860358E+03 -0.16323360756E+02 -0.88126612606E+02  0.26490333652E+03  0.15294330000E+03 0.  1.
<mgrwt>
<rscale>  0 0.53384797E+03</rscale>
<asrwt>0</asrwt>
<pdfrwt beam="1">  1        1 0.13075550E+00 0.68762347E+03</pdfrwt>
<pdfrwt beam="2">  1       -1 0.51036757E-01 0.68762347E+03</pdfrwt>
<totfact> 0.79307816E+01</totfact>
</mgrwt>
</event>
<event>
 4    1  0.1521315E-007  0.6839425E+03  0.7818608E-02  0.1007176E+00
          1   -1    0    0  501    0  0.00000000000E+00  0.00000000000E+00  0.10401863352E+04  0.10401863352E+04  0.50400000000E-02 0. -1.
         -1   -1    0    0    0  501 -0.00000000000E+00 -0.00000000000E+00 -0.61596008751E+03  0.61596008753E+03  0.50400000000E-02 0.  1.
    8880023    1    1    2    0    0 -0.56561806292E+02 -0.17540799542E+03  0.89591516546E+03  0.11271385863E+04  0.65864270000E+03 0. -1.
    8880022    1    1    2    0    0  0.56561806292E+02  0.17540799542E+03 -0.47168891780E+03  0.52900783640E+03  0.15294330000E+03 0.  0.
<mgrwt>
<rscale>  0 0.52612601E+03</rscale>
<asrwt>0</asrwt>
<pdfrwt beam="1">  1        1 0.16002866E+00 0.68394255E+03</pdfrwt>
<pdfrwt beam="2">  1       -1 0.94763092E-01 0.68394255E+03</pdfrwt>
<totfact> 0.15768401E+01</totfact>
</mgrwt>
</event>
<event>
 4    1  0.1521315E-007  0.6899156E+03  0.7818608E-02  0.1004193E+00
          1   -1    0    0  501    0  0.00000000000E+00  0.00000000000E+00  0.30343104933E+04  0.30343104933E+04  0.50400000000E-02 0. -1.
         -1   -1    0    0    0  501 -0.00000000000E+00 -0.00000000000E+00 -0.12593541717E+03  0.12593541727E+03  0.50400000000E-02 0.  1.
    8880023    1    1    2    0    0 -0.13980756356E+03  0.15042338492E+03  0.27973213130E+04  0.28811438846E+04  0.65864270000E+03 0. -1.
    8880022    1    1    2    0    0  0.13980756356E+03 -0.15042338492E+03  0.11105376314E+03  0.27910202594E+03  0.15294330000E+03 0.  0.
<mgrwt>
<rscale>  0 0.53849415E+03</rscale>
<asrwt>0</asrwt>
<pdfrwt beam="1">  1        1 0.46681703E+00 0.68991562E+03</pdfrwt>
<pdfrwt beam="2">  1       -1 0.19374678E-01 0.68991562E+03</pdfrwt>
<totfact> 0.13041962E+01</totfact>
</mgrwt>
</event>
<event>
 4    1  0.1521315E-007  0.8976517E+03  0.7818608E-02  0.9529812E-01
         -1   -1    0    0    0  501 -0.00000000000E+00  0.00000000000E+00  0.42372782548E+03  0.42372782551E+03  0.50400000000E-02 0.  1.
          1   -1    0    0  501    0  0.00000000000E+00 -0.00000000000E+00 -0.21331311096E+04  0.21331311096E+04  0.50400000000E-02 0. -1.
    8880023    1    1    2    0    0  0.60244395983E+03  0.95024311547E+02 -0.17063688794E+04  0.19280750254E+04  0.65864270000E+03 0.  0.
    8880022    1    1    2    0    0 -0.60244395983E+03 -0.95024311547E+02 -0.30344046786E+01  0.62878390974E+03  0.15294330000E+03 0.  0.
<mgrwt>
<rscale>  0 0.82121142E+03</rscale>
<asrwt>0</asrwt>
<pdfrwt beam="1">  1        1 0.32817401E+00 0.89765169E+03</pdfrwt>
<pdfrwt beam="2">  1       -1 0.65188898E-01 0.89765169E+03</pdfrwt>
<totfact> 0.59289955E+00</totfact>
</mgrwt>
</event>
<event>
 4    1  0.1521315E-007  0.7408484E+03  0.7818608E-02  0.9857483E-01
          1   -1    0    0  501    0  0.00000000000E+00  0.00000000000E+00  0.66463578002E+03  0.66463578004E+03  0.50400000000E-02 0. -1.
         -1   -1    0    0    0  501 -0.00000000000E+00 -0.00000000000E+00 -0.49683498222E+03  0.49683498225E+03  0.50400000000E-02 0.  1.
    8880023    1    1    2    0    0 -0.20312771557E+03 -0.27163446061E+03 -0.27295959984E+02  0.74135108061E+03  0.65864270000E+03 0.  1.
    8880022    1    1    2    0    0  0.20312771557E+03  0.27163446061E+03  0.19509675779E+03  0.42011968168E+03  0.15294330000E+03 0.  0.
<mgrwt>
<rscale>  0 0.62366856E+03</rscale>
<asrwt>0</asrwt>
<pdfrwt beam="1">  1        1 0.10225166E+00 0.74084840E+03</pdfrwt>
<pdfrwt beam="2">  1       -1 0.76436151E-01 0.74084840E+03</pdfrwt>
<totfact> 0.51772210E+01</totfact>
</mgrwt>
</event>
<event>
 4    1  0.1521315E-007  0.6711366E+03  0.7818608E-02  0.1014861E+00
          1   -1    0    0  501    0  0.00000000000E+00  0.00000000000E+00  0.35398293407E+04  0.35398293407E+04  0.50400000000E-02 0. -1.
         -1   -1    0    0    0  501 -0.00000000000E+00 -0.00000000000E+00 -0.13369337632E+03  0.13369337642E+03  0.50400000000E-02 0.  1.
    8880023    1    1    2    0    0  0.54066137279E+01 -0.12878238120E+03  0.34080451784E+04  0.34734991402E+04  0.65864270000E+03 0. -1.
    8880022    1    1    2    0    0 -0.54066137279E+01  0.12878238120E+03 -0.19092140350E+01  0.20002357684E+03  0.15294330000E+03 0.  0.
<mgrwt>
<rscale>  0 0.49587652E+03</rscale>
<asrwt>0</asrwt>
<pdfrwt beam="1">  1        1 0.54458914E+00 0.67113660E+03</pdfrwt>
<pdfrwt beam="2">  1       -1 0.20568211E-01 0.67113660E+03</pdfrwt>
<totfact> 0.49735098E+00</totfact>
</mgrwt>
</event>
<event>
 4    1  0.1521315E-007  0.7501571E+03  0.7818608E-02  0.9831290E-01
         -1   -1    0    0    0  501 -0.00000000000E+00  0.00000000000E+00  0.17144940128E+03  0.17144940135E+03  0.50400000000E-02 0.  1.
          1   -1    0    0  501    0  0.00000000000E+00 -0.00000000000E+00 -0.25183366239E+04  0.25183366239E+04  0.50400000000E-02 0. -1.
    8880023    1    1    2    0    0  0.43734012590E+02 -0.35638848358E+03 -0.20950664955E+04  0.22253177845E+04  0.65864270000E+03 0.  0.
    8880022    1    1    2    0    0 -0.43734012590E+02  0.35638848358E+03 -0.25182072716E+03  0.46446824082E+03  0.15294330000E+03 0.  0.
<mgrwt>
<rscale>  0 0.63710017E+03</rscale>
<asrwt>0</asrwt>
<pdfrwt beam="1">  1        1 0.38743638E+00 0.75015706E+03</pdfrwt>
<pdfrwt beam="2">  1       -1 0.26376833E-01 0.75015706E+03</pdfrwt>
<totfact> 0.17623785E+01</totfact>
</mgrwt>
</event>
<event>
 4    1  0.1521315E-007  0.6654722E+03  0.7818608E-02  0.1019141E+00
          1   -1    0    0  501    0  0.00000000000E+00  0.00000000000E+00  0.75218171605E+03  0.75218171607E+03  0.50400000000E-02 0. -1.
         -1   -1    0    0    0  501 -0.00000000000E+00 -0.00000000000E+00 -0.96830770235E+03  0.96830770237E+03  0.50400000000E-02 0.  1.
    8880023    1    1    2    0    0  0.23377158413E+02 -0.92176792007E+02  0.59313043432E+03  0.89143534308E+03  0.65864270000E+03 0. -1.
    8880022    1    1    2    0    0 -0.23377158413E+02  0.92176792007E+02 -0.80925642062E+03  0.82905407535E+03  0.15294330000E+03 0.  0.
<mgrwt>
<rscale>  0 0.47998060E+03</rscale>
<asrwt>0</asrwt>
<pdfrwt beam="1">  1        1 0.11572026E+00 0.66547221E+03</pdfrwt>
<pdfrwt beam="2">  1       -1 0.14897042E+00 0.66547221E+03</pdfrwt>
<totfact> 0.90490359E+00</totfact>
</mgrwt>
</event>
<event>
 4    1  0.1521315E-007  0.8023421E+03  0.7818608E-02  0.9705755E-01
          1   -1    0    0  501    0  0.00000000000E+00  0.00000000000E+00  0.86342269680E+03  0.86342269681E+03  0.50400000000E-02 0. -1.
         -1   -1    0    0    0  501 -0.00000000000E+00 -0.00000000000E+00 -0.78416253166E+03  0.78416253168E+03  0.50400000000E-02 0.  1.
    8880023    1    1    2    0    0 -0.21281243378E+03 -0.40577523176E+03  0.55027281072E+03  0.97290957605E+03  0.65864270000E+03 0.  0.
    8880022    1    1    2    0    0  0.21281243378E+03  0.40577523176E+03 -0.47101264558E+03  0.67467565244E+03  0.15294330000E+03 0.  0.
<mgrwt>
<rscale>  0 0.70675196E+03</rscale>
<asrwt>0</asrwt>
<pdfrwt beam="1">  1        1 0.13283426E+00 0.80234212E+03</pdfrwt>
<pdfrwt beam="2">  1       -1 0.12064039E+00 0.80234212E+03</pdfrwt>
<totfact> 0.12206495E+01</totfact>
</mgrwt>
</event>
<event>
 4    1  0.1521315E-007  0.6815655E+03  0.7818608E-02  0.1008452E+00
         -1   -1    0    0    0  501 -0.00000000000E+00  0.00000000000E+00  0.13328468866E+04  0.13328468866E+04  0.50400000000E-02 0.  1.
          1   -1    0    0  501    0  0.00000000000E+00 -0.00000000000E+00 -0.16563779007E+03  0.16563779014E+03  0.50400000000E-02 0. -1.
    8880023    1    1    2    0    0 -0.17516400791E+03  0.62412321738E+01  0.70244144915E+03  0.97875205154E+03  0.65864270000E+03 0.  0.
    8880022    1    1    2    0    0  0.17516400791E+03 -0.62412321738E+01  0.46476764742E+03  0.51973262525E+03  0.15294330000E+03 0. -1.
<mgrwt>
<rscale>  0 0.52094690E+03</rscale>
<asrwt>0</asrwt>
<pdfrwt beam="1">  1        1 0.25482736E-01 0.68156554E+03</pdfrwt>
<pdfrwt beam="2">  1       -1 0.20505337E+00 0.68156554E+03</pdfrwt>
<totfact> 0.27300423E+01</totfact>
</mgrwt>
</event>
<event>
 4    1  0.1521315E-007  0.7139270E+03  0.7818608E-02  0.9943698E-01
          1   -1    0    0  501    0  0.00000000000E+00  0.00000000000E+00  0.19294883940E+04  0.19294883940E+04  0.50400000000E-02 0. -1.
         -1   -1    0    0    0  501 -0.00000000000E+00 -0.00000000000E+00 -0.30146696086E+03  0.30146696091E+03  0.50400000000E-02 0.  1.
    8880023    1    1    2    0    0  0.33528867584E+01  0.27544567150E+03  0.17523775378E+04  0.18922258853E+04  0.65864270000E+03 0. -1.
    8880022    1    1    2    0    0 -0.33528867584E+01 -0.27544567150E+03 -0.12435610466E+03  0.33872946960E+03  0.15294330000E+03 0.  0.
<mgrwt>
<rscale>  0 0.58189465E+03</rscale>
<asrwt>0</asrwt>
<pdfrwt beam="1">  1        1 0.29684437E+00 0.71392700E+03</pdfrwt>
<pdfrwt beam="2">  1       -1 0.46379532E-01 0.71392700E+03</pdfrwt>
<totfact> 0.16123826E+01</totfact>
</mgrwt>
</event>
<event>
 4    1  0.1521315E-007  0.8292264E+03  0.7818608E-02  0.9650839E-01
          1   -1    0    0  501    0  0.00000000000E+00  0.00000000000E+00  0.17204274386E+04  0.17204274386E+04  0.50400000000E-02 0. -1.
         -1   -1    0    0    0  501 -0.00000000000E+00 -0.00000000000E+00 -0.68070720796E+03  0.68070720798E+03  0.50400000000E-02 0.  1.
    8880023    1    1    2    0    0 -0.45047987414E+03  0.22555284440E+03  0.14920645014E+04  0.17070069962E+04  0.65864270000E+03 0.  0.
    8880022    1    1    2    0    0  0.45047987414E+03 -0.22555284440E+03 -0.45234427078E+03  0.69412765032E+03  0.15294330000E+03 0.  0.
<mgrwt>
<rscale>  0 0.74020765E+03</rscale>
<asrwt>0</asrwt>
<pdfrwt beam="1">  1        1 0.26468114E+00 0.82922639E+03</pdfrwt>
<pdfrwt beam="2">  1       -1 0.10472419E+00 0.82922639E+03</pdfrwt>
<totfact> 0.40821822E+00</totfact>
</mgrwt>
</event>
<event>
 4    1  0.1521315E-007  0.7481345E+03  0.7818608E-02  0.9836855E-01
          1   -1    0    0  501    0  0.00000000000E+00  0.00000000000E+00  0.10444540614E+04  0.10444540614E+04  0.50400000000E-02 0. -1.
         -1   -1    0    0    0  501 -0.00000000000E+00 -0.00000000000E+00 -0.43757606600E+03  0.43757606603E+03  0.50400000000E-02 0.  1.
    8880023    1    1    2    0    0 -0.32203617533E+03 -0.14895560894E+03  0.75997528562E+03  0.10664275468E+04  0.65864270000E+03 0.  0.
    8880022    1    1    2    0    0  0.32203617533E+03  0.14895560894E+03 -0.15309729027E+03  0.41560258055E+03  0.15294330000E+03 0.  0.
<mgrwt>
<rscale>  0 0.63421634E+03</rscale>
<asrwt>0</asrwt>
<pdfrwt beam="1">  1        1 0.16068524E+00 0.74813453E+03</pdfrwt>
<pdfrwt beam="2">  1       -1 0.67319395E-01 0.74813453E+03</pdfrwt>
<totfact> 0.32086510E+01</totfact>
</mgrwt>
</event>
<event>
 4    1  0.1521315E-007  0.8799704E+03  0.7818608E-02  0.9558982E-01
          1   -1    0    0  501    0  0.00000000000E+00  0.00000000000E+00  0.12890322588E+04  0.12890322588E+04  0.50400000000E-02 0. -1.
         -1   -1    0    0    0  501 -0.00000000000E+00 -0.00000000000E+00 -0.57660822306E+03  0.57660822308E+03  0.50400000000E-02 0.  1.
    8880023    1    1    2    0    0 -0.49658052749E+03 -0.30650528117E+03  0.87489206750E+03  0.12408803503E+04  0.65864270000E+03 0. -1.
    8880022    1    1    2    0    0  0.49658052749E+03  0.30650528117E+03 -0.16246803178E+03  0.62476013160E+03  0.15294330000E+03 0.  0.
<mgrwt>
<rscale>  0 0.80071541E+03</rscale>
<asrwt>0</asrwt>
<pdfrwt beam="1">  1        1 0.19831265E+00 0.87997041E+03</pdfrwt>
<pdfrwt beam="2">  1       -1 0.88708959E-01 0.87997041E+03</pdfrwt>
<totfact> 0.11688438E+01</totfact>
</mgrwt>
</event>
<event>
 4    1  0.1521315E-007  0.7479495E+03  0.7818608E-02  0.9837368E-01
         -1   -1    0    0    0  501 -0.00000000000E+00  0.00000000000E+00  0.71402360164E+03  0.71402360165E+03  0.50400000000E-02 0.  1.
          1   -1    0    0  501    0  0.00000000000E+00 -0.00000000000E+00 -0.10727380440E+04  0.10727380441E+04  0.50400000000E-02 0. -1.
    8880023    1    1    2    0    0  0.34837083752E+03  0.65237535542E+02 -0.86923242661E+03  0.11467316139E+04  0.65864270000E+03 0.  0.
    8880022    1    1    2    0    0 -0.34837083752E+03 -0.65237535542E+02  0.51051798420E+03  0.64003003186E+03  0.15294330000E+03 0.  0.
<mgrwt>
<rscale>  0 0.63395153E+03</rscale>
<asrwt>0</asrwt>
<pdfrwt beam="1">  1        1 0.16503662E+00 0.74794945E+03</pdfrwt>
<pdfrwt beam="2">  1       -1 0.10984978E+00 0.74794945E+03</pdfrwt>
<totfact> 0.10519727E+01</totfact>
</mgrwt>
</event>
<event>
 4    1  0.1521315E-007  0.8319999E+03  0.7818608E-02  0.9645454E-01
          1   -1    0    0  501    0  0.00000000000E+00  0.00000000000E+00  0.95708779825E+03  0.95708779826E+03  0.50400000000E-02 0. -1.
         -1   -1    0    0    0  501 -0.00000000000E+00 -0.00000000000E+00 -0.50250146545E+03  0.50250146547E+03  0.50400000000E-02 0.  1.
    8880023    1    1    2    0    0 -0.41792686038E+03 -0.28939718395E+03  0.14345110330E+03  0.84427603069E+03  0.65864270000E+03 0.  0.
    8880022    1    1    2    0    0  0.41792686038E+03  0.28939718395E+03  0.31113522951E+03  0.61531323304E+03  0.15294330000E+03 0.  0.
<mgrwt>
<rscale>  0 0.74359435E+03</rscale>
<asrwt>0</asrwt>
<pdfrwt beam="1">  1        1 0.14724427E+00 0.83199988E+03</pdfrwt>
<pdfrwt beam="2">  1       -1 0.77307919E-01 0.83199988E+03</pdfrwt>
<totfact> 0.27942643E+01</totfact>
</mgrwt>
</event>
<event>
 4    1  0.1521315E-007  0.6906132E+03  0.7818608E-02  0.1003863E+00
          1   -1    0    0  501    0  0.00000000000E+00  0.00000000000E+00  0.15036912843E+04  0.15036912843E+04  0.50400000000E-02 0. -1.
         -1   -1    0    0    0  501 -0.00000000000E+00 -0.00000000000E+00 -0.15237922665E+03  0.15237922673E+03  0.50400000000E-02 0.  1.
    8880023    1    1    2    0    0  0.11304714870E+03  0.17423176118E+03  0.10781892735E+04  0.12804056702E+04  0.65864270000E+03 0.  0.
    8880022    1    1    2    0    0 -0.11304714870E+03 -0.17423176118E+03  0.27312278411E+03  0.37566484084E+03  0.15294330000E+03 0.  1.
<mgrwt>
<rscale>  0 0.53988557E+03</rscale>
<asrwt>0</asrwt>
<pdfrwt beam="1">  1        1 0.23133711E+00 0.69061318E+03</pdfrwt>
<pdfrwt beam="2">  1       -1 0.23442959E-01 0.69061318E+03</pdfrwt>
<totfact> 0.10451938E+02</totfact>
</mgrwt>
</event>
<event>
 4    1  0.1521315E-007  0.9252786E+03  0.7818608E-02  0.9486612E-01
          1   -1    0    0  501    0  0.00000000000E+00  0.00000000000E+00  0.41006562650E+03  0.41006562653E+03  0.50400000000E-02 0. -1.
         -1   -1    0    0    0  501 -0.00000000000E+00 -0.00000000000E+00 -0.17314808559E+04  0.17314808559E+04  0.50400000000E-02 0.  1.
    8880023    1    1    2    0    0 -0.61982767674E+03 -0.19530481184E+03 -0.41069742234E+03  0.10123304289E+04  0.65864270000E+03 0. -1.
    8880022    1    1    2    0    0  0.61982767674E+03  0.19530481184E+03 -0.91071780710E+03  0.11292160535E+04  0.15294330000E+03 0.  0.
<mgrwt>
<rscale>  0 0.85278077E+03</rscale>
<asrwt>0</asrwt>
<pdfrwt beam="1">  1        1 0.63087020E-01 0.92527862E+03</pdfrwt>
<pdfrwt beam="2">  1       -1 0.26638167E+00 0.92527862E+03</pdfrwt>
<totfact> 0.32267542E+00</totfact>
</mgrwt>
</event>
<event>
 4    1  0.1521315E-007  0.7174680E+03  0.7818608E-02  0.9931248E-01
         -1   -1    0    0    0  501 -0.00000000000E+00  0.00000000000E+00  0.12937437269E+04  0.12937437269E+04  0.50400000000E-02 0.  1.
          1   -1    0    0  501    0  0.00000000000E+00 -0.00000000000E+00 -0.27834722861E+03  0.27834722866E+03  0.50400000000E-02 0. -1.
    8880023    1    1    2    0    0  0.19434784468E+02 -0.28385280238E+03  0.28234394233E+03  0.77102427478E+03  0.65864270000E+03 0.  0.
    8880022    1    1    2    0    0 -0.19434784468E+02  0.28385280238E+03  0.73305255598E+03  0.80106668081E+03  0.15294330000E+03 0.  1.
<mgrwt>
<rscale>  0 0.58770472E+03</rscale>
<asrwt>0</asrwt>
<pdfrwt beam="1">  1        1 0.42822650E-01 0.71746800E+03</pdfrwt>
<pdfrwt beam="2">  1       -1 0.19903750E+00 0.71746800E+03</pdfrwt>
<totfact> 0.15248776E+01</totfact>
</mgrwt>
</event>
<event>
 4    1  0.1521315E-007  0.7233291E+03  0.7818608E-02  0.9911478E-01
          1   -1    0    0  501    0  0.00000000000E+00  0.00000000000E+00  0.38934015941E+03  0.38934015944E+03  0.50400000000E-02 0. -1.
         -1   -1    0    0    0  501 -0.00000000000E+00 -0.00000000000E+00 -0.11724829356E+04  0.11724829356E+04  0.50400000000E-02 0.  1.
    8880023    1    1    2    0    0  0.27925185385E+03  0.10683269289E+03 -0.15012280615E+02  0.72348489755E+03  0.65864270000E+03 0.  0.
    8880022    1    1    2    0    0 -0.27925185385E+03 -0.10683269289E+03 -0.76813049560E+03  0.83833819753E+03  0.15294330000E+03 0.  0.
<mgrwt>
<rscale>  0 0.59708216E+03</rscale>
<asrwt>0</asrwt>
<pdfrwt beam="1">  1        1 0.59898487E-01 0.72332913E+03</pdfrwt>
<pdfrwt beam="2">  1       -1 0.18038199E+00 0.72332913E+03</pdfrwt>
<totfact> 0.13274287E+01</totfact>
</mgrwt>
</event>
<event>
 4    1  0.1521315E-007  0.8921622E+03  0.7818608E-02  0.9538733E-01
          1   -1    0    0  501    0  0.00000000000E+00  0.00000000000E+00  0.33819421689E+04  0.33819421689E+04  0.50400000000E-02 0. -1.
         -1   -1    0    0    0  501 -0.00000000000E+00 -0.00000000000E+00 -0.21528510634E+03  0.21528510640E+03  0.50400000000E-02 0.  1.
    8880023    1    1    2    0    0  0.34485158250E+03  0.49317396073E+03  0.26277166065E+04  0.27750401691E+04  0.65864270000E+03 0.  0.
    8880022    1    1    2    0    0 -0.34485158250E+03 -0.49317396073E+03  0.53894045602E+03  0.82218710622E+03  0.15294330000E+03 0.  0.
<mgrwt>
<rscale>  0 0.81487466E+03</rscale>
<asrwt>0</asrwt>
<pdfrwt beam="1">  1        1 0.52029881E+00 0.89216219E+03</pdfrwt>
<pdfrwt beam="2">  1       -1 0.33120784E-01 0.89216219E+03</pdfrwt>
<totfact> 0.27850677E+00</totfact>
</mgrwt>
</event>
<event>
 4    1  0.1521315E-007  0.8462091E+03  0.7818608E-02  0.9618582E-01
          1   -1    0    0  501    0  0.00000000000E+00  0.00000000000E+00  0.11433603981E+04  0.11433603981E+04  0.50400000000E-02 0. -1.
         -1   -1    0    0    0  501 -0.00000000000E+00 -0.00000000000E+00 -0.10466695153E+04  0.10466695154E+04  0.50400000000E-02 0.  1.
    8880023    1    1    2    0    0 -0.34563259950E+03  0.40348207068E+03  0.88676485866E+03  0.12257331667E+04  0.65864270000E+03 0. -1.
    8880022    1    1    2    0    0  0.34563259950E+03 -0.40348207068E+03 -0.79007397595E+03  0.96429674669E+03  0.15294330000E+03 0.  0.
<mgrwt>
<rscale>  0 0.76078434E+03</rscale>
<asrwt>0</asrwt>
<pdfrwt beam="1">  1        1 0.17590160E+00 0.84620912E+03</pdfrwt>
<pdfrwt beam="2">  1       -1 0.16102608E+00 0.84620912E+03</pdfrwt>
<totfact> 0.34595944E+00</totfact>
</mgrwt>
</event>
<event>
 4    1  0.1521315E-007  0.6974305E+03  0.7818608E-02  0.1000803E+00
         -1   -1    0    0    0  501 -0.00000000000E+00  0.00000000000E+00  0.81106998042E+03  0.81106998044E+03  0.50400000000E-02 0.  1.
          1   -1    0    0  501    0  0.00000000000E+00 -0.00000000000E+00 -0.98409498536E+03  0.98409498537E+03  0.50400000000E-02 0. -1.
    8880023    1    1    2    0    0 -0.12635860715E+03 -0.19139646778E+03 -0.82916013821E+03  0.10834739713E+04  0.65864270000E+03 0. -1.
    8880022    1    1    2    0    0  0.12635860715E+03  0.19139646778E+03  0.65613513328E+03  0.71169099448E+03  0.15294330000E+03 0.  0.
<mgrwt>
<rscale>  0 0.55299449E+03</rscale>
<asrwt>0</asrwt>
<pdfrwt beam="1">  1        1 0.15139923E+00 0.69743051E+03</pdfrwt>
<pdfrwt beam="2">  1       -1 0.12478000E+00 0.69743051E+03</pdfrwt>
<totfact> 0.91113796E+00</totfact>
</mgrwt>
</event>
<event>
 4    1  0.1521315E-007  0.6659014E+03  0.7818608E-02  0.1018789E+00
         -1   -1    0    0    0  501 -0.00000000000E+00  0.00000000000E+00  0.39763729346E+03  0.39763729349E+03  0.50400000000E-02 0.  1.
          1   -1    0    0  501    0  0.00000000000E+00 -0.00000000000E+00 -0.61417819459E+03  0.61417819461E+03  0.50400000000E-02 0. -1.
    8880023    1    1    2    0    0  0.88005943343E+02 -0.43236225627E+02 -0.38062753165E+03  0.76700843632E+03  0.65864270000E+03 0. -1.
    8880022    1    1    2    0    0 -0.88005943343E+02  0.43236225627E+02  0.16408663053E+03  0.24480705178E+03  0.15294330000E+03 0.  0.
<mgrwt>
<rscale>  0 0.48126209E+03</rscale>
<asrwt>0</asrwt>
<pdfrwt beam="1">  1        1 0.94488952E-01 0.66590136E+03</pdfrwt>
<pdfrwt beam="2">  1       -1 0.61174969E-01 0.66590136E+03</pdfrwt>
<totfact> 0.91979976E+01</totfact>
</mgrwt>
</event>
<event>
 4    1  0.1521315E-007  0.8208208E+03  0.7818608E-02  0.9667463E-01
          1   -1    0    0  501    0  0.00000000000E+00  0.00000000000E+00  0.20374706496E+04  0.20374706496E+04  0.50400000000E-02 0. -1.
         -1   -1    0    0    0  501 -0.00000000000E+00 -0.00000000000E+00 -0.23170709232E+03  0.23170709237E+03  0.50400000000E-02 0.  1.
    8880023    1    1    2    0    0  0.16919560542E+03  0.45968400111E+03  0.13646512912E+04  0.15924885829E+04  0.65864270000E+03 0.  1.
    8880022    1    1    2    0    0 -0.16919560542E+03 -0.45968400111E+03  0.44111226615E+03  0.67668915917E+03  0.15294330000E+03 0.  0.
<mgrwt>
<rscale>  0 0.72987489E+03</rscale>
<asrwt>0</asrwt>
<pdfrwt beam="1">  1        1 0.31345703E+00 0.82082077E+03</pdfrwt>
<pdfrwt beam="2">  1       -1 0.35647244E-01 0.82082077E+03</pdfrwt>
<totfact> 0.21753696E+01</totfact>
</mgrwt>
</event>
<event>
 4    1  0.1521315E-007  0.1042582E+04  0.7818608E-02  0.9327852E-01
         -1   -1    0    0    0  501 -0.00000000000E+00  0.00000000000E+00  0.53710265141E+03  0.53710265143E+03  0.50400000000E-02 0.  1.
          1   -1    0    0  501    0  0.00000000000E+00 -0.00000000000E+00 -0.27223648609E+04  0.27223648609E+04  0.50400000000E-02 0. -1.
    8880023    1    1    2    0    0 -0.20635319559E+03 -0.78140009107E+03 -0.22024531332E+04  0.24367555794E+04  0.65864270000E+03 0.  0.
    8880022    1    1    2    0    0  0.20635319559E+03  0.78140009107E+03  0.17190923716E+02  0.82271193290E+03  0.15294330000E+03 0.  0.
<mgrwt>
<rscale>  0 0.98258701E+03</rscale>
<asrwt>0</asrwt>
<pdfrwt beam="1">  1        1 0.41882536E+00 0.10425823E+04</pdfrwt>
<pdfrwt beam="2">  1       -1 0.82631179E-01 0.10425823E+04</pdfrwt>
<totfact> 0.13992611E+00</totfact>
</mgrwt>
</event>
<event>
 4    1  0.1521315E-007  0.8201446E+03  0.7818608E-02  0.9668821E-01
         -1   -1    0    0    0  501 -0.00000000000E+00  0.00000000000E+00  0.43815053158E+03  0.43815053161E+03  0.50400000000E-02 0.  1.
          1   -1    0    0  501    0  0.00000000000E+00 -0.00000000000E+00 -0.15196259028E+04  0.15196259028E+04  0.50400000000E-02 0. -1.
    8880023    1    1    2    0    0 -0.46919550290E+03  0.13668410404E+03 -0.11792943362E+04  0.14364443261E+04  0.65864270000E+03 0.  0.
    8880022    1    1    2    0    0  0.46919550290E+03 -0.13668410404E+03  0.97818965008E+02  0.52133210832E+03  0.15294330000E+03 0.  0.
<mgrwt>
<rscale>  0 0.72903900E+03</rscale>
<asrwt>0</asrwt>
<pdfrwt beam="1">  1        1 0.23378860E+00 0.82014460E+03</pdfrwt>
<pdfrwt beam="2">  1       -1 0.67407775E-01 0.82014460E+03</pdfrwt>
<totfact> 0.14513218E+01</totfact>
</mgrwt>
</event>
<event>
 4    1  0.1521315E-007  0.7768870E+03  0.7818608E-02  0.9763201E-01
          1   -1    0    0  501    0  0.00000000000E+00  0.00000000000E+00  0.12188383743E+04  0.12188383743E+04  0.50400000000E-02 0. -1.
         -1   -1    0    0    0  501 -0.00000000000E+00 -0.00000000000E+00 -0.33499273054E+03  0.33499273057E+03  0.50400000000E-02 0.  1.
    8880023    1    1    2    0    0  0.40599173378E+03  0.70099580804E+02  0.78284090776E+03  0.11029022315E+04  0.65864270000E+03 0.  0.
    8880022    1    1    2    0    0 -0.40599173378E+03 -0.70099580804E+02  0.10100473599E+03  0.45092887336E+03  0.15294330000E+03 0.  0.
<mgrwt>
<rscale>  0 0.67375344E+03</rscale>
<asrwt>0</asrwt>
<pdfrwt beam="1">  1        1 0.18751359E+00 0.77688702E+03</pdfrwt>
<pdfrwt beam="2">  1       -1 0.51537344E-01 0.77688702E+03</pdfrwt>
<totfact> 0.40165042E+01</totfact>
</mgrwt>
</event>
<event>
 4    1  0.1521315E-007  0.6638728E+03  0.7818608E-02  0.1020498E+00
          1   -1    0    0  501    0  0.00000000000E+00  0.00000000000E+00  0.89818654354E+03  0.89818654356E+03  0.50400000000E-02 0. -1.
         -1   -1    0    0    0  501 -0.00000000000E+00 -0.00000000000E+00 -0.23935571790E+03  0.23935571795E+03  0.50400000000E-02 0.  1.
    8880023    1    1    2    0    0  0.73979234400E+02  0.37998632291E+02  0.69349390944E+03  0.96003168275E+03  0.65864270000E+03 0. -1.
    8880022    1    1    2    0    0 -0.73979234400E+02 -0.37998632291E+02 -0.34663083801E+02  0.17751057876E+03  0.15294330000E+03 0.  0.
<mgrwt>
<rscale>  0 0.47507168E+03</rscale>
<asrwt>0</asrwt>
<pdfrwt beam="1">  1        1 0.13818254E+00 0.66387275E+03</pdfrwt>
<pdfrwt beam="2">  1       -1 0.36823957E-01 0.66387275E+03</pdfrwt>
<totfact> 0.13230610E+02</totfact>
</mgrwt>
</event>
<event>
 4    1  0.1521315E-007  0.8497974E+03  0.7818608E-02  0.9611976E-01
          1   -1    0    0  501    0  0.00000000000E+00  0.00000000000E+00  0.23805362325E+04  0.23805362325E+04  0.50400000000E-02 0. -1.
         -1   -1    0    0    0  501 -0.00000000000E+00 -0.00000000000E+00 -0.39467297538E+03  0.39467297542E+03  0.50400000000E-02 0.  1.
    8880023    1    1    2    0    0  0.19447926901E+03 -0.50052288718E+03  0.20442350589E+04  0.22138320915E+04  0.65864270000E+03 0.  0.
    8880022    1    1    2    0    0 -0.19447926901E+03  0.50052288718E+03 -0.58371801801E+02  0.56137711650E+03  0.15294330000E+03 0.  0.
<mgrwt>
<rscale>  0 0.76508569E+03</rscale>
<asrwt>0</asrwt>
<pdfrwt beam="1">  1        1 0.36623635E+00 0.84979736E+03</pdfrwt>
<pdfrwt beam="2">  1       -1 0.60718918E-01 0.84979736E+03</pdfrwt>
<totfact> 0.46837036E+00</totfact>
</mgrwt>
</event>
<event>
 4    1  0.1521315E-007  0.7865046E+03  0.7818608E-02  0.9740774E-01
          1   -1    0    0  501    0  0.00000000000E+00  0.00000000000E+00  0.33490319836E+03  0.33490319840E+03  0.50400000000E-02 0. -1.
         -1   -1    0    0    0  501 -0.00000000000E+00 -0.00000000000E+00 -0.14331654577E+04  0.14331654577E+04  0.50400000000E-02 0.  1.
    8880023    1    1    2    0    0  0.28236709463E+03 -0.32411124768E+03 -0.28685952160E+03  0.83718448887E+03  0.65864270000E+03 0. -1.
    8880022    1    1    2    0    0 -0.28236709463E+03  0.32411124768E+03 -0.81140273777E+03  0.93088416727E+03  0.15294330000E+03 0.  0.
<mgrwt>
<rscale>  0 0.68640187E+03</rscale>
<asrwt>0</asrwt>
<pdfrwt beam="1">  1        1 0.51523570E-01 0.78650460E+03</pdfrwt>
<pdfrwt beam="2">  1       -1 0.22048699E+00 0.78650460E+03</pdfrwt>
<totfact> 0.85301836E+00</totfact>
</mgrwt>
</event>
<event>
 4    1  0.1521315E-007  0.1454651E+04  0.7818608E-02  0.8942340E-01
         -1   -1    0    0    0  501 -0.00000000000E+00  0.00000000000E+00  0.13015011047E+04  0.13015011047E+04  0.50400000000E-02 0.  1.
          1   -1    0    0  501    0  0.00000000000E+00 -0.00000000000E+00 -0.16080698735E+04  0.16080698735E+04  0.50400000000E-02 0. -1.
    8880023    1    1    2    0    0  0.86564589350E+03 -0.96584562499E+03  0.27421149015E+03  0.14802711683E+04  0.65864270000E+03 0.  0.
    8880022    1    1    2    0    0 -0.86564589350E+03  0.96584562499E+03 -0.58078025902E+03  0.14292998099E+04  0.15294330000E+03 0.  0.
<mgrwt>
<rscale>  0 0.14159685E+04</rscale>
<asrwt>0</asrwt>
<pdfrwt beam="1">  1        1 0.24739537E+00 0.14546514E+04</pdfrwt>
<pdfrwt beam="2">  1       -1 0.20023094E+00 0.14546514E+04</pdfrwt>
<totfact> 0.78607347E-01</totfact>
</mgrwt>
</event>
<event>
 4    1  0.1521315E-007  0.9517719E+03  0.7818608E-02  0.9447569E-01
          1   -1    0    0  501    0  0.00000000000E+00  0.00000000000E+00  0.14510433511E+04  0.14510433511E+04  0.50400000000E-02 0. -1.
         -1   -1    0    0    0  501 -0.00000000000E+00 -0.00000000000E+00 -0.62821960841E+03  0.62821960843E+03  0.50400000000E-02 0.  1.
    8880023    1    1    2    0    0  0.33322581217E+03 -0.60084950420E+03  0.97130371514E+03  0.13598899521E+04  0.65864270000E+03 0. -1.
    8880022    1    1    2    0    0 -0.33322581217E+03  0.60084950420E+03 -0.14847997243E+03  0.71937300743E+03  0.15294330000E+03 0.  1.
<mgrwt>
<rscale>  0 0.88262206E+03</rscale>
<asrwt>0</asrwt>
<pdfrwt beam="1">  1        1 0.22323744E+00 0.95177191E+03</pdfrwt>
<pdfrwt beam="2">  1       -1 0.96649171E-01 0.95177191E+03</pdfrwt>
<totfact> 0.73677203E+00</totfact>
</mgrwt>
</event>
<event>
 4    1  0.1521315E-007  0.7662134E+03  0.7818608E-02  0.9789279E-01
         -1   -1    0    0    0  501 -0.00000000000E+00  0.00000000000E+00  0.68572952435E+03  0.68572952436E+03  0.50400000000E-02 0.  1.
          1   -1    0    0  501    0  0.00000000000E+00 -0.00000000000E+00 -0.90179662627E+03  0.90179662629E+03  0.50400000000E-02 0. -1.
    8880023    1    1    2    0    0  0.24277601498E+03  0.30713602405E+03 -0.63421514214E+03  0.99464153518E+03  0.65864270000E+03 0.  0.
    8880022    1    1    2    0    0 -0.24277601498E+03 -0.30713602405E+03  0.41814804021E+03  0.59288461548E+03  0.15294330000E+03 0.  0.
<mgrwt>
<rscale>  0 0.65941060E+03</rscale>
<asrwt>0</asrwt>
<pdfrwt beam="1">  1        1 0.13873794E+00 0.76621338E+03</pdfrwt>
<pdfrwt beam="2">  1       -1 0.10549685E+00 0.76621338E+03</pdfrwt>
<totfact> 0.15689366E+01</totfact>
</mgrwt>
</event>
<event>
 4    1  0.1521315E-007  0.6800488E+03  0.7818608E-02  0.1009296E+00
         -1   -1    0    0    0  501 -0.00000000000E+00  0.00000000000E+00  0.52448530874E+03  0.52448530877E+03  0.50400000000E-02 0.  1.
          1   -1    0    0  501    0  0.00000000000E+00 -0.00000000000E+00 -0.53824885579E+03  0.53824885582E+03  0.50400000000E-02 0. -1.
    8880023    1    1    2    0    0  0.16742187425E+03 -0.25020361446E+02 -0.25908121296E+03  0.72772892181E+03  0.65864270000E+03 0. -1.
    8880022    1    1    2    0    0 -0.16742187425E+03  0.25020361446E+02  0.24531766591E+03  0.33500524278E+03  0.15294330000E+03 0. -1.
<mgrwt>
<rscale>  0 0.51755355E+03</rscale>
<asrwt>0</asrwt>
<pdfrwt beam="1">  1        1 0.82807516E-01 0.68004875E+03</pdfrwt>
<pdfrwt beam="2">  1       -1 0.80690047E-01 0.68004875E+03</pdfrwt>
<totfact> 0.62864794E+01</totfact>
</mgrwt>
</event>
<event>
 4    1  0.1521315E-007  0.7390290E+03  0.7818608E-02  0.9862785E-01
          1   -1    0    0  501    0  0.00000000000E+00  0.00000000000E+00  0.27909440070E+04  0.27909440070E+04  0.50400000000E-02 0. -1.
         -1   -1    0    0    0  501 -0.00000000000E+00 -0.00000000000E+00 -0.21424733709E+03  0.21424733715E+03  0.50400000000E-02 0.  1.
    8880023    1    1    2    0    0 -0.13822098770E+03  0.30536639884E+03  0.25276887510E+04  0.26335098836E+04  0.65864270000E+03 0. -1.
    8880022    1    1    2    0    0  0.13822098770E+03 -0.30536639884E+03  0.49007918926E+02  0.37168146055E+03  0.15294330000E+03 0.  0.
<mgrwt>
<rscale>  0 0.62099304E+03</rscale>
<asrwt>0</asrwt>
<pdfrwt beam="1">  1        1 0.42937596E+00 0.73902902E+03</pdfrwt>
<pdfrwt beam="2">  1       -1 0.32961132E-01 0.73902902E+03</pdfrwt>
<totfact> 0.77624746E+00</totfact>
</mgrwt>
</event>
<event>
 4    1  0.1521315E-007  0.1874014E+04  0.7818608E-02  0.8682663E-01
          1   -1    0    0  501    0  0.00000000000E+00  0.00000000000E+00  0.35747229128E+04  0.35747229128E+04  0.50400000000E-02 0. -1.
         -1   -1    0    0    0  501 -0.00000000000E+00 -0.00000000000E+00 -0.11486405247E+04  0.11486405247E+04  0.50400000000E-02 0.  1.
    8880023    1    1    2    0    0 -0.85050107073E+03 -0.15345241697E+04  0.19965945524E+03  0.18846194850E+04  0.65864270000E+03 0.  0.
    8880022    1    1    2    0    0  0.85050107073E+03  0.15345241697E+04  0.22264229329E+04  0.28387439525E+04  0.15294330000E+03 0.  0.
<mgrwt>
<rscale>  0 0.18451265E+04</rscale>
<asrwt>0</asrwt>
<pdfrwt beam="1">  1        1 0.54995737E+00 0.18740135E+04</pdfrwt>
<pdfrwt beam="2">  1       -1 0.17671393E+00 0.18740135E+04</pdfrwt>
<totfact> 0.43607283E-02</totfact>
</mgrwt>
</event>
<event>
 4    1  0.1521315E-007  0.7227074E+03  0.7818608E-02  0.9913529E-01
          1   -1    0    0  501    0  0.00000000000E+00  0.00000000000E+00  0.24304143003E+04  0.24304143004E+04  0.50400000000E-02 0. -1.
         -1   -1    0    0    0  501 -0.00000000000E+00 -0.00000000000E+00 -0.40559202748E+03  0.40559202751E+03  0.50400000000E-02 0.  1.
    8880023    1    1    2    0    0 -0.28797823680E+03  0.74594392880E+02  0.22949511503E+04  0.24060562706E+04  0.65864270000E+03 0. -1.
    8880022    1    1    2    0    0  0.28797823680E+03 -0.74594392880E+02 -0.27012887748E+03  0.42995005731E+03  0.15294330000E+03 0.  0.
<mgrwt>
<rscale>  0 0.59610058E+03</rscale>
<asrwt>0</asrwt>
<pdfrwt beam="1">  1        1 0.37390990E+00 0.72270741E+03</pdfrwt>
<pdfrwt beam="2">  1       -1 0.62398772E-01 0.72270741E+03</pdfrwt>
<totfact> 0.41956057E+00</totfact>
</mgrwt>
</event>
<event>
 4    1  0.1521315E-007  0.7416395E+03  0.7818608E-02  0.9855197E-01
          1   -1    0    0  501    0  0.00000000000E+00  0.00000000000E+00  0.11469457244E+04  0.11469457244E+04  0.50400000000E-02 0. -1.
         -1   -1    0    0    0  501 -0.00000000000E+00 -0.00000000000E+00 -0.50033478350E+03  0.50033478353E+03  0.50400000000E-02 0.  1.
    8880023    1    1    2    0    0 -0.40777652324E+02  0.33846142312E+03  0.92189150226E+03  0.11831792341E+04  0.65864270000E+03 0. -1.
    8880022    1    1    2    0    0  0.40777652324E+02 -0.33846142312E+03 -0.27528056136E+03  0.46410127381E+03  0.15294330000E+03 0.  0.
<mgrwt>
<rscale>  0 0.62482650E+03</rscale>
<asrwt>0</asrwt>
<pdfrwt beam="1">  1        1 0.17645319E+00 0.74163951E+03</pdfrwt>
<pdfrwt beam="2">  1       -1 0.76974583E-01 0.74163951E+03</pdfrwt>
<totfact> 0.20419058E+01</totfact>
</mgrwt>
</event>
<event>
 4    1  0.1521315E-007  0.6850192E+03  0.7818608E-02  0.1006616E+00
         -1   -1    0    0    0  501 -0.00000000000E+00  0.00000000000E+00  0.49249118230E+03  0.49249118232E+03  0.50400000000E-02 0.  1.
          1   -1    0    0  501    0  0.00000000000E+00 -0.00000000000E+00 -0.48774496765E+03  0.48774496767E+03  0.50400000000E-02 0. -1.
    8880023    1    1    2    0    0  0.10606144127E+03  0.15553785925E+03 -0.13801931127E+03  0.69878508251E+03  0.65864270000E+03 0. -1.
    8880022    1    1    2    0    0 -0.10606144127E+03 -0.15553785925E+03  0.14276552592E+03  0.28145106749E+03  0.15294330000E+03 0.  0.
<mgrwt>
<rscale>  0 0.52842018E+03</rscale>
<asrwt>0</asrwt>
<pdfrwt beam="1">  1        1 0.75037687E-01 0.68501917E+03</pdfrwt>
<pdfrwt beam="2">  1       -1 0.75767874E-01 0.68501917E+03</pdfrwt>
<totfact> 0.82179019E+01</totfact>
</mgrwt>
</event>
<event>
 4    1  0.1521315E-007  0.9401157E+03  0.7818608E-02  0.9464480E-01
         -1   -1    0    0    0  501 -0.00000000000E+00  0.00000000000E+00  0.80007816693E+03  0.80007816695E+03  0.50400000000E-02 0.  1.
          1   -1    0    0  501    0  0.00000000000E+00 -0.00000000000E+00 -0.87496406339E+03  0.87496406341E+03  0.50400000000E-02 0. -1.
    8880023    1    1    2    0    0  0.45410694861E+02 -0.66928702374E+03 -0.23409381107E+03  0.96882267211E+03  0.65864270000E+03 0. -1.
    8880022    1    1    2    0    0 -0.45410694861E+02  0.66928702374E+03  0.15920791461E+03  0.70621955824E+03  0.15294330000E+03 0.  0.
<mgrwt>
<rscale>  0 0.86953961E+03</rscale>
<asrwt>0</asrwt>
<pdfrwt beam="1">  1        1 0.13460986E+00 0.94011566E+03</pdfrwt>
<pdfrwt beam="2">  1       -1 0.12308895E+00 0.94011566E+03</pdfrwt>
<totfact> 0.11189769E+01</totfact>
</mgrwt>
</event>
<event>
 4    1  0.1521315E-007  0.9426355E+03  0.7818608E-02  0.9460790E-01
         -1   -1    0    0    0  501 -0.00000000000E+00  0.00000000000E+00  0.39454243837E+03  0.39454243840E+03  0.50400000000E-02 0.  1.
          1   -1    0    0  501    0  0.00000000000E+00 -0.00000000000E+00 -0.20346892804E+04  0.20346892804E+04  0.50400000000E-02 0. -1.
    8880023    1    1    2    0    0 -0.57804131757E+03  0.34730347862E+03 -0.14184099834E+04  0.17030703328E+04  0.65864270000E+03 0.  0.
    8880022    1    1    2    0    0  0.57804131757E+03 -0.34730347862E+03 -0.22173685864E+03  0.72616138604E+03  0.15294330000E+03 0.  0.
<mgrwt>
<rscale>  0 0.87237373E+03</rscale>
<asrwt>0</asrwt>
<pdfrwt beam="1">  1        1 0.31302911E+00 0.94263550E+03</pdfrwt>
<pdfrwt beam="2">  1       -1 0.60698838E-01 0.94263550E+03</pdfrwt>
<totfact> 0.79173134E+00</totfact>
</mgrwt>
</event>
<event>
 4    1  0.1521315E-007  0.6751145E+03  0.7818608E-02  0.1012234E+00
          1   -1    0    0  501    0  0.00000000000E+00  0.00000000000E+00  0.25140323741E+04  0.25140323741E+04  0.50400000000E-02 0. -1.
         -1   -1    0    0    0  501 -0.00000000000E+00 -0.00000000000E+00 -0.18013620056E+03  0.18013620063E+03  0.50400000000E-02 0.  1.
    8880023    1    1    2    0    0  0.14738140745E+03  0.15749333609E+02  0.23819990033E+04  0.24758228488E+04  0.65864270000E+03 0. -1.
    8880022    1    1    2    0    0 -0.14738140745E+03 -0.15749333609E+02 -0.48102829780E+02  0.21834572590E+03  0.15294330000E+03 0.  0.
<mgrwt>
<rscale>  0 0.50596252E+03</rscale>
<asrwt>0</asrwt>
<pdfrwt beam="1">  1        1 0.38677418E+00 0.67511445E+03</pdfrwt>
<pdfrwt beam="2">  1       -1 0.27713264E-01 0.67511445E+03</pdfrwt>
<totfact> 0.16493620E+01</totfact>
</mgrwt>
</event>
<event>
 4    1  0.1521315E-007  0.6916413E+03  0.7818608E-02  0.1003382E+00
         -1   -1    0    0    0  501 -0.00000000000E+00  0.00000000000E+00  0.48479391304E+03  0.48479391306E+03  0.50400000000E-02 0.  1.
          1   -1    0    0  501    0  0.00000000000E+00 -0.00000000000E+00 -0.58097474642E+03  0.58097474644E+03  0.50400000000E-02 0. -1.
    8880023    1    1    2    0    0 -0.19270768743E+03 -0.86146839495E+02 -0.28066653002E+03  0.74641907672E+03  0.65864270000E+03 0.  0.
    8880022    1    1    2    0    0  0.19270768743E+03  0.86146839495E+02  0.18448569664E+03  0.31934958279E+03  0.15294330000E+03 0.  0.
<mgrwt>
<rscale>  0 0.54191820E+03</rscale>
<asrwt>0</asrwt>
<pdfrwt beam="1">  1        1 0.89380730E-01 0.69164134E+03</pdfrwt>
<pdfrwt beam="2">  1       -1 0.74583679E-01 0.69164134E+03</pdfrwt>
<totfact> 0.66534344E+01</totfact>
</mgrwt>
</event>
<event>
 4    1  0.1521315E-007  0.7552345E+03  0.7818608E-02  0.9817605E-01
         -1   -1    0    0    0  501 -0.00000000000E+00  0.00000000000E+00  0.38837855382E+03  0.38837855385E+03  0.50400000000E-02 0.  1.
          1   -1    0    0  501    0  0.00000000000E+00 -0.00000000000E+00 -0.87694832024E+03  0.87694832026E+03  0.50400000000E-02 0. -1.
    8880023    1    1    2    0    0  0.31915493349E+03  0.18630358767E+03 -0.23163755714E+03  0.78995889924E+03  0.65864270000E+03 0.  1.
    8880022    1    1    2    0    0 -0.31915493349E+03 -0.18630358767E+03 -0.25693220928E+03  0.47536797487E+03  0.15294330000E+03 0.  0.
<mgrwt>
<rscale>  0 0.64426266E+03</rscale>
<asrwt>0</asrwt>
<pdfrwt beam="1">  1        1 0.13491513E+00 0.75523447E+03</pdfrwt>
<pdfrwt beam="2">  1       -1 0.59750547E-01 0.75523447E+03</pdfrwt>
<totfact> 0.55193563E+01</totfact>
</mgrwt>
</event>
<event>
 4    1  0.1521315E-007  0.7685724E+03  0.7818608E-02  0.9783399E-01
         -1   -1    0    0    0  501 -0.00000000000E+00  0.00000000000E+00  0.18410359563E+03  0.18410359570E+03  0.50400000000E-02 0.  1.
          1   -1    0    0  501    0  0.00000000000E+00 -0.00000000000E+00 -0.31423301640E+04  0.31423301640E+04  0.50400000000E-02 0. -1.
    8880023    1    1    2    0    0 -0.85708243433E+01 -0.39600487818E+03 -0.27464265734E+04  0.28519401207E+04  0.65864270000E+03 0. -1.
    8880022    1    1    2    0    0  0.85708243433E+01  0.39600487818E+03 -0.21179999492E+03  0.47449363898E+03  0.15294330000E+03 0.  0.
<mgrwt>
<rscale>  0 0.66261083E+03</rscale>
<asrwt>0</asrwt>
<pdfrwt beam="1">  1        1 0.48343537E+00 0.76857240E+03</pdfrwt>
<pdfrwt beam="2">  1       -1 0.28323632E-01 0.76857240E+03</pdfrwt>
<totfact> 0.56460533E+00</totfact>
</mgrwt>
</event>
<event>
 4    1  0.1521315E-007  0.7641435E+03  0.7818608E-02  0.9794496E-01
          1   -1    0    0  501    0  0.00000000000E+00  0.00000000000E+00  0.23701001528E+04  0.23701001528E+04  0.50400000000E-02 0. -1.
         -1   -1    0    0    0  501 -0.00000000000E+00 -0.00000000000E+00 -0.21194237012E+03  0.21194237018E+03  0.50400000000E-02 0.  1.
    8880023    1    1    2    0    0 -0.33770813525E+03 -0.18989017790E+03  0.19921034409E+04  0.21336333776E+04  0.65864270000E+03 0. -1.
    8880022    1    1    2    0    0  0.33770813525E+03  0.18989017790E+03  0.16605434177E+03  0.44840914544E+03  0.15294330000E+03 0.  0.
<mgrwt>
<rscale>  0 0.65658748E+03</rscale>
<asrwt>0</asrwt>
<pdfrwt beam="1">  1        1 0.36463079E+00 0.76414349E+03</pdfrwt>
<pdfrwt beam="2">  1       -1 0.32606518E-01 0.76414349E+03</pdfrwt>
<totfact> 0.15342054E+01</totfact>
</mgrwt>
</event>
<event>
 4    1  0.1521315E-007  0.7074709E+03  0.7818608E-02  0.9967515E-01
          1   -1    0    0  501    0  0.00000000000E+00  0.00000000000E+00  0.26103442796E+04  0.26103442796E+04  0.50400000000E-02 0. -1.
         -1   -1    0    0    0  501 -0.00000000000E+00 -0.00000000000E+00 -0.19269220275E+03  0.19269220282E+03  0.50400000000E-02 0.  1.
    8880023    1    1    2    0    0 -0.11491582857E+03  0.23129890009E+03  0.24002830304E+04  0.25023736054E+04  0.65864270000E+03 0. -1.
    8880022    1    1    2    0    0  0.11491582857E+03 -0.23129890009E+03  0.17369046490E+02  0.30066287704E+03  0.15294330000E+03 0.  0.
<mgrwt>
<rscale>  0 0.57097869E+03</rscale>
<asrwt>0</asrwt>
<pdfrwt beam="1">  1        1 0.40159143E+00 0.70747087E+03</pdfrwt>
<pdfrwt beam="2">  1       -1 0.29644954E-01 0.70747087E+03</pdfrwt>
<totfact> 0.12540735E+01</totfact>
</mgrwt>
</event>
<event>
 4    1  0.1521315E-007  0.6679848E+03  0.7818608E-02  0.1017151E+00
          1   -1    0    0  501    0  0.00000000000E+00  0.00000000000E+00  0.36913768429E+03  0.36913768432E+03  0.50400000000E-02 0. -1.
         -1   -1    0    0    0  501 -0.00000000000E+00 -0.00000000000E+00 -0.55468665988E+03  0.55468665991E+03  0.50400000000E-02 0.  1.
    8880023    1    1    2    0    0 -0.58291176527E+02  0.94845498835E+02 -0.13505852885E+02  0.66812135442E+03  0.65864270000E+03 0. -1.
    8880022    1    1    2    0    0  0.58291176527E+02 -0.94845498835E+02 -0.17204312271E+03  0.25570298981E+03  0.15294330000E+03 0.  1.
<mgrwt>
<rscale>  0 0.48729040E+03</rscale>
<asrwt>0</asrwt>
<pdfrwt beam="1">  1        1 0.56790413E-01 0.66798483E+03</pdfrwt>
<pdfrwt beam="2">  1       -1 0.85336409E-01 0.66798483E+03</pdfrwt>
<totfact> 0.92722524E+01</totfact>
</mgrwt>
</event>
<event>
 4    1  0.1521315E-007  0.7634926E+03  0.7818608E-02  0.9796148E-01
         -1   -1    0    0    0  501 -0.00000000000E+00  0.00000000000E+00  0.21523408291E+03  0.21523408297E+03  0.50400000000E-02 0.  1.
          1   -1    0    0  501    0  0.00000000000E+00 -0.00000000000E+00 -0.19931449965E+04  0.19931449965E+04  0.50400000000E-02 0. -1.
    8880023    1    1    2    0    0 -0.89756356931E+02 -0.37557218717E+03 -0.15657829025E+04  0.17420094648E+04  0.65864270000E+03 0. -1.
    8880022    1    1    2    0    0  0.89756356931E+02  0.37557218717E+03 -0.21212801108E+03  0.46636961467E+03  0.15294330000E+03 0.  0.
<mgrwt>
<rscale>  0 0.65569666E+03</rscale>
<asrwt>0</asrwt>
<pdfrwt beam="1">  1        1 0.30663768E+00 0.76349255E+03</pdfrwt>
<pdfrwt beam="2">  1       -1 0.33112937E-01 0.76349255E+03</pdfrwt>
<totfact> 0.26751246E+01</totfact>
</mgrwt>
</event>
<event>
 4    1  0.1521315E-007  0.8088333E+03  0.7818608E-02  0.9692012E-01
         -1   -1    0    0    0  501 -0.00000000000E+00  0.00000000000E+00  0.16025410135E+04  0.16025410136E+04  0.50400000000E-02 0.  1.
          1   -1    0    0  501    0  0.00000000000E+00 -0.00000000000E+00 -0.29917098127E+03  0.29917098131E+03  0.50400000000E-02 0. -1.
    8880023    1    1    2    0    0  0.46942149865E+03  0.66750710976E+01  0.11054765321E+04  0.13697772335E+04  0.65864270000E+03 0.  1.
    8880022    1    1    2    0    0 -0.46942149865E+03 -0.66750710976E+01  0.19789350014E+03  0.53193476140E+03  0.15294330000E+03 0.  0.
<mgrwt>
<rscale>  0 0.71494374E+03</rscale>
<asrwt>0</asrwt>
<pdfrwt beam="1">  1        1 0.46026304E-01 0.80883330E+03</pdfrwt>
<pdfrwt beam="2">  1       -1 0.24654477E+00 0.80883330E+03</pdfrwt>
<totfact> 0.66533268E+00</totfact>
</mgrwt>
</event>
<event>
 4    1  0.1521315E-007  0.7745551E+03  0.7818608E-02  0.9768786E-01
         -1   -1    0    0    0  501 -0.00000000000E+00  0.00000000000E+00  0.36395680878E+03  0.36395680882E+03  0.50400000000E-02 0.  1.
          1   -1    0    0  501    0  0.00000000000E+00 -0.00000000000E+00 -0.16083462778E+04  0.16083462778E+04  0.50400000000E-02 0. -1.
    8880023    1    1    2    0    0 -0.25566988247E+03  0.31742450494E+03 -0.13199816906E+04  0.15304532907E+04  0.65864270000E+03 0. -1.
    8880022    1    1    2    0    0  0.25566988247E+03 -0.31742450494E+03  0.75592221656E+02  0.44184979589E+03  0.15294330000E+03 0.  0.
<mgrwt>
<rscale>  0 0.67064900E+03</rscale>
<asrwt>0</asrwt>
<pdfrwt beam="1">  1        1 0.24743788E+00 0.77455511E+03</pdfrwt>
<pdfrwt beam="2">  1       -1 0.55993356E-01 0.77455511E+03</pdfrwt>
<totfact> 0.18356334E+01</totfact>
</mgrwt>
</event>
<event>
 4    1  0.1521315E-007  0.9417227E+03  0.7818608E-02  0.9462125E-01
          1   -1    0    0  501    0  0.00000000000E+00  0.00000000000E+00  0.73766123032E+03  0.73766123034E+03  0.50400000000E-02 0. -1.
         -1   -1    0    0    0  501 -0.00000000000E+00 -0.00000000000E+00 -0.15075615789E+04  0.15075615789E+04  0.50400000000E-02 0.  1.
    8880023    1    1    2    0    0  0.53717996549E+03  0.40554799163E+03  0.28559390971E+03  0.98407600132E+03  0.65864270000E+03 0.  0.
    8880022    1    1    2    0    0 -0.53717996549E+03 -0.40554799163E+03 -0.10554942583E+04  0.12611468079E+04  0.15294330000E+03 0.  0.
<mgrwt>
<rscale>  0 0.87134751E+03</rscale>
<asrwt>0</asrwt>
<pdfrwt beam="1">  1        1 0.11348634E+00 0.94172273E+03</pdfrwt>
<pdfrwt beam="2">  1       -1 0.23193255E+00 0.94172273E+03</pdfrwt>
<totfact> 0.23355505E+00</totfact>
</mgrwt>
</event>
<event>
 4    1  0.1521315E-007  0.1023650E+04  0.7818608E-02  0.9351250E-01
          1   -1    0    0  501    0  0.00000000000E+00  0.00000000000E+00  0.22715967554E+04  0.22715967554E+04  0.50400000000E-02 0. -1.
         -1   -1    0    0    0  501 -0.00000000000E+00 -0.00000000000E+00 -0.72403965349E+03  0.72403965351E+03  0.50400000000E-02 0.  1.
    8880023    1    1    2    0    0  0.37866540920E+03 -0.68604757338E+03  0.18721876255E+04  0.21337632194E+04  0.65864270000E+03 0.  0.
    8880022    1    1    2    0    0 -0.37866540920E+03  0.68604757338E+03 -0.32463052354E+03  0.86187318957E+03  0.15294330000E+03 0.  0.
<mgrwt>
<rscale>  0 0.96198547E+03</rscale>
<asrwt>0</asrwt>
<pdfrwt beam="1">  1        1 0.34947641E+00 0.10236498E+04</pdfrwt>
<pdfrwt beam="2">  1       -1 0.11139072E+00 0.10236498E+04</pdfrwt>
<totfact> 0.14580429E+00</totfact>
</mgrwt>
</event>
<event>
 4    1  0.1521315E-007  0.6887644E+03  0.7818608E-02  0.1004745E+00
          1   -1    0    0  501    0  0.00000000000E+00  0.00000000000E+00  0.99869709675E+03  0.99869709676E+03  0.50400000000E-02 0. -1.
         -1   -1    0    0    0  501 -0.00000000000E+00 -0.00000000000E+00 -0.80704461718E+03  0.80704461719E+03  0.50400000000E-02 0.  1.
    8880023    1    1    2    0    0 -0.17765048116E+03  0.95007829749E+02  0.85376799528E+03  0.10969576916E+04  0.65864270000E+03 0.  0.
    8880022    1    1    2    0    0  0.17765048116E+03 -0.95007829749E+02 -0.66211551571E+03  0.70878402234E+03  0.15294330000E+03 0.  0.
<mgrwt>
<rscale>  0 0.53617518E+03</rscale>
<asrwt>0</asrwt>
<pdfrwt beam="1">  1        1 0.15364571E+00 0.68876439E+03</pdfrwt>
<pdfrwt beam="2">  1       -1 0.12416071E+00 0.68876439E+03</pdfrwt>
<totfact> 0.89984110E+00</totfact>
</mgrwt>
</event>
<event>
 4    1  0.1521315E-007  0.1058765E+04  0.7818608E-02  0.9308419E-01
          1   -1    0    0  501    0  0.00000000000E+00  0.00000000000E+00  0.15933718326E+04  0.15933718326E+04  0.50400000000E-02 0. -1.
         -1   -1    0    0    0  501 -0.00000000000E+00 -0.00000000000E+00 -0.10050749906E+04  0.10050749906E+04  0.50400000000E-02 0.  1.
    8880023    1    1    2    0    0 -0.74566445288E+03 -0.36215584881E+03  0.11671957320E+04  0.15758579943E+04  0.65864270000E+03 0.  0.
    8880022    1    1    2    0    0  0.74566445288E+03  0.36215584881E+03 -0.57889889002E+03  0.10225888289E+04  0.15294330000E+03 0.  0.
<mgrwt>
<rscale>  0 0.10001151E+04</rscale>
<asrwt>0</asrwt>
<pdfrwt beam="1">  1        1 0.24513413E+00 0.10587646E+04</pdfrwt>
<pdfrwt beam="2">  1       -1 0.15462692E+00 0.10587646E+04</pdfrwt>
<totfact> 0.18084393E+00</totfact>
</mgrwt>
</event>
<event>
 4    1  0.1521315E-007  0.6806275E+03  0.7818608E-02  0.1008971E+00
         -1   -1    0    0    0  501 -0.00000000000E+00  0.00000000000E+00  0.30799315901E+03  0.30799315905E+03  0.50400000000E-02 0.  1.
          1   -1    0    0  501    0  0.00000000000E+00 -0.00000000000E+00 -0.11178192590E+04  0.11178192591E+04  0.50400000000E-02 0. -1.
    8880023    1    1    2    0    0 -0.49715318070E+02 -0.16423164326E+03 -0.94085271213E+03  0.11612311043E+04  0.65864270000E+03 0. -1.
    8880022    1    1    2    0    0  0.49715318070E+02  0.16423164326E+03  0.13102661210E+03  0.26458131376E+03  0.15294330000E+03 0.  0.
<mgrwt>
<rscale>  0 0.51885698E+03</rscale>
<asrwt>0</asrwt>
<pdfrwt beam="1">  1        1 0.17197219E+00 0.68062754E+03</pdfrwt>
<pdfrwt beam="2">  1       -1 0.47383563E-01 0.68062754E+03</pdfrwt>
<totfact> 0.56361048E+01</totfact>
</mgrwt>
</event>
<event>
 4    1  0.1521315E-007  0.9602083E+03  0.7818608E-02  0.9435576E-01
          1   -1    0    0  501    0  0.00000000000E+00  0.00000000000E+00  0.16779626818E+04  0.16779626818E+04  0.50400000000E-02 0. -1.
         -1   -1    0    0    0  501 -0.00000000000E+00 -0.00000000000E+00 -0.70231674441E+03  0.70231674443E+03  0.50400000000E-02 0.  1.
    8880023    1    1    2    0    0 -0.34297713808E+03  0.60873351452E+03  0.12823830761E+04  0.16020319501E+04  0.65864270000E+03 0.  0.
    8880022    1    1    2    0    0  0.34297713808E+03 -0.60873351452E+03 -0.30673713868E+03  0.77824747619E+03  0.15294330000E+03 0.  0.
<mgrwt>
<rscale>  0 0.89204846E+03</rscale>
<asrwt>0</asrwt>
<pdfrwt beam="1">  1        1 0.25814810E+00 0.96020832E+03</pdfrwt>
<pdfrwt beam="2">  1       -1 0.10804873E+00 0.96020832E+03</pdfrwt>
<totfact> 0.39775277E+00</totfact>
</mgrwt>
</event>
<event>
 4    1  0.1521315E-007  0.6835173E+03  0.7818608E-02  0.1007400E+00
          1   -1    0    0  501    0  0.00000000000E+00  0.00000000000E+00  0.72047833137E+03  0.72047833139E+03  0.50400000000E-02 0. -1.
         -1   -1    0    0    0  501 -0.00000000000E+00 -0.00000000000E+00 -0.32809605706E+03  0.32809605710E+03  0.50400000000E-02 0.  1.
    8880023    1    1    2    0    0 -0.17799588117E+03  0.41270045662E+02  0.42973624283E+03  0.80738416819E+03  0.65864270000E+03 0. -1.
    8880022    1    1    2    0    0  0.17799588117E+03 -0.41270045662E+02 -0.37353968521E+02  0.24119022029E+03  0.15294330000E+03 0.  1.
<mgrwt>
<rscale>  0 0.52521134E+03</rscale>
<asrwt>0</asrwt>
<pdfrwt beam="1">  1        1 0.11084282E+00 0.68351734E+03</pdfrwt>
<pdfrwt beam="2">  1       -1 0.50476317E-01 0.68351734E+03</pdfrwt>
<totfact> 0.10513279E+02</totfact>
</mgrwt>
</event>
<event>
 4    1  0.1521315E-007  0.7425346E+03  0.7818608E-02  0.9852625E-01
         -1   -1    0    0    0  501 -0.00000000000E+00  0.00000000000E+00  0.68904183091E+03  0.68904183093E+03  0.50400000000E-02 0.  1.
          1   -1    0    0  501    0  0.00000000000E+00 -0.00000000000E+00 -0.10033978982E+04  0.10033978982E+04  0.50400000000E-02 0. -1.
    8880023    1    1    2    0    0  0.30627737280E+02 -0.34148109904E+03 -0.79152126788E+03  0.10852942104E+04  0.65864270000E+03 0. -1.
    8880022    1    1    2    0    0 -0.30627737280E+02  0.34148109904E+03  0.47716520059E+03  0.60714551877E+03  0.15294330000E+03 0.  0.
<mgrwt>
<rscale>  0 0.62613277E+03</rscale>
<asrwt>0</asrwt>
<pdfrwt beam="1">  1        1 0.15436891E+00 0.74253458E+03</pdfrwt>
<pdfrwt beam="2">  1       -1 0.10600643E+00 0.74253458E+03</pdfrwt>
<totfact> 0.12926372E+01</totfact>
</mgrwt>
</event>
<event>
 4    1  0.1521315E-007  0.7919187E+03  0.7818608E-02  0.9728550E-01
         -1   -1    0    0    0  501 -0.00000000000E+00  0.00000000000E+00  0.19995650542E+03  0.19995650549E+03  0.50400000000E-02 0.  1.
          1   -1    0    0  501    0  0.00000000000E+00 -0.00000000000E+00 -0.20507897185E+04  0.20507897185E+04  0.50400000000E-02 0. -1.
    8880023    1    1    2    0    0 -0.19862315530E+03 -0.39226768211E+03 -0.13635326047E+04  0.15768184622E+04  0.65864270000E+03 0. -1.
    8880022    1    1    2    0    0  0.19862315530E+03  0.39226768211E+03 -0.48730060841E+03  0.67392776187E+03  0.15294330000E+03 0.  0.
<mgrwt>
<rscale>  0 0.69342106E+03</rscale>
<asrwt>0</asrwt>
<pdfrwt beam="1">  1        1 0.31550610E+00 0.79191874E+03</pdfrwt>
<pdfrwt beam="2">  1       -1 0.30762541E-01 0.79191874E+03</pdfrwt>
<totfact> 0.27762347E+01</totfact>
</mgrwt>
</event>
<event>
 4    1  0.1521315E-007  0.7515660E+03  0.7818608E-02  0.9827453E-01
         -1   -1    0    0    0  501 -0.00000000000E+00  0.00000000000E+00  0.85177691495E+03  0.85177691497E+03  0.50400000000E-02 0.  1.
          1   -1    0    0  501    0  0.00000000000E+00 -0.00000000000E+00 -0.82615402472E+03  0.82615402473E+03  0.50400000000E-02 0. -1.
    8880023    1    1    2    0    0 -0.33122627881E+03  0.14604948180E+03 -0.58457088944E+03  0.95214212697E+03  0.65864270000E+03 0.  0.
    8880022    1    1    2    0    0  0.33122627881E+03 -0.14604948180E+03  0.61019377968E+03  0.72578881273E+03  0.15294330000E+03 0.  0.
<mgrwt>
<rscale>  0 0.63909858E+03</rscale>
<asrwt>0</asrwt>
<pdfrwt beam="1">  1        1 0.12710062E+00 0.75156604E+03</pdfrwt>
<pdfrwt beam="2">  1       -1 0.13104260E+00 0.75156604E+03</pdfrwt>
<totfact> 0.10750050E+01</totfact>
</mgrwt>
</event>
<event>
 4    1  0.1521315E-007  0.6909528E+03  0.7818608E-02  0.1003703E+00
         -1   -1    0    0    0  501 -0.00000000000E+00  0.00000000000E+00  0.59966481492E+03  0.59966481494E+03  0.50400000000E-02 0.  1.
          1   -1    0    0  501    0  0.00000000000E+00 -0.00000000000E+00 -0.56261777069E+03  0.56261777071E+03  0.50400000000E-02 0. -1.
    8880023    1    1    2    0    0 -0.19665861557E+03 -0.70220963082E+02 -0.28645169822E+03  0.74797752400E+03  0.65864270000E+03 0. -1.
    8880022    1    1    2    0    0  0.19665861557E+03  0.70220963082E+02  0.32349874244E+03  0.41430506165E+03  0.15294330000E+03 0.  1.
<mgrwt>
<rscale>  0 0.54055939E+03</rscale>
<asrwt>0</asrwt>
<pdfrwt beam="1">  1        1 0.86556580E-01 0.69095282E+03</pdfrwt>
<pdfrwt beam="2">  1       -1 0.92256125E-01 0.69095282E+03</pdfrwt>
<totfact> 0.44145330E+01</totfact>
</mgrwt>
</event>
<event>
 4    1  0.1521315E-007  0.9808551E+03  0.7818608E-02  0.9407045E-01
         -1   -1    0    0    0  501 -0.00000000000E+00  0.00000000000E+00  0.90140757303E+03  0.90140757305E+03  0.50400000000E-02 0.  1.
          1   -1    0    0  501    0  0.00000000000E+00 -0.00000000000E+00 -0.13699555452E+04  0.13699555452E+04  0.50400000000E-02 0. -1.
    8880023    1    1    2    0    0  0.17951910547E+03  0.70430070102E+03 -0.96660012983E+03  0.13770957134E+04  0.65864270000E+03 0.  0.
    8880022    1    1    2    0    0 -0.17951910547E+03 -0.70430070102E+03  0.49805215762E+03  0.89426740487E+03  0.15294330000E+03 0.  0.
<mgrwt>
<rscale>  0 0.91498172E+03</rscale>
<asrwt>0</asrwt>
<pdfrwt beam="1">  1        1 0.21076239E+00 0.98085513E+03</pdfrwt>
<pdfrwt beam="2">  1       -1 0.13867809E+00 0.98085513E+03</pdfrwt>
<totfact> 0.34899585E+00</totfact>
</mgrwt>
</event>
<event>
 4    1  0.1521315E-007  0.6711930E+03  0.7818608E-02  0.1014822E+00
         -1   -1    0    0    0  501 -0.00000000000E+00  0.00000000000E+00  0.18396367756E+03  0.18396367763E+03  0.50400000000E-02 0.  1.
          1   -1    0    0  501    0  0.00000000000E+00 -0.00000000000E+00 -0.15787664223E+04  0.15787664223E+04  0.50400000000E-02 0. -1.
    8880023    1    1    2    0    0 -0.72292258298E+02  0.10706850522E+03 -0.14103560460E+04  0.15619232434E+04  0.65864270000E+03 0. -1.
    8880022    1    1    2    0    0  0.72292258298E+02 -0.10706850522E+03  0.15553301342E+02  0.20080685650E+03  0.15294330000E+03 0.  0.
<mgrwt>
<rscale>  0 0.49602497E+03</rscale>
<asrwt>0</asrwt>
<pdfrwt beam="1">  1        1 0.24288713E+00 0.67119300E+03</pdfrwt>
<pdfrwt beam="2">  1       -1 0.28302105E-01 0.67119300E+03</pdfrwt>
<totfact> 0.67502380E+01</totfact>
</mgrwt>
</event>
<event>
 4    1  0.1521315E-007  0.9546491E+03  0.7818608E-02  0.9443456E-01
          1   -1    0    0  501    0  0.00000000000E+00  0.00000000000E+00  0.35681181045E+04  0.35681181045E+04  0.50400000000E-02 0. -1.
         -1   -1    0    0    0  501 -0.00000000000E+00 -0.00000000000E+00 -0.20561253443E+03  0.20561253449E+03  0.50400000000E-02 0.  1.
    8880023    1    1    2    0    0  0.68481380758E+03 -0.92599461849E+02  0.14657076873E+04  0.17491866230E+04  0.65864270000E+03 0.  0.
    8880022    1    1    2    0    0 -0.68481380758E+03  0.92599461849E+02  0.18967978828E+04  0.20245440160E+04  0.15294330000E+03 0.  0.
<mgrwt>
<rscale>  0 0.88584068E+03</rscale>
<asrwt>0</asrwt>
<pdfrwt beam="1">  1        1 0.54894120E+00 0.95464905E+03</pdfrwt>
<pdfrwt beam="2">  1       -1 0.31632701E-01 0.95464905E+03</pdfrwt>
<totfact> 0.21463672E+00</totfact>
</mgrwt>
</event>
<event>
 4    1  0.1521315E-007  0.8109423E+03  0.7818608E-02  0.9687617E-01
         -1   -1    0    0    0  501 -0.00000000000E+00  0.00000000000E+00  0.49632208375E+03  0.49632208378E+03  0.50400000000E-02 0.  1.
          1   -1    0    0  501    0  0.00000000000E+00 -0.00000000000E+00 -0.11149777792E+04  0.11149777792E+04  0.50400000000E-02 0. -1.
    8880023    1    1    2    0    0  0.33335767574E+03 -0.33569319169E+03 -0.74183629693E+03  0.10990671302E+04  0.65864270000E+03 0.  0.
    8880022    1    1    2    0    0 -0.33335767574E+03  0.33569319169E+03  0.12318060152E+03  0.51223273278E+03  0.15294330000E+03 0.  0.
<mgrwt>
<rscale>  0 0.71758854E+03</rscale>
<asrwt>0</asrwt>
<pdfrwt beam="1">  1        1 0.17153504E+00 0.81094233E+03</pdfrwt>
<pdfrwt beam="2">  1       -1 0.76357244E-01 0.81094233E+03</pdfrwt>
<totfact> 0.21749949E+01</totfact>
</mgrwt>
</event>
<event>
 4    1  0.1521315E-007  0.8506997E+03  0.7818608E-02  0.9610326E-01
          1   -1    0    0  501    0  0.00000000000E+00  0.00000000000E+00  0.30468728374E+04  0.30468728374E+04  0.50400000000E-02 0. -1.
         -1   -1    0    0    0  501 -0.00000000000E+00 -0.00000000000E+00 -0.28152214858E+03  0.28152214862E+03  0.50400000000E-02 0.  1.
    8880023    1    1    2    0    0  0.53457585503E+03 -0.64096842974E+02  0.26134826676E+04  0.27484507655E+04  0.65864270000E+03 0.  0.
    8880022    1    1    2    0    0 -0.53457585503E+03  0.64096842974E+02  0.15186802120E+03  0.57994422054E+03  0.15294330000E+03 0.  0.
<mgrwt>
<rscale>  0 0.76616498E+03</rscale>
<asrwt>0</asrwt>
<pdfrwt beam="1">  1        1 0.46874969E+00 0.85069969E+03</pdfrwt>
<pdfrwt beam="2">  1       -1 0.43311098E-01 0.85069969E+03</pdfrwt>
<totfact> 0.30580785E+00</totfact>
</mgrwt>
</event>
<event>
 4    1  0.1521315E-007  0.8761493E+03  0.7818608E-02  0.9565458E-01
          1   -1    0    0  501    0  0.00000000000E+00  0.00000000000E+00  0.25591637453E+04  0.25591637453E+04  0.50400000000E-02 0. -1.
         -1   -1    0    0    0  501 -0.00000000000E+00 -0.00000000000E+00 -0.23601408832E+03  0.23601408837E+03  0.50400000000E-02 0.  1.
    8880023    1    1    2    0    0 -0.31639556097E+03 -0.48344731382E+03  0.17957041396E+04  0.19980468011E+04  0.65864270000E+03 0.  1.
    8880022    1    1    2    0    0  0.31639556097E+03  0.48344731382E+03  0.52744551737E+03  0.79713103255E+03  0.15294330000E+03 0.  0.
<mgrwt>
<rscale>  0 0.79625182E+03</rscale>
<asrwt>0</asrwt>
<pdfrwt beam="1">  1        1 0.39371748E+00 0.87614934E+03</pdfrwt>
<pdfrwt beam="2">  1       -1 0.36309861E-01 0.87614934E+03</pdfrwt>
<totfact> 0.92610688E+00</totfact>
</mgrwt>
</event>
<event>
 4    1  0.1521315E-007  0.8573292E+03  0.7818608E-02  0.9598332E-01
          1   -1    0    0  501    0  0.00000000000E+00  0.00000000000E+00  0.16969637150E+04  0.16969637150E+04  0.50400000000E-02 0. -1.
         -1   -1    0    0    0  501 -0.00000000000E+00 -0.00000000000E+00 -0.36358700130E+03  0.36358700133E+03  0.50400000000E-02 0.  1.
    8880023    1    1    2    0    0 -0.51986678440E+03  0.17590254824E+03  0.12010601803E+04  0.14756554283E+04  0.65864270000E+03 0. -1.
    8880022    1    1    2    0    0  0.51986678440E+03 -0.17590254824E+03  0.13231653341E+03  0.58489528809E+03  0.15294330000E+03 0.  1.
<mgrwt>
<rscale>  0 0.77406676E+03</rscale>
<asrwt>0</asrwt>
<pdfrwt beam="1">  1        1 0.26107135E+00 0.85732922E+03</pdfrwt>
<pdfrwt beam="2">  1       -1 0.55936460E-01 0.85732922E+03</pdfrwt>
<totfact> 0.15852674E+01</totfact>
</mgrwt>
</event>
<event>
 4    1  0.1521315E-007  0.8590173E+03  0.7818608E-02  0.9595314E-01
         -1   -1    0    0    0  501 -0.00000000000E+00  0.00000000000E+00  0.11036673621E+04  0.11036673621E+04  0.50400000000E-02 0.  1.
          1   -1    0    0  501    0  0.00000000000E+00 -0.00000000000E+00 -0.69297742332E+03  0.69297742334E+03  0.50400000000E-02 0. -1.
    8880023    1    1    2    0    0 -0.26884598189E+03  0.48147929063E+03 -0.27645566362E+03  0.90240700878E+03  0.65864270000E+03 0.  0.
    8880022    1    1    2    0    0  0.26884598189E+03 -0.48147929063E+03  0.68714560235E+03  0.89423777662E+03  0.15294330000E+03 0.  0.
<mgrwt>
<rscale>  0 0.77607113E+03</rscale>
<asrwt>0</asrwt>
<pdfrwt beam="1">  1        1 0.10661191E+00 0.85901727E+03</pdfrwt>
<pdfrwt beam="2">  1       -1 0.16979498E+00 0.85901727E+03</pdfrwt>
<totfact> 0.69584884E+00</totfact>
</mgrwt>
</event>
<event>
 4    1  0.1521315E-007  0.6641912E+03  0.7818608E-02  0.1020222E+00
          1   -1    0    0  501    0  0.00000000000E+00  0.00000000000E+00  0.11194020807E+04  0.11194020808E+04  0.50400000000E-02 0. -1.
         -1   -1    0    0    0  501 -0.00000000000E+00 -0.00000000000E+00 -0.17772805596E+03  0.17772805603E+03  0.50400000000E-02 0.  1.
    8880023    1    1    2    0    0 -0.57456546579E+02 -0.63549019030E+02  0.89715783930E+03  0.11162625710E+04  0.65864270000E+03 0. -1.
    8880022    1    1    2    0    0  0.57456546579E+02  0.63549019030E+02  0.44516185483E+02  0.18086756577E+03  0.15294330000E+03 0.  0.
<mgrwt>
<rscale>  0 0.47606648E+03</rscale>
<asrwt>0</asrwt>
<pdfrwt beam="1">  1        1 0.17221570E+00 0.66419119E+03</pdfrwt>
<pdfrwt beam="2">  1       -1 0.27342778E-01 0.66419119E+03</pdfrwt>
<totfact> 0.15051838E+02</totfact>
</mgrwt>
</event>
<event>
 4    1  0.1521315E-007  0.7925054E+03  0.7818608E-02  0.9727242E-01
         -1   -1    0    0    0  501 -0.00000000000E+00  0.00000000000E+00  0.36912510834E+03  0.36912510837E+03  0.50400000000E-02 0.  1.
          1   -1    0    0  501    0  0.00000000000E+00 -0.00000000000E+00 -0.26884847634E+04  0.26884847634E+04  0.50400000000E-02 0. -1.
    8880023    1    1    2    0    0  0.43963365557E+03 -0.31253380782E+02 -0.11067943762E+03  0.80019664402E+03  0.65864270000E+03 0.  0.
    8880022    1    1    2    0    0 -0.43963365557E+03  0.31253380782E+02 -0.22086802175E+04  0.22574132278E+04  0.15294330000E+03 0.  0.
<mgrwt>
<rscale>  0 0.69417750E+03</rscale>
<asrwt>0</asrwt>
<pdfrwt beam="1">  1        1 0.41361303E+00 0.79250535E+03</pdfrwt>
<pdfrwt beam="2">  1       -1 0.56788480E-01 0.79250535E+03</pdfrwt>
<totfact> 0.33160940E+00</totfact>
</mgrwt>
</event>
<event>
 4    1  0.3438211E-007  0.8523230E+03  0.7818608E-02  0.9607368E-01
          1   -1    0    0  501    0  0.00000000000E+00  0.00000000000E+00  0.17139046532E+04  0.17139046533E+04  0.50400000000E-02 0. -1.
         -1   -1    0    0    0  501 -0.00000000000E+00 -0.00000000000E+00 -0.16227838220E+04  0.16227838220E+04  0.50400000000E-02 0.  1.
    8880023    1    1    2    0    0  0.29688327478E+03  0.45222191488E+03  0.15524076891E+04  0.17709952508E+04  0.65864270000E+03 0. -1.
    8880022    1    1    2    0    0 -0.29688327478E+03 -0.45222191488E+03 -0.14612868578E+04  0.15656932244E+04  0.15294330000E+03 0.  0.
<mgrwt>
<rscale>  0 0.76810437E+03</rscale>
<asrwt>0</asrwt>
<pdfrwt beam="1">  1        1 0.26367764E+00 0.85232303E+03</pdfrwt>
<pdfrwt beam="2">  1       -1 0.24965905E+00 0.85232303E+03</pdfrwt>
<totfact> 0.34059726E-01</totfact>
</mgrwt>
</event>
<event>
 4    1  0.1521315E-007  0.8012774E+03  0.7818608E-02  0.9708041E-01
         -1   -1    0    0    0  501 -0.00000000000E+00  0.00000000000E+00  0.64757651202E+03  0.64757651204E+03  0.50400000000E-02 0.  1.
          1   -1    0    0  501    0  0.00000000000E+00 -0.00000000000E+00 -0.88757744756E+03  0.88757744757E+03  0.50400000000E-02 0. -1.
    8880023    1    1    2    0    0  0.85175944703E+02  0.44830824849E+03 -0.54163345165E+03  0.96716711557E+03  0.65864270000E+03 0.  0.
    8880022    1    1    2    0    0 -0.85175944703E+02 -0.44830824849E+03  0.30163251611E+03  0.56798684405E+03  0.15294330000E+03 0.  0.
<mgrwt>
<rscale>  0 0.70540053E+03</rscale>
<asrwt>0</asrwt>
<pdfrwt beam="1">  1        1 0.13655038E+00 0.80127738E+03</pdfrwt>
<pdfrwt beam="2">  1       -1 0.99627155E-01 0.80127738E+03</pdfrwt>
<totfact> 0.18312856E+01</totfact>
</mgrwt>
</event>
<event>
 4    1  0.1521315E-007  0.8221979E+03  0.7818608E-02  0.9664708E-01
          1   -1    0    0  501    0  0.00000000000E+00  0.00000000000E+00  0.17977604239E+04  0.17977604239E+04  0.50400000000E-02 0. -1.
         -1   -1    0    0    0  501 -0.00000000000E+00 -0.00000000000E+00 -0.45486295920E+03  0.45486295923E+03  0.50400000000E-02 0.  1.
    8880023    1    1    2    0    0  0.49211947986E+03  0.42012681049E+01  0.85819253878E+01  0.82224271892E+03  0.65864270000E+03 0. -1.
    8880022    1    1    2    0    0 -0.49211947986E+03 -0.42012681049E+01  0.13343155393E+04  0.14303806642E+04  0.15294330000E+03 0.  0.
<mgrwt>
<rscale>  0 0.73157513E+03</rscale>
<asrwt>0</asrwt>
<pdfrwt beam="1">  1        1 0.27657852E+00 0.82219793E+03</pdfrwt>
<pdfrwt beam="2">  1       -1 0.69978917E-01 0.82219793E+03</pdfrwt>
<totfact> 0.87127988E+00</totfact>
</mgrwt>
</event>
<event>
 4    1  0.1521315E-007  0.7076739E+03  0.7818608E-02  0.9966742E-01
          1   -1    0    0  501    0  0.00000000000E+00  0.00000000000E+00  0.67282083869E+03  0.67282083871E+03  0.50400000000E-02 0. -1.
         -1   -1    0    0    0  501 -0.00000000000E+00 -0.00000000000E+00 -0.53653417490E+03  0.53653417493E+03  0.50400000000E-02 0.  1.
    8880023    1    1    2    0    0  0.11746611570E+03 -0.23063792721E+03  0.39699193718E+03  0.81142155890E+03  0.65864270000E+03 0.  0.
    8880022    1    1    2    0    0 -0.11746611570E+03  0.23063792721E+03 -0.26070527339E+03  0.39793345473E+03  0.15294330000E+03 0.  0.
<mgrwt>
<rscale>  0 0.57132892E+03</rscale>
<asrwt>0</asrwt>
<pdfrwt beam="1">  1        1 0.10351090E+00 0.70767390E+03</pdfrwt>
<pdfrwt beam="2">  1       -1 0.82543719E-01 0.70767390E+03</pdfrwt>
<totfact> 0.43337720E+01</totfact>
</mgrwt>
</event>
<event>
 4    1  0.1521315E-007  0.8613944E+03  0.7818608E-02  0.9591088E-01
          1   -1    0    0  501    0  0.00000000000E+00  0.00000000000E+00  0.11763640178E+04  0.11763640178E+04  0.50400000000E-02 0. -1.
         -1   -1    0    0    0  501 -0.00000000000E+00 -0.00000000000E+00 -0.16313753184E+04  0.16313753184E+04  0.50400000000E-02 0.  1.
    8880023    1    1    2    0    0 -0.31800164149E+03 -0.45504406702E+03  0.95415447666E+03  0.12854614419E+04  0.65864270000E+03 0. -1.
    8880022    1    1    2    0    0  0.31800164149E+03  0.45504406702E+03 -0.14091657772E+04  0.15222778944E+04  0.15294330000E+03 0.  0.
<mgrwt>
<rscale>  0 0.77888865E+03</rscale>
<asrwt>0</asrwt>
<pdfrwt beam="1">  1        1 0.18097908E+00 0.86139442E+03</pdfrwt>
<pdfrwt beam="2">  1       -1 0.25098082E+00 0.86139442E+03</pdfrwt>
<totfact> 0.78879939E-01</totfact>
</mgrwt>
</event>
<event>
 4    1  0.1521315E-007  0.7123050E+03  0.7818608E-02  0.9949539E-01
          1   -1    0    0  501    0  0.00000000000E+00  0.00000000000E+00  0.66704185383E+03  0.66704185385E+03  0.50400000000E-02 0. -1.
         -1   -1    0    0    0  501 -0.00000000000E+00 -0.00000000000E+00 -0.39301121245E+03  0.39301121248E+03  0.50400000000E-02 0.  1.
    8880023    1    1    2    0    0 -0.40150684073E+02  0.26824627664E+03  0.20307316767E+03  0.74068688395E+03  0.65864270000E+03 0. -1.
    8880022    1    1    2    0    0  0.40150684073E+02 -0.26824627664E+03  0.70957473708E+02  0.31936618239E+03  0.15294330000E+03 0.  1.
<mgrwt>
<rscale>  0 0.57919317E+03</rscale>
<asrwt>0</asrwt>
<pdfrwt beam="1">  1        1 0.10262182E+00 0.71230495E+03</pdfrwt>
<pdfrwt beam="2">  1       -1 0.60463264E-01 0.71230495E+03</pdfrwt>
<totfact> 0.83102188E+01</totfact>
</mgrwt>
</event>
<event>
 4    1  0.1521315E-007  0.1086905E+04  0.7818608E-02  0.9275778E-01
         -1   -1    0    0    0  501 -0.00000000000E+00  0.00000000000E+00  0.58084037516E+03  0.58084037518E+03  0.50400000000E-02 0.  1.
          1   -1    0    0  501    0  0.00000000000E+00 -0.00000000000E+00 -0.25001438808E+04  0.25001438808E+04  0.50400000000E-02 0. -1.
    8880023    1    1    2    0    0 -0.23167157058E+03 -0.83299431341E+03 -0.19161433548E+04  0.22029450300E+04  0.65864270000E+03 0.  0.
    8880022    1    1    2    0    0  0.23167157058E+03  0.83299431341E+03 -0.31601508341E+01  0.87803922598E+03  0.15294330000E+03 0.  0.
<mgrwt>
<rscale>  0 0.10304367E+04</rscale>
<asrwt>0</asrwt>
<pdfrwt beam="1">  1        1 0.38463751E+00 0.10869045E+04</pdfrwt>
<pdfrwt beam="2">  1       -1 0.89360059E-01 0.10869045E+04</pdfrwt>
<totfact> 0.16719732E+00</totfact>
</mgrwt>
</event>
<event>
 4    1  0.1521315E-007  0.1031407E+04  0.7818608E-02  0.9341574E-01
          1   -1    0    0  501    0  0.00000000000E+00  0.00000000000E+00  0.12500537475E+04  0.12500537476E+04  0.50400000000E-02 0. -1.
         -1   -1    0    0    0  501 -0.00000000000E+00 -0.00000000000E+00 -0.13085335003E+04  0.13085335004E+04  0.50400000000E-02 0.  1.
    8880023    1    1    2    0    0  0.75896238053E+02  0.79008203226E+03  0.85435925364E+03  0.13393019813E+04  0.65864270000E+03 0. -1.
    8880022    1    1    2    0    0 -0.75896238053E+02 -0.79008203226E+03 -0.91283900643E+03  0.12192852666E+04  0.15294330000E+03 0.  0.
<mgrwt>
<rscale>  0 0.97043926E+03</rscale>
<asrwt>0</asrwt>
<pdfrwt beam="1">  1        1 0.19231596E+00 0.10314068E+04</pdfrwt>
<pdfrwt beam="2">  1       -1 0.20131285E+00 0.10314068E+04</pdfrwt>
<totfact> 0.14498403E+00</totfact>
</mgrwt>
</event>
<event>
 4    1  0.1521315E-007  0.7822884E+03  0.7818608E-02  0.9750489E-01
          1   -1    0    0  501    0  0.00000000000E+00  0.00000000000E+00  0.11598380419E+04  0.11598380419E+04  0.50400000000E-02 0. -1.
         -1   -1    0    0    0  501 -0.00000000000E+00 -0.00000000000E+00 -0.44318635032E+03  0.44318635035E+03  0.50400000000E-02 0.  1.
    8880023    1    1    2    0    0  0.35064731512E+02  0.42063692774E+03  0.82941032428E+03  0.11401301034E+04  0.65864270000E+03 0. -1.
    8880022    1    1    2    0    0 -0.35064731512E+02 -0.42063692774E+03 -0.11275863272E+03  0.46289428885E+03  0.15294330000E+03 0.  0.
<mgrwt>
<rscale>  0 0.68088663E+03</rscale>
<asrwt>0</asrwt>
<pdfrwt beam="1">  1        1 0.17843662E+00 0.78228842E+03</pdfrwt>
<pdfrwt beam="2">  1       -1 0.68182515E-01 0.78228842E+03</pdfrwt>
<totfact> 0.25544560E+01</totfact>
</mgrwt>
</event>
<event>
 4    1  0.1521315E-007  0.9787152E+03  0.7818608E-02  0.9409950E-01
         -1   -1    0    0    0  501 -0.00000000000E+00  0.00000000000E+00  0.29596640069E+03  0.29596640073E+03  0.50400000000E-02 0.  1.
          1   -1    0    0  501    0  0.00000000000E+00 -0.00000000000E+00 -0.41840933693E+04  0.41840933693E+04  0.50400000000E-02 0. -1.
    8880023    1    1    2    0    0 -0.20967467446E+03  0.69289950504E+03 -0.35201969988E+04  0.36537200645E+04  0.65864270000E+03 0.  0.
    8880022    1    1    2    0    0  0.20967467446E+03 -0.69289950504E+03 -0.36792996978E+03  0.82633970549E+03  0.15294330000E+03 0.  0.
<mgrwt>
<rscale>  0 0.91261325E+03</rscale>
<asrwt>0</asrwt>
<pdfrwt beam="1">  1        1 0.64370663E+00 0.97871518E+03</pdfrwt>
<pdfrwt beam="2">  1       -1 0.45533295E-01 0.97871518E+03</pdfrwt>
<totfact> 0.33374217E-01</totfact>
</mgrwt>
</event>
<event>
 4    1  0.1521315E-007  0.9211741E+03  0.7818608E-02  0.9492861E-01
         -1   -1    0    0    0  501 -0.00000000000E+00  0.00000000000E+00  0.54919426902E+03  0.54919426905E+03  0.50400000000E-02 0.  1.
          1   -1    0    0  501    0  0.00000000000E+00 -0.00000000000E+00 -0.12492874331E+04  0.12492874331E+04  0.50400000000E-02 0. -1.
    8880023    1    1    2    0    0  0.56060063868E+03 -0.31698326948E+03 -0.66405975493E+03  0.11355778413E+04  0.65864270000E+03 0. -1.
    8880022    1    1    2    0    0 -0.56060063868E+03  0.31698326948E+03 -0.36033409183E+02  0.66290386091E+03  0.15294330000E+03 0.  0.
<mgrwt>
<rscale>  0 0.84812190E+03</rscale>
<asrwt>0</asrwt>
<pdfrwt beam="1">  1        1 0.19219807E+00 0.92117407E+03</pdfrwt>
<pdfrwt beam="2">  1       -1 0.84491426E-01 0.92117407E+03</pdfrwt>
<totfact> 0.13813660E+01</totfact>
</mgrwt>
</event>
<event>
 4    1  0.1521315E-007  0.6601585E+03  0.7818608E-02  0.1023995E+00
          1   -1    0    0  501    0  0.00000000000E+00  0.00000000000E+00  0.48596675441E+03  0.48596675444E+03  0.50400000000E-02 0. -1.
         -1   -1    0    0    0  501 -0.00000000000E+00 -0.00000000000E+00 -0.69087895981E+03  0.69087895983E+03  0.50400000000E-02 0.  1.
    8880023    1    1    2    0    0  0.38902455700E+02  0.22035996979E+02  0.24142411444E+03  0.70291876879E+03  0.65864270000E+03 0. -1.
    8880022    1    1    2    0    0 -0.38902455700E+02 -0.22035996979E+02 -0.44633631984E+03  0.47392694547E+03  0.15294330000E+03 0.  0.
<mgrwt>
<rscale>  0 0.46272221E+03</rscale>
<asrwt>0</asrwt>
<pdfrwt beam="1">  1        1 0.74764116E-01 0.66015846E+03</pdfrwt>
<pdfrwt beam="2">  1       -1 0.10628907E+00 0.66015846E+03</pdfrwt>
<totfact> 0.39337478E+01</totfact>
</mgrwt>
</event>
<event>
 4    1  0.1521315E-007  0.6852928E+03  0.7818608E-02  0.1006475E+00
         -1   -1    0    0    0  501 -0.00000000000E+00  0.00000000000E+00  0.20015660809E+03  0.20015660816E+03  0.50400000000E-02 0.  1.
          1   -1    0    0  501    0  0.00000000000E+00 -0.00000000000E+00 -0.23136388328E+04  0.23136388328E+04  0.50400000000E-02 0. -1.
    8880023    1    1    2    0    0 -0.14698532738E+03 -0.11921104220E+03 -0.21599640188E+04  0.22660694446E+04  0.65864270000E+03 0. -1.
    8880022    1    1    2    0    0  0.14698532738E+03  0.11921104220E+03  0.46481794135E+02  0.24772599631E+03  0.15294330000E+03 0.  0.
<mgrwt>
<rscale>  0 0.52899833E+03</rscale>
<asrwt>0</asrwt>
<pdfrwt beam="1">  1        1 0.35594442E+00 0.68529276E+03</pdfrwt>
<pdfrwt beam="2">  1       -1 0.30793326E-01 0.68529276E+03</pdfrwt>
<totfact> 0.18745573E+01</totfact>
</mgrwt>
</event>
<event>
 4    1  0.1521315E-007  0.9349504E+03  0.7818608E-02  0.9472106E-01
         -1   -1    0    0    0  501 -0.00000000000E+00  0.00000000000E+00  0.89195630900E+03  0.89195630901E+03  0.50400000000E-02 0.  1.
          1   -1    0    0  501    0  0.00000000000E+00 -0.00000000000E+00 -0.18041130760E+04  0.18041130760E+04  0.50400000000E-02 0. -1.
    8880023    1    1    2    0    0  0.66086266418E+03  0.59854807691E+02 -0.15191780310E+04  0.17838257076E+04  0.65864270000E+03 0.  0.
    8880022    1    1    2    0    0 -0.66086266418E+03 -0.59854807691E+02  0.60702126405E+03  0.91224367738E+03  0.15294330000E+03 0.  1.
<mgrwt>
<rscale>  0 0.86371940E+03</rscale>
<asrwt>0</asrwt>
<pdfrwt beam="1">  1        1 0.27755586E+00 0.93495041E+03</pdfrwt>
<pdfrwt beam="2">  1       -1 0.13722405E+00 0.93495041E+03</pdfrwt>
<totfact> 0.18205713E+00</totfact>
</mgrwt>
</event>
<event>
 4    1  0.1521315E-007  0.7198175E+03  0.7818608E-02  0.9923204E-01
          1   -1    0    0  501    0  0.00000000000E+00  0.00000000000E+00  0.18988261720E+04  0.18988261720E+04  0.50400000000E-02 0. -1.
         -1   -1    0    0    0  501 -0.00000000000E+00 -0.00000000000E+00 -0.20629635948E+03  0.20629635954E+03  0.50400000000E-02 0.  1.
    8880023    1    1    2    0    0  0.11677111729E+03  0.26587866638E+03  0.16146080339E+04  0.17677941816E+04  0.65864270000E+03 0. -1.
    8880022    1    1    2    0    0 -0.11677111729E+03 -0.26587866638E+03  0.77921778572E+02  0.33732834992E+03  0.15294330000E+03 0.  0.
<mgrwt>
<rscale>  0 0.59149779E+03</rscale>
<asrwt>0</asrwt>
<pdfrwt beam="1">  1        1 0.29212710E+00 0.71981745E+03</pdfrwt>
<pdfrwt beam="2">  1       -1 0.31737902E-01 0.71981745E+03</pdfrwt>
<totfact> 0.33517556E+01</totfact>
</mgrwt>
</event>
<event>
 4    1  0.1521315E-007  0.1195795E+04  0.7818608E-02  0.9161221E-01
         -1   -1    0    0    0  501 -0.00000000000E+00  0.00000000000E+00  0.20028100714E+04  0.20028100714E+04  0.50400000000E-02 0.  1.
          1   -1    0    0  501    0  0.00000000000E+00 -0.00000000000E+00 -0.13656429062E+04  0.13656429062E+04  0.50400000000E-02 0. -1.
    8880023    1    1    2    0    0 -0.98420462972E+03 -0.16570059301E+03 -0.92264008859E+03  0.15103610095E+04  0.65864270000E+03 0.  0.
    8880022    1    1    2    0    0  0.98420462972E+03  0.16570059301E+03  0.15598072538E+04  0.18580919681E+04  0.15294330000E+03 0.  0.
<mgrwt>
<rscale>  0 0.11462816E+04</rscale>
<asrwt>0</asrwt>
<pdfrwt beam="1">  1        1 0.21009891E+00 0.11957950E+04</pdfrwt>
<pdfrwt beam="2">  1       -1 0.30812463E+00 0.11957950E+04</pdfrwt>
<totfact> 0.23409210E-01</totfact>
</mgrwt>
</event>
<event>
 4    1  0.1521315E-007  0.1168327E+04  0.7818608E-02  0.9188543E-01
         -1   -1    0    0    0  501 -0.00000000000E+00  0.00000000000E+00  0.62991063463E+03  0.62991063465E+03  0.50400000000E-02 0.  1.
          1   -1    0    0  501    0  0.00000000000E+00 -0.00000000000E+00 -0.21052408627E+04  0.21052408627E+04  0.50400000000E-02 0. -1.
    8880023    1    1    2    0    0 -0.89910183909E+03  0.35041883995E+03 -0.29897343623E+03  0.12059737983E+04  0.65864270000E+03 0.  1.
    8880022    1    1    2    0    0  0.89910183909E+03 -0.35041883995E+03 -0.11763567918E+04  0.15291776990E+04  0.15294330000E+03 0.  0.
<mgrwt>
<rscale>  0 0.11172470E+04</rscale>
<asrwt>0</asrwt>
<pdfrwt beam="1">  1        1 0.32388321E+00 0.11683269E+04</pdfrwt>
<pdfrwt beam="2">  1       -1 0.96909329E-01 0.11683269E+04</pdfrwt>
<totfact> 0.25638980E+00</totfact>
</mgrwt>
</event>
<event>
 4    1  0.1521315E-007  0.6975711E+03  0.7818608E-02  0.1000743E+00
         -1   -1    0    0    0  501 -0.00000000000E+00  0.00000000000E+00  0.50345750224E+03  0.50345750226E+03  0.50400000000E-02 0.  1.
          1   -1    0    0  501    0  0.00000000000E+00 -0.00000000000E+00 -0.58619800669E+03  0.58619800671E+03  0.50400000000E-02 0. -1.
    8880023    1    1    2    0    0  0.14969636674E+03  0.17431643415E+03 -0.27866141817E+03  0.75117082855E+03  0.65864270000E+03 0. -1.
    8880022    1    1    2    0    0 -0.14969636674E+03 -0.17431643415E+03  0.19592091372E+03  0.33848468042E+03  0.15294330000E+03 0.  0.
<mgrwt>
<rscale>  0 0.55325631E+03</rscale>
<asrwt>0</asrwt>
<pdfrwt beam="1">  1        1 0.90184309E-01 0.69757109E+03</pdfrwt>
<pdfrwt beam="2">  1       -1 0.77455000E-01 0.69757109E+03</pdfrwt>
<totfact> 0.60675445E+01</totfact>
</mgrwt>
</event>
<event>
 4    1  0.1521315E-007  0.7346625E+03  0.7818608E-02  0.9875777E-01
         -1   -1    0    0    0  501 -0.00000000000E+00  0.00000000000E+00  0.89434532687E+03  0.89434532688E+03  0.50400000000E-02 0.  1.
          1   -1    0    0  501    0  0.00000000000E+00 -0.00000000000E+00 -0.53553387686E+03  0.53553387688E+03  0.50400000000E-02 0. -1.
    8880023    1    1    2    0    0 -0.32458312462E+03 -0.23762328826E+02 -0.20358255312E+03  0.76234829000E+03  0.65864270000E+03 0. -1.
    8880022    1    1    2    0    0  0.32458312462E+03  0.23762328826E+02  0.56239400313E+03  0.66753091377E+03  0.15294330000E+03 0.  0.
<mgrwt>
<rscale>  0 0.61449754E+03</rscale>
<asrwt>0</asrwt>
<pdfrwt beam="1">  1        1 0.82389827E-01 0.73466255E+03</pdfrwt>
<pdfrwt beam="2">  1       -1 0.13759159E+00 0.73466255E+03</pdfrwt>
<totfact> 0.18166739E+01</totfact>
</mgrwt>
</event>
<event>
 4    1  0.1521315E-007  0.1100677E+04  0.7818608E-02  0.9260303E-01
         -1   -1    0    0    0  501 -0.00000000000E+00  0.00000000000E+00  0.96113193661E+03  0.96113193662E+03  0.50400000000E-02 0.  1.
          1   -1    0    0  501    0  0.00000000000E+00 -0.00000000000E+00 -0.25619522286E+04  0.25619522286E+04  0.50400000000E-02 0. -1.
    8880023    1    1    2    0    0  0.77457747212E+03 -0.42155468777E+03 -0.21903488162E+04  0.24513499868E+04  0.65864270000E+03 0.  0.
    8880022    1    1    2    0    0 -0.77457747212E+03  0.42155468777E+03  0.58952852425E+03  0.10717341783E+04  0.15294330000E+03 0.  0.
<mgrwt>
<rscale>  0 0.10452101E+04</rscale>
<asrwt>0</asrwt>
<pdfrwt beam="1">  1        1 0.39414649E+00 0.11006765E+04</pdfrwt>
<pdfrwt beam="2">  1       -1 0.14786645E+00 0.11006765E+04</pdfrwt>
<totfact> 0.44595528E-01</totfact>
</mgrwt>
</event>
<event>
 4    1  0.1521315E-007  0.9654112E+03  0.7818608E-02  0.9428279E-01
          1   -1    0    0  501    0  0.00000000000E+00  0.00000000000E+00  0.15318777819E+04  0.15318777819E+04  0.50400000000E-02 0. -1.
         -1   -1    0    0    0  501 -0.00000000000E+00 -0.00000000000E+00 -0.99462048941E+03  0.99462048943E+03  0.50400000000E-02 0.  1.
    8880023    1    1    2    0    0 -0.47575624418E+02  0.70423377837E+03  0.12042168575E+04  0.15434238241E+04  0.65864270000E+03 0.  0.
    8880022    1    1    2    0    0  0.47575624418E+02 -0.70423377837E+03 -0.66695956495E+03  0.98307444730E+03  0.15294330000E+03 0.  0.
<mgrwt>
<rscale>  0 0.89784526E+03</rscale>
<asrwt>0</asrwt>
<pdfrwt beam="1">  1        1 0.23567350E+00 0.96541124E+03</pdfrwt>
<pdfrwt beam="2">  1       -1 0.15301854E+00 0.96541124E+03</pdfrwt>
<totfact> 0.20773370E+00</totfact>
</mgrwt>
</event>
<event>
 4    1  0.1521315E-007  0.7689781E+03  0.7818608E-02  0.9782395E-01
          1   -1    0    0  501    0  0.00000000000E+00  0.00000000000E+00  0.26266765592E+04  0.26266765592E+04  0.50400000000E-02 0. -1.
         -1   -1    0    0    0  501 -0.00000000000E+00 -0.00000000000E+00 -0.41171892214E+03  0.41171892217E+03  0.50400000000E-02 0.  1.
    8880023    1    1    2    0    0  0.17375693248E+03  0.35682719801E+03  0.24392191235E+04  0.25575608027E+04  0.65864270000E+03 0.  0.
    8880022    1    1    2    0    0 -0.17375693248E+03 -0.35682719801E+03 -0.22426148649E+03  0.48083467862E+03  0.15294330000E+03 0.  0.
<mgrwt>
<rscale>  0 0.66315941E+03</rscale>
<asrwt>0</asrwt>
<pdfrwt beam="1">  1        1 0.40410408E+00 0.76897811E+03</pdfrwt>
<pdfrwt beam="2">  1       -1 0.63341373E-01 0.76897811E+03</pdfrwt>
<totfact> 0.29631229E+00</totfact>
</mgrwt>
</event>
<event>
 4    1  0.1521315E-007  0.6682202E+03  0.7818608E-02  0.1016972E+00
         -1   -1    0    0    0  501 -0.00000000000E+00  0.00000000000E+00  0.48938045902E+03  0.48938045905E+03  0.50400000000E-02 0.  1.
          1   -1    0    0  501    0  0.00000000000E+00 -0.00000000000E+00 -0.83460229218E+03  0.83460229219E+03  0.50400000000E-02 0. -1.
    8880023    1    1    2    0    0  0.85259576493E+02  0.73748152315E+02 -0.67091969075E+03  0.94691679838E+03  0.65864270000E+03 0. -1.
    8880022    1    1    2    0    0 -0.85259576493E+02 -0.73748152315E+02  0.32569785759E+03  0.37706595286E+03  0.15294330000E+03 0.  0.
<mgrwt>
<rscale>  0 0.48795249E+03</rscale>
<asrwt>0</asrwt>
<pdfrwt beam="1">  1        1 0.12840035E+00 0.66822017E+03</pdfrwt>
<pdfrwt beam="2">  1       -1 0.75289302E-01 0.66822017E+03</pdfrwt>
<totfact> 0.37836390E+01</totfact>
</mgrwt>
</event>
<event>
 4    1  0.1521315E-007  0.7374447E+03  0.7818608E-02  0.9867454E-01
          1   -1    0    0  501    0  0.00000000000E+00  0.00000000000E+00  0.10659609316E+04  0.10659609316E+04  0.50400000000E-02 0. -1.
         -1   -1    0    0    0  501 -0.00000000000E+00 -0.00000000000E+00 -0.41827769223E+03  0.41827769226E+03  0.50400000000E-02 0.  1.
    8880023    1    1    2    0    0 -0.31848234018E+03  0.92647424257E+02  0.80041581423E+03  0.10883428817E+04  0.65864270000E+03 0.  0.
    8880022    1    1    2    0    0  0.31848234018E+03 -0.92647424257E+02 -0.15273257486E+03  0.39589574217E+03  0.15294330000E+03 0.  0.
<mgrwt>
<rscale>  0 0.61864872E+03</rscale>
<asrwt>0</asrwt>
<pdfrwt beam="1">  1        1 0.16399399E+00 0.73744475E+03</pdfrwt>
<pdfrwt beam="2">  1       -1 0.64350414E-01 0.73744475E+03</pdfrwt>
<totfact> 0.33883857E+01</totfact>
</mgrwt>
</event>
<event>
 4    1  0.1521315E-007  0.8003400E+03  0.7818608E-02  0.9710061E-01
         -1   -1    0    0    0  501 -0.00000000000E+00  0.00000000000E+00  0.38059527630E+03  0.38059527633E+03  0.50400000000E-02 0.  1.
          1   -1    0    0  501    0  0.00000000000E+00 -0.00000000000E+00 -0.16145054544E+04  0.16145054544E+04  0.50400000000E-02 0. -1.
    8880023    1    1    2    0    0  0.20115498402E+03 -0.40776299177E+03 -0.12837566757E+04  0.15128038186E+04  0.65864270000E+03 0. -1.
    8880022    1    1    2    0    0 -0.20115498402E+03  0.40776299177E+03  0.49846497616E+02  0.48229691206E+03  0.15294330000E+03 0.  0.
<mgrwt>
<rscale>  0 0.70420894E+03</rscale>
<asrwt>0</asrwt>
<pdfrwt beam="1">  1        1 0.24838545E+00 0.80034005E+03</pdfrwt>
<pdfrwt beam="2">  1       -1 0.58553120E-01 0.80034005E+03</pdfrwt>
<totfact> 0.16606187E+01</totfact>
</mgrwt>
</event>
<event>
 4    1  0.1521315E-007  0.6894248E+03  0.7818608E-02  0.1004427E+00
         -1   -1    0    0    0  501 -0.00000000000E+00  0.00000000000E+00  0.74235072075E+03  0.74235072077E+03  0.50400000000E-02 0.  1.
          1   -1    0    0  501    0  0.00000000000E+00 -0.00000000000E+00 -0.20936841634E+04  0.20936841634E+04  0.50400000000E-02 0. -1.
    8880023    1    1    2    0    0  0.66196035992E+01 -0.20359910204E+03 -0.20125963733E+04  0.21274047056E+04  0.65864270000E+03 0. -1.
    8880022    1    1    2    0    0 -0.66196035992E+01  0.20359910204E+03  0.66126293064E+03  0.70863017855E+03  0.15294330000E+03 0.  0.
<mgrwt>
<rscale>  0 0.53750908E+03</rscale>
<asrwt>0</asrwt>
<pdfrwt beam="1">  1        1 0.32210525E+00 0.68942485E+03</pdfrwt>
<pdfrwt beam="2">  1       -1 0.11420780E+00 0.68942485E+03</pdfrwt>
<totfact> 0.19219124E+00</totfact>
</mgrwt>
</event>
<event>
 4    1  0.1521315E-007  0.7598632E+03  0.7818608E-02  0.9805462E-01
          1   -1    0    0  501    0  0.00000000000E+00  0.00000000000E+00  0.43019846506E+03  0.43019846508E+03  0.50400000000E-02 0. -1.
         -1   -1    0    0    0  501 -0.00000000000E+00 -0.00000000000E+00 -0.18446266867E+04  0.18446266867E+04  0.50400000000E-02 0.  1.
    8880023    1    1    2    0    0  0.23063031688E+03  0.30065178372E+03  0.43115770627E+02  0.76108541837E+03  0.65864270000E+03 0. -1.
    8880022    1    1    2    0    0 -0.23063031688E+03 -0.30065178372E+03 -0.14575439923E+04  0.15137397334E+04  0.15294330000E+03 0.  1.
<mgrwt>
<rscale>  0 0.65070252E+03</rscale>
<asrwt>0</asrwt>
<pdfrwt beam="1">  1        1 0.66184380E-01 0.75986317E+03</pdfrwt>
<pdfrwt beam="2">  1       -1 0.28378872E+00 0.75986317E+03</pdfrwt>
<totfact> 0.23957337E+00</totfact>
</mgrwt>
</event>
<event>
 4    1  0.1521315E-007  0.8628766E+03  0.7818608E-02  0.9588467E-01
         -1   -1    0    0    0  501 -0.00000000000E+00  0.00000000000E+00  0.12128124271E+04  0.12128124271E+04  0.50400000000E-02 0.  1.
          1   -1    0    0  501    0  0.00000000000E+00 -0.00000000000E+00 -0.46318399443E+03  0.46318399445E+03  0.50400000000E-02 0. -1.
    8880023    1    1    2    0    0  0.24844134922E+03 -0.49902184182E+03  0.67007782937E+03  0.10925019022E+04  0.65864270000E+03 0.  0.
    8880022    1    1    2    0    0 -0.24844134922E+03  0.49902184182E+03  0.79550603284E+02  0.58349451935E+03  0.15294330000E+03 0.  0.
<mgrwt>
<rscale>  0 0.78064251E+03</rscale>
<asrwt>0</asrwt>
<pdfrwt beam="1">  1        1 0.71259076E-01 0.86287665E+03</pdfrwt>
<pdfrwt beam="2">  1       -1 0.18658653E+00 0.86287665E+03</pdfrwt>
<totfact> 0.93589477E+00</totfact>
</mgrwt>
</event>
<event>
 4    1  0.1521315E-007  0.6764573E+03  0.7818608E-02  0.1011403E+00
         -1   -1    0    0    0  501 -0.00000000000E+00  0.00000000000E+00  0.16758366891E+03  0.16758366899E+03  0.50400000000E-02 0.  1.
          1   -1    0    0  501    0  0.00000000000E+00 -0.00000000000E+00 -0.11914196471E+04  0.11914196471E+04  0.50400000000E-02 0. -1.
    8880023    1    1    2    0    0  0.14295691863E+03  0.57858891585E+02 -0.77830458318E+03  0.10311898770E+04  0.65864270000E+03 0. -1.
    8880022    1    1    2    0    0 -0.14295691863E+03 -0.57858891585E+02 -0.24553139499E+03  0.32781343911E+03  0.15294330000E+03 0.  1.
<mgrwt>
<rscale>  0 0.50920825E+03</rscale>
<asrwt>0</asrwt>
<pdfrwt beam="1">  1        1 0.18329533E+00 0.67645734E+03</pdfrwt>
<pdfrwt beam="2">  1       -1 0.25782104E-01 0.67645734E+03</pdfrwt>
<totfact> 0.14731193E+02</totfact>
</mgrwt>
</event>
<event>
 4    1  0.1521315E-007  0.9494065E+03  0.7818608E-02  0.9450969E-01
          1   -1    0    0  501    0  0.00000000000E+00  0.00000000000E+00  0.12863964810E+04  0.12863964810E+04  0.50400000000E-02 0. -1.
         -1   -1    0    0    0  501 -0.00000000000E+00 -0.00000000000E+00 -0.72959146786E+03  0.72959146788E+03  0.50400000000E-02 0.  1.
    8880023    1    1    2    0    0 -0.62232609429E+03 -0.28332426641E+03  0.83280451949E+03  0.12629077486E+04  0.65864270000E+03 0. -1.
    8880022    1    1    2    0    0  0.62232609429E+03  0.28332426641E+03 -0.27599950633E+03  0.75308020030E+03  0.15294330000E+03 0.  1.
<mgrwt>
<rscale>  0 0.87997279E+03</rscale>
<asrwt>0</asrwt>
<pdfrwt beam="1">  1        1 0.19790715E+00 0.94940645E+03</pdfrwt>
<pdfrwt beam="2">  1       -1 0.11224484E+00 0.94940645E+03</pdfrwt>
<totfact> 0.67955822E+00</totfact>
</mgrwt>
</event>
<event>
 4    1  0.1521315E-007  0.1085354E+04  0.7818608E-02  0.9277540E-01
          1   -1    0    0  501    0  0.00000000000E+00  0.00000000000E+00  0.13861277098E+04  0.13861277098E+04  0.50400000000E-02 0. -1.
         -1   -1    0    0    0  501 -0.00000000000E+00 -0.00000000000E+00 -0.10443752197E+04  0.10443752197E+04  0.50400000000E-02 0.  1.
    8880023    1    1    2    0    0 -0.79853546609E+03  0.32638125243E+03 -0.51833243676E+03  0.12027727690E+04  0.65864270000E+03 0.  0.
    8880022    1    1    2    0    0  0.79853546609E+03 -0.32638125243E+03  0.86008492694E+03  0.12277301605E+04  0.15294330000E+03 0.  0.
<mgrwt>
<rscale>  0 0.10287711E+04</rscale>
<asrwt>0</asrwt>
<pdfrwt beam="1">  1        1 0.21325042E+00 0.10853542E+04</pdfrwt>
<pdfrwt beam="2">  1       -1 0.16067311E+00 0.10853542E+04</pdfrwt>
<totfact> 0.22554073E+00</totfact>
</mgrwt>
</event>
<event>
 4    1  0.1521315E-007  0.1419641E+04  0.7818608E-02  0.8968569E-01
         -1   -1    0    0    0  501 -0.00000000000E+00  0.00000000000E+00  0.83279643527E+03  0.83279643529E+03  0.50400000000E-02 0.  1.
          1   -1    0    0  501    0  0.00000000000E+00 -0.00000000000E+00 -0.26173246505E+04  0.26173246505E+04  0.50400000000E-02 0. -1.
    8880023    1    1    2    0    0 -0.40966341446E+03 -0.11890108647E+04 -0.21935960714E+03  0.14364887027E+04  0.65864270000E+03 0.  0.
    8880022    1    1    2    0    0  0.40966341446E+03  0.11890108647E+04 -0.15651686081E+04  0.20136323831E+04  0.15294330000E+03 0.  0.
<mgrwt>
<rscale>  0 0.13798029E+04</rscale>
<asrwt>0</asrwt>
<pdfrwt beam="1">  1        1 0.40266533E+00 0.14196412E+04</pdfrwt>
<pdfrwt beam="2">  1       -1 0.12812253E+00 0.14196412E+04</pdfrwt>
<totfact> 0.56777065E-01</totfact>
</mgrwt>
</event>
<event>
 4    1  0.1521315E-007  0.8234995E+03  0.7818608E-02  0.9662115E-01
          1   -1    0    0  501    0  0.00000000000E+00  0.00000000000E+00  0.18383444644E+04  0.18383444644E+04  0.50400000000E-02 0. -1.
         -1   -1    0    0    0  501 -0.00000000000E+00 -0.00000000000E+00 -0.76766610137E+03  0.76766610138E+03  0.50400000000E-02 0.  1.
    8880023    1    1    2    0    0  0.45775640787E+03 -0.18654852712E+03  0.16409441103E+04  0.18359872171E+04  0.65864270000E+03 0. -1.
    8880022    1    1    2    0    0 -0.45775640787E+03  0.18654852712E+03 -0.57026574731E+03  0.77002334867E+03  0.15294330000E+03 0.  0.
<mgrwt>
<rscale>  0 0.73317938E+03</rscale>
<asrwt>0</asrwt>
<pdfrwt beam="1">  1        1 0.28282222E+00 0.82349954E+03</pdfrwt>
<pdfrwt beam="2">  1       -1 0.11810248E+00 0.82349954E+03</pdfrwt>
<totfact> 0.25602658E+00</totfact>
</mgrwt>
</event>
<event>
 4    1  0.1521315E-007  0.1047638E+04  0.7818608E-02  0.9321726E-01
          1   -1    0    0  501    0  0.00000000000E+00  0.00000000000E+00  0.85474789151E+03  0.85474789152E+03  0.50400000000E-02 0. -1.
         -1   -1    0    0    0  501 -0.00000000000E+00 -0.00000000000E+00 -0.11431672195E+04  0.11431672195E+04  0.50400000000E-02 0.  1.
    8880023    1    1    2    0    0  0.78588494877E+03  0.21475704440E+03  0.15304304268E+03  0.10587578193E+04  0.65864270000E+03 0.  0.
    8880022    1    1    2    0    0 -0.78588494877E+03 -0.21475704440E+03 -0.44146237067E+03  0.93915729170E+03  0.15294330000E+03 0.  0.
<mgrwt>
<rscale>  0 0.98807105E+03</rscale>
<asrwt>0</asrwt>
<pdfrwt beam="1">  1        1 0.13149968E+00 0.10476383E+04</pdfrwt>
<pdfrwt beam="2">  1       -1 0.17587188E+00 0.10476383E+04</pdfrwt>
<totfact> 0.44128928E+00</totfact>
</mgrwt>
</event>
<event>
 4    1  0.1521315E-007  0.8936583E+03  0.7818608E-02  0.9536290E-01
         -1   -1    0    0    0  501 -0.00000000000E+00  0.00000000000E+00  0.10531210719E+04  0.10531210719E+04  0.50400000000E-02 0.  1.
          1   -1    0    0  501    0  0.00000000000E+00 -0.00000000000E+00 -0.84551857507E+03  0.84551857508E+03  0.50400000000E-02 0. -1.
    8880023    1    1    2    0    0  0.12349586025E+02 -0.60387284983E+03 -0.44332433719E+03  0.99757786926E+03  0.65864270000E+03 0.  0.
    8880022    1    1    2    0    0 -0.12349586025E+02  0.60387284983E+03  0.65092683402E+03  0.90106177774E+03  0.15294330000E+03 0.  0.
<mgrwt>
<rscale>  0 0.81660395E+03</rscale>
<asrwt>0</asrwt>
<pdfrwt beam="1">  1        1 0.13007978E+00 0.89365829E+03</pdfrwt>
<pdfrwt beam="2">  1       -1 0.16201863E+00 0.89365829E+03</pdfrwt>
<totfact> 0.57855925E+00</totfact>
</mgrwt>
</event>
<event>
 4    1  0.1521315E-007  0.8180068E+03  0.7818608E-02  0.9673134E-01
          1   -1    0    0  501    0  0.00000000000E+00  0.00000000000E+00  0.21496215705E+04  0.21496215705E+04  0.50400000000E-02 0. -1.
         -1   -1    0    0    0  501 -0.00000000000E+00 -0.00000000000E+00 -0.22392698993E+03  0.22392698999E+03  0.50400000000E-02 0.  1.
    8880023    1    1    2    0    0  0.13668504195E+03  0.46544829252E+03  0.15072004765E+04  0.17148727056E+04  0.65864270000E+03 0.  0.
    8880022    1    1    2    0    0 -0.13668504195E+03 -0.46544829252E+03  0.41849410406E+03  0.65867585492E+03  0.15294330000E+03 0.  0.
<mgrwt>
<rscale>  0 0.72639143E+03</rscale>
<asrwt>0</asrwt>
<pdfrwt beam="1">  1        1 0.33071104E+00 0.81800680E+03</pdfrwt>
<pdfrwt beam="2">  1       -1 0.34450303E-01 0.81800680E+03</pdfrwt>
<totfact> 0.19450244E+01</totfact>
</mgrwt>
</event>
<event>
 4    1  0.1521315E-007  0.8695091E+03  0.7818608E-02  0.9576867E-01
          1   -1    0    0  501    0  0.00000000000E+00  0.00000000000E+00  0.27325563806E+04  0.27325563806E+04  0.50400000000E-02 0. -1.
         -1   -1    0    0    0  501 -0.00000000000E+00 -0.00000000000E+00 -0.23628533476E+03  0.23628533481E+03  0.50400000000E-02 0.  1.
    8880023    1    1    2    0    0  0.18412448925E+03 -0.53696738668E+03  0.20623281557E+04  0.22381339169E+04  0.65864270000E+03 0.  0.
    8880022    1    1    2    0    0 -0.18412448925E+03  0.53696738668E+03  0.43394289015E+03  0.73070779853E+03  0.15294330000E+03 0.  0.
<mgrwt>
<rscale>  0 0.78846354E+03</rscale>
<asrwt>0</asrwt>
<pdfrwt beam="1">  1        1 0.42039326E+00 0.86950906E+03</pdfrwt>
<pdfrwt beam="2">  1       -1 0.36351592E-01 0.86950906E+03</pdfrwt>
<totfact> 0.70141653E+00</totfact>
</mgrwt>
</event>
<event>
 4    1  0.1521315E-007  0.1769092E+04  0.7818608E-02  0.8739829E-01
          1   -1    0    0  501    0  0.00000000000E+00  0.00000000000E+00  0.17969797813E+04  0.17969797813E+04  0.50400000000E-02 0. -1.
         -1   -1    0    0    0  501 -0.00000000000E+00 -0.00000000000E+00 -0.16562753563E+04  0.16562753564E+04  0.50400000000E-02 0.  1.
    8880023    1    1    2    0    0 -0.28147211353E+03 -0.16176057078E+04 -0.16269404259E+03  0.17765568762E+04  0.65864270000E+03 0.  0.
    8880022    1    1    2    0    0  0.28147211353E+03  0.16176057078E+04  0.30339846750E+03  0.16766982614E+04  0.15294330000E+03 0.  0.
<mgrwt>
<rscale>  0 0.17382779E+04</rscale>
<asrwt>0</asrwt>
<pdfrwt beam="1">  1        1 0.27645843E+00 0.17690916E+04</pdfrwt>
<pdfrwt beam="2">  1       -1 0.25481159E+00 0.17690916E+04</pdfrwt>
<totfact> 0.24349995E-01</totfact>
</mgrwt>
</event>
<event>
 4    1  0.1521315E-007  0.9207816E+03  0.7818608E-02  0.9493462E-01
         -1   -1    0    0    0  501 -0.00000000000E+00  0.00000000000E+00  0.64814759327E+03  0.64814759329E+03  0.50400000000E-02 0.  1.
          1   -1    0    0  501    0  0.00000000000E+00 -0.00000000000E+00 -0.14572915764E+04  0.14572915764E+04  0.50400000000E-02 0. -1.
    8880023    1    1    2    0    0  0.47438771470E+03  0.43472385663E+03 -0.10545778264E+04  0.13999904049E+04  0.65864270000E+03 0. -1.
    8880022    1    1    2    0    0 -0.47438771470E+03 -0.43472385663E+03  0.24543384331E+03  0.70544876486E+03  0.15294330000E+03 0.  0.
<mgrwt>
<rscale>  0 0.84767588E+03</rscale>
<asrwt>0</asrwt>
<pdfrwt beam="1">  1        1 0.22419870E+00 0.92078159E+03</pdfrwt>
<pdfrwt beam="2">  1       -1 0.99715015E-01 0.92078159E+03</pdfrwt>
<totfact> 0.68208446E+00</totfact>
</mgrwt>
</event>
<event>
 4    1  0.1521315E-007  0.1109334E+04  0.7818608E-02  0.9250734E-01
          1   -1    0    0  501    0  0.00000000000E+00  0.00000000000E+00  0.34035684279E+04  0.34035684279E+04  0.50400000000E-02 0. -1.
         -1   -1    0    0    0  501 -0.00000000000E+00 -0.00000000000E+00 -0.71519016829E+03  0.71519016831E+03  0.50400000000E-02 0.  1.
    8880023    1    1    2    0    0 -0.64976806930E+03  0.61205715480E+03  0.29699329815E+04  0.31703508679E+04  0.65864270000E+03 0. -1.
    8880022    1    1    2    0    0  0.64976806930E+03 -0.61205715480E+03 -0.28155472193E+03  0.94840772829E+03  0.15294330000E+03 0.  1.
<mgrwt>
<rscale>  0 0.10544770E+04</rscale>
<asrwt>0</asrwt>
<pdfrwt beam="1">  1        1 0.52362590E+00 0.11093344E+04</pdfrwt>
<pdfrwt beam="2">  1       -1 0.11002926E+00 0.11093344E+04</pdfrwt>
<totfact> 0.23054529E-01</totfact>
</mgrwt>
</event>
<event>
 4    1  0.1521315E-007  0.7243193E+03  0.7818608E-02  0.9908233E-01
         -1   -1    0    0    0  501 -0.00000000000E+00  0.00000000000E+00  0.40434785694E+03  0.40434785697E+03  0.50400000000E-02 0.  1.
          1   -1    0    0  501    0  0.00000000000E+00 -0.00000000000E+00 -0.19516758298E+04  0.19516758298E+04  0.50400000000E-02 0. -1.
    8880023    1    1    2    0    0 -0.24538105089E+03 -0.17497540357E+03 -0.17959171272E+04  0.19364805153E+04  0.65864270000E+03 0. -1.
    8880022    1    1    2    0    0  0.24538105089E+03  0.17497540357E+03  0.24858915442E+03  0.41954317144E+03  0.15294330000E+03 0.  0.
<mgrwt>
<rscale>  0 0.59863936E+03</rscale>
<asrwt>0</asrwt>
<pdfrwt beam="1">  1        1 0.30025781E+00 0.72431931E+03</pdfrwt>
<pdfrwt beam="2">  1       -1 0.62207364E-01 0.72431931E+03</pdfrwt>
<totfact> 0.88467891E+00</totfact>
</mgrwt>
</event>
<event>
 4    1  0.1521315E-007  0.8660738E+03  0.7818608E-02  0.9582849E-01
         -1   -1    0    0    0  501 -0.00000000000E+00  0.00000000000E+00  0.40782278598E+03  0.40782278602E+03  0.50400000000E-02 0.  1.
          1   -1    0    0  501    0  0.00000000000E+00 -0.00000000000E+00 -0.16579615869E+04  0.16579615869E+04  0.50400000000E-02 0. -1.
    8880023    1    1    2    0    0 -0.56180552488E+03  0.25458737556E+02 -0.12012808415E+04  0.14809319571E+04  0.65864270000E+03 0.  0.
    8880022    1    1    2    0    0  0.56180552488E+03 -0.25458737556E+02 -0.48857959421E+02  0.58485241584E+03  0.15294330000E+03 0.  0.
<mgrwt>
<rscale>  0 0.78441802E+03</rscale>
<asrwt>0</asrwt>
<pdfrwt beam="1">  1        1 0.25507101E+00 0.86607379E+03</pdfrwt>
<pdfrwt beam="2">  1       -1 0.62741968E-01 0.86607379E+03</pdfrwt>
<totfact> 0.13420603E+01</totfact>
</mgrwt>
</event>
<event>
 4    1  0.1521315E-007  0.7571754E+03  0.7818608E-02  0.9812476E-01
          1   -1    0    0  501    0  0.00000000000E+00  0.00000000000E+00  0.20691915351E+04  0.20691915351E+04  0.50400000000E-02 0. -1.
         -1   -1    0    0    0  501 -0.00000000000E+00 -0.00000000000E+00 -0.21478322993E+03  0.21478322999E+03  0.50400000000E-02 0.  1.
    8880023    1    1    2    0    0 -0.33904922785E+02  0.37196085160E+03  0.16829979659E+04  0.18454800942E+04  0.65864270000E+03 0. -1.
    8880022    1    1    2    0    0  0.33904922785E+02 -0.37196085160E+03  0.17141033930E+03  0.43849467083E+03  0.15294330000E+03 0.  1.
<mgrwt>
<rscale>  0 0.64697308E+03</rscale>
<asrwt>0</asrwt>
<pdfrwt beam="1">  1        1 0.31833717E+00 0.75717543E+03</pdfrwt>
<pdfrwt beam="2">  1       -1 0.33043573E-01 0.75717543E+03</pdfrwt>
<totfact> 0.23902955E+01</totfact>
</mgrwt>
</event>
<event>
 4    1  0.1521315E-007  0.7117729E+03  0.7818608E-02  0.9951475E-01
          1   -1    0    0  501    0  0.00000000000E+00  0.00000000000E+00  0.15583174609E+04  0.15583174609E+04  0.50400000000E-02 0. -1.
         -1   -1    0    0    0  501 -0.00000000000E+00 -0.00000000000E+00 -0.16763099227E+03  0.16763099235E+03  0.50400000000E-02 0.  1.
    8880023    1    1    2    0    0  0.20512848046E+03  0.17530778186E+03  0.95054832379E+03  0.11875027722E+04  0.65864270000E+03 0.  1.
    8880022    1    1    2    0    0 -0.20512848046E+03 -0.17530778186E+03  0.44013814479E+03  0.53844568101E+03  0.15294330000E+03 0. -1.
<mgrwt>
<rscale>  0 0.57830136E+03</rscale>
<asrwt>0</asrwt>
<pdfrwt beam="1">  1        1 0.23974114E+00 0.71177294E+03</pdfrwt>
<pdfrwt beam="2">  1       -1 0.25789384E-01 0.71177294E+03</pdfrwt>
<totfact> 0.81401134E+01</totfact>
</mgrwt>
</event>
<event>
 4    1  0.1521315E-007  0.1326429E+04  0.7818608E-02  0.9043066E-01
          1   -1    0    0  501    0  0.00000000000E+00  0.00000000000E+00  0.13227550256E+04  0.13227550256E+04  0.50400000000E-02 0. -1.
         -1   -1    0    0    0  501 -0.00000000000E+00 -0.00000000000E+00 -0.12206342162E+04  0.12206342162E+04  0.50400000000E-02 0.  1.
    8880023    1    1    2    0    0  0.71792189693E+03  0.90010700599E+03 -0.20458284176E+03  0.13421135637E+04  0.65864270000E+03 0.  1.
    8880022    1    1    2    0    0 -0.71792189693E+03 -0.90010700599E+03  0.30670365110E+03  0.12012756782E+04  0.15294330000E+03 0. -1.
<mgrwt>
<rscale>  0 0.12831116E+04</rscale>
<asrwt>0</asrwt>
<pdfrwt beam="1">  1        1 0.20350077E+00 0.13264293E+04</pdfrwt>
<pdfrwt beam="2">  1       -1 0.18778988E+00 0.13264293E+04</pdfrwt>
<totfact> 0.15423410E+00</totfact>
</mgrwt>
</event>
<event>
 4    1  0.1521315E-007  0.6701195E+03  0.7818608E-02  0.1015577E+00
         -1   -1    0    0    0  501 -0.00000000000E+00  0.00000000000E+00  0.45501498478E+03  0.45501498481E+03  0.50400000000E-02 0.  1.
          1   -1    0    0  501    0  0.00000000000E+00 -0.00000000000E+00 -0.71670696876E+03  0.71670696878E+03  0.50400000000E-02 0. -1.
    8880023    1    1    2    0    0  0.11354117376E+03  0.48563249361E+02 -0.51922783871E+03  0.84773683539E+03  0.65864270000E+03 0. -1.
    8880022    1    1    2    0    0 -0.11354117376E+03 -0.48563249361E+02  0.25753585473E+03  0.32398511820E+03  0.15294330000E+03 0.  0.
<mgrwt>
<rscale>  0 0.49316944E+03</rscale>
<asrwt>0</asrwt>
<pdfrwt beam="1">  1        1 0.11026261E+00 0.67011954E+03</pdfrwt>
<pdfrwt beam="2">  1       -1 0.70002305E-01 0.67011954E+03</pdfrwt>
<totfact> 0.55812900E+01</totfact>
</mgrwt>
</event>
<event>
 4    1  0.1521315E-007  0.1282397E+04  0.7818608E-02  0.9080912E-01
         -1   -1    0    0    0  501 -0.00000000000E+00  0.00000000000E+00  0.10764043416E+04  0.10764043416E+04  0.50400000000E-02 0.  1.
          1   -1    0    0  501    0  0.00000000000E+00 -0.00000000000E+00 -0.18335854003E+04  0.18335854003E+04  0.50400000000E-02 0. -1.
    8880023    1    1    2    0    0  0.10563275085E+04 -0.30806701799E+03 -0.11591081258E+04  0.17286049134E+04  0.65864270000E+03 0. -1.
    8880022    1    1    2    0    0 -0.10563275085E+04  0.30806701799E+03  0.40192706716E+03  0.11813848286E+04  0.15294330000E+03 0.  0.
<mgrwt>
<rscale>  0 0.12371913E+04</rscale>
<asrwt>0</asrwt>
<pdfrwt beam="1">  1        1 0.28209006E+00 0.12823975E+04</pdfrwt>
<pdfrwt beam="2">  1       -1 0.16560067E+00 0.12823975E+04</pdfrwt>
<totfact> 0.99595469E-01</totfact>
</mgrwt>
</event>
<event>
 4    1  0.1521315E-007  0.6940749E+03  0.7818608E-02  0.1002273E+00
         -1   -1    0    0    0  501 -0.00000000000E+00  0.00000000000E+00  0.73147135426E+03  0.73147135427E+03  0.50400000000E-02 0.  1.
          1   -1    0    0  501    0  0.00000000000E+00 -0.00000000000E+00 -0.22206782772E+04  0.22206782772E+04  0.50400000000E-02 0. -1.
    8880023    1    1    2    0    0 -0.21622941282E+03  0.34273117290E+02 -0.21394401017E+04  0.22492096302E+04  0.65864270000E+03 0. -1.
    8880022    1    1    2    0    0  0.21622941282E+03 -0.34273117290E+02  0.65023317879E+03  0.70294000125E+03  0.15294330000E+03 0.  0.
<mgrwt>
<rscale>  0 0.54664741E+03</rscale>
<asrwt>0</asrwt>
<pdfrwt beam="1">  1        1 0.34164281E+00 0.69407493E+03</pdfrwt>
<pdfrwt beam="2">  1       -1 0.11253406E+00 0.69407493E+03</pdfrwt>
<totfact> 0.16351070E+00</totfact>
</mgrwt>
</event>
<event>
 4    1  0.1521315E-007  0.8153176E+03  0.7818608E-02  0.9678605E-01
         -1   -1    0    0    0  501 -0.00000000000E+00  0.00000000000E+00  0.15134387947E+04  0.15134387947E+04  0.50400000000E-02 0.  1.
          1   -1    0    0  501    0  0.00000000000E+00 -0.00000000000E+00 -0.34046727701E+03  0.34046727705E+03  0.50400000000E-02 0. -1.
    8880023    1    1    2    0    0  0.44018236717E+03  0.19280070066E+03  0.34686723535E+03  0.88603595399E+03  0.65864270000E+03 0. -1.
    8880022    1    1    2    0    0 -0.44018236717E+03 -0.19280070066E+03  0.82610428236E+03  0.96787011778E+03  0.15294330000E+03 0.  0.
<mgrwt>
<rscale>  0 0.72305045E+03</rscale>
<asrwt>0</asrwt>
<pdfrwt beam="1">  1        1 0.52379580E-01 0.81531763E+03</pdfrwt>
<pdfrwt beam="2">  1       -1 0.23283674E+00 0.81531763E+03</pdfrwt>
<totfact> 0.68977445E+00</totfact>
</mgrwt>
</event>
<event>
 4    1  0.1521315E-007  0.7947989E+03  0.7818608E-02  0.9722157E-01
          1   -1    0    0  501    0  0.00000000000E+00  0.00000000000E+00  0.17173903189E+04  0.17173903189E+04  0.50400000000E-02 0. -1.
         -1   -1    0    0    0  501 -0.00000000000E+00 -0.00000000000E+00 -0.59314455275E+03  0.59314455277E+03  0.50400000000E-02 0.  1.
    8880023    1    1    2    0    0  0.42352284820E+03 -0.13610076356E+03  0.15072196328E+04  0.17039413865E+04  0.65864270000E+03 0.  0.
    8880022    1    1    2    0    0 -0.42352284820E+03  0.13610076356E+03 -0.38297386662E+03  0.60659348522E+03  0.15294330000E+03 0.  0.
<mgrwt>
<rscale>  0 0.69712769E+03</rscale>
<asrwt>0</asrwt>
<pdfrwt beam="1">  1        1 0.26421389E+00 0.79479886E+03</pdfrwt>
<pdfrwt beam="2">  1       -1 0.91253010E-01 0.79479886E+03</pdfrwt>
<totfact> 0.56339388E+00</totfact>
</mgrwt>
</event>
<event>
 4    1  0.1521315E-007  0.1196930E+04  0.7818608E-02  0.9160113E-01
          1   -1    0    0  501    0  0.00000000000E+00  0.00000000000E+00  0.14153865631E+04  0.14153865631E+04  0.50400000000E-02 0. -1.
         -1   -1    0    0    0  501 -0.00000000000E+00 -0.00000000000E+00 -0.13535916249E+04  0.13535916249E+04  0.50400000000E-02 0.  1.
    8880023    1    1    2    0    0 -0.66129462180E+03 -0.74934633894E+03  0.86577772350E+03  0.14772311211E+04  0.65864270000E+03 0. -1.
    8880022    1    1    2    0    0  0.66129462180E+03  0.74934633894E+03 -0.80398278534E+03  0.12917470668E+04  0.15294330000E+03 0.  0.
<mgrwt>
<rscale>  0 0.11474787E+04</rscale>
<asrwt>0</asrwt>
<pdfrwt beam="1">  1        1 0.21775178E+00 0.11969297E+04</pdfrwt>
<pdfrwt beam="2">  1       -1 0.20824487E+00 0.11969297E+04</pdfrwt>
<totfact> 0.97069669E-01</totfact>
</mgrwt>
</event>
<event>
 4    1  0.1631913E-007  0.6919961E+03  0.7818608E-02  0.1003218E+00
          1   -1    0    0  501    0  0.00000000000E+00  0.00000000000E+00  0.15848123777E+04  0.15848123777E+04  0.50400000000E-02 0. -1.
         -1   -1    0    0    0  501 -0.00000000000E+00 -0.00000000000E+00 -0.78948724045E+03  0.78948724047E+03  0.50400000000E-02 0.  1.
    8880023    1    1    2    0    0  0.10970739462E+03  0.18169408107E+03  0.14841075240E+04  0.16375084124E+04  0.65864270000E+03 0. -1.
    8880022    1    1    2    0    0 -0.10970739462E+03 -0.18169408107E+03 -0.68878238679E+03  0.73679120577E+03  0.15294330000E+03 0.  0.
<mgrwt>
<rscale>  0 0.54261474E+03</rscale>
<asrwt>0</asrwt>
<pdfrwt beam="1">  1        1 0.24381729E+00 0.69199614E+03</pdfrwt>
<pdfrwt beam="2">  1       -1 0.12145958E+00 0.69199614E+03</pdfrwt>
<totfact> 0.36275156E+00</totfact>
</mgrwt>
</event>
<event>
 4    1  0.1521315E-007  0.9640296E+03  0.7818608E-02  0.9430210E-01
         -1   -1    0    0    0  501 -0.00000000000E+00  0.00000000000E+00  0.15147520975E+04  0.15147520975E+04  0.50400000000E-02 0.  1.
          1   -1    0    0  501    0  0.00000000000E+00 -0.00000000000E+00 -0.57666530010E+03  0.57666530012E+03  0.50400000000E-02 0. -1.
    8880023    1    1    2    0    0 -0.65689136168E+03  0.25305440731E+03  0.97365762791E+03  0.13701686673E+04  0.65864270000E+03 0.  0.
    8880022    1    1    2    0    0  0.65689136168E+03 -0.25305440731E+03 -0.35570830473E+02  0.72124873040E+03  0.15294330000E+03 0.  1.
<mgrwt>
<rscale>  0 0.89630708E+03</rscale>
<asrwt>0</asrwt>
<pdfrwt beam="1">  1        1 0.88717740E-01 0.96402956E+03</pdfrwt>
<pdfrwt beam="2">  1       -1 0.23303878E+00 0.96402956E+03</pdfrwt>
<totfact> 0.33036859E+00</totfact>
</mgrwt>
</event>
<event>
 4    1  0.1521315E-007  0.7931398E+03  0.7818608E-02  0.9725830E-01
         -1   -1    0    0    0  501 -0.00000000000E+00  0.00000000000E+00  0.68231287717E+03  0.68231287719E+03  0.50400000000E-02 0.  1.
          1   -1    0    0  501    0  0.00000000000E+00 -0.00000000000E+00 -0.18717538146E+04  0.18717538146E+04  0.50400000000E-02 0. -1.
    8880023    1    1    2    0    0  0.20425321489E+03 -0.39184329137E+03 -0.16913536434E+04  0.18680866934E+04  0.65864270000E+03 0. -1.
    8880022    1    1    2    0    0 -0.20425321489E+03  0.39184329137E+03  0.50191270595E+03  0.68597999840E+03  0.15294330000E+03 0.  0.
<mgrwt>
<rscale>  0 0.69499477E+03</rscale>
<asrwt>0</asrwt>
<pdfrwt beam="1">  1        1 0.28796212E+00 0.79313980E+03</pdfrwt>
<pdfrwt beam="2">  1       -1 0.10497121E+00 0.79313980E+03</pdfrwt>
<totfact> 0.32319754E+00</totfact>
</mgrwt>
</event>
<event>
 4    1  0.1521315E-007  0.6633427E+03  0.7818608E-02  0.1020966E+00
          1   -1    0    0  501    0  0.00000000000E+00  0.00000000000E+00  0.20219058395E+03  0.20219058402E+03  0.50400000000E-02 0. -1.
         -1   -1    0    0    0  501 -0.00000000000E+00 -0.00000000000E+00 -0.94829816553E+03  0.94829816554E+03  0.50400000000E-02 0.  1.
    8880023    1    1    2    0    0  0.73347609873E+02 -0.28870613676E+02 -0.42980201612E+03  0.79041341305E+03  0.65864270000E+03 0. -1.
    8880022    1    1    2    0    0 -0.73347609873E+02  0.28870613676E+02 -0.31630556545E+03  0.36007533650E+03  0.15294330000E+03 0.  0.
<mgrwt>
<rscale>  0 0.47339557E+03</rscale>
<asrwt>0</asrwt>
<pdfrwt beam="1">  1        1 0.31106244E-01 0.66334274E+03</pdfrwt>
<pdfrwt beam="2">  1       -1 0.14589202E+00 0.66334274E+03</pdfrwt>
<totfact> 0.56539925E+01</totfact>
</mgrwt>
</event>
<event>
 4    1  0.1521315E-007  0.6997543E+03  0.7818608E-02  0.9998222E-01
          1   -1    0    0  501    0  0.00000000000E+00  0.00000000000E+00  0.83188152199E+03  0.83188152200E+03  0.50400000000E-02 0. -1.
         -1   -1    0    0    0  501 -0.00000000000E+00 -0.00000000000E+00 -0.10547057678E+04  0.10547057678E+04  0.50400000000E-02 0.  1.
    8880023    1    1    2    0    0 -0.36073505281E+01  0.23628977858E+03  0.65882180293E+03  0.96109429648E+03  0.65864270000E+03 0. -1.
    8880022    1    1    2    0    0  0.36073505281E+01 -0.23628977858E+03 -0.88164604872E+03  0.92549299331E+03  0.15294330000E+03 0.  0.
<mgrwt>
<rscale>  0 0.55728268E+03</rscale>
<asrwt>0</asrwt>
<pdfrwt beam="1">  1        1 0.12798177E+00 0.69975430E+03</pdfrwt>
<pdfrwt beam="2">  1       -1 0.16226243E+00 0.69975430E+03</pdfrwt>
<totfact> 0.60775289E+00</totfact>
</mgrwt>
</event>
<event>
 4    1  0.1521315E-007  0.8136766E+03  0.7818608E-02  0.9681969E-01
         -1   -1    0    0    0  501 -0.00000000000E+00  0.00000000000E+00  0.16272046664E+03  0.16272046672E+03  0.50400000000E-02 0.  1.
          1   -1    0    0  501    0  0.00000000000E+00 -0.00000000000E+00 -0.30171201034E+04  0.30171201034E+04  0.50400000000E-02 0. -1.
    8880023    1    1    2    0    0  0.14809208760E+03  0.45423350702E+03 -0.22601920587E+04  0.24021943497E+04  0.65864270000E+03 0. -1.
    8880022    1    1    2    0    0 -0.14809208760E+03 -0.45423350702E+03 -0.59420757811E+03  0.77764622047E+03  0.15294330000E+03 0.  0.
<mgrwt>
<rscale>  0 0.72100568E+03</rscale>
<asrwt>0</asrwt>
<pdfrwt beam="1">  1        1 0.46417228E+00 0.81367656E+03</pdfrwt>
<pdfrwt beam="2">  1       -1 0.25033920E-01 0.81367656E+03</pdfrwt>
<totfact> 0.85408292E+00</totfact>
</mgrwt>
</event>
<event>
 4    1  0.1521315E-007  0.9224604E+03  0.7818608E-02  0.9490897E-01
         -1   -1    0    0    0  501 -0.00000000000E+00  0.00000000000E+00  0.43195420591E+03  0.43195420594E+03  0.50400000000E-02 0.  1.
          1   -1    0    0  501    0  0.00000000000E+00 -0.00000000000E+00 -0.29733719911E+04  0.29733719911E+04  0.50400000000E-02 0. -1.
    8880023    1    1    2    0    0  0.26881025065E+03  0.58725129928E+03 -0.25805415639E+04  0.27404612766E+04  0.65864270000E+03 0.  0.
    8880022    1    1    2    0    0 -0.26881025065E+03 -0.58725129928E+03  0.39123778705E+02  0.66486492044E+03  0.15294330000E+03 0.  0.
<mgrwt>
<rscale>  0 0.84958309E+03</rscale>
<asrwt>0</asrwt>
<pdfrwt beam="1">  1        1 0.45744183E+00 0.92246043E+03</pdfrwt>
<pdfrwt beam="2">  1       -1 0.66454495E-01 0.92246043E+03</pdfrwt>
<totfact> 0.14928120E+00</totfact>
</mgrwt>
</event>
<event>
 4    1  0.1521315E-007  0.6960616E+03  0.7818608E-02  0.1001395E+00
         -1   -1    0    0    0  501 -0.00000000000E+00  0.00000000000E+00  0.35213474404E+03  0.35213474408E+03  0.50400000000E-02 0.  1.
          1   -1    0    0  501    0  0.00000000000E+00 -0.00000000000E+00 -0.99817194746E+03  0.99817194747E+03  0.50400000000E-02 0. -1.
    8880023    1    1    2    0    0 -0.15717413309E+03  0.16120763997E+03 -0.78128097539E+03  0.10463755445E+04  0.65864270000E+03 0.  0.
    8880022    1    1    2    0    0  0.15717413309E+03 -0.16120763997E+03  0.13524377196E+03  0.30393114708E+03  0.15294330000E+03 0.  0.
<mgrwt>
<rscale>  0 0.55042835E+03</rscale>
<asrwt>0</asrwt>
<pdfrwt beam="1">  1        1 0.15356491E+00 0.69606165E+03</pdfrwt>
<pdfrwt beam="2">  1       -1 0.54174577E-01 0.69606165E+03</pdfrwt>
<totfact> 0.53754877E+01</totfact>
</mgrwt>
</event>
<event>
 4    1  0.1521315E-007  0.7061739E+03  0.7818608E-02  0.9972493E-01
          1   -1    0    0  501    0  0.00000000000E+00  0.00000000000E+00  0.43818023673E+03  0.43818023676E+03  0.50400000000E-02 0. -1.
         -1   -1    0    0    0  501 -0.00000000000E+00 -0.00000000000E+00 -0.13466691632E+04  0.13466691632E+04  0.50400000000E-02 0.  1.
    8880023    1    1    2    0    0 -0.10278153423E+03  0.23303937561E+03  0.11823763222E+03  0.71600400718E+03  0.65864270000E+03 0. -1.
    8880022    1    1    2    0    0  0.10278153423E+03 -0.23303937561E+03 -0.10267265586E+04  0.10688453928E+04  0.15294330000E+03 0.  0.
<mgrwt>
<rscale>  0 0.56872998E+03</rscale>
<asrwt>0</asrwt>
<pdfrwt beam="1">  1        1 0.67412345E-01 0.70617392E+03</pdfrwt>
<pdfrwt beam="2">  1       -1 0.20717987E+00 0.70617392E+03</pdfrwt>
<totfact> 0.74177590E+00</totfact>
</mgrwt>
</event>
<event>
 4    1  0.1521315E-007  0.1168512E+04  0.7818608E-02  0.9188355E-01
         -1   -1    0    0    0  501 -0.00000000000E+00  0.00000000000E+00  0.97980092332E+03  0.97980092334E+03  0.50400000000E-02 0.  1.
          1   -1    0    0  501    0  0.00000000000E+00 -0.00000000000E+00 -0.12765725380E+04  0.12765725380E+04  0.50400000000E-02 0. -1.
    8880023    1    1    2    0    0  0.89134809755E+03 -0.37028204505E+03 -0.47794644242E+03  0.12624790026E+04  0.65864270000E+03 0.  1.
    8880022    1    1    2    0    0 -0.89134809755E+03  0.37028204505E+03  0.18117482775E+03  0.99389445875E+03  0.15294330000E+03 0. -1.
<mgrwt>
<rscale>  0 0.11174431E+04</rscale>
<asrwt>0</asrwt>
<pdfrwt beam="1">  1        1 0.19639578E+00 0.11685121E+04</pdfrwt>
<pdfrwt beam="2">  1       -1 0.15073860E+00 0.11685121E+04</pdfrwt>
<totfact> 0.31867737E+00</totfact>
</mgrwt>
</event>
<event>
 4    1  0.1521315E-007  0.6630359E+03  0.7818608E-02  0.1021241E+00
          1   -1    0    0  501    0  0.00000000000E+00  0.00000000000E+00  0.34341091215E+04  0.34341091215E+04  0.50400000000E-02 0. -1.
         -1   -1    0    0    0  501 -0.00000000000E+00 -0.00000000000E+00 -0.54551301083E+02  0.54551301316E+02  0.50400000000E-02 0.  1.
    8880023    1    1    2    0    0 -0.55938921762E+02  0.51741746289E+02  0.22303031980E+04  0.23267722133E+04  0.65864270000E+03 0.  1.
    8880022    1    1    2    0    0  0.55938921762E+02 -0.51741746289E+02  0.11492546224E+04  0.11618882095E+04  0.15294330000E+03 0.  0.
<mgrwt>
<rscale>  0 0.47241313E+03</rscale>
<asrwt>0</asrwt>
<pdfrwt beam="1">  1        1 0.52832442E+00 0.66303588E+03</pdfrwt>
<pdfrwt beam="2">  1       -1 0.83925089E-02 0.66303588E+03</pdfrwt>
<totfact> 0.25458765E+01</totfact>
</mgrwt>
</event>
<event>
 4    1  0.1521315E-007  0.8632917E+03  0.7818608E-02  0.9587735E-01
         -1   -1    0    0    0  501 -0.00000000000E+00  0.00000000000E+00  0.61742411274E+03  0.61742411276E+03  0.50400000000E-02 0.  1.
          1   -1    0    0  501    0  0.00000000000E+00 -0.00000000000E+00 -0.16205519995E+04  0.16205519996E+04  0.50400000000E-02 0. -1.
    8880023    1    1    2    0    0 -0.38247343651E+03 -0.40641895528E+03 -0.13207563038E+04  0.15778687262E+04  0.65864270000E+03 0. -1.
    8880022    1    1    2    0    0  0.38247343651E+03  0.40641895528E+03  0.31762841702E+03  0.66010738609E+03  0.15294330000E+03 0.  0.
<mgrwt>
<rscale>  0 0.78113319E+03</rscale>
<asrwt>0</asrwt>
<pdfrwt beam="1">  1        1 0.24931569E+00 0.86329167E+03</pdfrwt>
<pdfrwt beam="2">  1       -1 0.94988326E-01 0.86329167E+03</pdfrwt>
<totfact> 0.59295172E+00</totfact>
</mgrwt>
</event>
<event>
 4    1  0.1521315E-007  0.8251135E+03  0.7818608E-02  0.9658916E-01
          1   -1    0    0  501    0  0.00000000000E+00  0.00000000000E+00  0.15428374835E+04  0.15428374835E+04  0.50400000000E-02 0. -1.
         -1   -1    0    0    0  501 -0.00000000000E+00 -0.00000000000E+00 -0.29331711610E+03  0.29331711614E+03  0.50400000000E-02 0.  1.
    8880023    1    1    2    0    0  0.46030897712E+03  0.18739731745E+03  0.78576915493E+03  0.11394057574E+04  0.65864270000E+03 0. -1.
    8880022    1    1    2    0    0 -0.46030897712E+03 -0.18739731745E+03  0.46375121244E+03  0.69674884217E+03  0.15294330000E+03 0.  1.
<mgrwt>
<rscale>  0 0.73516506E+03</rscale>
<asrwt>0</asrwt>
<pdfrwt beam="1">  1        1 0.23735961E+00 0.82511352E+03</pdfrwt>
<pdfrwt beam="2">  1       -1 0.45125711E-01 0.82511352E+03</pdfrwt>
<totfact> 0.30458031E+01</totfact>
</mgrwt>
</event>
<event>
 4    1  0.1521315E-007  0.1262543E+04  0.7818608E-02  0.9098601E-01
          1   -1    0    0  501    0  0.00000000000E+00  0.00000000000E+00  0.20869252002E+04  0.20869252002E+04  0.50400000000E-02 0. -1.
         -1   -1    0    0    0  501 -0.00000000000E+00 -0.00000000000E+00 -0.70738504241E+03  0.70738504242E+03  0.50400000000E-02 0.  1.
    8880023    1    1    2    0    0  0.65921817860E+03 -0.85184277286E+03  0.10913625166E+04  0.16688580124E+04  0.65864270000E+03 0.  0.
    8880022    1    1    2    0    0 -0.65921817860E+03  0.85184277286E+03  0.28817764123E+03  0.11254522303E+04  0.15294330000E+03 0.  0.
<mgrwt>
<rscale>  0 0.12164243E+04</rscale>
<asrwt>0</asrwt>
<pdfrwt beam="1">  1        1 0.32106542E+00 0.12625430E+04</pdfrwt>
<pdfrwt beam="2">  1       -1 0.10882847E+00 0.12625430E+04</pdfrwt>
<totfact> 0.19929664E+00</totfact>
</mgrwt>
</event>
<event>
 4    1  0.1521315E-007  0.6614720E+03  0.7818608E-02  0.1022697E+00
          1   -1    0    0  501    0  0.00000000000E+00  0.00000000000E+00  0.71570896539E+03  0.71570896541E+03  0.50400000000E-02 0. -1.
         -1   -1    0    0    0  501 -0.00000000000E+00 -0.00000000000E+00 -0.24487105735E+03  0.24487105740E+03  0.50400000000E-02 0.  1.
    8880023    1    1    2    0    0  0.49365123977E+02  0.36028071485E+02  0.43598915452E+03  0.79223209132E+03  0.65864270000E+03 0. -1.
    8880022    1    1    2    0    0 -0.49365123977E+02 -0.36028071485E+02  0.34848753523E+02  0.16834793149E+03  0.15294330000E+03 0.  1.
<mgrwt>
<rscale>  0 0.46725932E+03</rscale>
<asrwt>0</asrwt>
<pdfrwt beam="1">  1        1 0.11010907E+00 0.66147195E+03</pdfrwt>
<pdfrwt beam="2">  1       -1 0.37672471E-01 0.66147195E+03</pdfrwt>
<totfact> 0.18242853E+02</totfact>
</mgrwt>
</event>
<event>
 4    1  0.1521315E-007  0.6924656E+03  0.7818608E-02  0.1003002E+00
          1   -1    0    0  501    0  0.00000000000E+00  0.00000000000E+00  0.20139461005E+04  0.20139461006E+04  0.50400000000E-02 0. -1.
         -1   -1    0    0    0  501 -0.00000000000E+00 -0.00000000000E+00 -0.15430442432E+03  0.15430442440E+03  0.50400000000E-02 0.  1.
    8880023    1    1    2    0    0 -0.81181766282E+02 -0.19775723507E+03  0.17526007911E+04  0.18844410690E+04  0.65864270000E+03 0. -1.
    8880022    1    1    2    0    0  0.81181766282E+02  0.19775723507E+03  0.10704088511E+03  0.28380945597E+03  0.15294330000E+03 0.  0.
<mgrwt>
<rscale>  0 0.54353260E+03</rscale>
<asrwt>0</asrwt>
<pdfrwt beam="1">  1        1 0.30983784E+00 0.69246560E+03</pdfrwt>
<pdfrwt beam="2">  1       -1 0.23739144E-01 0.69246560E+03</pdfrwt>
<totfact> 0.46482455E+01</totfact>
</mgrwt>
</event>
<event>
 4    1  0.1521315E-007  0.1167363E+04  0.7818608E-02  0.9189519E-01
          1   -1    0    0  501    0  0.00000000000E+00  0.00000000000E+00  0.21748277989E+04  0.21748277989E+04  0.50400000000E-02 0. -1.
         -1   -1    0    0    0  501 -0.00000000000E+00 -0.00000000000E+00 -0.54533283022E+03  0.54533283024E+03  0.50400000000E-02 0.  1.
    8880023    1    1    2    0    0  0.73448592821E+03  0.62406492399E+03  0.11266074861E+04  0.16223382021E+04  0.65864270000E+03 0. -1.
    8880022    1    1    2    0    0 -0.73448592821E+03 -0.62406492399E+03  0.50288748257E+03  0.10978224270E+04  0.15294330000E+03 0.  0.
<mgrwt>
<rscale>  0 0.11162263E+04</rscale>
<asrwt>0</asrwt>
<pdfrwt beam="1">  1        1 0.33458890E+00 0.11673632E+04</pdfrwt>
<pdfrwt beam="2">  1       -1 0.83897357E-01 0.11673632E+04</pdfrwt>
<totfact> 0.31681065E+00</totfact>
</mgrwt>
</event>
<event>
 4    1  0.1521315E-007  0.7805171E+03  0.7818608E-02  0.9754624E-01
          1   -1    0    0  501    0  0.00000000000E+00  0.00000000000E+00  0.67638267857E+03  0.67638267859E+03  0.50400000000E-02 0. -1.
         -1   -1    0    0    0  501 -0.00000000000E+00 -0.00000000000E+00 -0.87824488609E+03  0.87824488611E+03  0.50400000000E-02 0.  1.
    8880023    1    1    2    0    0  0.31890571456E+03 -0.27146997867E+03  0.34132797045E+03  0.85188719545E+03  0.65864270000E+03 0.  0.
    8880022    1    1    2    0    0 -0.31890571456E+03  0.27146997867E+03 -0.54319017798E+03  0.70274036924E+03  0.15294330000E+03 0.  0.
<mgrwt>
<rscale>  0 0.67855605E+03</rscale>
<asrwt>0</asrwt>
<pdfrwt beam="1">  1        1 0.10405887E+00 0.78051714E+03</pdfrwt>
<pdfrwt beam="2">  1       -1 0.13511460E+00 0.78051714E+03</pdfrwt>
<totfact> 0.13521751E+01</totfact>
</mgrwt>
</event>
<event>
 4    1  0.1521315E-007  0.8647758E+03  0.7818608E-02  0.9585124E-01
         -1   -1    0    0    0  501 -0.00000000000E+00  0.00000000000E+00  0.98167199915E+03  0.98167199916E+03  0.50400000000E-02 0.  1.
          1   -1    0    0  501    0  0.00000000000E+00 -0.00000000000E+00 -0.11211292235E+04  0.11211292235E+04  0.50400000000E-02 0. -1.
    8880023    1    1    2    0    0 -0.34985735606E+03 -0.43775207855E+03 -0.83122986361E+03  0.11994917025E+04  0.65864270000E+03 0. -1.
    8880022    1    1    2    0    0  0.34985735606E+03  0.43775207855E+03  0.69177263926E+03  0.90330952021E+03  0.15294330000E+03 0.  0.
<mgrwt>
<rscale>  0 0.78288650E+03</rscale>
<asrwt>0</asrwt>
<pdfrwt beam="1">  1        1 0.17248142E+00 0.86477584E+03</pdfrwt>
<pdfrwt beam="2">  1       -1 0.15102646E+00 0.86477584E+03</pdfrwt>
<totfact> 0.42732497E+00</totfact>
</mgrwt>
</event>
<event>
 4    1  0.1521315E-007  0.1131362E+04  0.7818608E-02  0.9226917E-01
         -1   -1    0    0    0  501 -0.00000000000E+00  0.00000000000E+00  0.78909256656E+03  0.78909256658E+03  0.50400000000E-02 0.  1.
          1   -1    0    0  501    0  0.00000000000E+00 -0.00000000000E+00 -0.15269932833E+04  0.15269932833E+04  0.50400000000E-02 0. -1.
    8880023    1    1    2    0    0 -0.89627560124E+03 -0.20702397187E+03 -0.79355840058E+03  0.13819240282E+04  0.65864270000E+03 0.  0.
    8880022    1    1    2    0    0  0.89627560124E+03  0.20702397187E+03  0.55657683850E+02  0.93416182168E+03  0.15294330000E+03 0.  0.
<mgrwt>
<rscale>  0 0.10779871E+04</rscale>
<asrwt>0</asrwt>
<pdfrwt beam="1">  1        1 0.23492204E+00 0.11313616E+04</pdfrwt>
<pdfrwt beam="2">  1       -1 0.12139886E+00 0.11313616E+04</pdfrwt>
<totfact> 0.37326738E+00</totfact>
</mgrwt>
</event>
<event>
 4    1  0.1521315E-007  0.7904002E+03  0.7818608E-02  0.9731950E-01
          1   -1    0    0  501    0  0.00000000000E+00  0.00000000000E+00  0.61828811262E+03  0.61828811264E+03  0.50400000000E-02 0. -1.
         -1   -1    0    0    0  501 -0.00000000000E+00 -0.00000000000E+00 -0.93781929119E+03  0.93781929120E+03  0.50400000000E-02 0.  1.
    8880023    1    1    2    0    0 -0.41461027854E+03  0.13791524947E+03  0.24362544090E+03  0.82709483182E+03  0.65864270000E+03 0. -1.
    8880022    1    1    2    0    0  0.41461027854E+03 -0.13791524947E+03 -0.56315661947E+03  0.72901257203E+03  0.15294330000E+03 0.  1.
<mgrwt>
<rscale>  0 0.69145926E+03</rscale>
<asrwt>0</asrwt>
<pdfrwt beam="1">  1        1 0.95121248E-01 0.79040022E+03</pdfrwt>
<pdfrwt beam="2">  1       -1 0.14427989E+00 0.79040022E+03</pdfrwt>
<totfact> 0.12997833E+01</totfact>
</mgrwt>
</event>
<event>
 4    1  0.1521315E-007  0.1106219E+04  0.7818608E-02  0.9254164E-01
         -1   -1    0    0    0  501 -0.00000000000E+00  0.00000000000E+00  0.11865549006E+04  0.11865549006E+04  0.50400000000E-02 0.  1.
          1   -1    0    0  501    0  0.00000000000E+00 -0.00000000000E+00 -0.92784095709E+03  0.92784095710E+03  0.50400000000E-02 0. -1.
    8880023    1    1    2    0    0  0.58418371272E+03 -0.66980520178E+03  0.44700123900E+03  0.11931177362E+04  0.65864270000E+03 0.  0.
    8880022    1    1    2    0    0 -0.58418371272E+03  0.66980520178E+03 -0.18828729547E+03  0.92127812152E+03  0.15294330000E+03 0.  0.
<mgrwt>
<rscale>  0 0.10511439E+04</rscale>
<asrwt>0</asrwt>
<pdfrwt beam="1">  1        1 0.14274476E+00 0.11062187E+04</pdfrwt>
<pdfrwt beam="2">  1       -1 0.18254691E+00 0.11062187E+04</pdfrwt>
<totfact> 0.34160114E+00</totfact>
</mgrwt>
</event>
<event>
 4    1  0.1521315E-007  0.9902576E+03  0.7818608E-02  0.9394416E-01
         -1   -1    0    0    0  501 -0.00000000000E+00  0.00000000000E+00  0.76483162903E+03  0.76483162904E+03  0.50400000000E-02 0.  1.
          1   -1    0    0  501    0  0.00000000000E+00 -0.00000000000E+00 -0.21864916472E+04  0.21864916472E+04  0.50400000000E-02 0. -1.
    8880023    1    1    2    0    0  0.32794526383E+03 -0.66276068616E+03 -0.18389197962E+04  0.20885966691E+04  0.65864270000E+03 0. -1.
    8880022    1    1    2    0    0 -0.32794526383E+03  0.66276068616E+03  0.41725977806E+03  0.86272660709E+03  0.15294330000E+03 0.  0.
<mgrwt>
<rscale>  0 0.92536637E+03</rscale>
<asrwt>0</asrwt>
<pdfrwt beam="1">  1        1 0.33638333E+00 0.99025756E+03</pdfrwt>
<pdfrwt beam="2">  1       -1 0.11766641E+00 0.99025756E+03</pdfrwt>
<totfact> 0.14670374E+00</totfact>
</mgrwt>
</event>
<event>
 4    1  0.1521315E-007  0.1047119E+04  0.7818608E-02  0.9322352E-01
         -1   -1    0    0    0  501 -0.00000000000E+00  0.00000000000E+00  0.10152132939E+04  0.10152132939E+04  0.50400000000E-02 0.  1.
          1   -1    0    0  501    0  0.00000000000E+00 -0.00000000000E+00 -0.12456580833E+04  0.12456580833E+04  0.50400000000E-02 0. -1.
    8880023    1    1    2    0    0  0.33838558030E+03 -0.74036759202E+03 -0.74561098477E+03  0.12854551409E+04  0.65864270000E+03 0. -1.
    8880022    1    1    2    0    0 -0.33838558030E+03  0.74036759202E+03  0.51516619538E+03  0.97541623635E+03  0.15294330000E+03 0.  1.
<mgrwt>
<rscale>  0 0.98750864E+03</rscale>
<asrwt>0</asrwt>
<pdfrwt beam="1">  1        1 0.19163970E+00 0.10471195E+04</pdfrwt>
<pdfrwt beam="2">  1       -1 0.15618666E+00 0.10471195E+04</pdfrwt>
<totfact> 0.30865174E+00</totfact>
</mgrwt>
</event>
<event>
 4    1  0.1521315E-007  0.7927177E+03  0.7818608E-02  0.9726769E-01
         -1   -1    0    0    0  501 -0.00000000000E+00  0.00000000000E+00  0.10583552201E+03  0.10583552213E+03  0.50400000000E-02 0.  1.
          1   -1    0    0  501    0  0.00000000000E+00 -0.00000000000E+00 -0.39391307852E+04  0.39391307852E+04  0.50400000000E-02 0. -1.
    8880023    1    1    2    0    0  0.31537033358E+03  0.30843596578E+03 -0.28196711900E+04  0.29289839567E+04  0.65864270000E+03 0. -1.
    8880022    1    1    2    0    0 -0.31537033358E+03 -0.30843596578E+03 -0.10136240732E+04  0.11159823507E+04  0.15294330000E+03 0.  0.
<mgrwt>
<rscale>  0 0.69445118E+03</rscale>
<asrwt>0</asrwt>
<pdfrwt beam="1">  1        1 0.60602001E+00 0.79271773E+03</pdfrwt>
<pdfrwt beam="2">  1       -1 0.16282391E-01 0.79271773E+03</pdfrwt>
<totfact> 0.33870684E+00</totfact>
</mgrwt>
</event>
<event>
 4    1  0.1521315E-007  0.7481031E+03  0.7818608E-02  0.9836942E-01
          1   -1    0    0  501    0  0.00000000000E+00  0.00000000000E+00  0.54253571094E+03  0.54253571097E+03  0.50400000000E-02 0. -1.
         -1   -1    0    0    0  501 -0.00000000000E+00 -0.00000000000E+00 -0.60825827348E+03  0.60825827350E+03  0.50400000000E-02 0.  1.
    8880023    1    1    2    0    0 -0.34673254928E+03 -0.74997106913E+02 -0.12956122941E+03  0.75923932011E+03  0.65864270000E+03 0.  0.
    8880022    1    1    2    0    0  0.34673254928E+03  0.74997106913E+02  0.63838666871E+02  0.39155466435E+03  0.15294330000E+03 0.  0.
<mgrwt>
<rscale>  0 0.63417136E+03</rscale>
<asrwt>0</asrwt>
<pdfrwt beam="1">  1        1 0.83467033E-01 0.74810309E+03</pdfrwt>
<pdfrwt beam="2">  1       -1 0.93578196E-01 0.74810309E+03</pdfrwt>
<totfact> 0.44777429E+01</totfact>
</mgrwt>
</event>
<event>
 4    1  0.1521315E-007  0.6914131E+03  0.7818608E-02  0.1003488E+00
          1   -1    0    0  501    0  0.00000000000E+00  0.00000000000E+00  0.11810918903E+04  0.11810918903E+04  0.50400000000E-02 0. -1.
         -1   -1    0    0    0  501 -0.00000000000E+00 -0.00000000000E+00 -0.49043186057E+03  0.49043186060E+03  0.50400000000E-02 0.  1.
    8880023    1    1    2    0    0  0.18551692900E+03  0.99123099173E+02  0.10321196591E+04  0.12423055649E+04  0.65864270000E+03 0. -1.
    8880022    1    1    2    0    0 -0.18551692900E+03 -0.99123099173E+02 -0.34145962931E+03  0.42921818601E+03  0.15294330000E+03 0.  0.
<mgrwt>
<rscale>  0 0.54146889E+03</rscale>
<asrwt>0</asrwt>
<pdfrwt beam="1">  1        1 0.18170644E+00 0.69141314E+03</pdfrwt>
<pdfrwt beam="2">  1       -1 0.75451057E-01 0.69141314E+03</pdfrwt>
<totfact> 0.20235113E+01</totfact>
</mgrwt>
</event>
<event>
 4    1  0.1521315E-007  0.7581882E+03  0.7818608E-02  0.9809821E-01
          1   -1    0    0  501    0  0.00000000000E+00  0.00000000000E+00  0.59125078142E+03  0.59125078144E+03  0.50400000000E-02 0. -1.
         -1   -1    0    0    0  501 -0.00000000000E+00 -0.00000000000E+00 -0.74405696727E+03  0.74405696729E+03  0.50400000000E-02 0.  1.
    8880023    1    1    2    0    0 -0.18650007818E+03  0.32597075478E+03  0.21475135069E+03  0.78801494974E+03  0.65864270000E+03 0.  0.
    8880022    1    1    2    0    0  0.18650007818E+03 -0.32597075478E+03 -0.36755753654E+03  0.54729279898E+03  0.15294330000E+03 0.  0.
<mgrwt>
<rscale>  0 0.64838163E+03</rscale>
<asrwt>0</asrwt>
<pdfrwt beam="1">  1        1 0.90961659E-01 0.75818825E+03</pdfrwt>
<pdfrwt beam="2">  1       -1 0.11447030E+00 0.75818825E+03</pdfrwt>
<totfact> 0.24872198E+01</totfact>
</mgrwt>
</event>
<event>
 4    1  0.1521315E-007  0.7353255E+03  0.7818608E-02  0.9873779E-01
          1   -1    0    0  501    0  0.00000000000E+00  0.00000000000E+00  0.53715483453E+03  0.53715483455E+03  0.50400000000E-02 0. -1.
         -1   -1    0    0    0  501 -0.00000000000E+00 -0.00000000000E+00 -0.20837984848E+04  0.20837984848E+04  0.50400000000E-02 0.  1.
    8880023    1    1    2    0    0 -0.32530532613E+03 -0.32708901749E+02  0.25898509946E+03  0.77960048452E+03  0.65864270000E+03 0. -1.
    8880022    1    1    2    0    0  0.32530532613E+03  0.32708901749E+02 -0.18056287497E+04  0.18413528348E+04  0.15294330000E+03 0.  0.
<mgrwt>
<rscale>  0 0.61549080E+03</rscale>
<asrwt>0</asrwt>
<pdfrwt beam="1">  1        1 0.82639206E-01 0.73532553E+03</pdfrwt>
<pdfrwt beam="2">  1       -1 0.32058438E+00 0.73532553E+03</pdfrwt>
<totfact> 0.10329306E+00</totfact>
</mgrwt>
</event>
<event>
 4    1  0.1521315E-007  0.7145625E+03  0.7818608E-02  0.9941433E-01
          1   -1    0    0  501    0  0.00000000000E+00  0.00000000000E+00  0.10581516914E+04  0.10581516915E+04  0.50400000000E-02 0. -1.
         -1   -1    0    0    0  501 -0.00000000000E+00 -0.00000000000E+00 -0.69629475507E+03  0.69629475508E+03  0.50400000000E-02 0.  1.
    8880023    1    1    2    0    0 -0.24481297560E+03 -0.12983026469E+03  0.88838954462E+03  0.11401032760E+04  0.65864270000E+03 0. -1.
    8880022    1    1    2    0    0  0.24481297560E+03  0.12983026469E+03 -0.52653260824E+03  0.61434317056E+03  0.15294330000E+03 0.  0.
<mgrwt>
<rscale>  0 0.58294594E+03</rscale>
<asrwt>0</asrwt>
<pdfrwt beam="1">  1        1 0.16279257E+00 0.71456245E+03</pdfrwt>
<pdfrwt beam="2">  1       -1 0.10712227E+00 0.71456245E+03</pdfrwt>
<totfact> 0.11498901E+01</totfact>
</mgrwt>
</event>
<event>
 4    1  0.1521315E-007  0.8879988E+03  0.7818608E-02  0.9545579E-01
          1   -1    0    0  501    0  0.00000000000E+00  0.00000000000E+00  0.15207675814E+04  0.15207675814E+04  0.50400000000E-02 0. -1.
         -1   -1    0    0    0  501 -0.00000000000E+00 -0.00000000000E+00 -0.12402465645E+04  0.12402465645E+04  0.50400000000E-02 0.  1.
    8880023    1    1    2    0    0  0.46645154483E+03 -0.37034395177E+03  0.12976830732E+04  0.15724259127E+04  0.65864270000E+03 0. -1.
    8880022    1    1    2    0    0 -0.46645154483E+03  0.37034395177E+03 -0.10171620563E+04  0.11885882332E+04  0.15294330000E+03 0.  0.
<mgrwt>
<rscale>  0 0.81005307E+03</rscale>
<asrwt>0</asrwt>
<pdfrwt beam="1">  1        1 0.23396424E+00 0.88799881E+03</pdfrwt>
<pdfrwt beam="2">  1       -1 0.19080716E+00 0.88799881E+03</pdfrwt>
<totfact> 0.11314118E+00</totfact>
</mgrwt>
</event>
<event>
 4    1  0.1521315E-007  0.9475601E+03  0.7818608E-02  0.9453633E-01
          1   -1    0    0  501    0  0.00000000000E+00  0.00000000000E+00  0.82684516505E+03  0.82684516506E+03  0.50400000000E-02 0. -1.
         -1   -1    0    0    0  501 -0.00000000000E+00 -0.00000000000E+00 -0.12834553727E+04  0.12834553727E+04  0.50400000000E-02 0.  1.
    8880023    1    1    2    0    0  0.68034229132E+03 -0.34558418868E+02  0.37975431237E+03  0.10208248928E+04  0.65864270000E+03 0.  0.
    8880022    1    1    2    0    0 -0.68034229132E+03  0.34558418868E+02 -0.83636451997E+03  0.10894756450E+04  0.15294330000E+03 0.  0.
<mgrwt>
<rscale>  0 0.87790294E+03</rscale>
<asrwt>0</asrwt>
<pdfrwt beam="1">  1        1 0.12720695E+00 0.94756009E+03</pdfrwt>
<pdfrwt beam="2">  1       -1 0.19745467E+00 0.94756009E+03</pdfrwt>
<totfact> 0.33188937E+00</totfact>
</mgrwt>
</event>
<event>
 4    1  0.1521315E-007  0.6671151E+03  0.7818608E-02  0.1017821E+00
         -1   -1    0    0    0  501 -0.00000000000E+00  0.00000000000E+00  0.36451467086E+03  0.36451467090E+03  0.50400000000E-02 0.  1.
          1   -1    0    0  501    0  0.00000000000E+00 -0.00000000000E+00 -0.11200236020E+04  0.11200236020E+04  0.50400000000E-02 0. -1.
    8880023    1    1    2    0    0  0.75712753798E+02 -0.74161380846E+02 -0.98465038318E+03  0.11893607169E+04  0.65864270000E+03 0. -1.
    8880022    1    1    2    0    0 -0.75712753798E+02  0.74161380846E+02  0.22914145207E+03  0.29517755600E+03  0.15294330000E+03 0.  0.
<mgrwt>
<rscale>  0 0.48481126E+03</rscale>
<asrwt>0</asrwt>
<pdfrwt beam="1">  1        1 0.17231132E+00 0.66711509E+03</pdfrwt>
<pdfrwt beam="2">  1       -1 0.56079181E-01 0.66711509E+03</pdfrwt>
<totfact> 0.40814425E+01</totfact>
</mgrwt>
</event>
<event>
 4    1  0.1521315E-007  0.6800680E+03  0.7818608E-02  0.1009285E+00
          1   -1    0    0  501    0  0.00000000000E+00  0.00000000000E+00  0.38038314043E+03  0.38038314046E+03  0.50400000000E-02 0. -1.
         -1   -1    0    0    0  501 -0.00000000000E+00 -0.00000000000E+00 -0.60449128009E+03  0.60449128011E+03  0.50400000000E-02 0.  1.
    8880023    1    1    2    0    0  0.14534985486E+03 -0.86923860091E+02 -0.30150777981E+03  0.74390825060E+03  0.65864270000E+03 0.  1.
    8880022    1    1    2    0    0 -0.14534985486E+03  0.86923860091E+02  0.77399640144E+02  0.24096616997E+03  0.15294330000E+03 0.  1.
<mgrwt>
<rscale>  0 0.51759716E+03</rscale>
<asrwt>0</asrwt>
<pdfrwt beam="1">  1        1 0.58520483E-01 0.68006804E+03</pdfrwt>
<pdfrwt beam="2">  1       -1 0.92998659E-01 0.68006804E+03</pdfrwt>
<totfact> 0.73781673E+01</totfact>
</mgrwt>
</event>
<event>
 4    1  0.1521315E-007  0.8612769E+03  0.7818608E-02  0.9591296E-01
         -1   -1    0    0    0  501 -0.00000000000E+00  0.00000000000E+00  0.10525682494E+04  0.10525682494E+04  0.50400000000E-02 0.  1.
          1   -1    0    0  501    0  0.00000000000E+00 -0.00000000000E+00 -0.95141394831E+03  0.95141394832E+03  0.50400000000E-02 0. -1.
    8880023    1    1    2    0    0  0.53332313517E+03  0.15347328329E+03 -0.63457876599E+03  0.10698074741E+04  0.65864270000E+03 0.  0.
    8880022    1    1    2    0    0 -0.53332313517E+03 -0.15347328329E+03  0.73573306705E+03  0.93417472357E+03  0.15294330000E+03 0.  0.
<mgrwt>
<rscale>  0 0.77874944E+03</rscale>
<asrwt>0</asrwt>
<pdfrwt beam="1">  1        1 0.14637138E+00 0.86127686E+03</pdfrwt>
<pdfrwt beam="2">  1       -1 0.16193358E+00 0.86127686E+03</pdfrwt>
<totfact> 0.47648693E+00</totfact>
</mgrwt>
</event>
<event>
 4    1  0.1521315E-007  0.6663558E+03  0.7818608E-02  0.1018422E+00
          1   -1    0    0  501    0  0.00000000000E+00  0.00000000000E+00  0.23985856200E+04  0.23985856200E+04  0.50400000000E-02 0. -1.
         -1   -1    0    0    0  501 -0.00000000000E+00 -0.00000000000E+00 -0.76113100782E+02  0.76113100948E+02  0.50400000000E-02 0.  1.
    8880023    1    1    2    0    0  0.33772898232E+02  0.95284976876E+02  0.19225763479E+04  0.20347800508E+04  0.65864270000E+03 0.  0.
    8880022    1    1    2    0    0 -0.33772898232E+02 -0.95284976876E+02  0.39989617126E+03  0.43991867007E+03  0.15294330000E+03 0.  1.
<mgrwt>
<rscale>  0 0.48260365E+03</rscale>
<asrwt>0</asrwt>
<pdfrwt beam="1">  1        1 0.36901321E+00 0.66635579E+03</pdfrwt>
<pdfrwt beam="2">  1       -1 0.11709707E-01 0.66635579E+03</pdfrwt>
<totfact> 0.82051298E+01</totfact>
</mgrwt>
</event>
<event>
 4    1  0.1521315E-007  0.6885854E+03  0.7818608E-02  0.1004832E+00
         -1   -1    0    0    0  501 -0.00000000000E+00  0.00000000000E+00  0.31098878814E+03  0.31098878818E+03  0.50400000000E-02 0.  1.
          1   -1    0    0  501    0  0.00000000000E+00 -0.00000000000E+00 -0.11138419166E+04  0.11138419166E+04  0.50400000000E-02 0. -1.
    8880023    1    1    2    0    0  0.17245105791E+03 -0.10295797127E+03 -0.91784227755E+03  0.11474251017E+04  0.65864270000E+03 0. -1.
    8880022    1    1    2    0    0 -0.17245105791E+03  0.10295797127E+03  0.11498914908E+03  0.27740560312E+03  0.15294330000E+03 0.  0.
<mgrwt>
<rscale>  0 0.53581212E+03</rscale>
<asrwt>0</asrwt>
<pdfrwt beam="1">  1        1 0.17136029E+00 0.68858545E+03</pdfrwt>
<pdfrwt beam="2">  1       -1 0.47844430E-01 0.68858545E+03</pdfrwt>
<totfact> 0.55677008E+01</totfact>
</mgrwt>
</event>
<event>
 4    1  0.1521315E-007  0.6844991E+03  0.7818608E-02  0.1006885E+00
          1   -1    0    0  501    0  0.00000000000E+00  0.00000000000E+00  0.17735408768E+04  0.17735408769E+04  0.50400000000E-02 0. -1.
         -1   -1    0    0    0  501 -0.00000000000E+00 -0.00000000000E+00 -0.20845584120E+03  0.20845584126E+03  0.50400000000E-02 0.  1.
    8880023    1    1    2    0    0 -0.91402702135E+02  0.16240168522E+03  0.15982343264E+04  0.17386465798E+04  0.65864270000E+03 0. -1.
    8880022    1    1    2    0    0  0.91402702135E+02 -0.16240168522E+03 -0.33149290710E+02  0.24335013829E+03  0.15294330000E+03 0.  0.
<mgrwt>
<rscale>  0 0.52731574E+03</rscale>
<asrwt>0</asrwt>
<pdfrwt beam="1">  1        1 0.27285244E+00 0.68449906E+03</pdfrwt>
<pdfrwt beam="2">  1       -1 0.32070130E-01 0.68449906E+03</pdfrwt>
<totfact> 0.40095137E+01</totfact>
</mgrwt>
</event>
<event>
 4    1  0.1521315E-007  0.9143045E+03  0.7818608E-02  0.9503448E-01
         -1   -1    0    0    0  501 -0.00000000000E+00  0.00000000000E+00  0.11621396400E+04  0.11621396400E+04  0.50400000000E-02 0.  1.
          1   -1    0    0  501    0  0.00000000000E+00 -0.00000000000E+00 -0.10547834747E+04  0.10547834748E+04  0.50400000000E-02 0. -1.
    8880023    1    1    2    0    0  0.54677781561E+03  0.32121115214E+03 -0.71969098776E+03  0.11635754845E+04  0.65864270000E+03 0. -1.
    8880022    1    1    2    0    0 -0.54677781561E+03 -0.32121115214E+03  0.82704715299E+03  0.10533476303E+04  0.15294330000E+03 0.  0.
<mgrwt>
<rscale>  0 0.84030117E+03</rscale>
<asrwt>0</asrwt>
<pdfrwt beam="1">  1        1 0.16227438E+00 0.91430454E+03</pdfrwt>
<pdfrwt beam="2">  1       -1 0.17879071E+00 0.91430454E+03</pdfrwt>
<totfact> 0.29569018E+00</totfact>
</mgrwt>
</event>
<event>
 4    1  0.1521315E-007  0.6679534E+03  0.7818608E-02  0.1017174E+00
          1   -1    0    0  501    0  0.00000000000E+00  0.00000000000E+00  0.14557698441E+04  0.14557698441E+04  0.50400000000E-02 0. -1.
         -1   -1    0    0    0  501 -0.00000000000E+00 -0.00000000000E+00 -0.40757282736E+03  0.40757282740E+03  0.50400000000E-02 0.  1.
    8880023    1    1    2    0    0  0.84656639618E+02 -0.72005576129E+02  0.13505764878E+04  0.15067244623E+04  0.65864270000E+03 0. -1.
    8880022    1    1    2    0    0 -0.84656639618E+02  0.72005576129E+02 -0.30237947105E+03  0.35661820922E+03  0.15294330000E+03 0.  0.
<mgrwt>
<rscale>  0 0.48720172E+03</rscale>
<asrwt>0</asrwt>
<pdfrwt beam="1">  1        1 0.22396459E+00 0.66795341E+03</pdfrwt>
<pdfrwt beam="2">  1       -1 0.62703513E-01 0.66795341E+03</pdfrwt>
<totfact> 0.18956883E+01</totfact>
</mgrwt>
</event>
<event>
 4    1  0.1521315E-007  0.1083207E+04  0.7818608E-02  0.9279988E-01
         -1   -1    0    0    0  501 -0.00000000000E+00  0.00000000000E+00  0.21201449807E+04  0.21201449807E+04  0.50400000000E-02 0.  1.
          1   -1    0    0  501    0  0.00000000000E+00 -0.00000000000E+00 -0.16496776110E+04  0.16496776110E+04  0.50400000000E-02 0. -1.
    8880023    1    1    2    0    0 -0.84665246838E+03  0.15068664384E+03 -0.13617681146E+04  0.17400429509E+04  0.65864270000E+03 0. -1.
    8880022    1    1    2    0    0  0.84665246838E+03 -0.15068664384E+03  0.18322354843E+04  0.20297796407E+04  0.15294330000E+03 0.  0.
<mgrwt>
<rscale>  0 0.10264630E+04</rscale>
<asrwt>0</asrwt>
<pdfrwt beam="1">  1        1 0.25379656E+00 0.10832068E+04</pdfrwt>
<pdfrwt beam="2">  1       -1 0.32617615E+00 0.10832068E+04</pdfrwt>
<totfact> 0.11575805E-01</totfact>
</mgrwt>
</event>
<event>
 4    1  0.1521315E-007  0.7110138E+03  0.7818608E-02  0.9954256E-01
         -1   -1    0    0    0  501 -0.00000000000E+00  0.00000000000E+00  0.46393252020E+03  0.46393252022E+03  0.50400000000E-02 0.  1.
          1   -1    0    0  501    0  0.00000000000E+00 -0.00000000000E+00 -0.96918885604E+03  0.96918885605E+03  0.50400000000E-02 0. -1.
    8880023    1    1    2    0    0  0.25843033941E+03 -0.70314509482E+02 -0.75438937131E+03  0.10366503270E+04  0.65864270000E+03 0. -1.
    8880022    1    1    2    0    0 -0.25843033941E+03  0.70314509482E+02  0.24913303547E+03  0.39647104932E+03  0.15294330000E+03 0.  0.
<mgrwt>
<rscale>  0 0.57702369E+03</rscale>
<asrwt>0</asrwt>
<pdfrwt beam="1">  1        1 0.14910598E+00 0.71101377E+03</pdfrwt>
<pdfrwt beam="2">  1       -1 0.71374234E-01 0.71101377E+03</pdfrwt>
<totfact> 0.32692960E+01</totfact>
</mgrwt>
</event>
<event>
 4    1  0.1521315E-007  0.7791352E+03  0.7818608E-02  0.9757872E-01
         -1   -1    0    0    0  501 -0.00000000000E+00  0.00000000000E+00  0.14675663048E+04  0.14675663048E+04  0.50400000000E-02 0.  1.
          1   -1    0    0  501    0  0.00000000000E+00 -0.00000000000E+00 -0.10763171852E+04  0.10763171852E+04  0.50400000000E-02 0. -1.
    8880023    1    1    2    0    0  0.33809769600E+03  0.24275779494E+03 -0.89306920500E+03  0.11851684312E+04  0.65864270000E+03 0. -1.
    8880022    1    1    2    0    0 -0.33809769600E+03 -0.24275779494E+03  0.12843183246E+04  0.13587150588E+04  0.15294330000E+03 0.  0.
<mgrwt>
<rscale>  0 0.67673193E+03</rscale>
<asrwt>0</asrwt>
<pdfrwt beam="1">  1        1 0.16558726E+00 0.77913516E+03</pdfrwt>
<pdfrwt beam="2">  1       -1 0.22577943E+00 0.77913516E+03</pdfrwt>
<totfact> 0.13870797E+00</totfact>
</mgrwt>
</event>
<event>
 4    1  0.1521315E-007  0.7159731E+03  0.7818608E-02  0.9936455E-01
          1   -1    0    0  501    0  0.00000000000E+00  0.00000000000E+00  0.72448963102E+03  0.72448963103E+03  0.50400000000E-02 0. -1.
         -1   -1    0    0    0  501 -0.00000000000E+00 -0.00000000000E+00 -0.58377453474E+03  0.58377453476E+03  0.50400000000E-02 0.  1.
    8880023    1    1    2    0    0 -0.10346290676E+02  0.28053568162E+03  0.46434229974E+03  0.85336468874E+03  0.65864270000E+03 0.  0.
    8880022    1    1    2    0    0  0.10346290676E+02 -0.28053568162E+03 -0.32362720347E+03  0.45489947706E+03  0.15294330000E+03 0.  0.
<mgrwt>
<rscale>  0 0.58526608E+03</rscale>
<asrwt>0</asrwt>
<pdfrwt beam="1">  1        1 0.11145994E+00 0.71597313E+03</pdfrwt>
<pdfrwt beam="2">  1       -1 0.89811467E-01 0.71597313E+03</pdfrwt>
<totfact> 0.32252859E+01</totfact>
</mgrwt>
</event>
<event>
 4    1  0.1521315E-007  0.1196677E+04  0.7818608E-02  0.9160360E-01
          1   -1    0    0  501    0  0.00000000000E+00  0.00000000000E+00  0.31770666361E+04  0.31770666361E+04  0.50400000000E-02 0. -1.
         -1   -1    0    0    0  501 -0.00000000000E+00 -0.00000000000E+00 -0.63620309484E+03  0.63620309486E+03  0.50400000000E-02 0.  1.
    8880023    1    1    2    0    0 -0.97713628130E+03  0.20839710789E+03  0.25341576878E+04  0.28024971115E+04  0.65864270000E+03 0. -1.
    8880022    1    1    2    0    0  0.97713628130E+03 -0.20839710789E+03  0.67058534371E+01  0.10107726195E+04  0.15294330000E+03 0.  0.
<mgrwt>
<rscale>  0 0.11472117E+04</rscale>
<asrwt>0</asrwt>
<pdfrwt beam="1">  1        1 0.48877948E+00 0.11966766E+04</pdfrwt>
<pdfrwt beam="2">  1       -1 0.97877400E-01 0.11966766E+04</pdfrwt>
<totfact> 0.44238972E-01</totfact>
</mgrwt>
</event>
<event>
 4    1  0.1521315E-007  0.7046444E+03  0.7818608E-02  0.9978454E-01
         -1   -1    0    0    0  501 -0.00000000000E+00  0.00000000000E+00  0.66003129383E+03  0.66003129385E+03  0.50400000000E-02 0.  1.
          1   -1    0    0  501    0  0.00000000000E+00 -0.00000000000E+00 -0.13745080494E+04  0.13745080494E+04  0.50400000000E-02 0. -1.
    8880023    1    1    2    0    0 -0.30738473834E+02 -0.24853308895E+03 -0.12436794130E+04  0.14294272415E+04  0.65864270000E+03 0. -1.
    8880022    1    1    2    0    0  0.30738473834E+02  0.24853308895E+03  0.52920265743E+03  0.60511210179E+03  0.15294330000E+03 0.  0.
<mgrwt>
<rscale>  0 0.56605181E+03</rscale>
<asrwt>0</asrwt>
<pdfrwt beam="1">  1        1 0.21146278E+00 0.70464442E+03</pdfrwt>
<pdfrwt beam="2">  1       -1 0.10154328E+00 0.70464442E+03</pdfrwt>
<totfact> 0.77033748E+00</totfact>
</mgrwt>
</event>
<event>
 4    1  0.1521315E-007  0.6588214E+03  0.7818608E-02  0.1025398E+00
          1   -1    0    0  501    0  0.00000000000E+00  0.00000000000E+00  0.20011988087E+04  0.20011988087E+04  0.50400000000E-02 0. -1.
         -1   -1    0    0    0  501 -0.00000000000E+00 -0.00000000000E+00 -0.10231304894E+03  0.10231304906E+03  0.50400000000E-02 0.  1.
    8880023    1    1    2    0    0 -0.13065025427E+02 -0.80430839263E+01  0.18094921874E+04  0.19256966450E+04  0.65864270000E+03 0. -1.
    8880022    1    1    2    0    0  0.13065025427E+02  0.80430839263E+01  0.89393572347E+02  0.17781521274E+03  0.15294330000E+03 0.  0.
<mgrwt>
<rscale>  0 0.45788026E+03</rscale>
<asrwt>0</asrwt>
<pdfrwt beam="1">  1        1 0.30787676E+00 0.65882137E+03</pdfrwt>
<pdfrwt beam="2">  1       -1 0.15740468E-01 0.65882137E+03</pdfrwt>
<totfact> 0.94112124E+01</totfact>
</mgrwt>
</event>
<event>
 4    1  0.1521315E-007  0.8040368E+03  0.7818608E-02  0.9702135E-01
         -1   -1    0    0    0  501 -0.00000000000E+00  0.00000000000E+00  0.91320386960E+03  0.91320386961E+03  0.50400000000E-02 0.  1.
          1   -1    0    0  501    0  0.00000000000E+00 -0.00000000000E+00 -0.12588253567E+04  0.12588253567E+04  0.50400000000E-02 0. -1.
    8880023    1    1    2    0    0 -0.45679493071E+03 -0.63272627465E+02 -0.10461944565E+04  0.13194688633E+04  0.65864270000E+03 0. -1.
    8880022    1    1    2    0    0  0.45679493071E+03  0.63272627465E+02  0.70057296941E+03  0.85256036302E+03  0.15294330000E+03 0.  0.
<mgrwt>
<rscale>  0 0.70889841E+03</rscale>
<asrwt>0</asrwt>
<pdfrwt beam="1">  1        1 0.19366544E+00 0.80403684E+03</pdfrwt>
<pdfrwt beam="2">  1       -1 0.14049290E+00 0.80403684E+03</pdfrwt>
<totfact> 0.41463537E+00</totfact>
</mgrwt>
</event>
<event>
 4    1  0.1521315E-007  0.6938307E+03  0.7818608E-02  0.1002383E+00
         -1   -1    0    0    0  501 -0.00000000000E+00  0.00000000000E+00  0.46286763104E+03  0.46286763107E+03  0.50400000000E-02 0.  1.
          1   -1    0    0  501    0  0.00000000000E+00 -0.00000000000E+00 -0.67151664747E+03  0.67151664749E+03  0.50400000000E-02 0. -1.
    8880023    1    1    2    0    0 -0.21808150293E+03 -0.55918019644E+01 -0.40503433686E+03  0.80340141304E+03  0.65864270000E+03 0. -1.
    8880022    1    1    2    0    0  0.21808150293E+03  0.55918019644E+01  0.19638532043E+03  0.33098286552E+03  0.15294330000E+03 0.  0.
<mgrwt>
<rscale>  0 0.54617776E+03</rscale>
<asrwt>0</asrwt>
<pdfrwt beam="1">  1        1 0.10331025E+00 0.69383068E+03</pdfrwt>
<pdfrwt beam="2">  1       -1 0.71210405E-01 0.69383068E+03</pdfrwt>
<totfact> 0.59301480E+01</totfact>
</mgrwt>
</event>
<event>
 4    1  0.1521315E-007  0.6784541E+03  0.7818608E-02  0.1010212E+00
          1   -1    0    0  501    0  0.00000000000E+00  0.00000000000E+00  0.13395118519E+04  0.13395118519E+04  0.50400000000E-02 0. -1.
         -1   -1    0    0    0  501 -0.00000000000E+00 -0.00000000000E+00 -0.27582850097E+03  0.27582850102E+03  0.50400000000E-02 0.  1.
    8880023    1    1    2    0    0 -0.26237362283E+02 -0.16062803620E+03  0.11817914024E+04  0.13626925149E+04  0.65864270000E+03 0. -1.
    8880022    1    1    2    0    0  0.26237362283E+02  0.16062803620E+03 -0.11810805148E+03  0.25264783798E+03  0.15294330000E+03 0.  0.
<mgrwt>
<rscale>  0 0.51390484E+03</rscale>
<asrwt>0</asrwt>
<pdfrwt beam="1">  1        1 0.20607875E+00 0.67845410E+03</pdfrwt>
<pdfrwt beam="2">  1       -1 0.42435153E-01 0.67845410E+03</pdfrwt>
<totfact> 0.47943036E+01</totfact>
</mgrwt>
</event>
<event>
 4    1  0.1521315E-007  0.1087593E+04  0.7818608E-02  0.9274997E-01
         -1   -1    0    0    0  501 -0.00000000000E+00  0.00000000000E+00  0.10411964787E+04  0.10411964787E+04  0.50400000000E-02 0.  1.
          1   -1    0    0  501    0  0.00000000000E+00 -0.00000000000E+00 -0.11843250944E+04  0.11843250944E+04  0.50400000000E-02 0. -1.
    8880023    1    1    2    0    0 -0.72557569378E+03  0.47179327669E+03 -0.59239682822E+03  0.12384640454E+04  0.65864270000E+03 0.  1.
    8880022    1    1    2    0    0  0.72557569378E+03 -0.47179327669E+03  0.44926821246E+03  0.98705752775E+03  0.15294330000E+03 0.  0.
<mgrwt>
<rscale>  0 0.10311766E+04</rscale>
<asrwt>0</asrwt>
<pdfrwt beam="1">  1        1 0.18220386E+00 0.10875933E+04</pdfrwt>
<pdfrwt beam="2">  1       -1 0.16018407E+00 0.10875933E+04</pdfrwt>
<totfact> 0.31739947E+00</totfact>
</mgrwt>
</event>
<event>
 4    1  0.1521315E-007  0.1235655E+04  0.7818608E-02  0.9123219E-01
          1   -1    0    0  501    0  0.00000000000E+00  0.00000000000E+00  0.56383725429E+03  0.56383725431E+03  0.50400000000E-02 0. -1.
         -1   -1    0    0    0  501 -0.00000000000E+00 -0.00000000000E+00 -0.34152051590E+04  0.34152051590E+04  0.50400000000E-02 0.  1.
    8880023    1    1    2    0    0  0.88001534625E+03  0.56445186328E+03 -0.26209164710E+04  0.28975931857E+04  0.65864270000E+03 0.  0.
    8880022    1    1    2    0    0 -0.88001534625E+03 -0.56445186328E+03 -0.23045143372E+03  0.10814492276E+04  0.15294330000E+03 0.  0.
<mgrwt>
<rscale>  0 0.11882329E+04</rscale>
<asrwt>0</asrwt>
<pdfrwt beam="1">  1        1 0.86744195E-01 0.12356549E+04</pdfrwt>
<pdfrwt beam="2">  1       -1 0.52541616E+00 0.12356549E+04</pdfrwt>
<totfact> 0.37857363E-02</totfact>
</mgrwt>
</event>
<event>
 4    1  0.3551562E-007  0.9379592E+03  0.7818608E-02  0.9467654E-01
         -1   -1    0    0    0  501 -0.00000000000E+00  0.00000000000E+00  0.17903711595E+04  0.17903711595E+04  0.50400000000E-02 0.  1.
          1   -1    0    0  501    0  0.00000000000E+00 -0.00000000000E+00 -0.17063047178E+04  0.17063047178E+04  0.50400000000E-02 0. -1.
    8880023    1    1    2    0    0  0.39709664755E+03  0.53690914250E+03 -0.15009595873E+04  0.17699285476E+04  0.65864270000E+03 0. -1.
    8880022    1    1    2    0    0 -0.39709664755E+03 -0.53690914250E+03  0.15850260290E+04  0.17267473297E+04  0.15294330000E+03 0.  0.
<mgrwt>
<rscale>  0 0.86711143E+03</rscale>
<asrwt>0</asrwt>
<pdfrwt beam="1">  1        1 0.26250842E+00 0.93795916E+03</pdfrwt>
<pdfrwt beam="2">  1       -1 0.27544172E+00 0.93795916E+03</pdfrwt>
<totfact> 0.23112185E-01</totfact>
</mgrwt>
</event>
<event>
 4    1  0.1521315E-007  0.7099846E+03  0.7818608E-02  0.9958058E-01
          1   -1    0    0  501    0  0.00000000000E+00  0.00000000000E+00  0.10101013399E+04  0.10101013399E+04  0.50400000000E-02 0. -1.
         -1   -1    0    0    0  501 -0.00000000000E+00 -0.00000000000E+00 -0.57495372982E+03  0.57495372984E+03  0.50400000000E-02 0.  1.
    8880023    1    1    2    0    0 -0.82321698231E+02 -0.25197437613E+03  0.82564017524E+03  0.10889260092E+04  0.65864270000E+03 0. -1.
    8880022    1    1    2    0    0  0.82321698231E+02  0.25197437613E+03 -0.39049256519E+03  0.49612906054E+03  0.15294330000E+03 0.  0.
<mgrwt>
<rscale>  0 0.57528194E+03</rscale>
<asrwt>0</asrwt>
<pdfrwt beam="1">  1        1 0.15540020E+00 0.70998462E+03</pdfrwt>
<pdfrwt beam="2">  1       -1 0.88454422E-01 0.70998462E+03</pdfrwt>
<totfact> 0.19292141E+01</totfact>
</mgrwt>
</event>
<event>
 4    1  0.1521315E-007  0.6836994E+03  0.7818608E-02  0.1007304E+00
         -1   -1    0    0    0  501 -0.00000000000E+00  0.00000000000E+00  0.41190495970E+03  0.41190495973E+03  0.50400000000E-02 0.  1.
          1   -1    0    0  501    0  0.00000000000E+00 -0.00000000000E+00 -0.11543804528E+04  0.11543804528E+04  0.50400000000E-02 0. -1.
    8880023    1    1    2    0    0  0.16502982323E+03 -0.79998794032E+02 -0.10023700181E+04  0.12133385797E+04  0.65864270000E+03 0. -1.
    8880022    1    1    2    0    0 -0.16502982323E+03  0.79998794032E+02  0.25989452504E+03  0.35294683277E+03  0.15294330000E+03 0.  0.
<mgrwt>
<rscale>  0 0.52560356E+03</rscale>
<asrwt>0</asrwt>
<pdfrwt beam="1">  1        1 0.17759699E+00 0.68369939E+03</pdfrwt>
<pdfrwt beam="2">  1       -1 0.63369994E-01 0.68369939E+03</pdfrwt>
<totfact> 0.30228059E+01</totfact>
</mgrwt>
</event>
<event>
 4    1  0.1591186E-007  0.8088656E+03  0.7818608E-02  0.9691945E-01
          1   -1    0    0  501    0  0.00000000000E+00  0.00000000000E+00  0.30969518233E+04  0.30969518234E+04  0.50400000000E-02 0. -1.
         -1   -1    0    0    0  501 -0.00000000000E+00 -0.00000000000E+00 -0.10812974093E+04  0.10812974094E+04  0.50400000000E-02 0.  1.
    8880023    1    1    2    0    0 -0.30526793662E+03 -0.35674193917E+03  0.29837725614E+04  0.30914660323E+04  0.65864270000E+03 0. -1.
    8880022    1    1    2    0    0  0.30526793662E+03  0.35674193917E+03 -0.96811814742E+03  0.10867832004E+04  0.15294330000E+03 0.  0.
<mgrwt>
<rscale>  0 0.71498428E+03</rscale>
<asrwt>0</asrwt>
<pdfrwt beam="1">  1        1 0.47645413E+00 0.80886558E+03</pdfrwt>
<pdfrwt beam="2">  1       -1 0.16635345E+00 0.80886558E+03</pdfrwt>
<totfact> 0.14286107E-01</totfact>
</mgrwt>
</event>
<event>
 4    1  0.1521315E-007  0.1009751E+04  0.7818608E-02  0.9368910E-01
          1   -1    0    0  501    0  0.00000000000E+00  0.00000000000E+00  0.12005409762E+04  0.12005409762E+04  0.50400000000E-02 0. -1.
         -1   -1    0    0    0  501 -0.00000000000E+00 -0.00000000000E+00 -0.77409370742E+03  0.77409370743E+03  0.50400000000E-02 0.  1.
    8880023    1    1    2    0    0  0.68809186954E+03 -0.33513615996E+03 -0.12717083906E+03  0.10177275152E+04  0.65864270000E+03 0.  1.
    8880022    1    1    2    0    0 -0.68809186954E+03  0.33513615996E+03  0.55361810783E+03  0.95690716842E+03  0.15294330000E+03 0.  0.
<mgrwt>
<rscale>  0 0.94679017E+03</rscale>
<asrwt>0</asrwt>
<pdfrwt beam="1">  1        1 0.18469861E+00 0.10097509E+04</pdfrwt>
<pdfrwt beam="2">  1       -1 0.11909134E+00 0.10097509E+04</pdfrwt>
<totfact> 0.67485496E+00</totfact>
</mgrwt>
</event>
<event>
 4    1  0.1521315E-007  0.6968129E+03  0.7818608E-02  0.1001069E+00
         -1   -1    0    0    0  501 -0.00000000000E+00  0.00000000000E+00  0.13804753504E+03  0.13804753513E+03  0.50400000000E-02 0.  1.
          1   -1    0    0  501    0  0.00000000000E+00 -0.00000000000E+00 -0.17254929495E+04  0.17254929495E+04  0.50400000000E-02 0. -1.
    8880023    1    1    2    0    0 -0.18400349473E+03  0.13371892086E+03 -0.10490097826E+04  0.12593529157E+04  0.65864270000E+03 0. -1.
    8880022    1    1    2    0    0  0.18400349473E+03 -0.13371892086E+03 -0.53843563181E+03  0.60418756896E+03  0.15294330000E+03 0.  1.
<mgrwt>
<rscale>  0 0.55184053E+03</rscale>
<asrwt>0</asrwt>
<pdfrwt beam="1">  1        1 0.26546044E+00 0.69681292E+03</pdfrwt>
<pdfrwt beam="2">  1       -1 0.21238084E-01 0.69681292E+03</pdfrwt>
<totfact> 0.87326349E+01</totfact>
</mgrwt>
</event>
<event>
 4    1  0.1521315E-007  0.7138617E+03  0.7818608E-02  0.9943931E-01
          1   -1    0    0  501    0  0.00000000000E+00  0.00000000000E+00  0.30417777995E+03  0.30417777999E+03  0.50400000000E-02 0. -1.
         -1   -1    0    0    0  501 -0.00000000000E+00 -0.00000000000E+00 -0.22047304886E+04  0.22047304886E+04  0.50400000000E-02 0.  1.
    8880023    1    1    2    0    0  0.90261813495E+02  0.26007913733E+03 -0.14897071018E+03  0.72923989976E+03  0.65864270000E+03 0.  0.
    8880022    1    1    2    0    0 -0.90261813495E+02 -0.26007913733E+03 -0.17515819984E+04  0.17796683688E+04  0.15294330000E+03 0.  0.
<mgrwt>
<rscale>  0 0.58178643E+03</rscale>
<asrwt>0</asrwt>
<pdfrwt beam="1">  1        1 0.46796583E-01 0.71386172E+03</pdfrwt>
<pdfrwt beam="2">  1       -1 0.33918930E+00 0.71386172E+03</pdfrwt>
<totfact> 0.16781476E+00</totfact>
</mgrwt>
</event>
<event>
 4    1  0.1521315E-007  0.1449780E+04  0.7818608E-02  0.8945937E-01
          1   -1    0    0  501    0  0.00000000000E+00  0.00000000000E+00  0.16435277911E+04  0.16435277911E+04  0.50400000000E-02 0. -1.
         -1   -1    0    0    0  501 -0.00000000000E+00 -0.00000000000E+00 -0.14992555538E+04  0.14992555538E+04  0.50400000000E-02 0.  1.
    8880023    1    1    2    0    0  0.28955984016E+03  0.12586530195E+04  0.83203796649E+03  0.16715710300E+04  0.65864270000E+03 0. -1.
    8880022    1    1    2    0    0 -0.28955984016E+03 -0.12586530195E+04 -0.68776572918E+03  0.14712123150E+04  0.15294330000E+03 0.  0.
<mgrwt>
<rscale>  0 0.14109409E+04</rscale>
<asrwt>0</asrwt>
<pdfrwt beam="1">  1        1 0.25285043E+00 0.14497802E+04</pdfrwt>
<pdfrwt beam="2">  1       -1 0.23065470E+00 0.14497802E+04</pdfrwt>
<totfact> 0.46278308E-01</totfact>
</mgrwt>
</event>
<event>
 4    1  0.1521315E-007  0.7006440E+03  0.7818608E-02  0.9994540E-01
          1   -1    0    0  501    0  0.00000000000E+00  0.00000000000E+00  0.63196446262E+03  0.63196446264E+03  0.50400000000E-02 0. -1.
         -1   -1    0    0    0  501 -0.00000000000E+00 -0.00000000000E+00 -0.56586698185E+03  0.56586698188E+03  0.50400000000E-02 0.  1.
    8880023    1    1    2    0    0 -0.90341545087E+02  0.22120184588E+03  0.36137878604E+03  0.78835061023E+03  0.65864270000E+03 0.  0.
    8880022    1    1    2    0    0  0.90341545087E+02 -0.22120184588E+03 -0.29528130527E+03  0.40948083429E+03  0.15294330000E+03 0.  0.
<mgrwt>
<rscale>  0 0.55890299E+03</rscale>
<asrwt>0</asrwt>
<pdfrwt beam="1">  1        1 0.97225302E-01 0.70064403E+03</pdfrwt>
<pdfrwt beam="2">  1       -1 0.87056459E-01 0.70064403E+03</pdfrwt>
<totfact> 0.42402476E+01</totfact>
</mgrwt>
</event>
<event>
 4    1  0.1521315E-007  0.7607843E+03  0.7818608E-02  0.9803081E-01
         -1   -1    0    0    0  501 -0.00000000000E+00  0.00000000000E+00  0.12350001457E+04  0.12350001457E+04  0.50400000000E-02 0.  1.
          1   -1    0    0  501    0  0.00000000000E+00 -0.00000000000E+00 -0.39703852815E+03  0.39703852819E+03  0.50400000000E-02 0. -1.
    8880023    1    1    2    0    0  0.37577461702E+03  0.61448557211E+02  0.73390790603E+02  0.76431597025E+03  0.65864270000E+03 0. -1.
    8880022    1    1    2    0    0 -0.37577461702E+03 -0.61448557211E+02  0.76457082690E+03  0.86772270360E+03  0.15294330000E+03 0.  1.
<mgrwt>
<rscale>  0 0.65197443E+03</rscale>
<asrwt>0</asrwt>
<pdfrwt beam="1">  1        1 0.61082850E-01 0.76078426E+03</pdfrwt>
<pdfrwt beam="2">  1       -1 0.19000002E+00 0.76078426E+03</pdfrwt>
<totfact> 0.11018009E+01</totfact>
</mgrwt>
</event>
<event>
 4    1  0.1521315E-007  0.8044944E+03  0.7818608E-02  0.9701161E-01
         -1   -1    0    0    0  501 -0.00000000000E+00  0.00000000000E+00  0.92678617265E+03  0.92678617266E+03  0.50400000000E-02 0.  1.
          1   -1    0    0  501    0  0.00000000000E+00 -0.00000000000E+00 -0.78543030511E+03  0.78543030512E+03  0.50400000000E-02 0. -1.
    8880023    1    1    2    0    0  0.10992970811E+03  0.44868303609E+03 -0.46931241485E+03  0.93137820277E+03  0.65864270000E+03 0. -1.
    8880022    1    1    2    0    0 -0.10992970811E+03 -0.44868303609E+03  0.61066828239E+03  0.78083827502E+03  0.15294330000E+03 0.  0.
<mgrwt>
<rscale>  0 0.70947695E+03</rscale>
<asrwt>0</asrwt>
<pdfrwt beam="1">  1        1 0.12083543E+00 0.80449438E+03</pdfrwt>
<pdfrwt beam="2">  1       -1 0.14258249E+00 0.80449438E+03</pdfrwt>
<totfact> 0.93170239E+00</totfact>
</mgrwt>
</event>
<event>
 4    1  0.1521315E-007  0.6774977E+03  0.7818608E-02  0.1010776E+00
          1   -1    0    0  501    0  0.00000000000E+00  0.00000000000E+00  0.10026156958E+04  0.10026156958E+04  0.50400000000E-02 0. -1.
         -1   -1    0    0    0  501 -0.00000000000E+00 -0.00000000000E+00 -0.72967720640E+03  0.72967720641E+03  0.50400000000E-02 0.  1.
    8880023    1    1    2    0    0 -0.88592079415E+02  0.13169801809E+03  0.86603959782E+03  0.10995579638E+04  0.65864270000E+03 0. -1.
    8880022    1    1    2    0    0  0.88592079415E+02 -0.13169801809E+03 -0.59310110841E+03  0.63273493843E+03  0.15294330000E+03 0.  0.
<mgrwt>
<rscale>  0 0.51167379E+03</rscale>
<asrwt>0</asrwt>
<pdfrwt beam="1">  1        1 0.15424857E+00 0.67749770E+03</pdfrwt>
<pdfrwt beam="2">  1       -1 0.11225803E+00 0.67749770E+03</pdfrwt>
<totfact> 0.11419636E+01</totfact>
</mgrwt>
</event>
<event>
 4    1  0.1521315E-007  0.6947272E+03  0.7818608E-02  0.1001982E+00
         -1   -1    0    0    0  501 -0.00000000000E+00  0.00000000000E+00  0.12314027996E+04  0.12314027996E+04  0.50400000000E-02 0.  1.
          1   -1    0    0  501    0  0.00000000000E+00 -0.00000000000E+00 -0.56261380350E+03  0.56261380352E+03  0.50400000000E-02 0. -1.
    8880023    1    1    2    0    0 -0.19766841987E+03 -0.98807223345E+02 -0.32322861002E+03  0.76623926563E+03  0.65864270000E+03 0. -1.
    8880022    1    1    2    0    0  0.19766841987E+03  0.98807223345E+02  0.99201760616E+03  0.10277773375E+04  0.15294330000E+03 0.  0.
<mgrwt>
<rscale>  0 0.54789636E+03</rscale>
<asrwt>0</asrwt>
<pdfrwt beam="1">  1        1 0.86555970E-01 0.69472720E+03</pdfrwt>
<pdfrwt beam="2">  1       -1 0.18944658E+00 0.69472720E+03</pdfrwt>
<totfact> 0.69758235E+00</totfact>
</mgrwt>
</event>
<event>
 4    1  0.1521315E-007  0.9406594E+03  0.7818608E-02  0.9463682E-01
          1   -1    0    0  501    0  0.00000000000E+00  0.00000000000E+00  0.13937318622E+04  0.13937318622E+04  0.50400000000E-02 0. -1.
         -1   -1    0    0    0  501 -0.00000000000E+00 -0.00000000000E+00 -0.53234749304E+03  0.53234749306E+03  0.50400000000E-02 0.  1.
    8880023    1    1    2    0    0 -0.64407910025E+03  0.19024201787E+03  0.18100221958E+03  0.95791540467E+03  0.65864270000E+03 0.  0.
    8880022    1    1    2    0    0  0.64407910025E+03 -0.19024201787E+03  0.68038214955E+03  0.96816395057E+03  0.15294330000E+03 0.  0.
<mgrwt>
<rscale>  0 0.87015146E+03</rscale>
<asrwt>0</asrwt>
<pdfrwt beam="1">  1        1 0.21442028E+00 0.94065941E+03</pdfrwt>
<pdfrwt beam="2">  1       -1 0.81899616E-01 0.94065941E+03</pdfrwt>
<totfact> 0.11645891E+01</totfact>
</mgrwt>
</event>
<event>
 4    1  0.1521315E-007  0.7096301E+03  0.7818608E-02  0.9959377E-01
          1   -1    0    0  501    0  0.00000000000E+00  0.00000000000E+00  0.10430606730E+04  0.10430606730E+04  0.50400000000E-02 0. -1.
         -1   -1    0    0    0  501 -0.00000000000E+00 -0.00000000000E+00 -0.36387335195E+03  0.36387335198E+03  0.50400000000E-02 0.  1.
    8880023    1    1    2    0    0  0.32831653639E+02 -0.26208154658E+03  0.80823818840E+03  0.10755574508E+04  0.65864270000E+03 0.  0.
    8880022    1    1    2    0    0 -0.32831653639E+02  0.26208154658E+03 -0.12905086735E+03  0.33137657419E+03  0.15294330000E+03 0.  1.
<mgrwt>
<rscale>  0 0.57467929E+03</rscale>
<asrwt>0</asrwt>
<pdfrwt beam="1">  1        1 0.16047087E+00 0.70963009E+03</pdfrwt>
<pdfrwt beam="2">  1       -1 0.55980517E-01 0.70963009E+03</pdfrwt>
<totfact> 0.46544533E+01</totfact>
</mgrwt>
</event>
<event>
 4    1  0.1521315E-007  0.7072407E+03  0.7818608E-02  0.9968394E-01
          1   -1    0    0  501    0  0.00000000000E+00  0.00000000000E+00  0.10946291099E+04  0.10946291100E+04  0.50400000000E-02 0. -1.
         -1   -1    0    0    0  501 -0.00000000000E+00 -0.00000000000E+00 -0.29864244120E+03  0.29864244124E+03  0.50400000000E-02 0.  1.
    8880023    1    1    2    0    0 -0.15273643609E+03 -0.20748672520E+03  0.83145511948E+03  0.10915617170E+04  0.65864270000E+03 0.  0.
    8880022    1    1    2    0    0  0.15273643609E+03  0.20748672520E+03 -0.35468450738E+02  0.30170983420E+03  0.15294330000E+03 0.  0.
<mgrwt>
<rscale>  0 0.57058101E+03</rscale>
<asrwt>0</asrwt>
<pdfrwt beam="1">  1        1 0.16840448E+00 0.70724067E+03</pdfrwt>
<pdfrwt beam="2">  1       -1 0.45944991E-01 0.70724067E+03</pdfrwt>
<totfact> 0.61942884E+01</totfact>
</mgrwt>
</event>
<event>
 4    1  0.1521315E-007  0.7295175E+03  0.7818608E-02  0.9891606E-01
          1   -1    0    0  501    0  0.00000000000E+00  0.00000000000E+00  0.98279047677E+03  0.98279047678E+03  0.50400000000E-02 0. -1.
         -1   -1    0    0    0  501 -0.00000000000E+00 -0.00000000000E+00 -0.47074067313E+03  0.47074067316E+03  0.50400000000E-02 0.  1.
    8880023    1    1    2    0    0  0.15700450576E+03 -0.27154224128E+03  0.73807415752E+03  0.10377616643E+04  0.65864270000E+03 0.  0.
    8880022    1    1    2    0    0 -0.15700450576E+03  0.27154224128E+03 -0.22602435388E+03  0.41576948564E+03  0.15294330000E+03 0.  0.
<mgrwt>
<rscale>  0 0.60669801E+03</rscale>
<asrwt>0</asrwt>
<pdfrwt beam="1">  1        1 0.15119853E+00 0.72951752E+03</pdfrwt>
<pdfrwt beam="2">  1       -1 0.72421642E-01 0.72951752E+03</pdfrwt>
<totfact> 0.30893646E+01</totfact>
</mgrwt>
</event>
<event>
 4    1  0.1521315E-007  0.6620370E+03  0.7818608E-02  0.1022160E+00
          1   -1    0    0  501    0  0.00000000000E+00  0.00000000000E+00  0.51958585812E+03  0.51958585815E+03  0.50400000000E-02 0. -1.
         -1   -1    0    0    0  501 -0.00000000000E+00 -0.00000000000E+00 -0.41847253136E+03  0.41847253139E+03  0.50400000000E-02 0.  1.
    8880023    1    1    2    0    0  0.65558058483E+02  0.13599793599E+02  0.25649132808E+03  0.70998649358E+03  0.65864270000E+03 0. -1.
    8880022    1    1    2    0    0 -0.65558058483E+02 -0.13599793599E+02 -0.15537800131E+03  0.22807189596E+03  0.15294330000E+03 0.  0.
<mgrwt>
<rscale>  0 0.46915087E+03</rscale>
<asrwt>0</asrwt>
<pdfrwt beam="1">  1        1 0.79936286E-01 0.66203702E+03</pdfrwt>
<pdfrwt beam="2">  1       -1 0.64380390E-01 0.66203702E+03</pdfrwt>
<totfact> 0.10525344E+02</totfact>
</mgrwt>
</event>
<event>
 4    1  0.1521315E-007  0.7194376E+03  0.7818608E-02  0.9924494E-01
         -1   -1    0    0    0  501 -0.00000000000E+00  0.00000000000E+00  0.49822716310E+03  0.49822716313E+03  0.50400000000E-02 0.  1.
          1   -1    0    0  501    0  0.00000000000E+00 -0.00000000000E+00 -0.11602825264E+04  0.11602825264E+04  0.50400000000E-02 0. -1.
    8880023    1    1    2    0    0 -0.17493856391E+02  0.28891899367E+03 -0.97092935393E+03  0.12084263472E+04  0.65864270000E+03 0. -1.
    8880022    1    1    2    0    0  0.17493856391E+02 -0.28891899367E+03  0.30887399068E+03  0.45008334234E+03  0.15294330000E+03 0.  0.
<mgrwt>
<rscale>  0 0.59088769E+03</rscale>
<asrwt>0</asrwt>
<pdfrwt beam="1">  1        1 0.17850500E+00 0.71943758E+03</pdfrwt>
<pdfrwt beam="2">  1       -1 0.76650333E-01 0.71943758E+03</pdfrwt>
<totfact> 0.20198773E+01</totfact>
</mgrwt>
</event>
<event>
 4    1  0.1521315E-007  0.6620979E+03  0.7818608E-02  0.1022103E+00
         -1   -1    0    0    0  501 -0.00000000000E+00  0.00000000000E+00  0.57455161534E+03  0.57455161536E+03  0.50400000000E-02 0.  1.
          1   -1    0    0  501    0  0.00000000000E+00 -0.00000000000E+00 -0.55369059540E+03  0.55369059543E+03  0.50400000000E-02 0. -1.
    8880023    1    1    2    0    0  0.26860721690E+02  0.61983023088E+02 -0.32985195558E+03  0.73971339881E+03  0.65864270000E+03 0. -1.
    8880022    1    1    2    0    0 -0.26860721690E+02 -0.61983023088E+02  0.35071297552E+03  0.38852881198E+03  0.15294330000E+03 0.  0.
<mgrwt>
<rscale>  0 0.46935254E+03</rscale>
<asrwt>0</asrwt>
<pdfrwt beam="1">  1        1 0.85183169E-01 0.66209788E+03</pdfrwt>
<pdfrwt beam="2">  1       -1 0.88392556E-01 0.66209788E+03</pdfrwt>
<totfact> 0.49740613E+01</totfact>
</mgrwt>
</event>
<event>
 4    1  0.1521315E-007  0.6787124E+03  0.7818608E-02  0.1010062E+00
          1   -1    0    0  501    0  0.00000000000E+00  0.00000000000E+00  0.49862855850E+03  0.49862855853E+03  0.50400000000E-02 0. -1.
         -1   -1    0    0    0  501 -0.00000000000E+00 -0.00000000000E+00 -0.56577902454E+03  0.56577902456E+03  0.50400000000E-02 0.  1.
    8880023    1    1    2    0    0 -0.66348338454E+02  0.14979412024E+03  0.20767992280E+03  0.70977569490E+03  0.65864270000E+03 0. -1.
    8880022    1    1    2    0    0  0.66348338454E+02 -0.14979412024E+03 -0.27483038884E+03  0.35463188819E+03  0.15294330000E+03 0.  0.
<mgrwt>
<rscale>  0 0.51450187E+03</rscale>
<asrwt>0</asrwt>
<pdfrwt beam="1">  1        1 0.76712086E-01 0.67871245E+03</pdfrwt>
<pdfrwt beam="2">  1       -1 0.87042927E-01 0.67871245E+03</pdfrwt>
<totfact> 0.59379695E+01</totfact>
</mgrwt>
</event>
<event>
 4    1  0.1521315E-007  0.9210321E+03  0.7818608E-02  0.9493078E-01
          1   -1    0    0  501    0  0.00000000000E+00  0.00000000000E+00  0.19227087020E+04  0.19227087020E+04  0.50400000000E-02 0. -1.
         -1   -1    0    0    0  501 -0.00000000000E+00 -0.00000000000E+00 -0.62149097465E+03  0.62149097467E+03  0.50400000000E-02 0.  1.
    8880023    1    1    2    0    0 -0.47460298833E+03  0.43501938939E+03  0.15778364007E+04  0.18269832455E+04  0.65864270000E+03 0.  0.
    8880022    1    1    2    0    0  0.47460298833E+03 -0.43501938939E+03 -0.27661867337E+03  0.71721643117E+03  0.15294330000E+03 0.  0.
<mgrwt>
<rscale>  0 0.84796054E+03</rscale>
<asrwt>0</asrwt>
<pdfrwt beam="1">  1        1 0.29580134E+00 0.92103207E+03</pdfrwt>
<pdfrwt beam="2">  1       -1 0.95613996E-01 0.92103207E+03</pdfrwt>
<totfact> 0.36245505E+00</totfact>
</mgrwt>
</event>
<event>
 4    1  0.1521315E-007  0.6751647E+03  0.7818608E-02  0.1012203E+00
         -1   -1    0    0    0  501 -0.00000000000E+00  0.00000000000E+00  0.15438520751E+04  0.15438520751E+04  0.50400000000E-02 0.  1.
          1   -1    0    0  501    0  0.00000000000E+00 -0.00000000000E+00 -0.52553551530E+03  0.52553551532E+03  0.50400000000E-02 0. -1.
    8880023    1    1    2    0    0  0.11380044496E+03  0.95323960659E+02 -0.29650483319E+03  0.73740255025E+03  0.65864270000E+03 0.  0.
    8880022    1    1    2    0    0 -0.11380044496E+03 -0.95323960659E+02  0.13148213930E+04  0.13319850402E+04  0.15294330000E+03 0.  1.
<mgrwt>
<rscale>  0 0.50608536E+03</rscale>
<asrwt>0</asrwt>
<pdfrwt beam="1">  1        1 0.80851619E-01 0.67516472E+03</pdfrwt>
<pdfrwt beam="2">  1       -1 0.23751570E+00 0.67516472E+03</pdfrwt>
<totfact> 0.36674345E+00</totfact>
</mgrwt>
</event>
<event>
 4    1  0.1521315E-007  0.9424739E+03  0.7818608E-02  0.9461026E-01
          1   -1    0    0  501    0  0.00000000000E+00  0.00000000000E+00  0.10051981002E+04  0.10051981003E+04  0.50400000000E-02 0. -1.
         -1   -1    0    0    0  501 -0.00000000000E+00 -0.00000000000E+00 -0.10047357619E+04  0.10047357619E+04  0.50400000000E-02 0.  1.
    8880023    1    1    2    0    0 -0.27992313176E+03  0.61326160244E+03  0.58105988861E+03  0.11071980641E+04  0.65864270000E+03 0.  0.
    8880022    1    1    2    0    0  0.27992313176E+03 -0.61326160244E+03 -0.58059755026E+03  0.90273579807E+03  0.15294330000E+03 0.  0.
<mgrwt>
<rscale>  0 0.87219203E+03</rscale>
<asrwt>0</asrwt>
<pdfrwt beam="1">  1        1 0.15464586E+00 0.94247385E+03</pdfrwt>
<pdfrwt beam="2">  1       -1 0.15457473E+00 0.94247385E+03</pdfrwt>
<totfact> 0.48659077E+00</totfact>
</mgrwt>
</event>
<event>
 4    1  0.1521315E-007  0.6595903E+03  0.7818608E-02  0.1024580E+00
          1   -1    0    0  501    0  0.00000000000E+00  0.00000000000E+00  0.45307660569E+04  0.45307660569E+04  0.50400000000E-02 0. -1.
         -1   -1    0    0    0  501 -0.00000000000E+00 -0.00000000000E+00 -0.10575656309E+03  0.10575656321E+03  0.50400000000E-02 0.  1.
    8880023    1    1    2    0    0 -0.73541296007E+01  0.34570544977E+02  0.44306204609E+04  0.44794483009E+04  0.65864270000E+03 0. -1.
    8880022    1    1    2    0    0  0.73541296007E+01 -0.34570544977E+02 -0.56109670358E+01  0.15707431925E+03  0.15294330000E+03 0.  0.
<mgrwt>
<rscale>  0 0.46069415E+03</rscale>
<asrwt>0</asrwt>
<pdfrwt beam="1">  1        1 0.69704112E+00 0.65959034E+03</pdfrwt>
<pdfrwt beam="2">  1       -1 0.16270236E-01 0.65959034E+03</pdfrwt>
<totfact> 0.99330248E-01</totfact>
</mgrwt>
</event>
<event>
 4    1  0.1521315E-007  0.6986337E+03  0.7818608E-02  0.1000292E+00
          1   -1    0    0  501    0  0.00000000000E+00  0.00000000000E+00  0.22223961743E+04  0.22223961743E+04  0.50400000000E-02 0. -1.
         -1   -1    0    0    0  501 -0.00000000000E+00 -0.00000000000E+00 -0.23707169501E+03  0.23707169507E+03  0.50400000000E-02 0.  1.
    8880023    1    1    2    0    0 -0.12416429455E+03 -0.19713457394E+03  0.20564147247E+04  0.21718495663E+04  0.65864270000E+03 0.  0.
    8880022    1    1    2    0    0  0.12416429455E+03  0.19713457394E+03 -0.71090245397E+02  0.28761830312E+03  0.15294330000E+03 0.  1.
<mgrwt>
<rscale>  0 0.55522515E+03</rscale>
<asrwt>0</asrwt>
<pdfrwt beam="1">  1        1 0.34190711E+00 0.69863368E+03</pdfrwt>
<pdfrwt beam="2">  1       -1 0.36472568E-01 0.69863368E+03</pdfrwt>
<totfact> 0.15971179E+01</totfact>
</mgrwt>
</event>
<event>
 4    1  0.1521315E-007  0.8338465E+03  0.7818608E-02  0.9641894E-01
         -1   -1    0    0    0  501 -0.00000000000E+00  0.00000000000E+00  0.48936389367E+03  0.48936389370E+03  0.50400000000E-02 0.  1.
          1   -1    0    0  501    0  0.00000000000E+00 -0.00000000000E+00 -0.16465120070E+04  0.16465120070E+04  0.50400000000E-02 0. -1.
    8880023    1    1    2    0    0 -0.63890746286E+02 -0.50735372412E+03 -0.13343689550E+04  0.15734803917E+04  0.65864270000E+03 0. -1.
    8880022    1    1    2    0    0  0.63890746286E+02  0.50735372412E+03  0.17722084162E+03  0.56239550902E+03  0.15294330000E+03 0.  0.
<mgrwt>
<rscale>  0 0.74584335E+03</rscale>
<asrwt>0</asrwt>
<pdfrwt beam="1">  1        1 0.25330954E+00 0.83384653E+03</pdfrwt>
<pdfrwt beam="2">  1       -1 0.75286754E-01 0.83384653E+03</pdfrwt>
<totfact> 0.94556873E+00</totfact>
</mgrwt>
</event>
<event>
 4    1  0.1521315E-007  0.6889548E+03  0.7818608E-02  0.1004653E+00
         -1   -1    0    0    0  501 -0.00000000000E+00  0.00000000000E+00  0.16844911286E+03  0.16844911293E+03  0.50400000000E-02 0.  1.
          1   -1    0    0  501    0  0.00000000000E+00 -0.00000000000E+00 -0.13433420007E+04  0.13433420007E+04  0.50400000000E-02 0. -1.
    8880023    1    1    2    0    0  0.15183834978E+03 -0.13339281339E+03 -0.94591545858E+03  0.11702199743E+04  0.65864270000E+03 0.  0.
    8880022    1    1    2    0    0 -0.15183834978E+03  0.13339281339E+03 -0.22897742924E+03  0.34157113935E+03  0.15294330000E+03 0. -1.
<mgrwt>
<rscale>  0 0.53656075E+03</rscale>
<asrwt>0</asrwt>
<pdfrwt beam="1">  1        1 0.20666799E+00 0.68895481E+03</pdfrwt>
<pdfrwt beam="2">  1       -1 0.25915249E-01 0.68895481E+03</pdfrwt>
<totfact> 0.11375526E+02</totfact>
</mgrwt>
</event>
<event>
 4    1  0.1521315E-007  0.1008141E+04  0.7818608E-02  0.9370983E-01
         -1   -1    0    0    0  501 -0.00000000000E+00  0.00000000000E+00  0.69716671498E+03  0.69716671500E+03  0.50400000000E-02 0.  1.
          1   -1    0    0  501    0  0.00000000000E+00 -0.00000000000E+00 -0.21889975132E+04  0.21889975132E+04  0.50400000000E-02 0. -1.
    8880023    1    1    2    0    0  0.66507661684E+03  0.37444777606E+03 -0.17885538643E+04  0.20531130448E+04  0.65864270000E+03 0.  0.
    8880022    1    1    2    0    0 -0.66507661684E+03 -0.37444777606E+03  0.29672306600E+03  0.83305118340E+03  0.15294330000E+03 0.  0.
<mgrwt>
<rscale>  0 0.94502595E+03</rscale>
<asrwt>0</asrwt>
<pdfrwt beam="1">  1        1 0.33676884E+00 0.10081410E+04</pdfrwt>
<pdfrwt beam="2">  1       -1 0.10725642E+00 0.10081410E+04</pdfrwt>
<totfact> 0.18178231E+00</totfact>
</mgrwt>
</event>
<event>
 4    1  0.1521315E-007  0.7014458E+03  0.7818608E-02  0.9991256E-01
         -1   -1    0    0    0  501 -0.00000000000E+00  0.00000000000E+00  0.25164035794E+03  0.25164035799E+03  0.50400000000E-02 0.  1.
          1   -1    0    0  501    0  0.00000000000E+00 -0.00000000000E+00 -0.10543884565E+04  0.10543884565E+04  0.50400000000E-02 0. -1.
    8880023    1    1    2    0    0  0.23376603008E+03  0.59744466508E+02 -0.72756202491E+03  0.10106298355E+04  0.65864270000E+03 0.  0.
    8880022    1    1    2    0    0 -0.23376603008E+03 -0.59744466508E+02 -0.75186073659E+02  0.29539897898E+03  0.15294330000E+03 0.  0.
<mgrwt>
<rscale>  0 0.56035327E+03</rscale>
<asrwt>0</asrwt>
<pdfrwt beam="1">  1        1 0.16221361E+00 0.70144577E+03</pdfrwt>
<pdfrwt beam="2">  1       -1 0.38713902E-01 0.70144577E+03</pdfrwt>
<totfact> 0.90965683E+01</totfact>
</mgrwt>
</event>
<event>
 4    1  0.1521315E-007  0.1086745E+04  0.7818608E-02  0.9275960E-01
         -1   -1    0    0    0  501 -0.00000000000E+00  0.00000000000E+00  0.15326776165E+04  0.15326776165E+04  0.50400000000E-02 0.  1.
          1   -1    0    0  501    0  0.00000000000E+00 -0.00000000000E+00 -0.10713263114E+04  0.10713263114E+04  0.50400000000E-02 0. -1.
    8880023    1    1    2    0    0 -0.85978384155E+03  0.89304248162E+02 -0.58821762494E+03  0.12357239512E+04  0.65864270000E+03 0.  0.
    8880022    1    1    2    0    0  0.85978384155E+03 -0.89304248162E+02  0.10495689300E+04  0.13682799768E+04  0.15294330000E+03 0.  0.
<mgrwt>
<rscale>  0 0.10302649E+04</rscale>
<asrwt>0</asrwt>
<pdfrwt beam="1">  1        1 0.16481943E+00 0.10867445E+04</pdfrwt>
<pdfrwt beam="2">  1       -1 0.23579656E+00 0.10867445E+04</pdfrwt>
<totfact> 0.11462786E+00</totfact>
</mgrwt>
</event>
<event>
 4    1  0.1521315E-007  0.7837854E+03  0.7818608E-02  0.9747019E-01
         -1   -1    0    0    0  501 -0.00000000000E+00  0.00000000000E+00  0.33876783479E+03  0.33876783483E+03  0.50400000000E-02 0.  1.
          1   -1    0    0  501    0  0.00000000000E+00 -0.00000000000E+00 -0.14365356546E+04  0.14365356546E+04  0.50400000000E-02 0. -1.
    8880023    1    1    2    0    0  0.21333719299E+03 -0.36741871777E+03 -0.10653228932E+04  0.13225854774E+04  0.65864270000E+03 0. -1.
    8880022    1    1    2    0    0 -0.21333719299E+03  0.36741871777E+03 -0.32444926579E+02  0.45271801196E+03  0.15294330000E+03 0.  0.
<mgrwt>
<rscale>  0 0.68284991E+03</rscale>
<asrwt>0</asrwt>
<pdfrwt beam="1">  1        1 0.22100548E+00 0.78378535E+03</pdfrwt>
<pdfrwt beam="2">  1       -1 0.52118129E-01 0.78378535E+03</pdfrwt>
<totfact> 0.27592816E+01</totfact>
</mgrwt>
</event>
<event>
 4    1  0.1521315E-007  0.7350869E+03  0.7818608E-02  0.9874497E-01
         -1   -1    0    0    0  501 -0.00000000000E+00  0.00000000000E+00  0.39671417345E+03  0.39671417349E+03  0.50400000000E-02 0.  1.
          1   -1    0    0  501    0  0.00000000000E+00 -0.00000000000E+00 -0.21004505875E+04  0.21004505875E+04  0.50400000000E-02 0. -1.
    8880023    1    1    2    0    0 -0.26613606791E+03 -0.18898191340E+03 -0.19343015946E+04  0.20692692998E+04  0.65864270000E+03 0. -1.
    8880022    1    1    2    0    0  0.26613606791E+03  0.18898191340E+03  0.23056518049E+03  0.42789546119E+03  0.15294330000E+03 0.  0.
<mgrwt>
<rscale>  0 0.61513362E+03</rscale>
<asrwt>0</asrwt>
<pdfrwt beam="1">  1        1 0.32314624E+00 0.73508692E+03</pdfrwt>
<pdfrwt beam="2">  1       -1 0.61032951E-01 0.73508692E+03</pdfrwt>
<totfact> 0.72946590E+00</totfact>
</mgrwt>
</event>
<event>
 4    1  0.1521315E-007  0.6918364E+03  0.7818608E-02  0.1003292E+00
         -1   -1    0    0    0  501 -0.00000000000E+00  0.00000000000E+00  0.22657008043E+03  0.22657008049E+03  0.50400000000E-02 0.  1.
          1   -1    0    0  501    0  0.00000000000E+00 -0.00000000000E+00 -0.13648015270E+04  0.13648015271E+04  0.50400000000E-02 0. -1.
    8880023    1    1    2    0    0  0.12466869794E+03  0.17112876442E+03 -0.11361024242E+04  0.13301752752E+04  0.65864270000E+03 0.  0.
    8880022    1    1    2    0    0 -0.12466869794E+03 -0.17112876442E+03 -0.21290223835E+01  0.26119633230E+03  0.15294330000E+03 0.  0.
<mgrwt>
<rscale>  0 0.54230136E+03</rscale>
<asrwt>0</asrwt>
<pdfrwt beam="1">  1        1 0.20996946E+00 0.69183636E+03</pdfrwt>
<pdfrwt beam="2">  1       -1 0.34856936E-01 0.69183636E+03</pdfrwt>
<totfact> 0.65554008E+01</totfact>
</mgrwt>
</event>
<event>
 4    1  0.1521315E-007  0.7371452E+03  0.7818608E-02  0.9868342E-01
          1   -1    0    0  501    0  0.00000000000E+00  0.00000000000E+00  0.15366976676E+04  0.15366976676E+04  0.50400000000E-02 0. -1.
         -1   -1    0    0    0  501 -0.00000000000E+00 -0.00000000000E+00 -0.10256560998E+04  0.10256560998E+04  0.50400000000E-02 0.  1.
    8880023    1    1    2    0    0 -0.18288903922E+03 -0.27590663970E+03  0.14106574449E+04  0.15916461628E+04  0.65864270000E+03 0. -1.
    8880022    1    1    2    0    0  0.18288903922E+03  0.27590663970E+03 -0.89961587706E+03  0.97070760468E+03  0.15294330000E+03 0.  0.
<mgrwt>
<rscale>  0 0.61820394E+03</rscale>
<asrwt>0</asrwt>
<pdfrwt beam="1">  1        1 0.23641503E+00 0.73714522E+03</pdfrwt>
<pdfrwt beam="2">  1       -1 0.15779325E+00 0.73714522E+03</pdfrwt>
<totfact> 0.19686115E+00</totfact>
</mgrwt>
</event>
<event>
 4    1  0.1521315E-007  0.7012841E+03  0.7818608E-02  0.9991915E-01
          1   -1    0    0  501    0  0.00000000000E+00  0.00000000000E+00  0.28946321426E+04  0.28946321426E+04  0.50400000000E-02 0. -1.
         -1   -1    0    0    0  501 -0.00000000000E+00 -0.00000000000E+00 -0.16690067683E+03  0.16690067691E+03  0.50400000000E-02 0.  1.
    8880023    1    1    2    0    0  0.70017814409E+02  0.23040553438E+03  0.26825527253E+04  0.27727041918E+04  0.65864270000E+03 0. -1.
    8880022    1    1    2    0    0 -0.70017814409E+02 -0.23040553438E+03  0.45178740448E+02  0.28882862776E+03  0.15294330000E+03 0.  0.
<mgrwt>
<rscale>  0 0.56006158E+03</rscale>
<asrwt>0</asrwt>
<pdfrwt beam="1">  1        1 0.44532801E+00 0.70128412E+03</pdfrwt>
<pdfrwt beam="2">  1       -1 0.25677028E-01 0.70128412E+03</pdfrwt>
<totfact> 0.10191042E+01</totfact>
</mgrwt>
</event>
<event>
 4    1  0.1521315E-007  0.1133259E+04  0.7818608E-02  0.9224900E-01
         -1   -1    0    0    0  501 -0.00000000000E+00  0.00000000000E+00  0.65194378157E+03  0.65194378159E+03  0.50400000000E-02 0.  1.
          1   -1    0    0  501    0  0.00000000000E+00 -0.00000000000E+00 -0.27128197442E+04  0.27128197442E+04  0.50400000000E-02 0. -1.
    8880023    1    1    2    0    0 -0.91789828164E+03  0.89039343023E+02 -0.21452248432E+04  0.24261626273E+04  0.65864270000E+03 0. -1.
    8880022    1    1    2    0    0  0.91789828164E+03 -0.89039343023E+02  0.84348880515E+02  0.93860089852E+03  0.15294330000E+03 0.  0.
<mgrwt>
<rscale>  0 0.10800077E+04</rscale>
<asrwt>0</asrwt>
<pdfrwt beam="1">  1        1 0.41735688E+00 0.11332588E+04</pdfrwt>
<pdfrwt beam="2">  1       -1 0.10029904E+00 0.11332588E+04</pdfrwt>
<totfact> 0.91138287E-01</totfact>
</mgrwt>
</event>
<event>
 4    1  0.1521315E-007  0.8441963E+03  0.7818608E-02  0.9622318E-01
         -1   -1    0    0    0  501 -0.00000000000E+00  0.00000000000E+00  0.72383785432E+03  0.72383785434E+03  0.50400000000E-02 0.  1.
          1   -1    0    0  501    0  0.00000000000E+00 -0.00000000000E+00 -0.18286227054E+04  0.18286227054E+04  0.50400000000E-02 0. -1.
    8880023    1    1    2    0    0  0.39782748800E+03  0.34726149330E+03 -0.16022418697E+04  0.18110346408E+04  0.65864270000E+03 0. -1.
    8880022    1    1    2    0    0 -0.39782748800E+03 -0.34726149330E+03  0.49745701860E+03  0.74142591896E+03  0.15294330000E+03 0.  0.
<mgrwt>
<rscale>  0 0.75836484E+03</rscale>
<asrwt>0</asrwt>
<pdfrwt beam="1">  1        1 0.28132657E+00 0.84419634E+03</pdfrwt>
<pdfrwt beam="2">  1       -1 0.11135967E+00 0.84419634E+03</pdfrwt>
<totfact> 0.29814526E+00</totfact>
</mgrwt>
</event>
<event>
 4    1  0.1521315E-007  0.1003345E+04  0.7818608E-02  0.9377194E-01
          1   -1    0    0  501    0  0.00000000000E+00  0.00000000000E+00  0.35173838495E+04  0.35173838495E+04  0.50400000000E-02 0. -1.
         -1   -1    0    0    0  501 -0.00000000000E+00 -0.00000000000E+00 -0.58931251251E+03  0.58931251253E+03  0.50400000000E-02 0.  1.
    8880023    1    1    2    0    0  0.69393125533E+03  0.30224268764E+03  0.31478090389E+04  0.33038467248E+04  0.65864270000E+03 0. -1.
    8880022    1    1    2    0    0 -0.69393125533E+03 -0.30224268764E+03 -0.21973770190E+03  0.80284963724E+03  0.15294330000E+03 0.  0.
<mgrwt>
<rscale>  0 0.93976507E+03</rscale>
<asrwt>0</asrwt>
<pdfrwt beam="1">  1        1 0.54113597E+00 0.10033451E+04</pdfrwt>
<pdfrwt beam="2">  1       -1 0.90663465E-01 0.10033451E+04</pdfrwt>
<totfact> 0.29913308E-01</totfact>
</mgrwt>
</event>
<event>
 4    1  0.1521315E-007  0.9584303E+03  0.7818608E-02  0.9438087E-01
          1   -1    0    0  501    0  0.00000000000E+00  0.00000000000E+00  0.12362520024E+04  0.12362520024E+04  0.50400000000E-02 0. -1.
         -1   -1    0    0    0  501 -0.00000000000E+00 -0.00000000000E+00 -0.74886202904E+03  0.74886202906E+03  0.50400000000E-02 0.  1.
    8880023    1    1    2    0    0  0.28786735557E+03 -0.63396430520E+03  0.75868872011E+03  0.12223735660E+04  0.65864270000E+03 0.  0.
    8880022    1    1    2    0    0 -0.28786735557E+03  0.63396430520E+03 -0.27129874672E+03  0.76274046546E+03  0.15294330000E+03 0.  0.
<mgrwt>
<rscale>  0 0.89006457E+03</rscale>
<asrwt>0</asrwt>
<pdfrwt beam="1">  1        1 0.19019261E+00 0.95843026E+03</pdfrwt>
<pdfrwt beam="2">  1       -1 0.11520954E+00 0.95843026E+03</pdfrwt>
<totfact> 0.69290653E+00</totfact>
</mgrwt>
</event>
<event>
 4    1  0.1521315E-007  0.7131282E+03  0.7818608E-02  0.9946563E-01
          1   -1    0    0  501    0  0.00000000000E+00  0.00000000000E+00  0.12853569498E+04  0.12853569499E+04  0.50400000000E-02 0. -1.
         -1   -1    0    0    0  501 -0.00000000000E+00 -0.00000000000E+00 -0.30573692717E+03  0.30573692721E+03  0.50400000000E-02 0.  1.
    8880023    1    1    2    0    0 -0.21377499107E+03  0.17041676857E+03  0.10507165588E+04  0.12698649987E+04  0.65864270000E+03 0. -1.
    8880022    1    1    2    0    0  0.21377499107E+03 -0.17041676857E+03 -0.71096536109E+02  0.32122887834E+03  0.15294330000E+03 0.  0.
<mgrwt>
<rscale>  0 0.58056753E+03</rscale>
<asrwt>0</asrwt>
<pdfrwt beam="1">  1        1 0.19774722E+00 0.71312820E+03</pdfrwt>
<pdfrwt beam="2">  1       -1 0.47036451E-01 0.71312820E+03</pdfrwt>
<totfact> 0.43079915E+01</totfact>
</mgrwt>
</event>
<event>
 4    1  0.1521315E-007  0.7413600E+03  0.7818608E-02  0.9856003E-01
         -1   -1    0    0    0  501 -0.00000000000E+00  0.00000000000E+00  0.10632906068E+04  0.10632906068E+04  0.50400000000E-02 0.  1.
          1   -1    0    0  501    0  0.00000000000E+00 -0.00000000000E+00 -0.46118418143E+03  0.46118418146E+03  0.50400000000E-02 0. -1.
    8880023    1    1    2    0    0  0.11545547655E+03 -0.32011625615E+03 -0.81356688388E+02  0.74581063383E+03  0.65864270000E+03 0. -1.
    8880022    1    1    2    0    0 -0.11545547655E+03  0.32011625615E+03  0.68346311372E+03  0.77866415440E+03  0.15294330000E+03 0.  0.
<mgrwt>
<rscale>  0 0.62441770E+03</rscale>
<asrwt>0</asrwt>
<pdfrwt beam="1">  1        1 0.70951414E-01 0.74135996E+03</pdfrwt>
<pdfrwt beam="2">  1       -1 0.16358317E+00 0.74135996E+03</pdfrwt>
<totfact> 0.13997973E+01</totfact>
</mgrwt>
</event>
<event>
 4    1  0.1521315E-007  0.6949535E+03  0.7818608E-02  0.1001882E+00
         -1   -1    0    0    0  501 -0.00000000000E+00  0.00000000000E+00  0.23721806706E+04  0.23721806706E+04  0.50400000000E-02 0.  1.
          1   -1    0    0  501    0  0.00000000000E+00 -0.00000000000E+00 -0.20641427110E+03  0.20641427117E+03  0.50400000000E-02 0. -1.
    8880023    1    1    2    0    0 -0.15088631629E+03 -0.16242990376E+03  0.41965164357E+03  0.81182994666E+03  0.65864270000E+03 0. -1.
    8880022    1    1    2    0    0  0.15088631629E+03  0.16242990376E+03  0.17461147559E+04  0.17667649951E+04  0.15294330000E+03 0.  0.
<mgrwt>
<rscale>  0 0.54832791E+03</rscale>
<asrwt>0</asrwt>
<pdfrwt beam="1">  1        1 0.31756043E-01 0.69495350E+03</pdfrwt>
<pdfrwt beam="2">  1       -1 0.36495086E+00 0.69495350E+03</pdfrwt>
<totfact> 0.18853019E+00</totfact>
</mgrwt>
</event>
<event>
 4    1  0.1521315E-007  0.6688105E+03  0.7818608E-02  0.1016530E+00
          1   -1    0    0  501    0  0.00000000000E+00  0.00000000000E+00  0.13233909235E+04  0.13233909235E+04  0.50400000000E-02 0. -1.
         -1   -1    0    0    0  501 -0.00000000000E+00 -0.00000000000E+00 -0.29742623158E+03  0.29742623162E+03  0.50400000000E-02 0.  1.
    8880023    1    1    2    0    0  0.37257201194E+02  0.11004168398E+03  0.11920808038E+04  0.13668811654E+04  0.65864270000E+03 0. -1.
    8880022    1    1    2    0    0 -0.37257201194E+02 -0.11004168398E+03 -0.16611611187E+03  0.25393598975E+03  0.15294330000E+03 0.  0.
<mgrwt>
<rscale>  0 0.48959763E+03</rscale>
<asrwt>0</asrwt>
<pdfrwt beam="1">  1        1 0.20359860E+00 0.66881049E+03</pdfrwt>
<pdfrwt beam="2">  1       -1 0.45757883E-01 0.66881049E+03</pdfrwt>
<totfact> 0.42862255E+01</totfact>
</mgrwt>
</event>
<event>
 4    1  0.1521315E-007  0.7666907E+03  0.7818608E-02  0.9788084E-01
         -1   -1    0    0    0  501 -0.00000000000E+00  0.00000000000E+00  0.20565456879E+03  0.20565456885E+03  0.50400000000E-02 0.  1.
          1   -1    0    0  501    0  0.00000000000E+00 -0.00000000000E+00 -0.18967049394E+04  0.18967049394E+04  0.50400000000E-02 0. -1.
    8880023    1    1    2    0    0 -0.12908507269E+03  0.37059609660E+03 -0.75554073567E+03  0.10764090451E+04  0.65864270000E+03 0. -1.
    8880022    1    1    2    0    0  0.12908507269E+03 -0.37059609660E+03 -0.93550963495E+03  0.10259504632E+04  0.15294330000E+03 0.  0.
<mgrwt>
<rscale>  0 0.66005959E+03</rscale>
<asrwt>0</asrwt>
<pdfrwt beam="1">  1        1 0.29180075E+00 0.76669070E+03</pdfrwt>
<pdfrwt beam="2">  1       -1 0.31639166E-01 0.76669070E+03</pdfrwt>
<totfact> 0.33612861E+01</totfact>
</mgrwt>
</event>
<event>
 4    1  0.1521315E-007  0.7760093E+03  0.7818608E-02  0.9765296E-01
         -1   -1    0    0    0  501 -0.00000000000E+00  0.00000000000E+00  0.18516018634E+04  0.18516018634E+04  0.50400000000E-02 0.  1.
          1   -1    0    0  501    0  0.00000000000E+00 -0.00000000000E+00 -0.31716623031E+03  0.31716623035E+03  0.50400000000E-02 0. -1.
    8880023    1    1    2    0    0 -0.33069518317E+03 -0.24294217964E+03  0.25558228950E+03  0.81701451627E+03  0.65864270000E+03 0.  0.
    8880022    1    1    2    0    0  0.33069518317E+03  0.24294217964E+03  0.12788533436E+04  0.13517535775E+04  0.15294330000E+03 0.  0.
<mgrwt>
<rscale>  0 0.67258674E+03</rscale>
<asrwt>0</asrwt>
<pdfrwt beam="1">  1        1 0.48794805E-01 0.77600929E+03</pdfrwt>
<pdfrwt beam="2">  1       -1 0.28486182E+00 0.77600929E+03</pdfrwt>
<totfact> 0.35151136E+00</totfact>
</mgrwt>
</event>
<event>
 4    1  0.1521315E-007  0.6644236E+03  0.7818608E-02  0.1020022E+00
         -1   -1    0    0    0  501 -0.00000000000E+00  0.00000000000E+00  0.21337343683E+04  0.21337343683E+04  0.50400000000E-02 0.  1.
          1   -1    0    0  501    0  0.00000000000E+00 -0.00000000000E+00 -0.16372657239E+03  0.16372657247E+03  0.50400000000E-02 0. -1.
    8880023    1    1    2    0    0  0.36233383916E+02  0.79597070954E+02  0.53875122635E+03  0.85540145076E+03  0.65864270000E+03 0. -1.
    8880022    1    1    2    0    0 -0.36233383916E+02 -0.79597070954E+02  0.14312565696E+04  0.14420594900E+04  0.15294330000E+03 0.  0.
<mgrwt>
<rscale>  0 0.47678697E+03</rscale>
<asrwt>0</asrwt>
<pdfrwt beam="1">  1        1 0.25188703E-01 0.66442363E+03</pdfrwt>
<pdfrwt beam="2">  1       -1 0.32826683E+00 0.66442363E+03</pdfrwt>
<totfact> 0.44433623E+00</totfact>
</mgrwt>
</event>
<event>
 4    1  0.1521315E-007  0.1600236E+04  0.7818608E-02  0.8841918E-01
          1   -1    0    0  501    0  0.00000000000E+00  0.00000000000E+00  0.26997380881E+04  0.26997380881E+04  0.50400000000E-02 0. -1.
         -1   -1    0    0    0  501 -0.00000000000E+00 -0.00000000000E+00 -0.12011469767E+04  0.12011469767E+04  0.50400000000E-02 0.  1.
    8880023    1    1    2    0    0 -0.59618970412E+03  0.13309783838E+04 -0.24908073606E+03  0.16195051839E+04  0.65864270000E+03 0.  0.
    8880022    1    1    2    0    0  0.59618970412E+03 -0.13309783838E+04  0.17476718475E+04  0.22813798809E+04  0.15294330000E+03 0.  0.
<mgrwt>
<rscale>  0 0.15656742E+04</rscale>
<asrwt>0</asrwt>
<pdfrwt beam="1">  1        1 0.41534432E+00 0.16002362E+04</pdfrwt>
<pdfrwt beam="2">  1       -1 0.18479184E+00 0.16002362E+04</pdfrwt>
<totfact> 0.17672489E-01</totfact>
</mgrwt>
</event>
<event>
 4    1  0.1521315E-007  0.7239324E+03  0.7818608E-02  0.9909498E-01
         -1   -1    0    0    0  501 -0.00000000000E+00  0.00000000000E+00  0.71496814993E+03  0.71496814995E+03  0.50400000000E-02 0.  1.
          1   -1    0    0  501    0  0.00000000000E+00 -0.00000000000E+00 -0.45153115583E+03  0.45153115586E+03  0.50400000000E-02 0. -1.
    8880023    1    1    2    0    0  0.30024800120E+03  0.10909980370E+02 -0.22727908606E+02  0.72428906797E+03  0.65864270000E+03 0. -1.
    8880022    1    1    2    0    0 -0.30024800120E+03 -0.10909980370E+02  0.28616490270E+03  0.44221023784E+03  0.15294330000E+03 0.  0.
<mgrwt>
<rscale>  0 0.59803175E+03</rscale>
<asrwt>0</asrwt>
<pdfrwt beam="1">  1        1 0.69466332E-01 0.72393238E+03</pdfrwt>
<pdfrwt beam="2">  1       -1 0.10999510E+00 0.72393238E+03</pdfrwt>
<totfact> 0.39860101E+01</totfact>
</mgrwt>
</event>
<event>
 4    1  0.1521315E-007  0.9893283E+03  0.7818608E-02  0.9395655E-01
         -1   -1    0    0    0  501 -0.00000000000E+00  0.00000000000E+00  0.52974563467E+03  0.52974563469E+03  0.50400000000E-02 0.  1.
          1   -1    0    0  501    0  0.00000000000E+00 -0.00000000000E+00 -0.19359105508E+04  0.19359105508E+04  0.50400000000E-02 0. -1.
    8880023    1    1    2    0    0 -0.61599686162E+03  0.40682698395E+03 -0.15000742681E+03  0.10006361790E+04  0.65864270000E+03 0.  0.
    8880022    1    1    2    0    0  0.61599686162E+03 -0.40682698395E+03 -0.12561574893E+04  0.14650200065E+04  0.15294330000E+03 0.  0.
<mgrwt>
<rscale>  0 0.92434161E+03</rscale>
<asrwt>0</asrwt>
<pdfrwt beam="1">  1        1 0.29783239E+00 0.98932833E+03</pdfrwt>
<pdfrwt beam="2">  1       -1 0.81499329E-01 0.98932833E+03</pdfrwt>
<totfact> 0.49970336E+00</totfact>
</mgrwt>
</event>
<event>
 4    1  0.1521315E-007  0.6633732E+03  0.7818608E-02  0.1020939E+00
          1   -1    0    0  501    0  0.00000000000E+00  0.00000000000E+00  0.40035135614E+03  0.40035135617E+03  0.50400000000E-02 0. -1.
         -1   -1    0    0    0  501 -0.00000000000E+00 -0.00000000000E+00 -0.74290594164E+03  0.74290594165E+03  0.50400000000E-02 0.  1.
    8880023    1    1    2    0    0  0.91848363965E+01  0.78545693379E+02  0.97702358988E+02  0.67052945079E+03  0.65864270000E+03 0. -1.
    8880022    1    1    2    0    0 -0.91848363965E+01 -0.78545693379E+02 -0.44025694449E+03  0.47272784703E+03  0.15294330000E+03 0.  0.
<mgrwt>
<rscale>  0 0.47349258E+03</rscale>
<asrwt>0</asrwt>
<pdfrwt beam="1">  1        1 0.61592517E-01 0.66337319E+03</pdfrwt>
<pdfrwt beam="2">  1       -1 0.11429322E+00 0.66337319E+03</pdfrwt>
<totfact> 0.42982970E+01</totfact>
</mgrwt>
</event>
<event>
 4    1  0.1521315E-007  0.7814662E+03  0.7818608E-02  0.9752404E-01
         -1   -1    0    0    0  501 -0.00000000000E+00  0.00000000000E+00  0.11934554271E+04  0.11934554271E+04  0.50400000000E-02 0.  1.
          1   -1    0    0  501    0  0.00000000000E+00 -0.00000000000E+00 -0.91012521855E+03  0.91012521857E+03  0.50400000000E-02 0. -1.
    8880023    1    1    2    0    0  0.41730534170E+03 -0.52301346662E+02 -0.68350059281E+03  0.10382015439E+04  0.65864270000E+03 0.  0.
    8880022    1    1    2    0    0 -0.41730534170E+03  0.52301346662E+02  0.96683080132E+03  0.10653791018E+04  0.15294330000E+03 0.  0.
<mgrwt>
<rscale>  0 0.67980578E+03</rscale>
<asrwt>0</asrwt>
<pdfrwt beam="1">  1        1 0.14001927E+00 0.78146618E+03</pdfrwt>
<pdfrwt beam="2">  1       -1 0.18360853E+00 0.78146618E+03</pdfrwt>
<totfact> 0.36179278E+00</totfact>
</mgrwt>
</event>
<event>
 4    1  0.1521315E-007  0.9738043E+03  0.7818608E-02  0.9416662E-01
         -1   -1    0    0    0  501 -0.00000000000E+00  0.00000000000E+00  0.60401883851E+03  0.60401883853E+03  0.50400000000E-02 0.  1.
          1   -1    0    0  501    0  0.00000000000E+00 -0.00000000000E+00 -0.26640718667E+04  0.26640718667E+04  0.50400000000E-02 0. -1.
    8880023    1    1    2    0    0  0.67032891484E+03  0.25523285608E+03  0.10759889250E+03  0.97973077568E+03  0.65864270000E+03 0.  0.
    8880022    1    1    2    0    0 -0.67032891484E+03 -0.25523285608E+03 -0.21676519207E+04  0.22883599296E+04  0.15294330000E+03 0.  0.
<mgrwt>
<rscale>  0 0.90717083E+03</rscale>
<asrwt>0</asrwt>
<pdfrwt beam="1">  1        1 0.40985720E+00 0.97380433E+03</pdfrwt>
<pdfrwt beam="2">  1       -1 0.92925977E-01 0.97380433E+03</pdfrwt>
<totfact> 0.12007678E+00</totfact>
</mgrwt>
</event>
<event>
 4    1  0.1521315E-007  0.8954994E+03  0.7818608E-02  0.9533296E-01
          1   -1    0    0  501    0  0.00000000000E+00  0.00000000000E+00  0.12890136510E+04  0.12890136510E+04  0.50400000000E-02 0. -1.
         -1   -1    0    0    0  501 -0.00000000000E+00 -0.00000000000E+00 -0.60047713045E+03  0.60047713047E+03  0.50400000000E-02 0.  1.
    8880023    1    1    2    0    0  0.29258662552E+03  0.53150917076E+03  0.85910387105E+03  0.12409587421E+04  0.65864270000E+03 0. -1.
    8880022    1    1    2    0    0 -0.29258662552E+03 -0.53150917076E+03 -0.17056735052E+03  0.64853203938E+03  0.15294330000E+03 0.  0.
<mgrwt>
<rscale>  0 0.81872965E+03</rscale>
<asrwt>0</asrwt>
<pdfrwt beam="1">  1        1 0.19830979E+00 0.89549938E+03</pdfrwt>
<pdfrwt beam="2">  1       -1 0.92381096E-01 0.89549938E+03</pdfrwt>
<totfact> 0.10666739E+01</totfact>
</mgrwt>
</event>
<event>
 4    1  0.1521315E-007  0.9461792E+03  0.7818608E-02  0.9455633E-01
         -1   -1    0    0    0  501 -0.00000000000E+00  0.00000000000E+00  0.48105494666E+03  0.48105494668E+03  0.50400000000E-02 0.  1.
          1   -1    0    0  501    0  0.00000000000E+00 -0.00000000000E+00 -0.24604695681E+04  0.24604695681E+04  0.50400000000E-02 0. -1.
    8880023    1    1    2    0    0 -0.26091737712E+03  0.62718974036E+03 -0.20337792270E+04  0.22431034302E+04  0.65864270000E+03 0.  0.
    8880022    1    1    2    0    0  0.26091737712E+03 -0.62718974036E+03  0.54364605538E+02  0.69842108462E+03  0.15294330000E+03 0.  1.
<mgrwt>
<rscale>  0 0.87635376E+03</rscale>
<asrwt>0</asrwt>
<pdfrwt beam="1">  1        1 0.37853377E+00 0.94617919E+03</pdfrwt>
<pdfrwt beam="2">  1       -1 0.74008455E-01 0.94617919E+03</pdfrwt>
<totfact> 0.27226426E+00</totfact>
</mgrwt>
</event>
<event>
 4    1  0.1521315E-007  0.6687046E+03  0.7818608E-02  0.1016609E+00
          1   -1    0    0  501    0  0.00000000000E+00  0.00000000000E+00  0.96706936052E+03  0.96706936053E+03  0.50400000000E-02 0. -1.
         -1   -1    0    0    0  501 -0.00000000000E+00 -0.00000000000E+00 -0.34782239731E+03  0.34782239734E+03  0.50400000000E-02 0.  1.
    8880023    1    1    2    0    0 -0.76490065200E+02  0.86630893622E+02  0.80598779401E+03  0.10472736854E+04  0.65864270000E+03 0. -1.
    8880022    1    1    2    0    0  0.76490065200E+02 -0.86630893622E+02 -0.18674083080E+03  0.26761807246E+03  0.15294330000E+03 0.  0.
<mgrwt>
<rscale>  0 0.48930416E+03</rscale>
<asrwt>0</asrwt>
<pdfrwt beam="1">  1        1 0.14877990E+00 0.66870460E+03</pdfrwt>
<pdfrwt beam="2">  1       -1 0.53511140E-01 0.66870460E+03</pdfrwt>
<totfact> 0.58366618E+01</totfact>
</mgrwt>
</event>
<event>
 4    1  0.1521315E-007  0.7768635E+03  0.7818608E-02  0.9763257E-01
         -1   -1    0    0    0  501 -0.00000000000E+00  0.00000000000E+00  0.63493985351E+03  0.63493985353E+03  0.50400000000E-02 0.  1.
          1   -1    0    0  501    0  0.00000000000E+00 -0.00000000000E+00 -0.58668643495E+03  0.58668643497E+03  0.50400000000E-02 0. -1.
    8880023    1    1    2    0    0  0.16332997757E+03 -0.37819309014E+03 -0.18910149678E+02  0.77709362050E+03  0.65864270000E+03 0.  1.
    8880022    1    1    2    0    0 -0.16332997757E+03  0.37819309014E+03  0.67163568236E+02  0.44453266800E+03  0.15294330000E+03 0. -1.
<mgrwt>
<rscale>  0 0.67372220E+03</rscale>
<asrwt>0</asrwt>
<pdfrwt beam="1">  1        1 0.90259452E-01 0.77686350E+03</pdfrwt>
<pdfrwt beam="2">  1       -1 0.97683054E-01 0.77686350E+03</pdfrwt>
<totfact> 0.36308215E+01</totfact>
</mgrwt>
</event>
<event>
 4    1  0.1521315E-007  0.6630795E+03  0.7818608E-02  0.1021202E+00
          1   -1    0    0  501    0  0.00000000000E+00  0.00000000000E+00  0.24103448866E+04  0.24103448866E+04  0.50400000000E-02 0. -1.
         -1   -1    0    0    0  501 -0.00000000000E+00 -0.00000000000E+00 -0.20819657842E+03  0.20819657848E+03  0.50400000000E-02 0.  1.
    8880023    1    1    2    0    0  0.66627909338E+02  0.37748870516E+02  0.23186443140E+04  0.24115940613E+04  0.65864270000E+03 0. -1.
    8880022    1    1    2    0    0 -0.66627909338E+02 -0.37748870516E+02 -0.11649600583E+03  0.20694740374E+03  0.15294330000E+03 0.  0.
<mgrwt>
<rscale>  0 0.47255342E+03</rscale>
<asrwt>0</asrwt>
<pdfrwt beam="1">  1        1 0.37082230E+00 0.66307953E+03</pdfrwt>
<pdfrwt beam="2">  1       -1 0.32030242E-01 0.66307953E+03</pdfrwt>
<totfact> 0.15111581E+01</totfact>
</mgrwt>
</event>
<event>
 4    1  0.1521315E-007  0.7079844E+03  0.7818608E-02  0.9965563E-01
         -1   -1    0    0    0  501 -0.00000000000E+00  0.00000000000E+00  0.82272510488E+03  0.82272510490E+03  0.50400000000E-02 0.  1.
          1   -1    0    0  501    0  0.00000000000E+00 -0.00000000000E+00 -0.73006042574E+03  0.73006042576E+03  0.50400000000E-02 0. -1.
    8880023    1    1    2    0    0  0.14818161885E+03 -0.21324597118E+03 -0.51433473468E+03  0.87508974509E+03  0.65864270000E+03 0.  0.
    8880022    1    1    2    0    0 -0.14818161885E+03  0.21324597118E+03  0.60699941382E+03  0.67769578557E+03  0.15294330000E+03 0.  0.
<mgrwt>
<rscale>  0 0.57186353E+03</rscale>
<asrwt>0</asrwt>
<pdfrwt beam="1">  1        1 0.11231699E+00 0.70798435E+03</pdfrwt>
<pdfrwt beam="2">  1       -1 0.12657309E+00 0.70798435E+03</pdfrwt>
<totfact> 0.14328483E+01</totfact>
</mgrwt>
</event>
<event>
 4    1  0.1521315E-007  0.6587530E+03  0.7818608E-02  0.1025472E+00
         -1   -1    0    0    0  501 -0.00000000000E+00  0.00000000000E+00  0.38610991410E+03  0.38610991413E+03  0.50400000000E-02 0.  1.
          1   -1    0    0  501    0  0.00000000000E+00 -0.00000000000E+00 -0.47362356948E+03  0.47362356951E+03  0.50400000000E-02 0. -1.
    8880023    1    1    2    0    0  0.11251532841E+02  0.43320485430E+01 -0.17700936942E+03  0.68212014100E+03  0.65864270000E+03 0. -1.
    8880022    1    1    2    0    0 -0.11251532841E+02 -0.43320485430E+01  0.89495714039E+02  0.17761334264E+03  0.15294330000E+03 0.  0.
<mgrwt>
<rscale>  0 0.45762622E+03</rscale>
<asrwt>0</asrwt>
<pdfrwt beam="1">  1        1 0.72865164E-01 0.65875304E+03</pdfrwt>
<pdfrwt beam="2">  1       -1 0.59401525E-01 0.65875304E+03</pdfrwt>
<totfact> 0.14014792E+02</totfact>
</mgrwt>
</event>
<event>
 4    1  0.1521315E-007  0.1024375E+04  0.7818608E-02  0.9350340E-01
         -1   -1    0    0    0  501 -0.00000000000E+00  0.00000000000E+00  0.74064124002E+03  0.74064124004E+03  0.50400000000E-02 0.  1.
          1   -1    0    0  501    0  0.00000000000E+00 -0.00000000000E+00 -0.11816618841E+04  0.11816618841E+04  0.50400000000E-02 0. -1.
    8880023    1    1    2    0    0  0.53297655207E+03  0.57573398239E+03 -0.45961261684E+03  0.11227589177E+04  0.65864270000E+03 0.  1.
    8880022    1    1    2    0    0 -0.53297655207E+03 -0.57573398239E+03  0.18591972758E+02  0.79954420641E+03  0.15294330000E+03 0.  0.
<mgrwt>
<rscale>  0 0.96277641E+03</rscale>
<asrwt>0</asrwt>
<pdfrwt beam="1">  1        1 0.18179414E+00 0.10243748E+04</pdfrwt>
<pdfrwt beam="2">  1       -1 0.11394481E+00 0.10243748E+04</pdfrwt>
<totfact> 0.77396131E+00</totfact>
</mgrwt>
</event>
<event>
 4    1  0.1521315E-007  0.1172255E+04  0.7818608E-02  0.9184576E-01
         -1   -1    0    0    0  501 -0.00000000000E+00  0.00000000000E+00  0.17858269195E+04  0.17858269195E+04  0.50400000000E-02 0.  1.
          1   -1    0    0  501    0  0.00000000000E+00 -0.00000000000E+00 -0.76326671405E+03  0.76326671406E+03  0.50400000000E-02 0. -1.
    8880023    1    1    2    0    0  0.10884283200E+03 -0.96359997754E+03  0.59341599111E+02  0.11737560694E+04  0.65864270000E+03 0.  0.
    8880022    1    1    2    0    0 -0.10884283200E+03  0.96359997754E+03  0.96321860630E+03  0.13753375641E+04  0.15294330000E+03 0.  0.
<mgrwt>
<rscale>  0 0.11214060E+04</rscale>
<asrwt>0</asrwt>
<pdfrwt beam="1">  1        1 0.11742565E+00 0.11722550E+04</pdfrwt>
<pdfrwt beam="2">  1       -1 0.27474260E+00 0.11722550E+04</pdfrwt>
<totfact> 0.11341227E+00</totfact>
</mgrwt>
</event>
<event>
 4    1  0.1521315E-007  0.7231930E+03  0.7818608E-02  0.9911926E-01
         -1   -1    0    0    0  501 -0.00000000000E+00  0.00000000000E+00  0.41073223121E+03  0.41073223124E+03  0.50400000000E-02 0.  1.
          1   -1    0    0  501    0  0.00000000000E+00 -0.00000000000E+00 -0.68333018847E+03  0.68333018849E+03  0.50400000000E-02 0. -1.
    8880023    1    1    2    0    0  0.60221755759E+02  0.29252567555E+03 -0.16608687740E+03  0.74201953332E+03  0.65864270000E+03 0. -1.
    8880022    1    1    2    0    0 -0.60221755759E+02 -0.29252567555E+03 -0.10651107987E+03  0.35204288641E+03  0.15294330000E+03 0.  1.
<mgrwt>
<rscale>  0 0.59686752E+03</rscale>
<asrwt>0</asrwt>
<pdfrwt beam="1">  1        1 0.10512772E+00 0.72319302E+03</pdfrwt>
<pdfrwt beam="2">  1       -1 0.63189574E-01 0.72319302E+03</pdfrwt>
<totfact> 0.73386241E+01</totfact>
</mgrwt>
</event>
<event>
 4    1  0.1521315E-007  0.6957873E+03  0.7818608E-02  0.1001515E+00
         -1   -1    0    0    0  501 -0.00000000000E+00  0.00000000000E+00  0.65112702694E+03  0.65112702696E+03  0.50400000000E-02 0.  1.
          1   -1    0    0  501    0  0.00000000000E+00 -0.00000000000E+00 -0.39601451032E+03  0.39601451035E+03  0.50400000000E-02 0. -1.
    8880023    1    1    2    0    0  0.20343053470E+03 -0.94476637487E+02  0.33328037516E+02  0.69658508585E+03  0.65864270000E+03 0. -1.
    8880022    1    1    2    0    0 -0.20343053470E+03  0.94476637487E+02  0.22178447910E+03  0.35055645146E+03  0.15294330000E+03 0.  0.
<mgrwt>
<rscale>  0 0.54991037E+03</rscale>
<asrwt>0</asrwt>
<pdfrwt beam="1">  1        1 0.60925310E-01 0.69578734E+03</pdfrwt>
<pdfrwt beam="2">  1       -1 0.10017339E+00 0.69578734E+03</pdfrwt>
<totfact> 0.59130169E+01</totfact>
</mgrwt>
</event>
<event>
 4    1  0.1521315E-007  0.6677968E+03  0.7818608E-02  0.1017294E+00
          1   -1    0    0  501    0  0.00000000000E+00  0.00000000000E+00  0.13046610627E+04  0.13046610627E+04  0.50400000000E-02 0. -1.
         -1   -1    0    0    0  501 -0.00000000000E+00 -0.00000000000E+00 -0.27934399860E+03  0.27934399865E+03  0.50400000000E-02 0.  1.
    8880023    1    1    2    0    0 -0.83426470420E+02  0.71989074998E+02  0.11694664138E+04  0.13467012668E+04  0.65864270000E+03 0. -1.
    8880022    1    1    2    0    0  0.83426470420E+02 -0.71989074998E+02 -0.14414934966E+03  0.23730379455E+03  0.15294330000E+03 0.  0.
<mgrwt>
<rscale>  0 0.48675886E+03</rscale>
<asrwt>0</asrwt>
<pdfrwt beam="1">  1        1 0.20071709E+00 0.66779683E+03</pdfrwt>
<pdfrwt beam="2">  1       -1 0.42975999E-01 0.66779683E+03</pdfrwt>
<totfact> 0.49617610E+01</totfact>
</mgrwt>
</event>
<event>
 4    1  0.1521315E-007  0.8155934E+03  0.7818608E-02  0.9678042E-01
         -1   -1    0    0    0  501 -0.00000000000E+00  0.00000000000E+00  0.14419855228E+04  0.14419855228E+04  0.50400000000E-02 0.  1.
          1   -1    0    0  501    0  0.00000000000E+00 -0.00000000000E+00 -0.73406629081E+03  0.73406629082E+03  0.50400000000E-02 0. -1.
    8880023    1    1    2    0    0  0.26896341996E+03 -0.39879944238E+03 -0.43665170038E+03  0.92512552133E+03  0.65864270000E+03 0.  0.
    8880022    1    1    2    0    0 -0.26896341996E+03  0.39879944238E+03  0.11445709324E+04  0.12509262923E+04  0.15294330000E+03 0.  0.
<mgrwt>
<rscale>  0 0.72339357E+03</rscale>
<asrwt>0</asrwt>
<pdfrwt beam="1">  1        1 0.11293328E+00 0.81559336E+03</pdfrwt>
<pdfrwt beam="2">  1       -1 0.22184392E+00 0.81559336E+03</pdfrwt>
<totfact> 0.27925171E+00</totfact>
</mgrwt>
</event>
<event>
 4    1  0.1521315E-007  0.1077988E+04  0.7818608E-02  0.9285969E-01
          1   -1    0    0  501    0  0.00000000000E+00  0.00000000000E+00  0.21291837252E+04  0.21291837252E+04  0.50400000000E-02 0. -1.
         -1   -1    0    0    0  501 -0.00000000000E+00 -0.00000000000E+00 -0.12422386685E+04  0.12422386685E+04  0.50400000000E-02 0.  1.
    8880023    1    1    2    0    0  0.57168823147E+03  0.63357752352E+03  0.18089720607E+04  0.21058105411E+04  0.65864270000E+03 0.  0.
    8880022    1    1    2    0    0 -0.57168823147E+03 -0.63357752352E+03 -0.92202700406E+03  0.12656118526E+04  0.15294330000E+03 0.  0.
<mgrwt>
<rscale>  0 0.10208493E+04</rscale>
<asrwt>0</asrwt>
<pdfrwt beam="1">  1        1 0.32756673E+00 0.10779880E+04</pdfrwt>
<pdfrwt beam="2">  1       -1 0.19111364E+00 0.10779880E+04</pdfrwt>
<totfact> 0.42288415E-01</totfact>
</mgrwt>
</event>
<event>
 4    1  0.1521315E-007  0.1061451E+04  0.7818608E-02  0.9305241E-01
         -1   -1    0    0    0  501 -0.00000000000E+00  0.00000000000E+00  0.16074851323E+04  0.16074851323E+04  0.50400000000E-02 0.  1.
          1   -1    0    0  501    0  0.00000000000E+00 -0.00000000000E+00 -0.12797485867E+04  0.12797485867E+04  0.50400000000E-02 0. -1.
    8880023    1    1    2    0    0 -0.83131508897E+03 -0.42217699072E+02 -0.90300173002E+03  0.13935886918E+04  0.65864270000E+03 0. -1.
    8880022    1    1    2    0    0  0.83131508897E+03  0.42217699072E+02  0.12307382756E+04  0.14936450272E+04  0.15294330000E+03 0.  0.
<mgrwt>
<rscale>  0 0.10030176E+04</rscale>
<asrwt>0</asrwt>
<pdfrwt beam="1">  1        1 0.19688440E+00 0.10614506E+04</pdfrwt>
<pdfrwt beam="2">  1       -1 0.24730541E+00 0.10614506E+04</pdfrwt>
<totfact> 0.67900694E-01</totfact>
</mgrwt>
</event>
<event>
 4    1  0.1521315E-007  0.7518182E+03  0.7818608E-02  0.9826769E-01
          1   -1    0    0  501    0  0.00000000000E+00  0.00000000000E+00  0.84162146091E+03  0.84162146093E+03  0.50400000000E-02 0. -1.
         -1   -1    0    0    0  501 -0.00000000000E+00 -0.00000000000E+00 -0.67138307884E+03  0.67138307886E+03  0.50400000000E-02 0.  1.
    8880023    1    1    2    0    0 -0.33790119675E+03  0.13131320928E+03  0.57652556255E+03  0.94742403824E+03  0.65864270000E+03 0. -1.
    8880022    1    1    2    0    0  0.33790119675E+03 -0.13131320928E+03 -0.40628718047E+03  0.56558050155E+03  0.15294330000E+03 0.  0.
<mgrwt>
<rscale>  0 0.63945533E+03</rscale>
<asrwt>0</asrwt>
<pdfrwt beam="1">  1        1 0.12948022E+00 0.75181819E+03</pdfrwt>
<pdfrwt beam="2">  1       -1 0.10328970E+00 0.75181819E+03</pdfrwt>
<totfact> 0.18511121E+01</totfact>
</mgrwt>
</event>
<event>
 4    1  0.1521315E-007  0.1327128E+04  0.7818608E-02  0.9042480E-01
         -1   -1    0    0    0  501 -0.00000000000E+00  0.00000000000E+00  0.76466732380E+03  0.76466732381E+03  0.50400000000E-02 0.  1.
          1   -1    0    0  501    0  0.00000000000E+00 -0.00000000000E+00 -0.24820248009E+04  0.24820248009E+04  0.50400000000E-02 0. -1.
    8880023    1    1    2    0    0 -0.11502858979E+04  0.65578674719E+02 -0.15996344078E+04  0.20784847015E+04  0.65864270000E+03 0. -1.
    8880022    1    1    2    0    0  0.11502858979E+04 -0.65578674719E+02 -0.11772306932E+03  0.11682074232E+04  0.15294330000E+03 0.  0.
<mgrwt>
<rscale>  0 0.12838387E+04</rscale>
<asrwt>0</asrwt>
<pdfrwt beam="1">  1        1 0.38184997E+00 0.13271279E+04</pdfrwt>
<pdfrwt beam="2">  1       -1 0.11764113E+00 0.13271279E+04</pdfrwt>
<totfact> 0.88137685E-01</totfact>
</mgrwt>
</event>
<event>
 4    1  0.1521315E-007  0.7005564E+03  0.7818608E-02  0.9994901E-01
         -1   -1    0    0    0  501 -0.00000000000E+00  0.00000000000E+00  0.15401920619E+03  0.15401920627E+03  0.50400000000E-02 0.  1.
          1   -1    0    0  501    0  0.00000000000E+00 -0.00000000000E+00 -0.16824244900E+04  0.16824244900E+04  0.50400000000E-02 0. -1.
    8880023    1    1    2    0    0  0.77539076834E+02 -0.22573587436E+03 -0.12816252174E+04  0.14605965896E+04  0.65864270000E+03 0. -1.
    8880022    1    1    2    0    0 -0.77539076834E+02  0.22573587436E+03 -0.24678006642E+03  0.37584710669E+03  0.15294330000E+03 0.  1.
<mgrwt>
<rscale>  0 0.55874382E+03</rscale>
<asrwt>0</asrwt>
<pdfrwt beam="1">  1        1 0.25883452E+00 0.70055635E+03</pdfrwt>
<pdfrwt beam="2">  1       -1 0.23695264E-01 0.70055635E+03</pdfrwt>
<totfact> 0.77598660E+01</totfact>
</mgrwt>
</event>
<event>
 4    1  0.1521315E-007  0.6704131E+03  0.7818608E-02  0.1015368E+00
          1   -1    0    0  501    0  0.00000000000E+00  0.00000000000E+00  0.19289899075E+04  0.19289899075E+04  0.50400000000E-02 0. -1.
         -1   -1    0    0    0  501 -0.00000000000E+00 -0.00000000000E+00 -0.15040178041E+03  0.15040178050E+03  0.50400000000E-02 0.  1.
    8880023    1    1    2    0    0 -0.71258817149E+02 -0.10278947300E+03  0.17571010576E+04  0.18806535639E+04  0.65864270000E+03 0. -1.
    8880022    1    1    2    0    0  0.71258817149E+02  0.10278947300E+03  0.21487069506E+02  0.19873812405E+03  0.15294330000E+03 0.  0.
<mgrwt>
<rscale>  0 0.49395665E+03</rscale>
<asrwt>0</asrwt>
<pdfrwt beam="1">  1        1 0.29676767E+00 0.67041308E+03</pdfrwt>
<pdfrwt beam="2">  1       -1 0.23138736E-01 0.67041308E+03</pdfrwt>
<totfact> 0.55459137E+01</totfact>
</mgrwt>
</event>
<event>
 4    1  0.1521315E-007  0.1661058E+04  0.7818608E-02  0.8803557E-01
          1   -1    0    0  501    0  0.00000000000E+00  0.00000000000E+00  0.23530351987E+04  0.23530351987E+04  0.50400000000E-02 0. -1.
         -1   -1    0    0    0  501 -0.00000000000E+00 -0.00000000000E+00 -0.12716845931E+04  0.12716845931E+04  0.50400000000E-02 0.  1.
    8880023    1    1    2    0    0 -0.83643171567E+02 -0.15225987456E+04  0.12557107365E+04  0.20822878716E+04  0.65864270000E+03 0.  0.
    8880022    1    1    2    0    0  0.83643171567E+02  0.15225987456E+04 -0.17436013082E+03  0.15424319202E+04  0.15294330000E+03 0.  0.
<mgrwt>
<rscale>  0 0.16279531E+04</rscale>
<asrwt>0</asrwt>
<pdfrwt beam="1">  1        1 0.36200541E+00 0.16610579E+04</pdfrwt>
<pdfrwt beam="2">  1       -1 0.19564378E+00 0.16610579E+04</pdfrwt>
<totfact> 0.25644652E-01</totfact>
</mgrwt>
</event>
<event>
 4    1  0.1521315E-007  0.7735602E+03  0.7818608E-02  0.9771187E-01
          1   -1    0    0  501    0  0.00000000000E+00  0.00000000000E+00  0.22133953971E+04  0.22133953971E+04  0.50400000000E-02 0. -1.
         -1   -1    0    0    0  501 -0.00000000000E+00 -0.00000000000E+00 -0.21861118111E+03  0.21861118117E+03  0.50400000000E-02 0.  1.
    8880023    1    1    2    0    0  0.29713041267E+03 -0.27622222265E+03  0.62269933941E+03  0.99305079023E+03  0.65864270000E+03 0.  1.
    8880022    1    1    2    0    0 -0.29713041267E+03  0.27622222265E+03  0.13720848766E+04  0.14389557881E+04  0.15294330000E+03 0.  0.
<mgrwt>
<rscale>  0 0.66931975E+03</rscale>
<asrwt>0</asrwt>
<pdfrwt beam="1">  1        1 0.34052235E+00 0.77356021E+03</pdfrwt>
<pdfrwt beam="2">  1       -1 0.33632491E-01 0.77356021E+03</pdfrwt>
<totfact> 0.18501713E+01</totfact>
</mgrwt>
</event>
<event>
 4    1  0.1521315E-007  0.6747895E+03  0.7818608E-02  0.1012439E+00
          1   -1    0    0  501    0  0.00000000000E+00  0.00000000000E+00  0.75726376256E+03  0.75726376258E+03  0.50400000000E-02 0. -1.
         -1   -1    0    0    0  501 -0.00000000000E+00 -0.00000000000E+00 -0.77194720981E+03  0.77194720982E+03  0.50400000000E-02 0.  1.
    8880023    1    1    2    0    0 -0.12941148869E+03  0.69162072516E+02  0.58506812420E+03  0.89311009506E+03  0.65864270000E+03 0. -1.
    8880022    1    1    2    0    0  0.12941148869E+03 -0.69162072516E+02 -0.59975157145E+03  0.63610087734E+03  0.15294330000E+03 0.  0.
<mgrwt>
<rscale>  0 0.50516599E+03</rscale>
<asrwt>0</asrwt>
<pdfrwt beam="1">  1        1 0.11650212E+00 0.67478955E+03</pdfrwt>
<pdfrwt beam="2">  1       -1 0.11876111E+00 0.67478955E+03</pdfrwt>
<totfact> 0.15907044E+01</totfact>
</mgrwt>
</event>
<event>
 4    1  0.1521315E-007  0.8830003E+03  0.7818608E-02  0.9553892E-01
         -1   -1    0    0    0  501 -0.00000000000E+00  0.00000000000E+00  0.76255575704E+03  0.76255575706E+03  0.50400000000E-02 0.  1.
          1   -1    0    0  501    0  0.00000000000E+00 -0.00000000000E+00 -0.15345374106E+04  0.15345374106E+04  0.50400000000E-02 0. -1.
    8880023    1    1    2    0    0  0.56732720754E+03 -0.15498144357E+03 -0.12454731318E+04  0.15267262153E+04  0.65864270000E+03 0.  0.
    8880022    1    1    2    0    0 -0.56732720754E+03  0.15498144357E+03  0.47349147825E+03  0.77036695234E+03  0.15294330000E+03 0.  0.
<mgrwt>
<rscale>  0 0.80424583E+03</rscale>
<asrwt>0</asrwt>
<pdfrwt beam="1">  1        1 0.23608268E+00 0.88300035E+03</pdfrwt>
<pdfrwt beam="2">  1       -1 0.11731627E+00 0.88300035E+03</pdfrwt>
<totfact> 0.41379962E+00</totfact>
</mgrwt>
</event>
<event>
 4    1  0.1521315E-007  0.6719682E+03  0.7818608E-02  0.1014290E+00
          1   -1    0    0  501    0  0.00000000000E+00  0.00000000000E+00  0.90688830344E+03  0.90688830346E+03  0.50400000000E-02 0. -1.
         -1   -1    0    0    0  501 -0.00000000000E+00 -0.00000000000E+00 -0.33293457329E+03  0.33293457333E+03  0.50400000000E-02 0.  1.
    8880023    1    1    2    0    0  0.99520925421E+02  0.88468146767E+02  0.72383125344E+03  0.98766032486E+03  0.65864270000E+03 0. -1.
    8880022    1    1    2    0    0 -0.99520925421E+02 -0.88468146767E+02 -0.14987752329E+03  0.25216255192E+03  0.15294330000E+03 0.  0.
<mgrwt>
<rscale>  0 0.49804858E+03</rscale>
<asrwt>0</asrwt>
<pdfrwt beam="1">  1        1 0.13952128E+00 0.67196818E+03</pdfrwt>
<pdfrwt beam="2">  1       -1 0.51220704E-01 0.67196818E+03</pdfrwt>
<totfact> 0.70821976E+01</totfact>
</mgrwt>
</event>
<event>
 4    1  0.1521315E-007  0.8638458E+03  0.7818608E-02  0.9586759E-01
          1   -1    0    0  501    0  0.00000000000E+00  0.00000000000E+00  0.14503117319E+04  0.14503117319E+04  0.50400000000E-02 0. -1.
         -1   -1    0    0    0  501 -0.00000000000E+00 -0.00000000000E+00 -0.47047245540E+03  0.47047245543E+03  0.50400000000E-02 0.  1.
    8880023    1    1    2    0    0 -0.14318172302E+02 -0.55876148728E+03  0.10238909109E+04  0.13396201750E+04  0.65864270000E+03 0. -1.
    8880022    1    1    2    0    0  0.14318172302E+02  0.55876148728E+03 -0.44051634354E+02  0.58116401233E+03  0.15294330000E+03 0.  1.
<mgrwt>
<rscale>  0 0.78178810E+03</rscale>
<asrwt>0</asrwt>
<pdfrwt beam="1">  1        1 0.22312488E+00 0.86384583E+03</pdfrwt>
<pdfrwt beam="2">  1       -1 0.72380379E-01 0.86384583E+03</pdfrwt>
<totfact> 0.13923297E+01</totfact>
</mgrwt>
</event>
<event>
 4    1  0.1521315E-007  0.7740164E+03  0.7818608E-02  0.9770085E-01
          1   -1    0    0  501    0  0.00000000000E+00  0.00000000000E+00  0.34248904846E+04  0.34248904846E+04  0.50400000000E-02 0. -1.
         -1   -1    0    0    0  501 -0.00000000000E+00 -0.00000000000E+00 -0.10910893433E+03  0.10910893444E+03  0.50400000000E-02 0.  1.
    8880023    1    1    2    0    0  0.19478620513E+03  0.35686065252E+03  0.18551046656E+04  0.20101031609E+04  0.65864270000E+03 0. -1.
    8880022    1    1    2    0    0 -0.19478620513E+03 -0.35686065252E+03  0.14606768847E+04  0.15238962581E+04  0.15294330000E+03 0.  0.
<mgrwt>
<rscale>  0 0.66992961E+03</rscale>
<asrwt>0</asrwt>
<pdfrwt beam="1">  1        1 0.52690625E+00 0.77401641E+03</pdfrwt>
<pdfrwt beam="2">  1       -1 0.16785989E-01 0.77401641E+03</pdfrwt>
<totfact> 0.83712513E+00</totfact>
</mgrwt>
</event>
<event>
 4    1  0.1521315E-007  0.7543299E+03  0.7818608E-02  0.9820014E-01
          1   -1    0    0  501    0  0.00000000000E+00  0.00000000000E+00  0.74643828101E+03  0.74643828103E+03  0.50400000000E-02 0. -1.
         -1   -1    0    0    0  501 -0.00000000000E+00 -0.00000000000E+00 -0.73192040112E+03  0.73192040113E+03  0.50400000000E-02 0.  1.
    8880023    1    1    2    0    0 -0.34228286165E+03 -0.13433479004E+03  0.45786413186E+03  0.88241326072E+03  0.65864270000E+03 0.  0.
    8880022    1    1    2    0    0  0.34228286165E+03  0.13433479004E+03 -0.44334625196E+03  0.59594542144E+03  0.15294330000E+03 0.  0.
<mgrwt>
<rscale>  0 0.64299441E+03</rscale>
<asrwt>0</asrwt>
<pdfrwt beam="1">  1        1 0.11483666E+00 0.75432990E+03</pdfrwt>
<pdfrwt beam="2">  1       -1 0.11260314E+00 0.75432990E+03</pdfrwt>
<totfact> 0.18296531E+01</totfact>
</mgrwt>
</event>
<event>
 4    1  0.1521315E-007  0.6877129E+03  0.7818608E-02  0.1005259E+00
         -1   -1    0    0    0  501 -0.00000000000E+00  0.00000000000E+00  0.15736778493E+03  0.15736778501E+03  0.50400000000E-02 0.  1.
          1   -1    0    0  501    0  0.00000000000E+00 -0.00000000000E+00 -0.16262432056E+04  0.16262432056E+04  0.50400000000E-02 0. -1.
    8880023    1    1    2    0    0  0.15858950754E+02  0.19719855690E+03 -0.13307283015E+04  0.14979275002E+04  0.65864270000E+03 0.  0.
    8880022    1    1    2    0    0 -0.15858950754E+02 -0.19719855690E+03 -0.13814711919E+03  0.28568349045E+03  0.15294330000E+03 0. -1.
<mgrwt>
<rscale>  0 0.53403139E+03</rscale>
<asrwt>0</asrwt>
<pdfrwt beam="1">  1        1 0.25019125E+00 0.68771286E+03</pdfrwt>
<pdfrwt beam="2">  1       -1 0.24210430E-01 0.68771286E+03</pdfrwt>
<totfact> 0.81747891E+01</totfact>
</mgrwt>
</event>
<event>
 4    1  0.1521315E-007  0.6938756E+03  0.7818608E-02  0.1002362E+00
          1   -1    0    0  501    0  0.00000000000E+00  0.00000000000E+00  0.65974485104E+03  0.65974485106E+03  0.50400000000E-02 0. -1.
         -1   -1    0    0    0  501 -0.00000000000E+00 -0.00000000000E+00 -0.52861932404E+03  0.52861932406E+03  0.50400000000E-02 0.  1.
    8880023    1    1    2    0    0  0.21824093035E+03  0.49079785614E+01  0.40726750889E+03  0.80456834514E+03  0.65864270000E+03 0. -1.
    8880022    1    1    2    0    0 -0.21824093035E+03 -0.49079785614E+01 -0.27614198189E+03  0.38379582998E+03  0.15294330000E+03 0.  0.
<mgrwt>
<rscale>  0 0.54626428E+03</rscale>
<asrwt>0</asrwt>
<pdfrwt beam="1">  1        1 0.10149921E+00 0.69387564E+03</pdfrwt>
<pdfrwt beam="2">  1       -1 0.81326050E-01 0.69387564E+03</pdfrwt>
<totfact> 0.46119261E+01</totfact>
</mgrwt>
</event>
<event>
 4    1  0.1521315E-007  0.1006479E+04  0.7818608E-02  0.9373130E-01
         -1   -1    0    0    0  501 -0.00000000000E+00  0.00000000000E+00  0.37384739900E+03  0.37384739903E+03  0.50400000000E-02 0.  1.
          1   -1    0    0  501    0  0.00000000000E+00 -0.00000000000E+00 -0.30689480743E+04  0.30689480743E+04  0.50400000000E-02 0. -1.
    8880023    1    1    2    0    0  0.46470360251E+03  0.60269428160E+03 -0.24170642750E+04  0.26182436386E+04  0.65864270000E+03 0.  1.
    8880022    1    1    2    0    0 -0.46470360251E+03 -0.60269428160E+03 -0.27803640028E+03  0.82455183473E+03  0.15294330000E+03 0.  0.
<mgrwt>
<rscale>  0 0.94320376E+03</rscale>
<asrwt>0</asrwt>
<pdfrwt beam="1">  1        1 0.47214584E+00 0.10064790E+04</pdfrwt>
<pdfrwt beam="2">  1       -1 0.57514986E-01 0.10064790E+04</pdfrwt>
<totfact> 0.16753436E+00</totfact>
</mgrwt>
</event>
<event>
 4    1  0.1521315E-007  0.1079250E+04  0.7818608E-02  0.9284517E-01
          1   -1    0    0  501    0  0.00000000000E+00  0.00000000000E+00  0.12460704945E+04  0.12460704945E+04  0.50400000000E-02 0. -1.
         -1   -1    0    0    0  501 -0.00000000000E+00 -0.00000000000E+00 -0.12833236915E+04  0.12833236915E+04  0.50400000000E-02 0.  1.
    8880023    1    1    2    0    0  0.21686638319E+03 -0.82700684802E+03  0.78408319962E+03  0.13340045071E+04  0.65864270000E+03 0.  0.
    8880022    1    1    2    0    0 -0.21686638319E+03  0.82700684802E+03 -0.82133639667E+03  0.11953896789E+04  0.15294330000E+03 0.  0.
<mgrwt>
<rscale>  0 0.10222079E+04</rscale>
<asrwt>0</asrwt>
<pdfrwt beam="1">  1        1 0.19170315E+00 0.10792505E+04</pdfrwt>
<pdfrwt beam="2">  1       -1 0.19743442E+00 0.10792505E+04</pdfrwt>
<totfact> 0.15423729E+00</totfact>
</mgrwt>
</event>
<event>
 4    1  0.1521315E-007  0.7454235E+03  0.7818608E-02  0.9844421E-01
         -1   -1    0    0    0  501 -0.00000000000E+00  0.00000000000E+00  0.67520869218E+03  0.67520869220E+03  0.50400000000E-02 0.  1.
          1   -1    0    0  501    0  0.00000000000E+00 -0.00000000000E+00 -0.11286047869E+04  0.11286047869E+04  0.50400000000E-02 0. -1.
    8880023    1    1    2    0    0  0.19214418226E+03 -0.29142159546E+03 -0.93109223956E+03  0.11927233116E+04  0.65864270000E+03 0. -1.
    8880022    1    1    2    0    0 -0.19214418226E+03  0.29142159546E+03  0.47769614484E+03  0.61109016756E+03  0.15294330000E+03 0.  0.
<mgrwt>
<rscale>  0 0.63032157E+03</rscale>
<asrwt>0</asrwt>
<pdfrwt beam="1">  1        1 0.17363151E+00 0.74542346E+03</pdfrwt>
<pdfrwt beam="2">  1       -1 0.10387826E+00 0.74542346E+03</pdfrwt>
<totfact> 0.10892803E+01</totfact>
</mgrwt>
</event>
<event>
 4    1  0.1521315E-007  0.6673108E+03  0.7818608E-02  0.1017669E+00
         -1   -1    0    0    0  501 -0.00000000000E+00  0.00000000000E+00  0.22581023339E+03  0.22581023345E+03  0.50400000000E-02 0.  1.
          1   -1    0    0  501    0  0.00000000000E+00 -0.00000000000E+00 -0.11037891201E+04  0.11037891201E+04  0.50400000000E-02 0. -1.
    8880023    1    1    2    0    0  0.50621496698E+01 -0.10708828744E+03 -0.92157148075E+03  0.11378039054E+04  0.65864270000E+03 0. -1.
    8880022    1    1    2    0    0 -0.50621496698E+01  0.10708828744E+03  0.43592594064E+02  0.19179544817E+03  0.15294330000E+03 0.  0.
<mgrwt>
<rscale>  0 0.48537371E+03</rscale>
<asrwt>0</asrwt>
<pdfrwt beam="1">  1        1 0.16981371E+00 0.66731082E+03</pdfrwt>
<pdfrwt beam="2">  1       -1 0.34740036E-01 0.66731082E+03</pdfrwt>
<totfact> 0.10172412E+02</totfact>
</mgrwt>
</event>
<event>
 4    1  0.1521315E-007  0.7365506E+03  0.7818608E-02  0.9870111E-01
         -1   -1    0    0    0  501 -0.00000000000E+00  0.00000000000E+00  0.10711696036E+03  0.10711696048E+03  0.50400000000E-02 0.  1.
          1   -1    0    0  501    0  0.00000000000E+00 -0.00000000000E+00 -0.33607745643E+04  0.33607745643E+04  0.50400000000E-02 0. -1.
    8880023    1    1    2    0    0  0.10823705939E+03  0.31141817194E+03 -0.27491409549E+04  0.28460995652E+04  0.65864270000E+03 0. -1.
    8880022    1    1    2    0    0 -0.10823705939E+03 -0.31141817194E+03 -0.50451664903E+03  0.62179195959E+03  0.15294330000E+03 0. -1.
<mgrwt>
<rscale>  0 0.61731940E+03</rscale>
<asrwt>0</asrwt>
<pdfrwt beam="1">  1        1 0.51704216E+00 0.73655057E+03</pdfrwt>
<pdfrwt beam="2">  1       -1 0.16479535E-01 0.73655057E+03</pdfrwt>
<totfact> 0.97129739E+00</totfact>
</mgrwt>
</event>
<event>
 4    1  0.1521315E-007  0.8513906E+03  0.7818608E-02  0.9609065E-01
          1   -1    0    0  501    0  0.00000000000E+00  0.00000000000E+00  0.94056015477E+03  0.94056015479E+03  0.50400000000E-02 0. -1.
         -1   -1    0    0    0  501 -0.00000000000E+00 -0.00000000000E+00 -0.80816976895E+03  0.80816976897E+03  0.50400000000E-02 0.  1.
    8880023    1    1    2    0    0 -0.16815236482E+03  0.51262130671E+03  0.58088867375E+03  0.10306782618E+04  0.65864270000E+03 0.  0.
    8880022    1    1    2    0    0  0.16815236482E+03 -0.51262130671E+03 -0.44849828793E+03  0.71805166191E+03  0.15294330000E+03 0.  0.
<mgrwt>
<rscale>  0 0.76699083E+03</rscale>
<asrwt>0</asrwt>
<pdfrwt beam="1">  1        1 0.14470156E+00 0.85139064E+03</pdfrwt>
<pdfrwt beam="2">  1       -1 0.12433381E+00 0.85139064E+03</pdfrwt>
<totfact> 0.97457072E+00</totfact>
</mgrwt>
</event>
<event>
 4    1  0.1521315E-007  0.6861451E+03  0.7818608E-02  0.1006041E+00
          1   -1    0    0  501    0  0.00000000000E+00  0.00000000000E+00  0.77948365934E+03  0.77948365936E+03  0.50400000000E-02 0. -1.
         -1   -1    0    0    0  501 -0.00000000000E+00 -0.00000000000E+00 -0.62710118218E+03  0.62710118220E+03  0.50400000000E-02 0.  1.
    8880023    1    1    2    0    0 -0.19203051391E+03  0.10449722973E+02  0.58985200615E+03  0.90483175807E+03  0.65864270000E+03 0. -1.
    8880022    1    1    2    0    0  0.19203051391E+03 -0.10449722973E+02 -0.43746952899E+03  0.50175308349E+03  0.15294330000E+03 0.  0.
<mgrwt>
<rscale>  0 0.53078732E+03</rscale>
<asrwt>0</asrwt>
<pdfrwt beam="1">  1        1 0.11992056E+00 0.68614512E+03</pdfrwt>
<pdfrwt beam="2">  1       -1 0.96477106E-01 0.68614512E+03</pdfrwt>
<totfact> 0.24644226E+01</totfact>
</mgrwt>
</event>
<event>
 4    1  0.1521315E-007  0.7797576E+03  0.7818608E-02  0.9756407E-01
          1   -1    0    0  501    0  0.00000000000E+00  0.00000000000E+00  0.11554671404E+04  0.11554671404E+04  0.50400000000E-02 0. -1.
         -1   -1    0    0    0  501 -0.00000000000E+00 -0.00000000000E+00 -0.32926795196E+03  0.32926795200E+03  0.50400000000E-02 0.  1.
    8880023    1    1    2    0    0  0.17185718665E+03 -0.38036411676E+03  0.61226551557E+03  0.99140860484E+03  0.65864270000E+03 0.  0.
    8880022    1    1    2    0    0 -0.17185718665E+03  0.38036411676E+03  0.21393367286E+03  0.49332648756E+03  0.15294330000E+03 0.  0.
<mgrwt>
<rscale>  0 0.67755418E+03</rscale>
<asrwt>0</asrwt>
<pdfrwt beam="1">  1        1 0.17776418E+00 0.77975763E+03</pdfrwt>
<pdfrwt beam="2">  1       -1 0.50656608E-01 0.77975763E+03</pdfrwt>
<totfact> 0.46139475E+01</totfact>
</mgrwt>
</event>
<event>
 4    1  0.1521315E-007  0.7846617E+03  0.7818608E-02  0.9744998E-01
          1   -1    0    0  501    0  0.00000000000E+00  0.00000000000E+00  0.89054174195E+03  0.89054174197E+03  0.50400000000E-02 0. -1.
         -1   -1    0    0    0  501 -0.00000000000E+00 -0.00000000000E+00 -0.58258900292E+03  0.58258900294E+03  0.50400000000E-02 0.  1.
    8880023    1    1    2    0    0 -0.21057155627E+03  0.37086841543E+03  0.55117639744E+03  0.95890009345E+03  0.65864270000E+03 0.  0.
    8880022    1    1    2    0    0  0.21057155627E+03 -0.37086841543E+03 -0.24322365840E+03  0.51423065145E+03  0.15294330000E+03 0.  0.
<mgrwt>
<rscale>  0 0.68399662E+03</rscale>
<asrwt>0</asrwt>
<pdfrwt beam="1">  1        1 0.13700642E+00 0.78466169E+03</pdfrwt>
<pdfrwt beam="2">  1       -1 0.89629077E-01 0.78466169E+03</pdfrwt>
<totfact> 0.23114380E+01</totfact>
</mgrwt>
</event>
<event>
 4    1  0.1521315E-007  0.1300815E+04  0.7818608E-02  0.9064857E-01
         -1   -1    0    0    0  501 -0.00000000000E+00  0.00000000000E+00  0.96303395912E+03  0.96303395914E+03  0.50400000000E-02 0.  1.
          1   -1    0    0  501    0  0.00000000000E+00 -0.00000000000E+00 -0.25000910667E+04  0.25000910667E+04  0.50400000000E-02 0. -1.
    8880023    1    1    2    0    0  0.10593826958E+04  0.36880486413E+03  0.27207198532E+03  0.13289627893E+04  0.65864270000E+03 0.  1.
    8880022    1    1    2    0    0 -0.10593826958E+04 -0.36880486413E+03 -0.18091290928E+04  0.21341622365E+04  0.15294330000E+03 0.  0.
<mgrwt>
<rscale>  0 0.12564202E+04</rscale>
<asrwt>0</asrwt>
<pdfrwt beam="1">  1        1 0.38462939E+00 0.13008147E+04</pdfrwt>
<pdfrwt beam="2">  1       -1 0.14815907E+00 0.13008147E+04</pdfrwt>
<totfact> 0.47557826E-01</totfact>
</mgrwt>
</event>
<event>
 4    1  0.1521315E-007  0.7821781E+03  0.7818608E-02  0.9750745E-01
          1   -1    0    0  501    0  0.00000000000E+00  0.00000000000E+00  0.10119218442E+04  0.10119218443E+04  0.50400000000E-02 0. -1.
         -1   -1    0    0    0  501 -0.00000000000E+00 -0.00000000000E+00 -0.37659903418E+03  0.37659903422E+03  0.50400000000E-02 0.  1.
    8880023    1    1    2    0    0  0.42052963556E+03 -0.33870605037E+02  0.45498062072E+03  0.90488118765E+03  0.65864270000E+03 0.  0.
    8880022    1    1    2    0    0 -0.42052963556E+03  0.33870605037E+02  0.18034218934E+03  0.48363969082E+03  0.15294330000E+03 0. -1.
<mgrwt>
<rscale>  0 0.68074173E+03</rscale>
<asrwt>0</asrwt>
<pdfrwt beam="1">  1        1 0.15568028E+00 0.78217811E+03</pdfrwt>
<pdfrwt beam="2">  1       -1 0.57938313E-01 0.78217811E+03</pdfrwt>
<totfact> 0.45655450E+01</totfact>
</mgrwt>
</event>
<event>
 4    1  0.1521315E-007  0.8238880E+03  0.7818608E-02  0.9661344E-01
         -1   -1    0    0    0  501 -0.00000000000E+00  0.00000000000E+00  0.26012365356E+03  0.26012365361E+03  0.50400000000E-02 0.  1.
          1   -1    0    0  501    0  0.00000000000E+00 -0.00000000000E+00 -0.45487861920E+04  0.45487861920E+04  0.50400000000E-02 0. -1.
    8880023    1    1    2    0    0  0.45689380601E+03  0.19033989244E+03 -0.42040234397E+04  0.42839939907E+04  0.65864270000E+03 0. -1.
    8880022    1    1    2    0    0 -0.45689380601E+03 -0.19033989244E+03 -0.84639098671E+02  0.52491585484E+03  0.15294330000E+03 0.  0.
<mgrwt>
<rscale>  0 0.73365767E+03</rscale>
<asrwt>0</asrwt>
<pdfrwt beam="1">  1        1 0.69981320E+00 0.82388800E+03</pdfrwt>
<pdfrwt beam="2">  1       -1 0.40019027E-01 0.82388800E+03</pdfrwt>
<totfact> 0.19497265E-01</totfact>
</mgrwt>
</event>
<event>
 4    1  0.1521315E-007  0.7552715E+03  0.7818608E-02  0.9817506E-01
          1   -1    0    0  501    0  0.00000000000E+00  0.00000000000E+00  0.28522522476E+03  0.28522522480E+03  0.50400000000E-02 0. -1.
         -1   -1    0    0    0  501 -0.00000000000E+00 -0.00000000000E+00 -0.12784621748E+04  0.12784621748E+04  0.50400000000E-02 0.  1.
    8880023    1    1    2    0    0  0.16541516845E+02 -0.36925768857E+03 -0.85414435760E+03  0.11401743955E+04  0.65864270000E+03 0.  1.
    8880022    1    1    2    0    0 -0.16541516845E+02  0.36925768857E+03 -0.13909259246E+03  0.42351300410E+03  0.15294330000E+03 0.  0.
<mgrwt>
<rscale>  0 0.64431454E+03</rscale>
<asrwt>0</asrwt>
<pdfrwt beam="1">  1        1 0.43880804E-01 0.75527152E+03</pdfrwt>
<pdfrwt beam="2">  1       -1 0.19668649E+00 0.75527152E+03</pdfrwt>
<totfact> 0.15270484E+01</totfact>
</mgrwt>
</event>
<event>
 4    1  0.1521315E-007  0.9058675E+03  0.7818608E-02  0.9516677E-01
         -1   -1    0    0    0  501 -0.00000000000E+00  0.00000000000E+00  0.39751335786E+03  0.39751335789E+03  0.50400000000E-02 0.  1.
          1   -1    0    0  501    0  0.00000000000E+00 -0.00000000000E+00 -0.17087440361E+04  0.17087440361E+04  0.50400000000E-02 0. -1.
    8880023    1    1    2    0    0 -0.25591933513E+03 -0.56682543865E+03 -0.11146234489E+04  0.14363082619E+04  0.65864270000E+03 0. -1.
    8880022    1    1    2    0    0  0.25591933513E+03  0.56682543865E+03 -0.19660722934E+03  0.66994913213E+03  0.15294330000E+03 0.  0.
<mgrwt>
<rscale>  0 0.83065368E+03</rscale>
<asrwt>0</asrwt>
<pdfrwt beam="1">  1        1 0.26288369E+00 0.90586753E+03</pdfrwt>
<pdfrwt beam="2">  1       -1 0.61155902E-01 0.90586753E+03</pdfrwt>
<totfact> 0.12985669E+01</totfact>
</mgrwt>
</event>
<event>
 4    1  0.1521315E-007  0.1002794E+04  0.7818608E-02  0.9377911E-01
         -1   -1    0    0    0  501 -0.00000000000E+00  0.00000000000E+00  0.11202296494E+04  0.11202296494E+04  0.50400000000E-02 0.  1.
          1   -1    0    0  501    0  0.00000000000E+00 -0.00000000000E+00 -0.73413761256E+03  0.73413761258E+03  0.50400000000E-02 0. -1.
    8880023    1    1    2    0    0  0.41888683108E+03 -0.62953904211E+03  0.40790583963E+03  0.10825816196E+04  0.65864270000E+03 0.  0.
    8880022    1    1    2    0    0 -0.41888683108E+03  0.62953904211E+03 -0.21813802801E+02  0.77178564239E+03  0.15294330000E+03 0.  0.
<mgrwt>
<rscale>  0 0.93915999E+03</rscale>
<asrwt>0</asrwt>
<pdfrwt beam="1">  1        1 0.11294425E+00 0.10027940E+04</pdfrwt>
<pdfrwt beam="2">  1       -1 0.17234302E+00 0.10027940E+04</pdfrwt>
<totfact> 0.60043351E+00</totfact>
</mgrwt>
</event>
<event>
 4    1  0.1521315E-007  0.6706819E+03  0.7818608E-02  0.1015179E+00
         -1   -1    0    0    0  501 -0.00000000000E+00  0.00000000000E+00  0.21786758583E+03  0.21786758589E+03  0.50400000000E-02 0.  1.
          1   -1    0    0  501    0  0.00000000000E+00 -0.00000000000E+00 -0.13119299238E+04  0.13119299239E+04  0.50400000000E-02 0. -1.
    8880023    1    1    2    0    0  0.72228466592E+02 -0.10386077929E+03 -0.11431173131E+04  0.13253419976E+04  0.65864270000E+03 0. -1.
    8880022    1    1    2    0    0 -0.72228466592E+02  0.10386077929E+03  0.49054975054E+02  0.20445551216E+03  0.15294330000E+03 0.  1.
<mgrwt>
<rscale>  0 0.49467333E+03</rscale>
<asrwt>0</asrwt>
<pdfrwt beam="1">  1        1 0.20183537E+00 0.67068191E+03</pdfrwt>
<pdfrwt beam="2">  1       -1 0.33518091E-01 0.67068191E+03</pdfrwt>
<totfact> 0.76688350E+01</totfact>
</mgrwt>
</event>
<event>
 4    1  0.1521315E-007  0.8869622E+03  0.7818608E-02  0.9547294E-01
          1   -1    0    0  501    0  0.00000000000E+00  0.00000000000E+00  0.61108551616E+03  0.61108551618E+03  0.50400000000E-02 0. -1.
         -1   -1    0    0    0  501 -0.00000000000E+00 -0.00000000000E+00 -0.10203938641E+04  0.10203938642E+04  0.50400000000E-02 0.  1.
    8880023    1    1    2    0    0  0.47223644218E+03 -0.36039482729E+03 -0.48912419039E+03  0.10128891197E+04  0.65864270000E+03 0.  1.
    8880022    1    1    2    0    0 -0.47223644218E+03  0.36039482729E+03  0.79815842408E+02  0.61859026066E+03  0.15294330000E+03 0.  0.
<mgrwt>
<rscale>  0 0.80885039E+03</rscale>
<asrwt>0</asrwt>
<pdfrwt beam="1">  1        1 0.94013157E-01 0.88696217E+03</pdfrwt>
<pdfrwt beam="2">  1       -1 0.15698367E+00 0.88696217E+03</pdfrwt>
<totfact> 0.10419924E+01</totfact>
</mgrwt>
</event>
<event>
 4    1  0.1521315E-007  0.6695713E+03  0.7818608E-02  0.1015972E+00
          1   -1    0    0  501    0  0.00000000000E+00  0.00000000000E+00  0.13101940634E+04  0.13101940634E+04  0.50400000000E-02 0. -1.
         -1   -1    0    0    0  501 -0.00000000000E+00 -0.00000000000E+00 -0.19512022689E+03  0.19512022696E+03  0.50400000000E-02 0.  1.
    8880023    1    1    2    0    0 -0.10075433515E+02 -0.12005849293E+03  0.11262961511E+04  0.13102933955E+04  0.65864270000E+03 0. -1.
    8880022    1    1    2    0    0  0.10075433515E+02  0.12005849293E+03 -0.11222314551E+02  0.19502089489E+03  0.15294330000E+03 0.  0.
<mgrwt>
<rscale>  0 0.49168602E+03</rscale>
<asrwt>0</asrwt>
<pdfrwt beam="1">  1        1 0.20156831E+00 0.66957133E+03</pdfrwt>
<pdfrwt beam="2">  1       -1 0.30018497E-01 0.66957133E+03</pdfrwt>
<totfact> 0.93315256E+01</totfact>
</mgrwt>
</event>
<event>
 4    1  0.1521315E-007  0.6873465E+03  0.7818608E-02  0.1005440E+00
          1   -1    0    0  501    0  0.00000000000E+00  0.00000000000E+00  0.11239037605E+04  0.11239037605E+04  0.50400000000E-02 0. -1.
         -1   -1    0    0    0  501 -0.00000000000E+00 -0.00000000000E+00 -0.19667917076E+03  0.19667917082E+03  0.50400000000E-02 0.  1.
    8880023    1    1    2    0    0  0.97955406756E+02 -0.17041035173E+03  0.73208035875E+03  0.10041846482E+04  0.65864270000E+03 0.  0.
    8880022    1    1    2    0    0 -0.97955406756E+02  0.17041035173E+03  0.19514423101E+03  0.31639828318E+03  0.15294330000E+03 0.  1.
<mgrwt>
<rscale>  0 0.53327844E+03</rscale>
<asrwt>0</asrwt>
<pdfrwt beam="1">  1        1 0.17290827E+00 0.68734646E+03</pdfrwt>
<pdfrwt beam="2">  1       -1 0.30258334E-01 0.68734646E+03</pdfrwt>
<totfact> 0.12509698E+02</totfact>
</mgrwt>
</event>
<event>
 4    1  0.1521315E-007  0.7255487E+03  0.7818608E-02  0.9904239E-01
         -1   -1    0    0    0  501 -0.00000000000E+00  0.00000000000E+00  0.11813111593E+04  0.11813111594E+04  0.50400000000E-02 0.  1.
          1   -1    0    0  501    0  0.00000000000E+00 -0.00000000000E+00 -0.27753798931E+03  0.27753798936E+03  0.50400000000E-02 0. -1.
    8880023    1    1    2    0    0  0.24442097381E+03 -0.18129845566E+03  0.84409912835E+03  0.11130697585E+04  0.65864270000E+03 0.  1.
    8880022    1    1    2    0    0 -0.24442097381E+03  0.18129845566E+03  0.59674041694E+02  0.34577939026E+03  0.15294330000E+03 0. -1.
<mgrwt>
<rscale>  0 0.60056263E+03</rscale>
<asrwt>0</asrwt>
<pdfrwt beam="1">  1        1 0.42698152E-01 0.72554872E+03</pdfrwt>
<pdfrwt beam="2">  1       -1 0.18174018E+00 0.72554872E+03</pdfrwt>
<totfact> 0.20182390E+01</totfact>
</mgrwt>
</event>
<event>
 4    1  0.1521315E-007  0.6627582E+03  0.7818608E-02  0.1021493E+00
         -1   -1    0    0    0  501 -0.00000000000E+00  0.00000000000E+00  0.41664022977E+03  0.41664022980E+03  0.50400000000E-02 0.  1.
          1   -1    0    0  501    0  0.00000000000E+00 -0.00000000000E+00 -0.75180091327E+03  0.75180091329E+03  0.50400000000E-02 0. -1.
    8880023    1    1    2    0    0  0.20941944900E+02  0.70708299535E+02 -0.57306662489E+03  0.87615854245E+03  0.65864270000E+03 0. -1.
    8880022    1    1    2    0    0 -0.20941944900E+02 -0.70708299535E+02  0.23790594138E+03  0.29228260064E+03  0.15294330000E+03 0.  0.
<mgrwt>
<rscale>  0 0.47151628E+03</rscale>
<asrwt>0</asrwt>
<pdfrwt beam="1">  1        1 0.11566168E+00 0.66275820E+03</pdfrwt>
<pdfrwt beam="2">  1       -1 0.64098497E-01 0.66275820E+03</pdfrwt>
<totfact> 0.62012111E+01</totfact>
</mgrwt>
</event>
<event>
 4    1  0.1521315E-007  0.6862340E+03  0.7818608E-02  0.1005996E+00
          1   -1    0    0  501    0  0.00000000000E+00  0.00000000000E+00  0.79025418042E+03  0.79025418044E+03  0.50400000000E-02 0. -1.
         -1   -1    0    0    0  501 -0.00000000000E+00 -0.00000000000E+00 -0.93457020781E+03  0.93457020782E+03  0.50400000000E-02 0.  1.
    8880023    1    1    2    0    0  0.49873506266E+02 -0.18606312342E+03  0.61819491355E+03  0.92362438790E+03  0.65864270000E+03 0. -1.
    8880022    1    1    2    0    0 -0.49873506266E+02  0.18606312342E+03 -0.76251094093E+03  0.80120000036E+03  0.15294330000E+03 0.  0.
<mgrwt>
<rscale>  0 0.53097276E+03</rscale>
<asrwt>0</asrwt>
<pdfrwt beam="1">  1        1 0.12157757E+00 0.68623397E+03</pdfrwt>
<pdfrwt beam="2">  1       -1 0.14378003E+00 0.68623397E+03</pdfrwt>
<totfact> 0.91722618E+00</totfact>
</mgrwt>
</event>
<event>
 4    1  0.1805762E-007  0.9157810E+03  0.7818608E-02  0.9501159E-01
         -1   -1    0    0    0  501 -0.00000000000E+00  0.00000000000E+00  0.11701207506E+04  0.11701207506E+04  0.50400000000E-02 0.  1.
          1   -1    0    0  501    0  0.00000000000E+00 -0.00000000000E+00 -0.21397427869E+04  0.21397427869E+04  0.50400000000E-02 0. -1.
    8880023    1    1    2    0    0  0.57181113937E+03  0.27906383074E+03 -0.19366312289E+04  0.21422407250E+04  0.65864270000E+03 0. -1.
    8880022    1    1    2    0    0 -0.57181113937E+03 -0.27906383074E+03  0.96700919256E+03  0.11676228125E+04  0.15294330000E+03 0.  0.
<mgrwt>
<rscale>  0 0.84198459E+03</rscale>
<asrwt>0</asrwt>
<pdfrwt beam="1">  1        1 0.32919120E+00 0.91578098E+03</pdfrwt>
<pdfrwt beam="2">  1       -1 0.18001858E+00 0.91578098E+03</pdfrwt>
<totfact> 0.51271954E-01</totfact>
</mgrwt>
</event>
<event>
 4    1  0.1521315E-007  0.1128848E+04  0.7818608E-02  0.9229598E-01
         -1   -1    0    0    0  501 -0.00000000000E+00  0.00000000000E+00  0.10603132549E+04  0.10603132549E+04  0.50400000000E-02 0.  1.
          1   -1    0    0  501    0  0.00000000000E+00 -0.00000000000E+00 -0.19896778075E+04  0.19896778075E+04  0.50400000000E-02 0. -1.
    8880023    1    1    2    0    0  0.74391283559E+03 -0.53579887115E+03 -0.15608750293E+04  0.19262989905E+04  0.65864270000E+03 0.  0.
    8880022    1    1    2    0    0 -0.74391283559E+03  0.53579887115E+03  0.63151047675E+03  0.11236920719E+04  0.15294330000E+03 0.  0.
<mgrwt>
<rscale>  0 0.10753085E+04</rscale>
<asrwt>0</asrwt>
<pdfrwt beam="1">  1        1 0.30610428E+00 0.11288476E+04</pdfrwt>
<pdfrwt beam="2">  1       -1 0.16312512E+00 0.11288476E+04</pdfrwt>
<totfact> 0.83142263E-01</totfact>
</mgrwt>
</event>
<event>
 4    1  0.4635072E-007  0.8441614E+03  0.7818608E-02  0.9622383E-01
          1   -1    0    0  501    0  0.00000000000E+00  0.00000000000E+00  0.23125912423E+04  0.23125912423E+04  0.50400000000E-02 0. -1.
         -1   -1    0    0    0  501 -0.00000000000E+00 -0.00000000000E+00 -0.17046620462E+04  0.17046620462E+04  0.50400000000E-02 0.  1.
    8880023    1    1    2    0    0 -0.28693675207E+03  0.44324427012E+03  0.21875153197E+04  0.23447455433E+04  0.65864270000E+03 0. -1.
    8880022    1    1    2    0    0  0.28693675207E+03 -0.44324427012E+03 -0.15795861236E+04  0.16725077452E+04  0.15294330000E+03 0.  0.
<mgrwt>
<rscale>  0 0.75832274E+03</rscale>
<asrwt>0</asrwt>
<pdfrwt beam="1">  1        1 0.35578327E+00 0.84416135E+03</pdfrwt>
<pdfrwt beam="2">  1       -1 0.26225570E+00 0.84416135E+03</pdfrwt>
<totfact> 0.11203052E-01</totfact>
</mgrwt>
</event>
<event>
 4    1  0.1521315E-007  0.8596511E+03  0.7818608E-02  0.9594184E-01
         -1   -1    0    0    0  501 -0.00000000000E+00  0.00000000000E+00  0.10490134038E+04  0.10490134038E+04  0.50400000000E-02 0.  1.
          1   -1    0    0  501    0  0.00000000000E+00 -0.00000000000E+00 -0.90768358933E+03  0.90768358934E+03  0.50400000000E-02 0. -1.
    8880023    1    1    2    0    0 -0.30837472324E+03 -0.45836106645E+03 -0.57875165040E+03  0.10363172855E+04  0.65864270000E+03 0. -1.
    8880022    1    1    2    0    0  0.30837472324E+03  0.45836106645E+03  0.72008146489E+03  0.92037970766E+03  0.15294330000E+03 0.  0.
<mgrwt>
<rscale>  0 0.77682297E+03</rscale>
<asrwt>0</asrwt>
<pdfrwt beam="1">  1        1 0.13964363E+00 0.85965112E+03</pdfrwt>
<pdfrwt beam="2">  1       -1 0.16138668E+00 0.85965112E+03</pdfrwt>
<totfact> 0.52173269E+00</totfact>
</mgrwt>
</event>
<event>
 4    1  0.1521315E-007  0.7364622E+03  0.7818608E-02  0.9870375E-01
         -1   -1    0    0    0  501 -0.00000000000E+00  0.00000000000E+00  0.53770669414E+03  0.53770669417E+03  0.50400000000E-02 0.  1.
          1   -1    0    0  501    0  0.00000000000E+00 -0.00000000000E+00 -0.14698276482E+04  0.14698276482E+04  0.50400000000E-02 0. -1.
    8880023    1    1    2    0    0 -0.30098303163E+03  0.13407300234E+03 -0.12977324935E+04  0.14921414766E+04  0.65864270000E+03 0. -1.
    8880022    1    1    2    0    0  0.30098303163E+03 -0.13407300234E+03  0.36561153944E+03  0.51539286576E+03  0.15294330000E+03 0.  0.
<mgrwt>
<rscale>  0 0.61718777E+03</rscale>
<asrwt>0</asrwt>
<pdfrwt beam="1">  1        1 0.22612733E+00 0.73646219E+03</pdfrwt>
<pdfrwt beam="2">  1       -1 0.82724107E-01 0.73646219E+03</pdfrwt>
<totfact> 0.10365740E+01</totfact>
</mgrwt>
</event>
<event>
 4    1  0.3045182E-007  0.8066420E+03  0.7818608E-02  0.9696615E-01
         -1   -1    0    0    0  501 -0.00000000000E+00  0.00000000000E+00  0.12334340594E+04  0.12334340594E+04  0.50400000000E-02 0.  1.
          1   -1    0    0  501    0  0.00000000000E+00 -0.00000000000E+00 -0.22655739129E+04  0.22655739129E+04  0.50400000000E-02 0. -1.
    8880023    1    1    2    0    0  0.12886755720E+02 -0.46550507070E+03 -0.21403140764E+04  0.22872725223E+04  0.65864270000E+03 0. -1.
    8880022    1    1    2    0    0 -0.12886755720E+02  0.46550507070E+03  0.11081742229E+04  0.12117354499E+04  0.15294330000E+03 0.  0.
<mgrwt>
<rscale>  0 0.71218716E+03</rscale>
<asrwt>0</asrwt>
<pdfrwt beam="1">  1        1 0.34854983E+00 0.80664196E+03</pdfrwt>
<pdfrwt beam="2">  1       -1 0.18975909E+00 0.80664196E+03</pdfrwt>
<totfact> 0.36813913E-01</totfact>
</mgrwt>
</event>
<event>
 4    1  0.1521315E-007  0.6602083E+03  0.7818608E-02  0.1023944E+00
         -1   -1    0    0    0  501 -0.00000000000E+00  0.00000000000E+00  0.77185715683E+03  0.77185715685E+03  0.50400000000E-02 0.  1.
          1   -1    0    0  501    0  0.00000000000E+00 -0.00000000000E+00 -0.14026252348E+04  0.14026252348E+04  0.50400000000E-02 0. -1.
    8880023    1    1    2    0    0 -0.15836458574E+01  0.45412271784E+02 -0.13152498497E+04  0.14716511665E+04  0.65864270000E+03 0. -1.
    8880022    1    1    2    0    0  0.15836458574E+01 -0.45412271784E+02  0.68448177169E+03  0.70283122523E+03  0.15294330000E+03 0.  0.
<mgrwt>
<rscale>  0 0.46289813E+03</rscale>
<asrwt>0</asrwt>
<pdfrwt beam="1">  1        1 0.21578850E+00 0.66020829E+03</pdfrwt>
<pdfrwt beam="2">  1       -1 0.11874725E+00 0.66020829E+03</pdfrwt>
<totfact> 0.51369514E+00</totfact>
</mgrwt>
</event>
<event>
 4    1  0.1521315E-007  0.6814009E+03  0.7818608E-02  0.1008542E+00
         -1   -1    0    0    0  501 -0.00000000000E+00  0.00000000000E+00  0.89677898360E+03  0.89677898361E+03  0.50400000000E-02 0.  1.
          1   -1    0    0  501    0  0.00000000000E+00 -0.00000000000E+00 -0.35236113826E+03  0.35236113829E+03  0.50400000000E-02 0. -1.
    8880023    1    1    2    0    0  0.17408103498E+03 -0.13886674269E+02  0.26887924840E+02  0.68193123790E+03  0.65864270000E+03 0. -1.
    8880022    1    1    2    0    0 -0.17408103498E+03  0.13886674269E+02  0.51752992050E+03  0.56720888400E+03  0.15294330000E+03 0.  0.
<mgrwt>
<rscale>  0 0.52058214E+03</rscale>
<asrwt>0</asrwt>
<pdfrwt beam="1">  1        1 0.54209406E-01 0.68140095E+03</pdfrwt>
<pdfrwt beam="2">  1       -1 0.13796600E+00 0.68140095E+03</pdfrwt>
<totfact> 0.31829314E+01</totfact>
</mgrwt>
</event>
<event>
 4    1  0.1521315E-007  0.7201002E+03  0.7818608E-02  0.9922247E-01
         -1   -1    0    0    0  501 -0.00000000000E+00  0.00000000000E+00  0.75004106510E+03  0.75004106511E+03  0.50400000000E-02 0.  1.
          1   -1    0    0  501    0  0.00000000000E+00 -0.00000000000E+00 -0.10153055376E+04  0.10153055376E+04  0.50400000000E-02 0. -1.
    8880023    1    1    2    0    0 -0.12552755935E+03 -0.26263471430E+03 -0.83802201182E+03  0.11049096162E+04  0.65864270000E+03 0. -1.
    8880022    1    1    2    0    0  0.12552755935E+03  0.26263471430E+03  0.57275753934E+03  0.66043698655E+03  0.15294330000E+03 0.  0.
<mgrwt>
<rscale>  0 0.59195119E+03</rscale>
<asrwt>0</asrwt>
<pdfrwt beam="1">  1        1 0.15620085E+00 0.72010025E+03</pdfrwt>
<pdfrwt beam="2">  1       -1 0.11539093E+00 0.72010025E+03</pdfrwt>
<totfact> 0.10391642E+01</totfact>
</mgrwt>
</event>
<event>
 4    1  0.1521315E-007  0.1471119E+04  0.7818608E-02  0.8930304E-01
         -1   -1    0    0    0  501 -0.00000000000E+00  0.00000000000E+00  0.87205539719E+03  0.87205539721E+03  0.50400000000E-02 0.  1.
          1   -1    0    0  501    0  0.00000000000E+00 -0.00000000000E+00 -0.22677945231E+04  0.22677945231E+04  0.50400000000E-02 0. -1.
    8880023    1    1    2    0    0 -0.11164894811E+04  0.69557986859E+03 -0.56118546943E+03  0.15745219759E+04  0.65864270000E+03 0.  1.
    8880022    1    1    2    0    0  0.11164894811E+04 -0.69557986859E+03 -0.83455365644E+03  0.15653279444E+04  0.15294330000E+03 0. -1.
<mgrwt>
<rscale>  0 0.14329546E+04</rscale>
<asrwt>0</asrwt>
<pdfrwt beam="1">  1        1 0.34889146E+00 0.14711187E+04</pdfrwt>
<pdfrwt beam="2">  1       -1 0.13416237E+00 0.14711187E+04</pdfrwt>
<totfact> 0.87478645E-01</totfact>
</mgrwt>
</event>
<event>
 4    1  0.1521315E-007  0.7326881E+03  0.7818608E-02  0.9881782E-01
         -1   -1    0    0    0  501 -0.00000000000E+00  0.00000000000E+00  0.13168954367E+04  0.13168954367E+04  0.50400000000E-02 0.  1.
          1   -1    0    0  501    0  0.00000000000E+00 -0.00000000000E+00 -0.62843576849E+03  0.62843576851E+03  0.50400000000E-02 0. -1.
    8880023    1    1    2    0    0 -0.16621364354E+03 -0.27458084130E+03 -0.37566437806E+03  0.82338055898E+03  0.65864270000E+03 0.  0.
    8880022    1    1    2    0    0  0.16621364354E+03  0.27458084130E+03  0.10641240462E+04  0.11219506462E+04  0.15294330000E+03 0.  1.
<mgrwt>
<rscale>  0 0.61152389E+03</rscale>
<asrwt>0</asrwt>
<pdfrwt beam="1">  1        1 0.96682427E-01 0.73268808E+03</pdfrwt>
<pdfrwt beam="2">  1       -1 0.20259930E+00 0.73268808E+03</pdfrwt>
<totfact> 0.48049324E+00</totfact>
</mgrwt>
</event>
<event>
 4    1  0.1521315E-007  0.7362011E+03  0.7818608E-02  0.9871154E-01
         -1   -1    0    0    0  501 -0.00000000000E+00  0.00000000000E+00  0.14379679228E+04  0.14379679228E+04  0.50400000000E-02 0.  1.
          1   -1    0    0  501    0  0.00000000000E+00 -0.00000000000E+00 -0.59035152297E+03  0.59035152300E+03  0.50400000000E-02 0. -1.
    8880023    1    1    2    0    0  0.77318997900E+02  0.31969302659E+03 -0.32215337032E+03  0.80360118153E+03  0.65864270000E+03 0. -1.
    8880022    1    1    2    0    0 -0.77318997900E+02 -0.31969302659E+03  0.11697697702E+04  0.12247182643E+04  0.15294330000E+03 0.  0.
<mgrwt>
<rscale>  0 0.61679864E+03</rscale>
<asrwt>0</asrwt>
<pdfrwt beam="1">  1        1 0.90823312E-01 0.73620110E+03</pdfrwt>
<pdfrwt beam="2">  1       -1 0.22122583E+00 0.73620110E+03</pdfrwt>
<totfact> 0.39420094E+00</totfact>
</mgrwt>
</event>
<event>
 4    1  0.1521315E-007  0.9228397E+03  0.7818608E-02  0.9490319E-01
          1   -1    0    0  501    0  0.00000000000E+00  0.00000000000E+00  0.21977723198E+04  0.21977723198E+04  0.50400000000E-02 0. -1.
         -1   -1    0    0    0  501 -0.00000000000E+00 -0.00000000000E+00 -0.45643282239E+03  0.45643282242E+03  0.50400000000E-02 0.  1.
    8880023    1    1    2    0    0  0.39471911252E+03  0.51187866201E+03  0.17626591923E+04  0.19896232249E+04  0.65864270000E+03 0.  0.
    8880022    1    1    2    0    0 -0.39471911252E+03 -0.51187866201E+03 -0.21319694943E+02  0.66458191731E+03  0.15294330000E+03 0.  1.
<mgrwt>
<rscale>  0 0.85001373E+03</rscale>
<asrwt>0</asrwt>
<pdfrwt beam="1">  1        1 0.33811883E+00 0.92283972E+03</pdfrwt>
<pdfrwt beam="2">  1       -1 0.70220432E-01 0.92283972E+03</pdfrwt>
<totfact> 0.45933453E+00</totfact>
</mgrwt>
</event>
<event>
 4    1  0.1521315E-007  0.6816786E+03  0.7818608E-02  0.1008390E+00
         -1   -1    0    0    0  501 -0.00000000000E+00  0.00000000000E+00  0.71756601790E+03  0.71756601792E+03  0.50400000000E-02 0.  1.
          1   -1    0    0  501    0  0.00000000000E+00 -0.00000000000E+00 -0.62588614960E+03  0.62588614963E+03  0.50400000000E-02 0. -1.
    8880023    1    1    2    0    0 -0.16826958612E+03  0.50605291141E+02 -0.40637110639E+03  0.79361403181E+03  0.65864270000E+03 0. -1.
    8880022    1    1    2    0    0  0.16826958612E+03 -0.50605291141E+02  0.49805097469E+03  0.54983813574E+03  0.15294330000E+03 0.  0.
<mgrwt>
<rscale>  0 0.52119704E+03</rscale>
<asrwt>0</asrwt>
<pdfrwt beam="1">  1        1 0.96290177E-01 0.68167863E+03</pdfrwt>
<pdfrwt beam="2">  1       -1 0.11039477E+00 0.68167863E+03</pdfrwt>
<totfact> 0.25177572E+01</totfact>
</mgrwt>
</event>
<event>
 4    1  0.1521315E-007  0.7955821E+03  0.7818608E-02  0.9720431E-01
          1   -1    0    0  501    0  0.00000000000E+00  0.00000000000E+00  0.10232207295E+04  0.10232207295E+04  0.50400000000E-02 0. -1.
         -1   -1    0    0    0  501 -0.00000000000E+00 -0.00000000000E+00 -0.76709338424E+03  0.76709338426E+03  0.50400000000E-02 0.  1.
    8880023    1    1    2    0    0 -0.44621288452E+03  0.58983947190E+01  0.75988163965E+03  0.11001686425E+04  0.65864270000E+03 0. -1.
    8880022    1    1    2    0    0  0.44621288452E+03 -0.58983947190E+01 -0.50375429440E+03  0.69014547127E+03  0.15294330000E+03 0.  0.
<mgrwt>
<rscale>  0 0.69813260E+03</rscale>
<asrwt>0</asrwt>
<pdfrwt beam="1">  1        1 0.15741857E+00 0.79558214E+03</pdfrwt>
<pdfrwt beam="2">  1       -1 0.11801437E+00 0.79558214E+03</pdfrwt>
<totfact> 0.96083442E+00</totfact>
</mgrwt>
</event>
<event>
 4    1  0.1521315E-007  0.1137517E+04  0.7818608E-02  0.9220392E-01
          1   -1    0    0  501    0  0.00000000000E+00  0.00000000000E+00  0.17430045729E+04  0.17430045729E+04  0.50400000000E-02 0. -1.
         -1   -1    0    0    0  501 -0.00000000000E+00 -0.00000000000E+00 -0.68185412589E+03  0.68185412591E+03  0.50400000000E-02 0.  1.
    8880023    1    1    2    0    0  0.58864877108E+03 -0.71667731422E+03  0.94288061297E+03  0.14774869898E+04  0.65864270000E+03 0.  0.
    8880022    1    1    2    0    0 -0.58864877108E+03  0.71667731422E+03  0.11826983405E+03  0.94737170903E+03  0.15294330000E+03 0.  0.
<mgrwt>
<rscale>  0 0.10845403E+04</rscale>
<asrwt>0</asrwt>
<pdfrwt beam="1">  1        1 0.26815454E+00 0.11375166E+04</pdfrwt>
<pdfrwt beam="2">  1       -1 0.10490064E+00 0.11375166E+04</pdfrwt>
<totfact> 0.37680726E+00</totfact>
</mgrwt>
</event>
<event>
 4    1  0.1521315E-007  0.7013479E+03  0.7818608E-02  0.9991655E-01
         -1   -1    0    0    0  501 -0.00000000000E+00  0.00000000000E+00  0.86070497603E+03  0.86070497604E+03  0.50400000000E-02 0.  1.
          1   -1    0    0  501    0  0.00000000000E+00 -0.00000000000E+00 -0.59292432455E+03  0.59292432458E+03  0.50400000000E-02 0. -1.
    8880023    1    1    2    0    0  0.17963272374E+03 -0.16065730969E+03 -0.34204568184E+03  0.78031028529E+03  0.65864270000E+03 0. -1.
    8880022    1    1    2    0    0 -0.17963272374E+03  0.16065730969E+03  0.60982633331E+03  0.67331901534E+03  0.15294330000E+03 0.  0.
<mgrwt>
<rscale>  0 0.56017674E+03</rscale>
<asrwt>0</asrwt>
<pdfrwt beam="1">  1        1 0.91219127E-01 0.70134791E+03</pdfrwt>
<pdfrwt beam="2">  1       -1 0.13241615E+00 0.70134791E+03</pdfrwt>
<totfact> 0.17419084E+01</totfact>
</mgrwt>
</event>
<event>
 4    1  0.1521315E-007  0.7015149E+03  0.7818608E-02  0.9990974E-01
         -1   -1    0    0    0  501 -0.00000000000E+00  0.00000000000E+00  0.71470165412E+03  0.71470165414E+03  0.50400000000E-02 0.  1.
          1   -1    0    0  501    0  0.00000000000E+00 -0.00000000000E+00 -0.10649219459E+04  0.10649219459E+04  0.50400000000E-02 0. -1.
    8880023    1    1    2    0    0 -0.12625443714E+03  0.20584647039E+03 -0.91123447622E+03  0.11499875778E+04  0.65864270000E+03 0. -1.
    8880022    1    1    2    0    0  0.12625443714E+03 -0.20584647039E+03  0.56101418446E+03  0.62963602220E+03  0.15294330000E+03 0.  0.
<mgrwt>
<rscale>  0 0.56047790E+03</rscale>
<asrwt>0</asrwt>
<pdfrwt beam="1">  1        1 0.16383415E+00 0.70151490E+03</pdfrwt>
<pdfrwt beam="2">  1       -1 0.10995410E+00 0.70151490E+03</pdfrwt>
<totfact> 0.10710620E+01</totfact>
</mgrwt>
</event>
<event>
 4    1  0.1521315E-007  0.7252190E+03  0.7818608E-02  0.9905307E-01
         -1   -1    0    0    0  501 -0.00000000000E+00  0.00000000000E+00  0.17824715279E+04  0.17824715280E+04  0.50400000000E-02 0.  1.
          1   -1    0    0  501    0  0.00000000000E+00 -0.00000000000E+00 -0.35655155798E+03  0.35655155801E+03  0.50400000000E-02 0. -1.
    8880023    1    1    2    0    0 -0.13443432514E+03 -0.27213919776E+03  0.55786943225E+02  0.72736147824E+03  0.65864270000E+03 0. -1.
    8880022    1    1    2    0    0  0.13443432514E+03  0.27213919776E+03  0.13701330267E+04  0.14116616077E+04  0.15294330000E+03 0.  0.
<mgrwt>
<rscale>  0 0.60004785E+03</rscale>
<asrwt>0</asrwt>
<pdfrwt beam="1">  1        1 0.54854087E-01 0.72521896E+03</pdfrwt>
<pdfrwt beam="2">  1       -1 0.27422638E+00 0.72521896E+03</pdfrwt>
<totfact> 0.35543299E+00</totfact>
</mgrwt>
</event>
<event>
 4    1  0.1521315E-007  0.8205313E+03  0.7818608E-02  0.9668044E-01
         -1   -1    0    0    0  501 -0.00000000000E+00  0.00000000000E+00  0.69058048266E+03  0.69058048268E+03  0.50400000000E-02 0.  1.
          1   -1    0    0  501    0  0.00000000000E+00 -0.00000000000E+00 -0.99292120881E+03  0.99292120882E+03  0.50400000000E-02 0. -1.
    8880023    1    1    2    0    0  0.39525884480E+03 -0.28849918095E+03 -0.66445169462E+03  0.10558255502E+04  0.65864270000E+03 0.  0.
    8880022    1    1    2    0    0 -0.39525884480E+03  0.28849918095E+03  0.36211096847E+03  0.62767614126E+03  0.15294330000E+03 0.  0.
<mgrwt>
<rscale>  0 0.72951707E+03</rscale>
<asrwt>0</asrwt>
<pdfrwt beam="1">  1        1 0.15275711E+00 0.82053125E+03</pdfrwt>
<pdfrwt beam="2">  1       -1 0.10624315E+00 0.82053125E+03</pdfrwt>
<totfact> 0.12974608E+01</totfact>
</mgrwt>
</event>
<event>
 4    1  0.1521315E-007  0.8673621E+03  0.7818608E-02  0.9580599E-01
          1   -1    0    0  501    0  0.00000000000E+00  0.00000000000E+00  0.16844667472E+04  0.16844667472E+04  0.50400000000E-02 0. -1.
         -1   -1    0    0    0  501 -0.00000000000E+00 -0.00000000000E+00 -0.48340988695E+03  0.48340988697E+03  0.50400000000E-02 0.  1.
    8880023    1    1    2    0    0  0.48991699114E+03 -0.28015749202E+03  0.13119373933E+04  0.15727354542E+04  0.65864270000E+03 0.  0.
    8880022    1    1    2    0    0 -0.48991699114E+03  0.28015749202E+03 -0.11088053306E+03  0.59514118003E+03  0.15294330000E+03 0.  0.
<mgrwt>
<rscale>  0 0.78593658E+03</rscale>
<asrwt>0</asrwt>
<pdfrwt beam="1">  1        1 0.25914872E+00 0.86736214E+03</pdfrwt>
<pdfrwt beam="2">  1       -1 0.74370754E-01 0.86736214E+03</pdfrwt>
<totfact> 0.91018086E+00</totfact>
</mgrwt>
</event>
<event>
 4    1  0.1521315E-007  0.9702555E+03  0.7818608E-02  0.9421551E-01
         -1   -1    0    0    0  501 -0.00000000000E+00  0.00000000000E+00  0.61052130208E+03  0.61052130210E+03  0.50400000000E-02 0.  1.
          1   -1    0    0  501    0  0.00000000000E+00 -0.00000000000E+00 -0.19495923560E+04  0.19495923560E+04  0.50400000000E-02 0. -1.
    8880023    1    1    2    0    0 -0.30703274276E+03 -0.64289685433E+03 -0.15255453067E+04  0.18079502646E+04  0.65864270000E+03 0.  0.
    8880022    1    1    2    0    0  0.30703274276E+03  0.64289685433E+03  0.18647425280E+03  0.75216339342E+03  0.15294330000E+03 0.  0.
<mgrwt>
<rscale>  0 0.90323145E+03</rscale>
<asrwt>0</asrwt>
<pdfrwt beam="1">  1        1 0.29993728E+00 0.97025547E+03</pdfrwt>
<pdfrwt beam="2">  1       -1 0.93926355E-01 0.97025547E+03</pdfrwt>
<totfact> 0.35936103E+00</totfact>
</mgrwt>
</event>
<event>
 4    1  0.1521315E-007  0.7355877E+03  0.7818608E-02  0.9872991E-01
          1   -1    0    0  501    0  0.00000000000E+00  0.00000000000E+00  0.12581999380E+04  0.12581999380E+04  0.50400000000E-02 0. -1.
         -1   -1    0    0    0  501 -0.00000000000E+00 -0.00000000000E+00 -0.55408592808E+03  0.55408592810E+03  0.50400000000E-02 0.  1.
    8880023    1    1    2    0    0  0.18482678316E+03  0.27040355625E+03  0.10696689232E+04  0.12981836675E+04  0.65864270000E+03 0. -1.
    8880022    1    1    2    0    0 -0.18482678316E+03 -0.27040355625E+03 -0.36555491328E+03  0.51410219863E+03  0.15294330000E+03 0.  0.
<mgrwt>
<rscale>  0 0.61588284E+03</rscale>
<asrwt>0</asrwt>
<pdfrwt beam="1">  1        1 0.19356922E+00 0.73558768E+03</pdfrwt>
<pdfrwt beam="2">  1       -1 0.85243989E-01 0.73558768E+03</pdfrwt>
<totfact> 0.13661340E+01</totfact>
</mgrwt>
</event>
<event>
 4    1  0.1521315E-007  0.6695391E+03  0.7818608E-02  0.1015995E+00
          1   -1    0    0  501    0  0.00000000000E+00  0.00000000000E+00  0.15368626209E+04  0.15368626209E+04  0.50400000000E-02 0. -1.
         -1   -1    0    0    0  501 -0.00000000000E+00 -0.00000000000E+00 -0.23841938788E+03  0.23841938793E+03  0.50400000000E-02 0.  1.
    8880023    1    1    2    0    0  0.83917910795E+02 -0.86198505173E+02  0.14028635222E+04  0.15544480262E+04  0.65864270000E+03 0. -1.
    8880022    1    1    2    0    0 -0.83917910795E+02  0.86198505173E+02 -0.10442028922E+03  0.22083398258E+03  0.15294330000E+03 0.  0.
<mgrwt>
<rscale>  0 0.49159827E+03</rscale>
<asrwt>0</asrwt>
<pdfrwt beam="1">  1        1 0.23644040E+00 0.66953910E+03</pdfrwt>
<pdfrwt beam="2">  1       -1 0.36679906E-01 0.66953910E+03</pdfrwt>
<totfact> 0.45703195E+01</totfact>
</mgrwt>
</event>
<event>
 4    1  0.1521315E-007  0.8094852E+03  0.7818608E-02  0.9690650E-01
          1   -1    0    0  501    0  0.00000000000E+00  0.00000000000E+00  0.27155435878E+04  0.27155435878E+04  0.50400000000E-02 0. -1.
         -1   -1    0    0    0  501 -0.00000000000E+00 -0.00000000000E+00 -0.21096908219E+03  0.21096908225E+03  0.50400000000E-02 0.  1.
    8880023    1    1    2    0    0  0.31159040772E+03 -0.35265784525E+03  0.22030486450E+04  0.23470597940E+04  0.65864270000E+03 0. -1.
    8880022    1    1    2    0    0 -0.31159040772E+03  0.35265784525E+03  0.30152586066E+03  0.57945287613E+03  0.15294330000E+03 0.  0.
<mgrwt>
<rscale>  0 0.71576214E+03</rscale>
<asrwt>0</asrwt>
<pdfrwt beam="1">  1        1 0.41777596E+00 0.80948523E+03</pdfrwt>
<pdfrwt beam="2">  1       -1 0.32456780E-01 0.80948523E+03</pdfrwt>
<totfact> 0.89012426E+00</totfact>
</mgrwt>
</event>
<event>
 4    1  0.1521315E-007  0.9032427E+03  0.7818608E-02  0.9520846E-01
          1   -1    0    0  501    0  0.00000000000E+00  0.00000000000E+00  0.17884193732E+04  0.17884193733E+04  0.50400000000E-02 0. -1.
         -1   -1    0    0    0  501 -0.00000000000E+00 -0.00000000000E+00 -0.42806248718E+03  0.42806248721E+03  0.50400000000E-02 0.  1.
    8880023    1    1    2    0    0  0.61544439611E+03  0.57142689043E+02  0.12915321283E+04  0.15760401442E+04  0.65864270000E+03 0.  0.
    8880022    1    1    2    0    0 -0.61544439611E+03 -0.57142689043E+02  0.68824757810E+02  0.64044171625E+03  0.15294330000E+03 0.  0.
<mgrwt>
<rscale>  0 0.82764224E+03</rscale>
<asrwt>0</asrwt>
<pdfrwt beam="1">  1        1 0.27514145E+00 0.90324266E+03</pdfrwt>
<pdfrwt beam="2">  1       -1 0.65855765E-01 0.90324266E+03</pdfrwt>
<totfact> 0.98945237E+00</totfact>
</mgrwt>
</event>
<event>
 4    1  0.1521315E-007  0.1085991E+04  0.7818608E-02  0.9276816E-01
         -1   -1    0    0    0  501 -0.00000000000E+00  0.00000000000E+00  0.43289289035E+03  0.43289289038E+03  0.50400000000E-02 0.  1.
          1   -1    0    0  501    0  0.00000000000E+00 -0.00000000000E+00 -0.43982045267E+04  0.43982045267E+04  0.50400000000E-02 0. -1.
    8880023    1    1    2    0    0  0.56864126670E+03 -0.64977896752E+03 -0.37825396822E+04  0.39353503339E+04  0.65864270000E+03 0. -1.
    8880022    1    1    2    0    0 -0.56864126670E+03  0.64977896752E+03 -0.18277195417E+03  0.89574708320E+03  0.15294330000E+03 0.  0.
<mgrwt>
<rscale>  0 0.10294550E+04</rscale>
<asrwt>0</asrwt>
<pdfrwt beam="1">  1        1 0.67664682E+00 0.10859907E+04</pdfrwt>
<pdfrwt beam="2">  1       -1 0.66598909E-01 0.10859907E+04</pdfrwt>
<totfact> 0.97962546E-02</totfact>
</mgrwt>
</event>
<event>
 4    1  0.1521315E-007  0.8115018E+03  0.7818608E-02  0.9686457E-01
         -1   -1    0    0    0  501 -0.00000000000E+00  0.00000000000E+00  0.44464163282E+03  0.44464163285E+03  0.50400000000E-02 0.  1.
          1   -1    0    0  501    0  0.00000000000E+00 -0.00000000000E+00 -0.19740371432E+04  0.19740371432E+04  0.50400000000E-02 0. -1.
    8880023    1    1    2    0    0  0.47385399751E+03 -0.13690150815E+02 -0.17068180939E+04  0.18899109088E+04  0.65864270000E+03 0. -1.
    8880022    1    1    2    0    0 -0.47385399751E+03  0.13690150815E+02  0.17742258361E+03  0.52876786719E+03  0.15294330000E+03 0.  0.
<mgrwt>
<rscale>  0 0.71828886E+03</rscale>
<asrwt>0</asrwt>
<pdfrwt beam="1">  1        1 0.30369802E+00 0.81150184E+03</pdfrwt>
<pdfrwt beam="2">  1       -1 0.68406407E-01 0.81150184E+03</pdfrwt>
<totfact> 0.69638512E+00</totfact>
</mgrwt>
</event>
<event>
 4    1  0.1521315E-007  0.8532507E+03  0.7818608E-02  0.9605684E-01
          1   -1    0    0  501    0  0.00000000000E+00  0.00000000000E+00  0.19215001649E+04  0.19215001649E+04  0.50400000000E-02 0. -1.
         -1   -1    0    0    0  501 -0.00000000000E+00 -0.00000000000E+00 -0.39823709497E+03  0.39823709501E+03  0.50400000000E-02 0.  1.
    8880023    1    1    2    0    0  0.53949469582E+03 -0.56321091438E+02  0.15348123453E+04  0.17560426343E+04  0.65864270000E+03 0.  0.
    8880022    1    1    2    0    0 -0.53949469582E+03  0.56321091438E+02 -0.11549275313E+02  0.56369462561E+03  0.15294330000E+03 0.  0.
<mgrwt>
<rscale>  0 0.76921134E+03</rscale>
<asrwt>0</asrwt>
<pdfrwt beam="1">  1        1 0.29561541E+00 0.85325072E+03</pdfrwt>
<pdfrwt beam="2">  1       -1 0.61267245E-01 0.85325072E+03</pdfrwt>
<totfact> 0.93684975E+00</totfact>
</mgrwt>
</event>
<event>
 4    1  0.1521315E-007  0.7429896E+03  0.7818608E-02  0.9851323E-01
          1   -1    0    0  501    0  0.00000000000E+00  0.00000000000E+00  0.11421763230E+04  0.11421763230E+04  0.50400000000E-02 0. -1.
         -1   -1    0    0    0  501 -0.00000000000E+00 -0.00000000000E+00 -0.27540121988E+03  0.27540121992E+03  0.50400000000E-02 0.  1.
    8880023    1    1    2    0    0  0.25868411362E+03 -0.22650808872E+03  0.53095984611E+03  0.91320969626E+03  0.65864270000E+03 0.  1.
    8880022    1    1    2    0    0 -0.25868411362E+03  0.22650808872E+03  0.33581525696E+03  0.50436784663E+03  0.15294330000E+03 0. -1.
<mgrwt>
<rscale>  0 0.62679531E+03</rscale>
<asrwt>0</asrwt>
<pdfrwt beam="1">  1        1 0.17571943E+00 0.74298963E+03</pdfrwt>
<pdfrwt beam="2">  1       -1 0.42369419E-01 0.74298963E+03</pdfrwt>
<totfact> 0.66116964E+01</totfact>
</mgrwt>
</event>
<event>
 4    1  0.1521315E-007  0.7394246E+03  0.7818608E-02  0.9861626E-01
         -1   -1    0    0    0  501 -0.00000000000E+00  0.00000000000E+00  0.34526438491E+03  0.34526438495E+03  0.50400000000E-02 0.  1.
          1   -1    0    0  501    0  0.00000000000E+00 -0.00000000000E+00 -0.17482332514E+04  0.17482332514E+04  0.50400000000E-02 0. -1.
    8880023    1    1    2    0    0 -0.18357606270E+03  0.28149297848E+03 -0.15330253159E+04  0.17020326945E+04  0.65864270000E+03 0. -1.
    8880022    1    1    2    0    0  0.18357606270E+03 -0.28149297848E+03  0.13005644933E+03  0.39146494193E+03  0.15294330000E+03 0.  0.
<mgrwt>
<rscale>  0 0.62157620E+03</rscale>
<asrwt>0</asrwt>
<pdfrwt beam="1">  1        1 0.26895896E+00 0.73942456E+03</pdfrwt>
<pdfrwt beam="2">  1       -1 0.53117599E-01 0.73942456E+03</pdfrwt>
<totfact> 0.16432642E+01</totfact>
</mgrwt>
</event>
<event>
 4    1  0.1521315E-007  0.8781909E+03  0.7818608E-02  0.9561990E-01
          1   -1    0    0  501    0  0.00000000000E+00  0.00000000000E+00  0.23681071145E+04  0.23681071145E+04  0.50400000000E-02 0. -1.
         -1   -1    0    0    0  501 -0.00000000000E+00 -0.00000000000E+00 -0.70949308952E+03  0.70949308954E+03  0.50400000000E-02 0.  1.
    8880023    1    1    2    0    0  0.51838132517E+03 -0.26208746827E+03  0.21365492280E+04  0.23099917422E+04  0.65864270000E+03 0.  0.
    8880022    1    1    2    0    0 -0.51838132517E+03  0.26208746827E+03 -0.47793520302E+03  0.76760846179E+03  0.15294330000E+03 0.  0.
<mgrwt>
<rscale>  0 0.79863827E+03</rscale>
<asrwt>0</asrwt>
<pdfrwt beam="1">  1        1 0.36432417E+00 0.87819089E+03</pdfrwt>
<pdfrwt beam="2">  1       -1 0.10915278E+00 0.87819089E+03</pdfrwt>
<totfact> 0.13471382E+00</totfact>
</mgrwt>
</event>
<event>
 4    1  0.1521315E-007  0.8767881E+03  0.7818608E-02  0.9564371E-01
          1   -1    0    0  501    0  0.00000000000E+00  0.00000000000E+00  0.47525463291E+03  0.47525463294E+03  0.50400000000E-02 0. -1.
         -1   -1    0    0    0  501 -0.00000000000E+00 -0.00000000000E+00 -0.11648578063E+04  0.11648578063E+04  0.50400000000E-02 0.  1.
    8880023    1    1    2    0    0  0.56959281234E+03  0.10252414497E+03 -0.30372582481E+03  0.92790449675E+03  0.65864270000E+03 0. -1.
    8880022    1    1    2    0    0 -0.56959281234E+03 -0.10252414497E+03 -0.38587734854E+03  0.71220794246E+03  0.15294330000E+03 0.  0.
<mgrwt>
<rscale>  0 0.79699890E+03</rscale>
<asrwt>0</asrwt>
<pdfrwt beam="1">  1        1 0.73116098E-01 0.87678810E+03</pdfrwt>
<pdfrwt beam="2">  1       -1 0.17920889E+00 0.87678810E+03</pdfrwt>
<totfact> 0.10180422E+01</totfact>
</mgrwt>
</event>
<event>
 4    1  0.1521315E-007  0.7508678E+03  0.7818608E-02  0.9829351E-01
         -1   -1    0    0    0  501 -0.00000000000E+00  0.00000000000E+00  0.10740679396E+04  0.10740679397E+04  0.50400000000E-02 0.  1.
          1   -1    0    0  501    0  0.00000000000E+00 -0.00000000000E+00 -0.60317503259E+03  0.60317503261E+03  0.50400000000E-02 0. -1.
    8880023    1    1    2    0    0 -0.35010065581E+03 -0.86149461880E+02 -0.30315455023E+03  0.80975618958E+03  0.65864270000E+03 0. -1.
    8880022    1    1    2    0    0  0.35010065581E+03  0.86149461880E+02  0.77404745728E+03  0.86748678268E+03  0.15294330000E+03 0.  0.
<mgrwt>
<rscale>  0 0.63810927E+03</rscale>
<asrwt>0</asrwt>
<pdfrwt beam="1">  1        1 0.92796158E-01 0.75086777E+03</pdfrwt>
<pdfrwt beam="2">  1       -1 0.16524122E+00 0.75086777E+03</pdfrwt>
<totfact> 0.93511182E+00</totfact>
</mgrwt>
</event>
<event>
 4    1  0.1521315E-007  0.7187988E+03  0.7818608E-02  0.9926672E-01
          1   -1    0    0  501    0  0.00000000000E+00  0.00000000000E+00  0.49055737709E+03  0.49055737711E+03  0.50400000000E-02 0. -1.
         -1   -1    0    0    0  501 -0.00000000000E+00 -0.00000000000E+00 -0.23928995396E+04  0.23928995396E+04  0.50400000000E-02 0.  1.
    8880023    1    1    2    0    0 -0.25908564087E+03 -0.12544385091E+03  0.20784220543E+03  0.74824469103E+03  0.65864270000E+03 0. -1.
    8880022    1    1    2    0    0  0.25908564087E+03  0.12544385091E+03 -0.21101843679E+04  0.21352122257E+04  0.15294330000E+03 0.  0.
<mgrwt>
<rscale>  0 0.58985906E+03</rscale>
<asrwt>0</asrwt>
<pdfrwt beam="1">  1        1 0.75470367E-01 0.71879881E+03</pdfrwt>
<pdfrwt beam="2">  1       -1 0.36813838E+00 0.71879881E+03</pdfrwt>
<totfact> 0.57512176E-01</totfact>
</mgrwt>
</event>
<event>
 4    1  0.1521315E-007  0.6988464E+03  0.7818608E-02  0.1000202E+00
          1   -1    0    0  501    0  0.00000000000E+00  0.00000000000E+00  0.22490790212E+04  0.22490790212E+04  0.50400000000E-02 0. -1.
         -1   -1    0    0    0  501 -0.00000000000E+00 -0.00000000000E+00 -0.70962769058E+03  0.70962769060E+03  0.50400000000E-02 0.  1.
    8880023    1    1    2    0    0 -0.59899481327E+02 -0.22580548972E+03  0.21642869746E+04  0.22743184434E+04  0.65864270000E+03 0. -1.
    8880022    1    1    2    0    0  0.59899481327E+02  0.22580548972E+03 -0.62483564396E+03  0.68438826848E+03  0.15294330000E+03 0.  0.
<mgrwt>
<rscale>  0 0.55561716E+03</rscale>
<asrwt>0</asrwt>
<pdfrwt beam="1">  1        1 0.34601216E+00 0.69884639E+03</pdfrwt>
<pdfrwt beam="2">  1       -1 0.10917349E+00 0.69884639E+03</pdfrwt>
<totfact> 0.16791323E+00</totfact>
</mgrwt>
</event>
<event>
 4    1  0.1521315E-007  0.7979291E+03  0.7818608E-02  0.9715292E-01
          1   -1    0    0  501    0  0.00000000000E+00  0.00000000000E+00  0.17618928289E+04  0.17618928289E+04  0.50400000000E-02 0. -1.
         -1   -1    0    0    0  501 -0.00000000000E+00 -0.00000000000E+00 -0.46766652252E+03  0.46766652255E+03  0.50400000000E-02 0.  1.
    8880023    1    1    2    0    0  0.13702817853E+03 -0.42907338154E+03  0.15095110670E+04  0.17074292244E+04  0.65864270000E+03 0. -1.
    8880022    1    1    2    0    0 -0.13702817853E+03  0.42907338154E+03 -0.21528476064E+03  0.52213012710E+03  0.15294330000E+03 0.  0.
<mgrwt>
<rscale>  0 0.70113585E+03</rscale>
<asrwt>0</asrwt>
<pdfrwt beam="1">  1        1 0.27106043E+00 0.79792913E+03</pdfrwt>
<pdfrwt beam="2">  1       -1 0.71948696E-01 0.79792913E+03</pdfrwt>
<totfact> 0.87296383E+00</totfact>
</mgrwt>
</event>
<event>
 4    1  0.1521315E-007  0.7326256E+03  0.7818608E-02  0.9881973E-01
         -1   -1    0    0    0  501 -0.00000000000E+00  0.00000000000E+00  0.61313322605E+03  0.61313322607E+03  0.50400000000E-02 0.  1.
          1   -1    0    0  501    0  0.00000000000E+00 -0.00000000000E+00 -0.14499124628E+04  0.14499124628E+04  0.50400000000E-02 0. -1.
    8880023    1    1    2    0    0 -0.74447787486E+02 -0.31206995366E+03 -0.12921492029E+04  0.14853921697E+04  0.65864270000E+03 0. -1.
    8880022    1    1    2    0    0  0.74447787486E+02  0.31206995366E+03  0.45536996619E+03  0.57765351913E+03  0.15294330000E+03 0.  0.
<mgrwt>
<rscale>  0 0.61142947E+03</rscale>
<asrwt>0</asrwt>
<pdfrwt beam="1">  1        1 0.22306345E+00 0.73262564E+03</pdfrwt>
<pdfrwt beam="2">  1       -1 0.94328189E-01 0.73262564E+03</pdfrwt>
<totfact> 0.80333175E+00</totfact>
</mgrwt>
</event>
<event>
 4    1  0.1521315E-007  0.9399046E+03  0.7818608E-02  0.9464790E-01
          1   -1    0    0  501    0  0.00000000000E+00  0.00000000000E+00  0.16794404891E+04  0.16794404891E+04  0.50400000000E-02 0. -1.
         -1   -1    0    0    0  501 -0.00000000000E+00 -0.00000000000E+00 -0.10872261093E+04  0.10872261093E+04  0.50400000000E-02 0.  1.
    8880023    1    1    2    0    0 -0.63457314585E+03 -0.21662726374E+03  0.14122349201E+04  0.16964162593E+04  0.65864270000E+03 0. -1.
    8880022    1    1    2    0    0  0.63457314585E+03  0.21662726374E+03 -0.82002054036E+03  0.10702503392E+04  0.15294330000E+03 0.  0.
<mgrwt>
<rscale>  0 0.86930207E+03</rscale>
<asrwt>0</asrwt>
<pdfrwt beam="1">  1        1 0.25837546E+00 0.93990460E+03</pdfrwt>
<pdfrwt beam="2">  1       -1 0.16726556E+00 0.93990460E+03</pdfrwt>
<totfact> 0.12905622E+00</totfact>
</mgrwt>
</event>
<event>
 4    1  0.1521315E-007  0.1203834E+04  0.7818608E-02  0.9153404E-01
         -1   -1    0    0    0  501 -0.00000000000E+00  0.00000000000E+00  0.45522584180E+03  0.45522584183E+03  0.50400000000E-02 0.  1.
          1   -1    0    0  501    0  0.00000000000E+00 -0.00000000000E+00 -0.35590038839E+04  0.35590038839E+04  0.50400000000E-02 0. -1.
    8880023    1    1    2    0    0 -0.99142908989E+03 -0.18020641798E+03 -0.67475293199E+03  0.13800390280E+04  0.65864270000E+03 0.  0.
    8880022    1    1    2    0    0  0.99142908989E+03  0.18020641798E+03 -0.24290251101E+04  0.26341906977E+04  0.15294330000E+03 0.  0.
<mgrwt>
<rscale>  0 0.11547589E+04</rscale>
<asrwt>0</asrwt>
<pdfrwt beam="1">  1        1 0.54753904E+00 0.12038340E+04</pdfrwt>
<pdfrwt beam="2">  1       -1 0.70034747E-01 0.12038340E+04</pdfrwt>
<totfact> 0.46593638E-01</totfact>
</mgrwt>
</event>
<event>
 4    1  0.1521315E-007  0.9735088E+03  0.7818608E-02  0.9417068E-01
          1   -1    0    0  501    0  0.00000000000E+00  0.00000000000E+00  0.74268930797E+03  0.74268930799E+03  0.50400000000E-02 0. -1.
         -1   -1    0    0    0  501 -0.00000000000E+00 -0.00000000000E+00 -0.20789377384E+04  0.20789377384E+04  0.50400000000E-02 0.  1.
    8880023    1    1    2    0    0 -0.62855655523E+03  0.34471124946E+03  0.30826349607E+03  0.10211492437E+04  0.65864270000E+03 0. -1.
    8880022    1    1    2    0    0  0.62855655523E+03 -0.34471124946E+03 -0.16445119265E+04  0.18004778027E+04  0.15294330000E+03 0.  0.
<mgrwt>
<rscale>  0 0.90684300E+03</rscale>
<asrwt>0</asrwt>
<pdfrwt beam="1">  1        1 0.11425989E+00 0.97350881E+03</pdfrwt>
<pdfrwt beam="2">  1       -1 0.31983657E+00 0.97350881E+03</pdfrwt>
<totfact> 0.62278809E-01</totfact>
</mgrwt>
</event>
<event>
 4    1  0.1521315E-007  0.1070618E+04  0.7818608E-02  0.9294496E-01
         -1   -1    0    0    0  501 -0.00000000000E+00  0.00000000000E+00  0.10163361799E+04  0.10163361799E+04  0.50400000000E-02 0.  1.
          1   -1    0    0  501    0  0.00000000000E+00 -0.00000000000E+00 -0.15025899733E+04  0.15025899733E+04  0.50400000000E-02 0. -1.
    8880023    1    1    2    0    0 -0.62489275636E+03  0.56738210495E+03 -0.10442994254E+04  0.14955884815E+04  0.65864270000E+03 0. -1.
    8880022    1    1    2    0    0  0.62489275636E+03 -0.56738210495E+03  0.55804563196E+03  0.10233376717E+04  0.15294330000E+03 0.  0.
<mgrwt>
<rscale>  0 0.10129112E+04</rscale>
<asrwt>0</asrwt>
<pdfrwt beam="1">  1        1 0.23116769E+00 0.10706183E+04</pdfrwt>
<pdfrwt beam="2">  1       -1 0.15635941E+00 0.10706183E+04</pdfrwt>
<totfact> 0.20218589E+00</totfact>
</mgrwt>
</event>
<event>
 4    1  0.1521315E-007  0.6733933E+03  0.7818608E-02  0.1013339E+00
         -1   -1    0    0    0  501 -0.00000000000E+00  0.00000000000E+00  0.10972927362E+04  0.10972927362E+04  0.50400000000E-02 0.  1.
          1   -1    0    0  501    0  0.00000000000E+00 -0.00000000000E+00 -0.99117298028E+03  0.99117298030E+03  0.50400000000E-02 0. -1.
    8880023    1    1    2    0    0 -0.11953412367E+03  0.73211085801E+02 -0.86455855256E+03  0.10958649401E+04  0.65864270000E+03 0. -1.
    8880022    1    1    2    0    0  0.11953412367E+03 -0.73211085801E+02  0.97067830846E+03  0.99260077641E+03  0.15294330000E+03 0.  0.
<mgrwt>
<rscale>  0 0.50169007E+03</rscale>
<asrwt>0</asrwt>
<pdfrwt beam="1">  1        1 0.15248815E+00 0.67339326E+03</pdfrwt>
<pdfrwt beam="2">  1       -1 0.16881427E+00 0.67339326E+03</pdfrwt>
<totfact> 0.40597846E+00</totfact>
</mgrwt>
</event>
<event>
 4    1  0.1521315E-007  0.1370174E+04  0.7818608E-02  0.9007212E-01
          1   -1    0    0  501    0  0.00000000000E+00  0.00000000000E+00  0.19500445506E+04  0.19500445506E+04  0.50400000000E-02 0. -1.
         -1   -1    0    0    0  501 -0.00000000000E+00 -0.00000000000E+00 -0.87957637328E+03  0.87957637329E+03  0.50400000000E-02 0.  1.
    8880023    1    1    2    0    0  0.47841412673E+03  0.11021284782E+04  0.32767465234E+03  0.14088108969E+04  0.65864270000E+03 0.  1.
    8880022    1    1    2    0    0 -0.47841412673E+03 -0.11021284782E+04  0.74279352503E+03  0.14208100271E+04  0.15294330000E+03 0. -1.
<mgrwt>
<rscale>  0 0.13285689E+04</rscale>
<asrwt>0</asrwt>
<pdfrwt beam="1">  1        1 0.30000685E+00 0.13701742E+04</pdfrwt>
<pdfrwt beam="2">  1       -1 0.13531944E+00 0.13701742E+04</pdfrwt>
<totfact> 0.14227075E+00</totfact>
</mgrwt>
</event>
<event>
 4    1  0.1521315E-007  0.7963784E+03  0.7818608E-02  0.9718682E-01
         -1   -1    0    0    0  501 -0.00000000000E+00  0.00000000000E+00  0.43534194705E+03  0.43534194708E+03  0.50400000000E-02 0.  1.
          1   -1    0    0  501    0  0.00000000000E+00 -0.00000000000E+00 -0.16323599832E+04  0.16323599832E+04  0.50400000000E-02 0. -1.
    8880023    1    1    2    0    0 -0.40104242740E+03  0.19893054625E+03 -0.13526578228E+04  0.15696820642E+04  0.65864270000E+03 0. -1.
    8880022    1    1    2    0    0  0.40104242740E+03 -0.19893054625E+03  0.15563978666E+03  0.49801986609E+03  0.15294330000E+03 0.  0.
<mgrwt>
<rscale>  0 0.69915286E+03</rscale>
<asrwt>0</asrwt>
<pdfrwt beam="1">  1        1 0.25113230E+00 0.79637843E+03</pdfrwt>
<pdfrwt beam="2">  1       -1 0.66975685E-01 0.79637843E+03</pdfrwt>
<totfact> 0.12360778E+01</totfact>
</mgrwt>
</event>
<event>
 4    1  0.1521315E-007  0.7473546E+03  0.7818608E-02  0.9839019E-01
         -1   -1    0    0    0  501 -0.00000000000E+00  0.00000000000E+00  0.27152035599E+03  0.27152035604E+03  0.50400000000E-02 0.  1.
          1   -1    0    0  501    0  0.00000000000E+00 -0.00000000000E+00 -0.12756975040E+04  0.12756975040E+04  0.50400000000E-02 0. -1.
    8880023    1    1    2    0    0  0.11046143850E+03  0.33545034730E+03 -0.85207162052E+03  0.11333864820E+04  0.65864270000E+03 0.  0.
    8880022    1    1    2    0    0 -0.11046143850E+03 -0.33545034730E+03 -0.15210552745E+03  0.41383137798E+03  0.15294330000E+03 0.  0.
<mgrwt>
<rscale>  0 0.63309933E+03</rscale>
<asrwt>0</asrwt>
<pdfrwt beam="1">  1        1 0.19626115E+00 0.74735458E+03</pdfrwt>
<pdfrwt beam="2">  1       -1 0.41772363E-01 0.74735458E+03</pdfrwt>
<totfact> 0.54319040E+01</totfact>
</mgrwt>
</event>
<event>
 4    1  0.1521315E-007  0.7855468E+03  0.7818608E-02  0.9742965E-01
         -1   -1    0    0    0  501 -0.00000000000E+00  0.00000000000E+00  0.10866189759E+04  0.10866189759E+04  0.50400000000E-02 0.  1.
          1   -1    0    0  501    0  0.00000000000E+00 -0.00000000000E+00 -0.41356707736E+03  0.41356707739E+03  0.50400000000E-02 0. -1.
    8880023    1    1    2    0    0 -0.15633760371E+03  0.39853743601E+03  0.13713711933E+03  0.79742731957E+03  0.65864270000E+03 0. -1.
    8880022    1    1    2    0    0  0.15633760371E+03 -0.39853743601E+03  0.53591477919E+03  0.70275873371E+03  0.15294330000E+03 0.  0.
<mgrwt>
<rscale>  0 0.68515283E+03</rscale>
<asrwt>0</asrwt>
<pdfrwt beam="1">  1        1 0.63625704E-01 0.78554678E+03</pdfrwt>
<pdfrwt beam="2">  1       -1 0.16717215E+00 0.78554678E+03</pdfrwt>
<totfact> 0.15166827E+01</totfact>
</mgrwt>
</event>
<event>
 4    1  0.1521315E-007  0.1682071E+04  0.7818608E-02  0.8790738E-01
         -1   -1    0    0    0  501 -0.00000000000E+00  0.00000000000E+00  0.18614867420E+04  0.18614867420E+04  0.50400000000E-02 0.  1.
          1   -1    0    0  501    0  0.00000000000E+00 -0.00000000000E+00 -0.17274155248E+04  0.17274155249E+04  0.50400000000E-02 0. -1.
    8880023    1    1    2    0    0  0.13476149649E+04  0.76124114780E+03 -0.70251899014E+03  0.18228815969E+04  0.65864270000E+03 0.  0.
    8880022    1    1    2    0    0 -0.13476149649E+04 -0.76124114780E+03  0.83659020732E+03  0.17660206699E+04  0.15294330000E+03 0.  0.
<mgrwt>
<rscale>  0 0.16494403E+04</rscale>
<asrwt>0</asrwt>
<pdfrwt beam="1">  1        1 0.26575624E+00 0.16820715E+04</pdfrwt>
<pdfrwt beam="2">  1       -1 0.28638258E+00 0.16820715E+04</pdfrwt>
<totfact> 0.17084747E-01</totfact>
</mgrwt>
</event>
<event>
 4    1  0.1521315E-007  0.8585830E+03  0.7818608E-02  0.9596089E-01
          1   -1    0    0  501    0  0.00000000000E+00  0.00000000000E+00  0.20441911956E+04  0.20441911957E+04  0.50400000000E-02 0. -1.
         -1   -1    0    0    0  501 -0.00000000000E+00 -0.00000000000E+00 -0.61074354455E+03  0.61074354457E+03  0.50400000000E-02 0.  1.
    8880023    1    1    2    0    0  0.16374906680E+03  0.52587148378E+03  0.17871801833E+04  0.19827197957E+04  0.65864270000E+03 0. -1.
    8880022    1    1    2    0    0 -0.16374906680E+03 -0.52587148378E+03 -0.35373253220E+03  0.67221494455E+03  0.15294330000E+03 0.  0.
<mgrwt>
<rscale>  0 0.77555578E+03</rscale>
<asrwt>0</asrwt>
<pdfrwt beam="1">  1        1 0.31449096E+00 0.85858301E+03</pdfrwt>
<pdfrwt beam="2">  1       -1 0.93960544E-01 0.85858301E+03</pdfrwt>
<totfact> 0.31537681E+00</totfact>
</mgrwt>
</event>
<event>
 4    1  0.1521315E-007  0.8372425E+03  0.7818608E-02  0.9635402E-01
         -1   -1    0    0    0  501 -0.00000000000E+00  0.00000000000E+00  0.74220903897E+03  0.74220903898E+03  0.50400000000E-02 0.  1.
          1   -1    0    0  501    0  0.00000000000E+00 -0.00000000000E+00 -0.11545449543E+04  0.11545449543E+04  0.50400000000E-02 0. -1.
    8880023    1    1    2    0    0  0.11072391407E+03  0.50488122862E+03 -0.85691855542E+03  0.11980335793E+04  0.65864270000E+03 0. -1.
    8880022    1    1    2    0    0 -0.11072391407E+03 -0.50488122862E+03  0.44458264006E+03  0.69872041405E+03  0.15294330000E+03 0.  0.
<mgrwt>
<rscale>  0 0.74996722E+03</rscale>
<asrwt>0</asrwt>
<pdfrwt beam="1">  1        1 0.17762230E+00 0.83724253E+03</pdfrwt>
<pdfrwt beam="2">  1       -1 0.11418601E+00 0.83724253E+03</pdfrwt>
<totfact> 0.82415434E+00</totfact>
</mgrwt>
</event>
<event>
 4    1  0.1521315E-007  0.7071248E+03  0.7818608E-02  0.9968837E-01
          1   -1    0    0  501    0  0.00000000000E+00  0.00000000000E+00  0.99443955538E+03  0.99443955539E+03  0.50400000000E-02 0. -1.
         -1   -1    0    0    0  501 -0.00000000000E+00 -0.00000000000E+00 -0.44653938829E+03  0.44653938832E+03  0.50400000000E-02 0.  1.
    8880023    1    1    2    0    0  0.25667661653E+03  0.18231249967E+02  0.78689139349E+03  0.10579336158E+04  0.65864270000E+03 0. -1.
    8880022    1    1    2    0    0 -0.25667661653E+03 -0.18231249967E+02 -0.23899122641E+03  0.38304532795E+03  0.15294330000E+03 0.  0.
<mgrwt>
<rscale>  0 0.57038059E+03</rscale>
<asrwt>0</asrwt>
<pdfrwt beam="1">  1        1 0.15299070E+00 0.70712479E+03</pdfrwt>
<pdfrwt beam="2">  1       -1 0.68698367E-01 0.70712479E+03</pdfrwt>
<totfact> 0.33796778E+01</totfact>
</mgrwt>
</event>
<event>
 4    1  0.1742299E-007  0.7758517E+03  0.7818608E-02  0.9765673E-01
          1   -1    0    0  501    0  0.00000000000E+00  0.00000000000E+00  0.20849597718E+04  0.20849597718E+04  0.50400000000E-02 0. -1.
         -1   -1    0    0    0  501 -0.00000000000E+00 -0.00000000000E+00 -0.17395758168E+04  0.17395758168E+04  0.50400000000E-02 0.  1.
    8880023    1    1    2    0    0 -0.14300110417E+03  0.38429981841E+03  0.19830401389E+04  0.21294116711E+04  0.65864270000E+03 0. -1.
    8880022    1    1    2    0    0  0.14300110417E+03 -0.38429981841E+03 -0.16376561839E+04  0.16951239176E+04  0.15294330000E+03 0.  0.
<mgrwt>
<rscale>  0 0.67237705E+03</rscale>
<asrwt>0</asrwt>
<pdfrwt beam="1">  1        1 0.32076304E+00 0.77585171E+03</pdfrwt>
<pdfrwt beam="2">  1       -1 0.26762705E+00 0.77585171E+03</pdfrwt>
<totfact> 0.14978990E-01</totfact>
</mgrwt>
</event>
<event>
 4    1  0.1521315E-007  0.6986209E+03  0.7818608E-02  0.1000297E+00
         -1   -1    0    0    0  501 -0.00000000000E+00  0.00000000000E+00  0.37904535745E+03  0.37904535748E+03  0.50400000000E-02 0.  1.
          1   -1    0    0  501    0  0.00000000000E+00 -0.00000000000E+00 -0.98359995334E+03  0.98359995335E+03  0.50400000000E-02 0. -1.
    8880023    1    1    2    0    0  0.21192307927E+03 -0.96693249601E+02 -0.76909780311E+03  0.10390296497E+04  0.65864270000E+03 0. -1.
    8880022    1    1    2    0    0 -0.21192307927E+03  0.96693249601E+02  0.16454320722E+03  0.32361566108E+03  0.15294330000E+03 0.  0.
<mgrwt>
<rscale>  0 0.55520160E+03</rscale>
<asrwt>0</asrwt>
<pdfrwt beam="1">  1        1 0.15132307E+00 0.69862091E+03</pdfrwt>
<pdfrwt beam="2">  1       -1 0.58314671E-01 0.69862091E+03</pdfrwt>
<totfact> 0.47821325E+01</totfact>
</mgrwt>
</event>
<event>
 4    1  0.1521315E-007  0.1023740E+04  0.7818608E-02  0.9351137E-01
         -1   -1    0    0    0  501 -0.00000000000E+00  0.00000000000E+00  0.50366848482E+03  0.50366848484E+03  0.50400000000E-02 0.  1.
          1   -1    0    0  501    0  0.00000000000E+00 -0.00000000000E+00 -0.23028122096E+04  0.23028122096E+04  0.50400000000E-02 0. -1.
    8880023    1    1    2    0    0 -0.32964560430E+03 -0.71103243241E+03 -0.23509882104E+03  0.10503880265E+04  0.65864270000E+03 0. -1.
    8880022    1    1    2    0    0  0.32964560430E+03  0.71103243241E+03 -0.15640449038E+04  0.17560926680E+04  0.15294330000E+03 0.  0.
<mgrwt>
<rscale>  0 0.96208383E+03</rscale>
<asrwt>0</asrwt>
<pdfrwt beam="1">  1        1 0.35427880E+00 0.10237400E+04</pdfrwt>
<pdfrwt beam="2">  1       -1 0.77487460E-01 0.10237400E+04</pdfrwt>
<totfact> 0.31312116E+00</totfact>
</mgrwt>
</event>
<event>
 4    1  0.1521315E-007  0.7848638E+03  0.7818608E-02  0.9744534E-01
         -1   -1    0    0    0  501 -0.00000000000E+00  0.00000000000E+00  0.10922552670E+04  0.10922552670E+04  0.50400000000E-02 0.  1.
          1   -1    0    0  501    0  0.00000000000E+00 -0.00000000000E+00 -0.13436983465E+04  0.13436983465E+04  0.50400000000E-02 0. -1.
    8880023    1    1    2    0    0 -0.42536197493E+03  0.35610409574E+02  0.90254849807E+03  0.11960789726E+04  0.65864270000E+03 0.  1.
    8880022    1    1    2    0    0  0.42536197493E+03 -0.35610409574E+02 -0.11539915776E+04  0.12398746409E+04  0.15294330000E+03 0. -1.
<mgrwt>
<rscale>  0 0.68426075E+03</rscale>
<asrwt>0</asrwt>
<pdfrwt beam="1">  1        1 0.20672282E+00 0.78486376E+03</pdfrwt>
<pdfrwt beam="2">  1       -1 0.16803927E+00 0.78486376E+03</pdfrwt>
<totfact> 0.22242563E+00</totfact>
</mgrwt>
</event>
<event>
 4    1  0.1521315E-007  0.8451626E+03  0.7818608E-02  0.9620522E-01
         -1   -1    0    0    0  501 -0.00000000000E+00  0.00000000000E+00  0.40589944937E+03  0.40589944940E+03  0.50400000000E-02 0.  1.
          1   -1    0    0  501    0  0.00000000000E+00 -0.00000000000E+00 -0.12470704839E+04  0.12470704839E+04  0.50400000000E-02 0. -1.
    8880023    1    1    2    0    0 -0.12903104496E+03  0.51365413899E+03 -0.66122783995E+03  0.10730899532E+04  0.65864270000E+03 0.  1.
    8880022    1    1    2    0    0  0.12903104496E+03 -0.51365413899E+03 -0.17994319460E+03  0.57987998013E+03  0.15294330000E+03 0. -1.
<mgrwt>
<rscale>  0 0.75952694E+03</rscale>
<asrwt>0</asrwt>
<pdfrwt beam="1">  1        1 0.19185700E+00 0.84516258E+03</pdfrwt>
<pdfrwt beam="2">  1       -1 0.62446069E-01 0.84516258E+03</pdfrwt>
<totfact> 0.26175862E+01</totfact>
</mgrwt>
</event>
<event>
 4    1  0.1521315E-007  0.6732663E+03  0.7818608E-02  0.1013422E+00
         -1   -1    0    0    0  501 -0.00000000000E+00  0.00000000000E+00  0.68051333854E+03  0.68051333856E+03  0.50400000000E-02 0.  1.
          1   -1    0    0  501    0  0.00000000000E+00 -0.00000000000E+00 -0.41371439661E+03  0.41371439664E+03  0.50400000000E-02 0. -1.
    8880023    1    1    2    0    0 -0.13732807562E+03  0.24866678306E+02 -0.92450637132E+02  0.67958419538E+03  0.65864270000E+03 0. -1.
    8880022    1    1    2    0    0  0.13732807562E+03 -0.24866678306E+02  0.35924957906E+03  0.41464353982E+03  0.15294330000E+03 0.  0.
<mgrwt>
<rscale>  0 0.50136972E+03</rscale>
<asrwt>0</asrwt>
<pdfrwt beam="1">  1        1 0.63648369E-01 0.67326634E+03</pdfrwt>
<pdfrwt beam="2">  1       -1 0.10469436E+00 0.67326634E+03</pdfrwt>
<totfact> 0.50516719E+01</totfact>
</mgrwt>
</event>
<event>
 4    1  0.1521315E-007  0.8396618E+03  0.7818608E-02  0.9630818E-01
          1   -1    0    0  501    0  0.00000000000E+00  0.00000000000E+00  0.11695781500E+04  0.11695781500E+04  0.50400000000E-02 0. -1.
         -1   -1    0    0    0  501 -0.00000000000E+00 -0.00000000000E+00 -0.81634912115E+03  0.81634912117E+03  0.50400000000E-02 0.  1.
    8880023    1    1    2    0    0  0.15283259459E+03 -0.49785927503E+03  0.88928829598E+03  0.12230558202E+04  0.65864270000E+03 0. -1.
    8880022    1    1    2    0    0 -0.15283259459E+03  0.49785927503E+03 -0.53605926717E+03  0.76287145093E+03  0.15294330000E+03 0.  0.
<mgrwt>
<rscale>  0 0.75289572E+03</rscale>
<asrwt>0</asrwt>
<pdfrwt beam="1">  1        1 0.17993510E+00 0.83966176E+03</pdfrwt>
<pdfrwt beam="2">  1       -1 0.12559217E+00 0.83966176E+03</pdfrwt>
<totfact> 0.63668448E+00</totfact>
</mgrwt>
</event>
<event>
 4    1  0.1521315E-007  0.6680575E+03  0.7818608E-02  0.1017095E+00
         -1   -1    0    0    0  501 -0.00000000000E+00  0.00000000000E+00  0.66863583745E+03  0.66863583747E+03  0.50400000000E-02 0.  1.
          1   -1    0    0  501    0  0.00000000000E+00 -0.00000000000E+00 -0.97213686696E+03  0.97213686697E+03  0.50400000000E-02 0. -1.
    8880023    1    1    2    0    0 -0.10973331586E+03  0.21195951816E+02 -0.83915845641E+03  0.10726079387E+04  0.65864270000E+03 0. -1.
    8880022    1    1    2    0    0  0.10973331586E+03 -0.21195951816E+02  0.53565742691E+03  0.56816476571E+03  0.15294330000E+03 0.  0.
<mgrwt>
<rscale>  0 0.48749534E+03</rscale>
<asrwt>0</asrwt>
<pdfrwt beam="1">  1        1 0.14955952E+00 0.66805754E+03</pdfrwt>
<pdfrwt beam="2">  1       -1 0.10286705E+00 0.66805754E+03</pdfrwt>
<totfact> 0.14808296E+01</totfact>
</mgrwt>
</event>
<event>
 4    1  0.1521315E-007  0.7676465E+03  0.7818608E-02  0.9785699E-01
          1   -1    0    0  501    0  0.00000000000E+00  0.00000000000E+00  0.47590492689E+03  0.47590492692E+03  0.50400000000E-02 0. -1.
         -1   -1    0    0    0  501 -0.00000000000E+00 -0.00000000000E+00 -0.10784903985E+04  0.10784903985E+04  0.50400000000E-02 0.  1.
    8880023    1    1    2    0    0  0.19377968206E+03  0.34339530502E+03  0.58208375793E+02  0.76985019449E+03  0.65864270000E+03 0.  0.
    8880022    1    1    2    0    0 -0.19377968206E+03 -0.34339530502E+03 -0.66079384740E+03  0.78454513092E+03  0.15294330000E+03 0.  0.
<mgrwt>
<rscale>  0 0.66135687E+03</rscale>
<asrwt>0</asrwt>
<pdfrwt beam="1">  1        1 0.73216143E-01 0.76764647E+03</pdfrwt>
<pdfrwt beam="2">  1       -1 0.16592160E+00 0.76764647E+03</pdfrwt>
<totfact> 0.12848894E+01</totfact>
</mgrwt>
</event>
<event>
 4    1  0.1521315E-007  0.8819969E+03  0.7818608E-02  0.9555573E-01
          1   -1    0    0  501    0  0.00000000000E+00  0.00000000000E+00  0.28234499585E+04  0.28234499585E+04  0.50400000000E-02 0. -1.
         -1   -1    0    0    0  501 -0.00000000000E+00 -0.00000000000E+00 -0.33981018340E+03  0.33981018343E+03  0.50400000000E-02 0.  1.
    8880023    1    1    2    0    0  0.42794895703E+03  0.40120824971E+03  0.23929209749E+04  0.25502920162E+04  0.65864270000E+03 0. -1.
    8880022    1    1    2    0    0 -0.42794895703E+03 -0.40120824971E+03  0.90718800206E+02  0.61296812575E+03  0.15294330000E+03 0.  0.
<mgrwt>
<rscale>  0 0.80307753E+03</rscale>
<asrwt>0</asrwt>
<pdfrwt beam="1">  1        1 0.43437691E+00 0.88199693E+03</pdfrwt>
<pdfrwt beam="2">  1       -1 0.52278490E-01 0.88199693E+03</pdfrwt>
<totfact> 0.30823607E+00</totfact>
</mgrwt>
</event>
<event>
 4    1  0.1521315E-007  0.8089229E+03  0.7818608E-02  0.9691825E-01
          1   -1    0    0  501    0  0.00000000000E+00  0.00000000000E+00  0.19553854477E+04  0.19553854477E+04  0.50400000000E-02 0. -1.
         -1   -1    0    0    0  501 -0.00000000000E+00 -0.00000000000E+00 -0.37316996398E+03  0.37316996401E+03  0.50400000000E-02 0.  1.
    8880023    1    1    2    0    0  0.86952502239E+02 -0.46150326938E+03  0.16425965167E+04  0.18309777520E+04  0.65864270000E+03 0.  1.
    8880022    1    1    2    0    0 -0.86952502239E+02  0.46150326938E+03 -0.60381033000E+02  0.49757765972E+03  0.15294330000E+03 0.  0.
<mgrwt>
<rscale>  0 0.71505623E+03</rscale>
<asrwt>0</asrwt>
<pdfrwt beam="1">  1        1 0.30082853E+00 0.80892287E+03</pdfrwt>
<pdfrwt beam="2">  1       -1 0.57410764E-01 0.80892287E+03</pdfrwt>
<totfact> 0.10169593E+01</totfact>
</mgrwt>
</event>
<event>
 4    1  0.1521315E-007  0.6868253E+03  0.7818608E-02  0.1005700E+00
          1   -1    0    0  501    0  0.00000000000E+00  0.00000000000E+00  0.14652050808E+04  0.14652050808E+04  0.50400000000E-02 0. -1.
         -1   -1    0    0    0  501 -0.00000000000E+00 -0.00000000000E+00 -0.36445389732E+03  0.36445389736E+03  0.50400000000E-02 0.  1.
    8880023    1    1    2    0    0 -0.67341749945E+02 -0.18271247776E+03  0.13270270179E+04  0.14942321350E+04  0.65864270000E+03 0. -1.
    8880022    1    1    2    0    0  0.67341749945E+02  0.18271247776E+03 -0.22627583445E+03  0.33542684312E+03  0.15294330000E+03 0.  0.
<mgrwt>
<rscale>  0 0.53220198E+03</rscale>
<asrwt>0</asrwt>
<pdfrwt beam="1">  1        1 0.22541617E+00 0.68682528E+03</pdfrwt>
<pdfrwt beam="2">  1       -1 0.56069830E-01 0.68682528E+03</pdfrwt>
<totfact> 0.23193737E+01</totfact>
</mgrwt>
</event>
<event>
 4    1  0.1521315E-007  0.6730880E+03  0.7818608E-02  0.1013540E+00
          1   -1    0    0  501    0  0.00000000000E+00  0.00000000000E+00  0.23961648146E+04  0.23961648146E+04  0.50400000000E-02 0. -1.
         -1   -1    0    0    0  501 -0.00000000000E+00 -0.00000000000E+00 -0.17638797496E+03  0.17638797504E+03  0.50400000000E-02 0.  1.
    8880023    1    1    2    0    0 -0.13694138640E+03  0.22005877549E+02  0.22635423028E+04  0.23614976529E+04  0.65864270000E+03 0. -1.
    8880022    1    1    2    0    0  0.13694138640E+03 -0.22005877549E+02 -0.43765463155E+02  0.21105513672E+03  0.15294330000E+03 0.  0.
<mgrwt>
<rscale>  0 0.50091822E+03</rscale>
<asrwt>0</asrwt>
<pdfrwt beam="1">  1        1 0.36864073E+00 0.67308796E+03</pdfrwt>
<pdfrwt beam="2">  1       -1 0.27136612E-01 0.67308796E+03</pdfrwt>
<totfact> 0.20567878E+01</totfact>
</mgrwt>
</event>
<event>
 4    1  0.1521315E-007  0.6936477E+03  0.7818608E-02  0.1002465E+00
          1   -1    0    0  501    0  0.00000000000E+00  0.00000000000E+00  0.67080093656E+03  0.67080093658E+03  0.50400000000E-02 0. -1.
         -1   -1    0    0    0  501 -0.00000000000E+00 -0.00000000000E+00 -0.34342459120E+03  0.34342459124E+03  0.50400000000E-02 0.  1.
    8880023    1    1    2    0    0  0.11278016494E+03  0.18605790279E+03  0.24868330747E+03  0.73687889268E+03  0.65864270000E+03 0.  0.
    8880022    1    1    2    0    0 -0.11278016494E+03 -0.18605790279E+03  0.78693037895E+02  0.27734663514E+03  0.15294330000E+03 0.  1.
<mgrwt>
<rscale>  0 0.54582517E+03</rscale>
<asrwt>0</asrwt>
<pdfrwt beam="1">  1        1 0.10320014E+00 0.69364769E+03</pdfrwt>
<pdfrwt beam="2">  1       -1 0.52834553E-01 0.69364769E+03</pdfrwt>
<totfact> 0.10723819E+02</totfact>
</mgrwt>
</event>
<event>
 4    1  0.1521315E-007  0.7910118E+03  0.7818608E-02  0.9730578E-01
          1   -1    0    0  501    0  0.00000000000E+00  0.00000000000E+00  0.22700167944E+04  0.22700167944E+04  0.50400000000E-02 0. -1.
         -1   -1    0    0    0  501 -0.00000000000E+00 -0.00000000000E+00 -0.36735069810E+03  0.36735069814E+03  0.50400000000E-02 0.  1.
    8880023    1    1    2    0    0 -0.40827220906E+03  0.15875516940E+03  0.20109373079E+04  0.21609184305E+04  0.65864270000E+03 0.  0.
    8880022    1    1    2    0    0  0.40827220906E+03 -0.15875516940E+03 -0.10827121160E+03  0.47644906210E+03  0.15294330000E+03 0.  0.
<mgrwt>
<rscale>  0 0.69224995E+03</rscale>
<asrwt>0</asrwt>
<pdfrwt beam="1">  1        1 0.34923335E+00 0.79101176E+03</pdfrwt>
<pdfrwt beam="2">  1       -1 0.56515492E-01 0.79101176E+03</pdfrwt>
<totfact> 0.64663645E+00</totfact>
</mgrwt>
</event>
<event>
 4    1  0.1521315E-007  0.8742712E+03  0.7818608E-02  0.9568665E-01
          1   -1    0    0  501    0  0.00000000000E+00  0.00000000000E+00  0.11186382330E+04  0.11186382330E+04  0.50400000000E-02 0. -1.
         -1   -1    0    0    0  501 -0.00000000000E+00 -0.00000000000E+00 -0.93030534382E+03  0.93030534383E+03  0.50400000000E-02 0.  1.
    8880023    1    1    2    0    0 -0.50366611784E+03 -0.27723695101E+03  0.80760962836E+03  0.11902030933E+04  0.65864270000E+03 0.  0.
    8880022    1    1    2    0    0  0.50366611784E+03  0.27723695101E+03 -0.61927673920E+03  0.85874048350E+03  0.15294330000E+03 0.  0.
<mgrwt>
<rscale>  0 0.79405307E+03</rscale>
<asrwt>0</asrwt>
<pdfrwt beam="1">  1        1 0.17209819E+00 0.87427118E+03</pdfrwt>
<pdfrwt beam="2">  1       -1 0.14312390E+00 0.87427118E+03</pdfrwt>
<totfact> 0.49466687E+00</totfact>
</mgrwt>
</event>
<event>
 4    1  0.1521315E-007  0.1395455E+04  0.7818608E-02  0.8987222E-01
          1   -1    0    0  501    0  0.00000000000E+00  0.00000000000E+00  0.18577023277E+04  0.18577023277E+04  0.50400000000E-02 0. -1.
         -1   -1    0    0    0  501 -0.00000000000E+00 -0.00000000000E+00 -0.96108001232E+03  0.96108001233E+03  0.50400000000E-02 0.  1.
    8880023    1    1    2    0    0  0.71843693063E+03  0.99866575406E+03  0.70806435950E+03  0.15648163647E+04  0.65864270000E+03 0.  0.
    8880022    1    1    2    0    0 -0.71843693063E+03 -0.99866575406E+03  0.18855795585E+03  0.12539659754E+04  0.15294330000E+03 0.  0.
<mgrwt>
<rscale>  0 0.13547738E+04</rscale>
<asrwt>0</asrwt>
<pdfrwt beam="1">  1        1 0.28580036E+00 0.13954552E+04</pdfrwt>
<pdfrwt beam="2">  1       -1 0.14785846E+00 0.13954552E+04</pdfrwt>
<totfact> 0.12968110E+00</totfact>
</mgrwt>
</event>
<event>
 4    1  0.1521315E-007  0.1149320E+04  0.7818608E-02  0.9208034E-01
          1   -1    0    0  501    0  0.00000000000E+00  0.00000000000E+00  0.12570761397E+04  0.12570761397E+04  0.50400000000E-02 0. -1.
         -1   -1    0    0    0  501 -0.00000000000E+00 -0.00000000000E+00 -0.10215251687E+04  0.10215251687E+04  0.50400000000E-02 0.  1.
    8880023    1    1    2    0    0  0.24014971619E+03 -0.91074372289E+03 -0.29532314756E+03  0.11866557979E+04  0.65864270000E+03 0.  0.
    8880022    1    1    2    0    0 -0.24014971619E+03  0.91074372289E+03  0.53087411858E+03  0.10919455104E+04  0.15294330000E+03 0.  0.
<mgrwt>
<rscale>  0 0.10970887E+04</rscale>
<asrwt>0</asrwt>
<pdfrwt beam="1">  1        1 0.19339633E+00 0.11493199E+04</pdfrwt>
<pdfrwt beam="2">  1       -1 0.15715772E+00 0.11493199E+04</pdfrwt>
<totfact> 0.29422621E+00</totfact>
</mgrwt>
</event>
<event>
 4    1  0.1521315E-007  0.7741552E+03  0.7818608E-02  0.9769750E-01
         -1   -1    0    0    0  501 -0.00000000000E+00  0.00000000000E+00  0.14233466247E+04  0.14233466247E+04  0.50400000000E-02 0.  1.
          1   -1    0    0  501    0  0.00000000000E+00 -0.00000000000E+00 -0.27282836415E+03  0.27282836419E+03  0.50400000000E-02 0. -1.
    8880023    1    1    2    0    0  0.20773314210E+02  0.40629357708E+03  0.52847885552E+03  0.93733991079E+03  0.65864270000E+03 0. -1.
    8880022    1    1    2    0    0 -0.20773314210E+02 -0.40629357708E+03  0.62203940506E+03  0.75883507814E+03  0.15294330000E+03 0.  0.
<mgrwt>
<rscale>  0 0.67011498E+03</rscale>
<asrwt>0</asrwt>
<pdfrwt beam="1">  1        1 0.41973594E-01 0.77415516E+03</pdfrwt>
<pdfrwt beam="2">  1       -1 0.21897641E+00 0.77415516E+03</pdfrwt>
<totfact> 0.11411443E+01</totfact>
</mgrwt>
</event>
<event>
 4    1  0.1521315E-007  0.7727097E+03  0.7818608E-02  0.9773249E-01
         -1   -1    0    0    0  501 -0.00000000000E+00  0.00000000000E+00  0.35812980739E+03  0.35812980743E+03  0.50400000000E-02 0.  1.
          1   -1    0    0  501    0  0.00000000000E+00 -0.00000000000E+00 -0.26476780638E+04  0.26476780638E+04  0.50400000000E-02 0. -1.
    8880023    1    1    2    0    0  0.24507081837E+03 -0.32126369787E+03 -0.24312741999E+04  0.25511124065E+04  0.65864270000E+03 0. -1.
    8880022    1    1    2    0    0 -0.24507081837E+03  0.32126369787E+03  0.14172594343E+03  0.45469546473E+03  0.15294330000E+03 0.  0.
<mgrwt>
<rscale>  0 0.66818109E+03</rscale>
<asrwt>0</asrwt>
<pdfrwt beam="1">  1        1 0.40733507E+00 0.77270970E+03</pdfrwt>
<pdfrwt beam="2">  1       -1 0.55096895E-01 0.77270970E+03</pdfrwt>
<totfact> 0.37665193E+00</totfact>
</mgrwt>
</event>
<event>
 4    1  0.1521315E-007  0.7570399E+03  0.7818608E-02  0.9812832E-01
         -1   -1    0    0    0  501 -0.00000000000E+00  0.00000000000E+00  0.42337555760E+03  0.42337555763E+03  0.50400000000E-02 0.  1.
          1   -1    0    0  501    0  0.00000000000E+00 -0.00000000000E+00 -0.11830172905E+04  0.11830172905E+04  0.50400000000E-02 0. -1.
    8880023    1    1    2    0    0  0.37308786270E+03  0.10228729541E+02 -0.90297320915E+03  0.11783335703E+04  0.65864270000E+03 0.  0.
    8880022    1    1    2    0    0 -0.37308786270E+03 -0.10228729541E+02  0.14333147628E+03  0.42805927780E+03  0.15294330000E+03 0.  0.
<mgrwt>
<rscale>  0 0.64678428E+03</rscale>
<asrwt>0</asrwt>
<pdfrwt beam="1">  1        1 0.18200266E+00 0.75703988E+03</pdfrwt>
<pdfrwt beam="2">  1       -1 0.65134702E-01 0.75703988E+03</pdfrwt>
<totfact> 0.27026320E+01</totfact>
</mgrwt>
</event>
<event>
 4    1  0.1521315E-007  0.6817741E+03  0.7818608E-02  0.1008337E+00
         -1   -1    0    0    0  501 -0.00000000000E+00  0.00000000000E+00  0.12213281846E+04  0.12213281846E+04  0.50400000000E-02 0.  1.
          1   -1    0    0  501    0  0.00000000000E+00 -0.00000000000E+00 -0.11039381023E+04  0.11039381023E+04  0.50400000000E-02 0. -1.
    8880023    1    1    2    0    0  0.16106495935E+02 -0.17534623523E+03 -0.98530093753E+03  0.11981793961E+04  0.65864270000E+03 0. -1.
    8880022    1    1    2    0    0 -0.16106495935E+02  0.17534623523E+03  0.11026910198E+04  0.11270868909E+04  0.15294330000E+03 0.  0.
<mgrwt>
<rscale>  0 0.52140791E+03</rscale>
<asrwt>0</asrwt>
<pdfrwt beam="1">  1        1 0.16983663E+00 0.68177410E+03</pdfrwt>
<pdfrwt beam="2">  1       -1 0.18789664E+00 0.68177410E+03</pdfrwt>
<totfact> 0.24314068E+00</totfact>
</mgrwt>
</event>
<event>
 4    1  0.1521315E-007  0.7613078E+03  0.7818608E-02  0.9801734E-01
          1   -1    0    0  501    0  0.00000000000E+00  0.00000000000E+00  0.59908877589E+03  0.59908877591E+03  0.50400000000E-02 0. -1.
         -1   -1    0    0    0  501 -0.00000000000E+00 -0.00000000000E+00 -0.65082107027E+03  0.65082107029E+03  0.50400000000E-02 0.  1.
    8880023    1    1    2    0    0  0.31749353066E+03 -0.21207822371E+03  0.17370869569E+03  0.78087401814E+03  0.65864270000E+03 0.  0.
    8880022    1    1    2    0    0 -0.31749353066E+03  0.21207822371E+03 -0.22544099007E+03  0.46903582806E+03  0.15294330000E+03 0.  0.
<mgrwt>
<rscale>  0 0.65269596E+03</rscale>
<asrwt>0</asrwt>
<pdfrwt beam="1">  1        1 0.92167504E-01 0.76130777E+03</pdfrwt>
<pdfrwt beam="2">  1       -1 0.10012632E+00 0.76130777E+03</pdfrwt>
<totfact> 0.33361069E+01</totfact>
</mgrwt>
</event>
<event>
 4    1  0.1521315E-007  0.6790460E+03  0.7818608E-02  0.1009869E+00
          1   -1    0    0  501    0  0.00000000000E+00  0.00000000000E+00  0.32884942609E+03  0.32884942613E+03  0.50400000000E-02 0. -1.
         -1   -1    0    0    0  501 -0.00000000000E+00 -0.00000000000E+00 -0.14888517170E+04  0.14888517170E+04  0.50400000000E-02 0.  1.
    8880023    1    1    2    0    0  0.14686294185E+03  0.75660689174E+02 -0.45370033523E+02  0.68055999719E+03  0.65864270000E+03 0. -1.
    8880022    1    1    2    0    0 -0.14686294185E+03 -0.75660689174E+02 -0.11146322574E+04  0.11371411460E+04  0.15294330000E+03 0.  0.
<mgrwt>
<rscale>  0 0.51526927E+03</rscale>
<asrwt>0</asrwt>
<pdfrwt beam="1">  1        1 0.50592220E-01 0.67904600E+03</pdfrwt>
<pdfrwt beam="2">  1       -1 0.22905411E+00 0.67904600E+03</pdfrwt>
<totfact> 0.77783028E+00</totfact>
</mgrwt>
</event>
<event>
 4    1  0.1521315E-007  0.9428981E+03  0.7818608E-02  0.9460407E-01
         -1   -1    0    0    0  501 -0.00000000000E+00  0.00000000000E+00  0.62899780830E+03  0.62899780832E+03  0.50400000000E-02 0.  1.
          1   -1    0    0  501    0  0.00000000000E+00 -0.00000000000E+00 -0.11572042628E+04  0.11572042628E+04  0.50400000000E-02 0. -1.
    8880023    1    1    2    0    0 -0.67455567602E+03  0.14876690082E+02 -0.55451257588E+03  0.10938652015E+04  0.65864270000E+03 0.  1.
    8880022    1    1    2    0    0  0.67455567602E+03 -0.14876690082E+02  0.26306121429E+02  0.69233686960E+03  0.15294330000E+03 0. -1.
<mgrwt>
<rscale>  0 0.87266893E+03</rscale>
<asrwt>0</asrwt>
<pdfrwt beam="1">  1        1 0.17803143E+00 0.94289813E+03</pdfrwt>
<pdfrwt beam="2">  1       -1 0.96768894E-01 0.94289813E+03</pdfrwt>
<totfact> 0.11911603E+01</totfact>
</mgrwt>
</event>
<event>
 4    1  0.1521315E-007  0.8096419E+03  0.7818608E-02  0.9690323E-01
          1   -1    0    0  501    0  0.00000000000E+00  0.00000000000E+00  0.90155404773E+03  0.90155404774E+03  0.50400000000E-02 0. -1.
         -1   -1    0    0    0  501 -0.00000000000E+00 -0.00000000000E+00 -0.16469240513E+04  0.16469240513E+04  0.50400000000E-02 0.  1.
    8880023    1    1    2    0    0 -0.28679277800E+03  0.37344312796E+03  0.66880230661E+03  0.10501507506E+04  0.65864270000E+03 0. -1.
    8880022    1    1    2    0    0  0.28679277800E+03 -0.37344312796E+03 -0.14141723101E+04  0.14983273484E+04  0.15294330000E+03 0.  0.
<mgrwt>
<rscale>  0 0.71595875E+03</rscale>
<asrwt>0</asrwt>
<pdfrwt beam="1">  1        1 0.13870062E+00 0.80964194E+03</pdfrwt>
<pdfrwt beam="2">  1       -1 0.25337293E+00 0.80964194E+03</pdfrwt>
<totfact> 0.12491712E+00</totfact>
</mgrwt>
</event>
<event>
 4    1  0.1521315E-007  0.7028730E+03  0.7818608E-02  0.9985485E-01
          1   -1    0    0  501    0  0.00000000000E+00  0.00000000000E+00  0.83306726748E+03  0.83306726750E+03  0.50400000000E-02 0. -1.
         -1   -1    0    0    0  501 -0.00000000000E+00 -0.00000000000E+00 -0.36565941707E+03  0.36565941710E+03  0.50400000000E-02 0.  1.
    8880023    1    1    2    0    0  0.22326408401E+03  0.10185006346E+03  0.55611683283E+03  0.89626805402E+03  0.65864270000E+03 0. -1.
    8880022    1    1    2    0    0 -0.22326408401E+03 -0.10185006346E+03 -0.88708982413E+02  0.30245863058E+03  0.15294330000E+03 0.  0.
<mgrwt>
<rscale>  0 0.56291289E+03</rscale>
<asrwt>0</asrwt>
<pdfrwt beam="1">  1        1 0.12816419E+00 0.70287303E+03</pdfrwt>
<pdfrwt beam="2">  1       -1 0.56255295E-01 0.70287303E+03</pdfrwt>
<totfact> 0.67883159E+01</totfact>
</mgrwt>
</event>
<event>
 4    1  0.1521315E-007  0.1092845E+04  0.7818608E-02  0.9269064E-01
          1   -1    0    0  501    0  0.00000000000E+00  0.00000000000E+00  0.11821731045E+04  0.11821731045E+04  0.50400000000E-02 0. -1.
         -1   -1    0    0    0  501 -0.00000000000E+00 -0.00000000000E+00 -0.13094815693E+04  0.13094815693E+04  0.50400000000E-02 0.  1.
    8880023    1    1    2    0    0  0.68948423768E+03  0.53395815984E+03  0.68526323136E+03  0.12899208243E+04  0.65864270000E+03 0.  0.
    8880022    1    1    2    0    0 -0.68948423768E+03 -0.53395815984E+03 -0.81257169620E+03  0.12017338495E+04  0.15294330000E+03 0.  0.
<mgrwt>
<rscale>  0 0.10368141E+04</rscale>
<asrwt>0</asrwt>
<pdfrwt beam="1">  1        1 0.18187278E+00 0.10928449E+04</pdfrwt>
<pdfrwt beam="2">  1       -1 0.20145870E+00 0.10928449E+04</pdfrwt>
<totfact> 0.16079185E+00</totfact>
</mgrwt>
</event>
<event>
 4    1  0.1521315E-007  0.9089341E+03  0.7818608E-02  0.9511839E-01
          1   -1    0    0  501    0  0.00000000000E+00  0.00000000000E+00  0.12859597110E+04  0.12859597110E+04  0.50400000000E-02 0. -1.
         -1   -1    0    0    0  501 -0.00000000000E+00 -0.00000000000E+00 -0.86203107919E+03  0.86203107921E+03  0.50400000000E-02 0.  1.
    8880023    1    1    2    0    0 -0.54842455897E+03 -0.30262434097E+03 -0.48760287047E+03  0.10314638889E+04  0.65864270000E+03 0.  1.
    8880022    1    1    2    0    0  0.54842455897E+03  0.30262434097E+03  0.91153150230E+03  0.11165269013E+04  0.15294330000E+03 0.  0.
<mgrwt>
<rscale>  0 0.83416578E+03</rscale>
<asrwt>0</asrwt>
<pdfrwt beam="1">  1        1 0.19783995E+00 0.90893410E+03</pdfrwt>
<pdfrwt beam="2">  1       -1 0.13262017E+00 0.90893410E+03</pdfrwt>
<totfact> 0.45320640E+00</totfact>
</mgrwt>
</event>
<event>
 4    1  0.1521315E-007  0.7996068E+03  0.7818608E-02  0.9711647E-01
          1   -1    0    0  501    0  0.00000000000E+00  0.00000000000E+00  0.73376328081E+03  0.73376328082E+03  0.50400000000E-02 0. -1.
         -1   -1    0    0    0  501 -0.00000000000E+00 -0.00000000000E+00 -0.83122852221E+03  0.83122852223E+03  0.50400000000E-02 0.  1.
    8880023    1    1    2    0    0 -0.43650191842E+03 -0.12258426067E+03  0.38326867164E+03  0.88671636202E+03  0.65864270000E+03 0.  0.
    8880022    1    1    2    0    0  0.43650191842E+03  0.12258426067E+03 -0.48073391304E+03  0.67827544103E+03  0.15294330000E+03 0.  1.
<mgrwt>
<rscale>  0 0.70327556E+03</rscale>
<asrwt>0</asrwt>
<pdfrwt beam="1">  1        1 0.11288666E+00 0.79960680E+03</pdfrwt>
<pdfrwt beam="2">  1       -1 0.12788131E+00 0.79960680E+03</pdfrwt>
<totfact> 0.13703583E+01</totfact>
</mgrwt>
</event>
<event>
 4    1  0.1521315E-007  0.7476833E+03  0.7818608E-02  0.9838106E-01
         -1   -1    0    0    0  501 -0.00000000000E+00  0.00000000000E+00  0.31051087269E+03  0.31051087273E+03  0.50400000000E-02 0.  1.
          1   -1    0    0  501    0  0.00000000000E+00 -0.00000000000E+00 -0.15488308483E+04  0.15488308483E+04  0.50400000000E-02 0. -1.
    8880023    1    1    2    0    0 -0.15502651186E+03 -0.31809890300E+03 -0.12687187206E+04  0.14726430422E+04  0.65864270000E+03 0. -1.
    8880022    1    1    2    0    0  0.15502651186E+03  0.31809890300E+03  0.30398745041E+02  0.38669867880E+03  0.15294330000E+03 0.  0.
<mgrwt>
<rscale>  0 0.63357046E+03</rscale>
<asrwt>0</asrwt>
<pdfrwt beam="1">  1        1 0.23828166E+00 0.74768331E+03</pdfrwt>
<pdfrwt beam="2">  1       -1 0.47770905E-01 0.74768331E+03</pdfrwt>
<totfact> 0.27372676E+01</totfact>
</mgrwt>
</event>
<event>
 4    1  0.1521315E-007  0.6814125E+03  0.7818608E-02  0.1008536E+00
          1   -1    0    0  501    0  0.00000000000E+00  0.00000000000E+00  0.12373538841E+04  0.12373538841E+04  0.50400000000E-02 0. -1.
         -1   -1    0    0    0  501 -0.00000000000E+00 -0.00000000000E+00 -0.86033466815E+03  0.86033466817E+03  0.50400000000E-02 0.  1.
    8880023    1    1    2    0    0  0.16423405012E+03  0.59497170873E+02  0.11245736237E+04  0.13149101787E+04  0.65864270000E+03 0. -1.
    8880022    1    1    2    0    0 -0.16423405012E+03 -0.59497170873E+02 -0.74755440778E+03  0.78277837360E+03  0.15294330000E+03 0.  0.
<mgrwt>
<rscale>  0 0.52060768E+03</rscale>
<asrwt>0</asrwt>
<pdfrwt beam="1">  1        1 0.19036213E+00 0.68141246E+03</pdfrwt>
<pdfrwt beam="2">  1       -1 0.13235918E+00 0.68141246E+03</pdfrwt>
<totfact> 0.51093695E+00</totfact>
</mgrwt>
</event>
<event>
 4    1  0.1521315E-007  0.7640982E+03  0.7818608E-02  0.9794611E-01
         -1   -1    0    0    0  501 -0.00000000000E+00  0.00000000000E+00  0.91572531333E+03  0.91572531335E+03  0.50400000000E-02 0.  1.
          1   -1    0    0  501    0  0.00000000000E+00 -0.00000000000E+00 -0.12524117379E+04  0.12524117379E+04  0.50400000000E-02 0. -1.
    8880023    1    1    2    0    0 -0.21682872066E+03 -0.32096916321E+03 -0.10759386139E+04  0.13196552599E+04  0.65864270000E+03 0. -1.
    8880022    1    1    2    0    0  0.21682872066E+03  0.32096916321E+03  0.73925218933E+03  0.84848179136E+03  0.15294330000E+03 0.  0.
<mgrwt>
<rscale>  0 0.65652559E+03</rscale>
<asrwt>0</asrwt>
<pdfrwt beam="1">  1        1 0.19267873E+00 0.76409823E+03</pdfrwt>
<pdfrwt beam="2">  1       -1 0.14088082E+00 0.76409823E+03</pdfrwt>
<totfact> 0.41866438E+00</totfact>
</mgrwt>
</event>
<event>
 4    1  0.1521315E-007  0.6699110E+03  0.7818608E-02  0.1015727E+00
          1   -1    0    0  501    0  0.00000000000E+00  0.00000000000E+00  0.37857694266E+03  0.37857694269E+03  0.50400000000E-02 0. -1.
         -1   -1    0    0    0  501 -0.00000000000E+00 -0.00000000000E+00 -0.88447353684E+03  0.88447353686E+03  0.50400000000E-02 0.  1.
    8880023    1    1    2    0    0  0.12128834128E+03  0.16113638294E+02  0.51848574439E+02  0.67191442313E+03  0.65864270000E+03 0. -1.
    8880022    1    1    2    0    0 -0.12128834128E+03 -0.16113638294E+02 -0.55774516862E+03  0.59113605643E+03  0.15294330000E+03 0.  0.
<mgrwt>
<rscale>  0 0.49260715E+03</rscale>
<asrwt>0</asrwt>
<pdfrwt beam="1">  1        1 0.58242607E-01 0.66991098E+03</pdfrwt>
<pdfrwt beam="2">  1       -1 0.13607285E+00 0.66991098E+03</pdfrwt>
<totfact> 0.30055176E+01</totfact>
</mgrwt>
</event>
<event>
 4    1  0.1521315E-007  0.6670560E+03  0.7818608E-02  0.1017867E+00
          1   -1    0    0  501    0  0.00000000000E+00  0.00000000000E+00  0.34780256210E+03  0.34780256214E+03  0.50400000000E-02 0. -1.
         -1   -1    0    0    0  501 -0.00000000000E+00 -0.00000000000E+00 -0.15276907344E+04  0.15276907344E+04  0.50400000000E-02 0.  1.
    8880023    1    1    2    0    0  0.29115754462E+02 -0.10151708850E+03  0.14021208722E+02  0.66720330258E+03  0.65864270000E+03 0. -1.
    8880022    1    1    2    0    0 -0.29115754462E+02  0.10151708850E+03 -0.11939093810E+04  0.12082899939E+04  0.15294330000E+03 0.  0.
<mgrwt>
<rscale>  0 0.48464084E+03</rscale>
<asrwt>0</asrwt>
<pdfrwt beam="1">  1        1 0.53508087E-01 0.66705596E+03</pdfrwt>
<pdfrwt beam="2">  1       -1 0.23502934E+00 0.66705596E+03</pdfrwt>
<totfact> 0.66207376E+00</totfact>
</mgrwt>
</event>
<event>
 4    1  0.1521315E-007  0.6695646E+03  0.7818608E-02  0.1015977E+00
          1   -1    0    0  501    0  0.00000000000E+00  0.00000000000E+00  0.24389683922E+04  0.24389683922E+04  0.50400000000E-02 0. -1.
         -1   -1    0    0    0  501 -0.00000000000E+00 -0.00000000000E+00 -0.76709112453E+02  0.76709112618E+02  0.50400000000E-02 0.  1.
    8880023    1    1    2    0    0 -0.11243012502E+03 -0.43197469652E+02  0.18752435806E+04  0.19911944272E+04  0.65864270000E+03 0.  1.
    8880022    1    1    2    0    0  0.11243012502E+03  0.43197469652E+02  0.48701569918E+03  0.52448307757E+03  0.15294330000E+03 0. -1.
<mgrwt>
<rscale>  0 0.49166772E+03</rscale>
<asrwt>0</asrwt>
<pdfrwt beam="1">  1        1 0.37522586E+00 0.66956461E+03</pdfrwt>
<pdfrwt beam="2">  1       -1 0.11801403E-01 0.66956461E+03</pdfrwt>
<totfact> 0.76061358E+01</totfact>
</mgrwt>
</event>
<event>
 4    1  0.1521315E-007  0.1137078E+04  0.7818608E-02  0.9220856E-01
         -1   -1    0    0    0  501 -0.00000000000E+00  0.00000000000E+00  0.74383223429E+03  0.74383223430E+03  0.50400000000E-02 0.  1.
          1   -1    0    0  501    0  0.00000000000E+00 -0.00000000000E+00 -0.19555287860E+04  0.19555287860E+04  0.50400000000E-02 0. -1.
    8880023    1    1    2    0    0  0.72440513445E+03 -0.57824987041E+03  0.35874690496E+02  0.11376435782E+04  0.65864270000E+03 0.  0.
    8880022    1    1    2    0    0 -0.72440513445E+03  0.57824987041E+03 -0.12475712422E+04  0.15617174421E+04  0.15294330000E+03 0.  0.
<mgrwt>
<rscale>  0 0.10840733E+04</rscale>
<asrwt>0</asrwt>
<pdfrwt beam="1">  1        1 0.30085058E+00 0.11370778E+04</pdfrwt>
<pdfrwt beam="2">  1       -1 0.11443573E+00 0.11370778E+04</pdfrwt>
<totfact> 0.22016251E+00</totfact>
</mgrwt>
</event>
<event>
 4    1  0.1521315E-007  0.8522508E+03  0.7818608E-02  0.9607499E-01
          1   -1    0    0  501    0  0.00000000000E+00  0.00000000000E+00  0.23761722058E+04  0.23761722058E+04  0.50400000000E-02 0. -1.
         -1   -1    0    0    0  501 -0.00000000000E+00 -0.00000000000E+00 -0.77239274342E+03  0.77239274343E+03  0.50400000000E-02 0.  1.
    8880023    1    1    2    0    0 -0.25560226252E+03  0.47664318035E+03 -0.48834956457E+03  0.98225085465E+03  0.65864270000E+03 0.  0.
    8880022    1    1    2    0    0  0.25560226252E+03 -0.47664318035E+03  0.20921290269E+04  0.21663140946E+04  0.15294330000E+03 0.  0.
<mgrwt>
<rscale>  0 0.76801815E+03</rscale>
<asrwt>0</asrwt>
<pdfrwt beam="1">  1        1 0.36556496E+00 0.85225081E+03</pdfrwt>
<pdfrwt beam="2">  1       -1 0.11882965E+00 0.85225081E+03</pdfrwt>
<totfact> 0.10909486E+00</totfact>
</mgrwt>
</event>
<event>
 4    1  0.1521315E-007  0.6903431E+03  0.7818608E-02  0.1003990E+00
          1   -1    0    0  501    0  0.00000000000E+00  0.00000000000E+00  0.66177049207E+03  0.66177049209E+03  0.50400000000E-02 0. -1.
         -1   -1    0    0    0  501 -0.00000000000E+00 -0.00000000000E+00 -0.86332748302E+03  0.86332748303E+03  0.50400000000E-02 0.  1.
    8880023    1    1    2    0    0  0.20676437680E+03  0.34474229956E+01  0.45037394275E+03  0.82426348142E+03  0.65864270000E+03 0. -1.
    8880022    1    1    2    0    0 -0.20676437680E+03 -0.34474229956E+01 -0.65193093369E+03  0.70083449370E+03  0.15294330000E+03 0.  0.
<mgrwt>
<rscale>  0 0.53934805E+03</rscale>
<asrwt>0</asrwt>
<pdfrwt beam="1">  1        1 0.10181085E+00 0.69034310E+03</pdfrwt>
<pdfrwt beam="2">  1       -1 0.13281961E+00 0.69034310E+03</pdfrwt>
<totfact> 0.14753659E+01</totfact>
</mgrwt>
</event>
<event>
 4    1  0.1521315E-007  0.9388605E+03  0.7818608E-02  0.9466326E-01
         -1   -1    0    0    0  501 -0.00000000000E+00  0.00000000000E+00  0.10905605970E+04  0.10905605971E+04  0.50400000000E-02 0.  1.
          1   -1    0    0  501    0  0.00000000000E+00 -0.00000000000E+00 -0.84087289353E+03  0.84087289355E+03  0.50400000000E-02 0. -1.
    8880023    1    1    2    0    0  0.38129814420E+03  0.54978225670E+03 -0.36768608002E+03  0.10082916563E+04  0.65864270000E+03 0.  0.
    8880022    1    1    2    0    0 -0.38129814420E+03 -0.54978225670E+03  0.61737378353E+03  0.92314183426E+03  0.15294330000E+03 0.  0.
<mgrwt>
<rscale>  0 0.86812662E+03</rscale>
<asrwt>0</asrwt>
<pdfrwt beam="1">  1        1 0.12936506E+00 0.93886049E+03</pdfrwt>
<pdfrwt beam="2">  1       -1 0.16777855E+00 0.93886049E+03</pdfrwt>
<totfact> 0.52605483E+00</totfact>
</mgrwt>
</event>
<event>
 4    1  0.1521315E-007  0.6663761E+03  0.7818608E-02  0.1018406E+00
         -1   -1    0    0    0  501 -0.00000000000E+00  0.00000000000E+00  0.32330757049E+03  0.32330757053E+03  0.50400000000E-02 0.  1.
          1   -1    0    0  501    0  0.00000000000E+00 -0.00000000000E+00 -0.87515816199E+03  0.87515816200E+03  0.50400000000E-02 0. -1.
    8880023    1    1    2    0    0  0.89976717557E+02 -0.46380533048E+02 -0.69720454006E+03  0.96444353930E+03  0.65864270000E+03 0.  0.
    8880022    1    1    2    0    0 -0.89976717557E+02  0.46380533048E+02  0.14535394857E+03  0.23402219324E+03  0.15294330000E+03 0.  0.
<mgrwt>
<rscale>  0 0.48266338E+03</rscale>
<asrwt>0</asrwt>
<pdfrwt beam="1">  1        1 0.13463972E+00 0.66637615E+03</pdfrwt>
<pdfrwt beam="2">  1       -1 0.49739627E-01 0.66637615E+03</pdfrwt>
<totfact> 0.79506529E+01</totfact>
</mgrwt>
</event>
<event>
 4    1  0.1521315E-007  0.1148090E+04  0.7818608E-02  0.9209312E-01
          1   -1    0    0  501    0  0.00000000000E+00  0.00000000000E+00  0.21618743546E+04  0.21618743546E+04  0.50400000000E-02 0. -1.
         -1   -1    0    0    0  501 -0.00000000000E+00 -0.00000000000E+00 -0.58576247982E+03  0.58576247984E+03  0.50400000000E-02 0.  1.
    8880023    1    1    2    0    0 -0.83834093019E+03  0.42601141385E+03  0.13429101513E+04  0.17667821373E+04  0.65864270000E+03 0. -1.
    8880022    1    1    2    0    0  0.83834093019E+03 -0.42601141385E+03  0.23320172339E+03  0.98085469707E+03  0.15294330000E+03 0.  1.
<mgrwt>
<rscale>  0 0.10957826E+04</rscale>
<asrwt>0</asrwt>
<pdfrwt beam="1">  1        1 0.33259605E+00 0.11480903E+04</pdfrwt>
<pdfrwt beam="2">  1       -1 0.90117305E-01 0.11480903E+04</pdfrwt>
<totfact> 0.27697321E+00</totfact>
</mgrwt>
</event>
<event>
 4    1  0.1521315E-007  0.6744527E+03  0.7818608E-02  0.1012653E+00
          1   -1    0    0  501    0  0.00000000000E+00  0.00000000000E+00  0.81420216487E+03  0.81420216489E+03  0.50400000000E-02 0. -1.
         -1   -1    0    0    0  501 -0.00000000000E+00 -0.00000000000E+00 -0.25996401185E+03  0.25996401190E+03  0.50400000000E-02 0.  1.
    8880023    1    1    2    0    0 -0.14022777447E+03 -0.37582460670E+02  0.28505045984E+03  0.73221597975E+03  0.65864270000E+03 0.  0.
    8880022    1    1    2    0    0  0.14022777447E+03  0.37582460670E+02  0.26918769318E+03  0.34195019704E+03  0.15294330000E+03 0.  0.
<mgrwt>
<rscale>  0 0.50433544E+03</rscale>
<asrwt>0</asrwt>
<pdfrwt beam="1">  1        1 0.12526187E+00 0.67445272E+03</pdfrwt>
<pdfrwt beam="2">  1       -1 0.39994463E-01 0.67445272E+03</pdfrwt>
<totfact> 0.13380619E+02</totfact>
</mgrwt>
</event>
<event>
 4    1  0.1521315E-007  0.7566812E+03  0.7818608E-02  0.9813776E-01
         -1   -1    0    0    0  501 -0.00000000000E+00  0.00000000000E+00  0.46666989904E+03  0.46666989907E+03  0.50400000000E-02 0.  1.
          1   -1    0    0  501    0  0.00000000000E+00 -0.00000000000E+00 -0.89758726289E+03  0.89758726291E+03  0.50400000000E-02 0. -1.
    8880023    1    1    2    0    0 -0.28070884053E+03  0.24486495478E+03 -0.56003704149E+03  0.94138620838E+03  0.65864270000E+03 0. -1.
    8880022    1    1    2    0    0  0.28070884053E+03 -0.24486495478E+03  0.12911967764E+03  0.42287095360E+03  0.15294330000E+03 0.  1.
<mgrwt>
<rscale>  0 0.64628438E+03</rscale>
<asrwt>0</asrwt>
<pdfrwt beam="1">  1        1 0.13809035E+00 0.75668124E+03</pdfrwt>
<pdfrwt beam="2">  1       -1 0.71795369E-01 0.75668124E+03</pdfrwt>
<totfact> 0.36670731E+01</totfact>
</mgrwt>
</event>
<event>
 4    1  0.1521315E-007  0.6922579E+03  0.7818608E-02  0.1003097E+00
          1   -1    0    0  501    0  0.00000000000E+00  0.00000000000E+00  0.10446963753E+04  0.10446963754E+04  0.50400000000E-02 0. -1.
         -1   -1    0    0    0  501 -0.00000000000E+00 -0.00000000000E+00 -0.22238074642E+03  0.22238074648E+03  0.50400000000E-02 0.  1.
    8880023    1    1    2    0    0 -0.21150301143E+03  0.26024970531E+02  0.67187417042E+03  0.96469473414E+03  0.65864270000E+03 0.  0.
    8880022    1    1    2    0    0  0.21150301143E+03 -0.26024970531E+02  0.15044145851E+03  0.30238238769E+03  0.15294330000E+03 0. -1.
<mgrwt>
<rscale>  0 0.54312708E+03</rscale>
<asrwt>0</asrwt>
<pdfrwt beam="1">  1        1 0.16072252E+00 0.69225792E+03</pdfrwt>
<pdfrwt beam="2">  1       -1 0.34212422E-01 0.69225792E+03</pdfrwt>
<totfact> 0.11551157E+02</totfact>
</mgrwt>
</event>
<event>
 4    1  0.1521315E-007  0.6616347E+03  0.7818608E-02  0.1022541E+00
          1   -1    0    0  501    0  0.00000000000E+00  0.00000000000E+00  0.22818037851E+04  0.22818037851E+04  0.50400000000E-02 0. -1.
         -1   -1    0    0    0  501 -0.00000000000E+00 -0.00000000000E+00 -0.16343648146E+03  0.16343648154E+03  0.50400000000E-02 0.  1.
    8880023    1    1    2    0    0 -0.39731429527E+02  0.48699457615E+02  0.21726848648E+04  0.22711935082E+04  0.65864270000E+03 0. -1.
    8880022    1    1    2    0    0  0.39731429527E+02 -0.48699457615E+02 -0.54317561153E+02  0.17404675846E+03  0.15294330000E+03 0.  0.
<mgrwt>
<rscale>  0 0.46780755E+03</rscale>
<asrwt>0</asrwt>
<pdfrwt beam="1">  1        1 0.35104672E+00 0.66163466E+03</pdfrwt>
<pdfrwt beam="2">  1       -1 0.25144075E-01 0.66163466E+03</pdfrwt>
<totfact> 0.28032951E+01</totfact>
</mgrwt>
</event>
<event>
 4    1  0.1521315E-007  0.7455022E+03  0.7818608E-02  0.9844200E-01
          1   -1    0    0  501    0  0.00000000000E+00  0.00000000000E+00  0.77207686502E+03  0.77207686504E+03  0.50400000000E-02 0. -1.
         -1   -1    0    0    0  501 -0.00000000000E+00 -0.00000000000E+00 -0.58708449890E+03  0.58708449892E+03  0.50400000000E-02 0.  1.
    8880023    1    1    2    0    0  0.25127208531E+03  0.24253999531E+03  0.47164206024E+03  0.88216764248E+03  0.65864270000E+03 0. -1.
    8880022    1    1    2    0    0 -0.25127208531E+03 -0.24253999531E+03 -0.28664969412E+03  0.47699372148E+03  0.15294330000E+03 0.  1.
<mgrwt>
<rscale>  0 0.63043516E+03</rscale>
<asrwt>0</asrwt>
<pdfrwt beam="1">  1        1 0.11878106E+00 0.74550219E+03</pdfrwt>
<pdfrwt beam="2">  1       -1 0.90320692E-01 0.74550219E+03</pdfrwt>
<totfact> 0.28774382E+01</totfact>
</mgrwt>
</event>
<event>
 4    1  0.1521315E-007  0.8175547E+03  0.7818608E-02  0.9674050E-01
          1   -1    0    0  501    0  0.00000000000E+00  0.00000000000E+00  0.13981169360E+04  0.13981169360E+04  0.50400000000E-02 0. -1.
         -1   -1    0    0    0  501 -0.00000000000E+00 -0.00000000000E+00 -0.31490048361E+03  0.31490048365E+03  0.50400000000E-02 0.  1.
    8880023    1    1    2    0    0  0.41196732010E+03 -0.25469283576E+03  0.70851391661E+03  0.10818445774E+04  0.65864270000E+03 0.  0.
    8880022    1    1    2    0    0 -0.41196732010E+03  0.25469283576E+03  0.37470253574E+03  0.63117284219E+03  0.15294330000E+03 0.  0.
<mgrwt>
<rscale>  0 0.72583061E+03</rscale>
<asrwt>0</asrwt>
<pdfrwt beam="1">  1        1 0.21509491E+00 0.81755472E+03</pdfrwt>
<pdfrwt beam="2">  1       -1 0.48446229E-01 0.81755472E+03</pdfrwt>
<totfact> 0.33577279E+01</totfact>
</mgrwt>
</event>
<event>
 4    1  0.1682129E-007  0.7697640E+03  0.7818608E-02  0.9780455E-01
          1   -1    0    0  501    0  0.00000000000E+00  0.00000000000E+00  0.15115034019E+04  0.15115034019E+04  0.50400000000E-02 0. -1.
         -1   -1    0    0    0  501 -0.00000000000E+00 -0.00000000000E+00 -0.12933362229E+04  0.12933362230E+04  0.50400000000E-02 0.  1.
    8880023    1    1    2    0    0 -0.14117659010E+03  0.37255281037E+03  0.13727893011E+04  0.15738764556E+04  0.65864270000E+03 0. -1.
    8880022    1    1    2    0    0  0.14117659010E+03 -0.37255281037E+03 -0.11546221221E+04  0.12309631692E+04  0.15294330000E+03 0.  0.
<mgrwt>
<rscale>  0 0.66422059E+03</rscale>
<asrwt>0</asrwt>
<pdfrwt beam="1">  1        1 0.23253898E+00 0.76976401E+03</pdfrwt>
<pdfrwt beam="2">  1       -1 0.19897480E+00 0.76976401E+03</pdfrwt>
<totfact> 0.10302856E+00</totfact>
</mgrwt>
</event>
<event>
 4    1  0.1521315E-007  0.6721315E+03  0.7818608E-02  0.1014179E+00
          1   -1    0    0  501    0  0.00000000000E+00  0.00000000000E+00  0.50259253153E+03  0.50259253156E+03  0.50400000000E-02 0. -1.
         -1   -1    0    0    0  501 -0.00000000000E+00 -0.00000000000E+00 -0.10330564430E+04  0.10330564430E+04  0.50400000000E-02 0.  1.
    8880023    1    1    2    0    0 -0.11853279898E+03  0.62454242003E+02  0.25908659872E+03  0.72033785731E+03  0.65864270000E+03 0. -1.
    8880022    1    1    2    0    0  0.11853279898E+03 -0.62454242003E+02 -0.78955051016E+03  0.81531111724E+03  0.15294330000E+03 0.  0.
<mgrwt>
<rscale>  0 0.49847101E+03</rscale>
<asrwt>0</asrwt>
<pdfrwt beam="1">  1        1 0.77321928E-01 0.67213151E+03</pdfrwt>
<pdfrwt beam="2">  1       -1 0.15893176E+00 0.67213151E+03</pdfrwt>
<totfact> 0.13607083E+01</totfact>
</mgrwt>
</event>
<event>
 4    1  0.1521315E-007  0.6819200E+03  0.7818608E-02  0.1008258E+00
          1   -1    0    0  501    0  0.00000000000E+00  0.00000000000E+00  0.14037939265E+04  0.14037939265E+04  0.50400000000E-02 0. -1.
         -1   -1    0    0    0  501 -0.00000000000E+00 -0.00000000000E+00 -0.40075156159E+03  0.40075156163E+03  0.50400000000E-02 0.  1.
    8880023    1    1    2    0    0 -0.13882844679E+03 -0.10923050296E+03  0.12750561901E+04  0.14459540569E+04  0.65864270000E+03 0. -1.
    8880022    1    1    2    0    0  0.13882844679E+03  0.10923050296E+03 -0.27201382524E+03  0.35859143123E+03  0.15294330000E+03 0.  0.
<mgrwt>
<rscale>  0 0.52172957E+03</rscale>
<asrwt>0</asrwt>
<pdfrwt beam="1">  1        1 0.21596830E+00 0.68191997E+03</pdfrwt>
<pdfrwt beam="2">  1       -1 0.61654086E-01 0.68191997E+03</pdfrwt>
<totfact> 0.21244010E+01</totfact>
</mgrwt>
</event>
<event>
 4    1  0.1521315E-007  0.6864864E+03  0.7818608E-02  0.1005869E+00
          1   -1    0    0  501    0  0.00000000000E+00  0.00000000000E+00  0.16622524571E+04  0.16622524571E+04  0.50400000000E-02 0. -1.
         -1   -1    0    0    0  501 -0.00000000000E+00 -0.00000000000E+00 -0.18916996267E+03  0.18916996274E+03  0.50400000000E-02 0.  1.
    8880023    1    1    2    0    0  0.15978308273E+02 -0.19286807934E+03  0.14492355635E+04  0.16036044796E+04  0.65864270000E+03 0.  0.
    8880022    1    1    2    0    0 -0.15978308273E+02  0.19286807934E+03  0.23846930947E+02  0.24781794022E+03  0.15294330000E+03 0.  0.
<mgrwt>
<rscale>  0 0.53149860E+03</rscale>
<asrwt>0</asrwt>
<pdfrwt beam="1">  1        1 0.25573114E+00 0.68648642E+03</pdfrwt>
<pdfrwt beam="2">  1       -1 0.29103072E-01 0.68648642E+03</pdfrwt>
<totfact> 0.56391622E+01</totfact>
</mgrwt>
</event>
<event>
 4    1  0.1521315E-007  0.1339991E+04  0.7818608E-02  0.9031772E-01
         -1   -1    0    0    0  501 -0.00000000000E+00  0.00000000000E+00  0.99166731678E+03  0.99166731680E+03  0.50400000000E-02 0.  1.
          1   -1    0    0  501    0  0.00000000000E+00 -0.00000000000E+00 -0.27000438962E+04  0.27000438962E+04  0.50400000000E-02 0. -1.
    8880023    1    1    2    0    0 -0.84073811532E+03  0.80927405928E+03 -0.20652426444E+04  0.24618697098E+04  0.65864270000E+03 0.  0.
    8880022    1    1    2    0    0  0.84073811532E+03 -0.80927405928E+03  0.35686606500E+03  0.12298415032E+04  0.15294330000E+03 0.  0.
<mgrwt>
<rscale>  0 0.12972203E+04</rscale>
<asrwt>0</asrwt>
<pdfrwt beam="1">  1        1 0.41539136E+00 0.13399908E+04</pdfrwt>
<pdfrwt beam="2">  1       -1 0.15256420E+00 0.13399908E+04</pdfrwt>
<totfact> 0.31704445E-01</totfact>
</mgrwt>
</event>
<event>
 4    1  0.1521315E-007  0.8796574E+03  0.7818608E-02  0.9559510E-01
         -1   -1    0    0    0  501 -0.00000000000E+00  0.00000000000E+00  0.48350406469E+03  0.48350406471E+03  0.50400000000E-02 0.  1.
          1   -1    0    0  501    0  0.00000000000E+00 -0.00000000000E+00 -0.13972828935E+04  0.13972828935E+04  0.50400000000E-02 0. -1.
    8880023    1    1    2    0    0  0.16199627864E+03 -0.56012874014E+03 -0.92685914303E+03  0.12778360916E+04  0.65864270000E+03 0. -1.
    8880022    1    1    2    0    0 -0.16199627864E+03  0.56012874014E+03  0.13080314255E+02  0.60295086654E+03  0.15294330000E+03 0.  0.
<mgrwt>
<rscale>  0 0.80035030E+03</rscale>
<asrwt>0</asrwt>
<pdfrwt beam="1">  1        1 0.21496660E+00 0.87965744E+03</pdfrwt>
<pdfrwt beam="2">  1       -1 0.74385241E-01 0.87965744E+03</pdfrwt>
<totfact> 0.14292835E+01</totfact>
</mgrwt>
</event>
<event>
 4    1  0.1521315E-007  0.1049074E+04  0.7818608E-02  0.9319995E-01
         -1   -1    0    0    0  501 -0.00000000000E+00  0.00000000000E+00  0.11624560653E+04  0.11624560653E+04  0.50400000000E-02 0.  1.
          1   -1    0    0  501    0  0.00000000000E+00 -0.00000000000E+00 -0.94745783789E+03  0.94745783791E+03  0.50400000000E-02 0. -1.
    8880023    1    1    2    0    0 -0.65137159646E+03 -0.49240376333E+03 -0.34923186245E+03  0.11056760479E+04  0.65864270000E+03 0.  0.
    8880022    1    1    2    0    0  0.65137159646E+03  0.49240376333E+03  0.56423008986E+03  0.10042378554E+04  0.15294330000E+03 0.  0.
<mgrwt>
<rscale>  0 0.98962725E+03</rscale>
<asrwt>0</asrwt>
<pdfrwt beam="1">  1        1 0.14576275E+00 0.10490742E+04</pdfrwt>
<pdfrwt beam="2">  1       -1 0.17883939E+00 0.10490742E+04</pdfrwt>
<totfact> 0.35238075E+00</totfact>
</mgrwt>
</event>
<event>
 4    1  0.1521315E-007  0.9637960E+03  0.7818608E-02  0.9430536E-01
         -1   -1    0    0    0  501 -0.00000000000E+00  0.00000000000E+00  0.12193772941E+04  0.12193772942E+04  0.50400000000E-02 0.  1.
          1   -1    0    0  501    0  0.00000000000E+00 -0.00000000000E+00 -0.75852847743E+03  0.75852847744E+03  0.50400000000E-02 0. -1.
    8880023    1    1    2    0    0 -0.39654093430E+03 -0.58124670171E+03 -0.21817299175E+03  0.98818120880E+03  0.65864270000E+03 0. -1.
    8880022    1    1    2    0    0  0.39654093430E+03  0.58124670171E+03  0.67902180847E+03  0.98972456280E+03  0.15294330000E+03 0.  0.
<mgrwt>
<rscale>  0 0.89604693E+03</rscale>
<asrwt>0</asrwt>
<pdfrwt beam="1">  1        1 0.11669669E+00 0.96379596E+03</pdfrwt>
<pdfrwt beam="2">  1       -1 0.18759650E+00 0.96379596E+03</pdfrwt>
<totfact> 0.44544099E+00</totfact>
</mgrwt>
</event>
<event>
 4    1  0.1521315E-007  0.8686950E+03  0.7818608E-02  0.9578280E-01
         -1   -1    0    0    0  501 -0.00000000000E+00  0.00000000000E+00  0.98306140545E+03  0.98306140547E+03  0.50400000000E-02 0.  1.
          1   -1    0    0  501    0  0.00000000000E+00 -0.00000000000E+00 -0.87787480903E+03  0.87787480904E+03  0.50400000000E-02 0. -1.
    8880023    1    1    2    0    0  0.55400030554E+03 -0.11791751011E+03 -0.51284084247E+03  0.10087798638E+04  0.65864270000E+03 0.  0.
    8880022    1    1    2    0    0 -0.55400030554E+03  0.11791751011E+03  0.61802743890E+03  0.85215635066E+03  0.15294330000E+03 0.  0.
<mgrwt>
<rscale>  0 0.78750595E+03</rscale>
<asrwt>0</asrwt>
<pdfrwt beam="1">  1        1 0.13505766E+00 0.86869505E+03</pdfrwt>
<pdfrwt beam="2">  1       -1 0.15124022E+00 0.86869505E+03</pdfrwt>
<totfact> 0.65901753E+00</totfact>
</mgrwt>
</event>
<event>
 4    1  0.1521315E-007  0.7030615E+03  0.7818608E-02  0.9984730E-01
         -1   -1    0    0    0  501 -0.00000000000E+00  0.00000000000E+00  0.86497827266E+03  0.86497827268E+03  0.50400000000E-02 0.  1.
          1   -1    0    0  501    0  0.00000000000E+00 -0.00000000000E+00 -0.13014217542E+04  0.13014217542E+04  0.50400000000E-02 0. -1.
    8880023    1    1    2    0    0  0.14815178576E+03 -0.19630656815E+03 -0.11771299624E+04  0.13711055302E+04  0.65864270000E+03 0. -1.
    8880022    1    1    2    0    0 -0.14815178576E+03  0.19630656815E+03  0.74068648092E+03  0.79529449662E+03  0.15294330000E+03 0.  0.
<mgrwt>
<rscale>  0 0.56324877E+03</rscale>
<asrwt>0</asrwt>
<pdfrwt beam="1">  1        1 0.20021873E+00 0.70306147E+03</pdfrwt>
<pdfrwt beam="2">  1       -1 0.13307358E+00 0.70306147E+03</pdfrwt>
<totfact> 0.45212823E+00</totfact>
</mgrwt>
</event>
<event>
 4    1  0.1521315E-007  0.6770241E+03  0.7818608E-02  0.1011060E+00
         -1   -1    0    0    0  501 -0.00000000000E+00  0.00000000000E+00  0.40171902312E+03  0.40171902315E+03  0.50400000000E-02 0.  1.
          1   -1    0    0  501    0  0.00000000000E+00 -0.00000000000E+00 -0.10461064100E+04  0.10461064100E+04  0.50400000000E-02 0. -1.
    8880023    1    1    2    0    0 -0.15528864548E+03  0.20901934886E+02 -0.89035197191E+03  0.11185205829E+04  0.65864270000E+03 0. -1.
    8880022    1    1    2    0    0  0.15528864548E+03 -0.20901934886E+02  0.24596458501E+03  0.32930485024E+03  0.15294330000E+03 0.  0.
<mgrwt>
<rscale>  0 0.51055658E+03</rscale>
<asrwt>0</asrwt>
<pdfrwt beam="1">  1        1 0.16093945E+00 0.67702412E+03</pdfrwt>
<pdfrwt beam="2">  1       -1 0.61802927E-01 0.67702412E+03</pdfrwt>
<totfact> 0.38279656E+01</totfact>
</mgrwt>
</event>
<event>
 4    1  0.1532935E-007  0.7005766E+03  0.7818608E-02  0.9994818E-01
          1   -1    0    0  501    0  0.00000000000E+00  0.00000000000E+00  0.15060197263E+04  0.15060197263E+04  0.50400000000E-02 0. -1.
         -1   -1    0    0    0  501 -0.00000000000E+00 -0.00000000000E+00 -0.11413121448E+04  0.11413121448E+04  0.50400000000E-02 0.  1.
    8880023    1    1    2    0    0  0.15408468843E+03  0.18236018264E+03  0.14045242757E+04  0.15695527945E+04  0.65864270000E+03 0. -1.
    8880022    1    1    2    0    0 -0.15408468843E+03 -0.18236018264E+03 -0.10398166942E+04  0.10777790766E+04  0.15294330000E+03 0.  0.
<mgrwt>
<rscale>  0 0.55878054E+03</rscale>
<asrwt>0</asrwt>
<pdfrwt beam="1">  1        1 0.23169534E+00 0.70057657E+03</pdfrwt>
<pdfrwt beam="2">  1       -1 0.17558648E+00 0.70057657E+03</pdfrwt>
<totfact> 0.15382162E+00</totfact>
</mgrwt>
</event>
<event>
 4    1  0.1521315E-007  0.7150441E+03  0.7818608E-02  0.9939726E-01
         -1   -1    0    0    0  501 -0.00000000000E+00  0.00000000000E+00  0.13939992973E+04  0.13939992973E+04  0.50400000000E-02 0.  1.
          1   -1    0    0  501    0  0.00000000000E+00 -0.00000000000E+00 -0.26560589748E+03  0.26560589753E+03  0.50400000000E-02 0. -1.
    8880023    1    1    2    0    0  0.27415211895E+03  0.48149909044E+02  0.30554249951E+03  0.77758872377E+03  0.65864270000E+03 0. -1.
    8880022    1    1    2    0    0 -0.27415211895E+03 -0.48149909044E+02  0.82285090031E+03  0.88201647106E+03  0.15294330000E+03 0.  0.
<mgrwt>
<rscale>  0 0.58374014E+03</rscale>
<asrwt>0</asrwt>
<pdfrwt beam="1">  1        1 0.40862446E-01 0.71504406E+03</pdfrwt>
<pdfrwt beam="2">  1       -1 0.21446143E+00 0.71504406E+03</pdfrwt>
<totfact> 0.12748218E+01</totfact>
</mgrwt>
</event>
<event>
 4    1  0.1521315E-007  0.1305241E+04  0.7818608E-02  0.9061047E-01
         -1   -1    0    0    0  501 -0.00000000000E+00  0.00000000000E+00  0.11447533728E+04  0.11447533728E+04  0.50400000000E-02 0.  1.
          1   -1    0    0  501    0  0.00000000000E+00 -0.00000000000E+00 -0.36971006247E+04  0.36971006247E+04  0.50400000000E-02 0. -1.
    8880023    1    1    2    0    0 -0.10748241702E+04  0.33852097711E+03 -0.32537175541E+04  0.35057569192E+04  0.65864270000E+03 0.  0.
    8880022    1    1    2    0    0  0.10748241702E+04 -0.33852097711E+03  0.70137030212E+03  0.13360970782E+04  0.15294330000E+03 0.  0.
<mgrwt>
<rscale>  0 0.12610366E+04</rscale>
<asrwt>0</asrwt>
<pdfrwt beam="1">  1        1 0.56878471E+00 0.13052408E+04</pdfrwt>
<pdfrwt beam="2">  1       -1 0.17611590E+00 0.13052408E+04</pdfrwt>
<totfact> 0.37945434E-02</totfact>
</mgrwt>
</event>
<event>
 4    1  0.1521315E-007  0.1663313E+04  0.7818608E-02  0.8802171E-01
         -1   -1    0    0    0  501 -0.00000000000E+00  0.00000000000E+00  0.17466602885E+04  0.17466602885E+04  0.50400000000E-02 0.  1.
          1   -1    0    0  501    0  0.00000000000E+00 -0.00000000000E+00 -0.20609208644E+04  0.20609208645E+04  0.50400000000E-02 0. -1.
    8880023    1    1    2    0    0 -0.12902552019E+04  0.81733782981E+03 -0.11855203890E+04  0.20425641760E+04  0.65864270000E+03 0.  0.
    8880022    1    1    2    0    0  0.12902552019E+04 -0.81733782981E+03  0.87125981313E+03  0.17650169770E+04  0.15294330000E+03 0.  0.
<mgrwt>
<rscale>  0 0.16302597E+04</rscale>
<asrwt>0</asrwt>
<pdfrwt beam="1">  1        1 0.31706475E+00 0.16633129E+04</pdfrwt>
<pdfrwt beam="2">  1       -1 0.26871697E+00 0.16633129E+04</pdfrwt>
<totfact> 0.13198983E-01</totfact>
</mgrwt>
</event>
<event>
 4    1  0.1521315E-007  0.9451738E+03  0.7818608E-02  0.9457092E-01
         -1   -1    0    0    0  501 -0.00000000000E+00  0.00000000000E+00  0.83292541263E+03  0.83292541265E+03  0.50400000000E-02 0.  1.
          1   -1    0    0  501    0  0.00000000000E+00 -0.00000000000E+00 -0.19651135575E+04  0.19651135575E+04  0.50400000000E-02 0. -1.
    8880023    1    1    2    0    0  0.62531573254E+03  0.26177002003E+03 -0.16702585760E+04  0.19191449204E+04  0.65864270000E+03 0. -1.
    8880022    1    1    2    0    0 -0.62531573254E+03 -0.26177002003E+03  0.53807043112E+03  0.87889404971E+03  0.15294330000E+03 0.  0.
<mgrwt>
<rscale>  0 0.87522525E+03</rscale>
<asrwt>0</asrwt>
<pdfrwt beam="1">  1        1 0.30232516E+00 0.94517380E+03</pdfrwt>
<pdfrwt beam="2">  1       -1 0.12814237E+00 0.94517380E+03</pdfrwt>
<totfact> 0.16863765E+00</totfact>
</mgrwt>
</event>
<event>
 4    1  0.1521315E-007  0.8732403E+03  0.7818608E-02  0.9570432E-01
          1   -1    0    0  501    0  0.00000000000E+00  0.00000000000E+00  0.83274727331E+03  0.83274727332E+03  0.50400000000E-02 0. -1.
         -1   -1    0    0    0  501 -0.00000000000E+00 -0.00000000000E+00 -0.13777665479E+04  0.13777665479E+04  0.50400000000E-02 0.  1.
    8880023    1    1    2    0    0 -0.28641041985E+03 -0.49669652996E+03  0.50183736535E+03  0.10071689625E+04  0.65864270000E+03 0. -1.
    8880022    1    1    2    0    0  0.28641041985E+03  0.49669652996E+03 -0.10468566400E+04  0.12033448588E+04  0.15294330000E+03 0.  0.
<mgrwt>
<rscale>  0 0.79284483E+03</rscale>
<asrwt>0</asrwt>
<pdfrwt beam="1">  1        1 0.12811497E+00 0.87324027E+03</pdfrwt>
<pdfrwt beam="2">  1       -1 0.21196408E+00 0.87324027E+03</pdfrwt>
<totfact> 0.26389495E+00</totfact>
</mgrwt>
</event>
<event>
 4    1  0.1521315E-007  0.1022248E+04  0.7818608E-02  0.9353013E-01
          1   -1    0    0  501    0  0.00000000000E+00  0.00000000000E+00  0.11290281679E+04  0.11290281679E+04  0.50400000000E-02 0. -1.
         -1   -1    0    0    0  501 -0.00000000000E+00 -0.00000000000E+00 -0.10069231950E+04  0.10069231950E+04  0.50400000000E-02 0.  1.
    8880023    1    1    2    0    0 -0.40277104407E+03  0.67004139055E+03  0.62093493356E+03  0.11960561763E+04  0.65864270000E+03 0.  0.
    8880022    1    1    2    0    0  0.40277104407E+03 -0.67004139055E+03 -0.49882996064E+03  0.93989518652E+03  0.15294330000E+03 0.  0.
<mgrwt>
<rscale>  0 0.96045531E+03</rscale>
<asrwt>0</asrwt>
<pdfrwt beam="1">  1        1 0.17369664E+00 0.10222476E+04</pdfrwt>
<pdfrwt beam="2">  1       -1 0.15491126E+00 0.10222476E+04</pdfrwt>
<totfact> 0.38559236E+00</totfact>
</mgrwt>
</event>
<event>
 4    1  0.1521315E-007  0.6603271E+03  0.7818608E-02  0.1023824E+00
          1   -1    0    0  501    0  0.00000000000E+00  0.00000000000E+00  0.16244762599E+04  0.16244762599E+04  0.50400000000E-02 0. -1.
         -1   -1    0    0    0  501 -0.00000000000E+00 -0.00000000000E+00 -0.64955976939E+03  0.64955976941E+03  0.50400000000E-02 0.  1.
    8880023    1    1    2    0    0  0.41690365141E+02 -0.21991070156E+02  0.15459129006E+04  0.16810349777E+04  0.65864270000E+03 0. -1.
    8880022    1    1    2    0    0 -0.41690365141E+02  0.21991070156E+02 -0.57099641016E+03  0.59300105155E+03  0.15294330000E+03 0.  0.
<mgrwt>
<rscale>  0 0.46331636E+03</rscale>
<asrwt>0</asrwt>
<pdfrwt beam="1">  1        1 0.24991942E+00 0.66032712E+03</pdfrwt>
<pdfrwt beam="2">  1       -1 0.99932273E-01 0.66032712E+03</pdfrwt>
<totfact> 0.54335501E+00</totfact>
</mgrwt>
</event>
<event>
 4    1  0.1521315E-007  0.9868584E+03  0.7818608E-02  0.9398956E-01
          1   -1    0    0  501    0  0.00000000000E+00  0.00000000000E+00  0.11441508257E+04  0.11441508258E+04  0.50400000000E-02 0. -1.
         -1   -1    0    0    0  501 -0.00000000000E+00 -0.00000000000E+00 -0.13158161247E+04  0.13158161247E+04  0.50400000000E-02 0.  1.
    8880023    1    1    2    0    0  0.92715904931E+02  0.72902885447E+03  0.77286633671E+03  0.12534799122E+04  0.65864270000E+03 0. -1.
    8880022    1    1    2    0    0 -0.92715904931E+02 -0.72902885447E+03 -0.94453163570E+03  0.12064870383E+04  0.15294330000E+03 0.  0.
<mgrwt>
<rscale>  0 0.92161615E+03</rscale>
<asrwt>0</asrwt>
<pdfrwt beam="1">  1        1 0.17602320E+00 0.98685841E+03</pdfrwt>
<pdfrwt beam="2">  1       -1 0.20243325E+00 0.98685841E+03</pdfrwt>
<totfact> 0.17129265E+00</totfact>
</mgrwt>
</event>
<event>
 4    1  0.1521315E-007  0.7321935E+03  0.7818608E-02  0.9883300E-01
          1   -1    0    0  501    0  0.00000000000E+00  0.00000000000E+00  0.14855630382E+04  0.14855630382E+04  0.50400000000E-02 0. -1.
         -1   -1    0    0    0  501 -0.00000000000E+00 -0.00000000000E+00 -0.35676162838E+03  0.35676162842E+03  0.50400000000E-02 0.  1.
    8880023    1    1    2    0    0 -0.30713835515E+03  0.89236106567E+02  0.81584869163E+02  0.73672474443E+03  0.65864270000E+03 0.  1.
    8880022    1    1    2    0    0  0.30713835515E+03 -0.89236106567E+02  0.10472165407E+04  0.11055999222E+04  0.15294330000E+03 0.  0.
<mgrwt>
<rscale>  0 0.61077523E+03</rscale>
<asrwt>0</asrwt>
<pdfrwt beam="1">  1        1 0.22854816E+00 0.73219346E+03</pdfrwt>
<pdfrwt beam="2">  1       -1 0.54886405E-01 0.73219346E+03</pdfrwt>
<totfact> 0.23261623E+01</totfact>
</mgrwt>
</event>
<event>
 4    1  0.1521315E-007  0.6655254E+03  0.7818608E-02  0.1019097E+00
         -1   -1    0    0    0  501 -0.00000000000E+00  0.00000000000E+00  0.73805346581E+02  0.73805346753E+02  0.50400000000E-02 0.  1.
          1   -1    0    0  501    0  0.00000000000E+00 -0.00000000000E+00 -0.24425740887E+04  0.24425740887E+04  0.50400000000E-02 0. -1.
    8880023    1    1    2    0    0 -0.40146245136E+02  0.86614460900E+02 -0.19502211685E+04  0.20606519837E+04  0.65864270000E+03 0. -1.
    8880022    1    1    2    0    0  0.40146245136E+02 -0.86614460900E+02 -0.41854757363E+03  0.45572745171E+03  0.15294330000E+03 0.  1.
<mgrwt>
<rscale>  0 0.48014008E+03</rscale>
<asrwt>0</asrwt>
<pdfrwt beam="1">  1        1 0.37578057E+00 0.66552535E+03</pdfrwt>
<pdfrwt beam="2">  1       -1 0.11354671E-01 0.66552535E+03</pdfrwt>
<totfact> 0.80475640E+01</totfact>
</mgrwt>
</event>
<event>
 4    1  0.1521315E-007  0.6841377E+03  0.7818608E-02  0.1007074E+00
          1   -1    0    0  501    0  0.00000000000E+00  0.00000000000E+00  0.12331011248E+04  0.12331011248E+04  0.50400000000E-02 0. -1.
         -1   -1    0    0    0  501 -0.00000000000E+00 -0.00000000000E+00 -0.39827931253E+03  0.39827931256E+03  0.50400000000E-02 0.  1.
    8880023    1    1    2    0    0 -0.11854464641E+03  0.14206103739E+03  0.10862621476E+04  0.12837483519E+04  0.65864270000E+03 0. -1.
    8880022    1    1    2    0    0  0.11854464641E+03 -0.14206103739E+03 -0.25144033536E+03  0.34763208540E+03  0.15294330000E+03 0.  0.
<mgrwt>
<rscale>  0 0.52654414E+03</rscale>
<asrwt>0</asrwt>
<pdfrwt beam="1">  1        1 0.18970786E+00 0.68413769E+03</pdfrwt>
<pdfrwt beam="2">  1       -1 0.61273742E-01 0.68413769E+03</pdfrwt>
<totfact> 0.28342181E+01</totfact>
</mgrwt>
</event>
<event>
 4    1  0.1521315E-007  0.8983688E+03  0.7818608E-02  0.9528655E-01
          1   -1    0    0  501    0  0.00000000000E+00  0.00000000000E+00  0.27152936052E+04  0.27152936052E+04  0.50400000000E-02 0. -1.
         -1   -1    0    0    0  501 -0.00000000000E+00 -0.00000000000E+00 -0.24624838124E+03  0.24624838129E+03  0.50400000000E-02 0.  1.
    8880023    1    1    2    0    0 -0.50973073179E+03 -0.33679511757E+03  0.19441807706E+04  0.21417061995E+04  0.65864270000E+03 0. -1.
    8880022    1    1    2    0    0  0.50973073179E+03  0.33679511757E+03  0.52486445334E+03  0.81983578694E+03  0.15294330000E+03 0.  0.
<mgrwt>
<rscale>  0 0.82203758E+03</rscale>
<asrwt>0</asrwt>
<pdfrwt beam="1">  1        1 0.41773747E+00 0.89836884E+03</pdfrwt>
<pdfrwt beam="2">  1       -1 0.37884367E-01 0.89836884E+03</pdfrwt>
<totfact> 0.66664300E+00</totfact>
</mgrwt>
</event>
<event>
 4    1  0.1521315E-007  0.1029797E+04  0.7818608E-02  0.9343572E-01
          1   -1    0    0  501    0  0.00000000000E+00  0.00000000000E+00  0.12031322325E+04  0.12031322325E+04  0.50400000000E-02 0. -1.
         -1   -1    0    0    0  501 -0.00000000000E+00 -0.00000000000E+00 -0.13742284315E+04  0.13742284315E+04  0.50400000000E-02 0.  1.
    8880023    1    1    2    0    0 -0.74610733998E+03  0.26456591214E+03 -0.98976445622E+03  0.14283260026E+04  0.65864270000E+03 0.  1.
    8880022    1    1    2    0    0  0.74610733998E+03 -0.26456591214E+03  0.81866825724E+03  0.11490346614E+04  0.15294330000E+03 0. -1.
<mgrwt>
<rscale>  0 0.96868614E+03</rscale>
<asrwt>0</asrwt>
<pdfrwt beam="1">  1        1 0.18509727E+00 0.10297968E+04</pdfrwt>
<pdfrwt beam="2">  1       -1 0.21141976E+00 0.10297968E+04</pdfrwt>
<totfact> 0.13386387E+00</totfact>
</mgrwt>
</event>
<event>
 4    1  0.1521315E-007  0.9290149E+03  0.7818608E-02  0.9480973E-01
         -1   -1    0    0    0  501 -0.00000000000E+00  0.00000000000E+00  0.45785405292E+03  0.45785405295E+03  0.50400000000E-02 0.  1.
          1   -1    0    0  501    0  0.00000000000E+00 -0.00000000000E+00 -0.15175515779E+04  0.15175515779E+04  0.50400000000E-02 0. -1.
    8880023    1    1    2    0    0 -0.18832798583E+03 -0.62752779540E+03 -0.33760357103E+03  0.98845583699E+03  0.65864270000E+03 0.  0.
    8880022    1    1    2    0    0  0.18832798583E+03  0.62752779540E+03 -0.72209395390E+03  0.98694979382E+03  0.15294330000E+03 0.  0.
<mgrwt>
<rscale>  0 0.85701292E+03</rscale>
<asrwt>0</asrwt>
<pdfrwt beam="1">  1        1 0.23346947E+00 0.92901495E+03</pdfrwt>
<pdfrwt beam="2">  1       -1 0.70439086E-01 0.92901495E+03</pdfrwt>
<totfact> 0.13135850E+01</totfact>
</mgrwt>
</event>
<event>
 4    1  0.1521315E-007  0.7577365E+03  0.7818608E-02  0.9811003E-01
          1   -1    0    0  501    0  0.00000000000E+00  0.00000000000E+00  0.59479929842E+03  0.59479929844E+03  0.50400000000E-02 0. -1.
         -1   -1    0    0    0  501 -0.00000000000E+00 -0.00000000000E+00 -0.65906174594E+03  0.65906174596E+03  0.50400000000E-02 0.  1.
    8880023    1    1    2    0    0  0.20396409023E+03 -0.31424986404E+03  0.18315812164E+03  0.77955848462E+03  0.65864270000E+03 0.  1.
    8880022    1    1    2    0    0 -0.20396409023E+03  0.31424986404E+03 -0.24742056916E+03  0.47430255978E+03  0.15294330000E+03 0.  0.
<mgrwt>
<rscale>  0 0.64775380E+03</rscale>
<asrwt>0</asrwt>
<pdfrwt beam="1">  1        1 0.91507584E-01 0.75773645E+03</pdfrwt>
<pdfrwt beam="2">  1       -1 0.10139411E+00 0.75773645E+03</pdfrwt>
<totfact> 0.32760865E+01</totfact>
</mgrwt>
</event>
<event>
 4    1  0.1521315E-007  0.9881812E+03  0.7818608E-02  0.9397186E-01
         -1   -1    0    0    0  501 -0.00000000000E+00  0.00000000000E+00  0.87810355716E+03  0.87810355717E+03  0.50400000000E-02 0.  1.
          1   -1    0    0  501    0  0.00000000000E+00 -0.00000000000E+00 -0.12929895423E+04  0.12929895423E+04  0.50400000000E-02 0. -1.
    8880023    1    1    2    0    0 -0.73378227811E+03  0.65234266431E+02 -0.84869200564E+03  0.13026051850E+04  0.65864270000E+03 0. -1.
    8880022    1    1    2    0    0  0.73378227811E+03 -0.65234266431E+02  0.43380602052E+03  0.86848791450E+03  0.15294330000E+03 0.  0.
<mgrwt>
<rscale>  0 0.92307613E+03</rscale>
<asrwt>0</asrwt>
<pdfrwt beam="1">  1        1 0.19892147E+00 0.98818123E+03</pdfrwt>
<pdfrwt beam="2">  1       -1 0.13509285E+00 0.98818123E+03</pdfrwt>
<totfact> 0.42301465E+00</totfact>
</mgrwt>
</event>
<event>
 4    1  0.1521315E-007  0.7327475E+03  0.7818608E-02  0.9881600E-01
         -1   -1    0    0    0  501 -0.00000000000E+00  0.00000000000E+00  0.52711389448E+03  0.52711389450E+03  0.50400000000E-02 0.  1.
          1   -1    0    0  501    0  0.00000000000E+00 -0.00000000000E+00 -0.58274705375E+03  0.58274705377E+03  0.50400000000E-02 0. -1.
    8880023    1    1    2    0    0 -0.31080912404E+03  0.80661706933E+02  0.61693901901E+02  0.73534003450E+03  0.65864270000E+03 0. -1.
    8880022    1    1    2    0    0  0.31080912404E+03 -0.80661706933E+02 -0.11732706117E+03  0.37452091376E+03  0.15294330000E+03 0.  0.
<mgrwt>
<rscale>  0 0.61161365E+03</rscale>
<asrwt>0</asrwt>
<pdfrwt beam="1">  1        1 0.89653393E-01 0.73274745E+03</pdfrwt>
<pdfrwt beam="2">  1       -1 0.81094445E-01 0.73274745E+03</pdfrwt>
<totfact> 0.55356193E+01</totfact>
</mgrwt>
</event>
<event>
 4    1  0.1521315E-007  0.8232135E+03  0.7818608E-02  0.9662684E-01
          1   -1    0    0  501    0  0.00000000000E+00  0.00000000000E+00  0.70343718680E+03  0.70343718681E+03  0.50400000000E-02 0. -1.
         -1   -1    0    0    0  501 -0.00000000000E+00 -0.00000000000E+00 -0.14191862504E+04  0.14191862504E+04  0.50400000000E-02 0.  1.
    8880023    1    1    2    0    0  0.44188849855E+03 -0.22046507718E+03  0.38328703307E+03  0.90806907853E+03  0.65864270000E+03 0.  0.
    8880022    1    1    2    0    0 -0.44188849855E+03  0.22046507718E+03 -0.10990360967E+04  0.12145543587E+04  0.15294330000E+03 0.  1.
<mgrwt>
<rscale>  0 0.73282709E+03</rscale>
<asrwt>0</asrwt>
<pdfrwt beam="1">  1        1 0.10822111E+00 0.82321352E+03</pdfrwt>
<pdfrwt beam="2">  1       -1 0.21833635E+00 0.82321352E+03</pdfrwt>
<totfact> 0.31415408E+00</totfact>
</mgrwt>
</event>
<event>
 4    1  0.1521315E-007  0.6610228E+03  0.7818608E-02  0.1023132E+00
         -1   -1    0    0    0  501 -0.00000000000E+00  0.00000000000E+00  0.27992976854E+03  0.27992976859E+03  0.50400000000E-02 0.  1.
          1   -1    0    0  501    0  0.00000000000E+00 -0.00000000000E+00 -0.13957111244E+04  0.13957111244E+04  0.50400000000E-02 0. -1.
    8880023    1    1    2    0    0  0.14432794260E+02  0.54154081629E+02 -0.12823305061E+04  0.14426790021E+04  0.65864270000E+03 0. -1.
    8880022    1    1    2    0    0 -0.14432794260E+02 -0.54154081629E+02  0.16654915026E+03  0.23296189082E+03  0.15294330000E+03 0.  0.
<mgrwt>
<rscale>  0 0.46573070E+03</rscale>
<asrwt>0</asrwt>
<pdfrwt beam="1">  1        1 0.21472478E+00 0.66102283E+03</pdfrwt>
<pdfrwt beam="2">  1       -1 0.43066119E-01 0.66102283E+03</pdfrwt>
<totfact> 0.42734308E+01</totfact>
</mgrwt>
</event>
<event>
 4    1  0.1521315E-007  0.7349282E+03  0.7818608E-02  0.9874975E-01
         -1   -1    0    0    0  501 -0.00000000000E+00  0.00000000000E+00  0.38479043230E+03  0.38479043234E+03  0.50400000000E-02 0.  1.
          1   -1    0    0  501    0  0.00000000000E+00 -0.00000000000E+00 -0.24928428818E+04  0.24928428818E+04  0.50400000000E-02 0. -1.
    8880023    1    1    2    0    0  0.73637397750E+02  0.31762680541E+03 -0.23377016743E+04  0.24505037397E+04  0.65864270000E+03 0. -1.
    8880022    1    1    2    0    0 -0.73637397750E+02 -0.31762680541E+03  0.22964922485E+03  0.42712957442E+03  0.15294330000E+03 0.  0.
<mgrwt>
<rscale>  0 0.61489585E+03</rscale>
<asrwt>0</asrwt>
<pdfrwt beam="1">  1        1 0.38351428E+00 0.73492820E+03</pdfrwt>
<pdfrwt beam="2">  1       -1 0.59198530E-01 0.73492820E+03</pdfrwt>
<totfact> 0.42121202E+00</totfact>
</mgrwt>
</event>
<event>
 4    1  0.1521315E-007  0.7656183E+03  0.7818608E-02  0.9790774E-01
          1   -1    0    0  501    0  0.00000000000E+00  0.00000000000E+00  0.17113152378E+03  0.17113152385E+03  0.50400000000E-02 0. -1.
         -1   -1    0    0    0  501 -0.00000000000E+00 -0.00000000000E+00 -0.20557962851E+04  0.20557962851E+04  0.50400000000E-02 0.  1.
    8880023    1    1    2    0    0 -0.29574656353E+03 -0.25474515343E+03 -0.12693799274E+04  0.14823956049E+04  0.65864270000E+03 0.  0.
    8880022    1    1    2    0    0  0.29574656353E+03  0.25474515343E+03 -0.61528483398E+03  0.74453220412E+03  0.15294330000E+03 0. -1.
<mgrwt>
<rscale>  0 0.65860040E+03</rscale>
<asrwt>0</asrwt>
<pdfrwt beam="1">  1        1 0.26327928E-01 0.76561827E+03</pdfrwt>
<pdfrwt beam="2">  1       -1 0.31627633E+00 0.76561827E+03</pdfrwt>
<totfact> 0.49353639E+00</totfact>
</mgrwt>
</event>
<event>
 4    1  0.1521315E-007  0.9518301E+03  0.7818608E-02  0.9447486E-01
         -1   -1    0    0    0  501 -0.00000000000E+00  0.00000000000E+00  0.27087529999E+03  0.27087530004E+03  0.50400000000E-02 0.  1.
          1   -1    0    0  501    0  0.00000000000E+00 -0.00000000000E+00 -0.33388874898E+04  0.33388874898E+04  0.50400000000E-02 0. -1.
    8880023    1    1    2    0    0 -0.68121124208E+03  0.90120232678E+02 -0.82744087056E+03  0.12612053811E+04  0.65864270000E+03 0.  1.
    8880022    1    1    2    0    0  0.68121124208E+03 -0.90120232678E+02 -0.22405713193E+04  0.23485574088E+04  0.15294330000E+03 0.  0.
<mgrwt>
<rscale>  0 0.88268724E+03</rscale>
<asrwt>0</asrwt>
<pdfrwt beam="1">  1        1 0.51367497E+00 0.95183014E+03</pdfrwt>
<pdfrwt beam="2">  1       -1 0.41673126E-01 0.95183014E+03</pdfrwt>
<totfact> 0.19642816E+00</totfact>
</mgrwt>
</event>
<event>
 4    1  0.1521315E-007  0.7611881E+03  0.7818608E-02  0.9802041E-01
         -1   -1    0    0    0  501 -0.00000000000E+00  0.00000000000E+00  0.30714434958E+03  0.30714434962E+03  0.50400000000E-02 0.  1.
          1   -1    0    0  501    0  0.00000000000E+00 -0.00000000000E+00 -0.13601328339E+04  0.13601328339E+04  0.50400000000E-02 0. -1.
    8880023    1    1    2    0    0 -0.23120078889E+03  0.30355123976E+03 -0.99401255334E+03  0.12519857517E+04  0.65864270000E+03 0. -1.
    8880022    1    1    2    0    0  0.23120078889E+03 -0.30355123976E+03 -0.58975931003E+02  0.41529143188E+03  0.15294330000E+03 0.  0.
<mgrwt>
<rscale>  0 0.65253115E+03</rscale>
<asrwt>0</asrwt>
<pdfrwt beam="1">  1        1 0.20925120E+00 0.76118813E+03</pdfrwt>
<pdfrwt beam="2">  1       -1 0.47252978E-01 0.76118813E+03</pdfrwt>
<totfact> 0.37633890E+01</totfact>
</mgrwt>
</event>
<event>
 4    1  0.1521315E-007  0.6982845E+03  0.7818608E-02  0.1000439E+00
          1   -1    0    0  501    0  0.00000000000E+00  0.00000000000E+00  0.60392526064E+03  0.60392526066E+03  0.50400000000E-02 0. -1.
         -1   -1    0    0    0  501 -0.00000000000E+00 -0.00000000000E+00 -0.44651880075E+03  0.44651880078E+03  0.50400000000E-02 0.  1.
    8880023    1    1    2    0    0 -0.15948692465E+03 -0.16838937118E+03  0.27271155190E+03  0.74964848847E+03  0.65864270000E+03 0. -1.
    8880022    1    1    2    0    0  0.15948692465E+03  0.16838937118E+03 -0.11530509201E+03  0.30079557297E+03  0.15294330000E+03 0.  0.
<mgrwt>
<rscale>  0 0.55458014E+03</rscale>
<asrwt>0</asrwt>
<pdfrwt beam="1">  1        1 0.92911578E-01 0.69828452E+03</pdfrwt>
<pdfrwt beam="2">  1       -1 0.68695200E-01 0.69828452E+03</pdfrwt>
<totfact> 0.74500500E+01</totfact>
</mgrwt>
</event>
<event>
 4    1  0.1521315E-007  0.8577993E+03  0.7818608E-02  0.9597490E-01
          1   -1    0    0  501    0  0.00000000000E+00  0.00000000000E+00  0.17375270266E+04  0.17375270266E+04  0.50400000000E-02 0. -1.
         -1   -1    0    0    0  501 -0.00000000000E+00 -0.00000000000E+00 -0.82211350194E+03  0.82211350195E+03  0.50400000000E-02 0.  1.
    8880023    1    1    2    0    0  0.50427419508E+03 -0.21844203412E+03  0.15093875262E+04  0.17361078009E+04  0.65864270000E+03 0. -1.
    8880022    1    1    2    0    0 -0.50427419508E+03  0.21844203412E+03 -0.59397400146E+03  0.82353272766E+03  0.15294330000E+03 0.  0.
<mgrwt>
<rscale>  0 0.77462520E+03</rscale>
<asrwt>0</asrwt>
<pdfrwt beam="1">  1        1 0.26731184E+00 0.85779927E+03</pdfrwt>
<pdfrwt beam="2">  1       -1 0.12647900E+00 0.85779927E+03</pdfrwt>
<totfact> 0.25134349E+00</totfact>
</mgrwt>
</event>
<event>
 4    1  0.1521315E-007  0.7165092E+03  0.7818608E-02  0.9934579E-01
          1   -1    0    0  501    0  0.00000000000E+00  0.00000000000E+00  0.84964040011E+03  0.84964040013E+03  0.50400000000E-02 0. -1.
         -1   -1    0    0    0  501 -0.00000000000E+00 -0.00000000000E+00 -0.31790755660E+03  0.31790755664E+03  0.50400000000E-02 0.  1.
    8880023    1    1    2    0    0  0.27760267347E+03 -0.50120113045E+02  0.33303244645E+03  0.79012409576E+03  0.65864270000E+03 0.  0.
    8880022    1    1    2    0    0 -0.27760267347E+03  0.50120113045E+02  0.19870039707E+03  0.37742386101E+03  0.15294330000E+03 0.  1.
<mgrwt>
<rscale>  0 0.58614297E+03</rscale>
<asrwt>0</asrwt>
<pdfrwt beam="1">  1        1 0.13071391E+00 0.71650923E+03</pdfrwt>
<pdfrwt beam="2">  1       -1 0.48908855E-01 0.71650923E+03</pdfrwt>
<totfact> 0.85789296E+01</totfact>
</mgrwt>
</event>
<event>
 4    1  0.1521315E-007  0.8199778E+03  0.7818608E-02  0.9669157E-01
         -1   -1    0    0    0  501 -0.00000000000E+00  0.00000000000E+00  0.94650786750E+03  0.94650786751E+03  0.50400000000E-02 0.  1.
          1   -1    0    0  501    0  0.00000000000E+00 -0.00000000000E+00 -0.10056844748E+04  0.10056844749E+04  0.50400000000E-02 0. -1.
    8880023    1    1    2    0    0  0.44002578964E+03  0.21196856580E+03 -0.73722762852E+03  0.11026641152E+04  0.65864270000E+03 0. -1.
    8880022    1    1    2    0    0 -0.44002578964E+03 -0.21196856580E+03  0.67805102117E+03  0.84952822717E+03  0.15294330000E+03 0.  0.
<mgrwt>
<rscale>  0 0.72883268E+03</rscale>
<asrwt>0</asrwt>
<pdfrwt beam="1">  1        1 0.15472069E+00 0.81997779E+03</pdfrwt>
<pdfrwt beam="2">  1       -1 0.14561660E+00 0.81997779E+03</pdfrwt>
<totfact> 0.58008154E+00</totfact>
</mgrwt>
</event>
<event>
 4    1  0.1521315E-007  0.8944868E+03  0.7818608E-02  0.9534941E-01
          1   -1    0    0  501    0  0.00000000000E+00  0.00000000000E+00  0.68232648900E+03  0.68232648902E+03  0.50400000000E-02 0. -1.
         -1   -1    0    0    0  501 -0.00000000000E+00 -0.00000000000E+00 -0.89779059222E+03  0.89779059223E+03  0.50400000000E-02 0.  1.
    8880023    1    1    2    0    0 -0.60408750836E+03  0.37076635898E+02  0.62731814202E+02  0.89668382469E+03  0.65864270000E+03 0.  0.
    8880022    1    1    2    0    0  0.60408750836E+03 -0.37076635898E+02 -0.27819591742E+03  0.68343325656E+03  0.15294330000E+03 0.  0.
<mgrwt>
<rscale>  0 0.81756084E+03</rscale>
<asrwt>0</asrwt>
<pdfrwt beam="1">  1        1 0.10497331E+00 0.89448678E+03</pdfrwt>
<pdfrwt beam="2">  1       -1 0.13812163E+00 0.89448678E+03</pdfrwt>
<totfact> 0.12452950E+01</totfact>
</mgrwt>
</event>
<event>
 4    1  0.1521315E-007  0.7800591E+03  0.7818608E-02  0.9755698E-01
          1   -1    0    0  501    0  0.00000000000E+00  0.00000000000E+00  0.16369238278E+04  0.16369238278E+04  0.50400000000E-02 0. -1.
         -1   -1    0    0    0  501 -0.00000000000E+00 -0.00000000000E+00 -0.63597271216E+03  0.63597271218E+03  0.50400000000E-02 0.  1.
    8880023    1    1    2    0    0  0.38563364346E+03  0.16114809427E+03  0.14463217195E+04  0.16432707439E+04  0.65864270000E+03 0.  0.
    8880022    1    1    2    0    0 -0.38563364346E+03 -0.16114809427E+03 -0.44537060387E+03  0.62962579605E+03  0.15294330000E+03 0.  0.
<mgrwt>
<rscale>  0 0.67795205E+03</rscale>
<asrwt>0</asrwt>
<pdfrwt beam="1">  1        1 0.25183443E+00 0.78005911E+03</pdfrwt>
<pdfrwt beam="2">  1       -1 0.97841959E-01 0.78005911E+03</pdfrwt>
<totfact> 0.54753099E+00</totfact>
</mgrwt>
</event>
<event>
 4    1  0.1521315E-007  0.6895463E+03  0.7818608E-02  0.1004369E+00
         -1   -1    0    0    0  501 -0.00000000000E+00  0.00000000000E+00  0.15449525973E+04  0.15449525973E+04  0.50400000000E-02 0.  1.
          1   -1    0    0  501    0  0.00000000000E+00 -0.00000000000E+00 -0.42176608777E+03  0.42176608780E+03  0.50400000000E-02 0. -1.
    8880023    1    1    2    0    0 -0.11483671086E+03 -0.16874960552E+03 -0.11802282872E+03  0.69957379445E+03  0.65864270000E+03 0. -1.
    8880022    1    1    2    0    0  0.11483671086E+03  0.16874960552E+03  0.12412093382E+04  0.12671448906E+04  0.15294330000E+03 0.  0.
<mgrwt>
<rscale>  0 0.53775335E+03</rscale>
<asrwt>0</asrwt>
<pdfrwt beam="1">  1        1 0.64887091E-01 0.68954630E+03</pdfrwt>
<pdfrwt beam="2">  1       -1 0.23768501E+00 0.68954630E+03</pdfrwt>
<totfact> 0.49185330E+00</totfact>
</mgrwt>
</event>
<event>
 4    1  0.1521315E-007  0.8606134E+03  0.7818608E-02  0.9592473E-01
          1   -1    0    0  501    0  0.00000000000E+00  0.00000000000E+00  0.35093095480E+03  0.35093095484E+03  0.50400000000E-02 0. -1.
         -1   -1    0    0    0  501 -0.00000000000E+00 -0.00000000000E+00 -0.16302280320E+04  0.16302280320E+04  0.50400000000E-02 0.  1.
    8880023    1    1    2    0    0  0.25989757889E+03  0.48918141279E+03 -0.10616566104E+04  0.13666638836E+04  0.65864270000E+03 0.  1.
    8880022    1    1    2    0    0 -0.25989757889E+03 -0.48918141279E+03 -0.21764046687E+03  0.61449510329E+03  0.15294330000E+03 0. -1.
<mgrwt>
<rscale>  0 0.77796358E+03</rscale>
<asrwt>0</asrwt>
<pdfrwt beam="1">  1        1 0.53989379E-01 0.86061339E+03</pdfrwt>
<pdfrwt beam="2">  1       -1 0.25080431E+00 0.86061339E+03</pdfrwt>
<totfact> 0.50371809E+00</totfact>
</mgrwt>
</event>
<event>
 4    1  0.1521315E-007  0.7101805E+03  0.7818608E-02  0.9957331E-01
          1   -1    0    0  501    0  0.00000000000E+00  0.00000000000E+00  0.35220408828E+03  0.35220408832E+03  0.50400000000E-02 0. -1.
         -1   -1    0    0    0  501 -0.00000000000E+00 -0.00000000000E+00 -0.75886793714E+03  0.75886793716E+03  0.50400000000E-02 0.  1.
    8880023    1    1    2    0    0  0.20494416384E+03 -0.16894996441E+03 -0.18821671709E+03  0.73469853656E+03  0.65864270000E+03 0.  1.
    8880022    1    1    2    0    0 -0.20494416384E+03  0.16894996441E+03 -0.21844713177E+03  0.37637348892E+03  0.15294330000E+03 0.  0.
<mgrwt>
<rscale>  0 0.57561441E+03</rscale>
<asrwt>0</asrwt>
<pdfrwt beam="1">  1        1 0.54185244E-01 0.71018055E+03</pdfrwt>
<pdfrwt beam="2">  1       -1 0.11674891E+00 0.71018055E+03</pdfrwt>
<totfact> 0.48142546E+01</totfact>
</mgrwt>
</event>
<event>
 4    1  0.1521315E-007  0.7267514E+03  0.7818608E-02  0.9900370E-01
         -1   -1    0    0    0  501 -0.00000000000E+00  0.00000000000E+00  0.75937611689E+03  0.75937611690E+03  0.50400000000E-02 0.  1.
          1   -1    0    0  501    0  0.00000000000E+00 -0.00000000000E+00 -0.10763727224E+04  0.10763727224E+04  0.50400000000E-02 0. -1.
    8880023    1    1    2    0    0 -0.23251145817E+03 -0.20073828234E+03 -0.90150236618E+03  0.11579612078E+04  0.65864270000E+03 0.  0.
    8880022    1    1    2    0    0  0.23251145817E+03  0.20073828234E+03  0.58450576069E+03  0.67778763154E+03  0.15294330000E+03 0.  1.
<mgrwt>
<rscale>  0 0.60243350E+03</rscale>
<asrwt>0</asrwt>
<pdfrwt beam="1">  1        1 0.16559580E+00 0.72675143E+03</pdfrwt>
<pdfrwt beam="2">  1       -1 0.11682710E+00 0.72675143E+03</pdfrwt>
<totfact> 0.90563260E+00</totfact>
</mgrwt>
</event>
<event>
 4    1  0.1521315E-007  0.8551668E+03  0.7818608E-02  0.9602219E-01
         -1   -1    0    0    0  501 -0.00000000000E+00  0.00000000000E+00  0.93430625687E+03  0.93430625688E+03  0.50400000000E-02 0.  1.
          1   -1    0    0  501    0  0.00000000000E+00 -0.00000000000E+00 -0.11668866645E+04  0.11668866645E+04  0.50400000000E-02 0. -1.
    8880023    1    1    2    0    0 -0.22894592393E+03 -0.49505942494E+03 -0.88940405655E+03  0.12338354235E+04  0.65864270000E+03 0. -1.
    8880022    1    1    2    0    0  0.22894592393E+03  0.49505942494E+03  0.65682364892E+03  0.86735749786E+03  0.15294330000E+03 0.  0.
<mgrwt>
<rscale>  0 0.77149469E+03</rscale>
<asrwt>0</asrwt>
<pdfrwt beam="1">  1        1 0.17952103E+00 0.85516681E+03</pdfrwt>
<pdfrwt beam="2">  1       -1 0.14373942E+00 0.85516681E+03</pdfrwt>
<totfact> 0.45172985E+00</totfact>
</mgrwt>
</event>
<event>
 4    1  0.1521315E-007  0.6819061E+03  0.7818608E-02  0.1008265E+00
          1   -1    0    0  501    0  0.00000000000E+00  0.00000000000E+00  0.55644392036E+04  0.55644392036E+04  0.50400000000E-02 0. -1.
         -1   -1    0    0    0  501 -0.00000000000E+00 -0.00000000000E+00 -0.57406864203E+02  0.57406864424E+02  0.50400000000E-02 0.  1.
    8880023    1    1    2    0    0 -0.75082281663E+02 -0.15983859338E+03  0.51514472443E+04  0.51963838043E+04  0.65864270000E+03 0. -1.
    8880022    1    1    2    0    0  0.75082281663E+02  0.15983859338E+03  0.35558509512E+03  0.42546226370E+03  0.15294330000E+03 0.  0.
<mgrwt>
<rscale>  0 0.52169901E+03</rscale>
<asrwt>0</asrwt>
<pdfrwt beam="1">  1        1 0.85606787E+00 0.68190610E+03</pdfrwt>
<pdfrwt beam="2">  1       -1 0.88318222E-02 0.68190610E+03</pdfrwt>
<totfact> 0.11002793E-01</totfact>
</mgrwt>
</event>
<event>
 4    1  0.1521315E-007  0.8647921E+03  0.7818608E-02  0.9585095E-01
          1   -1    0    0  501    0  0.00000000000E+00  0.00000000000E+00  0.16085297777E+04  0.16085297777E+04  0.50400000000E-02 0. -1.
         -1   -1    0    0    0  501 -0.00000000000E+00 -0.00000000000E+00 -0.43610604084E+03  0.43610604087E+03  0.50400000000E-02 0.  1.
    8880023    1    1    2    0    0  0.18519635340E+03  0.52892105699E+03  0.11808776456E+04  0.14636725706E+04  0.65864270000E+03 0. -1.
    8880022    1    1    2    0    0 -0.18519635340E+03 -0.52892105699E+03 -0.84539087901E+01  0.58096324792E+03  0.15294330000E+03 0.  0.
<mgrwt>
<rscale>  0 0.78290570E+03</rscale>
<asrwt>0</asrwt>
<pdfrwt beam="1">  1        1 0.24746612E+00 0.86479210E+03</pdfrwt>
<pdfrwt beam="2">  1       -1 0.67093237E-01 0.86479210E+03</pdfrwt>
<totfact> 0.12669585E+01</totfact>
</mgrwt>
</event>
<event>
 4    1  0.1521315E-007  0.1016753E+04  0.7818608E-02  0.9359961E-01
          1   -1    0    0  501    0  0.00000000000E+00  0.00000000000E+00  0.84785237377E+03  0.84785237378E+03  0.50400000000E-02 0. -1.
         -1   -1    0    0    0  501 -0.00000000000E+00 -0.00000000000E+00 -0.11650625174E+04  0.11650625174E+04  0.50400000000E-02 0.  1.
    8880023    1    1    2    0    0 -0.46840442833E+03 -0.61690598260E+03  0.24230310560E+03  0.10452256699E+04  0.65864270000E+03 0. -1.
    8880022    1    1    2    0    0  0.46840442833E+03  0.61690598260E+03 -0.55951324924E+03  0.96768922126E+03  0.15294330000E+03 0.  0.
<mgrwt>
<rscale>  0 0.95445286E+03</rscale>
<asrwt>0</asrwt>
<pdfrwt beam="1">  1        1 0.13043883E+00 0.10167526E+04</pdfrwt>
<pdfrwt beam="2">  1       -1 0.17924039E+00 0.10167526E+04</pdfrwt>
<totfact> 0.42434065E+00</totfact>
</mgrwt>
</event>
<event>
 4    1  0.1521315E-007  0.1279339E+04  0.7818608E-02  0.9083610E-01
         -1   -1    0    0    0  501 -0.00000000000E+00  0.00000000000E+00  0.69248436149E+03  0.69248436151E+03  0.50400000000E-02 0.  1.
          1   -1    0    0  501    0  0.00000000000E+00 -0.00000000000E+00 -0.26740695477E+04  0.26740695477E+04  0.50400000000E-02 0. -1.
    8880023    1    1    2    0    0  0.56272782080E+03 -0.94140132559E+03 -0.23838860640E+03  0.13013602076E+04  0.65864270000E+03 0.  1.
    8880022    1    1    2    0    0 -0.56272782080E+03  0.94140132559E+03 -0.17431965798E+04  0.20651937016E+04  0.15294330000E+03 0.  0.
<mgrwt>
<rscale>  0 0.12339953E+04</rscale>
<asrwt>0</asrwt>
<pdfrwt beam="1">  1        1 0.41139531E+00 0.12793394E+04</pdfrwt>
<pdfrwt beam="2">  1       -1 0.10653606E+00 0.12793394E+04</pdfrwt>
<totfact> 0.82650795E-01</totfact>
</mgrwt>
</event>
<event>
 4    1  0.1521315E-007  0.6878936E+03  0.7818608E-02  0.1005170E+00
          1   -1    0    0  501    0  0.00000000000E+00  0.00000000000E+00  0.30060794337E+04  0.30060794337E+04  0.50400000000E-02 0. -1.
         -1   -1    0    0    0  501 -0.00000000000E+00 -0.00000000000E+00 -0.79039927715E+02  0.79039927876E+02  0.50400000000E-02 0.  1.
    8880023    1    1    2    0    0 -0.42205678842E+02 -0.19392294798E+03  0.24688966972E+04  0.25629374820E+04  0.65864270000E+03 0. -1.
    8880022    1    1    2    0    0  0.42205678842E+02  0.19392294798E+03  0.45814280880E+03  0.52218187957E+03  0.15294330000E+03 0.  0.
<mgrwt>
<rscale>  0 0.53440170E+03</rscale>
<asrwt>0</asrwt>
<pdfrwt beam="1">  1        1 0.46247382E+00 0.68789362E+03</pdfrwt>
<pdfrwt beam="2">  1       -1 0.12159987E-01 0.68789362E+03</pdfrwt>
<totfact> 0.29179771E+01</totfact>
</mgrwt>
</event>
<event>
 4    1  0.1521315E-007  0.7655077E+03  0.7818608E-02  0.9791052E-01
          1   -1    0    0  501    0  0.00000000000E+00  0.00000000000E+00  0.15983806821E+04  0.15983806822E+04  0.50400000000E-02 0. -1.
         -1   -1    0    0    0  501 -0.00000000000E+00 -0.00000000000E+00 -0.36304579905E+03  0.36304579909E+03  0.50400000000E-02 0.  1.
    8880023    1    1    2    0    0 -0.13866019880E+03 -0.36464388993E+03  0.13274821688E+04  0.15323873310E+04  0.65864270000E+03 0.  1.
    8880022    1    1    2    0    0  0.13866019880E+03  0.36464388993E+03 -0.92147285754E+02  0.42903915029E+03  0.15294330000E+03 0.  0.
<mgrwt>
<rscale>  0 0.65844973E+03</rscale>
<asrwt>0</asrwt>
<pdfrwt beam="1">  1        1 0.24590472E+00 0.76550769E+03</pdfrwt>
<pdfrwt beam="2">  1       -1 0.55853200E-01 0.76550769E+03</pdfrwt>
<totfact> 0.18757360E+01</totfact>
</mgrwt>
</event>
<event>
 4    1  0.1521315E-007  0.1113162E+04  0.7818608E-02  0.9246542E-01
          1   -1    0    0  501    0  0.00000000000E+00  0.00000000000E+00  0.11510928589E+04  0.11510928589E+04  0.50400000000E-02 0. -1.
         -1   -1    0    0    0  501 -0.00000000000E+00 -0.00000000000E+00 -0.13486777651E+04  0.13486777651E+04  0.50400000000E-02 0.  1.
    8880023    1    1    2    0    0  0.34737718696E+03 -0.82743448567E+03  0.62173906876E+03  0.12750248680E+04  0.65864270000E+03 0.  0.
    8880022    1    1    2    0    0 -0.34737718696E+03  0.82743448567E+03 -0.81932397495E+03  0.12247457561E+04  0.15294330000E+03 0.  0.
<mgrwt>
<rscale>  0 0.10585687E+04</rscale>
<asrwt>0</asrwt>
<pdfrwt beam="1">  1        1 0.17709121E+00 0.11131617E+04</pdfrwt>
<pdfrwt beam="2">  1       -1 0.20748889E+00 0.11131617E+04</pdfrwt>
<totfact> 0.15378195E+00</totfact>
</mgrwt>
</event>
<event>
 4    1  0.1521315E-007  0.7292836E+03  0.7818608E-02  0.9892340E-01
         -1   -1    0    0    0  501 -0.00000000000E+00  0.00000000000E+00  0.13863605846E+04  0.13863605846E+04  0.50400000000E-02 0.  1.
          1   -1    0    0  501    0  0.00000000000E+00 -0.00000000000E+00 -0.33976168505E+03  0.33976168509E+03  0.50400000000E-02 0. -1.
    8880023    1    1    2    0    0  0.26315485546E+03  0.16968779247E+03  0.11507799725E+04  0.13624056577E+04  0.65864270000E+03 0.  1.
    8880022    1    1    2    0    0 -0.26315485546E+03 -0.16968779247E+03 -0.10418107291E+03  0.36371661199E+03  0.15294330000E+03 0.  0.
<mgrwt>
<rscale>  0 0.60633944E+03</rscale>
<asrwt>0</asrwt>
<pdfrwt beam="1">  1        1 0.52271029E-01 0.72928364E+03</pdfrwt>
<pdfrwt beam="2">  1       -1 0.21328624E+00 0.72928364E+03</pdfrwt>
<totfact> 0.94147516E+00</totfact>
</mgrwt>
</event>
<event>
 4    1  0.1521315E-007  0.7644423E+03  0.7818608E-02  0.9793740E-01
          1   -1    0    0  501    0  0.00000000000E+00  0.00000000000E+00  0.13693265656E+04  0.13693265657E+04  0.50400000000E-02 0. -1.
         -1   -1    0    0    0  501 -0.00000000000E+00 -0.00000000000E+00 -0.44414187359E+03  0.44414187362E+03  0.50400000000E-02 0.  1.
    8880023    1    1    2    0    0 -0.82517993566E+02 -0.37914717549E+03  0.11176918750E+04  0.13541075045E+04  0.65864270000E+03 0.  0.
    8880022    1    1    2    0    0  0.82517993566E+02  0.37914717549E+03 -0.19250718293E+03  0.45936093482E+03  0.15294330000E+03 0.  0.
<mgrwt>
<rscale>  0 0.65699590E+03</rscale>
<asrwt>0</asrwt>
<pdfrwt beam="1">  1        1 0.21066563E+00 0.76444228E+03</pdfrwt>
<pdfrwt beam="2">  1       -1 0.68329519E-01 0.76444228E+03</pdfrwt>
<totfact> 0.18061109E+01</totfact>
</mgrwt>
</event>
<event>
 4    1  0.1521315E-007  0.7194152E+03  0.7818608E-02  0.9924570E-01
          1   -1    0    0  501    0  0.00000000000E+00  0.00000000000E+00  0.12991701248E+04  0.12991701248E+04  0.50400000000E-02 0. -1.
         -1   -1    0    0    0  501 -0.00000000000E+00 -0.00000000000E+00 -0.21245467433E+03  0.21245467439E+03  0.50400000000E-02 0.  1.
    8880023    1    1    2    0    0  0.57708327833E+02  0.28358039816E+03  0.68417917950E+03  0.99280383221E+03  0.65864270000E+03 0.  1.
    8880022    1    1    2    0    0 -0.57708327833E+02 -0.28358039816E+03  0.40253627092E+03  0.51882096695E+03  0.15294330000E+03 0. -1.
<mgrwt>
<rscale>  0 0.59085179E+03</rscale>
<asrwt>0</asrwt>
<pdfrwt beam="1">  1        1 0.19987233E+00 0.71941525E+03</pdfrwt>
<pdfrwt beam="2">  1       -1 0.32685334E-01 0.71941525E+03</pdfrwt>
<totfact> 0.81442215E+01</totfact>
</mgrwt>
</event>
<event>
 4    1  0.1521315E-007  0.1464139E+04  0.7818608E-02  0.8935383E-01
          1   -1    0    0  501    0  0.00000000000E+00  0.00000000000E+00  0.11077374108E+04  0.11077374108E+04  0.50400000000E-02 0. -1.
         -1   -1    0    0    0  501 -0.00000000000E+00 -0.00000000000E+00 -0.23576013356E+04  0.23576013356E+04  0.50400000000E-02 0.  1.
    8880023    1    1    2    0    0  0.62374738455E+03 -0.11492741475E+04  0.23278636175E+03  0.14825287729E+04  0.65864270000E+03 0. -1.
    8880022    1    1    2    0    0 -0.62374738455E+03  0.11492741475E+04 -0.14826502865E+04  0.19828099735E+04  0.15294330000E+03 0.  0.
<mgrwt>
<rscale>  0 0.14257565E+04</rscale>
<asrwt>0</asrwt>
<pdfrwt beam="1">  1        1 0.17042114E+00 0.14641387E+04</pdfrwt>
<pdfrwt beam="2">  1       -1 0.36270790E+00 0.14641387E+04</pdfrwt>
<totfact> 0.15277264E-01</totfact>
</mgrwt>
</event>
<event>
 4    1  0.1521315E-007  0.9307004E+03  0.7818608E-02  0.9478443E-01
          1   -1    0    0  501    0  0.00000000000E+00  0.00000000000E+00  0.13446884844E+04  0.13446884844E+04  0.50400000000E-02 0. -1.
         -1   -1    0    0    0  501 -0.00000000000E+00 -0.00000000000E+00 -0.73333292822E+03  0.73333292823E+03  0.50400000000E-02 0.  1.
    8880023    1    1    2    0    0  0.28706835719E+03 -0.59159514505E+03  0.94378730522E+03  0.13254952814E+04  0.65864270000E+03 0. -1.
    8880022    1    1    2    0    0 -0.28706835719E+03  0.59159514505E+03 -0.33243174905E+03  0.75252613120E+03  0.15294330000E+03 0.  0.
<mgrwt>
<rscale>  0 0.85891938E+03</rscale>
<asrwt>0</asrwt>
<pdfrwt beam="1">  1        1 0.20687515E+00 0.93070042E+03</pdfrwt>
<pdfrwt beam="2">  1       -1 0.11282045E+00 0.93070042E+03</pdfrwt>
<totfact> 0.61174191E+00</totfact>
</mgrwt>
</event>
<event>
 4    1  0.1521315E-007  0.7384606E+03  0.7818608E-02  0.9864454E-01
          1   -1    0    0  501    0  0.00000000000E+00  0.00000000000E+00  0.34916797626E+03  0.34916797630E+03  0.50400000000E-02 0. -1.
         -1   -1    0    0    0  501 -0.00000000000E+00 -0.00000000000E+00 -0.47810987336E+04  0.47810987336E+04  0.50400000000E-02 0.  1.
    8880023    1    1    2    0    0 -0.22280686867E+03  0.24873874693E+03 -0.57774939553E+02  0.74071723003E+03  0.65864270000E+03 0. -1.
    8880022    1    1    2    0    0  0.22280686867E+03 -0.24873874693E+03 -0.43741558178E+04  0.43895494799E+04  0.15294330000E+03 0.  0.
<mgrwt>
<rscale>  0 0.62015352E+03</rscale>
<asrwt>0</asrwt>
<pdfrwt beam="1">  1        1 0.53718154E-01 0.73846061E+03</pdfrwt>
<pdfrwt beam="2">  1       -1 0.73555361E+00 0.73846061E+03</pdfrwt>
<totfact> 0.11510554E-02</totfact>
</mgrwt>
</event>
<event>
 4    1  0.1521315E-007  0.7228284E+03  0.7818608E-02  0.9913129E-01
         -1   -1    0    0    0  501 -0.00000000000E+00  0.00000000000E+00  0.11794021298E+04  0.11794021298E+04  0.50400000000E-02 0.  1.
          1   -1    0    0  501    0  0.00000000000E+00 -0.00000000000E+00 -0.36347775271E+03  0.36347775275E+03  0.50400000000E-02 0. -1.
    8880023    1    1    2    0    0 -0.17492120037E+03  0.24098409153E+03  0.71138044448E+02  0.72632058097E+03  0.65864270000E+03 0. -1.
    8880022    1    1    2    0    0  0.17492120037E+03 -0.24098409153E+03  0.74478633268E+03  0.81655930163E+03  0.15294330000E+03 0.  0.
<mgrwt>
<rscale>  0 0.59629192E+03</rscale>
<asrwt>0</asrwt>
<pdfrwt beam="1">  1        1 0.55919653E-01 0.72282845E+03</pdfrwt>
<pdfrwt beam="2">  1       -1 0.18144648E+00 0.72282845E+03</pdfrwt>
<totfact> 0.14280976E+01</totfact>
</mgrwt>
</event>
<event>
 4    1  0.1644187E-007  0.7362403E+03  0.7818608E-02  0.9871037E-01
          1   -1    0    0  501    0  0.00000000000E+00  0.00000000000E+00  0.11767163654E+04  0.11767163654E+04  0.50400000000E-02 0. -1.
         -1   -1    0    0    0  501 -0.00000000000E+00 -0.00000000000E+00 -0.10657963772E+04  0.10657963772E+04  0.50400000000E-02 0.  1.
    8880023    1    1    2    0    0 -0.23780948537E+01 -0.32898924957E+03  0.10233063044E+04  0.12606369742E+04  0.65864270000E+03 0. -1.
    8880022    1    1    2    0    0  0.23780948537E+01  0.32898924957E+03 -0.91238631626E+03  0.98187576850E+03  0.15294330000E+03 0.  0.
<mgrwt>
<rscale>  0 0.61685709E+03</rscale>
<asrwt>0</asrwt>
<pdfrwt beam="1">  1        1 0.18103329E+00 0.73624031E+03</pdfrwt>
<pdfrwt beam="2">  1       -1 0.16396867E+00 0.73624031E+03</pdfrwt>
<totfact> 0.31638437E+00</totfact>
</mgrwt>
</event>
<event>
 4    1  0.1521315E-007  0.9021350E+03  0.7818608E-02  0.9522613E-01
         -1   -1    0    0    0  501 -0.00000000000E+00  0.00000000000E+00  0.28789391985E+03  0.28789391990E+03  0.50400000000E-02 0.  1.
          1   -1    0    0  501    0  0.00000000000E+00 -0.00000000000E+00 -0.38474853764E+04  0.38474853764E+04  0.50400000000E-02 0. -1.
    8880023    1    1    2    0    0 -0.33862027274E+03 -0.51514422555E+03 -0.33456682257E+04  0.34651613736E+04  0.65864270000E+03 0.  0.
    8880022    1    1    2    0    0  0.33862027274E+03  0.51514422555E+03 -0.21392323084E+03  0.67021792272E+03  0.15294330000E+03 0.  0.
<mgrwt>
<rscale>  0 0.82636994E+03</rscale>
<asrwt>0</asrwt>
<pdfrwt beam="1">  1        1 0.59192079E+00 0.90213495E+03</pdfrwt>
<pdfrwt beam="2">  1       -1 0.44291375E-01 0.90213495E+03</pdfrwt>
<totfact> 0.70025064E-01</totfact>
</mgrwt>
</event>
<event>
 4    1  0.1521315E-007  0.9729007E+03  0.7818608E-02  0.9417903E-01
          1   -1    0    0  501    0  0.00000000000E+00  0.00000000000E+00  0.10191164148E+04  0.10191164148E+04  0.50400000000E-02 0. -1.
         -1   -1    0    0    0  501 -0.00000000000E+00 -0.00000000000E+00 -0.12674745191E+04  0.12674745191E+04  0.50400000000E-02 0.  1.
    8880023    1    1    2    0    0 -0.12325721652E+02 -0.71594247887E+03  0.61775187702E+03  0.11524552678E+04  0.65864270000E+03 0.  0.
    8880022    1    1    2    0    0  0.12325721652E+02  0.71594247887E+03 -0.86610998133E+03  0.11341356662E+04  0.15294330000E+03 0.  0.
<mgrwt>
<rscale>  0 0.90616828E+03</rscale>
<asrwt>0</asrwt>
<pdfrwt beam="1">  1        1 0.15678714E+00 0.97290070E+03</pdfrwt>
<pdfrwt beam="2">  1       -1 0.19499608E+00 0.97290070E+03</pdfrwt>
<totfact> 0.24017472E+00</totfact>
</mgrwt>
</event>
<event>
 4    1  0.1521315E-007  0.1346841E+04  0.7818608E-02  0.9026130E-01
         -1   -1    0    0    0  501 -0.00000000000E+00  0.00000000000E+00  0.10400364154E+04  0.10400364155E+04  0.50400000000E-02 0.  1.
          1   -1    0    0  501    0  0.00000000000E+00 -0.00000000000E+00 -0.17777094056E+04  0.17777094056E+04  0.50400000000E-02 0. -1.
    8880023    1    1    2    0    0  0.11557529998E+04 -0.21072314361E+03  0.12439974224E+03  0.13525733777E+04  0.65864270000E+03 0.  0.
    8880022    1    1    2    0    0 -0.11557529998E+04  0.21072314361E+03 -0.86207273235E+03  0.14651724433E+04  0.15294330000E+03 0.  0.
<mgrwt>
<rscale>  0 0.13043407E+04</rscale>
<asrwt>0</asrwt>
<pdfrwt beam="1">  1        1 0.27349376E+00 0.13468405E+04</pdfrwt>
<pdfrwt beam="2">  1       -1 0.16000560E+00 0.13468405E+04</pdfrwt>
<totfact> 0.11892425E+00</totfact>
</mgrwt>
</event>
<event>
 4    1  0.1521315E-007  0.8105245E+03  0.7818608E-02  0.9688485E-01
         -1   -1    0    0    0  501 -0.00000000000E+00  0.00000000000E+00  0.68315528428E+03  0.68315528430E+03  0.50400000000E-02 0.  1.
          1   -1    0    0  501    0  0.00000000000E+00 -0.00000000000E+00 -0.89106861516E+03  0.89106861517E+03  0.50400000000E-02 0. -1.
    8880023    1    1    2    0    0 -0.42461860029E+03  0.20697546731E+03  0.29969335078E+03  0.86415629983E+03  0.65864270000E+03 0.  0.
    8880022    1    1    2    0    0  0.42461860029E+03 -0.20697546731E+03 -0.50760668165E+03  0.71006759964E+03  0.15294330000E+03 0.  0.
<mgrwt>
<rscale>  0 0.71706523E+03</rscale>
<asrwt>0</asrwt>
<pdfrwt beam="1">  1        1 0.13708748E+00 0.81052453E+03</pdfrwt>
<pdfrwt beam="2">  1       -1 0.10510081E+00 0.81052453E+03</pdfrwt>
<totfact> 0.16066031E+01</totfact>
</mgrwt>
</event>
<event>
 4    1  0.1521315E-007  0.9344887E+03  0.7818608E-02  0.9472792E-01
         -1   -1    0    0    0  501 -0.00000000000E+00  0.00000000000E+00  0.10807393492E+04  0.10807393492E+04  0.50400000000E-02 0.  1.
          1   -1    0    0  501    0  0.00000000000E+00 -0.00000000000E+00 -0.10839815693E+04  0.10839815693E+04  0.50400000000E-02 0. -1.
    8880023    1    1    2    0    0  0.44350583670E+03 -0.49270840002E+03 -0.71760474628E+03  0.11782299321E+04  0.65864270000E+03 0. -1.
    8880022    1    1    2    0    0 -0.44350583670E+03  0.49270840002E+03  0.71436252614E+03  0.98649098649E+03  0.15294330000E+03 0.  0.
<mgrwt>
<rscale>  0 0.86319847E+03</rscale>
<asrwt>0</asrwt>
<pdfrwt beam="1">  1        1 0.16676640E+00 0.93448874E+03</pdfrwt>
<pdfrwt beam="2">  1       -1 0.16626759E+00 0.93448874E+03</pdfrwt>
<totfact> 0.34582839E+00</totfact>
</mgrwt>
</event>
<event>
 4    1  0.1521315E-007  0.6632211E+03  0.7818608E-02  0.1021075E+00
         -1   -1    0    0    0  501 -0.00000000000E+00  0.00000000000E+00  0.46536627209E+03  0.46536627211E+03  0.50400000000E-02 0.  1.
          1   -1    0    0  501    0  0.00000000000E+00 -0.00000000000E+00 -0.38034396816E+03  0.38034396819E+03  0.50400000000E-02 0. -1.
    8880023    1    1    2    0    0 -0.26063867726E+02  0.73298413946E+02  0.24214631382E+02  0.66366296968E+03  0.65864270000E+03 0. -1.
    8880022    1    1    2    0    0  0.26063867726E+02 -0.73298413946E+02  0.60807672542E+02  0.18204727063E+03  0.15294330000E+03 0.  1.
<mgrwt>
<rscale>  0 0.47300711E+03</rscale>
<asrwt>0</asrwt>
<pdfrwt beam="1">  1        1 0.58514457E-01 0.66322107E+03</pdfrwt>
<pdfrwt beam="2">  1       -1 0.71594811E-01 0.66322107E+03</pdfrwt>
<totfact> 0.12904985E+02</totfact>
</mgrwt>
</event>
<event>
 4    1  0.1521315E-007  0.7092393E+03  0.7818608E-02  0.9960837E-01
          1   -1    0    0  501    0  0.00000000000E+00  0.00000000000E+00  0.71074849368E+03  0.71074849370E+03  0.50400000000E-02 0. -1.
         -1   -1    0    0    0  501 -0.00000000000E+00 -0.00000000000E+00 -0.70704271218E+03  0.70704271220E+03  0.50400000000E-02 0.  1.
    8880023    1    1    2    0    0  0.10085748483E+03 -0.24297727864E+03  0.47727794508E+03  0.85487696969E+03  0.65864270000E+03 0.  0.
    8880022    1    1    2    0    0 -0.10085748483E+03  0.24297727864E+03 -0.47357216359E+03  0.56291423621E+03  0.15294330000E+03 0.  1.
<mgrwt>
<rscale>  0 0.57401343E+03</rscale>
<asrwt>0</asrwt>
<pdfrwt beam="1">  1        1 0.10934592E+00 0.70923931E+03</pdfrwt>
<pdfrwt beam="2">  1       -1 0.10877580E+00 0.70923931E+03</pdfrwt>
<totfact> 0.21514057E+01</totfact>
</mgrwt>
</event>
<event>
 4    1  0.1521315E-007  0.6751185E+03  0.7818608E-02  0.1012232E+00
          1   -1    0    0  501    0  0.00000000000E+00  0.00000000000E+00  0.10396910572E+04  0.10396910572E+04  0.50400000000E-02 0. -1.
         -1   -1    0    0    0  501 -0.00000000000E+00 -0.00000000000E+00 -0.29111041231E+03  0.29111041235E+03  0.50400000000E-02 0.  1.
    8880023    1    1    2    0    0 -0.86057269357E+02  0.12070202196E+03  0.85766308963E+03  0.10914994335E+04  0.65864270000E+03 0. -1.
    8880022    1    1    2    0    0  0.86057269357E+02 -0.12070202196E+03 -0.10908244472E+03  0.23930203609E+03  0.15294330000E+03 0.  0.
<mgrwt>
<rscale>  0 0.50597250E+03</rscale>
<asrwt>0</asrwt>
<pdfrwt beam="1">  1        1 0.15995247E+00 0.67511854E+03</pdfrwt>
<pdfrwt beam="2">  1       -1 0.44786216E-01 0.67511854E+03</pdfrwt>
<totfact> 0.71676872E+01</totfact>
</mgrwt>
</event>
<event>
 4    1  0.1521315E-007  0.6877663E+03  0.7818608E-02  0.1005233E+00
          1   -1    0    0  501    0  0.00000000000E+00  0.00000000000E+00  0.57341752007E+03  0.57341752009E+03  0.50400000000E-02 0. -1.
         -1   -1    0    0    0  501 -0.00000000000E+00 -0.00000000000E+00 -0.11754328034E+04  0.11754328034E+04  0.50400000000E-02 0.  1.
    8880023    1    1    2    0    0  0.49060960262E+02  0.19184689438E+03  0.34492449213E+03  0.76941232135E+03  0.65864270000E+03 0. -1.
    8880022    1    1    2    0    0 -0.49060960262E+02 -0.19184689438E+03 -0.94693977546E+03  0.97943800216E+03  0.15294330000E+03 0.  0.
<mgrwt>
<rscale>  0 0.53414084E+03</rscale>
<asrwt>0</asrwt>
<pdfrwt beam="1">  1        1 0.88218080E-01 0.68776625E+03</pdfrwt>
<pdfrwt beam="2">  1       -1 0.18083582E+00 0.68776625E+03</pdfrwt>
<totfact> 0.78150462E+00</totfact>
</mgrwt>
</event>
<event>
 4    1  0.1521315E-007  0.7037425E+03  0.7818608E-02  0.9982016E-01
         -1   -1    0    0    0  501 -0.00000000000E+00  0.00000000000E+00  0.21559222018E+03  0.21559222024E+03  0.50400000000E-02 0.  1.
          1   -1    0    0  501    0  0.00000000000E+00 -0.00000000000E+00 -0.13158260455E+04  0.13158260455E+04  0.50400000000E-02 0. -1.
    8880023    1    1    2    0    0  0.61697977834E+02  0.24007639683E+03 -0.10011811367E+04  0.12237717073E+04  0.65864270000E+03 0.  0.
    8880022    1    1    2    0    0 -0.61697977834E+02 -0.24007639683E+03 -0.99052688579E+02  0.30764655843E+03  0.15294330000E+03 0.  0.
<mgrwt>
<rscale>  0 0.56445874E+03</rscale>
<asrwt>0</asrwt>
<pdfrwt beam="1">  1        1 0.20243477E+00 0.70374251E+03</pdfrwt>
<pdfrwt beam="2">  1       -1 0.33168035E-01 0.70374251E+03</pdfrwt>
<totfact> 0.77366390E+01</totfact>
</mgrwt>
</event>
<event>
 4    1  0.1521315E-007  0.7279922E+03  0.7818608E-02  0.9896416E-01
         -1   -1    0    0    0  501 -0.00000000000E+00  0.00000000000E+00  0.30780923157E+03  0.30780923161E+03  0.50400000000E-02 0.  1.
          1   -1    0    0  501    0  0.00000000000E+00 -0.00000000000E+00 -0.10158893343E+04  0.10158893343E+04  0.50400000000E-02 0. -1.
    8880023    1    1    2    0    0  0.22244332561E+03 -0.21605869288E+03 -0.64417410544E+03  0.97207657942E+03  0.65864270000E+03 0. -1.
    8880022    1    1    2    0    0 -0.22244332561E+03  0.21605869288E+03 -0.63905997264E+02  0.35162198648E+03  0.15294330000E+03 0.  0.
<mgrwt>
<rscale>  0 0.60435284E+03</rscale>
<asrwt>0</asrwt>
<pdfrwt beam="1">  1        1 0.15629067E+00 0.72799217E+03</pdfrwt>
<pdfrwt beam="2">  1       -1 0.47355267E-01 0.72799217E+03</pdfrwt>
<totfact> 0.67025346E+01</totfact>
</mgrwt>
</event>
<event>
 4    1  0.1521315E-007  0.9060511E+03  0.7818608E-02  0.9516387E-01
          1   -1    0    0  501    0  0.00000000000E+00  0.00000000000E+00  0.21538280711E+04  0.21538280711E+04  0.50400000000E-02 0. -1.
         -1   -1    0    0    0  501 -0.00000000000E+00 -0.00000000000E+00 -0.38314937291E+03  0.38314937294E+03  0.50400000000E-02 0.  1.
    8880023    1    1    2    0    0  0.79462821883E+02 -0.61709328309E+03  0.16537456258E+04  0.18856837649E+04  0.65864270000E+03 0.  0.
    8880022    1    1    2    0    0 -0.79462821883E+02  0.61709328309E+03  0.11693307242E+03  0.65129367918E+03  0.15294330000E+03 0.  0.
<mgrwt>
<rscale>  0 0.83086414E+03</rscale>
<asrwt>0</asrwt>
<pdfrwt beam="1">  1        1 0.33135817E+00 0.90605114E+03</pdfrwt>
<pdfrwt beam="2">  1       -1 0.58946056E-01 0.90605114E+03</pdfrwt>
<totfact> 0.70093196E+00</totfact>
</mgrwt>
</event>
<event>
 4    1  0.1521315E-007  0.7087859E+03  0.7818608E-02  0.9962537E-01
          1   -1    0    0  501    0  0.00000000000E+00  0.00000000000E+00  0.53132319168E+03  0.53132319171E+03  0.50400000000E-02 0. -1.
         -1   -1    0    0    0  501 -0.00000000000E+00 -0.00000000000E+00 -0.82718556976E+03  0.82718556978E+03  0.50400000000E-02 0.  1.
    8880023    1    1    2    0    0 -0.22026933490E+03  0.14159348937E+03  0.23534687620E+03  0.74683710040E+03  0.65864270000E+03 0. -1.
    8880022    1    1    2    0    0  0.22026933490E+03 -0.14159348937E+03 -0.53120925428E+03  0.61167166109E+03  0.15294330000E+03 0.  0.
<mgrwt>
<rscale>  0 0.57323879E+03</rscale>
<asrwt>0</asrwt>
<pdfrwt beam="1">  1        1 0.81742030E-01 0.70878594E+03</pdfrwt>
<pdfrwt beam="2">  1       -1 0.12725932E+00 0.70878594E+03</pdfrwt>
<totfact> 0.22448645E+01</totfact>
</mgrwt>
</event>
<event>
 4    1  0.1521315E-007  0.6883471E+03  0.7818608E-02  0.1004948E+00
         -1   -1    0    0    0  501 -0.00000000000E+00  0.00000000000E+00  0.26180965055E+03  0.26180965060E+03  0.50400000000E-02 0.  1.
          1   -1    0    0  501    0  0.00000000000E+00 -0.00000000000E+00 -0.15619182840E+04  0.15619182840E+04  0.50400000000E-02 0. -1.
    8880023    1    1    2    0    0 -0.52478921216E+02 -0.19302208970E+03 -0.13942434162E+04  0.15549072237E+04  0.65864270000E+03 0. -1.
    8880022    1    1    2    0    0  0.52478921216E+02  0.19302208970E+03  0.94134782780E+02  0.26882071093E+03  0.15294330000E+03 0.  0.
<mgrwt>
<rscale>  0 0.53532748E+03</rscale>
<asrwt>0</asrwt>
<pdfrwt beam="1">  1        1 0.24029512E+00 0.68834713E+03</pdfrwt>
<pdfrwt beam="2">  1       -1 0.40278409E-01 0.68834713E+03</pdfrwt>
<totfact> 0.37031806E+01</totfact>
</mgrwt>
</event>
<event>
 4    1  0.1521315E-007  0.6643131E+03  0.7818608E-02  0.1020117E+00
          1   -1    0    0  501    0  0.00000000000E+00  0.00000000000E+00  0.77651872813E+03  0.77651872815E+03  0.50400000000E-02 0. -1.
         -1   -1    0    0    0  501 -0.00000000000E+00 -0.00000000000E+00 -0.28608582786E+03  0.28608582791E+03  0.50400000000E-02 0.  1.
    8880023    1    1    2    0    0 -0.86058872563E+02 -0.97786554160E+01  0.56460328716E+03  0.87183073460E+03  0.65864270000E+03 0.  0.
    8880022    1    1    2    0    0  0.86058872563E+02  0.97786554160E+01 -0.74170386889E+02  0.19077382146E+03  0.15294330000E+03 0.  0.
<mgrwt>
<rscale>  0 0.47644509E+03</rscale>
<asrwt>0</asrwt>
<pdfrwt beam="1">  1        1 0.11946442E+00 0.66431315E+03</pdfrwt>
<pdfrwt beam="2">  1       -1 0.44013205E-01 0.66431315E+03</pdfrwt>
<totfact> 0.12115675E+02</totfact>
</mgrwt>
</event>
<event>
 4    1  0.1521315E-007  0.1097931E+04  0.7818608E-02  0.9263363E-01
          1   -1    0    0  501    0  0.00000000000E+00  0.00000000000E+00  0.24115855406E+04  0.24115855406E+04  0.50400000000E-02 0. -1.
         -1   -1    0    0    0  501 -0.00000000000E+00 -0.00000000000E+00 -0.60022589604E+03  0.60022589606E+03  0.50400000000E-02 0.  1.
    8880023    1    1    2    0    0  0.75776579382E+03  0.44433491132E+03  0.18137341614E+04  0.21201613915E+04  0.65864270000E+03 0.  0.
    8880022    1    1    2    0    0 -0.75776579382E+03 -0.44433491132E+03 -0.23745167955E+01  0.89165004516E+03  0.15294330000E+03 0.  0.
<mgrwt>
<rscale>  0 0.10422683E+04</rscale>
<asrwt>0</asrwt>
<pdfrwt beam="1">  1        1 0.37101316E+00 0.10979311E+04</pdfrwt>
<pdfrwt beam="2">  1       -1 0.92342445E-01 0.10979311E+04</pdfrwt>
<totfact> 0.17852473E+00</totfact>
</mgrwt>
</event>
<event>
 4    1  0.1521315E-007  0.1118653E+04  0.7818608E-02  0.9240567E-01
         -1   -1    0    0    0  501 -0.00000000000E+00  0.00000000000E+00  0.96497735537E+03  0.96497735539E+03  0.50400000000E-02 0.  1.
          1   -1    0    0  501    0  0.00000000000E+00 -0.00000000000E+00 -0.16408574326E+04  0.16408574326E+04  0.50400000000E-02 0. -1.
    8880023    1    1    2    0    0  0.75644671993E+03  0.49534035001E+03 -0.11234428404E+04  0.15854045932E+04  0.65864270000E+03 0. -1.
    8880022    1    1    2    0    0 -0.75644671993E+03 -0.49534035001E+03  0.44756276312E+03  0.10204301948E+04  0.15294330000E+03 0.  0.
<mgrwt>
<rscale>  0 0.10644340E+04</rscale>
<asrwt>0</asrwt>
<pdfrwt beam="1">  1        1 0.25243961E+00 0.11186527E+04</pdfrwt>
<pdfrwt beam="2">  1       -1 0.14845805E+00 0.11186527E+04</pdfrwt>
<totfact> 0.18599578E+00</totfact>
</mgrwt>
</event>
<event>
 4    1  0.1521315E-007  0.7171447E+03  0.7818608E-02  0.9932368E-01
         -1   -1    0    0    0  501 -0.00000000000E+00  0.00000000000E+00  0.71478326611E+03  0.71478326613E+03  0.50400000000E-02 0.  1.
          1   -1    0    0  501    0  0.00000000000E+00 -0.00000000000E+00 -0.51789198209E+03  0.51789198211E+03  0.50400000000E-02 0. -1.
    8880023    1    1    2    0    0  0.25231517856E+03 -0.12970483165E+03 -0.17737945286E+03  0.73875568982E+03  0.65864270000E+03 0. -1.
    8880022    1    1    2    0    0 -0.25231517856E+03  0.12970483165E+03  0.37427073688E+03  0.49391955842E+03  0.15294330000E+03 0.  0.
<mgrwt>
<rscale>  0 0.58717899E+03</rscale>
<asrwt>0</asrwt>
<pdfrwt beam="1">  1        1 0.79675690E-01 0.71714468E+03</pdfrwt>
<pdfrwt beam="2">  1       -1 0.10996666E+00 0.71714468E+03</pdfrwt>
<totfact> 0.33099048E+01</totfact>
</mgrwt>
</event>
<event>
 4    1  0.1521315E-007  0.7112685E+03  0.7818608E-02  0.9953320E-01
          1   -1    0    0  501    0  0.00000000000E+00  0.00000000000E+00  0.65155346759E+03  0.65155346761E+03  0.50400000000E-02 0. -1.
         -1   -1    0    0    0  501 -0.00000000000E+00 -0.00000000000E+00 -0.56306119210E+03  0.56306119212E+03  0.50400000000E-02 0.  1.
    8880023    1    1    2    0    0  0.20124305863E+03 -0.17774680788E+03  0.36544698353E+03  0.79965892754E+03  0.65864270000E+03 0. -1.
    8880022    1    1    2    0    0 -0.20124305863E+03  0.17774680788E+03 -0.27695470804E+03  0.41495573219E+03  0.15294330000E+03 0.  0.
<mgrwt>
<rscale>  0 0.57745309E+03</rscale>
<asrwt>0</asrwt>
<pdfrwt beam="1">  1        1 0.10023899E+00 0.71126852E+03</pdfrwt>
<pdfrwt beam="2">  1       -1 0.86624799E-01 0.71126852E+03</pdfrwt>
<totfact> 0.40944688E+01</totfact>
</mgrwt>
</event>
<event>
 4    1  0.1521315E-007  0.8633473E+03  0.7818608E-02  0.9587637E-01
         -1   -1    0    0    0  501 -0.00000000000E+00  0.00000000000E+00  0.37476110213E+03  0.37476110216E+03  0.50400000000E-02 0.  1.
          1   -1    0    0  501    0  0.00000000000E+00 -0.00000000000E+00 -0.34701153828E+04  0.34701153828E+04  0.50400000000E-02 0. -1.
    8880023    1    1    2    0    0  0.51404047977E+03  0.21753321668E+03 -0.31475228857E+04  0.32637813709E+04  0.65864270000E+03 0. -1.
    8880022    1    1    2    0    0 -0.51404047977E+03 -0.21753321668E+03  0.52168604984E+02  0.58109511404E+03  0.15294330000E+03 0.  0.
<mgrwt>
<rscale>  0 0.78119892E+03</rscale>
<asrwt>0</asrwt>
<pdfrwt beam="1">  1        1 0.53386388E+00 0.86334728E+03</pdfrwt>
<pdfrwt beam="2">  1       -1 0.57655557E-01 0.86334728E+03</pdfrwt>
<totfact> 0.85626025E-01</totfact>
</mgrwt>
</event>
<event>
 4    1  0.1521315E-007  0.7361053E+03  0.7818608E-02  0.9871441E-01
          1   -1    0    0  501    0  0.00000000000E+00  0.00000000000E+00  0.49784143465E+03  0.49784143467E+03  0.50400000000E-02 0. -1.
         -1   -1    0    0    0  501 -0.00000000000E+00 -0.00000000000E+00 -0.79667000170E+03  0.79667000172E+03  0.50400000000E-02 0.  1.
    8880023    1    1    2    0    0 -0.32293219605E+03 -0.61283430045E+02  0.11423548891E+03  0.74491664986E+03  0.65864270000E+03 0.  1.
    8880022    1    1    2    0    0  0.32293219605E+03  0.61283430045E+02 -0.41306405597E+03  0.54959478654E+03  0.15294330000E+03 0.  1.
<mgrwt>
<rscale>  0 0.61665581E+03</rscale>
<asrwt>0</asrwt>
<pdfrwt beam="1">  1        1 0.76590990E-01 0.73610534E+03</pdfrwt>
<pdfrwt beam="2">  1       -1 0.12256462E+00 0.73610534E+03</pdfrwt>
<totfact> 0.26879633E+01</totfact>
</mgrwt>
</event>
<event>
 4    1  0.1521315E-007  0.6883548E+03  0.7818608E-02  0.1004945E+00
         -1   -1    0    0    0  501 -0.00000000000E+00  0.00000000000E+00  0.32577679890E+03  0.32577679894E+03  0.50400000000E-02 0.  1.
          1   -1    0    0  501    0  0.00000000000E+00 -0.00000000000E+00 -0.14500762060E+04  0.14500762061E+04  0.50400000000E-02 0. -1.
    8880023    1    1    2    0    0  0.16559052190E+03  0.11225803642E+03 -0.12984859233E+04  0.14696591397E+04  0.65864270000E+03 0. -1.
    8880022    1    1    2    0    0 -0.16559052190E+03 -0.11225803642E+03  0.17418651619E+03  0.30619386525E+03  0.15294330000E+03 0.  0.
<mgrwt>
<rscale>  0 0.53534305E+03</rscale>
<asrwt>0</asrwt>
<pdfrwt beam="1">  1        1 0.22308864E+00 0.68835477E+03</pdfrwt>
<pdfrwt beam="2">  1       -1 0.50119509E-01 0.68835477E+03</pdfrwt>
<totfact> 0.29438330E+01</totfact>
</mgrwt>
</event>
<event>
 4    1  0.1521315E-007  0.8062132E+03  0.7818608E-02  0.9697519E-01
          1   -1    0    0  501    0  0.00000000000E+00  0.00000000000E+00  0.25502588786E+04  0.25502588786E+04  0.50400000000E-02 0. -1.
         -1   -1    0    0    0  501 -0.00000000000E+00 -0.00000000000E+00 -0.25649009767E+03  0.25649009772E+03  0.50400000000E-02 0.  1.
    8880023    1    1    2    0    0  0.24520609163E+03  0.39502340588E+03  0.21506606948E+04  0.22968067287E+04  0.65864270000E+03 0. -1.
    8880022    1    1    2    0    0 -0.24520609163E+03 -0.39502340588E+03  0.14310808610E+03  0.50994224760E+03  0.15294330000E+03 0.  0.
<mgrwt>
<rscale>  0 0.71164677E+03</rscale>
<asrwt>0</asrwt>
<pdfrwt beam="1">  1        1 0.39234752E+00 0.80621320E+03</pdfrwt>
<pdfrwt beam="2">  1       -1 0.39460015E-01 0.80621320E+03</pdfrwt>
<totfact> 0.81666239E+00</totfact>
</mgrwt>
</event>
<event>
 4    1  0.1521315E-007  0.1119163E+04  0.7818608E-02  0.9240015E-01
          1   -1    0    0  501    0  0.00000000000E+00  0.00000000000E+00  0.26119405804E+04  0.26119405804E+04  0.50400000000E-02 0. -1.
         -1   -1    0    0    0  501 -0.00000000000E+00 -0.00000000000E+00 -0.55567028783E+03  0.55567028785E+03  0.50400000000E-02 0.  1.
    8880023    1    1    2    0    0 -0.90158843867E+03 -0.76504866524E+02  0.19439579494E+04  0.22430999582E+04  0.65864270000E+03 0.  0.
    8880022    1    1    2    0    0  0.90158843867E+03  0.76504866524E+02  0.11231234320E+03  0.92451091005E+03  0.15294330000E+03 0.  0.
<mgrwt>
<rscale>  0 0.10649783E+04</rscale>
<asrwt>0</asrwt>
<pdfrwt beam="1">  1        1 0.40183702E+00 0.11191626E+04</pdfrwt>
<pdfrwt beam="2">  1       -1 0.85487735E-01 0.11191626E+04</pdfrwt>
<totfact> 0.15354289E+00</totfact>
</mgrwt>
</event>
<event>
 4    1  0.1521315E-007  0.1010957E+04  0.7818608E-02  0.9367361E-01
         -1   -1    0    0    0  501 -0.00000000000E+00  0.00000000000E+00  0.84636419932E+03  0.84636419933E+03  0.50400000000E-02 0.  1.
          1   -1    0    0  501    0  0.00000000000E+00 -0.00000000000E+00 -0.28764682632E+04  0.28764682632E+04  0.50400000000E-02 0. -1.
    8880023    1    1    2    0    0  0.49571392536E+03  0.58522813232E+03  0.46154569969E+03  0.11113320394E+04  0.65864270000E+03 0.  0.
    8880022    1    1    2    0    0 -0.49571392536E+03 -0.58522813232E+03 -0.24916497636E+04  0.26115004231E+04  0.15294330000E+03 0.  0.
<mgrwt>
<rscale>  0 0.94811153E+03</rscale>
<asrwt>0</asrwt>
<pdfrwt beam="1">  1        1 0.44253357E+00 0.10109572E+04</pdfrwt>
<pdfrwt beam="2">  1       -1 0.13020988E+00 0.10109572E+04</pdfrwt>
<totfact> 0.37965543E-01</totfact>
</mgrwt>
</event>
<event>
 4    1  0.1521315E-007  0.8175800E+03  0.7818608E-02  0.9673999E-01
          1   -1    0    0  501    0  0.00000000000E+00  0.00000000000E+00  0.21839193050E+04  0.21839193050E+04  0.50400000000E-02 0. -1.
         -1   -1    0    0    0  501 -0.00000000000E+00 -0.00000000000E+00 -0.22599882203E+03  0.22599882208E+03  0.50400000000E-02 0.  1.
    8880023    1    1    2    0    0  0.40416201032E+03 -0.26698311987E+03  0.15723246889E+04  0.17721856704E+04  0.65864270000E+03 0.  1.
    8880022    1    1    2    0    0 -0.40416201032E+03  0.26698311987E+03  0.38559579414E+03  0.63773245672E+03  0.15294330000E+03 0.  0.
<mgrwt>
<rscale>  0 0.72586203E+03</rscale>
<asrwt>0</asrwt>
<pdfrwt beam="1">  1        1 0.33598759E+00 0.81758004E+03</pdfrwt>
<pdfrwt beam="2">  1       -1 0.34769049E-01 0.81758004E+03</pdfrwt>
<totfact> 0.18145788E+01</totfact>
</mgrwt>
</event>
<event>
 4    1  0.1521315E-007  0.8755432E+03  0.7818608E-02  0.9566492E-01
          1   -1    0    0  501    0  0.00000000000E+00  0.00000000000E+00  0.16675361482E+04  0.16675361482E+04  0.50400000000E-02 0. -1.
         -1   -1    0    0    0  501 -0.00000000000E+00 -0.00000000000E+00 -0.66564521977E+03  0.66564521979E+03  0.50400000000E-02 0.  1.
    8880023    1    1    2    0    0  0.55705912301E+03  0.14983589344E+03  0.13744651275E+04  0.16296411429E+04  0.65864270000E+03 0. -1.
    8880022    1    1    2    0    0 -0.55705912301E+03 -0.14983589344E+03 -0.37257419911E+03  0.70354022511E+03  0.15294330000E+03 0.  0.
<mgrwt>
<rscale>  0 0.79554255E+03</rscale>
<asrwt>0</asrwt>
<pdfrwt beam="1">  1        1 0.25654402E+00 0.87554318E+03</pdfrwt>
<pdfrwt beam="2">  1       -1 0.10240696E+00 0.87554318E+03</pdfrwt>
<totfact> 0.46353281E+00</totfact>
</mgrwt>
</event>
<event>
 4    1  0.1521315E-007  0.7923902E+03  0.7818608E-02  0.9727498E-01
          1   -1    0    0  501    0  0.00000000000E+00  0.00000000000E+00  0.16625801961E+04  0.16625801961E+04  0.50400000000E-02 0. -1.
         -1   -1    0    0    0  501 -0.00000000000E+00 -0.00000000000E+00 -0.81827220467E+03  0.81827220469E+03  0.50400000000E-02 0.  1.
    8880023    1    1    2    0    0  0.17236923552E+03 -0.40541438348E+03  0.14880951318E+04  0.16859149751E+04  0.65864270000E+03 0. -1.
    8880022    1    1    2    0    0 -0.17236923552E+03  0.40541438348E+03 -0.64378714036E+03  0.79493742571E+03  0.15294330000E+03 0.  0.
<mgrwt>
<rscale>  0 0.69402903E+03</rscale>
<asrwt>0</asrwt>
<pdfrwt beam="1">  1        1 0.25578157E+00 0.79239017E+03</pdfrwt>
<pdfrwt beam="2">  1       -1 0.12588803E+00 0.79239017E+03</pdfrwt>
<totfact> 0.28886523E+00</totfact>
</mgrwt>
</event>
<event>
 4    1  0.1521315E-007  0.8178438E+03  0.7818608E-02  0.9673464E-01
          1   -1    0    0  501    0  0.00000000000E+00  0.00000000000E+00  0.15038091768E+04  0.15038091768E+04  0.50400000000E-02 0. -1.
         -1   -1    0    0    0  501 -0.00000000000E+00 -0.00000000000E+00 -0.41803452491E+03  0.41803452494E+03  0.50400000000E-02 0.  1.
    8880023    1    1    2    0    0  0.10108481797E+03  0.47417309786E+03  0.11481504304E+04  0.14096516890E+04  0.65864270000E+03 0. -1.
    8880022    1    1    2    0    0 -0.10108481797E+03 -0.47417309786E+03 -0.62375778550E+02  0.51219201274E+03  0.15294330000E+03 0.  0.
<mgrwt>
<rscale>  0 0.72618926E+03</rscale>
<asrwt>0</asrwt>
<pdfrwt beam="1">  1        1 0.23135526E+00 0.81784380E+03</pdfrwt>
<pdfrwt beam="2">  1       -1 0.64313004E-01 0.81784380E+03</pdfrwt>
<totfact> 0.16365590E+01</totfact>
</mgrwt>
</event>
<event>
 4    1  0.1521315E-007  0.9602893E+03  0.7818608E-02  0.9435462E-01
          1   -1    0    0  501    0  0.00000000000E+00  0.00000000000E+00  0.81964470505E+03  0.81964470506E+03  0.50400000000E-02 0. -1.
         -1   -1    0    0    0  501 -0.00000000000E+00 -0.00000000000E+00 -0.10153594347E+04  0.10153594347E+04  0.50400000000E-02 0.  1.
    8880023    1    1    2    0    0 -0.26184607325E+03  0.64790576243E+03  0.24981380117E+03  0.99225117011E+03  0.65864270000E+03 0.  0.
    8880022    1    1    2    0    0  0.26184607325E+03 -0.64790576243E+03 -0.44552853079E+03  0.84275296964E+03  0.15294330000E+03 0.  1.
<mgrwt>
<rscale>  0 0.89213873E+03</rscale>
<asrwt>0</asrwt>
<pdfrwt beam="1">  1        1 0.12609918E+00 0.96028925E+03</pdfrwt>
<pdfrwt beam="2">  1       -1 0.15620914E+00 0.96028925E+03</pdfrwt>
<totfact> 0.66853445E+00</totfact>
</mgrwt>
</event>
<event>
 4    1  0.1521315E-007  0.6981006E+03  0.7818608E-02  0.1000517E+00
          1   -1    0    0  501    0  0.00000000000E+00  0.00000000000E+00  0.85886602789E+03  0.85886602791E+03  0.50400000000E-02 0. -1.
         -1   -1    0    0    0  501 -0.00000000000E+00 -0.00000000000E+00 -0.42277756107E+03  0.42277756110E+03  0.50400000000E-02 0.  1.
    8880023    1    1    2    0    0 -0.22772485313E+03 -0.40935161630E+02  0.63231275677E+03  0.94189379700E+03  0.65864270000E+03 0. -1.
    8880022    1    1    2    0    0  0.22772485313E+03  0.40935161630E+02 -0.19622428995E+03  0.33974979201E+03  0.15294330000E+03 0.  0.
<mgrwt>
<rscale>  0 0.55423970E+03</rscale>
<asrwt>0</asrwt>
<pdfrwt beam="1">  1        1 0.13213324E+00 0.69810064E+03</pdfrwt>
<pdfrwt beam="2">  1       -1 0.65042701E-01 0.69810064E+03</pdfrwt>
<totfact> 0.48529345E+01</totfact>
</mgrwt>
</event>
<event>
 4    1  0.1521315E-007  0.8261357E+03  0.7818608E-02  0.9656898E-01
          1   -1    0    0  501    0  0.00000000000E+00  0.00000000000E+00  0.15142895366E+04  0.15142895366E+04  0.50400000000E-02 0. -1.
         -1   -1    0    0    0  501 -0.00000000000E+00 -0.00000000000E+00 -0.72090255588E+03  0.72090255589E+03  0.50400000000E-02 0.  1.
    8880023    1    1    2    0    0  0.44194300253E+03  0.23103312223E+03  0.12789408303E+04  0.15225602696E+04  0.65864270000E+03 0. -1.
    8880022    1    1    2    0    0 -0.44194300253E+03 -0.23103312223E+03 -0.48555384959E+03  0.71263182284E+03  0.15294330000E+03 0.  0.
<mgrwt>
<rscale>  0 0.73642058E+03</rscale>
<asrwt>0</asrwt>
<pdfrwt beam="1">  1        1 0.23296762E+00 0.82613566E+03</pdfrwt>
<pdfrwt beam="2">  1       -1 0.11090809E+00 0.82613566E+03</pdfrwt>
<totfact> 0.49276761E+00</totfact>
</mgrwt>
</event>
<event>
 4    1  0.1521315E-007  0.9304972E+03  0.7818608E-02  0.9478748E-01
          1   -1    0    0  501    0  0.00000000000E+00  0.00000000000E+00  0.20319456845E+04  0.20319456845E+04  0.50400000000E-02 0. -1.
         -1   -1    0    0    0  501 -0.00000000000E+00 -0.00000000000E+00 -0.38059179508E+03  0.38059179512E+03  0.50400000000E-02 0.  1.
    8880023    1    1    2    0    0  0.60634725865E+03  0.25368852714E+03  0.14227847163E+04  0.17000415942E+04  0.65864270000E+03 0. -1.
    8880022    1    1    2    0    0 -0.60634725865E+03 -0.25368852714E+03  0.22856917321E+03  0.71249588548E+03  0.15294330000E+03 0.  0.
<mgrwt>
<rscale>  0 0.85868962E+03</rscale>
<asrwt>0</asrwt>
<pdfrwt beam="1">  1        1 0.31260703E+00 0.93049722E+03</pdfrwt>
<pdfrwt beam="2">  1       -1 0.58552584E-01 0.93049722E+03</pdfrwt>
<totfact> 0.85505259E+00</totfact>
</mgrwt>
</event>
<event>
 4    1  0.1521315E-007  0.6820191E+03  0.7818608E-02  0.1008204E+00
         -1   -1    0    0    0  501 -0.00000000000E+00  0.00000000000E+00  0.69595380649E+03  0.69595380651E+03  0.50400000000E-02 0.  1.
          1   -1    0    0  501    0  0.00000000000E+00 -0.00000000000E+00 -0.10111450447E+04  0.10111450447E+04  0.50400000000E-02 0. -1.
    8880023    1    1    2    0    0  0.48976435689E+02 -0.17012097018E+03 -0.86971823785E+03  0.11052419895E+04  0.65864270000E+03 0. -1.
    8880022    1    1    2    0    0 -0.48976435689E+02  0.17012097018E+03  0.55452699963E+03  0.60185686178E+03  0.15294330000E+03 0.  0.
<mgrwt>
<rscale>  0 0.52194778E+03</rscale>
<asrwt>0</asrwt>
<pdfrwt beam="1">  1        1 0.15556078E+00 0.68201909E+03</pdfrwt>
<pdfrwt beam="2">  1       -1 0.10706982E+00 0.68201909E+03</pdfrwt>
<totfact> 0.12562466E+01</totfact>
</mgrwt>
</event>
<event>
 4    1  0.1521315E-007  0.6707665E+03  0.7818608E-02  0.1015119E+00
          1   -1    0    0  501    0  0.00000000000E+00  0.00000000000E+00  0.15573435307E+04  0.15573435307E+04  0.50400000000E-02 0. -1.
         -1   -1    0    0    0  501 -0.00000000000E+00 -0.00000000000E+00 -0.31404285924E+03  0.31404285928E+03  0.50400000000E-02 0.  1.
    8880023    1    1    2    0    0 -0.90273190574E+02  0.89265261038E+02  0.14419745840E+04  0.15903516727E+04  0.65864270000E+03 0. -1.
    8880022    1    1    2    0    0  0.90273190574E+02 -0.89265261038E+02 -0.19867391255E+03  0.28103471726E+03  0.15294330000E+03 0.  0.
<mgrwt>
<rscale>  0 0.49489812E+03</rscale>
<asrwt>0</asrwt>
<pdfrwt beam="1">  1        1 0.23959131E+00 0.67076653E+03</pdfrwt>
<pdfrwt beam="2">  1       -1 0.48314287E-01 0.67076653E+03</pdfrwt>
<totfact> 0.26715366E+01</totfact>
</mgrwt>
</event>
<event>
 4    1  0.1521315E-007  0.6888676E+03  0.7818608E-02  0.1004696E+00
         -1   -1    0    0    0  501 -0.00000000000E+00  0.00000000000E+00  0.12415472440E+04  0.12415472441E+04  0.50400000000E-02 0.  1.
          1   -1    0    0  501    0  0.00000000000E+00 -0.00000000000E+00 -0.41989653753E+03  0.41989653756E+03  0.50400000000E-02 0. -1.
    8880023    1    1    2    0    0 -0.58185937829E+01 -0.20172869667E+03 -0.10857289532E+03  0.69737120887E+03  0.65864270000E+03 0. -1.
    8880022    1    1    2    0    0  0.58185937829E+01  0.20172869667E+03  0.93022360184E+03  0.96407257274E+03  0.15294330000E+03 0.  0.
<mgrwt>
<rscale>  0 0.53638420E+03</rscale>
<asrwt>0</asrwt>
<pdfrwt beam="1">  1        1 0.64599468E-01 0.68886757E+03</pdfrwt>
<pdfrwt beam="2">  1       -1 0.19100727E+00 0.68886757E+03</pdfrwt>
<totfact> 0.10156044E+01</totfact>
</mgrwt>
</event>
<event>
 4    1  0.1521315E-007  0.8381350E+03  0.7818608E-02  0.9633707E-01
          1   -1    0    0  501    0  0.00000000000E+00  0.00000000000E+00  0.17814571193E+04  0.17814571193E+04  0.50400000000E-02 0. -1.
         -1   -1    0    0    0  501 -0.00000000000E+00 -0.00000000000E+00 -0.59145049909E+03  0.59145049911E+03  0.50400000000E-02 0.  1.
    8880023    1    1    2    0    0 -0.64318960384E+02  0.51431819764E+03  0.15228179647E+04  0.17382303924E+04  0.65864270000E+03 0. -1.
    8880022    1    1    2    0    0  0.64318960384E+02 -0.51431819764E+03 -0.33281134457E+03  0.63467722598E+03  0.15294330000E+03 0.  0.
<mgrwt>
<rscale>  0 0.75104850E+03</rscale>
<asrwt>0</asrwt>
<pdfrwt beam="1">  1        1 0.27407032E+00 0.83813504E+03</pdfrwt>
<pdfrwt beam="2">  1       -1 0.90992387E-01 0.83813504E+03</pdfrwt>
<totfact> 0.50995334E+00</totfact>
</mgrwt>
</event>
<event>
 4    1  0.1521315E-007  0.6819745E+03  0.7818608E-02  0.1008228E+00
          1   -1    0    0  501    0  0.00000000000E+00  0.00000000000E+00  0.11895517829E+04  0.11895517829E+04  0.50400000000E-02 0. -1.
         -1   -1    0    0    0  501 -0.00000000000E+00 -0.00000000000E+00 -0.32927783758E+03  0.32927783762E+03  0.50400000000E-02 0.  1.
    8880023    1    1    2    0    0 -0.17539079813E+03 -0.22739853710E+02  0.10261842325E+04  0.12321295867E+04  0.65864270000E+03 0. -1.
    8880022    1    1    2    0    0  0.17539079813E+03  0.22739853710E+02 -0.16591028718E+03  0.28670003387E+03  0.15294330000E+03 0.  0.
<mgrwt>
<rscale>  0 0.52184968E+03</rscale>
<asrwt>0</asrwt>
<pdfrwt beam="1">  1        1 0.18300796E+00 0.68197452E+03</pdfrwt>
<pdfrwt beam="2">  1       -1 0.50658130E-01 0.68197452E+03</pdfrwt>
<totfact> 0.44032123E+01</totfact>
</mgrwt>
</event>
<event>
 4    1  0.1521315E-007  0.6808804E+03  0.7818608E-02  0.1008830E+00
          1   -1    0    0  501    0  0.00000000000E+00  0.00000000000E+00  0.14693566808E+04  0.14693566808E+04  0.50400000000E-02 0. -1.
         -1   -1    0    0    0  501 -0.00000000000E+00 -0.00000000000E+00 -0.51704301968E+03  0.51704301970E+03  0.50400000000E-02 0.  1.
    8880023    1    1    2    0    0  0.17128744371E+03  0.21179344858E+02  0.13583510002E+04  0.15194458198E+04  0.65864270000E+03 0. -1.
    8880022    1    1    2    0    0 -0.17128744371E+03 -0.21179344858E+02 -0.40603733910E+03  0.46695388078E+03  0.15294330000E+03 0.  0.
<mgrwt>
<rscale>  0 0.51942312E+03</rscale>
<asrwt>0</asrwt>
<pdfrwt beam="1">  1        1 0.22605487E+00 0.68088043E+03</pdfrwt>
<pdfrwt beam="2">  1       -1 0.79545081E-01 0.68088043E+03</pdfrwt>
<totfact> 0.11374285E+01</totfact>
</mgrwt>
</event>
<event>
 4    1  0.1521315E-007  0.6842586E+03  0.7818608E-02  0.1007010E+00
         -1   -1    0    0    0  501 -0.00000000000E+00  0.00000000000E+00  0.21699524301E+04  0.21699524301E+04  0.50400000000E-02 0.  1.
          1   -1    0    0  501    0  0.00000000000E+00 -0.00000000000E+00 -0.40616212387E+03  0.40616212390E+03  0.50400000000E-02 0. -1.
    8880023    1    1    2    0    0 -0.22974947259E+02  0.18404304310E+03 -0.10470044413E+03  0.69222256477E+03  0.65864270000E+03 0. -1.
    8880022    1    1    2    0    0  0.22974947259E+02 -0.18404304310E+03  0.18684907503E+04  0.18838919892E+04  0.15294330000E+03 0.  0.
<mgrwt>
<rscale>  0 0.52680279E+03</rscale>
<asrwt>0</asrwt>
<pdfrwt beam="1">  1        1 0.62486481E-01 0.68425865E+03</pdfrwt>
<pdfrwt beam="2">  1       -1 0.33383884E+00 0.68425865E+03</pdfrwt>
<totfact> 0.12520132E+00</totfact>
</mgrwt>
</event>
<event>
 4    1  0.1521315E-007  0.6930941E+03  0.7818608E-02  0.1002715E+00
          1   -1    0    0  501    0  0.00000000000E+00  0.00000000000E+00  0.16950760256E+04  0.16950760256E+04  0.50400000000E-02 0. -1.
         -1   -1    0    0    0  501 -0.00000000000E+00 -0.00000000000E+00 -0.16600576357E+03  0.16600576364E+03  0.50400000000E-02 0.  1.
    8880023    1    1    2    0    0 -0.37653718882E+02 -0.21248859341E+03  0.14097446258E+04  0.15709103479E+04  0.65864270000E+03 0. -1.
    8880022    1    1    2    0    0  0.37653718882E+02  0.21248859341E+03  0.11932563615E+03  0.29017144128E+03  0.15294330000E+03 0.  0.
<mgrwt>
<rscale>  0 0.54475476E+03</rscale>
<asrwt>0</asrwt>
<pdfrwt beam="1">  1        1 0.26078093E+00 0.69309409E+03</pdfrwt>
<pdfrwt beam="2">  1       -1 0.25539348E-01 0.69309409E+03</pdfrwt>
<totfact> 0.67048372E+01</totfact>
</mgrwt>
</event>
<event>
 4    1  0.1521315E-007  0.7023575E+03  0.7818608E-02  0.9987559E-01
         -1   -1    0    0    0  501 -0.00000000000E+00  0.00000000000E+00  0.62190277379E+02  0.62190277583E+02  0.50400000000E-02 0.  1.
          1   -1    0    0  501    0  0.00000000000E+00 -0.00000000000E+00 -0.42885750483E+04  0.42885750483E+04  0.50400000000E-02 0. -1.
    8880023    1    1    2    0    0  0.23515049248E+03  0.64807824266E+02 -0.34926061824E+04  0.35625277486E+04  0.65864270000E+03 0. -1.
    8880022    1    1    2    0    0 -0.23515049248E+03 -0.64807824266E+02 -0.73377858852E+03  0.78823757725E+03  0.15294330000E+03 0. -1.
<mgrwt>
<rscale>  0 0.56199152E+03</rscale>
<asrwt>0</asrwt>
<pdfrwt beam="1">  1        1 0.65978055E+00 0.70235747E+03</pdfrwt>
<pdfrwt beam="2">  1       -1 0.95677383E-02 0.70235747E+03</pdfrwt>
<totfact> 0.39604729E+00</totfact>
</mgrwt>
</event>
<event>
 4    1  0.1521315E-007  0.6679093E+03  0.7818608E-02  0.1017208E+00
         -1   -1    0    0    0  501 -0.00000000000E+00  0.00000000000E+00  0.47658385808E+03  0.47658385810E+03  0.50400000000E-02 0.  1.
          1   -1    0    0  501    0  0.00000000000E+00 -0.00000000000E+00 -0.40731306743E+03  0.40731306746E+03  0.50400000000E-02 0. -1.
    8880023    1    1    2    0    0 -0.11058988625E+03 -0.79061695919E+01 -0.33687185868E+02  0.66875829955E+03  0.65864270000E+03 0. -1.
    8880022    1    1    2    0    0  0.11058988625E+03  0.79061695919E+01  0.10295797652E+03  0.21513862601E+03  0.15294330000E+03 0.  0.
<mgrwt>
<rscale>  0 0.48707713E+03</rscale>
<asrwt>0</asrwt>
<pdfrwt beam="1">  1        1 0.62663549E-01 0.66790930E+03</pdfrwt>
<pdfrwt beam="2">  1       -1 0.73320593E-01 0.66790930E+03</pdfrwt>
<totfact> 0.11221488E+02</totfact>
</mgrwt>
</event>
<event>
 4    1  0.1521315E-007  0.8563568E+03  0.7818608E-02  0.9600077E-01
          1   -1    0    0  501    0  0.00000000000E+00  0.00000000000E+00  0.31968903355E+04  0.31968903355E+04  0.50400000000E-02 0. -1.
         -1   -1    0    0    0  501 -0.00000000000E+00 -0.00000000000E+00 -0.18589171184E+03  0.18589171191E+03  0.50400000000E-02 0.  1.
    8880023    1    1    2    0    0 -0.53748819909E+03 -0.10316577530E+03  0.24007759010E+04  0.25489354395E+04  0.65864270000E+03 0.  0.
    8880022    1    1    2    0    0  0.53748819909E+03  0.10316577530E+03  0.61022272264E+03  0.83384660795E+03  0.15294330000E+03 0.  0.
<mgrwt>
<rscale>  0 0.77291073E+03</rscale>
<asrwt>0</asrwt>
<pdfrwt beam="1">  1        1 0.49182924E+00 0.85635679E+03</pdfrwt>
<pdfrwt beam="2">  1       -1 0.28598727E-01 0.85635679E+03</pdfrwt>
<totfact> 0.49876206E+00</totfact>
</mgrwt>
</event>
<event>
 4    1  0.1521315E-007  0.7625097E+03  0.7818608E-02  0.9798653E-01
         -1   -1    0    0    0  501 -0.00000000000E+00  0.00000000000E+00  0.65938360606E+03  0.65938360608E+03  0.50400000000E-02 0.  1.
          1   -1    0    0  501    0  0.00000000000E+00 -0.00000000000E+00 -0.15697368317E+04  0.15697368317E+04  0.50400000000E-02 0. -1.
    8880023    1    1    2    0    0  0.38250925946E+03  0.36021118888E+02 -0.13963638806E+04  0.15909912469E+04  0.65864270000E+03 0. -1.
    8880022    1    1    2    0    0 -0.38250925946E+03 -0.36021118888E+02  0.48601065489E+03  0.63812919089E+03  0.15294330000E+03 0.  0.
<mgrwt>
<rscale>  0 0.65434885E+03</rscale>
<asrwt>0</asrwt>
<pdfrwt beam="1">  1        1 0.24149797E+00 0.76250971E+03</pdfrwt>
<pdfrwt beam="2">  1       -1 0.10144363E+00 0.76250971E+03</pdfrwt>
<totfact> 0.56159765E+00</totfact>
</mgrwt>
</event>
<event>
 4    1  0.1521315E-007  0.7925153E+03  0.7818608E-02  0.9727219E-01
          1   -1    0    0  501    0  0.00000000000E+00  0.00000000000E+00  0.15266375169E+04  0.15266375169E+04  0.50400000000E-02 0. -1.
         -1   -1    0    0    0  501 -0.00000000000E+00 -0.00000000000E+00 -0.83295713270E+03  0.83295713272E+03  0.50400000000E-02 0.  1.
    8880023    1    1    2    0    0 -0.12247585450E+03  0.42340290432E+03  0.13433858258E+04  0.15597326815E+04  0.65864270000E+03 0. -1.
    8880022    1    1    2    0    0  0.12247585450E+03 -0.42340290432E+03 -0.64970544159E+03  0.79986196820E+03  0.15294330000E+03 0.  0.
<mgrwt>
<rscale>  0 0.69419037E+03</rscale>
<asrwt>0</asrwt>
<pdfrwt beam="1">  1        1 0.23486731E+00 0.79251534E+03</pdfrwt>
<pdfrwt beam="2">  1       -1 0.12814725E+00 0.79251534E+03</pdfrwt>
<totfact> 0.34178350E+00</totfact>
</mgrwt>
</event>
<event>
 4    1  0.1521315E-007  0.9611931E+03  0.7818608E-02  0.9434189E-01
         -1   -1    0    0    0  501 -0.00000000000E+00  0.00000000000E+00  0.11209231927E+04  0.11209231927E+04  0.50400000000E-02 0.  1.
          1   -1    0    0  501    0  0.00000000000E+00 -0.00000000000E+00 -0.15957616147E+04  0.15957616147E+04  0.50400000000E-02 0. -1.
    8880023    1    1    2    0    0 -0.59741391240E+03  0.36493653337E+03 -0.13045248002E+04  0.16203941547E+04  0.65864270000E+03 0. -1.
    8880022    1    1    2    0    0  0.59741391240E+03 -0.36493653337E+03  0.82968637813E+03  0.10962906527E+04  0.15294330000E+03 0.  0.
<mgrwt>
<rscale>  0 0.89314665E+03</rscale>
<asrwt>0</asrwt>
<pdfrwt beam="1">  1        1 0.24550179E+00 0.96119315E+03</pdfrwt>
<pdfrwt beam="2">  1       -1 0.17244972E+00 0.96119315E+03</pdfrwt>
<totfact> 0.13433103E+00</totfact>
</mgrwt>
</event>
<event>
 4    1  0.1521315E-007  0.8717513E+03  0.7818608E-02  0.9572993E-01
         -1   -1    0    0    0  501 -0.00000000000E+00  0.00000000000E+00  0.47200783817E+03  0.47200783820E+03  0.50400000000E-02 0.  1.
          1   -1    0    0  501    0  0.00000000000E+00 -0.00000000000E+00 -0.21421515644E+04  0.21421515644E+04  0.50400000000E-02 0. -1.
    8880023    1    1    2    0    0  0.52869790132E+03 -0.21591349406E+03 -0.18079086673E+04  0.20071083836E+04  0.65864270000E+03 0. -1.
    8880022    1    1    2    0    0 -0.52869790132E+03  0.21591349406E+03  0.13776494104E+03  0.60705101908E+03  0.15294330000E+03 0.  0.
<mgrwt>
<rscale>  0 0.79109799E+03</rscale>
<asrwt>0</asrwt>
<pdfrwt beam="1">  1        1 0.32956177E+00 0.87175129E+03</pdfrwt>
<pdfrwt beam="2">  1       -1 0.72616592E-01 0.87175129E+03</pdfrwt>
<totfact> 0.47071499E+00</totfact>
</mgrwt>
</event>
<event>
 4    1  0.1521315E-007  0.1586413E+04  0.7818608E-02  0.8850910E-01
         -1   -1    0    0    0  501 -0.00000000000E+00  0.00000000000E+00  0.24193906024E+04  0.24193906024E+04  0.50400000000E-02 0.  1.
          1   -1    0    0  501    0  0.00000000000E+00 -0.00000000000E+00 -0.15269822260E+04  0.15269822260E+04  0.50400000000E-02 0. -1.
    8880023    1    1    2    0    0  0.68525635498E+03 -0.12701649067E+04 -0.74987327164E+03  0.17547123103E+04  0.65864270000E+03 0.  0.
    8880022    1    1    2    0    0 -0.68525635498E+03  0.12701649067E+04  0.16422816480E+04  0.21916605181E+04  0.15294330000E+03 0.  0.
<mgrwt>
<rscale>  0 0.15515002E+04</rscale>
<asrwt>0</asrwt>
<pdfrwt beam="1">  1        1 0.23492034E+00 0.15864127E+04</pdfrwt>
<pdfrwt beam="2">  1       -1 0.37221394E+00 0.15864127E+04</pdfrwt>
<totfact> 0.64779421E-02</totfact>
</mgrwt>
</event>
<event>
 4    1  0.1521315E-007  0.6693759E+03  0.7818608E-02  0.1016114E+00
          1   -1    0    0  501    0  0.00000000000E+00  0.00000000000E+00  0.42891100855E+03  0.42891100858E+03  0.50400000000E-02 0. -1.
         -1   -1    0    0    0  501 -0.00000000000E+00 -0.00000000000E+00 -0.74100508152E+03  0.74100508154E+03  0.50400000000E-02 0.  1.
    8880023    1    1    2    0    0 -0.70989251932E+02 -0.95991460299E+02  0.13471579858E+03  0.68279747143E+03  0.65864270000E+03 0. -1.
    8880022    1    1    2    0    0  0.70989251932E+02  0.95991460299E+02 -0.44680987155E+03  0.48711861869E+03  0.15294330000E+03 0.  0.
<mgrwt>
<rscale>  0 0.49115283E+03</rscale>
<asrwt>0</asrwt>
<pdfrwt beam="1">  1        1 0.65986309E-01 0.66937586E+03</pdfrwt>
<pdfrwt beam="2">  1       -1 0.11400078E+00 0.66937586E+03</pdfrwt>
<totfact> 0.39441221E+01</totfact>
</mgrwt>
</event>
<event>
 4    1  0.1521315E-007  0.1027441E+04  0.7818608E-02  0.9346506E-01
          1   -1    0    0  501    0  0.00000000000E+00  0.00000000000E+00  0.18584795855E+04  0.18584795855E+04  0.50400000000E-02 0. -1.
         -1   -1    0    0    0  501 -0.00000000000E+00 -0.00000000000E+00 -0.56822613513E+03  0.56822613516E+03  0.50400000000E-02 0.  1.
    8880023    1    1    2    0    0 -0.17325479585E+03  0.76929007257E+03  0.12560239756E+04  0.16227232893E+04  0.65864270000E+03 0.  0.
    8880022    1    1    2    0    0  0.17325479585E+03 -0.76929007257E+03  0.34229474787E+02  0.80398243140E+03  0.15294330000E+03 0.  0.
<mgrwt>
<rscale>  0 0.96611931E+03</rscale>
<asrwt>0</asrwt>
<pdfrwt beam="1">  1        1 0.28591994E+00 0.10274408E+04</pdfrwt>
<pdfrwt beam="2">  1       -1 0.87419404E-01 0.10274408E+04</pdfrwt>
<totfact> 0.48165600E+00</totfact>
</mgrwt>
</event>
<event>
 4    1  0.1521315E-007  0.6863319E+03  0.7818608E-02  0.1005947E+00
          1   -1    0    0  501    0  0.00000000000E+00  0.00000000000E+00  0.37467642804E+04  0.37467642804E+04  0.50400000000E-02 0. -1.
         -1   -1    0    0    0  501 -0.00000000000E+00 -0.00000000000E+00 -0.13216382601E+03  0.13216382610E+03  0.50400000000E-02 0.  1.
    8880023    1    1    2    0    0 -0.17515135183E+03  0.81014417958E+02  0.35615023271E+04  0.36270305160E+04  0.65864270000E+03 0. -1.
    8880022    1    1    2    0    0  0.17515135183E+03 -0.81014417958E+02  0.53098127320E+02  0.25189759051E+03  0.15294330000E+03 0.  0.
<mgrwt>
<rscale>  0 0.53117702E+03</rscale>
<asrwt>0</asrwt>
<pdfrwt beam="1">  1        1 0.57642528E+00 0.68633194E+03</pdfrwt>
<pdfrwt beam="2">  1       -1 0.20332896E-01 0.68633194E+03</pdfrwt>
<totfact> 0.34622420E+00</totfact>
</mgrwt>
</event>
<event>
 4    1  0.1521315E-007  0.7457159E+03  0.7818608E-02  0.9843599E-01
         -1   -1    0    0    0  501 -0.00000000000E+00  0.00000000000E+00  0.43943801415E+03  0.43943801418E+03  0.50400000000E-02 0.  1.
          1   -1    0    0  501    0  0.00000000000E+00 -0.00000000000E+00 -0.28216455898E+04  0.28216455898E+04  0.50400000000E-02 0. -1.
    8880023    1    1    2    0    0  0.32569590382E+03  0.12729558632E+03 -0.26769349493E+04  0.27788618024E+04  0.65864270000E+03 0. -1.
    8880022    1    1    2    0    0 -0.32569590382E+03 -0.12729558632E+03  0.29472737367E+03  0.48222180153E+03  0.15294330000E+03 0.  0.
<mgrwt>
<rscale>  0 0.63074334E+03</rscale>
<asrwt>0</asrwt>
<pdfrwt beam="1">  1        1 0.43409931E+00 0.74571589E+03</pdfrwt>
<pdfrwt beam="2">  1       -1 0.67605850E-01 0.74571589E+03</pdfrwt>
<totfact> 0.19102944E+00</totfact>
</mgrwt>
</event>
<event>
 4    1  0.1521315E-007  0.6862783E+03  0.7818608E-02  0.1005974E+00
         -1   -1    0    0    0  501 -0.00000000000E+00  0.00000000000E+00  0.59015684845E+02  0.59015685060E+02  0.50400000000E-02 0.  1.
          1   -1    0    0  501    0  0.00000000000E+00 -0.00000000000E+00 -0.49026314412E+04  0.49026314412E+04  0.50400000000E-02 0. -1.
    8880023    1    1    2    0    0 -0.17682314291E+03  0.76820004648E+02 -0.44098961369E+04  0.44629767960E+04  0.65864270000E+03 0. -1.
    8880022    1    1    2    0    0  0.17682314291E+03 -0.76820004648E+02 -0.43371961945E+03  0.49867033027E+03  0.15294330000E+03 0.  0.
<mgrwt>
<rscale>  0 0.53106527E+03</rscale>
<asrwt>0</asrwt>
<pdfrwt beam="1">  1        1 0.75425067E+00 0.68627833E+03</pdfrwt>
<pdfrwt beam="2">  1       -1 0.90793400E-02 0.68627833E+03</pdfrwt>
<totfact> 0.98308111E-01</totfact>
</mgrwt>
</event>
<event>
 4    1  0.1521315E-007  0.7007945E+03  0.7818608E-02  0.9993921E-01
          1   -1    0    0  501    0  0.00000000000E+00  0.00000000000E+00  0.11117013262E+04  0.11117013262E+04  0.50400000000E-02 0. -1.
         -1   -1    0    0    0  501 -0.00000000000E+00 -0.00000000000E+00 -0.43122410202E+03  0.43122410205E+03  0.50400000000E-02 0.  1.
    8880023    1    1    2    0    0 -0.11086054721E+03 -0.21216174580E+03  0.93024035372E+03  0.11646716229E+04  0.65864270000E+03 0.  0.
    8880022    1    1    2    0    0  0.11086054721E+03  0.21216174580E+03 -0.24976312957E+03  0.37825380529E+03  0.15294330000E+03 0.  0.
<mgrwt>
<rscale>  0 0.55917580E+03</rscale>
<asrwt>0</asrwt>
<pdfrwt beam="1">  1        1 0.17103098E+00 0.70079446E+03</pdfrwt>
<pdfrwt beam="2">  1       -1 0.66342169E-01 0.70079446E+03</pdfrwt>
<totfact> 0.29581360E+01</totfact>
</mgrwt>
</event>
<event>
 4    1  0.1521315E-007  0.8388521E+03  0.7818608E-02  0.9632348E-01
          1   -1    0    0  501    0  0.00000000000E+00  0.00000000000E+00  0.87072277124E+03  0.87072277125E+03  0.50400000000E-02 0. -1.
         -1   -1    0    0    0  501 -0.00000000000E+00 -0.00000000000E+00 -0.70473485567E+03  0.70473485569E+03  0.50400000000E-02 0.  1.
    8880023    1    1    2    0    0  0.43448794375E+03  0.28475059724E+03  0.46266757531E+03  0.95798442962E+03  0.65864270000E+03 0.  0.
    8880022    1    1    2    0    0 -0.43448794375E+03 -0.28475059724E+03 -0.29667965974E+03  0.61747319732E+03  0.15294330000E+03 0.  0.
<mgrwt>
<rscale>  0 0.75191649E+03</rscale>
<asrwt>0</asrwt>
<pdfrwt beam="1">  1        1 0.13395735E+00 0.83885212E+03</pdfrwt>
<pdfrwt beam="2">  1       -1 0.10842075E+00 0.83885212E+03</pdfrwt>
<totfact> 0.15478676E+01</totfact>
</mgrwt>
</event>
<event>
 4    1  0.1521315E-007  0.6781726E+03  0.7818608E-02  0.1010377E+00
         -1   -1    0    0    0  501 -0.00000000000E+00  0.00000000000E+00  0.51267127896E+03  0.51267127899E+03  0.50400000000E-02 0.  1.
          1   -1    0    0  501    0  0.00000000000E+00 -0.00000000000E+00 -0.51841021034E+03  0.51841021036E+03  0.50400000000E-02 0. -1.
    8880023    1    1    2    0    0 -0.81900636030E+02  0.13928425017E+03 -0.22909580710E+03  0.71582324049E+03  0.65864270000E+03 0. -1.
    8880022    1    1    2    0    0  0.81900636030E+02 -0.13928425017E+03  0.22335687573E+03  0.31525824886E+03  0.15294330000E+03 0.  0.
<mgrwt>
<rscale>  0 0.51325150E+03</rscale>
<asrwt>0</asrwt>
<pdfrwt beam="1">  1        1 0.79755417E-01 0.67817256E+03</pdfrwt>
<pdfrwt beam="2">  1       -1 0.78872504E-01 0.67817256E+03</pdfrwt>
<totfact> 0.69511019E+01</totfact>
</mgrwt>
</event>
<event>
 4    1  0.1521315E-007  0.7165626E+03  0.7818608E-02  0.9934393E-01
         -1   -1    0    0    0  501 -0.00000000000E+00  0.00000000000E+00  0.13563420754E+04  0.13563420754E+04  0.50400000000E-02 0.  1.
          1   -1    0    0  501    0  0.00000000000E+00 -0.00000000000E+00 -0.58262367943E+03  0.58262367945E+03  0.50400000000E-02 0. -1.
    8880023    1    1    2    0    0  0.27993739961E+03 -0.35872147539E+02 -0.33044641141E+03  0.78908605091E+03  0.65864270000E+03 0. -1.
    8880022    1    1    2    0    0 -0.27993739961E+03  0.35872147539E+02  0.11041648074E+04  0.11498797040E+04  0.15294330000E+03 0.  0.
<mgrwt>
<rscale>  0 0.58623013E+03</rscale>
<asrwt>0</asrwt>
<pdfrwt beam="1">  1        1 0.89634414E-01 0.71656260E+03</pdfrwt>
<pdfrwt beam="2">  1       -1 0.20866801E+00 0.71656260E+03</pdfrwt>
<totfact> 0.48870344E+00</totfact>
</mgrwt>
</event>
<event>
 4    1  0.1521315E-007  0.8262976E+03  0.7818608E-02  0.9656579E-01
         -1   -1    0    0    0  501 -0.00000000000E+00  0.00000000000E+00  0.41211345751E+03  0.41211345754E+03  0.50400000000E-02 0.  1.
          1   -1    0    0  501    0  0.00000000000E+00 -0.00000000000E+00 -0.13643674717E+04  0.13643674717E+04  0.50400000000E-02 0. -1.
    8880023    1    1    2    0    0 -0.16703995029E+03 -0.47016512584E+03 -0.94398849743E+03  0.12545445708E+04  0.65864270000E+03 0.  0.
    8880022    1    1    2    0    0  0.16703995029E+03  0.47016512584E+03 -0.82655167912E+01  0.52193635850E+03  0.15294330000E+03 0.  0.
<mgrwt>
<rscale>  0 0.73661941E+03</rscale>
<asrwt>0</asrwt>
<pdfrwt beam="1">  1        1 0.20990269E+00 0.82629764E+03</pdfrwt>
<pdfrwt beam="2">  1       -1 0.63402071E-01 0.82629764E+03</pdfrwt>
<totfact> 0.21013664E+01</totfact>
</mgrwt>
</event>
<event>
 4    1  0.1521315E-007  0.8604070E+03  0.7818608E-02  0.9592840E-01
          1   -1    0    0  501    0  0.00000000000E+00  0.00000000000E+00  0.24209553782E+04  0.24209553783E+04  0.50400000000E-02 0. -1.
         -1   -1    0    0    0  501 -0.00000000000E+00 -0.00000000000E+00 -0.28361237543E+03  0.28361237548E+03  0.50400000000E-02 0.  1.
    8880023    1    1    2    0    0 -0.18305488358E+03  0.52247569130E+03  0.18949939902E+04  0.20811781201E+04  0.65864270000E+03 0.  0.
    8880022    1    1    2    0    0  0.18305488358E+03 -0.52247569130E+03  0.24234901264E+03  0.62338963365E+03  0.15294330000E+03 0.  0.
<mgrwt>
<rscale>  0 0.77771898E+03</rscale>
<asrwt>0</asrwt>
<pdfrwt beam="1">  1        1 0.37245466E+00 0.86040696E+03</pdfrwt>
<pdfrwt beam="2">  1       -1 0.43632675E-01 0.86040696E+03</pdfrwt>
<totfact> 0.82564262E+00</totfact>
</mgrwt>
</event>
<event>
 4    1  0.1521315E-007  0.6947264E+03  0.7818608E-02  0.1001982E+00
         -1   -1    0    0    0  501 -0.00000000000E+00  0.00000000000E+00  0.73079202793E+03  0.73079202795E+03  0.50400000000E-02 0.  1.
          1   -1    0    0  501    0  0.00000000000E+00 -0.00000000000E+00 -0.93142674033E+03  0.93142674034E+03  0.50400000000E-02 0. -1.
    8880023    1    1    2    0    0  0.52188008614E+01  0.22092381511E+03 -0.76728311792E+03  0.10350691558E+04  0.65864270000E+03 0. -1.
    8880022    1    1    2    0    0 -0.52188008614E+01 -0.22092381511E+03  0.56664840552E+03  0.62714961250E+03  0.15294330000E+03 0.  0.
<mgrwt>
<rscale>  0 0.54789485E+03</rscale>
<asrwt>0</asrwt>
<pdfrwt beam="1">  1        1 0.14329642E+00 0.69472640E+03</pdfrwt>
<pdfrwt beam="2">  1       -1 0.11242954E+00 0.69472640E+03</pdfrwt>
<totfact> 0.12908420E+01</totfact>
</mgrwt>
</event>
<event>
 4    1  0.1521315E-007  0.9261872E+03  0.7818608E-02  0.9485237E-01
          1   -1    0    0  501    0  0.00000000000E+00  0.00000000000E+00  0.22314850585E+04  0.22314850585E+04  0.50400000000E-02 0. -1.
         -1   -1    0    0    0  501 -0.00000000000E+00 -0.00000000000E+00 -0.44267414561E+03  0.44267414564E+03  0.50400000000E-02 0.  1.
    8880023    1    1    2    0    0 -0.54084198712E+03  0.36263281741E+03  0.19613433218E+03  0.94672672816E+03  0.65864270000E+03 0.  0.
    8880022    1    1    2    0    0  0.54084198712E+03 -0.36263281741E+03  0.15926765807E+04  0.17274324760E+04  0.15294330000E+03 0.  0.
<mgrwt>
<rscale>  0 0.85381074E+03</rscale>
<asrwt>0</asrwt>
<pdfrwt beam="1">  1        1 0.34330539E+00 0.92618725E+03</pdfrwt>
<pdfrwt beam="2">  1       -1 0.68103716E-01 0.92618725E+03</pdfrwt>
<totfact> 0.46385667E+00</totfact>
</mgrwt>
</event>
<event>
 4    1  0.1521315E-007  0.7934603E+03  0.7818608E-02  0.9725119E-01
          1   -1    0    0  501    0  0.00000000000E+00  0.00000000000E+00  0.60234814362E+03  0.60234814365E+03  0.50400000000E-02 0. -1.
         -1   -1    0    0    0  501 -0.00000000000E+00 -0.00000000000E+00 -0.73639602129E+03  0.73639602130E+03  0.50400000000E-02 0.  1.
    8880023    1    1    2    0    0  0.44066199125E+03  0.39825415391E+02  0.12571682690E+03  0.80335794082E+03  0.65864270000E+03 0.  0.
    8880022    1    1    2    0    0 -0.44066199125E+03 -0.39825415391E+02 -0.25976470456E+03  0.53538622413E+03  0.15294330000E+03 0.  0.
<mgrwt>
<rscale>  0 0.69540729E+03</rscale>
<asrwt>0</asrwt>
<pdfrwt beam="1">  1        1 0.92668945E-01 0.79346031E+03</pdfrwt>
<pdfrwt beam="2">  1       -1 0.11329170E+00 0.79346031E+03</pdfrwt>
<totfact> 0.24733469E+01</totfact>
</mgrwt>
</event>
<event>
 4    1  0.1521315E-007  0.8751868E+03  0.7818608E-02  0.9567100E-01
          1   -1    0    0  501    0  0.00000000000E+00  0.00000000000E+00  0.30904929377E+04  0.30904929377E+04  0.50400000000E-02 0. -1.
         -1   -1    0    0    0  501 -0.00000000000E+00 -0.00000000000E+00 -0.39251427596E+03  0.39251427599E+03  0.50400000000E-02 0.  1.
    8880023    1    1    2    0    0  0.50574061627E+03 -0.27634780005E+03  0.27486235352E+04  0.28845941174E+04  0.65864270000E+03 0.  0.
    8880022    1    1    2    0    0 -0.50574061627E+03  0.27634780005E+03 -0.50644873522E+02  0.59841309625E+03  0.15294330000E+03 0.  0.
<mgrwt>
<rscale>  0 0.79512535E+03</rscale>
<asrwt>0</asrwt>
<pdfrwt beam="1">  1        1 0.47546045E+00 0.87518677E+03</pdfrwt>
<pdfrwt beam="2">  1       -1 0.60386812E-01 0.87518677E+03</pdfrwt>
<totfact> 0.15004468E+00</totfact>
</mgrwt>
</event>
<event>
 4    1  0.4245579E-007  0.1030770E+04  0.7818608E-02  0.9342363E-01
          1   -1    0    0  501    0  0.00000000000E+00  0.00000000000E+00  0.40160902515E+04  0.40160902515E+04  0.50400000000E-02 0. -1.
         -1   -1    0    0    0  501 -0.00000000000E+00 -0.00000000000E+00 -0.11768245124E+04  0.11768245124E+04  0.50400000000E-02 0.  1.
    8880023    1    1    2    0    0  0.67119999178E+03 -0.42209929413E+03  0.38003312738E+04  0.39376395518E+04  0.65864270000E+03 0. -1.
    8880022    1    1    2    0    0 -0.67119999178E+03  0.42209929413E+03 -0.96106553475E+03  0.12552752121E+04  0.15294330000E+03 0.  0.
<mgrwt>
<rscale>  0 0.96974626E+03</rscale>
<asrwt>0</asrwt>
<pdfrwt beam="1">  1        1 0.61786004E+00 0.10307703E+04</pdfrwt>
<pdfrwt beam="2">  1       -1 0.18104992E+00 0.10307703E+04</pdfrwt>
<totfact> 0.19904064E-02</totfact>
</mgrwt>
</event>
<event>
 4    1  0.1521315E-007  0.8825416E+03  0.7818608E-02  0.9554660E-01
         -1   -1    0    0    0  501 -0.00000000000E+00  0.00000000000E+00  0.12567322826E+04  0.12567322826E+04  0.50400000000E-02 0.  1.
          1   -1    0    0  501    0  0.00000000000E+00 -0.00000000000E+00 -0.11368935573E+04  0.11368935573E+04  0.50400000000E-02 0. -1.
    8880023    1    1    2    0    0 -0.53263551777E+03 -0.24772729602E+03 -0.86563576829E+03  0.12362058476E+04  0.65864270000E+03 0. -1.
    8880022    1    1    2    0    0  0.53263551777E+03  0.24772729602E+03  0.98547449360E+03  0.11574199923E+04  0.15294330000E+03 0.  0.
<mgrwt>
<rscale>  0 0.80371177E+03</rscale>
<asrwt>0</asrwt>
<pdfrwt beam="1">  1        1 0.17490670E+00 0.88254157E+03</pdfrwt>
<pdfrwt beam="2">  1       -1 0.19334343E+00 0.88254157E+03</pdfrwt>
<totfact> 0.20342536E+00</totfact>
</mgrwt>
</event>
<event>
 4    1  0.1521315E-007  0.8366882E+03  0.7818608E-02  0.9636457E-01
         -1   -1    0    0    0  501 -0.00000000000E+00  0.00000000000E+00  0.10027228968E+04  0.10027228968E+04  0.50400000000E-02 0.  1.
          1   -1    0    0  501    0  0.00000000000E+00 -0.00000000000E+00 -0.53221910245E+03  0.53221910248E+03  0.50400000000E-02 0. -1.
    8880023    1    1    2    0    0  0.51553139885E+03 -0.21548234923E+02  0.26257600954E+02  0.83710012394E+03  0.65864270000E+03 0. -1.
    8880022    1    1    2    0    0 -0.51553139885E+03  0.21548234923E+02  0.44424619340E+03  0.69784187536E+03  0.15294330000E+03 0.  0.
<mgrwt>
<rscale>  0 0.74929514E+03</rscale>
<asrwt>0</asrwt>
<pdfrwt beam="1">  1        1 0.81879862E-01 0.83668821E+03</pdfrwt>
<pdfrwt beam="2">  1       -1 0.15426506E+00 0.83668821E+03</pdfrwt>
<totfact> 0.13380461E+01</totfact>
</mgrwt>
</event>
<event>
 4    1  0.1521315E-007  0.6879722E+03  0.7818608E-02  0.1005132E+00
          1   -1    0    0  501    0  0.00000000000E+00  0.00000000000E+00  0.22992252875E+03  0.22992252881E+03  0.50400000000E-02 0. -1.
         -1   -1    0    0    0  501 -0.00000000000E+00 -0.00000000000E+00 -0.10825087247E+04  0.10825087247E+04  0.50400000000E-02 0.  1.
    8880023    1    1    2    0    0  0.99452381242E+02  0.17206051327E+03 -0.40213720616E+03  0.79688150638E+03  0.65864270000E+03 0. -1.
    8880022    1    1    2    0    0 -0.99452381242E+02 -0.17206051327E+03 -0.45044898976E+03  0.51554974711E+03  0.15294330000E+03 0.  0.
<mgrwt>
<rscale>  0 0.53456253E+03</rscale>
<asrwt>0</asrwt>
<pdfrwt beam="1">  1        1 0.35372697E-01 0.68797224E+03</pdfrwt>
<pdfrwt beam="2">  1       -1 0.16653980E+00 0.68797224E+03</pdfrwt>
<totfact> 0.33275972E+01</totfact>
</mgrwt>
</event>
<event>
 4    1  0.1521315E-007  0.6901353E+03  0.7818608E-02  0.1004088E+00
          1   -1    0    0  501    0  0.00000000000E+00  0.00000000000E+00  0.89556174672E+03  0.89556174673E+03  0.50400000000E-02 0. -1.
         -1   -1    0    0    0  501 -0.00000000000E+00 -0.00000000000E+00 -0.39099348295E+03  0.39099348298E+03  0.50400000000E-02 0.  1.
    8880023    1    1    2    0    0  0.14499410823E+03 -0.14646904969E+03  0.68535576692E+03  0.97262490584E+03  0.65864270000E+03 0. -1.
    8880022    1    1    2    0    0 -0.14499410823E+03  0.14646904969E+03 -0.18078750315E+03  0.31393032387E+03  0.15294330000E+03 0.  0.
<mgrwt>
<rscale>  0 0.53893337E+03</rscale>
<asrwt>0</asrwt>
<pdfrwt beam="1">  1        1 0.13777873E+00 0.69013526E+03</pdfrwt>
<pdfrwt beam="2">  1       -1 0.60152844E-01 0.69013526E+03</pdfrwt>
<totfact> 0.52921665E+01</totfact>
</mgrwt>
</event>
<event>
 4    1  0.1521315E-007  0.6716189E+03  0.7818608E-02  0.1014528E+00
          1   -1    0    0  501    0  0.00000000000E+00  0.00000000000E+00  0.14827598236E+04  0.14827598236E+04  0.50400000000E-02 0. -1.
         -1   -1    0    0    0  501 -0.00000000000E+00 -0.00000000000E+00 -0.18800812375E+03  0.18800812382E+03  0.50400000000E-02 0.  1.
    8880023    1    1    2    0    0 -0.12723168058E+03  0.32768904373E+02  0.13062688385E+04  0.14688125090E+04  0.65864270000E+03 0. -1.
    8880022    1    1    2    0    0  0.12723168058E+03 -0.32768904373E+02 -0.11517138690E+02  0.20195543849E+03  0.15294330000E+03 0.  0.
<mgrwt>
<rscale>  0 0.49714058E+03</rscale>
<asrwt>0</asrwt>
<pdfrwt beam="1">  1        1 0.22811688E+00 0.67161887E+03</pdfrwt>
<pdfrwt beam="2">  1       -1 0.28924329E-01 0.67161887E+03</pdfrwt>
<totfact> 0.75558239E+01</totfact>
</mgrwt>
</event>
<event>
 4    1  0.1521315E-007  0.6896613E+03  0.7818608E-02  0.1004314E+00
          1   -1    0    0  501    0  0.00000000000E+00  0.00000000000E+00  0.16109031174E+04  0.16109031174E+04  0.50400000000E-02 0. -1.
         -1   -1    0    0    0  501 -0.00000000000E+00 -0.00000000000E+00 -0.60316778430E+03  0.60316778432E+03  0.50400000000E-02 0.  1.
    8880023    1    1    2    0    0  0.41860366153E+02 -0.20017556496E+03  0.15047625430E+04  0.16552773375E+04  0.65864270000E+03 0. -1.
    8880022    1    1    2    0    0 -0.41860366153E+02  0.20017556496E+03 -0.49702720986E+03  0.55879356423E+03  0.15294330000E+03 0.  0.
<mgrwt>
<rscale>  0 0.53798440E+03</rscale>
<asrwt>0</asrwt>
<pdfrwt beam="1">  1        1 0.24783125E+00 0.68966133E+03</pdfrwt>
<pdfrwt beam="2">  1       -1 0.92795045E-01 0.68966133E+03</pdfrwt>
<totfact> 0.65180502E+00</totfact>
</mgrwt>
</event>
<event>
 4    1  0.1521315E-007  0.6921476E+03  0.7818608E-02  0.1003148E+00
         -1   -1    0    0    0  501 -0.00000000000E+00  0.00000000000E+00  0.21991662076E+03  0.21991662081E+03  0.50400000000E-02 0.  1.
          1   -1    0    0  501    0  0.00000000000E+00 -0.00000000000E+00 -0.14280947473E+04  0.14280947473E+04  0.50400000000E-02 0. -1.
    8880023    1    1    2    0    0  0.16599629228E+03  0.13305358265E+03 -0.12006797628E+04  0.13858932585E+04  0.65864270000E+03 0.  1.
    8880022    1    1    2    0    0 -0.16599629228E+03 -0.13305358265E+03 -0.74983637183E+01  0.26211810960E+03  0.15294330000E+03 0.  0.
<mgrwt>
<rscale>  0 0.54291123E+03</rscale>
<asrwt>0</asrwt>
<pdfrwt beam="1">  1        1 0.21970688E+00 0.69214755E+03</pdfrwt>
<pdfrwt beam="2">  1       -1 0.33833327E-01 0.69214755E+03</pdfrwt>
<totfact> 0.62469469E+01</totfact>
</mgrwt>
</event>
<event>
 4    1  0.1521315E-007  0.7016253E+03  0.7818608E-02  0.9990524E-01
         -1   -1    0    0    0  501 -0.00000000000E+00  0.00000000000E+00  0.47362328111E+03  0.47362328114E+03  0.50400000000E-02 0.  1.
          1   -1    0    0  501    0  0.00000000000E+00 -0.00000000000E+00 -0.14624091358E+04  0.14624091358E+04  0.50400000000E-02 0. -1.
    8880023    1    1    2    0    0 -0.14846097874E+03 -0.19085919920E+03 -0.13221146715E+04  0.14967515850E+04  0.65864270000E+03 0.  0.
    8880022    1    1    2    0    0  0.14846097874E+03  0.19085919920E+03  0.33332881689E+03  0.43928083194E+03  0.15294330000E+03 0.  0.
<mgrwt>
<rscale>  0 0.56067683E+03</rscale>
<asrwt>0</asrwt>
<pdfrwt beam="1">  1        1 0.22498602E+00 0.70162533E+03</pdfrwt>
<pdfrwt beam="2">  1       -1 0.72865121E-01 0.70162533E+03</pdfrwt>
<totfact> 0.13768633E+01</totfact>
</mgrwt>
</event>
<event>
 4    1  0.1521315E-007  0.8079781E+03  0.7818608E-02  0.9693804E-01
         -1   -1    0    0    0  501 -0.00000000000E+00  0.00000000000E+00  0.30294558929E+03  0.30294558933E+03  0.50400000000E-02 0.  1.
          1   -1    0    0  501    0  0.00000000000E+00 -0.00000000000E+00 -0.18373059735E+04  0.18373059736E+04  0.50400000000E-02 0. -1.
    8880023    1    1    2    0    0  0.35286252857E+02  0.46666187760E+03 -0.14215757496E+04  0.16351471633E+04  0.65864270000E+03 0. -1.
    8880022    1    1    2    0    0 -0.35286252857E+02 -0.46666187760E+03 -0.11278463471E+03  0.50510439959E+03  0.15294330000E+03 0. -1.
<mgrwt>
<rscale>  0 0.71386902E+03</rscale>
<asrwt>0</asrwt>
<pdfrwt beam="1">  1        1 0.28266245E+00 0.80797811E+03</pdfrwt>
<pdfrwt beam="2">  1       -1 0.46607015E-01 0.80797811E+03</pdfrwt>
<totfact> 0.18174261E+01</totfact>
</mgrwt>
</event>
<event>
 4    1  0.1521315E-007  0.7202496E+03  0.7818608E-02  0.9921742E-01
          1   -1    0    0  501    0  0.00000000000E+00  0.00000000000E+00  0.17654945471E+04  0.17654945471E+04  0.50400000000E-02 0. -1.
         -1   -1    0    0    0  501 -0.00000000000E+00 -0.00000000000E+00 -0.47378927913E+03  0.47378927916E+03  0.50400000000E-02 0.  1.
    8880023    1    1    2    0    0  0.16085305394E+03  0.24305472537E+03  0.16209273010E+04  0.17737431680E+04  0.65864270000E+03 0.  0.
    8880022    1    1    2    0    0 -0.16085305394E+03 -0.24305472537E+03 -0.32922203304E+03  0.46554065831E+03  0.15294330000E+03 0.  1.
<mgrwt>
<rscale>  0 0.59219040E+03</rscale>
<asrwt>0</asrwt>
<pdfrwt beam="1">  1        1 0.27161454E+00 0.72024962E+03</pdfrwt>
<pdfrwt beam="2">  1       -1 0.72890659E-01 0.72024962E+03</pdfrwt>
<totfact> 0.85533176E+00</totfact>
</mgrwt>
</event>
<event>
 4    1  0.1521315E-007  0.6775025E+03  0.7818608E-02  0.1010773E+00
         -1   -1    0    0    0  501 -0.00000000000E+00  0.00000000000E+00  0.26367497141E+03  0.26367497146E+03  0.50400000000E-02 0.  1.
          1   -1    0    0  501    0  0.00000000000E+00 -0.00000000000E+00 -0.99934069886E+03  0.99934069887E+03  0.50400000000E-02 0. -1.
    8880023    1    1    2    0    0 -0.11744043325E+03 -0.10680448078E+03 -0.78519813483E+03  0.10370852278E+04  0.65864270000E+03 0. -1.
    8880022    1    1    2    0    0  0.11744043325E+03  0.10680448078E+03  0.49532407381E+02  0.22593044255E+03  0.15294330000E+03 0.  0.
<mgrwt>
<rscale>  0 0.51168511E+03</rscale>
<asrwt>0</asrwt>
<pdfrwt beam="1">  1        1 0.15374472E+00 0.67750252E+03</pdfrwt>
<pdfrwt beam="2">  1       -1 0.40565381E-01 0.67750252E+03</pdfrwt>
<totfact> 0.92286985E+01</totfact>
</mgrwt>
</event>
<event>
 4    1  0.1521315E-007  0.6752592E+03  0.7818608E-02  0.1012143E+00
         -1   -1    0    0    0  501 -0.00000000000E+00  0.00000000000E+00  0.22302352101E+03  0.22302352107E+03  0.50400000000E-02 0.  1.
          1   -1    0    0  501    0  0.00000000000E+00 -0.00000000000E+00 -0.94410784819E+03  0.94410784821E+03  0.50400000000E-02 0. -1.
    8880023    1    1    2    0    0 -0.14874137605E+03 -0.63841929603E+01 -0.66207718516E+03  0.94568555040E+03  0.65864270000E+03 0. -1.
    8880022    1    1    2    0    0  0.14874137605E+03  0.63841929603E+01 -0.59007142025E+02  0.22144581887E+03  0.15294330000E+03 0. -1.
<mgrwt>
<rscale>  0 0.50631589E+03</rscale>
<asrwt>0</asrwt>
<pdfrwt beam="1">  1        1 0.14524736E+00 0.67525918E+03</pdfrwt>
<pdfrwt beam="2">  1       -1 0.34311311E-01 0.67525918E+03</pdfrwt>
<totfact> 0.13772635E+02</totfact>
</mgrwt>
</event>
<event>
 4    1  0.1521315E-007  0.6767875E+03  0.7818608E-02  0.1011202E+00
         -1   -1    0    0    0  501 -0.00000000000E+00  0.00000000000E+00  0.46636868232E+03  0.46636868235E+03  0.50400000000E-02 0.  1.
          1   -1    0    0  501    0  0.00000000000E+00 -0.00000000000E+00 -0.11484796249E+04  0.11484796249E+04  0.50400000000E-02 0. -1.
    8880023    1    1    2    0    0  0.15561954212E+03  0.37001261958E+01 -0.10131170858E+04  0.12183790743E+04  0.65864270000E+03 0. -1.
    8880022    1    1    2    0    0 -0.15561954212E+03 -0.37001261958E+01  0.33100614323E+03  0.39646923297E+03  0.15294330000E+03 0.  0.
<mgrwt>
<rscale>  0 0.50999522E+03</rscale>
<asrwt>0</asrwt>
<pdfrwt beam="1">  1        1 0.17668917E+00 0.67678751E+03</pdfrwt>
<pdfrwt beam="2">  1       -1 0.71749028E-01 0.67678751E+03</pdfrwt>
<totfact> 0.23767244E+01</totfact>
</mgrwt>
</event>
<event>
 4    1  0.1521315E-007  0.6779260E+03  0.7818608E-02  0.1010522E+00
          1   -1    0    0  501    0  0.00000000000E+00  0.00000000000E+00  0.13254584067E+04  0.13254584067E+04  0.50400000000E-02 0. -1.
         -1   -1    0    0    0  501 -0.00000000000E+00 -0.00000000000E+00 -0.56568270838E+03  0.56568270840E+03  0.50400000000E-02 0.  1.
    8880023    1    1    2    0    0  0.88682313729E+02  0.13382401098E+03  0.12113042559E+04  0.13881072096E+04  0.65864270000E+03 0. -1.
    8880022    1    1    2    0    0 -0.88682313729E+02 -0.13382401098E+03 -0.45152855763E+03  0.50303390547E+03  0.15294330000E+03 0.  0.
<mgrwt>
<rscale>  0 0.51267695E+03</rscale>
<asrwt>0</asrwt>
<pdfrwt beam="1">  1        1 0.20391668E+00 0.67792597E+03</pdfrwt>
<pdfrwt beam="2">  1       -1 0.87028109E-01 0.67792597E+03</pdfrwt>
<totfact> 0.11807237E+01</totfact>
</mgrwt>
</event>
<event>
 4    1  0.1622856E-007  0.1685419E+04  0.7818608E-02  0.8788715E-01
          1   -1    0    0  501    0  0.00000000000E+00  0.00000000000E+00  0.38009910102E+04  0.38009910102E+04  0.50400000000E-02 0. -1.
         -1   -1    0    0    0  501 -0.00000000000E+00 -0.00000000000E+00 -0.21131069363E+04  0.21131069363E+04  0.50400000000E-02 0.  1.
    8880023    1    1    2    0    0 -0.10245528760E+04 -0.11649540336E+04  0.32788597568E+04  0.36866730269E+04  0.65864270000E+03 0.  0.
    8880022    1    1    2    0    0  0.10245528760E+04  0.11649540336E+04 -0.15909756829E+04  0.22274249196E+04  0.15294330000E+03 0.  0.
<mgrwt>
<rscale>  0 0.16528618E+04</rscale>
<asrwt>0</asrwt>
<pdfrwt beam="1">  1        1 0.58476785E+00 0.16854189E+04</pdfrwt>
<pdfrwt beam="2">  1       -1 0.32509338E+00 0.16854189E+04</pdfrwt>
<totfact> 0.29819933E-03</totfact>
</mgrwt>
</event>
<event>
 4    1  0.1521315E-007  0.1161982E+04  0.7818608E-02  0.9194995E-01
          1   -1    0    0  501    0  0.00000000000E+00  0.00000000000E+00  0.10914508116E+04  0.10914508116E+04  0.50400000000E-02 0. -1.
         -1   -1    0    0    0  501 -0.00000000000E+00 -0.00000000000E+00 -0.15764116694E+04  0.15764116694E+04  0.50400000000E-02 0.  1.
    8880023    1    1    2    0    0 -0.33856926949E+03 -0.89541195950E+03  0.51867552458E+03  0.12724882057E+04  0.65864270000E+03 0.  0.
    8880022    1    1    2    0    0  0.33856926949E+03  0.89541195950E+03 -0.10036363824E+04  0.13953742754E+04  0.15294330000E+03 0.  0.
<mgrwt>
<rscale>  0 0.11105241E+04</rscale>
<asrwt>0</asrwt>
<pdfrwt beam="1">  1        1 0.16791551E+00 0.11619819E+04</pdfrwt>
<pdfrwt beam="2">  1       -1 0.24252487E+00 0.11619819E+04</pdfrwt>
<totfact> 0.99019802E-01</totfact>
</mgrwt>
</event>
<event>
 4    1  0.1521315E-007  0.9691447E+03  0.7818608E-02  0.9423088E-01
         -1   -1    0    0    0  501 -0.00000000000E+00  0.00000000000E+00  0.66333657102E+03  0.66333657104E+03  0.50400000000E-02 0.  1.
          1   -1    0    0  501    0  0.00000000000E+00 -0.00000000000E+00 -0.20740396315E+04  0.20740396315E+04  0.50400000000E-02 0. -1.
    8880023    1    1    2    0    0  0.29560556013E+02  0.71032198896E+03 -0.16983009969E+04  0.19553689260E+04  0.65864270000E+03 0. -1.
    8880022    1    1    2    0    0 -0.29560556013E+02 -0.71032198896E+03  0.28759793644E+03  0.78200727652E+03  0.15294330000E+03 0.  0.
<mgrwt>
<rscale>  0 0.90199728E+03</rscale>
<asrwt>0</asrwt>
<pdfrwt beam="1">  1        1 0.31908302E+00 0.96914465E+03</pdfrwt>
<pdfrwt beam="2">  1       -1 0.10205178E+00 0.96914465E+03</pdfrwt>
<totfact> 0.24543297E+00</totfact>
</mgrwt>
</event>
<event>
 4    1  0.1521315E-007  0.7184595E+03  0.7818608E-02  0.9927833E-01
         -1   -1    0    0    0  501 -0.00000000000E+00  0.00000000000E+00  0.11390756860E+04  0.11390756860E+04  0.50400000000E-02 0.  1.
          1   -1    0    0  501    0  0.00000000000E+00 -0.00000000000E+00 -0.10420334089E+04  0.10420334089E+04  0.50400000000E-02 0. -1.
    8880023    1    1    2    0    0  0.20384975061E+03  0.20203745992E+03 -0.88888142365E+03  0.11429323023E+04  0.65864270000E+03 0.  0.
    8880022    1    1    2    0    0 -0.20384975061E+03 -0.20203745992E+03  0.98592370078E+03  0.10381767927E+04  0.15294330000E+03 0.  0.
<mgrwt>
<rscale>  0 0.58931125E+03</rscale>
<asrwt>0</asrwt>
<pdfrwt beam="1">  1        1 0.16031283E+00 0.71845951E+03</pdfrwt>
<pdfrwt beam="2">  1       -1 0.17524241E+00 0.71845951E+03</pdfrwt>
<totfact> 0.33055686E+00</totfact>
</mgrwt>
</event>
<event>
 4    1  0.1521315E-007  0.8453745E+03  0.7818608E-02  0.9620128E-01
         -1   -1    0    0    0  501 -0.00000000000E+00  0.00000000000E+00  0.87426384759E+03  0.87426384761E+03  0.50400000000E-02 0.  1.
          1   -1    0    0  501    0  0.00000000000E+00 -0.00000000000E+00 -0.20085851983E+04  0.20085851983E+04  0.50400000000E-02 0. -1.
    8880023    1    1    2    0    0 -0.29967960820E+03  0.43708110215E+03 -0.18176855614E+04  0.20046542754E+04  0.65864270000E+03 0.  0.
    8880022    1    1    2    0    0  0.29967960820E+03 -0.43708110215E+03  0.68336421072E+03  0.87819477050E+03  0.15294330000E+03 0.  0.
<mgrwt>
<rscale>  0 0.75978160E+03</rscale>
<asrwt>0</asrwt>
<pdfrwt beam="1">  1        1 0.30901311E+00 0.84537445E+03</pdfrwt>
<pdfrwt beam="2">  1       -1 0.13450213E+00 0.84537445E+03</pdfrwt>
<totfact> 0.14181760E+00</totfact>
</mgrwt>
</event>
<event>
 4    1  0.1521315E-007  0.6957704E+03  0.7818608E-02  0.1001522E+00
          1   -1    0    0  501    0  0.00000000000E+00  0.00000000000E+00  0.91350139734E+03  0.91350139735E+03  0.50400000000E-02 0. -1.
         -1   -1    0    0    0  501 -0.00000000000E+00 -0.00000000000E+00 -0.53691657389E+03  0.53691657392E+03  0.50400000000E-02 0.  1.
    8880023    1    1    2    0    0  0.20378727278E+03 -0.93578768840E+02  0.72757959898E+03  0.10067117351E+04  0.65864270000E+03 0.  0.
    8880022    1    1    2    0    0 -0.20378727278E+03  0.93578768840E+02 -0.35099477554E+03  0.44370623614E+03  0.15294330000E+03 0.  1.
<mgrwt>
<rscale>  0 0.54987833E+03</rscale>
<asrwt>0</asrwt>
<pdfrwt beam="1">  1        1 0.14053868E+00 0.69577040E+03</pdfrwt>
<pdfrwt beam="2">  1       -1 0.82602550E-01 0.69577040E+03</pdfrwt>
<totfact> 0.26701240E+01</totfact>
</mgrwt>
</event>
<event>
 4    1  0.1521315E-007  0.6975092E+03  0.7818608E-02  0.1000769E+00
          1   -1    0    0  501    0  0.00000000000E+00  0.00000000000E+00  0.25349978858E+04  0.25349978858E+04  0.50400000000E-02 0. -1.
         -1   -1    0    0    0  501 -0.00000000000E+00 -0.00000000000E+00 -0.44189647470E+03  0.44189647473E+03  0.50400000000E-02 0.  1.
    8880023    1    1    2    0    0 -0.22684265858E+03 -0.35373648629E+02  0.24376712979E+04  0.25355000394E+04  0.65864270000E+03 0. -1.
    8880022    1    1    2    0    0  0.22684265858E+03  0.35373648629E+02 -0.34456988685E+03  0.44139432111E+03  0.15294330000E+03 0.  0.
<mgrwt>
<rscale>  0 0.55314110E+03</rscale>
<asrwt>0</asrwt>
<pdfrwt beam="1">  1        1 0.38999968E+00 0.69750921E+03</pdfrwt>
<pdfrwt beam="2">  1       -1 0.67984073E-01 0.69750921E+03</pdfrwt>
<totfact> 0.30132766E+00</totfact>
</mgrwt>
</event>
<event>
 4    1  0.1521315E-007  0.8357057E+03  0.7818608E-02  0.9638331E-01
          1   -1    0    0  501    0  0.00000000000E+00  0.00000000000E+00  0.99130916065E+03  0.99130916066E+03  0.50400000000E-02 0. -1.
         -1   -1    0    0    0  501 -0.00000000000E+00 -0.00000000000E+00 -0.67583648522E+03  0.67583648524E+03  0.50400000000E-02 0.  1.
    8880023    1    1    2    0    0 -0.28444105772E+03  0.42858732407E+03  0.62869372230E+03  0.10457819144E+04  0.65864270000E+03 0.  0.
    8880022    1    1    2    0    0  0.28444105772E+03 -0.42858732407E+03 -0.31322104686E+03  0.62136373155E+03  0.15294330000E+03 0.  0.
<mgrwt>
<rscale>  0 0.74810291E+03</rscale>
<asrwt>0</asrwt>
<pdfrwt beam="1">  1        1 0.15250910E+00 0.83570570E+03</pdfrwt>
<pdfrwt beam="2">  1       -1 0.10397484E+00 0.83570570E+03</pdfrwt>
<totfact> 0.13657733E+01</totfact>
</mgrwt>
</event>
<event>
 4    1  0.1521315E-007  0.7143766E+03  0.7818608E-02  0.9942094E-01
         -1   -1    0    0    0  501 -0.00000000000E+00  0.00000000000E+00  0.10251908464E+04  0.10251908464E+04  0.50400000000E-02 0.  1.
          1   -1    0    0  501    0  0.00000000000E+00 -0.00000000000E+00 -0.27392830553E+03  0.27392830557E+03  0.50400000000E-02 0. -1.
    8880023    1    1    2    0    0 -0.16868870800E+03 -0.21924367701E+03  0.37208816520E+03  0.80547096724E+03  0.65864270000E+03 0.  0.
    8880022    1    1    2    0    0  0.16868870800E+03  0.21924367701E+03  0.37917437563E+03  0.49364818471E+03  0.15294330000E+03 0.  0.
<mgrwt>
<rscale>  0 0.58263881E+03</rscale>
<asrwt>0</asrwt>
<pdfrwt beam="1">  1        1 0.42142816E-01 0.71437656E+03</pdfrwt>
<pdfrwt beam="2">  1       -1 0.15772167E+00 0.71437656E+03</pdfrwt>
<totfact> 0.30808186E+01</totfact>
</mgrwt>
</event>
<event>
 4    1  0.1521315E-007  0.8185350E+03  0.7818608E-02  0.9672066E-01
         -1   -1    0    0    0  501 -0.00000000000E+00  0.00000000000E+00  0.13207815461E+04  0.13207815461E+04  0.50400000000E-02 0.  1.
          1   -1    0    0  501    0  0.00000000000E+00 -0.00000000000E+00 -0.37348805604E+03  0.37348805607E+03  0.50400000000E-02 0. -1.
    8880023    1    1    2    0    0  0.21250851635E+03  0.43706912149E+03  0.30287431595E+03  0.87277279060E+03  0.65864270000E+03 0. -1.
    8880022    1    1    2    0    0 -0.21250851635E+03 -0.43706912149E+03  0.64441917410E+03  0.82149681158E+03  0.15294330000E+03 0.  1.
<mgrwt>
<rscale>  0 0.72704623E+03</rscale>
<asrwt>0</asrwt>
<pdfrwt beam="1">  1        1 0.57459701E-01 0.81853497E+03</pdfrwt>
<pdfrwt beam="2">  1       -1 0.20319716E+00 0.81853497E+03</pdfrwt>
<totfact> 0.96242574E+00</totfact>
</mgrwt>
</event>
<event>
 4    1  0.1521315E-007  0.7965883E+03  0.7818608E-02  0.9718222E-01
         -1   -1    0    0    0  501 -0.00000000000E+00  0.00000000000E+00  0.50279781162E+03  0.50279781164E+03  0.50400000000E-02 0.  1.
          1   -1    0    0  501    0  0.00000000000E+00 -0.00000000000E+00 -0.25326175359E+04  0.25326175359E+04  0.50400000000E-02 0. -1.
    8880023    1    1    2    0    0 -0.22489367906E+03  0.38751191402E+03 -0.23383608737E+04  0.24703207145E+04  0.65864270000E+03 0.  0.
    8880022    1    1    2    0    0  0.22489367906E+03 -0.38751191402E+03  0.30854114945E+03  0.56509463305E+03  0.15294330000E+03 0.  0.
<mgrwt>
<rscale>  0 0.69942148E+03</rscale>
<asrwt>0</asrwt>
<pdfrwt beam="1">  1        1 0.38963346E+00 0.79658826E+03</pdfrwt>
<pdfrwt beam="2">  1       -1 0.77353511E-01 0.79658826E+03</pdfrwt>
<totfact> 0.22715452E+00</totfact>
</mgrwt>
</event>
<event>
 4    1  0.1521315E-007  0.7619627E+03  0.7818608E-02  0.9800052E-01
          1   -1    0    0  501    0  0.00000000000E+00  0.00000000000E+00  0.34924173997E+03  0.34924174000E+03  0.50400000000E-02 0. -1.
         -1   -1    0    0    0  501 -0.00000000000E+00 -0.00000000000E+00 -0.10898845121E+04  0.10898845121E+04  0.50400000000E-02 0.  1.
    8880023    1    1    2    0    0 -0.10525688812E+02 -0.38297022366E+03 -0.25855215425E+03  0.80463433003E+03  0.65864270000E+03 0. -1.
    8880022    1    1    2    0    0  0.10525688812E+02  0.38297022366E+03 -0.48209061791E+03  0.63449192211E+03  0.15294330000E+03 0.  1.
<mgrwt>
<rscale>  0 0.65359727E+03</rscale>
<asrwt>0</asrwt>
<pdfrwt beam="1">  1        1 0.53729499E-01 0.76196272E+03</pdfrwt>
<pdfrwt beam="2">  1       -1 0.16767454E+00 0.76196272E+03</pdfrwt>
<totfact> 0.18845104E+01</totfact>
</mgrwt>
</event>
<event>
 4    1  0.1521315E-007  0.7290349E+03  0.7818608E-02  0.9893122E-01
         -1   -1    0    0    0  501 -0.00000000000E+00  0.00000000000E+00  0.16503020902E+04  0.16503020902E+04  0.50400000000E-02 0.  1.
          1   -1    0    0  501    0  0.00000000000E+00 -0.00000000000E+00 -0.45755675049E+03  0.45755675052E+03  0.50400000000E-02 0. -1.
    8880023    1    1    2    0    0  0.16253295269E+03  0.26695439973E+03 -0.12963081907E+03  0.74047009917E+03  0.65864270000E+03 0. -1.
    8880022    1    1    2    0    0 -0.16253295269E+03 -0.26695439973E+03  0.13223761588E+04  0.13673887416E+04  0.15294330000E+03 0.  0.
<mgrwt>
<rscale>  0 0.60595762E+03</rscale>
<asrwt>0</asrwt>
<pdfrwt beam="1">  1        1 0.70393345E-01 0.72903485E+03</pdfrwt>
<pdfrwt beam="2">  1       -1 0.25389264E+00 0.72903485E+03</pdfrwt>
<totfact> 0.34429740E+00</totfact>
</mgrwt>
</event>
<event>
 4    1  0.1521315E-007  0.8579986E+03  0.7818608E-02  0.9597133E-01
          1   -1    0    0  501    0  0.00000000000E+00  0.00000000000E+00  0.20669674558E+04  0.20669674558E+04  0.50400000000E-02 0. -1.
         -1   -1    0    0    0  501 -0.00000000000E+00 -0.00000000000E+00 -0.25689417744E+03  0.25689417749E+03  0.50400000000E-02 0.  1.
    8880023    1    1    2    0    0  0.54206142385E+03  0.92308308968E+02  0.13046648407E+04  0.15615095146E+04  0.65864270000E+03 0. -1.
    8880022    1    1    2    0    0 -0.54206142385E+03 -0.92308308968E+02  0.50540843765E+03  0.76235211877E+03  0.15294330000E+03 0.  0.
<mgrwt>
<rscale>  0 0.77486195E+03</rscale>
<asrwt>0</asrwt>
<pdfrwt beam="1">  1        1 0.31799498E+00 0.85799861E+03</pdfrwt>
<pdfrwt beam="2">  1       -1 0.39522183E-01 0.85799861E+03</pdfrwt>
<totfact> 0.17173602E+01</totfact>
</mgrwt>
</event>
<event>
 4    1  0.1521315E-007  0.1326293E+04  0.7818608E-02  0.9043181E-01
          1   -1    0    0  501    0  0.00000000000E+00  0.00000000000E+00  0.18791993411E+04  0.18791993411E+04  0.50400000000E-02 0. -1.
         -1   -1    0    0    0  501 -0.00000000000E+00 -0.00000000000E+00 -0.11262360581E+04  0.11262360581E+04  0.50400000000E-02 0.  1.
    8880023    1    1    2    0    0  0.10677701566E+04 -0.43024236542E+03  0.11729130669E+04  0.17705301096E+04  0.65864270000E+03 0.  0.
    8880022    1    1    2    0    0 -0.10677701566E+04  0.43024236542E+03 -0.41994978392E+03  0.12349052896E+04  0.15294330000E+03 0.  0.
<mgrwt>
<rscale>  0 0.12829692E+04</rscale>
<asrwt>0</asrwt>
<pdfrwt beam="1">  1        1 0.28910759E+00 0.13262925E+04</pdfrwt>
<pdfrwt beam="2">  1       -1 0.17326709E+00 0.13262925E+04</pdfrwt>
<totfact> 0.80975748E-01</totfact>
</mgrwt>
</event>
<event>
 4    1  0.1521315E-007  0.1256841E+04  0.7818608E-02  0.9103757E-01
          1   -1    0    0  501    0  0.00000000000E+00  0.00000000000E+00  0.20934874699E+04  0.20934874699E+04  0.50400000000E-02 0. -1.
         -1   -1    0    0    0  501 -0.00000000000E+00 -0.00000000000E+00 -0.85712724410E+03  0.85712724412E+03  0.50400000000E-02 0.  1.
    8880023    1    1    2    0    0  0.10537963736E+04  0.18801997021E+03 -0.65149354416E+02  0.12585280890E+04  0.65864270000E+03 0.  0.
    8880022    1    1    2    0    0 -0.10537963736E+04 -0.18801997021E+03  0.13015095802E+04  0.16920866250E+04  0.15294330000E+03 0.  0.
<mgrwt>
<rscale>  0 0.12104523E+04</rscale>
<asrwt>0</asrwt>
<pdfrwt beam="1">  1        1 0.32207499E+00 0.12568407E+04</pdfrwt>
<pdfrwt beam="2">  1       -1 0.13186573E+00 0.12568407E+04</pdfrwt>
<totfact> 0.12310067E+00</totfact>
</mgrwt>
</event>
<event>
 4    1  0.1521315E-007  0.8778467E+03  0.7818608E-02  0.9562574E-01
          1   -1    0    0  501    0  0.00000000000E+00  0.00000000000E+00  0.14248461079E+04  0.14248461079E+04  0.50400000000E-02 0. -1.
         -1   -1    0    0    0  501 -0.00000000000E+00 -0.00000000000E+00 -0.16291492762E+04  0.16291492762E+04  0.50400000000E-02 0.  1.
    8880023    1    1    2    0    0 -0.50697037040E+03  0.28246351644E+03  0.12231190066E+04  0.15055347572E+04  0.65864270000E+03 0.  0.
    8880022    1    1    2    0    0  0.50697037040E+03 -0.28246351644E+03 -0.14274221749E+04  0.15484606269E+04  0.15294330000E+03 0.  1.
<mgrwt>
<rscale>  0 0.79823617E+03</rscale>
<asrwt>0</asrwt>
<pdfrwt beam="1">  1        1 0.21920709E+00 0.87784668E+03</pdfrwt>
<pdfrwt beam="2">  1       -1 0.25063835E+00 0.87784668E+03</pdfrwt>
<totfact> 0.52622441E-01</totfact>
</mgrwt>
</event>
<event>
 4    1  0.1521315E-007  0.8405643E+03  0.7818608E-02  0.9629117E-01
          1   -1    0    0  501    0  0.00000000000E+00  0.00000000000E+00  0.13695155496E+04  0.13695155496E+04  0.50400000000E-02 0. -1.
         -1   -1    0    0    0  501 -0.00000000000E+00 -0.00000000000E+00 -0.47072314707E+03  0.47072314710E+03  0.50400000000E-02 0.  1.
    8880023    1    1    2    0    0  0.21778311280E+03  0.47466687711E+03  0.97881946263E+03  0.12902076868E+04  0.65864270000E+03 0. -1.
    8880022    1    1    2    0    0 -0.21778311280E+03 -0.47466687711E+03 -0.80027060117E+02  0.55003100987E+03  0.15294330000E+03 0.  0.
<mgrwt>
<rscale>  0 0.75398632E+03</rscale>
<asrwt>0</asrwt>
<pdfrwt beam="1">  1        1 0.21069470E+00 0.84056430E+03</pdfrwt>
<pdfrwt beam="2">  1       -1 0.72418946E-01 0.84056430E+03</pdfrwt>
<totfact> 0.15874738E+01</totfact>
</mgrwt>
</event>
<event>
 4    1  0.1521315E-007  0.7222781E+03  0.7818608E-02  0.9914952E-01
         -1   -1    0    0    0  501 -0.00000000000E+00  0.00000000000E+00  0.70752541370E+03  0.70752541371E+03  0.50400000000E-02 0.  1.
          1   -1    0    0  501    0  0.00000000000E+00 -0.00000000000E+00 -0.63148044250E+03  0.63148044252E+03  0.50400000000E-02 0. -1.
    8880023    1    1    2    0    0 -0.29642467965E+03 -0.28115846204E+01 -0.34614900164E+03  0.80093996861E+03  0.65864270000E+03 0. -1.
    8880022    1    1    2    0    0  0.29642467965E+03  0.28115846204E+01  0.42219397284E+03  0.53806588763E+03  0.15294330000E+03 0.  0.
<mgrwt>
<rscale>  0 0.59542110E+03</rscale>
<asrwt>0</asrwt>
<pdfrwt beam="1">  1        1 0.97150837E-01 0.72227813E+03</pdfrwt>
<pdfrwt beam="2">  1       -1 0.10885006E+00 0.72227813E+03</pdfrwt>
<totfact> 0.25573511E+01</totfact>
</mgrwt>
</event>
<event>
 4    1  0.1521315E-007  0.6986006E+03  0.7818608E-02  0.1000306E+00
         -1   -1    0    0    0  501 -0.00000000000E+00  0.00000000000E+00  0.24807019869E+03  0.24807019874E+03  0.50400000000E-02 0.  1.
          1   -1    0    0  501    0  0.00000000000E+00 -0.00000000000E+00 -0.99093657214E+03  0.99093657215E+03  0.50400000000E-02 0. -1.
    8880023    1    1    2    0    0  0.12161170165E+03 -0.19860322783E+03 -0.62174749282E+03  0.93520735625E+03  0.65864270000E+03 0.  0.
    8880022    1    1    2    0    0 -0.12161170165E+03  0.19860322783E+03 -0.12111888063E+03  0.30379941465E+03  0.15294330000E+03 0. -1.
<mgrwt>
<rscale>  0 0.55516419E+03</rscale>
<asrwt>0</asrwt>
<pdfrwt beam="1">  1        1 0.15245178E+00 0.69860064E+03</pdfrwt>
<pdfrwt beam="2">  1       -1 0.38164646E-01 0.69860064E+03</pdfrwt>
<totfact> 0.10443087E+02</totfact>
</mgrwt>
</event>
<event>
 4    1  0.1521315E-007  0.7830711E+03  0.7818608E-02  0.9748672E-01
          1   -1    0    0  501    0  0.00000000000E+00  0.00000000000E+00  0.19400037095E+04  0.19400037095E+04  0.50400000000E-02 0. -1.
         -1   -1    0    0    0  501 -0.00000000000E+00 -0.00000000000E+00 -0.38478865938E+03  0.38478865941E+03  0.50400000000E-02 0.  1.
    8880023    1    1    2    0    0  0.31786848032E+03  0.27991035884E+03  0.16833752355E+04  0.18565970401E+04  0.65864270000E+03 0. -1.
    8880022    1    1    2    0    0 -0.31786848032E+03 -0.27991035884E+03 -0.12816018535E+03  0.46819532878E+03  0.15294330000E+03 0.  0.
<mgrwt>
<rscale>  0 0.68191389E+03</rscale>
<asrwt>0</asrwt>
<pdfrwt beam="1">  1        1 0.29846211E+00 0.78307112E+03</pdfrwt>
<pdfrwt beam="2">  1       -1 0.59198255E-01 0.78307112E+03</pdfrwt>
<totfact> 0.98434846E+00</totfact>
</mgrwt>
</event>
<event>
 4    1  0.1521315E-007  0.7008490E+03  0.7818608E-02  0.9993697E-01
          1   -1    0    0  501    0  0.00000000000E+00  0.00000000000E+00  0.90927760566E+03  0.90927760568E+03  0.50400000000E-02 0. -1.
         -1   -1    0    0    0  501 -0.00000000000E+00 -0.00000000000E+00 -0.42080057300E+03  0.42080057303E+03  0.50400000000E-02 0.  1.
    8880023    1    1    2    0    0  0.23352244915E+03  0.53351844833E+02  0.68856823036E+03  0.98250474184E+03  0.65864270000E+03 0. -1.
    8880022    1    1    2    0    0 -0.23352244915E+03 -0.53351844833E+02 -0.20009119770E+03  0.34757343687E+03  0.15294330000E+03 0.  0.
<mgrwt>
<rscale>  0 0.55927468E+03</rscale>
<asrwt>0</asrwt>
<pdfrwt beam="1">  1        1 0.13988886E+00 0.70084903E+03</pdfrwt>
<pdfrwt beam="2">  1       -1 0.64738550E-01 0.70084903E+03</pdfrwt>
<totfact> 0.44528670E+01</totfact>
</mgrwt>
</event>
<event>
 4    1  0.1521315E-007  0.7386818E+03  0.7818608E-02  0.9863804E-01
          1   -1    0    0  501    0  0.00000000000E+00  0.00000000000E+00  0.90770399987E+03  0.90770399989E+03  0.50400000000E-02 0. -1.
         -1   -1    0    0    0  501 -0.00000000000E+00 -0.00000000000E+00 -0.60621464571E+03  0.60621464573E+03  0.50400000000E-02 0.  1.
    8880023    1    1    2    0    0 -0.32178382530E+03  0.91081451852E+02  0.66712465655E+03  0.99534224000E+03  0.65864270000E+03 0. -1.
    8880022    1    1    2    0    0  0.32178382530E+03 -0.91081451852E+02 -0.36563530238E+03  0.51857640561E+03  0.15294330000E+03 0.  1.
<mgrwt>
<rscale>  0 0.62048049E+03</rscale>
<asrwt>0</asrwt>
<pdfrwt beam="1">  1        1 0.13964677E+00 0.73868184E+03</pdfrwt>
<pdfrwt beam="2">  1       -1 0.93263793E-01 0.73868184E+03</pdfrwt>
<totfact> 0.20605720E+01</totfact>
</mgrwt>
</event>
<event>
 4    1  0.1521315E-007  0.7497348E+03  0.7818608E-02  0.9832447E-01
         -1   -1    0    0    0  501 -0.00000000000E+00  0.00000000000E+00  0.64721110546E+03  0.64721110548E+03  0.50400000000E-02 0.  1.
          1   -1    0    0  501    0  0.00000000000E+00 -0.00000000000E+00 -0.70672152618E+03  0.70672152620E+03  0.50400000000E-02 0. -1.
    8880023    1    1    2    0    0  0.35776193752E+03 -0.17277911062E+02 -0.38822619104E+03  0.84428781338E+03  0.65864270000E+03 0. -1.
    8880022    1    1    2    0    0 -0.35776193752E+03  0.17277911062E+02  0.32871577032E+03  0.50964481830E+03  0.15294330000E+03 0.  0.
<mgrwt>
<rscale>  0 0.63649964E+03</rscale>
<asrwt>0</asrwt>
<pdfrwt beam="1">  1        1 0.10872639E+00 0.74973484E+03</pdfrwt>
<pdfrwt beam="2">  1       -1 0.99570939E-01 0.74973484E+03</pdfrwt>
<totfact> 0.26505143E+01</totfact>
</mgrwt>
</event>
<event>
 4    1  0.1521315E-007  0.8681353E+03  0.7818608E-02  0.9579253E-01
         -1   -1    0    0    0  501 -0.00000000000E+00  0.00000000000E+00  0.10000008228E+04  0.10000008228E+04  0.50400000000E-02 0.  1.
          1   -1    0    0  501    0  0.00000000000E+00 -0.00000000000E+00 -0.94276716692E+03  0.94276716694E+03  0.50400000000E-02 0. -1.
    8880023    1    1    2    0    0  0.36120603818E+03  0.43517680672E+03 -0.60532238339E+03  0.10583355088E+04  0.65864270000E+03 0. -1.
    8880022    1    1    2    0    0 -0.36120603818E+03 -0.43517680672E+03  0.66255603925E+03  0.88443248091E+03  0.15294330000E+03 0.  0.
<mgrwt>
<rscale>  0 0.78684708E+03</rscale>
<asrwt>0</asrwt>
<pdfrwt beam="1">  1        1 0.14504110E+00 0.86813528E+03</pdfrwt>
<pdfrwt beam="2">  1       -1 0.15384628E+00 0.86813528E+03</pdfrwt>
<totfact> 0.55723331E+00</totfact>
</mgrwt>
</event>
<event>
 4    1  0.1521315E-007  0.9652901E+03  0.7818608E-02  0.9428448E-01
          1   -1    0    0  501    0  0.00000000000E+00  0.00000000000E+00  0.21017555035E+04  0.21017555035E+04  0.50400000000E-02 0. -1.
         -1   -1    0    0    0  501 -0.00000000000E+00 -0.00000000000E+00 -0.41197698970E+03  0.41197698973E+03  0.50400000000E-02 0.  1.
    8880023    1    1    2    0    0 -0.16539260348E+03 -0.68601756863E+03  0.41934455764E+03  0.10524423414E+04  0.65864270000E+03 0.  1.
    8880022    1    1    2    0    0  0.16539260348E+03  0.68601756863E+03  0.12704339561E+04  0.14612901518E+04  0.15294330000E+03 0. -1.
<mgrwt>
<rscale>  0 0.89771046E+03</rscale>
<asrwt>0</asrwt>
<pdfrwt beam="1">  1        1 0.32334700E+00 0.96529012E+03</pdfrwt>
<pdfrwt beam="2">  1       -1 0.63381075E-01 0.96529012E+03</pdfrwt>
<totfact> 0.65269693E+00</totfact>
</mgrwt>
</event>
<event>
 4    1  0.1521315E-007  0.7211183E+03  0.7818608E-02  0.9918820E-01
         -1   -1    0    0    0  501 -0.00000000000E+00  0.00000000000E+00  0.86957763365E+03  0.86957763367E+03  0.50400000000E-02 0.  1.
          1   -1    0    0  501    0  0.00000000000E+00 -0.00000000000E+00 -0.67827109052E+03  0.67827109054E+03  0.50400000000E-02 0. -1.
    8880023    1    1    2    0    0 -0.29320054960E+03  0.15324838881E+02 -0.43305001158E+03  0.84115630638E+03  0.65864270000E+03 0. -1.
    8880022    1    1    2    0    0  0.29320054960E+03 -0.15324838881E+02  0.62435655472E+03  0.70669241782E+03  0.15294330000E+03 0.  0.
<mgrwt>
<rscale>  0 0.59357797E+03</rscale>
<asrwt>0</asrwt>
<pdfrwt beam="1">  1        1 0.10434940E+00 0.72111831E+03</pdfrwt>
<pdfrwt beam="2">  1       -1 0.13378117E+00 0.72111831E+03</pdfrwt>
<totfact> 0.13909817E+01</totfact>
</mgrwt>
</event>
<event>
 4    1  0.1521315E-007  0.7371864E+03  0.7818608E-02  0.9868220E-01
         -1   -1    0    0    0  501 -0.00000000000E+00  0.00000000000E+00  0.77900984671E+03  0.77900984673E+03  0.50400000000E-02 0.  1.
          1   -1    0    0  501    0  0.00000000000E+00 -0.00000000000E+00 -0.23287241802E+04  0.23287241802E+04  0.50400000000E-02 0. -1.
    8880023    1    1    2    0    0  0.95664234852E+02 -0.31698885874E+03 -0.22229791128E+04  0.23420247489E+04  0.65864270000E+03 0. -1.
    8880022    1    1    2    0    0 -0.95664234852E+02  0.31698885874E+03  0.67326477929E+03  0.76570927802E+03  0.15294330000E+03 0.  0.
<mgrwt>
<rscale>  0 0.61826511E+03</rscale>
<asrwt>0</asrwt>
<pdfrwt beam="1">  1        1 0.35826526E+00 0.73718640E+03</pdfrwt>
<pdfrwt beam="2">  1       -1 0.11984767E+00 0.73718640E+03</pdfrwt>
<totfact> 0.11777676E+00</totfact>
</mgrwt>
</event>
<event>
 4    1  0.1521315E-007  0.6610298E+03  0.7818608E-02  0.1023125E+00
          1   -1    0    0  501    0  0.00000000000E+00  0.00000000000E+00  0.93591860812E+03  0.93591860814E+03  0.50400000000E-02 0. -1.
         -1   -1    0    0    0  501 -0.00000000000E+00 -0.00000000000E+00 -0.15167758328E+04  0.15167758328E+04  0.50400000000E-02 0.  1.
    8880023    1    1    2    0    0  0.54285507650E+02  0.14258457127E+02  0.81386317764E+03  0.10484911531E+04  0.65864270000E+03 0. -1.
    8880022    1    1    2    0    0 -0.54285507650E+02 -0.14258457127E+02 -0.13947204023E+04  0.14042032878E+04  0.15294330000E+03 0.  0.
<mgrwt>
<rscale>  0 0.46575469E+03</rscale>
<asrwt>0</asrwt>
<pdfrwt beam="1">  1        1 0.14398748E+00 0.66102982E+03</pdfrwt>
<pdfrwt beam="2">  1       -1 0.23335013E+00 0.66102982E+03</pdfrwt>
<totfact> 0.16259265E+00</totfact>
</mgrwt>
</event>
<event>
 4    1  0.1521315E-007  0.6916507E+03  0.7818608E-02  0.1003378E+00
          1   -1    0    0  501    0  0.00000000000E+00  0.00000000000E+00  0.25135744025E+04  0.25135744025E+04  0.50400000000E-02 0. -1.
         -1   -1    0    0    0  501 -0.00000000000E+00 -0.00000000000E+00 -0.37047888903E+03  0.37047888906E+03  0.50400000000E-02 0.  1.
    8880023    1    1    2    0    0 -0.33163223852E+02 -0.20849630602E+03  0.24121884971E+04  0.25093891809E+04  0.65864270000E+03 0. -1.
    8880022    1    1    2    0    0  0.33163223852E+02  0.20849630602E+03 -0.26909298362E+03  0.37466411075E+03  0.15294330000E+03 0.  0.
<mgrwt>
<rscale>  0 0.54193665E+03</rscale>
<asrwt>0</asrwt>
<pdfrwt beam="1">  1        1 0.38670375E+00 0.69165072E+03</pdfrwt>
<pdfrwt beam="2">  1       -1 0.56996753E-01 0.69165072E+03</pdfrwt>
<totfact> 0.44280203E+00</totfact>
</mgrwt>
</event>
<event>
 4    1  0.1521315E-007  0.6998620E+03  0.7818608E-02  0.9997774E-01
         -1   -1    0    0    0  501 -0.00000000000E+00  0.00000000000E+00  0.55516522707E+03  0.55516522710E+03  0.50400000000E-02 0.  1.
          1   -1    0    0  501    0  0.00000000000E+00 -0.00000000000E+00 -0.45457312765E+03  0.45457312768E+03  0.50400000000E-02 0. -1.
    8880023    1    1    2    0    0 -0.23165421865E+03  0.48300784153E+02 -0.27117890705E+02  0.70038719936E+03  0.65864270000E+03 0. -1.
    8880022    1    1    2    0    0  0.23165421865E+03 -0.48300784153E+02  0.12770999013E+03  0.30935115542E+03  0.15294330000E+03 0.  1.
<mgrwt>
<rscale>  0 0.55747947E+03</rscale>
<asrwt>0</asrwt>
<pdfrwt beam="1">  1        1 0.69934328E-01 0.69986202E+03</pdfrwt>
<pdfrwt beam="2">  1       -1 0.85410035E-01 0.69986202E+03</pdfrwt>
<totfact> 0.70029014E+01</totfact>
</mgrwt>
</event>
<event>
 4    1  0.1521315E-007  0.9574175E+03  0.7818608E-02  0.9439521E-01
          1   -1    0    0  501    0  0.00000000000E+00  0.00000000000E+00  0.80431942877E+03  0.80431942879E+03  0.50400000000E-02 0. -1.
         -1   -1    0    0    0  501 -0.00000000000E+00 -0.00000000000E+00 -0.20753123434E+04  0.20753123434E+04  0.50400000000E-02 0.  1.
    8880023    1    1    2    0    0 -0.22852413160E+03  0.65621250149E+03  0.41966857832E+03  0.10453564214E+04  0.65864270000E+03 0. -1.
    8880022    1    1    2    0    0  0.22852413160E+03 -0.65621250149E+03 -0.16906614929E+04  0.18342753508E+04  0.15294330000E+03 0.  0.
<mgrwt>
<rscale>  0 0.88893395E+03</rscale>
<asrwt>0</asrwt>
<pdfrwt beam="1">  1        1 0.12374145E+00 0.95741753E+03</pdfrwt>
<pdfrwt beam="2">  1       -1 0.31927882E+00 0.95741753E+03</pdfrwt>
<totfact> 0.55492506E-01</totfact>
</mgrwt>
</event>
<event>
 4    1  0.1521315E-007  0.7062310E+03  0.7818608E-02  0.9972272E-01
          1   -1    0    0  501    0  0.00000000000E+00  0.00000000000E+00  0.26781082995E+04  0.26781082995E+04  0.50400000000E-02 0. -1.
         -1   -1    0    0    0  501 -0.00000000000E+00 -0.00000000000E+00 -0.18829339591E+03  0.18829339598E+03  0.50400000000E-02 0.  1.
    8880023    1    1    2    0    0  0.97786726057E+02  0.23535039669E+03  0.24694793103E+04  0.25684801582E+04  0.65864270000E+03 0.  0.
    8880022    1    1    2    0    0 -0.97786726057E+02 -0.23535039669E+03  0.20335593352E+02  0.29792153730E+03  0.15294330000E+03 0.  1.
<mgrwt>
<rscale>  0 0.56882941E+03</rscale>
<asrwt>0</asrwt>
<pdfrwt beam="1">  1        1 0.41201664E+00 0.70623102E+03</pdfrwt>
<pdfrwt beam="2">  1       -1 0.28968216E-01 0.70623102E+03</pdfrwt>
<totfact> 0.11724514E+01</totfact>
</mgrwt>
</event>
<event>
 4    1  0.1521315E-007  0.9053330E+03  0.7818608E-02  0.9517524E-01
         -1   -1    0    0    0  501 -0.00000000000E+00  0.00000000000E+00  0.76875362929E+03  0.76875362931E+03  0.50400000000E-02 0.  1.
          1   -1    0    0  501    0  0.00000000000E+00 -0.00000000000E+00 -0.24957494168E+04  0.24957494168E+04  0.50400000000E-02 0. -1.
    8880023    1    1    2    0    0  0.62020631009E+03 -0.34084280570E+02 -0.22582555559E+04  0.24329706055E+04  0.65864270000E+03 0. -1.
    8880022    1    1    2    0    0 -0.62020631009E+03  0.34084280570E+02  0.53125976839E+03  0.83153244060E+03  0.15294330000E+03 0.  0.
<mgrwt>
<rscale>  0 0.83004080E+03</rscale>
<asrwt>0</asrwt>
<pdfrwt beam="1">  1        1 0.38396145E+00 0.90533298E+03</pdfrwt>
<pdfrwt beam="2">  1       -1 0.11826979E+00 0.90533298E+03</pdfrwt>
<totfact> 0.90566118E-01</totfact>
</mgrwt>
</event>
<event>
 4    1  0.1627231E-007  0.8127503E+03  0.7818608E-02  0.9683876E-01
          1   -1    0    0  501    0  0.00000000000E+00  0.00000000000E+00  0.36253821459E+04  0.36253821459E+04  0.50400000000E-02 0. -1.
         -1   -1    0    0    0  501 -0.00000000000E+00 -0.00000000000E+00 -0.67617255484E+03  0.67617255485E+03  0.50400000000E-02 0.  1.
    8880023    1    1    2    0    0  0.24580692616E+03 -0.40783801487E+03  0.34791789815E+04  0.35728489309E+04  0.65864270000E+03 0. -1.
    8880022    1    1    2    0    0 -0.24580692616E+03  0.40783801487E+03 -0.52996939040E+03  0.72870576991E+03  0.15294330000E+03 0.  0.
<mgrwt>
<rscale>  0 0.71984956E+03</rscale>
<asrwt>0</asrwt>
<pdfrwt beam="1">  1        1 0.55775111E+00 0.81275033E+03</pdfrwt>
<pdfrwt beam="2">  1       -1 0.10402654E+00 0.81275033E+03</pdfrwt>
<totfact> 0.18768491E-01</totfact>
</mgrwt>
</event>
<event>
 4    1  0.1521315E-007  0.7344802E+03  0.7818608E-02  0.9876328E-01
         -1   -1    0    0    0  501 -0.00000000000E+00  0.00000000000E+00  0.18061309549E+04  0.18061309550E+04  0.50400000000E-02 0.  1.
          1   -1    0    0  501    0  0.00000000000E+00 -0.00000000000E+00 -0.25527654092E+03  0.25527654097E+03  0.50400000000E-02 0. -1.
    8880023    1    1    2    0    0 -0.22464511688E+02  0.32426263962E+03  0.36079265608E+03  0.81831073602E+03  0.65864270000E+03 0. -1.
    8880022    1    1    2    0    0  0.22464511688E+02 -0.32426263962E+03  0.11900617580E+04  0.12430967599E+04  0.15294330000E+03 0.  0.
<mgrwt>
<rscale>  0 0.61422386E+03</rscale>
<asrwt>0</asrwt>
<pdfrwt beam="1">  1        1 0.39273312E-01 0.73448017E+03</pdfrwt>
<pdfrwt beam="2">  1       -1 0.27786632E+00 0.73448017E+03</pdfrwt>
<totfact> 0.51925070E+00</totfact>
</mgrwt>
</event>
<event>
 4    1  0.1521315E-007  0.7729071E+03  0.7818608E-02  0.9772770E-01
          1   -1    0    0  501    0  0.00000000000E+00  0.00000000000E+00  0.10322756664E+04  0.10322756664E+04  0.50400000000E-02 0. -1.
         -1   -1    0    0    0  501 -0.00000000000E+00 -0.00000000000E+00 -0.62246112696E+03  0.62246112698E+03  0.50400000000E-02 0.  1.
    8880023    1    1    2    0    0 -0.15156967369E+03 -0.37496918437E+03  0.77072290008E+03  0.10915123683E+04  0.65864270000E+03 0.  0.
    8880022    1    1    2    0    0  0.15156967369E+03  0.37496918437E+03 -0.36090836064E+03  0.56322442508E+03  0.15294330000E+03 0.  0.
<mgrwt>
<rscale>  0 0.66844563E+03</rscale>
<asrwt>0</asrwt>
<pdfrwt beam="1">  1        1 0.15881164E+00 0.77290715E+03</pdfrwt>
<pdfrwt beam="2">  1       -1 0.95763252E-01 0.77290715E+03</pdfrwt>
<totfact> 0.15435312E+01</totfact>
</mgrwt>
</event>
<event>
 4    1  0.1521315E-007  0.7749953E+03  0.7818608E-02  0.9767727E-01
         -1   -1    0    0    0  501 -0.00000000000E+00  0.00000000000E+00  0.94747283073E+03  0.94747283074E+03  0.50400000000E-02 0.  1.
          1   -1    0    0  501    0  0.00000000000E+00 -0.00000000000E+00 -0.56366573644E+03  0.56366573646E+03  0.50400000000E-02 0. -1.
    8880023    1    1    2    0    0 -0.39298932506E+03  0.11120678148E+03 -0.18266675998E+03  0.79623169324E+03  0.65864270000E+03 0. -1.
    8880022    1    1    2    0    0  0.39298932506E+03 -0.11120678148E+03  0.56647385426E+03  0.71490687396E+03  0.15294330000E+03 0.  0.
<mgrwt>
<rscale>  0 0.67123625E+03</rscale>
<asrwt>0</asrwt>
<pdfrwt beam="1">  1        1 0.86717806E-01 0.77499533E+03</pdfrwt>
<pdfrwt beam="2">  1       -1 0.14576505E+00 0.77499533E+03</pdfrwt>
<totfact> 0.14469710E+01</totfact>
</mgrwt>
</event>
<event>
 4    1  0.1521315E-007  0.8773136E+03  0.7818608E-02  0.9563478E-01
         -1   -1    0    0    0  501 -0.00000000000E+00  0.00000000000E+00  0.17926752885E+04  0.17926752885E+04  0.50400000000E-02 0.  1.
          1   -1    0    0  501    0  0.00000000000E+00 -0.00000000000E+00 -0.64663403587E+03  0.64663403589E+03  0.50400000000E-02 0. -1.
    8880023    1    1    2    0    0  0.15674925798E+03 -0.55794146498E+03 -0.25651638160E+03  0.91404587878E+03  0.65864270000E+03 0.  0.
    8880022    1    1    2    0    0 -0.15674925798E+03  0.55794146498E+03  0.14025576342E+04  0.15252634456E+04  0.15294330000E+03 0.  0.
<mgrwt>
<rscale>  0 0.79761326E+03</rscale>
<asrwt>0</asrwt>
<pdfrwt beam="1">  1        1 0.99482159E-01 0.87731364E+03</pdfrwt>
<pdfrwt beam="2">  1       -1 0.27579620E+00 0.87731364E+03</pdfrwt>
<totfact> 0.14961125E+00</totfact>
</mgrwt>
</event>
<event>
 4    1  0.1521315E-007  0.9479717E+03  0.7818608E-02  0.9453038E-01
         -1   -1    0    0    0  501 -0.00000000000E+00  0.00000000000E+00  0.18801474122E+04  0.18801474122E+04  0.50400000000E-02 0.  1.
          1   -1    0    0  501    0  0.00000000000E+00 -0.00000000000E+00 -0.88699082398E+03  0.88699082399E+03  0.50400000000E-02 0. -1.
    8880023    1    1    2    0    0 -0.36413506588E+03 -0.57640773404E+03 -0.53378089555E+03  0.10879211703E+04  0.65864270000E+03 0. -1.
    8880022    1    1    2    0    0  0.36413506588E+03  0.57640773404E+03  0.15269374838E+04  0.16792170659E+04  0.15294330000E+03 0.  0.
<mgrwt>
<rscale>  0 0.87836457E+03</rscale>
<asrwt>0</asrwt>
<pdfrwt beam="1">  1        1 0.13646013E+00 0.94797174E+03</pdfrwt>
<pdfrwt beam="2">  1       -1 0.28925344E+00 0.94797174E+03</pdfrwt>
<totfact> 0.73809821E-01</totfact>
</mgrwt>
</event>
<event>
 4    1  0.1521315E-007  0.6948216E+03  0.7818608E-02  0.1001940E+00
         -1   -1    0    0    0  501 -0.00000000000E+00  0.00000000000E+00  0.16371602507E+04  0.16371602507E+04  0.50400000000E-02 0.  1.
          1   -1    0    0  501    0  0.00000000000E+00 -0.00000000000E+00 -0.43768405142E+03  0.43768405145E+03  0.50400000000E-02 0. -1.
    8880023    1    1    2    0    0 -0.13261541006E+03 -0.17714400812E+03 -0.13986369463E+03  0.70875870784E+03  0.65864270000E+03 0. -1.
    8880022    1    1    2    0    0  0.13261541006E+03  0.17714400812E+03  0.13393398939E+04  0.13660855944E+04  0.15294330000E+03 0.  0.
<mgrwt>
<rscale>  0 0.54807649E+03</rscale>
<asrwt>0</asrwt>
<pdfrwt beam="1">  1        1 0.67336006E-01 0.69482160E+03</pdfrwt>
<pdfrwt beam="2">  1       -1 0.25187082E+00 0.69482160E+03</pdfrwt>
<totfact> 0.37868377E+00</totfact>
</mgrwt>
</event>
<event>
 4    1  0.1521315E-007  0.8335289E+03  0.7818608E-02  0.9642505E-01
         -1   -1    0    0    0  501 -0.00000000000E+00  0.00000000000E+00  0.54548986642E+03  0.54548986644E+03  0.50400000000E-02 0.  1.
          1   -1    0    0  501    0  0.00000000000E+00 -0.00000000000E+00 -0.22460424583E+04  0.22460424583E+04  0.50400000000E-02 0. -1.
    8880023    1    1    2    0    0 -0.31102898268E+03  0.40524205589E+03 -0.20093168599E+04  0.21753447087E+04  0.65864270000E+03 0. -1.
    8880022    1    1    2    0    0  0.31102898268E+03 -0.40524205589E+03  0.30876426804E+03  0.61618761604E+03  0.15294330000E+03 0.  0.
<mgrwt>
<rscale>  0 0.74545680E+03</rscale>
<asrwt>0</asrwt>
<pdfrwt beam="1">  1        1 0.34554499E+00 0.83352886E+03</pdfrwt>
<pdfrwt beam="2">  1       -1 0.83921519E-01 0.83352886E+03</pdfrwt>
<totfact> 0.29695807E+00</totfact>
</mgrwt>
</event>
<event>
 4    1  0.1521315E-007  0.1094012E+04  0.7818608E-02  0.9267753E-01
          1   -1    0    0  501    0  0.00000000000E+00  0.00000000000E+00  0.48401331741E+03  0.48401331744E+03  0.50400000000E-02 0. -1.
         -1   -1    0    0    0  501 -0.00000000000E+00 -0.00000000000E+00 -0.24004992312E+04  0.24004992312E+04  0.50400000000E-02 0.  1.
    8880023    1    1    2    0    0  0.37804585440E+03 -0.78748523610E+03 -0.47632408441E+03  0.11932084917E+04  0.65864270000E+03 0.  0.
    8880022    1    1    2    0    0 -0.37804585440E+03  0.78748523610E+03 -0.14401618294E+04  0.16913040569E+04  0.15294330000E+03 0.  0.
<mgrwt>
<rscale>  0 0.10380659E+04</rscale>
<asrwt>0</asrwt>
<pdfrwt beam="1">  1        1 0.74463589E-01 0.10940118E+04</pdfrwt>
<pdfrwt beam="2">  1       -1 0.36930757E+00 0.10940118E+04</pdfrwt>
<totfact> 0.54058653E-01</totfact>
</mgrwt>
</event>
<event>
 4    1  0.1521315E-007  0.6789019E+03  0.7818608E-02  0.1009952E+00
          1   -1    0    0  501    0  0.00000000000E+00  0.00000000000E+00  0.95856601845E+03  0.95856601847E+03  0.50400000000E-02 0. -1.
         -1   -1    0    0    0  501 -0.00000000000E+00 -0.00000000000E+00 -0.65607852626E+03  0.65607852628E+03  0.50400000000E-02 0.  1.
    8880023    1    1    2    0    0  0.15629587056E+03  0.51664498587E+02  0.81162293212E+03  0.10581302424E+04  0.65864270000E+03 0. -1.
    8880022    1    1    2    0    0 -0.15629587056E+03 -0.51664498587E+02 -0.50913543993E+03  0.55651430240E+03  0.15294330000E+03 0.  0.
<mgrwt>
<rscale>  0 0.51493827E+03</rscale>
<asrwt>0</asrwt>
<pdfrwt beam="1">  1        1 0.14747169E+00 0.67890193E+03</pdfrwt>
<pdfrwt beam="2">  1       -1 0.10093516E+00 0.67890193E+03</pdfrwt>
<totfact> 0.15826186E+01</totfact>
</mgrwt>
</event>
<event>
 4    1  0.1521315E-007  0.7127305E+03  0.7818608E-02  0.9947998E-01
          1   -1    0    0  501    0  0.00000000000E+00  0.00000000000E+00  0.14481522424E+04  0.14481522424E+04  0.50400000000E-02 0. -1.
         -1   -1    0    0    0  501 -0.00000000000E+00 -0.00000000000E+00 -0.80466888903E+03  0.80466888904E+03  0.50400000000E-02 0.  1.
    8880023    1    1    2    0    0  0.27189787319E+03 -0.15688179916E+02  0.13242199343E+04  0.15038428153E+04  0.65864270000E+03 0. -1.
    8880022    1    1    2    0    0 -0.27189787319E+03  0.15688179916E+02 -0.68073658094E+03  0.74897831616E+03  0.15294330000E+03 0.  0.
<mgrwt>
<rscale>  0 0.57990446E+03</rscale>
<asrwt>0</asrwt>
<pdfrwt beam="1">  1        1 0.22279265E+00 0.71273051E+03</pdfrwt>
<pdfrwt beam="2">  1       -1 0.12379521E+00 0.71273051E+03</pdfrwt>
<totfact> 0.42741214E+00</totfact>
</mgrwt>
</event>
<event>
 4    1  0.1521315E-007  0.1057145E+04  0.7818608E-02  0.9310342E-01
          1   -1    0    0  501    0  0.00000000000E+00  0.00000000000E+00  0.30045617740E+04  0.30045617740E+04  0.50400000000E-02 0. -1.
         -1   -1    0    0    0  501 -0.00000000000E+00 -0.00000000000E+00 -0.89492817221E+03  0.89492817222E+03  0.50400000000E-02 0.  1.
    8880023    1    1    2    0    0  0.16122746057E+03  0.81101799577E+03 -0.49149215526E+03  0.11658126901E+04  0.65864270000E+03 0.  1.
    8880022    1    1    2    0    0 -0.16122746057E+03 -0.81101799577E+03  0.26011257571E+04  0.27336772561E+04  0.15294330000E+03 0.  0.
<mgrwt>
<rscale>  0 0.99836345E+03</rscale>
<asrwt>0</asrwt>
<pdfrwt beam="1">  1        1 0.46224027E+00 0.10571446E+04</pdfrwt>
<pdfrwt beam="2">  1       -1 0.13768126E+00 0.10571446E+04</pdfrwt>
<totfact> 0.26415729E-01</totfact>
</mgrwt>
</event>
<event>
 4    1  0.1521315E-007  0.7071558E+03  0.7818608E-02  0.9968718E-01
          1   -1    0    0  501    0  0.00000000000E+00  0.00000000000E+00  0.40294799578E+03  0.40294799582E+03  0.50400000000E-02 0. -1.
         -1   -1    0    0    0  501 -0.00000000000E+00 -0.00000000000E+00 -0.13131355307E+04  0.13131355307E+04  0.50400000000E-02 0.  1.
    8880023    1    1    2    0    0 -0.25265282224E+03 -0.49251333214E+02  0.51338520499E+02  0.70901691966E+03  0.65864270000E+03 0. -1.
    8880022    1    1    2    0    0  0.25265282224E+03  0.49251333214E+02 -0.96152605537E+03  0.10070666068E+04  0.15294330000E+03 0.  0.
<mgrwt>
<rscale>  0 0.57043427E+03</rscale>
<asrwt>0</asrwt>
<pdfrwt beam="1">  1        1 0.61992000E-01 0.70715582E+03</pdfrwt>
<pdfrwt beam="2">  1       -1 0.20202085E+00 0.70715582E+03</pdfrwt>
<totfact> 0.89882934E+00</totfact>
</mgrwt>
</event>
<event>
 4    1  0.1521315E-007  0.9224005E+03  0.7818608E-02  0.9490988E-01
         -1   -1    0    0    0  501 -0.00000000000E+00  0.00000000000E+00  0.64617219216E+03  0.64617219218E+03  0.50400000000E-02 0.  1.
          1   -1    0    0  501    0  0.00000000000E+00 -0.00000000000E+00 -0.12655137689E+04  0.12655137689E+04  0.50400000000E-02 0. -1.
    8880023    1    1    2    0    0  0.46486980317E+03 -0.44822826246E+03 -0.80316397402E+03  0.12230678986E+04  0.65864270000E+03 0.  0.
    8880022    1    1    2    0    0 -0.46486980317E+03  0.44822826246E+03  0.18382239731E+03  0.68861806245E+03  0.15294330000E+03 0.  0.
<mgrwt>
<rscale>  0 0.84951506E+03</rscale>
<asrwt>0</asrwt>
<pdfrwt beam="1">  1        1 0.19469442E+00 0.92240052E+03</pdfrwt>
<pdfrwt beam="2">  1       -1 0.99411107E-01 0.92240052E+03</pdfrwt>
<totfact> 0.93688267E+00</totfact>
</mgrwt>
</event>
<event>
 4    1  0.1521315E-007  0.8090692E+03  0.7818608E-02  0.9691519E-01
         -1   -1    0    0    0  501 -0.00000000000E+00  0.00000000000E+00  0.22053028575E+04  0.22053028575E+04  0.50400000000E-02 0.  1.
          1   -1    0    0  501    0  0.00000000000E+00 -0.00000000000E+00 -0.25182971472E+03  0.25182971477E+03  0.50400000000E-02 0. -1.
    8880023    1    1    2    0    0  0.45704676668E+03 -0.10904581305E+03  0.57448407397E+03  0.99228266829E+03  0.65864270000E+03 0. -1.
    8880022    1    1    2    0    0 -0.45704676668E+03  0.10904581305E+03  0.13789890688E+04  0.14648499040E+04  0.15294330000E+03 0.  0.
<mgrwt>
<rscale>  0 0.71523994E+03</rscale>
<asrwt>0</asrwt>
<pdfrwt beam="1">  1        1 0.38743033E-01 0.80906918E+03</pdfrwt>
<pdfrwt beam="2">  1       -1 0.33927737E+00 0.80906918E+03</pdfrwt>
<totfact> 0.21076826E+00</totfact>
</mgrwt>
</event>
<event>
 4    1  0.1521315E-007  0.7647170E+03  0.7818608E-02  0.9793045E-01
          1   -1    0    0  501    0  0.00000000000E+00  0.00000000000E+00  0.79077246280E+03  0.79077246282E+03  0.50400000000E-02 0. -1.
         -1   -1    0    0    0  501 -0.00000000000E+00 -0.00000000000E+00 -0.45724281082E+03  0.45724281085E+03  0.50400000000E-02 0.  1.
    8880023    1    1    2    0    0  0.35170242039E+03 -0.16518848256E+03  0.32346311671E+03  0.83031344769E+03  0.65864270000E+03 0. -1.
    8880022    1    1    2    0    0 -0.35170242039E+03  0.16518848256E+03  0.10066535264E+02  0.41770182598E+03  0.15294330000E+03 0.  1.
<mgrwt>
<rscale>  0 0.65737108E+03</rscale>
<asrwt>0</asrwt>
<pdfrwt beam="1">  1        1 0.12165730E+00 0.76471696E+03</pdfrwt>
<pdfrwt beam="2">  1       -1 0.70345049E-01 0.76471696E+03</pdfrwt>
<totfact> 0.47006495E+01</totfact>
</mgrwt>
</event>
<event>
 4    1  0.1521315E-007  0.6634678E+03  0.7818608E-02  0.1020855E+00
          1   -1    0    0  501    0  0.00000000000E+00  0.00000000000E+00  0.79463188275E+03  0.79463188276E+03  0.50400000000E-02 0. -1.
         -1   -1    0    0    0  501 -0.00000000000E+00 -0.00000000000E+00 -0.21997262475E+03  0.21997262481E+03  0.50400000000E-02 0.  1.
    8880023    1    1    2    0    0  0.33161292484E+01 -0.79802030066E+02  0.44784133259E+03  0.80046950358E+03  0.65864270000E+03 0.  0.
    8880022    1    1    2    0    0 -0.33161292484E+01  0.79802030066E+02  0.12681792540E+03  0.21413500399E+03  0.15294330000E+03 0.  1.
<mgrwt>
<rscale>  0 0.47379351E+03</rscale>
<asrwt>0</asrwt>
<pdfrwt beam="1">  1        1 0.12225106E+00 0.66346783E+03</pdfrwt>
<pdfrwt beam="2">  1       -1 0.33841943E-01 0.66346783E+03</pdfrwt>
<totfact> 0.18775326E+02</totfact>
</mgrwt>
</event>
<event>
 4    1  0.1521315E-007  0.6772835E+03  0.7818608E-02  0.1010904E+00
          1   -1    0    0  501    0  0.00000000000E+00  0.00000000000E+00  0.11940499240E+04  0.11940499240E+04  0.50400000000E-02 0. -1.
         -1   -1    0    0    0  501 -0.00000000000E+00 -0.00000000000E+00 -0.16862457864E+03  0.16862457871E+03  0.50400000000E-02 0.  1.
    8880023    1    1    2    0    0  0.13616883752E+03 -0.79754922175E+02  0.79123762906E+03  0.10415229195E+04  0.65864270000E+03 0. -1.
    8880022    1    1    2    0    0 -0.13616883752E+03  0.79754922175E+02  0.23418771625E+03  0.32115158319E+03  0.15294330000E+03 0.  1.
<mgrwt>
<rscale>  0 0.51116964E+03</rscale>
<asrwt>0</asrwt>
<pdfrwt beam="1">  1        1 0.18369999E+00 0.67728355E+03</pdfrwt>
<pdfrwt beam="2">  1       -1 0.25942243E-01 0.67728355E+03</pdfrwt>
<totfact> 0.14511465E+02</totfact>
</mgrwt>
</event>
<event>
 4    1  0.1521315E-007  0.1044898E+04  0.7818608E-02  0.9325040E-01
         -1   -1    0    0    0  501 -0.00000000000E+00  0.00000000000E+00  0.17275156095E+04  0.17275156095E+04  0.50400000000E-02 0.  1.
          1   -1    0    0  501    0  0.00000000000E+00 -0.00000000000E+00 -0.82036973438E+03  0.82036973440E+03  0.50400000000E-02 0. -1.
    8880023    1    1    2    0    0  0.47119327178E+03 -0.66028708681E+03 -0.29852798081E+03  0.10867066292E+04  0.65864270000E+03 0.  0.
    8880022    1    1    2    0    0 -0.47119327178E+03  0.66028708681E+03  0.12056738560E+04  0.14611787147E+04  0.15294330000E+03 0.  0.
<mgrwt>
<rscale>  0 0.98509989E+03</rscale>
<asrwt>0</asrwt>
<pdfrwt beam="1">  1        1 0.12621073E+00 0.10448982E+04</pdfrwt>
<pdfrwt beam="2">  1       -1 0.26577163E+00 0.10448982E+04</pdfrwt>
<totfact> 0.11724274E+00</totfact>
</mgrwt>
</event>
<event>
 4    1  0.1521315E-007  0.6592692E+03  0.7818608E-02  0.1024918E+00
          1   -1    0    0  501    0  0.00000000000E+00  0.00000000000E+00  0.11263468100E+04  0.11263468100E+04  0.50400000000E-02 0. -1.
         -1   -1    0    0    0  501 -0.00000000000E+00 -0.00000000000E+00 -0.36512540688E+03  0.36512540691E+03  0.50400000000E-02 0.  1.
    8880023    1    1    2    0    0  0.28734964735E+02 -0.17431793183E+00  0.10051885519E+04  0.12020981489E+04  0.65864270000E+03 0. -1.
    8880022    1    1    2    0    0 -0.28734964735E+02  0.17431793183E+00 -0.24396714871E+03  0.28937406803E+03  0.15294330000E+03 0.  0.
<mgrwt>
<rscale>  0 0.45952909E+03</rscale>
<asrwt>0</asrwt>
<pdfrwt beam="1">  1        1 0.17328412E+00 0.65926924E+03</pdfrwt>
<pdfrwt beam="2">  1       -1 0.56173140E-01 0.65926924E+03</pdfrwt>
<totfact> 0.40285870E+01</totfact>
</mgrwt>
</event>
<event>
 4    1  0.1521315E-007  0.7508082E+03  0.7818608E-02  0.9829513E-01
         -1   -1    0    0    0  501 -0.00000000000E+00  0.00000000000E+00  0.11266475204E+03  0.11266475216E+03  0.50400000000E-02 0.  1.
          1   -1    0    0  501    0  0.00000000000E+00 -0.00000000000E+00 -0.37324846575E+04  0.37324846575E+04  0.50400000000E-02 0. -1.
    8880023    1    1    2    0    0  0.18094104477E+02 -0.35996569994E+03 -0.13767835679E+04  0.15681982977E+04  0.65864270000E+03 0.  1.
    8880022    1    1    2    0    0 -0.18094104477E+02  0.35996569994E+03 -0.22430363375E+04  0.22769511120E+04  0.15294330000E+03 0.  0.
<mgrwt>
<rscale>  0 0.63802473E+03</rscale>
<asrwt>0</asrwt>
<pdfrwt beam="1">  1        1 0.57422831E+00 0.75080817E+03</pdfrwt>
<pdfrwt beam="2">  1       -1 0.17333042E-01 0.75080817E+03</pdfrwt>
<totfact> 0.45708740E+00</totfact>
</mgrwt>
</event>
<event>
 4    1  0.1521315E-007  0.1057941E+04  0.7818608E-02  0.9309395E-01
          1   -1    0    0  501    0  0.00000000000E+00  0.00000000000E+00  0.19893828716E+04  0.19893828716E+04  0.50400000000E-02 0. -1.
         -1   -1    0    0    0  501 -0.00000000000E+00 -0.00000000000E+00 -0.50876194921E+03  0.50876194924E+03  0.50400000000E-02 0.  1.
    8880023    1    1    2    0    0 -0.70632996785E+03  0.43188855207E+03  0.40640783695E+03  0.11333169376E+04  0.65864270000E+03 0.  0.
    8880022    1    1    2    0    0  0.70632996785E+03 -0.43188855207E+03  0.10742130855E+04  0.13648278832E+04  0.15294330000E+03 0.  0.
<mgrwt>
<rscale>  0 0.99922503E+03</rscale>
<asrwt>0</asrwt>
<pdfrwt beam="1">  1        1 0.30605890E+00 0.10579414E+04</pdfrwt>
<pdfrwt beam="2">  1       -1 0.78271071E-01 0.10579414E+04</pdfrwt>
<totfact> 0.49706083E+00</totfact>
</mgrwt>
</event>
<event>
 4    1  0.1521315E-007  0.7486943E+03  0.7818608E-02  0.9835309E-01
         -1   -1    0    0    0  501 -0.00000000000E+00  0.00000000000E+00  0.58369005703E+03  0.58369005705E+03  0.50400000000E-02 0.  1.
          1   -1    0    0  501    0  0.00000000000E+00 -0.00000000000E+00 -0.73656383242E+03  0.73656383244E+03  0.50400000000E-02 0. -1.
    8880023    1    1    2    0    0  0.33212638738E+03  0.12815992095E+03 -0.41157802369E+03  0.85436501472E+03  0.65864270000E+03 0.  0.
    8880022    1    1    2    0    0 -0.33212638738E+03 -0.12815992095E+03  0.25870424830E+03  0.46588887477E+03  0.15294330000E+03 0.  0.
<mgrwt>
<rscale>  0 0.63501626E+03</rscale>
<asrwt>0</asrwt>
<pdfrwt beam="1">  1        1 0.11331751E+00 0.74869427E+03</pdfrwt>
<pdfrwt beam="2">  1       -1 0.89798469E-01 0.74869427E+03</pdfrwt>
<totfact> 0.31347818E+01</totfact>
</mgrwt>
</event>
<event>
 4    1  0.1521315E-007  0.1050275E+04  0.7818608E-02  0.9318551E-01
          1   -1    0    0  501    0  0.00000000000E+00  0.00000000000E+00  0.27396963924E+04  0.27396963924E+04  0.50400000000E-02 0. -1.
         -1   -1    0    0    0  501 -0.00000000000E+00 -0.00000000000E+00 -0.43694606004E+03  0.43694606007E+03  0.50400000000E-02 0.  1.
    8880023    1    1    2    0    0  0.36353982166E+03  0.73287497482E+03  0.20557487646E+04  0.23085017046E+04  0.65864270000E+03 0.  0.
    8880022    1    1    2    0    0 -0.36353982166E+03 -0.73287497482E+03  0.24700156775E+03  0.86814074789E+03  0.15294330000E+03 0.  0.
<mgrwt>
<rscale>  0 0.99092802E+03</rscale>
<asrwt>0</asrwt>
<pdfrwt beam="1">  1        1 0.42149175E+00 0.10502748E+04</pdfrwt>
<pdfrwt beam="2">  1       -1 0.67222471E-01 0.10502748E+04</pdfrwt>
<totfact> 0.20940737E+00</totfact>
</mgrwt>
</event>
<event>
 4    1  0.1521315E-007  0.7771296E+03  0.7818608E-02  0.9762623E-01
          1   -1    0    0  501    0  0.00000000000E+00  0.00000000000E+00  0.55116305635E+03  0.55116305637E+03  0.50400000000E-02 0. -1.
         -1   -1    0    0    0  501 -0.00000000000E+00 -0.00000000000E+00 -0.94363508448E+03  0.94363508450E+03  0.50400000000E-02 0.  1.
    8880023    1    1    2    0    0  0.32249419085E+03  0.25713360869E+03 -0.62495331573E+03  0.99724472872E+03  0.65864270000E+03 0.  0.
    8880022    1    1    2    0    0 -0.32249419085E+03 -0.25713360869E+03  0.23248128759E+03  0.49755341215E+03  0.15294330000E+03 0.  0.
<mgrwt>
<rscale>  0 0.67407548E+03</rscale>
<asrwt>0</asrwt>
<pdfrwt beam="1">  1        1 0.84794317E-01 0.77712959E+03</pdfrwt>
<pdfrwt beam="2">  1       -1 0.14517463E+00 0.77712959E+03</pdfrwt>
<totfact> 0.15093085E+01</totfact>
</mgrwt>
</event>
<event>
 4    1  0.1521315E-007  0.6631295E+03  0.7818608E-02  0.1021157E+00
          1   -1    0    0  501    0  0.00000000000E+00  0.00000000000E+00  0.16244934111E+04  0.16244934111E+04  0.50400000000E-02 0. -1.
         -1   -1    0    0    0  501 -0.00000000000E+00 -0.00000000000E+00 -0.38105389582E+03  0.38105389585E+03  0.50400000000E-02 0.  1.
    8880023    1    1    2    0    0 -0.76980898883E+02 -0.21032154727E+01  0.15323619365E+04  0.16696927241E+04  0.65864270000E+03 0.  0.
    8880022    1    1    2    0    0  0.76980898883E+02  0.21032154727E+01 -0.28892242122E+03  0.33585458283E+03  0.15294330000E+03 0.  1.
<mgrwt>
<rscale>  0 0.47271371E+03</rscale>
<asrwt>0</asrwt>
<pdfrwt beam="1">  1        1 0.24992206E+00 0.66312947E+03</pdfrwt>
<pdfrwt beam="2">  1       -1 0.58623677E-01 0.66312947E+03</pdfrwt>
<totfact> 0.16634412E+01</totfact>
</mgrwt>
</event>
<event>
 4    1  0.1521315E-007  0.7192542E+03  0.7818608E-02  0.9925118E-01
         -1   -1    0    0    0  501 -0.00000000000E+00  0.00000000000E+00  0.51510735435E+03  0.51510735438E+03  0.50400000000E-02 0.  1.
          1   -1    0    0  501    0  0.00000000000E+00 -0.00000000000E+00 -0.18843484933E+04  0.18843484933E+04  0.50400000000E-02 0. -1.
    8880023    1    1    2    0    0  0.59843413003E+02  0.28272795037E+03 -0.17532823937E+04  0.18950793351E+04  0.65864270000E+03 0.  0.
    8880022    1    1    2    0    0 -0.59843413003E+02 -0.28272795037E+03  0.38404125480E+03  0.50437651254E+03  0.15294330000E+03 0.  0.
<mgrwt>
<rscale>  0 0.59059267E+03</rscale>
<asrwt>0</asrwt>
<pdfrwt beam="1">  1        1 0.28989977E+00 0.71925415E+03</pdfrwt>
<pdfrwt beam="2">  1       -1 0.79247286E-01 0.71925415E+03</pdfrwt>
<totfact> 0.59812072E+00</totfact>
</mgrwt>
</event>
<event>
 4    1  0.1521315E-007  0.6891605E+03  0.7818608E-02  0.1004554E+00
         -1   -1    0    0    0  501 -0.00000000000E+00  0.00000000000E+00  0.42139231451E+03  0.42139231454E+03  0.50400000000E-02 0.  1.
          1   -1    0    0  501    0  0.00000000000E+00 -0.00000000000E+00 -0.81918869950E+03  0.81918869951E+03  0.50400000000E-02 0. -1.
    8880023    1    1    2    0    0 -0.88584329060E+02 -0.18244137350E+03 -0.60168564409E+03  0.91485947483E+03  0.65864270000E+03 0. -1.
    8880022    1    1    2    0    0  0.88584329060E+02  0.18244137350E+03  0.20388925910E+03  0.32572153922E+03  0.15294330000E+03 0.  0.
<mgrwt>
<rscale>  0 0.53697640E+03</rscale>
<asrwt>0</asrwt>
<pdfrwt beam="1">  1        1 0.12602903E+00 0.68916054E+03</pdfrwt>
<pdfrwt beam="2">  1       -1 0.64829587E-01 0.68916054E+03</pdfrwt>
<totfact> 0.52803810E+01</totfact>
</mgrwt>
</event>
<event>
 4    1  0.1521315E-007  0.6619256E+03  0.7818608E-02  0.1022265E+00
         -1   -1    0    0    0  501 -0.00000000000E+00  0.00000000000E+00  0.13497977038E+04  0.13497977038E+04  0.50400000000E-02 0.  1.
          1   -1    0    0  501    0  0.00000000000E+00 -0.00000000000E+00 -0.24052959758E+03  0.24052959763E+03  0.50400000000E-02 0. -1.
    8880023    1    1    2    0    0  0.65833204452E+02  0.11308507382E+01  0.23819057515E+03  0.70347725335E+03  0.65864270000E+03 0. -1.
    8880022    1    1    2    0    0 -0.65833204452E+02 -0.11308507382E+01  0.87107753109E+03  0.88685004810E+03  0.15294330000E+03 0.  0.
<mgrwt>
<rscale>  0 0.46878060E+03</rscale>
<asrwt>0</asrwt>
<pdfrwt beam="1">  1        1 0.37004554E-01 0.66192560E+03</pdfrwt>
<pdfrwt beam="2">  1       -1 0.20766118E+00 0.66192560E+03</pdfrwt>
<totfact> 0.16197501E+01</totfact>
</mgrwt>
</event>
<event>
 4    1  0.1521315E-007  0.7008953E+03  0.7818608E-02  0.9993507E-01
         -1   -1    0    0    0  501 -0.00000000000E+00  0.00000000000E+00  0.83717495310E+03  0.83717495311E+03  0.50400000000E-02 0.  1.
          1   -1    0    0  501    0  0.00000000000E+00 -0.00000000000E+00 -0.53092249561E+03  0.53092249564E+03  0.50400000000E-02 0. -1.
    8880023    1    1    2    0    0  0.18329231569E+03  0.15442791869E+03 -0.24938727465E+03  0.74394104207E+03  0.65864270000E+03 0. -1.
    8880022    1    1    2    0    0 -0.18329231569E+03 -0.15442791869E+03  0.55563973213E+03  0.62415640668E+03  0.15294330000E+03 0.  0.
<mgrwt>
<rscale>  0 0.55935855E+03</rscale>
<asrwt>0</asrwt>
<pdfrwt beam="1">  1        1 0.81680384E-01 0.70089533E+03</pdfrwt>
<pdfrwt beam="2">  1       -1 0.12879615E+00 0.70089533E+03</pdfrwt>
<totfact> 0.21827562E+01</totfact>
</mgrwt>
</event>
<event>
 4    1  0.1521315E-007  0.7198681E+03  0.7818608E-02  0.9923033E-01
         -1   -1    0    0    0  501 -0.00000000000E+00  0.00000000000E+00  0.78139114423E+03  0.78139114425E+03  0.50400000000E-02 0.  1.
          1   -1    0    0  501    0  0.00000000000E+00 -0.00000000000E+00 -0.10960552404E+04  0.10960552404E+04  0.50400000000E-02 0. -1.
    8880023    1    1    2    0    0  0.15268863817E+03  0.24715593077E+03 -0.93235642786E+03  0.11779213001E+04  0.65864270000E+03 0.  0.
    8880022    1    1    2    0    0 -0.15268863817E+03 -0.24715593077E+03  0.61769233168E+03  0.69952508459E+03  0.15294330000E+03 0.  0.
<mgrwt>
<rscale>  0 0.59157903E+03</rscale>
<asrwt>0</asrwt>
<pdfrwt beam="1">  1        1 0.16862388E+00 0.71986810E+03</pdfrwt>
<pdfrwt beam="2">  1       -1 0.12021402E+00 0.71986810E+03</pdfrwt>
<totfact> 0.81768132E+00</totfact>
</mgrwt>
</event>
<event>
 4    1  0.1521315E-007  0.7000054E+03  0.7818608E-02  0.9997179E-01
          1   -1    0    0  501    0  0.00000000000E+00  0.00000000000E+00  0.99336269799E+03  0.99336269800E+03  0.50400000000E-02 0. -1.
         -1   -1    0    0    0  501 -0.00000000000E+00 -0.00000000000E+00 -0.98485913395E+03  0.98485913397E+03  0.50400000000E-02 0.  1.
    8880023    1    1    2    0    0 -0.55309597989E+00  0.23705919702E+03  0.84392235923E+03  0.10964545241E+04  0.65864270000E+03 0. -1.
    8880022    1    1    2    0    0  0.55309597989E+00 -0.23705919702E+03 -0.83541879519E+03  0.88176730784E+03  0.15294330000E+03 0.  0.
<mgrwt>
<rscale>  0 0.55774116E+03</rscale>
<asrwt>0</asrwt>
<pdfrwt beam="1">  1        1 0.15282503E+00 0.70000541E+03</pdfrwt>
<pdfrwt beam="2">  1       -1 0.15151679E+00 0.70000541E+03</pdfrwt>
<totfact> 0.54298975E+00</totfact>
</mgrwt>
</event>
<event>
 4    1  0.1898614E-007  0.7651266E+03  0.7818608E-02  0.9792012E-01
          1   -1    0    0  501    0  0.00000000000E+00  0.00000000000E+00  0.14745724473E+04  0.14745724473E+04  0.50400000000E-02 0. -1.
         -1   -1    0    0    0  501 -0.00000000000E+00 -0.00000000000E+00 -0.13138572591E+04  0.13138572592E+04  0.50400000000E-02 0.  1.
    8880023    1    1    2    0    0  0.34387213397E+03 -0.18264830062E+03  0.13367357939E+04  0.15402211644E+04  0.65864270000E+03 0. -1.
    8880022    1    1    2    0    0 -0.34387213397E+03  0.18264830062E+03 -0.11760206058E+04  0.12482085421E+04  0.15294330000E+03 0.  0.
<mgrwt>
<rscale>  0 0.65793008E+03</rscale>
<asrwt>0</asrwt>
<pdfrwt beam="1">  1        1 0.22685730E+00 0.76512656E+03</pdfrwt>
<pdfrwt beam="2">  1       -1 0.20213189E+00 0.76512656E+03</pdfrwt>
<totfact> 0.10401687E+00</totfact>
</mgrwt>
</event>
<event>
 4    1  0.1521315E-007  0.9299771E+03  0.7818608E-02  0.9479528E-01
         -1   -1    0    0    0  501 -0.00000000000E+00  0.00000000000E+00  0.61356367040E+03  0.61356367042E+03  0.50400000000E-02 0.  1.
          1   -1    0    0  501    0  0.00000000000E+00 -0.00000000000E+00 -0.11852181615E+04  0.11852181615E+04  0.50400000000E-02 0. -1.
    8880023    1    1    2    0    0  0.43633838000E+03  0.49056708723E+03 -0.62823481834E+03  0.11222907120E+04  0.65864270000E+03 0.  0.
    8880022    1    1    2    0    0 -0.43633838000E+03 -0.49056708723E+03  0.56580327246E+02  0.67649111996E+03  0.15294330000E+03 0.  0.
<mgrwt>
<rscale>  0 0.85810145E+03</rscale>
<asrwt>0</asrwt>
<pdfrwt beam="1">  1        1 0.18234125E+00 0.92997713E+03</pdfrwt>
<pdfrwt beam="2">  1       -1 0.94394411E-01 0.92997713E+03</pdfrwt>
<totfact> 0.12031019E+01</totfact>
</mgrwt>
</event>
<event>
 4    1  0.1521315E-007  0.7045756E+03  0.7818608E-02  0.9978724E-01
         -1   -1    0    0    0  501 -0.00000000000E+00  0.00000000000E+00  0.26598086276E+03  0.26598086281E+03  0.50400000000E-02 0.  1.
          1   -1    0    0  501    0  0.00000000000E+00 -0.00000000000E+00 -0.18178651306E+04  0.18178651306E+04  0.50400000000E-02 0. -1.
    8880023    1    1    2    0    0 -0.14302860800E+03 -0.20532754431E+03 -0.16338836847E+04  0.17793264693E+04  0.65864270000E+03 0. -1.
    8880022    1    1    2    0    0  0.14302860800E+03  0.20532754431E+03  0.81999416852E+02  0.30451952407E+03  0.15294330000E+03 0.  1.
<mgrwt>
<rscale>  0 0.56593064E+03</rscale>
<asrwt>0</asrwt>
<pdfrwt beam="1">  1        1 0.27967155E+00 0.70457561E+03</pdfrwt>
<pdfrwt beam="2">  1       -1 0.40920134E-01 0.70457561E+03</pdfrwt>
<totfact> 0.24152239E+01</totfact>
</mgrwt>
</event>
<event>
 4    1  0.1521315E-007  0.6743753E+03  0.7818608E-02  0.1012703E+00
          1   -1    0    0  501    0  0.00000000000E+00  0.00000000000E+00  0.34637514714E+03  0.34637514718E+03  0.50400000000E-02 0. -1.
         -1   -1    0    0    0  501 -0.00000000000E+00 -0.00000000000E+00 -0.17813487560E+04  0.17813487560E+04  0.50400000000E-02 0.  1.
    8880023    1    1    2    0    0 -0.74822889246E+01  0.14462331712E+03  0.30245827985E+01  0.67438211933E+03  0.65864270000E+03 0. -1.
    8880022    1    1    2    0    0  0.74822889246E+01 -0.14462331712E+03 -0.14379981916E+04  0.14533417838E+04  0.15294330000E+03 0.  0.
<mgrwt>
<rscale>  0 0.50414392E+03</rscale>
<asrwt>0</asrwt>
<pdfrwt beam="1">  1        1 0.53288485E-01 0.67437534E+03</pdfrwt>
<pdfrwt beam="2">  1       -1 0.27405365E+00 0.67437534E+03</pdfrwt>
<totfact> 0.37314521E+00</totfact>
</mgrwt>
</event>
<event>
 4    1  0.1521315E-007  0.6864605E+03  0.7818608E-02  0.1005882E+00
         -1   -1    0    0    0  501 -0.00000000000E+00  0.00000000000E+00  0.23690108400E+03  0.23690108405E+03  0.50400000000E-02 0.  1.
          1   -1    0    0  501    0  0.00000000000E+00 -0.00000000000E+00 -0.10777868993E+04  0.10777868993E+04  0.50400000000E-02 0. -1.
    8880023    1    1    2    0    0 -0.15002280114E+03  0.12211042661E+03 -0.81674771426E+03  0.10669136948E+04  0.65864270000E+03 0. -1.
    8880022    1    1    2    0    0  0.15002280114E+03 -0.12211042661E+03 -0.24138101070E+02  0.24777428859E+03  0.15294330000E+03 0.  0.
<mgrwt>
<rscale>  0 0.53144466E+03</rscale>
<asrwt>0</asrwt>
<pdfrwt beam="1">  1        1 0.16581337E+00 0.68646049E+03</pdfrwt>
<pdfrwt beam="2">  1       -1 0.36446321E-01 0.68646049E+03</pdfrwt>
<totfact> 0.97489415E+01</totfact>
</mgrwt>
</event>
<event>
 4    1  0.1521315E-007  0.1052711E+04  0.7818608E-02  0.9315629E-01
         -1   -1    0    0    0  501 -0.00000000000E+00  0.00000000000E+00  0.14249756114E+04  0.14249756114E+04  0.50400000000E-02 0.  1.
          1   -1    0    0  501    0  0.00000000000E+00 -0.00000000000E+00 -0.86710499193E+03  0.86710499194E+03  0.50400000000E-02 0. -1.
    8880023    1    1    2    0    0 -0.22480932553E+03 -0.78984289060E+03 -0.30007509912E+03  0.10946443697E+04  0.65864270000E+03 0.  0.
    8880022    1    1    2    0    0  0.22480932553E+03  0.78984289060E+03  0.85794571855E+03  0.11974362337E+04  0.15294330000E+03 0.  0.
<mgrwt>
<rscale>  0 0.99356666E+03</rscale>
<asrwt>0</asrwt>
<pdfrwt beam="1">  1        1 0.13340077E+00 0.10527114E+04</pdfrwt>
<pdfrwt beam="2">  1       -1 0.21922701E+00 0.10527114E+04</pdfrwt>
<totfact> 0.21550552E+00</totfact>
</mgrwt>
</event>
<event>
 4    1  0.1521315E-007  0.7240962E+03  0.7818608E-02  0.9908962E-01
         -1   -1    0    0    0  501 -0.00000000000E+00  0.00000000000E+00  0.43475839836E+03  0.43475839839E+03  0.50400000000E-02 0.  1.
          1   -1    0    0  501    0  0.00000000000E+00 -0.00000000000E+00 -0.13189402967E+04  0.13189402967E+04  0.50400000000E-02 0. -1.
    8880023    1    1    2    0    0  0.14299101624E+02  0.30050067503E+03 -0.11258547135E+04  0.13386053048E+04  0.65864270000E+03 0. -1.
    8880022    1    1    2    0    0 -0.14299101624E+02 -0.30050067503E+03  0.24167281517E+03  0.41509339022E+03  0.15294330000E+03 0.  0.
<mgrwt>
<rscale>  0 0.59828916E+03</rscale>
<asrwt>0</asrwt>
<pdfrwt beam="1">  1        1 0.20291389E+00 0.72409621E+03</pdfrwt>
<pdfrwt beam="2">  1       -1 0.66885908E-01 0.72409621E+03</pdfrwt>
<totfact> 0.20565826E+01</totfact>
</mgrwt>
</event>
<event>
 4    1  0.1521315E-007  0.6745055E+03  0.7818608E-02  0.1012620E+00
         -1   -1    0    0    0  501 -0.00000000000E+00  0.00000000000E+00  0.17664544566E+03  0.17664544573E+03  0.50400000000E-02 0.  1.
          1   -1    0    0  501    0  0.00000000000E+00 -0.00000000000E+00 -0.35462951412E+04  0.35462951412E+04  0.50400000000E-02 0. -1.
    8880023    1    1    2    0    0  0.12195245916E+03  0.79215491279E+02 -0.34361050065E+04  0.35016817843E+04  0.65864270000E+03 0. -1.
    8880022    1    1    2    0    0 -0.12195245916E+03 -0.79215491279E+02  0.66455311020E+02  0.22125880261E+03  0.15294330000E+03 0.  0.
<mgrwt>
<rscale>  0 0.50446597E+03</rscale>
<asrwt>0</asrwt>
<pdfrwt beam="1">  1        1 0.54558382E+00 0.67450552E+03</pdfrwt>
<pdfrwt beam="2">  1       -1 0.27176225E-01 0.67450552E+03</pdfrwt>
<totfact> 0.30662371E+00</totfact>
</mgrwt>
</event>
<event>
 4    1  0.1521315E-007  0.6766866E+03  0.7818608E-02  0.1011264E+00
          1   -1    0    0  501    0  0.00000000000E+00  0.00000000000E+00  0.90896343454E+03  0.90896343455E+03  0.50400000000E-02 0. -1.
         -1   -1    0    0    0  501 -0.00000000000E+00 -0.00000000000E+00 -0.63862171299E+03  0.63862171301E+03  0.50400000000E-02 0.  1.
    8880023    1    1    2    0    0 -0.70115333508E+01 -0.15506558535E+03  0.75640127470E+03  0.10149126031E+04  0.65864270000E+03 0. -1.
    8880022    1    1    2    0    0  0.70115333508E+01  0.15506558535E+03 -0.48605955316E+03  0.53267254443E+03  0.15294330000E+03 0.  0.
<mgrwt>
<rscale>  0 0.50975505E+03</rscale>
<asrwt>0</asrwt>
<pdfrwt beam="1">  1        1 0.13984053E+00 0.67668656E+03</pdfrwt>
<pdfrwt beam="2">  1       -1 0.98249494E-01 0.67668656E+03</pdfrwt>
<totfact> 0.18436544E+01</totfact>
</mgrwt>
</event>
<event>
 4    1  0.1521315E-007  0.7174933E+03  0.7818608E-02  0.9931161E-01
         -1   -1    0    0    0  501 -0.00000000000E+00  0.00000000000E+00  0.79280997318E+03  0.79280997320E+03  0.50400000000E-02 0.  1.
          1   -1    0    0  501    0  0.00000000000E+00 -0.00000000000E+00 -0.10671092088E+04  0.10671092088E+04  0.50400000000E-02 0. -1.
    8880023    1    1    2    0    0 -0.71158416639E+02  0.27554119160E+03 -0.90283233875E+03  0.11532141634E+04  0.65864270000E+03 0. -1.
    8880022    1    1    2    0    0  0.71158416639E+02 -0.27554119160E+03  0.62853310315E+03  0.70670501859E+03  0.15294330000E+03 0.  0.
<mgrwt>
<rscale>  0 0.58774587E+03</rscale>
<asrwt>0</asrwt>
<pdfrwt beam="1">  1        1 0.16417065E+00 0.71749333E+03</pdfrwt>
<pdfrwt beam="2">  1       -1 0.12197076E+00 0.71749333E+03</pdfrwt>
<totfact> 0.82991075E+00</totfact>
</mgrwt>
</event>
<event>
 4    1  0.1521315E-007  0.7466133E+03  0.7818608E-02  0.9841085E-01
         -1   -1    0    0    0  501 -0.00000000000E+00  0.00000000000E+00  0.50080428565E+03  0.50080428567E+03  0.50400000000E-02 0.  1.
          1   -1    0    0  501    0  0.00000000000E+00 -0.00000000000E+00 -0.18409981757E+04  0.18409981757E+04  0.50400000000E-02 0. -1.
    8880023    1    1    2    0    0 -0.14033765592E+03  0.32237642218E+03 -0.16743074036E+04  0.18332312193E+04  0.65864270000E+03 0. -1.
    8880022    1    1    2    0    0  0.14033765592E+03 -0.32237642218E+03  0.33411351362E+03  0.50857124206E+03  0.15294330000E+03 0.  0.
<mgrwt>
<rscale>  0 0.63203512E+03</rscale>
<asrwt>0</asrwt>
<pdfrwt beam="1">  1        1 0.28323048E+00 0.74661330E+03</pdfrwt>
<pdfrwt beam="2">  1       -1 0.77046814E-01 0.74661330E+03</pdfrwt>
<totfact> 0.67535609E+00</totfact>
</mgrwt>
</event>
<event>
 4    1  0.1521315E-007  0.7020213E+03  0.7818608E-02  0.9988917E-01
          1   -1    0    0  501    0  0.00000000000E+00  0.00000000000E+00  0.19688082604E+04  0.19688082604E+04  0.50400000000E-02 0. -1.
         -1   -1    0    0    0  501 -0.00000000000E+00 -0.00000000000E+00 -0.17131953400E+03  0.17131953408E+03  0.50400000000E-02 0.  1.
    8880023    1    1    2    0    0  0.21944598164E+03 -0.10424544798E+03  0.16961427145E+04  0.18356835148E+04  0.65864270000E+03 0. -1.
    8880022    1    1    2    0    0 -0.21944598164E+03  0.10424544798E+03  0.10134601187E+03  0.30444427966E+03  0.15294330000E+03 0.  0.
<mgrwt>
<rscale>  0 0.56138872E+03</rscale>
<asrwt>0</asrwt>
<pdfrwt beam="1">  1        1 0.30289359E+00 0.70202127E+03</pdfrwt>
<pdfrwt beam="2">  1       -1 0.26356851E-01 0.70202127E+03</pdfrwt>
<totfact> 0.41638361E+01</totfact>
</mgrwt>
</event>
<event>
 4    1  0.1521315E-007  0.8963744E+03  0.7818608E-02  0.9531877E-01
         -1   -1    0    0    0  501 -0.00000000000E+00  0.00000000000E+00  0.85712970541E+03  0.85712970543E+03  0.50400000000E-02 0.  1.
          1   -1    0    0  501    0  0.00000000000E+00 -0.00000000000E+00 -0.15478544912E+04  0.15478544913E+04  0.50400000000E-02 0. -1.
    8880023    1    1    2    0    0  0.36486878806E+03  0.48636156950E+03 -0.12679352654E+04  0.15527868020E+04  0.65864270000E+03 0. -1.
    8880022    1    1    2    0    0 -0.36486878806E+03 -0.48636156950E+03  0.57721047959E+03  0.85219739471E+03  0.15294330000E+03 0.  0.
<mgrwt>
<rscale>  0 0.81973900E+03</rscale>
<asrwt>0</asrwt>
<pdfrwt beam="1">  1        1 0.23813146E+00 0.89637437E+03</pdfrwt>
<pdfrwt beam="2">  1       -1 0.13186611E+00 0.89637437E+03</pdfrwt>
<totfact> 0.30256094E+00</totfact>
</mgrwt>
</event>
<event>
 4    1  0.1521315E-007  0.6613801E+03  0.7818608E-02  0.1022785E+00
         -1   -1    0    0    0  501 -0.00000000000E+00  0.00000000000E+00  0.13236363058E+03  0.13236363068E+03  0.50400000000E-02 0.  1.
          1   -1    0    0  501    0  0.00000000000E+00 -0.00000000000E+00 -0.19490891086E+04  0.19490891086E+04  0.50400000000E-02 0. -1.
    8880023    1    1    2    0    0  0.39820495065E+02  0.45030432501E+02 -0.17983307695E+04  0.19160942499E+04  0.65864270000E+03 0. -1.
    8880022    1    1    2    0    0 -0.39820495065E+02 -0.45030432501E+02 -0.18394708456E+02  0.16535848933E+03  0.15294330000E+03 0.  0.
<mgrwt>
<rscale>  0 0.46694850E+03</rscale>
<asrwt>0</asrwt>
<pdfrwt beam="1">  1        1 0.29985984E+00 0.66138009E+03</pdfrwt>
<pdfrwt beam="2">  1       -1 0.20363637E-01 0.66138009E+03</pdfrwt>
<totfact> 0.66694396E+01</totfact>
</mgrwt>
</event>
<event>
 4    1  0.1521315E-007  0.9669836E+03  0.7818608E-02  0.9426088E-01
          1   -1    0    0  501    0  0.00000000000E+00  0.00000000000E+00  0.25321347309E+04  0.25321347309E+04  0.50400000000E-02 0. -1.
         -1   -1    0    0    0  501 -0.00000000000E+00 -0.00000000000E+00 -0.43069739438E+03  0.43069739441E+03  0.50400000000E-02 0.  1.
    8880023    1    1    2    0    0 -0.68121520894E+02 -0.70470319902E+03  0.20129022113E+04  0.22331217295E+04  0.65864270000E+03 0. -1.
    8880022    1    1    2    0    0  0.68121520894E+02  0.70470319902E+03  0.88535125230E+02  0.72971039580E+03  0.15294330000E+03 0.  0.
<mgrwt>
<rscale>  0 0.89959471E+03</rscale>
<asrwt>0</asrwt>
<pdfrwt beam="1">  1        1 0.38955919E+00 0.96698363E+03</pdfrwt>
<pdfrwt beam="2">  1       -1 0.66261138E-01 0.96698363E+03</pdfrwt>
<totfact> 0.30422686E+00</totfact>
</mgrwt>
</event>
<event>
 4    1  0.1521315E-007  0.7721879E+03  0.7818608E-02  0.9774518E-01
          1   -1    0    0  501    0  0.00000000000E+00  0.00000000000E+00  0.10987871445E+04  0.10987871445E+04  0.50400000000E-02 0. -1.
         -1   -1    0    0    0  501 -0.00000000000E+00 -0.00000000000E+00 -0.54100937646E+03  0.54100937648E+03  0.50400000000E-02 0.  1.
    8880023    1    1    2    0    0  0.16718022798E+03 -0.36676242023E+03  0.82705402360E+03  0.11315000953E+04  0.65864270000E+03 0. -1.
    8880022    1    1    2    0    0 -0.16718022798E+03  0.36676242023E+03 -0.26927625555E+03  0.50829642566E+03  0.15294330000E+03 0.  0.
<mgrwt>
<rscale>  0 0.66748141E+03</rscale>
<asrwt>0</asrwt>
<pdfrwt beam="1">  1        1 0.16904417E+00 0.77218787E+03</pdfrwt>
<pdfrwt beam="2">  1       -1 0.83232213E-01 0.77218787E+03</pdfrwt>
<totfact> 0.18707438E+01</totfact>
</mgrwt>
</event>
<event>
 4    1  0.1521315E-007  0.9218576E+03  0.7818608E-02  0.9491817E-01
         -1   -1    0    0    0  501 -0.00000000000E+00  0.00000000000E+00  0.59702185897E+03  0.59702185899E+03  0.50400000000E-02 0.  1.
          1   -1    0    0  501    0  0.00000000000E+00 -0.00000000000E+00 -0.17292119283E+04  0.17292119283E+04  0.50400000000E-02 0. -1.
    8880023    1    1    2    0    0 -0.89608089231E+02  0.63873443658E+03 -0.13445038513E+04  0.16301877507E+04  0.65864270000E+03 0.  0.
    8880022    1    1    2    0    0  0.89608089231E+02 -0.63873443658E+03  0.21231378191E+03  0.69604603664E+03  0.15294330000E+03 0.  0.
<mgrwt>
<rscale>  0 0.84889849E+03</rscale>
<asrwt>0</asrwt>
<pdfrwt beam="1">  1        1 0.26603260E+00 0.92185763E+03</pdfrwt>
<pdfrwt beam="2">  1       -1 0.91849517E-01 0.92185763E+03</pdfrwt>
<totfact> 0.53520873E+00</totfact>
</mgrwt>
</event>
<event>
 4    1  0.1521315E-007  0.1163135E+04  0.7818608E-02  0.9193818E-01
         -1   -1    0    0    0  501 -0.00000000000E+00  0.00000000000E+00  0.79149484394E+03  0.79149484395E+03  0.50400000000E-02 0.  1.
          1   -1    0    0  501    0  0.00000000000E+00 -0.00000000000E+00 -0.15233510950E+04  0.15233510950E+04  0.50400000000E-02 0. -1.
    8880023    1    1    2    0    0 -0.35433392570E+03  0.89079780021E+03 -0.12467412167E+03  0.11697978862E+04  0.65864270000E+03 0.  0.
    8880022    1    1    2    0    0  0.35433392570E+03 -0.89079780021E+03 -0.60718212937E+03  0.11450480527E+04  0.15294330000E+03 0.  0.
<mgrwt>
<rscale>  0 0.11117466E+04</rscale>
<asrwt>0</asrwt>
<pdfrwt beam="1">  1        1 0.23436171E+00 0.11631352E+04</pdfrwt>
<pdfrwt beam="2">  1       -1 0.12176844E+00 0.11631352E+04</pdfrwt>
<totfact> 0.37132477E+00</totfact>
</mgrwt>
</event>
<event>
 4    1  0.1521315E-007  0.6713171E+03  0.7818608E-02  0.1014736E+00
          1   -1    0    0  501    0  0.00000000000E+00  0.00000000000E+00  0.38571200589E+03  0.38571200592E+03  0.50400000000E-02 0. -1.
         -1   -1    0    0    0  501 -0.00000000000E+00 -0.00000000000E+00 -0.86285988618E+03  0.86285988619E+03  0.50400000000E-02 0.  1.
    8880023    1    1    2    0    0  0.12351246831E+03 -0.40013136380E+02  0.61158035900E+02  0.67409709429E+03  0.65864270000E+03 0.  0.
    8880022    1    1    2    0    0 -0.12351246831E+03  0.40013136380E+02 -0.53830591619E+03  0.57447479782E+03  0.15294330000E+03 0.  1.
<mgrwt>
<rscale>  0 0.49635093E+03</rscale>
<asrwt>0</asrwt>
<pdfrwt beam="1">  1        1 0.59340309E-01 0.67131705E+03</pdfrwt>
<pdfrwt beam="2">  1       -1 0.13274767E+00 0.67131705E+03</pdfrwt>
<totfact> 0.31226477E+01</totfact>
</mgrwt>
</event>
<event>
 4    1  0.1521315E-007  0.1282400E+04  0.7818608E-02  0.9080909E-01
          1   -1    0    0  501    0  0.00000000000E+00  0.00000000000E+00  0.31794528432E+04  0.31794528432E+04  0.50400000000E-02 0. -1.
         -1   -1    0    0    0  501 -0.00000000000E+00 -0.00000000000E+00 -0.54354364141E+03  0.54354364143E+03  0.50400000000E-02 0.  1.
    8880023    1    1    2    0    0  0.53281769644E+03 -0.96272803636E+03  0.21651980748E+04  0.25164723084E+04  0.65864270000E+03 0.  0.
    8880022    1    1    2    0    0 -0.53281769644E+03  0.96272803636E+03  0.47071112693E+03  0.12065241762E+04  0.15294330000E+03 0.  0.
<mgrwt>
<rscale>  0 0.12371942E+04</rscale>
<asrwt>0</asrwt>
<pdfrwt beam="1">  1        1 0.48914660E+00 0.12824002E+04</pdfrwt>
<pdfrwt beam="2">  1       -1 0.83622097E-01 0.12824002E+04</pdfrwt>
<totfact> 0.61780651E-01</totfact>
</mgrwt>
</event>
<event>
 4    1  0.1521315E-007  0.9436958E+03  0.7818608E-02  0.9459243E-01
          1   -1    0    0  501    0  0.00000000000E+00  0.00000000000E+00  0.34161027817E+04  0.34161027817E+04  0.50400000000E-02 0. -1.
         -1   -1    0    0    0  501 -0.00000000000E+00 -0.00000000000E+00 -0.22104370794E+03  0.22104370799E+03  0.50400000000E-02 0.  1.
    8880023    1    1    2    0    0 -0.67209340704E+03  0.71007541397E+02  0.24200588064E+04  0.25975462367E+04  0.65864270000E+03 0.  1.
    8880022    1    1    2    0    0  0.67209340704E+03 -0.71007541397E+02  0.77500026730E+03  0.10396002530E+04  0.15294330000E+03 0.  0.
<mgrwt>
<rscale>  0 0.87356532E+03</rscale>
<asrwt>0</asrwt>
<pdfrwt beam="1">  1        1 0.52555427E+00 0.94369583E+03</pdfrwt>
<pdfrwt beam="2">  1       -1 0.34006725E-01 0.94369583E+03</pdfrwt>
<totfact> 0.24818298E+00</totfact>
</mgrwt>
</event>
<event>
 4    1  0.1521315E-007  0.7520654E+03  0.7818608E-02  0.9826100E-01
          1   -1    0    0  501    0  0.00000000000E+00  0.00000000000E+00  0.10345503716E+04  0.10345503716E+04  0.50400000000E-02 0. -1.
         -1   -1    0    0    0  501 -0.00000000000E+00 -0.00000000000E+00 -0.39248988970E+03  0.39248988974E+03  0.50400000000E-02 0.  1.
    8880023    1    1    2    0    0  0.31998692253E+03 -0.17146604251E+03  0.70174000547E+03  0.10286114309E+04  0.65864270000E+03 0. -1.
    8880022    1    1    2    0    0 -0.31998692253E+03  0.17146604251E+03 -0.59679523597E+02  0.39842883038E+03  0.15294330000E+03 0.  0.
<mgrwt>
<rscale>  0 0.63980489E+03</rscale>
<asrwt>0</asrwt>
<pdfrwt beam="1">  1        1 0.15916159E+00 0.75206545E+03</pdfrwt>
<pdfrwt beam="2">  1       -1 0.60383061E-01 0.75206545E+03</pdfrwt>
<totfact> 0.40562857E+01</totfact>
</mgrwt>
</event>
<event>
 4    1  0.1521315E-007  0.8131874E+03  0.7818608E-02  0.9682975E-01
         -1   -1    0    0    0  501 -0.00000000000E+00  0.00000000000E+00  0.52538148739E+03  0.52538148741E+03  0.50400000000E-02 0.  1.
          1   -1    0    0  501    0  0.00000000000E+00 -0.00000000000E+00 -0.18204139020E+04  0.18204139020E+04  0.50400000000E-02 0. -1.
    8880023    1    1    2    0    0  0.46287787756E+03  0.11492458862E+03 -0.15746100305E+04  0.17721937098E+04  0.65864270000E+03 0.  0.
    8880022    1    1    2    0    0 -0.46287787756E+03 -0.11492458862E+03  0.27957761586E+03  0.57360167966E+03  0.15294330000E+03 0.  0.
<mgrwt>
<rscale>  0 0.72039533E+03</rscale>
<asrwt>0</asrwt>
<pdfrwt beam="1">  1        1 0.28006367E+00 0.81318743E+03</pdfrwt>
<pdfrwt beam="2">  1       -1 0.80827922E-01 0.81318743E+03</pdfrwt>
<totfact> 0.62332953E+00</totfact>
</mgrwt>
</event>
<event>
 4    1  0.1521315E-007  0.6911408E+03  0.7818608E-02  0.1003615E+00
         -1   -1    0    0    0  501 -0.00000000000E+00  0.00000000000E+00  0.66771550491E+03  0.66771550493E+03  0.50400000000E-02 0.  1.
          1   -1    0    0  501    0  0.00000000000E+00 -0.00000000000E+00 -0.71624884522E+03  0.71624884524E+03  0.50400000000E-02 0. -1.
    8880023    1    1    2    0    0 -0.19204366336E+03 -0.83573979245E+02 -0.50704759370E+03  0.85718892152E+03  0.65864270000E+03 0. -1.
    8880022    1    1    2    0    0  0.19204366336E+03  0.83573979245E+02  0.45851425339E+03  0.52677542864E+03  0.15294330000E+03 0.  0.
<mgrwt>
<rscale>  0 0.54093129E+03</rscale>
<asrwt>0</asrwt>
<pdfrwt beam="1">  1        1 0.11019213E+00 0.69114079E+03</pdfrwt>
<pdfrwt beam="2">  1       -1 0.10272546E+00 0.69114079E+03</pdfrwt>
<totfact> 0.24339653E+01</totfact>
</mgrwt>
</event>
<event>
 4    1  0.1521315E-007  0.9724367E+03  0.7818608E-02  0.9418542E-01
         -1   -1    0    0    0  501 -0.00000000000E+00  0.00000000000E+00  0.16376400877E+04  0.16376400877E+04  0.50400000000E-02 0.  1.
          1   -1    0    0  501    0  0.00000000000E+00 -0.00000000000E+00 -0.14329196126E+04  0.14329196126E+04  0.50400000000E-02 0. -1.
    8880023    1    1    2    0    0  0.52284618988E+03 -0.48831831706E+03 -0.11651156489E+04  0.15176058772E+04  0.65864270000E+03 0. -1.
    8880022    1    1    2    0    0 -0.52284618988E+03  0.48831831706E+03  0.13698361240E+04  0.15529538231E+04  0.15294330000E+03 0.  0.
<mgrwt>
<rscale>  0 0.90565334E+03</rscale>
<asrwt>0</asrwt>
<pdfrwt beam="1">  1        1 0.22044917E+00 0.97243669E+03</pdfrwt>
<pdfrwt beam="2">  1       -1 0.25194463E+00 0.97243669E+03</pdfrwt>
<totfact> 0.50092602E-01</totfact>
</mgrwt>
</event>
<event>
 4    1  0.1521315E-007  0.8607502E+03  0.7818608E-02  0.9592230E-01
          1   -1    0    0  501    0  0.00000000000E+00  0.00000000000E+00  0.57384704161E+03  0.57384704164E+03  0.50400000000E-02 0. -1.
         -1   -1    0    0    0  501 -0.00000000000E+00 -0.00000000000E+00 -0.15609187020E+04  0.15609187020E+04  0.50400000000E-02 0.  1.
    8880023    1    1    2    0    0  0.14869998714E+03  0.53382493059E+03  0.13761086030E+03  0.87168096104E+03  0.65864270000E+03 0.  0.
    8880022    1    1    2    0    0 -0.14869998714E+03 -0.53382493059E+03 -0.11246825207E+04  0.12630847826E+04  0.15294330000E+03 0.  1.
<mgrwt>
<rscale>  0 0.77812570E+03</rscale>
<asrwt>0</asrwt>
<pdfrwt beam="1">  1        1 0.88284161E-01 0.86075022E+03</pdfrwt>
<pdfrwt beam="2">  1       -1 0.24014134E+00 0.86075022E+03</pdfrwt>
<totfact> 0.30288101E+00</totfact>
</mgrwt>
</event>
<event>
 4    1  0.1521315E-007  0.6697513E+03  0.7818608E-02  0.1015842E+00
         -1   -1    0    0    0  501 -0.00000000000E+00  0.00000000000E+00  0.85934137092E+03  0.85934137093E+03  0.50400000000E-02 0.  1.
          1   -1    0    0  501    0  0.00000000000E+00 -0.00000000000E+00 -0.65917707251E+03  0.65917707253E+03  0.50400000000E-02 0. -1.
    8880023    1    1    2    0    0  0.11898126323E+03  0.24497122398E+02 -0.47147391453E+03  0.81905708492E+03  0.65864270000E+03 0. -1.
    8880022    1    1    2    0    0 -0.11898126323E+03 -0.24497122398E+02  0.67163821294E+03  0.69946135855E+03  0.15294330000E+03 0.  0.
<mgrwt>
<rscale>  0 0.49217505E+03</rscale>
<asrwt>0</asrwt>
<pdfrwt beam="1">  1        1 0.10141186E+00 0.66975134E+03</pdfrwt>
<pdfrwt beam="2">  1       -1 0.13220636E+00 0.66975134E+03</pdfrwt>
<totfact> 0.15055297E+01</totfact>
</mgrwt>
</event>
<event>
 4    1  0.1521315E-007  0.6833486E+03  0.7818608E-02  0.1007490E+00
          1   -1    0    0  501    0  0.00000000000E+00  0.00000000000E+00  0.48173386425E+03  0.48173386428E+03  0.50400000000E-02 0. -1.
         -1   -1    0    0    0  501 -0.00000000000E+00 -0.00000000000E+00 -0.67521364108E+03  0.67521364110E+03  0.50400000000E-02 0.  1.
    8880023    1    1    2    0    0  0.10661327604E+03 -0.14760987559E+03  0.18681715479E+03  0.70842495833E+03  0.65864270000E+03 0. -1.
    8880022    1    1    2    0    0 -0.10661327604E+03  0.14760987559E+03 -0.38029693161E+03  0.44852254705E+03  0.15294330000E+03 0.  0.
<mgrwt>
<rscale>  0 0.52484691E+03</rscale>
<asrwt>0</asrwt>
<pdfrwt beam="1">  1        1 0.74112902E-01 0.68334857E+03</pdfrwt>
<pdfrwt beam="2">  1       -1 0.10387902E+00 0.68334857E+03</pdfrwt>
<totfact> 0.41885058E+01</totfact>
</mgrwt>
</event>
<event>
 4    1  0.1521315E-007  0.6659027E+03  0.7818608E-02  0.1018788E+00
         -1   -1    0    0    0  501 -0.00000000000E+00  0.00000000000E+00  0.77787057388E+03  0.77787057389E+03  0.50400000000E-02 0.  1.
          1   -1    0    0  501    0  0.00000000000E+00 -0.00000000000E+00 -0.25563121771E+03  0.25563121776E+03  0.50400000000E-02 0. -1.
    8880023    1    1    2    0    0  0.90546214496E+02 -0.37651194058E+02  0.26084176270E+03  0.71516771516E+03  0.65864270000E+03 0. -1.
    8880022    1    1    2    0    0 -0.90546214496E+02  0.37651194058E+02  0.26139759346E+03  0.31833407649E+03  0.15294330000E+03 0.  0.
<mgrwt>
<rscale>  0 0.48126613E+03</rscale>
<asrwt>0</asrwt>
<pdfrwt beam="1">  1        1 0.39327880E-01 0.66590272E+03</pdfrwt>
<pdfrwt beam="2">  1       -1 0.11967240E+00 0.66590272E+03</pdfrwt>
<totfact> 0.68956365E+01</totfact>
</mgrwt>
</event>
<event>
 4    1  0.1521315E-007  0.6690826E+03  0.7818608E-02  0.1016329E+00
          1   -1    0    0  501    0  0.00000000000E+00  0.00000000000E+00  0.13492457330E+04  0.13492457330E+04  0.50400000000E-02 0. -1.
         -1   -1    0    0    0  501 -0.00000000000E+00 -0.00000000000E+00 -0.16199836458E+03  0.16199836466E+03  0.50400000000E-02 0.  1.
    8880023    1    1    2    0    0 -0.11740565471E+03 -0.87912254074E+01  0.62045131946E+03  0.91248639413E+03  0.65864270000E+03 0.  0.
    8880022    1    1    2    0    0  0.11740565471E+03  0.87912254074E+01  0.56679604899E+03  0.59875770356E+03  0.15294330000E+03 0.  0.
<mgrwt>
<rscale>  0 0.49034869E+03</rscale>
<asrwt>0</asrwt>
<pdfrwt beam="1">  1        1 0.20757627E+00 0.66908264E+03</pdfrwt>
<pdfrwt beam="2">  1       -1 0.24922825E-01 0.66908264E+03</pdfrwt>
<totfact> 0.12066176E+02</totfact>
</mgrwt>
</event>
<event>
 4    1  0.1521315E-007  0.9314832E+03  0.7818608E-02  0.9477272E-01
         -1   -1    0    0    0  501 -0.00000000000E+00  0.00000000000E+00  0.51473635681E+03  0.51473635684E+03  0.50400000000E-02 0.  1.
          1   -1    0    0  501    0  0.00000000000E+00 -0.00000000000E+00 -0.26217908303E+04  0.26217908303E+04  0.50400000000E-02 0. -1.
    8880023    1    1    2    0    0 -0.65697520752E+03  0.47268522049E+02 -0.22589638897E+04  0.24434767848E+04  0.65864270000E+03 0. -1.
    8880022    1    1    2    0    0  0.65697520752E+03 -0.47268522049E+02  0.15190941622E+03  0.69305040237E+03  0.15294330000E+03 0.  0.
<mgrwt>
<rscale>  0 0.85980423E+03</rscale>
<asrwt>0</asrwt>
<pdfrwt beam="1">  1        1 0.40335243E+00 0.93148320E+03</pdfrwt>
<pdfrwt beam="2">  1       -1 0.79190210E-01 0.93148320E+03</pdfrwt>
<totfact> 0.18326357E+00</totfact>
</mgrwt>
</event>
<event>
 4    1  0.1521315E-007  0.1001629E+04  0.7818608E-02  0.9379430E-01
          1   -1    0    0  501    0  0.00000000000E+00  0.00000000000E+00  0.18489394896E+04  0.18489394896E+04  0.50400000000E-02 0. -1.
         -1   -1    0    0    0  501 -0.00000000000E+00 -0.00000000000E+00 -0.52338697224E+03  0.52338697227E+03  0.50400000000E-02 0.  1.
    8880023    1    1    2    0    0 -0.37946807041E+03 -0.65226832854E+03  0.12453878117E+04  0.15982024267E+04  0.65864270000E+03 0.  0.
    8880022    1    1    2    0    0  0.37946807041E+03  0.65226832854E+03  0.80164705725E+02  0.77412403524E+03  0.15294330000E+03 0.  0.
<mgrwt>
<rscale>  0 0.93788034E+03</rscale>
<asrwt>0</asrwt>
<pdfrwt beam="1">  1        1 0.28445223E+00 0.10016288E+04</pdfrwt>
<pdfrwt beam="2">  1       -1 0.80521074E-01 0.10016288E+04</pdfrwt>
<totfact> 0.58592661E+00</totfact>
</mgrwt>
</event>
<event>
 4    1  0.1521315E-007  0.6755538E+03  0.7818608E-02  0.1011959E+00
          1   -1    0    0  501    0  0.00000000000E+00  0.00000000000E+00  0.31116535764E+03  0.31116535768E+03  0.50400000000E-02 0. -1.
         -1   -1    0    0    0  501 -0.00000000000E+00 -0.00000000000E+00 -0.17099855479E+04  0.17099855479E+04  0.50400000000E-02 0.  1.
    8880023    1    1    2    0    0  0.13566937852E+03 -0.64470950174E+02 -0.74564427039E+02  0.67965634237E+03  0.65864270000E+03 0. -1.
    8880022    1    1    2    0    0 -0.13566937852E+03  0.64470950174E+02 -0.13242557632E+04  0.13414945632E+04  0.15294330000E+03 0.  0.
<mgrwt>
<rscale>  0 0.50703245E+03</rscale>
<asrwt>0</asrwt>
<pdfrwt beam="1">  1        1 0.47871595E-01 0.67555377E+03</pdfrwt>
<pdfrwt beam="2">  1       -1 0.26307469E+00 0.67555377E+03</pdfrwt>
<totfact> 0.50403798E+00</totfact>
</mgrwt>
</event>
<event>
 4    1  0.1521315E-007  0.6622986E+03  0.7818608E-02  0.1021916E+00
         -1   -1    0    0    0  501 -0.00000000000E+00  0.00000000000E+00  0.11748432322E+04  0.11748432322E+04  0.50400000000E-02 0.  1.
          1   -1    0    0  501    0  0.00000000000E+00 -0.00000000000E+00 -0.57896917684E+03  0.57896917686E+03  0.50400000000E-02 0. -1.
    8880023    1    1    2    0    0 -0.68403606087E+02 -0.12256780039E+02 -0.38000969454E+03  0.76357504948E+03  0.65864270000E+03 0. -1.
    8880022    1    1    2    0    0  0.68403606087E+02  0.12256780039E+02  0.97588374992E+03  0.99023735960E+03  0.15294330000E+03 0.  0.
<mgrwt>
<rscale>  0 0.47001511E+03</rscale>
<asrwt>0</asrwt>
<pdfrwt beam="1">  1        1 0.89072182E-01 0.66229864E+03</pdfrwt>
<pdfrwt beam="2">  1       -1 0.18074511E+00 0.66229864E+03</pdfrwt>
<totfact> 0.77498777E+00</totfact>
</mgrwt>
</event>
<event>
 4    1  0.1521315E-007  0.9347737E+03  0.7818608E-02  0.9472368E-01
          1   -1    0    0  501    0  0.00000000000E+00  0.00000000000E+00  0.18317611356E+04  0.18317611356E+04  0.50400000000E-02 0. -1.
         -1   -1    0    0    0  501 -0.00000000000E+00 -0.00000000000E+00 -0.67970289203E+03  0.67970289205E+03  0.50400000000E-02 0.  1.
    8880023    1    1    2    0    0 -0.32608297578E+03 -0.57763437030E+03  0.14841958390E+04  0.17540350817E+04  0.65864270000E+03 0. -1.
    8880022    1    1    2    0    0  0.32608297578E+03  0.57763437030E+03 -0.33213759548E+03  0.75742894597E+03  0.15294330000E+03 0.  0.
<mgrwt>
<rscale>  0 0.86351997E+03</rscale>
<asrwt>0</asrwt>
<pdfrwt beam="1">  1        1 0.28180940E+00 0.93477365E+03</pdfrwt>
<pdfrwt beam="2">  1       -1 0.10456968E+00 0.93477365E+03</pdfrwt>
<totfact> 0.33925134E+00</totfact>
</mgrwt>
</event>
<event>
 4    1  0.1521315E-007  0.7766857E+03  0.7818608E-02  0.9763681E-01
         -1   -1    0    0    0  501 -0.00000000000E+00  0.00000000000E+00  0.10967823376E+04  0.10967823376E+04  0.50400000000E-02 0.  1.
          1   -1    0    0  501    0  0.00000000000E+00 -0.00000000000E+00 -0.46596123164E+03  0.46596123167E+03  0.50400000000E-02 0. -1.
    8880023    1    1    2    0    0  0.40864904302E+03  0.49360597352E+02 -0.20812638097E+02  0.77696453014E+03  0.65864270000E+03 0. -1.
    8880022    1    1    2    0    0 -0.40864904302E+03 -0.49360597352E+02  0.65163374404E+03  0.78577903912E+03  0.15294330000E+03 0.  0.
<mgrwt>
<rscale>  0 0.67348606E+03</rscale>
<asrwt>0</asrwt>
<pdfrwt beam="1">  1        1 0.71686344E-01 0.77668572E+03</pdfrwt>
<pdfrwt beam="2">  1       -1 0.16873574E+00 0.77668572E+03</pdfrwt>
<totfact> 0.12593694E+01</totfact>
</mgrwt>
</event>
<event>
 4    1  0.1521315E-007  0.6634680E+03  0.7818608E-02  0.1020855E+00
         -1   -1    0    0    0  501 -0.00000000000E+00  0.00000000000E+00  0.62009783464E+03  0.62009783466E+03  0.50400000000E-02 0.  1.
          1   -1    0    0  501    0  0.00000000000E+00 -0.00000000000E+00 -0.17051928032E+04  0.17051928032E+04  0.50400000000E-02 0. -1.
    8880023    1    1    2    0    0  0.76992394218E+02  0.21254833114E+02 -0.16267353433E+04  0.17568317165E+04  0.65864270000E+03 0. -1.
    8880022    1    1    2    0    0 -0.76992394218E+02 -0.21254833114E+02  0.54164037475E+03  0.56845892136E+03  0.15294330000E+03 0.  0.
<mgrwt>
<rscale>  0 0.47379407E+03</rscale>
<asrwt>0</asrwt>
<pdfrwt beam="1">  1        1 0.26233735E+00 0.66346801E+03</pdfrwt>
<pdfrwt beam="2">  1       -1 0.95399668E-01 0.66346801E+03</pdfrwt>
<totfact> 0.53210425E+00</totfact>
</mgrwt>
</event>
<event>
 4    1  0.1521315E-007  0.1102103E+04  0.7818608E-02  0.9258719E-01
          1   -1    0    0  501    0  0.00000000000E+00  0.00000000000E+00  0.14025741961E+04  0.14025741962E+04  0.50400000000E-02 0. -1.
         -1   -1    0    0    0  501 -0.00000000000E+00 -0.00000000000E+00 -0.11453558126E+04  0.11453558126E+04  0.50400000000E-02 0.  1.
    8880023    1    1    2    0    0 -0.88344392473E+03 -0.18628571334E+02 -0.64406914961E+03  0.12765012603E+04  0.65864270000E+03 0.  1.
    8880022    1    1    2    0    0  0.88344392473E+03  0.18628571334E+02  0.90128753319E+03  0.12714287484E+04  0.15294330000E+03 0.  0.
<mgrwt>
<rscale>  0 0.10467377E+04</rscale>
<asrwt>0</asrwt>
<pdfrwt beam="1">  1        1 0.21578064E+00 0.11021027E+04</pdfrwt>
<pdfrwt beam="2">  1       -1 0.17620859E+00 0.11021027E+04</pdfrwt>
<totfact> 0.16819314E+00</totfact>
</mgrwt>
</event>
<event>
 4    1  0.1521315E-007  0.1066650E+04  0.7818608E-02  0.9299128E-01
          1   -1    0    0  501    0  0.00000000000E+00  0.00000000000E+00  0.15670046686E+04  0.15670046686E+04  0.50400000000E-02 0. -1.
         -1   -1    0    0    0  501 -0.00000000000E+00 -0.00000000000E+00 -0.88307820402E+03  0.88307820403E+03  0.50400000000E-02 0.  1.
    8880023    1    1    2    0    0 -0.74311282739E+03 -0.38950680656E+03  0.10727544773E+04  0.15127936414E+04  0.65864270000E+03 0.  0.
    8880022    1    1    2    0    0  0.74311282739E+03  0.38950680656E+03 -0.38882801269E+03  0.93728923127E+03  0.15294330000E+03 0.  0.
<mgrwt>
<rscale>  0 0.10086314E+04</rscale>
<asrwt>0</asrwt>
<pdfrwt beam="1">  1        1 0.24107764E+00 0.10666501E+04</pdfrwt>
<pdfrwt beam="2">  1       -1 0.13585819E+00 0.10666501E+04</pdfrwt>
<totfact> 0.26575762E+00</totfact>
</mgrwt>
</event>
<event>
 4    1  0.1521315E-007  0.8370612E+03  0.7818608E-02  0.9635747E-01
          1   -1    0    0  501    0  0.00000000000E+00  0.00000000000E+00  0.19166294935E+04  0.19166294935E+04  0.50400000000E-02 0. -1.
         -1   -1    0    0    0  501 -0.00000000000E+00 -0.00000000000E+00 -0.31880912529E+03  0.31880912533E+03  0.50400000000E-02 0.  1.
    8880023    1    1    2    0    0 -0.27965465674E+03  0.43434381132E+03  0.14541450679E+04  0.16778585632E+04  0.65864270000E+03 0. -1.
    8880022    1    1    2    0    0  0.27965465674E+03 -0.43434381132E+03  0.14367530032E+03  0.55758005560E+03  0.15294330000E+03 0.  1.
<mgrwt>
<rscale>  0 0.74974744E+03</rscale>
<asrwt>0</asrwt>
<pdfrwt beam="1">  1        1 0.29486608E+00 0.83706122E+03</pdfrwt>
<pdfrwt beam="2">  1       -1 0.49047557E-01 0.83706122E+03</pdfrwt>
<totfact> 0.14552060E+01</totfact>
</mgrwt>
</event>
<event>
 4    1  0.1521315E-007  0.7369218E+03  0.7818608E-02  0.9869006E-01
         -1   -1    0    0    0  501 -0.00000000000E+00  0.00000000000E+00  0.11415885761E+04  0.11415885761E+04  0.50400000000E-02 0.  1.
          1   -1    0    0  501    0  0.00000000000E+00 -0.00000000000E+00 -0.45982729308E+03  0.45982729311E+03  0.50400000000E-02 0. -1.
    8880023    1    1    2    0    0 -0.17471499232E+03  0.28056766572E+03 -0.95479214747E+02  0.74308144257E+03  0.65864270000E+03 0. -1.
    8880022    1    1    2    0    0  0.17471499232E+03 -0.28056766572E+03  0.77724049775E+03  0.85833442663E+03  0.15294330000E+03 0.  0.
<mgrwt>
<rscale>  0 0.61787184E+03</rscale>
<asrwt>0</asrwt>
<pdfrwt beam="1">  1        1 0.70742660E-01 0.73692181E+03</pdfrwt>
<pdfrwt beam="2">  1       -1 0.17562901E+00 0.73692181E+03</pdfrwt>
<totfact> 0.11477875E+01</totfact>
</mgrwt>
</event>
<event>
 4    1  0.1521315E-007  0.1201288E+04  0.7818608E-02  0.9155872E-01
          1   -1    0    0  501    0  0.00000000000E+00  0.00000000000E+00  0.20144017243E+04  0.20144017243E+04  0.50400000000E-02 0. -1.
         -1   -1    0    0    0  501 -0.00000000000E+00 -0.00000000000E+00 -0.80356567822E+03  0.80356567823E+03  0.50400000000E-02 0.  1.
    8880023    1    1    2    0    0  0.10045902659E+04  0.89368463031E+01 -0.45430211536E+02  0.12021462390E+04  0.65864270000E+03 0.  0.
    8880022    1    1    2    0    0 -0.10045902659E+04 -0.89368463031E+01  0.12562662576E+04  0.16158211636E+04  0.15294330000E+03 0.  0.
<mgrwt>
<rscale>  0 0.11520745E+04</rscale>
<asrwt>0</asrwt>
<pdfrwt beam="1">  1        1 0.30990795E+00 0.12012875E+04</pdfrwt>
<pdfrwt beam="2">  1       -1 0.12362549E+00 0.12012875E+04</pdfrwt>
<totfact> 0.16497445E+00</totfact>
</mgrwt>
</event>
<event>
 4    1  0.1521315E-007  0.7357103E+03  0.7818608E-02  0.9872624E-01
          1   -1    0    0  501    0  0.00000000000E+00  0.00000000000E+00  0.34019050224E+03  0.34019050228E+03  0.50400000000E-02 0. -1.
         -1   -1    0    0    0  501 -0.00000000000E+00 -0.00000000000E+00 -0.18594018893E+04  0.18594018893E+04  0.50400000000E-02 0.  1.
    8880023    1    1    2    0    0  0.14695830906E+03  0.29302327321E+03 -0.10901827783E+03  0.74374362142E+03  0.65864270000E+03 0. -1.
    8880022    1    1    2    0    0 -0.14695830906E+03 -0.29302327321E+03 -0.14101931092E+04  0.14558487702E+04  0.15294330000E+03 0.  0.
<mgrwt>
<rscale>  0 0.61606602E+03</rscale>
<asrwt>0</asrwt>
<pdfrwt beam="1">  1        1 0.52337001E-01 0.73571026E+03</pdfrwt>
<pdfrwt beam="2">  1       -1 0.28606182E+00 0.73571026E+03</pdfrwt>
<totfact> 0.31709830E+00</totfact>
</mgrwt>
</event>
<event>
 4    1  0.1521315E-007  0.6957642E+03  0.7818608E-02  0.1001525E+00
         -1   -1    0    0    0  501 -0.00000000000E+00  0.00000000000E+00  0.11291077942E+03  0.11291077953E+03  0.50400000000E-02 0.  1.
          1   -1    0    0  501    0  0.00000000000E+00 -0.00000000000E+00 -0.36285740018E+04  0.36285740018E+04  0.50400000000E-02 0. -1.
    8880023    1    1    2    0    0  0.16845240232E+03  0.14799122592E+03 -0.33543441554E+04  0.34257426251E+04  0.65864270000E+03 0.  1.
    8880022    1    1    2    0    0 -0.16845240232E+03 -0.14799122592E+03 -0.16131906700E+03  0.31574215618E+03  0.15294330000E+03 0.  0.
<mgrwt>
<rscale>  0 0.54986662E+03</rscale>
<asrwt>0</asrwt>
<pdfrwt beam="1">  1        1 0.55824206E+00 0.69576420E+03</pdfrwt>
<pdfrwt beam="2">  1       -1 0.17370892E-01 0.69576420E+03</pdfrwt>
<totfact> 0.55755483E+00</totfact>
</mgrwt>
</event>
<event>
 4    1  0.1521315E-007  0.1024360E+04  0.7818608E-02  0.9350359E-01
         -1   -1    0    0    0  501 -0.00000000000E+00  0.00000000000E+00  0.13883534767E+04  0.13883534768E+04  0.50400000000E-02 0.  1.
          1   -1    0    0  501    0  0.00000000000E+00 -0.00000000000E+00 -0.86861756305E+03  0.86861756307E+03  0.50400000000E-02 0. -1.
    8880023    1    1    2    0    0  0.58683311582E+03  0.52070138419E+03 -0.34358221692E+03  0.10804452709E+04  0.65864270000E+03 0. -1.
    8880022    1    1    2    0    0 -0.58683311582E+03 -0.52070138419E+03  0.86331813061E+03  0.11765257689E+04  0.15294330000E+03 0.  0.
<mgrwt>
<rscale>  0 0.96276012E+03</rscale>
<asrwt>0</asrwt>
<pdfrwt beam="1">  1        1 0.13363347E+00 0.10243599E+04</pdfrwt>
<pdfrwt beam="2">  1       -1 0.21359284E+00 0.10243599E+04</pdfrwt>
<totfact> 0.23524641E+00</totfact>
</mgrwt>
</event>
<event>
 4    1  0.1521315E-007  0.7127592E+03  0.7818608E-02  0.9947894E-01
         -1   -1    0    0    0  501 -0.00000000000E+00  0.00000000000E+00  0.13757298668E+03  0.13757298677E+03  0.50400000000E-02 0.  1.
          1   -1    0    0  501    0  0.00000000000E+00 -0.00000000000E+00 -0.23536216308E+04  0.23536216308E+04  0.50400000000E-02 0. -1.
    8880023    1    1    2    0    0 -0.25389481616E+03  0.98756463335E+02 -0.95286142642E+03  0.11899455958E+04  0.65864270000E+03 0.  1.
    8880022    1    1    2    0    0  0.25389481616E+03 -0.98756463335E+02 -0.12631872177E+04  0.13012490218E+04  0.15294330000E+03 0.  0.
<mgrwt>
<rscale>  0 0.57995229E+03</rscale>
<asrwt>0</asrwt>
<pdfrwt beam="1">  1        1 0.36209561E+00 0.71275916E+03</pdfrwt>
<pdfrwt beam="2">  1       -1 0.21165077E-01 0.71275916E+03</pdfrwt>
<totfact> 0.33288873E+01</totfact>
</mgrwt>
</event>
<event>
 4    1  0.1521315E-007  0.8865765E+03  0.7818608E-02  0.9547934E-01
         -1   -1    0    0    0  501 -0.00000000000E+00  0.00000000000E+00  0.11216575159E+04  0.11216575159E+04  0.50400000000E-02 0.  1.
          1   -1    0    0  501    0  0.00000000000E+00 -0.00000000000E+00 -0.97960263912E+03  0.97960263913E+03  0.50400000000E-02 0. -1.
    8880023    1    1    2    0    0 -0.50058853738E+03 -0.31877696858E+03 -0.65033280560E+03  0.10995228982E+04  0.65864270000E+03 0. -1.
    8880022    1    1    2    0    0  0.50058853738E+03  0.31877696858E+03  0.79238768241E+03  0.10017372568E+04  0.15294330000E+03 0.  0.
<mgrwt>
<rscale>  0 0.80840269E+03</rscale>
<asrwt>0</asrwt>
<pdfrwt beam="1">  1        1 0.15070810E+00 0.88657647E+03</pdfrwt>
<pdfrwt beam="2">  1       -1 0.17256270E+00 0.88657647E+03</pdfrwt>
<totfact> 0.37647219E+00</totfact>
</mgrwt>
</event>
<event>
 4    1  0.1521315E-007  0.1408405E+04  0.7818608E-02  0.8977180E-01
         -1   -1    0    0    0  501 -0.00000000000E+00  0.00000000000E+00  0.10059085008E+04  0.10059085008E+04  0.50400000000E-02 0.  1.
          1   -1    0    0  501    0  0.00000000000E+00 -0.00000000000E+00 -0.40936702651E+04  0.40936702651E+04  0.50400000000E-02 0. -1.
    8880023    1    1    2    0    0 -0.93001625335E+03  0.82756441166E+03  0.34058242830E+03  0.14489995458E+04  0.65864270000E+03 0.  1.
    8880022    1    1    2    0    0  0.93001625335E+03 -0.82756441166E+03 -0.34283441926E+04  0.36505792202E+04  0.15294330000E+03 0.  0.
<mgrwt>
<rscale>  0 0.13681793E+04</rscale>
<asrwt>0</asrwt>
<pdfrwt beam="1">  1        1 0.62979542E+00 0.14084045E+04</pdfrwt>
<pdfrwt beam="2">  1       -1 0.15475516E+00 0.14084045E+04</pdfrwt>
<totfact> 0.24796651E-02</totfact>
</mgrwt>
</event>
<event>
 4    1  0.1521315E-007  0.8805123E+03  0.7818608E-02  0.9558069E-01
         -1   -1    0    0    0  501 -0.00000000000E+00  0.00000000000E+00  0.54976905191E+03  0.54976905193E+03  0.50400000000E-02 0.  1.
          1   -1    0    0  501    0  0.00000000000E+00 -0.00000000000E+00 -0.13504477655E+04  0.13504477655E+04  0.50400000000E-02 0. -1.
    8880023    1    1    2    0    0  0.58046993784E+03  0.67426887874E+02  0.20554937793E+02  0.88075220447E+03  0.65864270000E+03 0.  0.
    8880022    1    1    2    0    0 -0.58046993784E+03 -0.67426887874E+02 -0.82123365141E+03  0.10194646130E+04  0.15294330000E+03 0.  0.
<mgrwt>
<rscale>  0 0.80134741E+03</rscale>
<asrwt>0</asrwt>
<pdfrwt beam="1">  1        1 0.20776119E+00 0.88051232E+03</pdfrwt>
<pdfrwt beam="2">  1       -1 0.84579854E-01 0.88051232E+03</pdfrwt>
<totfact> 0.11732842E+01</totfact>
</mgrwt>
</event>
<event>
 4    1  0.1521315E-007  0.6596842E+03  0.7818608E-02  0.1024482E+00
          1   -1    0    0  501    0  0.00000000000E+00  0.00000000000E+00  0.19359118499E+03  0.19359118505E+03  0.50400000000E-02 0. -1.
         -1   -1    0    0    0  501 -0.00000000000E+00 -0.00000000000E+00 -0.14281246227E+04  0.14281246227E+04  0.50400000000E-02 0.  1.
    8880023    1    1    2    0    0 -0.16076073715E+01  0.37019140786E+02 -0.39786488197E+03  0.77037631827E+03  0.65864270000E+03 0. -1.
    8880022    1    1    2    0    0  0.16076073715E+01 -0.37019140786E+02 -0.83666855570E+03  0.85133948945E+03  0.15294330000E+03 0.  0.
<mgrwt>
<rscale>  0 0.46103201E+03</rscale>
<asrwt>0</asrwt>
<pdfrwt beam="1">  1        1 0.29783260E-01 0.65968417E+03</pdfrwt>
<pdfrwt beam="2">  1       -1 0.21971147E+00 0.65968417E+03</pdfrwt>
<totfact> 0.17824704E+01</totfact>
</mgrwt>
</event>
<event>
 4    1  0.1521315E-007  0.9207548E+03  0.7818608E-02  0.9493503E-01
          1   -1    0    0  501    0  0.00000000000E+00  0.00000000000E+00  0.21761241074E+04  0.21761241074E+04  0.50400000000E-02 0. -1.
         -1   -1    0    0    0  501 -0.00000000000E+00 -0.00000000000E+00 -0.55198554272E+03  0.55198554274E+03  0.50400000000E-02 0.  1.
    8880023    1    1    2    0    0  0.58518575232E+03 -0.26746363609E+03  0.18189126004E+04  0.20386839910E+04  0.65864270000E+03 0. -1.
    8880022    1    1    2    0    0 -0.58518575232E+03  0.26746363609E+03 -0.19477403572E+03  0.68942565905E+03  0.15294330000E+03 0.  0.
<mgrwt>
<rscale>  0 0.84764540E+03</rscale>
<asrwt>0</asrwt>
<pdfrwt beam="1">  1        1 0.33478833E+00 0.92075478E+03</pdfrwt>
<pdfrwt beam="2">  1       -1 0.84920851E-01 0.92075478E+03</pdfrwt>
<totfact> 0.31816785E+00</totfact>
</mgrwt>
</event>
<event>
 4    1  0.1521315E-007  0.9115966E+03  0.7818608E-02  0.9507666E-01
          1   -1    0    0  501    0  0.00000000000E+00  0.00000000000E+00  0.16134413438E+04  0.16134413438E+04  0.50400000000E-02 0. -1.
         -1   -1    0    0    0  501 -0.00000000000E+00 -0.00000000000E+00 -0.70567133500E+03  0.70567133502E+03  0.50400000000E-02 0.  1.
    8880023    1    1    2    0    0  0.12480956643E+03 -0.61775465833E+03  0.12799371258E+04  0.15713839435E+04  0.65864270000E+03 0. -1.
    8880022    1    1    2    0    0 -0.12480956643E+03  0.61775465833E+03 -0.37216711692E+03  0.74772873536E+03  0.15294330000E+03 0.  0.
<mgrwt>
<rscale>  0 0.83720998E+03</rscale>
<asrwt>0</asrwt>
<pdfrwt beam="1">  1        1 0.24822174E+00 0.91159665E+03</pdfrwt>
<pdfrwt beam="2">  1       -1 0.10856482E+00 0.91159665E+03</pdfrwt>
<totfact> 0.43798408E+00</totfact>
</mgrwt>
</event>
<event>
 4    1  0.1521315E-007  0.7226564E+03  0.7818608E-02  0.9913698E-01
         -1   -1    0    0    0  501 -0.00000000000E+00  0.00000000000E+00  0.51846712075E+03  0.51846712078E+03  0.50400000000E-02 0.  1.
          1   -1    0    0  501    0  0.00000000000E+00 -0.00000000000E+00 -0.54412607168E+03  0.54412607171E+03  0.50400000000E-02 0. -1.
    8880023    1    1    2    0    0  0.27319901653E+03  0.11740683592E+03  0.31570118064E+02  0.72334566175E+03  0.65864270000E+03 0.  1.
    8880022    1    1    2    0    0 -0.27319901653E+03 -0.11740683592E+03 -0.57229068997E+02  0.33924753073E+03  0.15294330000E+03 0.  1.
<mgrwt>
<rscale>  0 0.59601992E+03</rscale>
<asrwt>0</asrwt>
<pdfrwt beam="1">  1        1 0.83711704E-01 0.72265640E+03</pdfrwt>
<pdfrwt beam="2">  1       -1 0.79764172E-01 0.72265640E+03</pdfrwt>
<totfact> 0.63222915E+01</totfact>
</mgrwt>
</event>
<event>
 4    1  0.1521315E-007  0.9003965E+03  0.7818608E-02  0.9525395E-01
          1   -1    0    0  501    0  0.00000000000E+00  0.00000000000E+00  0.11254557547E+04  0.11254557547E+04  0.50400000000E-02 0. -1.
         -1   -1    0    0    0  501 -0.00000000000E+00 -0.00000000000E+00 -0.13650136370E+04  0.13650136370E+04  0.50400000000E-02 0.  1.
    8880023    1    1    2    0    0 -0.61209449429E+03 -0.47370909882E+02  0.84503511664E+03  0.12348272056E+04  0.65864270000E+03 0. -1.
    8880022    1    1    2    0    0  0.61209449429E+03  0.47370909882E+02 -0.10845929990E+04  0.12556421861E+04  0.15294330000E+03 0.  0.
<mgrwt>
<rscale>  0 0.82437140E+03</rscale>
<asrwt>0</asrwt>
<pdfrwt beam="1">  1        1 0.17314704E+00 0.90039651E+03</pdfrwt>
<pdfrwt beam="2">  1       -1 0.21000210E+00 0.90039651E+03</pdfrwt>
<totfact> 0.15910304E+00</totfact>
</mgrwt>
</event>
<event>
 4    1  0.1521315E-007  0.6890131E+03  0.7818608E-02  0.1004625E+00
         -1   -1    0    0    0  501 -0.00000000000E+00  0.00000000000E+00  0.35031941310E+03  0.35031941313E+03  0.50400000000E-02 0.  1.
          1   -1    0    0  501    0  0.00000000000E+00 -0.00000000000E+00 -0.12235414448E+04  0.12235414448E+04  0.50400000000E-02 0. -1.
    8880023    1    1    2    0    0  0.95829271849E+02 -0.17817281190E+03 -0.10562413014E+04  0.12611045529E+04  0.65864270000E+03 0. -1.
    8880022    1    1    2    0    0 -0.95829271849E+02  0.17817281190E+03  0.18301926972E+03  0.31275630505E+03  0.15294330000E+03 0.  0.
<mgrwt>
<rscale>  0 0.53667854E+03</rscale>
<asrwt>0</asrwt>
<pdfrwt beam="1">  1        1 0.18823714E+00 0.68901307E+03</pdfrwt>
<pdfrwt beam="2">  1       -1 0.53895295E-01 0.68901307E+03</pdfrwt>
<totfact> 0.36946719E+01</totfact>
</mgrwt>
</event>
<event>
 4    1  0.1521315E-007  0.6682927E+03  0.7818608E-02  0.1016917E+00
          1   -1    0    0  501    0  0.00000000000E+00  0.00000000000E+00  0.12391912287E+04  0.12391912287E+04  0.50400000000E-02 0. -1.
         -1   -1    0    0    0  501 -0.00000000000E+00 -0.00000000000E+00 -0.21105390572E+03  0.21105390578E+03  0.50400000000E-02 0.  1.
    8880023    1    1    2    0    0 -0.26425490789E+02 -0.11003036909E+03  0.10641672713E+04  0.12566093968E+04  0.65864270000E+03 0.  0.
    8880022    1    1    2    0    0  0.26425490789E+02  0.11003036909E+03 -0.36029948345E+02  0.19363573761E+03  0.15294330000E+03 0. -1.
<mgrwt>
<rscale>  0 0.48815596E+03</rscale>
<asrwt>0</asrwt>
<pdfrwt beam="1">  1        1 0.19064480E+00 0.66829275E+03</pdfrwt>
<pdfrwt beam="2">  1       -1 0.32469832E-01 0.66829275E+03</pdfrwt>
<totfact> 0.91348005E+01</totfact>
</mgrwt>
</event>
<event>
 4    1  0.1521315E-007  0.6964946E+03  0.7818608E-02  0.1001207E+00
          1   -1    0    0  501    0  0.00000000000E+00  0.00000000000E+00  0.76285026141E+03  0.76285026143E+03  0.50400000000E-02 0. -1.
         -1   -1    0    0    0  501 -0.00000000000E+00 -0.00000000000E+00 -0.89544169808E+03  0.89544169810E+03  0.50400000000E-02 0.  1.
    8880023    1    1    2    0    0  0.37283022399E+02  0.22339309086E+03  0.57282079317E+03  0.90179175210E+03  0.65864270000E+03 0. -1.
    8880022    1    1    2    0    0 -0.37283022399E+02 -0.22339309086E+03 -0.70541222985E+03  0.75650020743E+03  0.15294330000E+03 0.  0.
<mgrwt>
<rscale>  0 0.55124329E+03</rscale>
<asrwt>0</asrwt>
<pdfrwt beam="1">  1        1 0.11736158E+00 0.69649458E+03</pdfrwt>
<pdfrwt beam="2">  1       -1 0.13776026E+00 0.69649458E+03</pdfrwt>
<totfact> 0.10822386E+01</totfact>
</mgrwt>
</event>
<event>
 4    1  0.1521315E-007  0.6670446E+03  0.7818608E-02  0.1017876E+00
          1   -1    0    0  501    0  0.00000000000E+00  0.00000000000E+00  0.15426143149E+04  0.15426143149E+04  0.50400000000E-02 0. -1.
         -1   -1    0    0    0  501 -0.00000000000E+00 -0.00000000000E+00 -0.29339062083E+03  0.29339062087E+03  0.50400000000E-02 0.  1.
    8880023    1    1    2    0    0  0.16489385539E+02 -0.10424207732E+03  0.14292703789E+04  0.15772641925E+04  0.65864270000E+03 0. -1.
    8880022    1    1    2    0    0 -0.16489385539E+02  0.10424207732E+03 -0.18004668484E+03  0.25874074333E+03  0.15294330000E+03 0.  0.
<mgrwt>
<rscale>  0 0.48460811E+03</rscale>
<asrwt>0</asrwt>
<pdfrwt beam="1">  1        1 0.23732528E+00 0.66704461E+03</pdfrwt>
<pdfrwt beam="2">  1       -1 0.45137019E-01 0.66704461E+03</pdfrwt>
<totfact> 0.31053066E+01</totfact>
</mgrwt>
</event>
<event>
 4    1  0.1521315E-007  0.8581998E+03  0.7818608E-02  0.9596774E-01
          1   -1    0    0  501    0  0.00000000000E+00  0.00000000000E+00  0.17233971246E+04  0.17233971246E+04  0.50400000000E-02 0. -1.
         -1   -1    0    0    0  501 -0.00000000000E+00 -0.00000000000E+00 -0.61711266651E+03  0.61711266653E+03  0.50400000000E-02 0.  1.
    8880023    1    1    2    0    0  0.35927047012E+03  0.41667912407E+03  0.14420287667E+04  0.16780804312E+04  0.65864270000E+03 0.  0.
    8880022    1    1    2    0    0 -0.35927047012E+03 -0.41667912407E+03 -0.33574430865E+03  0.66242935996E+03  0.15294330000E+03 0.  0.
<mgrwt>
<rscale>  0 0.77510091E+03</rscale>
<asrwt>0</asrwt>
<pdfrwt beam="1">  1        1 0.26513801E+00 0.85819984E+03</pdfrwt>
<pdfrwt beam="2">  1       -1 0.94940412E-01 0.85819984E+03</pdfrwt>
<totfact> 0.50608854E+00</totfact>
</mgrwt>
</event>
<event>
 4    1  0.1521315E-007  0.6618640E+03  0.7818608E-02  0.1022323E+00
          1   -1    0    0  501    0  0.00000000000E+00  0.00000000000E+00  0.23680643311E+04  0.23680643311E+04  0.50400000000E-02 0. -1.
         -1   -1    0    0    0  501 -0.00000000000E+00 -0.00000000000E+00 -0.92321717918E+02  0.92321718056E+02  0.50400000000E-02 0.  1.
    8880023    1    1    2    0    0 -0.27191386996E+02  0.59282499418E+02  0.21564884172E+04  0.22557717717E+04  0.65864270000E+03 0. -1.
    8880022    1    1    2    0    0  0.27191386996E+02 -0.59282499418E+02  0.11925419599E+03  0.20461427746E+03  0.15294330000E+03 0.  0.
<mgrwt>
<rscale>  0 0.46857544E+03</rscale>
<asrwt>0</asrwt>
<pdfrwt beam="1">  1        1 0.36431757E+00 0.66186403E+03</pdfrwt>
<pdfrwt beam="2">  1       -1 0.14203342E-01 0.66186403E+03</pdfrwt>
<totfact> 0.63140939E+01</totfact>
</mgrwt>
</event>
<event>
 4    1  0.1521315E-007  0.7833511E+03  0.7818608E-02  0.9748023E-01
         -1   -1    0    0    0  501 -0.00000000000E+00  0.00000000000E+00  0.75380096080E+03  0.75380096082E+03  0.50400000000E-02 0.  1.
          1   -1    0    0  501    0  0.00000000000E+00 -0.00000000000E+00 -0.50886789559E+03  0.50886789562E+03  0.50400000000E-02 0. -1.
    8880023    1    1    2    0    0 -0.42365697032E+03 -0.18534544521E+02  0.20721232171E+03  0.81029371858E+03  0.65864270000E+03 0. -1.
    8880022    1    1    2    0    0  0.42365697032E+03  0.18534544521E+02  0.37720743497E+02  0.45237513785E+03  0.15294330000E+03 0.  0.
<mgrwt>
<rscale>  0 0.68228098E+03</rscale>
<asrwt>0</asrwt>
<pdfrwt beam="1">  1        1 0.78287368E-01 0.78335111E+03</pdfrwt>
<pdfrwt beam="2">  1       -1 0.11596938E+00 0.78335111E+03</pdfrwt>
<totfact> 0.29699322E+01</totfact>
</mgrwt>
</event>
<event>
 4    1  0.1521315E-007  0.1061580E+04  0.7818608E-02  0.9305089E-01
         -1   -1    0    0    0  501 -0.00000000000E+00  0.00000000000E+00  0.76990108901E+03  0.76990108903E+03  0.50400000000E-02 0.  1.
          1   -1    0    0  501    0  0.00000000000E+00 -0.00000000000E+00 -0.14544290472E+04  0.14544290472E+04  0.50400000000E-02 0. -1.
    8880023    1    1    2    0    0 -0.10362417274E+03  0.82607717332E+03  0.10504501883E+03  0.10667643262E+04  0.65864270000E+03 0.  0.
    8880022    1    1    2    0    0  0.10362417274E+03 -0.82607717332E+03 -0.78957297700E+03  0.11575658100E+04  0.15294330000E+03 0.  0.
<mgrwt>
<rscale>  0 0.10031573E+04</rscale>
<asrwt>0</asrwt>
<pdfrwt beam="1">  1        1 0.22375832E+00 0.10615798E+04</pdfrwt>
<pdfrwt beam="2">  1       -1 0.11844632E+00 0.10615798E+04</pdfrwt>
<totfact> 0.44873566E+00</totfact>
</mgrwt>
</event>
<event>
 4    1  0.1521315E-007  0.9132926E+03  0.7818608E-02  0.9505021E-01
         -1   -1    0    0    0  501 -0.00000000000E+00  0.00000000000E+00  0.89847819549E+03  0.89847819550E+03  0.50400000000E-02 0.  1.
          1   -1    0    0  501    0  0.00000000000E+00 -0.00000000000E+00 -0.12017987310E+04  0.12017987310E+04  0.50400000000E-02 0. -1.
    8880023    1    1    2    0    0 -0.14747357218E+03  0.61525986313E+03 -0.85197082838E+03  0.12489826469E+04  0.65864270000E+03 0.  0.
    8880022    1    1    2    0    0  0.14747357218E+03 -0.61525986313E+03  0.54865029283E+03  0.85129427961E+03  0.15294330000E+03 0.  0.
<mgrwt>
<rscale>  0 0.83914655E+03</rscale>
<asrwt>0</asrwt>
<pdfrwt beam="1">  1        1 0.18489211E+00 0.91329259E+03</pdfrwt>
<pdfrwt beam="2">  1       -1 0.13822741E+00 0.91329259E+03</pdfrwt>
<totfact> 0.46822264E+00</totfact>
</mgrwt>
</event>
<event>
 4    1  0.1521315E-007  0.8480351E+03  0.7818608E-02  0.9615212E-01
         -1   -1    0    0    0  501 -0.00000000000E+00  0.00000000000E+00  0.77824289843E+03  0.77824289845E+03  0.50400000000E-02 0.  1.
          1   -1    0    0  501    0  0.00000000000E+00 -0.00000000000E+00 -0.15860106916E+04  0.15860106916E+04  0.50400000000E-02 0. -1.
    8880023    1    1    2    0    0  0.28479992263E+03  0.45193173582E+03 -0.13458647531E+04  0.15907593877E+04  0.65864270000E+03 0. -1.
    8880022    1    1    2    0    0 -0.28479992263E+03 -0.45193173582E+03  0.53809695991E+03  0.77349420234E+03  0.15294330000E+03 0.  0.
<mgrwt>
<rscale>  0 0.76297506E+03</rscale>
<asrwt>0</asrwt>
<pdfrwt beam="1">  1        1 0.24400164E+00 0.84803508E+03</pdfrwt>
<pdfrwt beam="2">  1       -1 0.11972968E+00 0.84803508E+03</pdfrwt>
<totfact> 0.36508927E+00</totfact>
</mgrwt>
</event>
<event>
 4    1  0.1521315E-007  0.7621109E+03  0.7818608E-02  0.9799673E-01
         -1   -1    0    0    0  501 -0.00000000000E+00  0.00000000000E+00  0.10752836247E+04  0.10752836248E+04  0.50400000000E-02 0.  1.
          1   -1    0    0  501    0  0.00000000000E+00 -0.00000000000E+00 -0.57682313402E+03  0.57682313404E+03  0.50400000000E-02 0. -1.
    8880023    1    1    2    0    0  0.37281041978E+03 -0.89528100548E+02 -0.24602769532E+03  0.80083876218E+03  0.65864270000E+03 0. -1.
    8880022    1    1    2    0    0 -0.37281041978E+03  0.89528100548E+02  0.74448818605E+03  0.85126799662E+03  0.15294330000E+03 0.  0.
<mgrwt>
<rscale>  0 0.65380104E+03</rscale>
<asrwt>0</asrwt>
<pdfrwt beam="1">  1        1 0.88742021E-01 0.76211095E+03</pdfrwt>
<pdfrwt beam="2">  1       -1 0.16542825E+00 0.76211095E+03</pdfrwt>
<totfact> 0.99229856E+00</totfact>
</mgrwt>
</event>
<event>
 4    1  0.1521315E-007  0.1181819E+04  0.7818608E-02  0.9175001E-01
         -1   -1    0    0    0  501 -0.00000000000E+00  0.00000000000E+00  0.18390528182E+04  0.18390528182E+04  0.50400000000E-02 0.  1.
          1   -1    0    0  501    0  0.00000000000E+00 -0.00000000000E+00 -0.10140871022E+04  0.10140871022E+04  0.50400000000E-02 0. -1.
    8880023    1    1    2    0    0  0.27846508976E+02  0.98087216404E+03  0.12960334809E+04  0.17539665390E+04  0.65864270000E+03 0.  1.
    8880022    1    1    2    0    0 -0.27846508976E+02 -0.98087216404E+03 -0.47106776482E+03  0.10991733814E+04  0.15294330000E+03 0.  0.
<mgrwt>
<rscale>  0 0.11315222E+04</rscale>
<asrwt>0</asrwt>
<pdfrwt beam="1">  1        1 0.15601340E+00 0.11818189E+04</pdfrwt>
<pdfrwt beam="2">  1       -1 0.28293120E+00 0.11818189E+04</pdfrwt>
<totfact> 0.61993109E-01</totfact>
</mgrwt>
</event>
<event>
 4    1  0.1521315E-007  0.8602786E+03  0.7818608E-02  0.9593068E-01
          1   -1    0    0  501    0  0.00000000000E+00  0.00000000000E+00  0.24729391478E+04  0.24729391478E+04  0.50400000000E-02 0. -1.
         -1   -1    0    0    0  501 -0.00000000000E+00 -0.00000000000E+00 -0.22686676408E+03  0.22686676413E+03  0.50400000000E-02 0.  1.
    8880023    1    1    2    0    0 -0.10975896677E+03  0.54242231901E+03  0.17104077139E+04  0.19145688176E+04  0.65864270000E+03 0.  0.
    8880022    1    1    2    0    0  0.10975896677E+03 -0.54242231901E+03  0.53566466981E+03  0.78523709441E+03  0.15294330000E+03 0.  0.
<mgrwt>
<rscale>  0 0.77756681E+03</rscale>
<asrwt>0</asrwt>
<pdfrwt beam="1">  1        1 0.38045220E+00 0.86027856E+03</pdfrwt>
<pdfrwt beam="2">  1       -1 0.34902577E-01 0.86027856E+03</pdfrwt>
<totfact> 0.11415438E+01</totfact>
</mgrwt>
</event>
<event>
 4    1  0.1521315E-007  0.7756068E+03  0.7818608E-02  0.9766260E-01
         -1   -1    0    0    0  501 -0.00000000000E+00  0.00000000000E+00  0.11891194434E+04  0.11891194434E+04  0.50400000000E-02 0.  1.
          1   -1    0    0  501    0  0.00000000000E+00 -0.00000000000E+00 -0.32935078445E+03  0.32935078448E+03  0.50400000000E-02 0. -1.
    8880023    1    1    2    0    0  0.26276059986E+03  0.31418563818E+03  0.72311799425E+03  0.10604082176E+04  0.65864270000E+03 0. -1.
    8880022    1    1    2    0    0 -0.26276059986E+03 -0.31418563818E+03  0.13665066466E+03  0.45806201026E+03  0.15294330000E+03 0.  0.
<mgrwt>
<rscale>  0 0.67205106E+03</rscale>
<asrwt>0</asrwt>
<pdfrwt beam="1">  1        1 0.50669353E-01 0.77560683E+03</pdfrwt>
<pdfrwt beam="2">  1       -1 0.18294145E+00 0.77560683E+03</pdfrwt>
<totfact> 0.15763797E+01</totfact>
</mgrwt>
</event>
<event>
 4    1  0.1521315E-007  0.7001107E+03  0.7818608E-02  0.9996742E-01
         -1   -1    0    0    0  501 -0.00000000000E+00  0.00000000000E+00  0.39362756175E+03  0.39362756178E+03  0.50400000000E-02 0.  1.
          1   -1    0    0  501    0  0.00000000000E+00 -0.00000000000E+00 -0.14099257243E+04  0.14099257244E+04  0.50400000000E-02 0. -1.
    8880023    1    1    2    0    0  0.20014389621E+03 -0.12762133087E+03 -0.12528443918E+04  0.14351912972E+04  0.65864270000E+03 0. -1.
    8880022    1    1    2    0    0 -0.20014389621E+03  0.12762133087E+03  0.23654622923E+03  0.36836198889E+03  0.15294330000E+03 0.  0.
<mgrwt>
<rscale>  0 0.55793311E+03</rscale>
<asrwt>0</asrwt>
<pdfrwt beam="1">  1        1 0.21691165E+00 0.70011070E+03</pdfrwt>
<pdfrwt beam="2">  1       -1 0.60558087E-01 0.70011070E+03</pdfrwt>
<totfact> 0.21740850E+01</totfact>
</mgrwt>
</event>
<event>
 4    1  0.1521315E-007  0.8134625E+03  0.7818608E-02  0.9682409E-01
         -1   -1    0    0    0  501 -0.00000000000E+00  0.00000000000E+00  0.11023051394E+04  0.11023051395E+04  0.50400000000E-02 0.  1.
          1   -1    0    0  501    0  0.00000000000E+00 -0.00000000000E+00 -0.78164245288E+03  0.78164245290E+03  0.50400000000E-02 0. -1.
    8880023    1    1    2    0    0 -0.44794659692E+01 -0.47737928608E+03 -0.47614086048E+03  0.94256637627E+03  0.65864270000E+03 0.  0.
    8880022    1    1    2    0    0  0.44794659692E+01  0.47737928608E+03  0.79680354704E+03  0.94138121608E+03  0.15294330000E+03 0.  0.
<mgrwt>
<rscale>  0 0.72073863E+03</rscale>
<asrwt>0</asrwt>
<pdfrwt beam="1">  1        1 0.12025269E+00 0.81346251E+03</pdfrwt>
<pdfrwt beam="2">  1       -1 0.16958541E+00 0.81346251E+03</pdfrwt>
<totfact> 0.58308587E+00</totfact>
</mgrwt>
</event>
<event>
 4    1  0.1521315E-007  0.7294814E+03  0.7818608E-02  0.9891720E-01
         -1   -1    0    0    0  501 -0.00000000000E+00  0.00000000000E+00  0.70482349062E+03  0.70482349064E+03  0.50400000000E-02 0.  1.
          1   -1    0    0  501    0  0.00000000000E+00 -0.00000000000E+00 -0.92457271023E+03  0.92457271025E+03  0.50400000000E-02 0. -1.
    8880023    1    1    2    0    0  0.30614396875E+03 -0.67887651539E+02 -0.71640876287E+03  0.10224405042E+04  0.65864270000E+03 0. -1.
    8880022    1    1    2    0    0 -0.30614396875E+03  0.67887651539E+02  0.49665954325E+03  0.60695569670E+03  0.15294330000E+03 0.  0.
<mgrwt>
<rscale>  0 0.60664261E+03</rscale>
<asrwt>0</asrwt>
<pdfrwt beam="1">  1        1 0.14224195E+00 0.72948137E+03</pdfrwt>
<pdfrwt beam="2">  1       -1 0.10843438E+00 0.72948137E+03</pdfrwt>
<totfact> 0.14169194E+01</totfact>
</mgrwt>
</event>
<event>
 4    1  0.1521315E-007  0.6875848E+03  0.7818608E-02  0.1005322E+00
          1   -1    0    0  501    0  0.00000000000E+00  0.00000000000E+00  0.44932079759E+03  0.44932079762E+03  0.50400000000E-02 0. -1.
         -1   -1    0    0    0  501 -0.00000000000E+00 -0.00000000000E+00 -0.83838033530E+03  0.83838033531E+03  0.50400000000E-02 0.  1.
    8880023    1    1    2    0    0 -0.19155514969E+03  0.47637429746E+02  0.14088697385E+03  0.70187039099E+03  0.65864270000E+03 0. -1.
    8880022    1    1    2    0    0  0.19155514969E+03 -0.47637429746E+02 -0.52994651155E+03  0.58583074194E+03  0.15294330000E+03 0.  0.
<mgrwt>
<rscale>  0 0.53376865E+03</rscale>
<asrwt>0</asrwt>
<pdfrwt beam="1">  1        1 0.69126276E-01 0.68758484E+03</pdfrwt>
<pdfrwt beam="2">  1       -1 0.12898159E+00 0.68758484E+03</pdfrwt>
<totfact> 0.27358491E+01</totfact>
</mgrwt>
</event>
<event>
 4    1  0.1521315E-007  0.8295878E+03  0.7818608E-02  0.9650135E-01
         -1   -1    0    0    0  501 -0.00000000000E+00  0.00000000000E+00  0.93534683974E+03  0.93534683976E+03  0.50400000000E-02 0.  1.
          1   -1    0    0  501    0  0.00000000000E+00 -0.00000000000E+00 -0.11167313474E+04  0.11167313474E+04  0.50400000000E-02 0. -1.
    8880023    1    1    2    0    0  0.13559792589E+03  0.48581778403E+03 -0.85861641657E+03  0.11939171135E+04  0.65864270000E+03 0. -1.
    8880022    1    1    2    0    0 -0.13559792589E+03 -0.48581778403E+03  0.67723190896E+03  0.85816107364E+03  0.15294330000E+03 0.  0.
<mgrwt>
<rscale>  0 0.74064959E+03</rscale>
<asrwt>0</asrwt>
<pdfrwt beam="1">  1        1 0.17180482E+00 0.82958780E+03</pdfrwt>
<pdfrwt beam="2">  1       -1 0.14389951E+00 0.82958780E+03</pdfrwt>
<totfact> 0.49231104E+00</totfact>
</mgrwt>
</event>
<event>
 4    1  0.1521315E-007  0.7083749E+03  0.7818608E-02  0.9964086E-01
          1   -1    0    0  501    0  0.00000000000E+00  0.00000000000E+00  0.70962540380E+03  0.70962540382E+03  0.50400000000E-02 0. -1.
         -1   -1    0    0    0  501 -0.00000000000E+00 -0.00000000000E+00 -0.51788008820E+03  0.51788008823E+03  0.50400000000E-02 0.  1.
    8880023    1    1    2    0    0 -0.13944243218E+03  0.22031931123E+03  0.44209576231E+03  0.83501117365E+03  0.65864270000E+03 0.  0.
    8880022    1    1    2    0    0  0.13944243218E+03 -0.22031931123E+03 -0.25035044672E+03  0.39249431840E+03  0.15294330000E+03 0.  1.
<mgrwt>
<rscale>  0 0.57253449E+03</rscale>
<asrwt>0</asrwt>
<pdfrwt beam="1">  1        1 0.10917314E+00 0.70837490E+03</pdfrwt>
<pdfrwt beam="2">  1       -1 0.79673861E-01 0.70837490E+03</pdfrwt>
<totfact> 0.43130570E+01</totfact>
</mgrwt>
</event>
<event>
 4    1  0.1521315E-007  0.9273602E+03  0.7818608E-02  0.9483465E-01
          1   -1    0    0  501    0  0.00000000000E+00  0.00000000000E+00  0.33722356509E+04  0.33722356509E+04  0.50400000000E-02 0. -1.
         -1   -1    0    0    0  501 -0.00000000000E+00 -0.00000000000E+00 -0.22686969360E+03  0.22686969365E+03  0.50400000000E-02 0.  1.
    8880023    1    1    2    0    0 -0.51169903607E+03  0.40540196628E+03  0.25081750530E+04  0.26741239613E+04  0.65864270000E+03 0.  0.
    8880022    1    1    2    0    0  0.51169903607E+03 -0.40540196628E+03  0.63719090431E+03  0.92498138323E+03  0.15294330000E+03 0.  0.
<mgrwt>
<rscale>  0 0.85513955E+03</rscale>
<asrwt>0</asrwt>
<pdfrwt beam="1">  1        1 0.51880548E+00 0.92736016E+03</pdfrwt>
<pdfrwt beam="2">  1       -1 0.34903030E-01 0.92736016E+03</pdfrwt>
<totfact> 0.25657338E+00</totfact>
</mgrwt>
</event>
<event>
 4    1  0.1521315E-007  0.1610713E+04  0.7818608E-02  0.8835171E-01
         -1   -1    0    0    0  501 -0.00000000000E+00  0.00000000000E+00  0.31426774091E+04  0.31426774091E+04  0.50400000000E-02 0.  1.
          1   -1    0    0  501    0  0.00000000000E+00 -0.00000000000E+00 -0.23772446417E+04  0.23772446417E+04  0.50400000000E-02 0. -1.
    8880023    1    1    2    0    0  0.14087137808E+04  0.41965778582E+03  0.26645471960E+04  0.31135524950E+04  0.65864270000E+03 0.  0.
    8880022    1    1    2    0    0 -0.14087137808E+04 -0.41965778582E+03 -0.18991144285E+04  0.24063695558E+04  0.15294330000E+03 0.  0.
<mgrwt>
<rscale>  0 0.15764120E+04</rscale>
<asrwt>0</asrwt>
<pdfrwt beam="1">  1        1 0.36572995E+00 0.16107133E+04</pdfrwt>
<pdfrwt beam="2">  1       -1 0.48348883E+00 0.16107133E+04</pdfrwt>
<totfact> 0.29096508E-03</totfact>
</mgrwt>
</event>
<event>
 4    1  0.1521315E-007  0.9366554E+03  0.7818608E-02  0.9469580E-01
         -1   -1    0    0    0  501 -0.00000000000E+00  0.00000000000E+00  0.43596154344E+03  0.43596154347E+03  0.50400000000E-02 0.  1.
          1   -1    0    0  501    0  0.00000000000E+00 -0.00000000000E+00 -0.21761788013E+04  0.21761788013E+04  0.50400000000E-02 0. -1.
    8880023    1    1    2    0    0 -0.18589907727E+03 -0.63949557305E+03 -0.16834520065E+04  0.19264822655E+04  0.65864270000E+03 0. -1.
    8880022    1    1    2    0    0  0.18589907727E+03  0.63949557305E+03 -0.56765251360E+02  0.68565807926E+03  0.15294330000E+03 0.  0.
<mgrwt>
<rscale>  0 0.86564216E+03</rscale>
<asrwt>0</asrwt>
<pdfrwt beam="1">  1        1 0.33479673E+00 0.93665536E+03</pdfrwt>
<pdfrwt beam="2">  1       -1 0.67071008E-01 0.93665536E+03</pdfrwt>
<totfact> 0.52070693E+00</totfact>
</mgrwt>
</event>
<event>
 4    1  0.1521315E-007  0.7936038E+03  0.7818608E-02  0.9724800E-01
          1   -1    0    0  501    0  0.00000000000E+00  0.00000000000E+00  0.83332234933E+03  0.83332234934E+03  0.50400000000E-02 0. -1.
         -1   -1    0    0    0  501 -0.00000000000E+00 -0.00000000000E+00 -0.60465049624E+03  0.60465049627E+03  0.50400000000E-02 0.  1.
    8880023    1    1    2    0    0 -0.39146632532E+03  0.20676302879E+03  0.45818604467E+03  0.91637410032E+03  0.65864270000E+03 0. -1.
    8880022    1    1    2    0    0  0.39146632532E+03 -0.20676302879E+03 -0.22951419159E+03  0.52159874529E+03  0.15294330000E+03 0.  1.
<mgrwt>
<rscale>  0 0.69559195E+03</rscale>
<asrwt>0</asrwt>
<pdfrwt beam="1">  1        1 0.12820344E+00 0.79360383E+03</pdfrwt>
<pdfrwt beam="2">  1       -1 0.93023153E-01 0.79360383E+03</pdfrwt>
<totfact> 0.23737700E+01</totfact>
</mgrwt>
</event>
<event>
 4    1  0.1521315E-007  0.7047500E+03  0.7818608E-02  0.9978039E-01
         -1   -1    0    0    0  501 -0.00000000000E+00  0.00000000000E+00  0.28331033315E+03  0.28331033320E+03  0.50400000000E-02 0.  1.
          1   -1    0    0  501    0  0.00000000000E+00 -0.00000000000E+00 -0.12255658558E+04  0.12255658558E+04  0.50400000000E-02 0. -1.
    8880023    1    1    2    0    0 -0.93498428058E+02  0.23263805443E+03 -0.98597595875E+03  0.12119493463E+04  0.65864270000E+03 0. -1.
    8880022    1    1    2    0    0  0.93498428058E+02 -0.23263805443E+03  0.43720436069E+02  0.29692684278E+03  0.15294330000E+03 0.  0.
<mgrwt>
<rscale>  0 0.56623771E+03</rscale>
<asrwt>0</asrwt>
<pdfrwt beam="1">  1        1 0.18854859E+00 0.70475005E+03</pdfrwt>
<pdfrwt beam="2">  1       -1 0.43586206E-01 0.70475005E+03</pdfrwt>
<totfact> 0.54797708E+01</totfact>
</mgrwt>
</event>
<event>
 4    1  0.1521315E-007  0.6885133E+03  0.7818608E-02  0.1004867E+00
          1   -1    0    0  501    0  0.00000000000E+00  0.00000000000E+00  0.10527112224E+04  0.10527112225E+04  0.50400000000E-02 0. -1.
         -1   -1    0    0    0  501 -0.00000000000E+00 -0.00000000000E+00 -0.41036355116E+03  0.41036355119E+03  0.50400000000E-02 0.  1.
    8880023    1    1    2    0    0 -0.19999543898E+03 -0.15561998647E+02 -0.84518300622E+02  0.69368141161E+03  0.65864270000E+03 0.  1.
    8880022    1    1    2    0    0  0.19999543898E+03  0.15561998647E+02  0.72686597191E+03  0.76939336204E+03  0.15294330000E+03 0.  0.
<mgrwt>
<rscale>  0 0.53566553E+03</rscale>
<asrwt>0</asrwt>
<pdfrwt beam="1">  1        1 0.16195557E+00 0.68851330E+03</pdfrwt>
<pdfrwt beam="2">  1       -1 0.63132856E-01 0.68851330E+03</pdfrwt>
<totfact> 0.36225113E+01</totfact>
</mgrwt>
</event>
<event>
 4    1  0.1521315E-007  0.6609924E+03  0.7818608E-02  0.1023162E+00
          1   -1    0    0  501    0  0.00000000000E+00  0.00000000000E+00  0.42670486715E+03  0.42670486718E+03  0.50400000000E-02 0. -1.
         -1   -1    0    0    0  501 -0.00000000000E+00 -0.00000000000E+00 -0.17866638382E+04  0.17866638382E+04  0.50400000000E-02 0.  1.
    8880023    1    1    2    0    0 -0.42235190247E+02 -0.36290381781E+02  0.16376406063E+03  0.68097700176E+03  0.65864270000E+03 0. -1.
    8880022    1    1    2    0    0  0.42235190247E+02  0.36290381781E+02 -0.15237230317E+04  0.15323917037E+04  0.15294330000E+03 0.  0.
<mgrwt>
<rscale>  0 0.46562646E+03</rscale>
<asrwt>0</asrwt>
<pdfrwt beam="1">  1        1 0.65646904E-01 0.66099244E+03</pdfrwt>
<pdfrwt beam="2">  1       -1 0.27487135E+00 0.66099244E+03</pdfrwt>
<totfact> 0.28077438E+00</totfact>
</mgrwt>
</event>
<event>
 4    1  0.1572425E-007  0.1076271E+04  0.7818608E-02  0.9287947E-01
         -1   -1    0    0    0  501 -0.00000000000E+00  0.00000000000E+00  0.22566898304E+04  0.22566898304E+04  0.50400000000E-02 0.  1.
          1   -1    0    0  501    0  0.00000000000E+00 -0.00000000000E+00 -0.14320141354E+04  0.14320141354E+04  0.50400000000E-02 0. -1.
    8880023    1    1    2    0    0  0.82059077225E+02 -0.84724005429E+03 -0.11243333833E+04  0.15564334759E+04  0.65864270000E+03 0. -1.
    8880022    1    1    2    0    0 -0.82059077225E+02  0.84724005429E+03  0.19490090783E+04  0.21322704899E+04  0.15294330000E+03 0.  0.
<mgrwt>
<rscale>  0 0.10190012E+04</rscale>
<asrwt>0</asrwt>
<pdfrwt beam="1">  1        1 0.22030987E+00 0.10762712E+04</pdfrwt>
<pdfrwt beam="2">  1       -1 0.34718305E+00 0.10762712E+04</pdfrwt>
<totfact> 0.11932128E-01</totfact>
</mgrwt>
</event>
<event>
 4    1  0.1521315E-007  0.7222362E+03  0.7818608E-02  0.9915091E-01
         -1   -1    0    0    0  501 -0.00000000000E+00  0.00000000000E+00  0.27631710087E+03  0.27631710092E+03  0.50400000000E-02 0.  1.
          1   -1    0    0  501    0  0.00000000000E+00 -0.00000000000E+00 -0.30477833104E+04  0.30477833104E+04  0.50400000000E-02 0. -1.
    8880023    1    1    2    0    0  0.25231909610E+03 -0.15540246896E+03 -0.28832931745E+04  0.29723735617E+04  0.65864270000E+03 0. -1.
    8880022    1    1    2    0    0 -0.25231909610E+03  0.15540246896E+03  0.11182696503E+03  0.35172684962E+03  0.15294330000E+03 0.  0.
<mgrwt>
<rscale>  0 0.59535457E+03</rscale>
<asrwt>0</asrwt>
<pdfrwt beam="1">  1        1 0.46888972E+00 0.72223615E+03</pdfrwt>
<pdfrwt beam="2">  1       -1 0.42510325E-01 0.72223615E+03</pdfrwt>
<totfact> 0.32370838E+00</totfact>
</mgrwt>
</event>
<event>
 4    1  0.1521315E-007  0.8831269E+03  0.7818608E-02  0.9553680E-01
          1   -1    0    0  501    0  0.00000000000E+00  0.00000000000E+00  0.76073440631E+03  0.76073440633E+03  0.50400000000E-02 0. -1.
         -1   -1    0    0    0  501 -0.00000000000E+00 -0.00000000000E+00 -0.12643087142E+04  0.12643087143E+04  0.50400000000E-02 0.  1.
    8880023    1    1    2    0    0  0.50714989645E+03 -0.29816424375E+03 -0.93001701721E+03  0.12825150261E+04  0.65864270000E+03 0.  0.
    8880022    1    1    2    0    0 -0.50714989645E+03  0.29816424375E+03  0.42644270928E+03  0.74252809444E+03  0.15294330000E+03 0.  0.
<mgrwt>
<rscale>  0 0.80439312E+03</rscale>
<asrwt>0</asrwt>
<pdfrwt beam="1">  1        1 0.11703606E+00 0.88312691E+03</pdfrwt>
<pdfrwt beam="2">  1       -1 0.19450903E+00 0.88312691E+03</pdfrwt>
<totfact> 0.40070458E+00</totfact>
</mgrwt>
</event>
<event>
 4    1  0.1521315E-007  0.7813211E+03  0.7818608E-02  0.9752743E-01
         -1   -1    0    0    0  501 -0.00000000000E+00  0.00000000000E+00  0.50592854500E+03  0.50592854502E+03  0.50400000000E-02 0.  1.
          1   -1    0    0  501    0  0.00000000000E+00 -0.00000000000E+00 -0.12580308571E+04  0.12580308571E+04  0.50400000000E-02 0. -1.
    8880023    1    1    2    0    0  0.87546555101E+02  0.41108163772E+03 -0.98695494966E+03  0.12587862373E+04  0.65864270000E+03 0. -1.
    8880022    1    1    2    0    0 -0.87546555101E+02 -0.41108163772E+03  0.23485263752E+03  0.50517316492E+03  0.15294330000E+03 0.  0.
<mgrwt>
<rscale>  0 0.67961494E+03</rscale>
<asrwt>0</asrwt>
<pdfrwt beam="1">  1        1 0.19354321E+00 0.78132114E+03</pdfrwt>
<pdfrwt beam="2">  1       -1 0.77835161E-01 0.78132114E+03</pdfrwt>
<totfact> 0.16492157E+01</totfact>
</mgrwt>
</event>
<event>
 4    1  0.1521315E-007  0.1074405E+04  0.7818608E-02  0.9290103E-01
          1   -1    0    0  501    0  0.00000000000E+00  0.00000000000E+00  0.18322795158E+04  0.18322795158E+04  0.50400000000E-02 0. -1.
         -1   -1    0    0    0  501 -0.00000000000E+00 -0.00000000000E+00 -0.14298838639E+04  0.14298838639E+04  0.50400000000E-02 0.  1.
    8880023    1    1    2    0    0 -0.41975931833E+03  0.73779256778E+03 -0.10950339364E+04  0.15340942887E+04  0.65864270000E+03 0.  0.
    8880022    1    1    2    0    0  0.41975931833E+03 -0.73779256778E+03  0.14974295883E+04  0.17280690910E+04  0.15294330000E+03 0.  0.
<mgrwt>
<rscale>  0 0.10169915E+04</rscale>
<asrwt>0</asrwt>
<pdfrwt beam="1">  1        1 0.28188915E+00 0.10744049E+04</pdfrwt>
<pdfrwt beam="2">  1       -1 0.21998213E+00 0.10744049E+04</pdfrwt>
<totfact> 0.42619882E-01</totfact>
</mgrwt>
</event>
<event>
 4    1  0.1521315E-007  0.7885784E+03  0.7818608E-02  0.9736059E-01
         -1   -1    0    0    0  501 -0.00000000000E+00  0.00000000000E+00  0.59070427089E+03  0.59070427092E+03  0.50400000000E-02 0.  1.
          1   -1    0    0  501    0  0.00000000000E+00 -0.00000000000E+00 -0.11812583087E+04  0.11812583087E+04  0.50400000000E-02 0. -1.
    8880023    1    1    2    0    0 -0.37026174052E+03 -0.22572519417E+03 -0.91595535632E+03  0.12086480219E+04  0.65864270000E+03 0. -1.
    8880022    1    1    2    0    0  0.37026174052E+03  0.22572519417E+03  0.32540131855E+03  0.56331455770E+03  0.15294330000E+03 0.  0.
<mgrwt>
<rscale>  0 0.68909855E+03</rscale>
<asrwt>0</asrwt>
<pdfrwt beam="1">  1        1 0.18173205E+00 0.78857836E+03</pdfrwt>
<pdfrwt beam="2">  1       -1 0.90877581E-01 0.78857836E+03</pdfrwt>
<totfact> 0.13401665E+01</totfact>
</mgrwt>
</event>
<event>
 4    1  0.1521315E-007  0.7765408E+03  0.7818608E-02  0.9764026E-01
         -1   -1    0    0    0  501 -0.00000000000E+00  0.00000000000E+00  0.12074695952E+04  0.12074695952E+04  0.50400000000E-02 0.  1.
          1   -1    0    0  501    0  0.00000000000E+00 -0.00000000000E+00 -0.15600347371E+04  0.15600347371E+04  0.50400000000E-02 0. -1.
    8880023    1    1    2    0    0 -0.22085031174E+03 -0.34703095190E+03 -0.14171775573E+04  0.16159850794E+04  0.65864270000E+03 0. -1.
    8880022    1    1    2    0    0  0.22085031174E+03  0.34703095190E+03  0.10646124154E+04  0.11515192529E+04  0.15294330000E+03 0.  0.
<mgrwt>
<rscale>  0 0.67329343E+03</rscale>
<asrwt>0</asrwt>
<pdfrwt beam="1">  1        1 0.24000534E+00 0.77654076E+03</pdfrwt>
<pdfrwt beam="2">  1       -1 0.18576455E+00 0.77654076E+03</pdfrwt>
<totfact> 0.11776028E+00</totfact>
</mgrwt>
</event>
<event>
 4    1  0.1521315E-007  0.8578057E+03  0.7818608E-02  0.9597479E-01
         -1   -1    0    0    0  501 -0.00000000000E+00  0.00000000000E+00  0.42539367874E+03  0.42539367877E+03  0.50400000000E-02 0.  1.
          1   -1    0    0  501    0  0.00000000000E+00 -0.00000000000E+00 -0.17282923871E+04  0.17282923871E+04  0.50400000000E-02 0. -1.
    8880023    1    1    2    0    0 -0.30305095617E+03  0.45845459213E+03 -0.15477596922E+03  0.87165721588E+03  0.65864270000E+03 0.  1.
    8880022    1    1    2    0    0  0.30305095617E+03 -0.45845459213E+03 -0.11481227392E+04  0.12820288500E+04  0.15294330000E+03 0.  0.
<mgrwt>
<rscale>  0 0.77463289E+03</rscale>
<asrwt>0</asrwt>
<pdfrwt beam="1">  1        1 0.26589113E+00 0.85780575E+03</pdfrwt>
<pdfrwt beam="2">  1       -1 0.65445182E-01 0.85780575E+03</pdfrwt>
<totfact> 0.11064432E+01</totfact>
</mgrwt>
</event>
<event>
 4    1  0.1521315E-007  0.7057090E+03  0.7818608E-02  0.9974294E-01
         -1   -1    0    0    0  501 -0.00000000000E+00  0.00000000000E+00  0.27664698671E+03  0.27664698675E+03  0.50400000000E-02 0.  1.
          1   -1    0    0  501    0  0.00000000000E+00 -0.00000000000E+00 -0.24276321144E+04  0.24276321144E+04  0.50400000000E-02 0. -1.
    8880023    1    1    2    0    0 -0.16788222958E+02 -0.25285012699E+03 -0.22760586032E+04  0.23829536300E+04  0.65864270000E+03 0. -1.
    8880022    1    1    2    0    0  0.16788222958E+02  0.25285012699E+03  0.12507347550E+03  0.32132547119E+03  0.15294330000E+03 0.  0.
<mgrwt>
<rscale>  0 0.56791902E+03</rscale>
<asrwt>0</asrwt>
<pdfrwt beam="1">  1        1 0.37348185E+00 0.70570903E+03</pdfrwt>
<pdfrwt beam="2">  1       -1 0.42561077E-01 0.70570903E+03</pdfrwt>
<totfact> 0.87680276E+00</totfact>
</mgrwt>
</event>
<event>
 4    1  0.1521315E-007  0.6769514E+03  0.7818608E-02  0.1011103E+00
         -1   -1    0    0    0  501 -0.00000000000E+00  0.00000000000E+00  0.23897414103E+03  0.23897414109E+03  0.50400000000E-02 0.  1.
          1   -1    0    0  501    0  0.00000000000E+00 -0.00000000000E+00 -0.10507363437E+04  0.10507363437E+04  0.50400000000E-02 0. -1.
    8880023    1    1    2    0    0 -0.15024048224E+03 -0.43367469222E+02 -0.82901870989E+03  0.10702967661E+04  0.65864270000E+03 0. -1.
    8880022    1    1    2    0    0  0.15024048224E+03  0.43367469222E+02  0.17256507241E+02  0.21941371869E+03  0.15294330000E+03 0.  0.
<mgrwt>
<rscale>  0 0.51038418E+03</rscale>
<asrwt>0</asrwt>
<pdfrwt beam="1">  1        1 0.16165174E+00 0.67695136E+03</pdfrwt>
<pdfrwt beam="2">  1       -1 0.36765253E-01 0.67695136E+03</pdfrwt>
<totfact> 0.10068096E+02</totfact>
</mgrwt>
</event>
<event>
 4    1  0.1521315E-007  0.6690241E+03  0.7818608E-02  0.1016372E+00
          1   -1    0    0  501    0  0.00000000000E+00  0.00000000000E+00  0.31975257946E+03  0.31975257950E+03  0.50400000000E-02 0. -1.
         -1   -1    0    0    0  501 -0.00000000000E+00 -0.00000000000E+00 -0.77446179625E+03  0.77446179627E+03  0.50400000000E-02 0.  1.
    8880023    1    1    2    0    0 -0.77214622332E+02  0.88436420697E+02 -0.81274517642E+02  0.67394276603E+03  0.65864270000E+03 0. -1.
    8880022    1    1    2    0    0  0.77214622332E+02 -0.88436420697E+02 -0.37343469915E+03  0.42027160974E+03  0.15294330000E+03 0.  0.
<mgrwt>
<rscale>  0 0.49018764E+03</rscale>
<asrwt>0</asrwt>
<pdfrwt beam="1">  1        1 0.49192705E-01 0.66902414E+03</pdfrwt>
<pdfrwt beam="2">  1       -1 0.11914797E+00 0.66902414E+03</pdfrwt>
<totfact> 0.52173495E+01</totfact>
</mgrwt>
</event>
<event>
 4    1  0.1521315E-007  0.9110582E+03  0.7818608E-02  0.9508508E-01
          1   -1    0    0  501    0  0.00000000000E+00  0.00000000000E+00  0.10198861938E+04  0.10198861938E+04  0.50400000000E-02 0. -1.
         -1   -1    0    0    0  501 -0.00000000000E+00 -0.00000000000E+00 -0.13775734895E+04  0.13775734895E+04  0.50400000000E-02 0.  1.
    8880023    1    1    2    0    0  0.33158519996E+02  0.62858360092E+03  0.70563364927E+03  0.11523653431E+04  0.65864270000E+03 0.  0.
    8880022    1    1    2    0    0 -0.33158519996E+02 -0.62858360092E+03 -0.10633209450E+04  0.12450943402E+04  0.15294330000E+03 0.  0.
<mgrwt>
<rscale>  0 0.83659473E+03</rscale>
<asrwt>0</asrwt>
<pdfrwt beam="1">  1        1 0.15690557E+00 0.91105820E+03</pdfrwt>
<pdfrwt beam="2">  1       -1 0.21193438E+00 0.91105820E+03</pdfrwt>
<totfact> 0.18533516E+00</totfact>
</mgrwt>
</event>
<event>
 4    1  0.1521315E-007  0.7710848E+03  0.7818608E-02  0.9777212E-01
         -1   -1    0    0    0  501 -0.00000000000E+00  0.00000000000E+00  0.47441988890E+03  0.47441988892E+03  0.50400000000E-02 0.  1.
          1   -1    0    0  501    0  0.00000000000E+00 -0.00000000000E+00 -0.16427230492E+04  0.16427230493E+04  0.50400000000E-02 0. -1.
    8880023    1    1    2    0    0  0.13982772838E+02  0.40070694315E+03 -0.14227358556E+04  0.16182549531E+04  0.65864270000E+03 0.  0.
    8880022    1    1    2    0    0 -0.13982772838E+02 -0.40070694315E+03  0.25443269524E+03  0.49888798507E+03  0.15294330000E+03 0.  0.
<mgrwt>
<rscale>  0 0.66599969E+03</rscale>
<asrwt>0</asrwt>
<pdfrwt beam="1">  1        1 0.25272662E+00 0.77108481E+03</pdfrwt>
<pdfrwt beam="2">  1       -1 0.72987676E-01 0.77108481E+03</pdfrwt>
<totfact> 0.10236363E+01</totfact>
</mgrwt>
</event>
<event>
 4    1  0.1521315E-007  0.7698673E+03  0.7818608E-02  0.9780201E-01
         -1   -1    0    0    0  501 -0.00000000000E+00  0.00000000000E+00  0.66224979035E+03  0.66224979037E+03  0.50400000000E-02 0.  1.
          1   -1    0    0  501    0  0.00000000000E+00 -0.00000000000E+00 -0.14598470844E+04  0.14598470844E+04  0.50400000000E-02 0. -1.
    8880023    1    1    2    0    0  0.28224398402E+03  0.28146732068E+03 -0.12701434973E+04  0.14852475312E+04  0.65864270000E+03 0. -1.
    8880022    1    1    2    0    0 -0.28224398402E+03 -0.28146732068E+03  0.47254620324E+03  0.63684934352E+03  0.15294330000E+03 0.  0.
<mgrwt>
<rscale>  0 0.66435997E+03</rscale>
<asrwt>0</asrwt>
<pdfrwt beam="1">  1        1 0.22459186E+00 0.76986734E+03</pdfrwt>
<pdfrwt beam="2">  1       -1 0.10188458E+00 0.76986734E+03</pdfrwt>
<totfact> 0.66034813E+00</totfact>
</mgrwt>
</event>
<event>
 4    1  0.1521315E-007  0.7915914E+03  0.7818608E-02  0.9729281E-01
         -1   -1    0    0    0  501 -0.00000000000E+00  0.00000000000E+00  0.27644085409E+03  0.27644085414E+03  0.50400000000E-02 0.  1.
          1   -1    0    0  501    0  0.00000000000E+00 -0.00000000000E+00 -0.21034302217E+04  0.21034302217E+04  0.50400000000E-02 0. -1.
    8880023    1    1    2    0    0  0.37035707674E+03 -0.23588633715E+03 -0.17333709875E+04  0.19055686592E+04  0.65864270000E+03 0.  0.
    8880022    1    1    2    0    0 -0.37035707674E+03  0.23588633715E+03 -0.93618380141E+02  0.47430241668E+03  0.15294330000E+03 0.  0.
<mgrwt>
<rscale>  0 0.69299859E+03</rscale>
<asrwt>0</asrwt>
<pdfrwt beam="1">  1        1 0.32360464E+00 0.79159139E+03</pdfrwt>
<pdfrwt beam="2">  1       -1 0.42529364E-01 0.79159139E+03</pdfrwt>
<totfact> 0.14320920E+01</totfact>
</mgrwt>
</event>
<event>
 4    1  0.1521315E-007  0.7170225E+03  0.7818608E-02  0.9932793E-01
          1   -1    0    0  501    0  0.00000000000E+00  0.00000000000E+00  0.17635293463E+04  0.17635293463E+04  0.50400000000E-02 0. -1.
         -1   -1    0    0    0  501 -0.00000000000E+00 -0.00000000000E+00 -0.76642205416E+03  0.76642205418E+03  0.50400000000E-02 0.  1.
    8880023    1    1    2    0    0  0.16262364929E+03 -0.23208746588E+03  0.16515977297E+04  0.18005266758E+04  0.65864270000E+03 0. -1.
    8880022    1    1    2    0    0 -0.16262364929E+03  0.23208746588E+03 -0.65449043757E+03  0.72942472471E+03  0.15294330000E+03 0.  0.
<mgrwt>
<rscale>  0 0.58698005E+03</rscale>
<asrwt>0</asrwt>
<pdfrwt beam="1">  1        1 0.27131221E+00 0.71702249E+03</pdfrwt>
<pdfrwt beam="2">  1       -1 0.11791109E+00 0.71702249E+03</pdfrwt>
<totfact> 0.29411967E+00</totfact>
</mgrwt>
</event>
<event>
 4    1  0.1521315E-007  0.1304823E+04  0.7818608E-02  0.9061406E-01
          1   -1    0    0  501    0  0.00000000000E+00  0.00000000000E+00  0.22158466839E+04  0.22158466839E+04  0.50400000000E-02 0. -1.
         -1   -1    0    0    0  501 -0.00000000000E+00 -0.00000000000E+00 -0.85806868675E+03  0.85806868676E+03  0.50400000000E-02 0.  1.
    8880023    1    1    2    0    0 -0.74023872915E+03  0.84899980957E+03  0.22213601381E+01  0.13048253498E+04  0.65864270000E+03 0.  0.
    8880022    1    1    2    0    0  0.74023872915E+03 -0.84899980957E+03  0.13555566370E+04  0.17690900209E+04  0.15294330000E+03 0.  0.
<mgrwt>
<rscale>  0 0.12606013E+04</rscale>
<asrwt>0</asrwt>
<pdfrwt beam="1">  1        1 0.34089949E+00 0.13048235E+04</pdfrwt>
<pdfrwt beam="2">  1       -1 0.13201057E+00 0.13048235E+04</pdfrwt>
<totfact> 0.10080453E+00</totfact>
</mgrwt>
</event>
<event>
 4    1  0.1521315E-007  0.6962170E+03  0.7818608E-02  0.1001327E+00
          1   -1    0    0  501    0  0.00000000000E+00  0.00000000000E+00  0.15203779466E+04  0.15203779466E+04  0.50400000000E-02 0. -1.
         -1   -1    0    0    0  501 -0.00000000000E+00 -0.00000000000E+00 -0.21657824703E+03  0.21657824709E+03  0.50400000000E-02 0.  1.
    8880023    1    1    2    0    0  0.13537222241E+03  0.18050569875E+03  0.12877493183E+04  0.14639045252E+04  0.65864270000E+03 0.  0.
    8880022    1    1    2    0    0 -0.13537222241E+03 -0.18050569875E+03  0.16050381218E+02  0.27305166844E+03  0.15294330000E+03 0.  1.
<mgrwt>
<rscale>  0 0.55072119E+03</rscale>
<asrwt>0</asrwt>
<pdfrwt beam="1">  1        1 0.23390430E+00 0.69621703E+03</pdfrwt>
<pdfrwt beam="2">  1       -1 0.33319731E-01 0.69621703E+03</pdfrwt>
<totfact> 0.55455516E+01</totfact>
</mgrwt>
</event>
<event>
 4    1  0.1521315E-007  0.7294656E+03  0.7818608E-02  0.9891769E-01
          1   -1    0    0  501    0  0.00000000000E+00  0.00000000000E+00  0.38336265864E+03  0.38336265868E+03  0.50400000000E-02 0. -1.
         -1   -1    0    0    0  501 -0.00000000000E+00 -0.00000000000E+00 -0.91389985098E+03  0.91389985099E+03  0.50400000000E-02 0.  1.
    8880023    1    1    2    0    0 -0.34960793365E+02  0.31158894124E+03 -0.89505187025E+02  0.73493626264E+03  0.65864270000E+03 0. -1.
    8880022    1    1    2    0    0  0.34960793365E+02 -0.31158894124E+03 -0.44103200531E+03  0.56232624703E+03  0.15294330000E+03 0.  0.
<mgrwt>
<rscale>  0 0.60661851E+03</rscale>
<asrwt>0</asrwt>
<pdfrwt beam="1">  1        1 0.58978871E-01 0.72946565E+03</pdfrwt>
<pdfrwt beam="2">  1       -1 0.14059998E+00 0.72946565E+03</pdfrwt>
<totfact> 0.26999314E+01</totfact>
</mgrwt>
</event>
<event>
 4    1  0.1521315E-007  0.7744755E+03  0.7818608E-02  0.9768978E-01
         -1   -1    0    0    0  501 -0.00000000000E+00  0.00000000000E+00  0.31384933203E+03  0.31384933207E+03  0.50400000000E-02 0.  1.
          1   -1    0    0  501    0  0.00000000000E+00 -0.00000000000E+00 -0.12291259497E+04  0.12291259497E+04  0.50400000000E-02 0. -1.
    8880023    1    1    2    0    0 -0.22915118275E+03  0.33688536916E+03 -0.74807362051E+03  0.10767666249E+04  0.65864270000E+03 0. -1.
    8880022    1    1    2    0    0  0.22915118275E+03 -0.33688536916E+03 -0.16720299719E+03  0.46620865692E+03  0.15294330000E+03 0.  0.
<mgrwt>
<rscale>  0 0.67054268E+03</rscale>
<asrwt>0</asrwt>
<pdfrwt beam="1">  1        1 0.18909630E+00 0.77447545E+03</pdfrwt>
<pdfrwt beam="2">  1       -1 0.48284513E-01 0.77447545E+03</pdfrwt>
<totfact> 0.44688157E+01</totfact>
</mgrwt>
</event>
<event>
 4    1  0.1521315E-007  0.6872284E+03  0.7818608E-02  0.1005499E+00
         -1   -1    0    0    0  501 -0.00000000000E+00  0.00000000000E+00  0.23811860327E+03  0.23811860332E+03  0.50400000000E-02 0.  1.
          1   -1    0    0  501    0  0.00000000000E+00 -0.00000000000E+00 -0.13056164387E+04  0.13056164387E+04  0.50400000000E-02 0. -1.
    8880023    1    1    2    0    0  0.13105223391E+03  0.14593845544E+03 -0.10957334056E+04  0.12934120083E+04  0.65864270000E+03 0. -1.
    8880022    1    1    2    0    0 -0.13105223391E+03 -0.14593845544E+03  0.28235570156E+02  0.25032303375E+03  0.15294330000E+03 0.  0.
<mgrwt>
<rscale>  0 0.53303524E+03</rscale>
<asrwt>0</asrwt>
<pdfrwt beam="1">  1        1 0.20086406E+00 0.68722844E+03</pdfrwt>
<pdfrwt beam="2">  1       -1 0.36633632E-01 0.68722844E+03</pdfrwt>
<totfact> 0.66033943E+01</totfact>
</mgrwt>
</event>
<event>
 4    1  0.1521315E-007  0.9035307E+03  0.7818608E-02  0.9520387E-01
         -1   -1    0    0    0  501 -0.00000000000E+00  0.00000000000E+00  0.10760314019E+04  0.10760314019E+04  0.50400000000E-02 0.  1.
          1   -1    0    0  501    0  0.00000000000E+00 -0.00000000000E+00 -0.11750847678E+04  0.11750847679E+04  0.50400000000E-02 0. -1.
    8880023    1    1    2    0    0  0.60126948184E+03  0.14502569835E+03 -0.86771959488E+03  0.12527190206E+04  0.65864270000E+03 0. -1.
    8880022    1    1    2    0    0 -0.60126948184E+03 -0.14502569835E+03  0.76866622895E+03  0.99839714919E+03  0.15294330000E+03 0.  0.
<mgrwt>
<rscale>  0 0.82797289E+03</rscale>
<asrwt>0</asrwt>
<pdfrwt beam="1">  1        1 0.18078227E+00 0.90353066E+03</pdfrwt>
<pdfrwt beam="2">  1       -1 0.16554329E+00 0.90353066E+03</pdfrwt>
<totfact> 0.30082819E+00</totfact>
</mgrwt>
</event>
<event>
 4    1  0.1521315E-007  0.8039482E+03  0.7818608E-02  0.9702323E-01
         -1   -1    0    0    0  501 -0.00000000000E+00  0.00000000000E+00  0.12897252879E+04  0.12897252879E+04  0.50400000000E-02 0.  1.
          1   -1    0    0  501    0  0.00000000000E+00 -0.00000000000E+00 -0.10648840931E+04  0.10648840931E+04  0.50400000000E-02 0. -1.
    8880023    1    1    2    0    0  0.36919346509E+03 -0.27607741288E+03 -0.85314139204E+03  0.11722555155E+04  0.65864270000E+03 0.  0.
    8880022    1    1    2    0    0 -0.36919346509E+03  0.27607741288E+03  0.10779825869E+04  0.11823538655E+04  0.15294330000E+03 0.  0.
<mgrwt>
<rscale>  0 0.70878632E+03</rscale>
<asrwt>0</asrwt>
<pdfrwt beam="1">  1        1 0.16382832E+00 0.80394823E+03</pdfrwt>
<pdfrwt beam="2">  1       -1 0.19841927E+00 0.80394823E+03</pdfrwt>
<totfact> 0.21512195E+00</totfact>
</mgrwt>
</event>
<event>
 4    1  0.1521315E-007  0.7826590E+03  0.7818608E-02  0.9749628E-01
          1   -1    0    0  501    0  0.00000000000E+00  0.00000000000E+00  0.10345448153E+04  0.10345448153E+04  0.50400000000E-02 0. -1.
         -1   -1    0    0    0  501 -0.00000000000E+00 -0.00000000000E+00 -0.13261685230E+04  0.13261685230E+04  0.50400000000E-02 0.  1.
    8880023    1    1    2    0    0  0.42266485076E+03  0.99653043225E+01  0.83695136592E+03  0.11458807436E+04  0.65864270000E+03 0. -1.
    8880022    1    1    2    0    0 -0.42266485076E+03 -0.99653043225E+01 -0.11285750736E+04  0.12148325947E+04  0.15294330000E+03 0.  0.
<mgrwt>
<rscale>  0 0.68137318E+03</rscale>
<asrwt>0</asrwt>
<pdfrwt beam="1">  1        1 0.15916074E+00 0.78265899E+03</pdfrwt>
<pdfrwt beam="2">  1       -1 0.20402593E+00 0.78265899E+03</pdfrwt>
<totfact> 0.20846204E+00</totfact>
</mgrwt>
</event>
<event>
 4    1  0.1521315E-007  0.9475112E+03  0.7818608E-02  0.9453704E-01
          1   -1    0    0  501    0  0.00000000000E+00  0.00000000000E+00  0.14973031105E+04  0.14973031105E+04  0.50400000000E-02 0. -1.
         -1   -1    0    0    0  501 -0.00000000000E+00 -0.00000000000E+00 -0.76424518779E+03  0.76424518781E+03  0.50400000000E-02 0.  1.
    8880023    1    1    2    0    0  0.31378283106E+03  0.60457222059E+03  0.11170662216E+04  0.14647915841E+04  0.65864270000E+03 0.  0.
    8880022    1    1    2    0    0 -0.31378283106E+03 -0.60457222059E+03 -0.38400829894E+03  0.79675671422E+03  0.15294330000E+03 0.  0.
<mgrwt>
<rscale>  0 0.87784809E+03</rscale>
<asrwt>0</asrwt>
<pdfrwt beam="1">  1        1 0.23035432E+00 0.94751118E+03</pdfrwt>
<pdfrwt beam="2">  1       -1 0.11757618E+00 0.94751118E+03</pdfrwt>
<totfact> 0.43272901E+00</totfact>
</mgrwt>
</event>
<event>
 4    1  0.1521315E-007  0.7744084E+03  0.7818608E-02  0.9769139E-01
         -1   -1    0    0    0  501 -0.00000000000E+00  0.00000000000E+00  0.56864495061E+03  0.56864495064E+03  0.50400000000E-02 0.  1.
          1   -1    0    0  501    0  0.00000000000E+00 -0.00000000000E+00 -0.18975203762E+04  0.18975203762E+04  0.50400000000E-02 0. -1.
    8880023    1    1    2    0    0 -0.39469072318E+03  0.10058560979E+03 -0.17167272872E+04  0.18833111843E+04  0.65864270000E+03 0. -1.
    8880022    1    1    2    0    0  0.39469072318E+03 -0.10058560979E+03  0.38785186166E+03  0.58285414254E+03  0.15294330000E+03 0.  0.
<mgrwt>
<rscale>  0 0.67045323E+03</rscale>
<asrwt>0</asrwt>
<pdfrwt beam="1">  1        1 0.29192621E+00 0.77440844E+03</pdfrwt>
<pdfrwt beam="2">  1       -1 0.87483840E-01 0.77440844E+03</pdfrwt>
<totfact> 0.46951220E+00</totfact>
</mgrwt>
</event>
<event>
 4    1  0.1521315E-007  0.6955723E+03  0.7818608E-02  0.1001609E+00
          1   -1    0    0  501    0  0.00000000000E+00  0.00000000000E+00  0.99741634841E+03  0.99741634843E+03  0.50400000000E-02 0. -1.
         -1   -1    0    0    0  501 -0.00000000000E+00 -0.00000000000E+00 -0.49536132623E+03  0.49536132625E+03  0.50400000000E-02 0.  1.
    8880023    1    1    2    0    0  0.16398251522E+03  0.15205400785E+03  0.81985490925E+03  0.10751664825E+04  0.65864270000E+03 0. -1.
    8880022    1    1    2    0    0 -0.16398251522E+03 -0.15205400785E+03 -0.31779988707E+03  0.41761119218E+03  0.15294330000E+03 0.  0.
<mgrwt>
<rscale>  0 0.54950351E+03</rscale>
<asrwt>0</asrwt>
<pdfrwt beam="1">  1        1 0.15344867E+00 0.69557235E+03</pdfrwt>
<pdfrwt beam="2">  1       -1 0.76209436E-01 0.69557235E+03</pdfrwt>
<totfact> 0.27179840E+01</totfact>
</mgrwt>
</event>
<event>
 4    1  0.1521315E-007  0.6838064E+03  0.7818608E-02  0.1007248E+00
          1   -1    0    0  501    0  0.00000000000E+00  0.00000000000E+00  0.36499049917E+04  0.36499049917E+04  0.50400000000E-02 0. -1.
         -1   -1    0    0    0  501 -0.00000000000E+00 -0.00000000000E+00 -0.30314482141E+03  0.30314482145E+03  0.50400000000E-02 0.  1.
    8880023    1    1    2    0    0  0.15638700259E+03 -0.96561154241E+02  0.35645961006E+04  0.36295917839E+04  0.65864270000E+03 0. -1.
    8880022    1    1    2    0    0 -0.15638700259E+03  0.96561154241E+02 -0.21783593036E+03  0.32345802920E+03  0.15294330000E+03 0.  0.
<mgrwt>
<rscale>  0 0.52583363E+03</rscale>
<asrwt>0</asrwt>
<pdfrwt beam="1">  1        1 0.56152380E+00 0.68380637E+03</pdfrwt>
<pdfrwt beam="2">  1       -1 0.46637669E-01 0.68380637E+03</pdfrwt>
<totfact> 0.96670387E-01</totfact>
</mgrwt>
</event>
<event>
 4    1  0.1521315E-007  0.6905262E+03  0.7818608E-02  0.1003904E+00
          1   -1    0    0  501    0  0.00000000000E+00  0.00000000000E+00  0.46452610696E+03  0.46452610699E+03  0.50400000000E-02 0. -1.
         -1   -1    0    0    0  501 -0.00000000000E+00 -0.00000000000E+00 -0.14048263613E+04  0.14048263613E+04  0.50400000000E-02 0.  1.
    8880023    1    1    2    0    0 -0.15229644169E+03 -0.14079046265E+03  0.18503564024E+03  0.71488779186E+03  0.65864270000E+03 0.  0.
    8880022    1    1    2    0    0  0.15229644169E+03  0.14079046265E+03 -0.11253358945E+04  0.11544646764E+04  0.15294330000E+03 0.  0.
<mgrwt>
<rscale>  0 0.53971252E+03</rscale>
<asrwt>0</asrwt>
<pdfrwt beam="1">  1        1 0.71465555E-01 0.69052615E+03</pdfrwt>
<pdfrwt beam="2">  1       -1 0.21612713E+00 0.69052615E+03</pdfrwt>
<totfact> 0.59862932E+00</totfact>
</mgrwt>
</event>
<event>
 4    1  0.3108310E-007  0.8099189E+03  0.7818608E-02  0.9689746E-01
          1   -1    0    0  501    0  0.00000000000E+00  0.00000000000E+00  0.17043276057E+04  0.17043276058E+04  0.50400000000E-02 0. -1.
         -1   -1    0    0    0  501 -0.00000000000E+00 -0.00000000000E+00 -0.17881021737E+04  0.17881021737E+04  0.50400000000E-02 0.  1.
    8880023    1    1    2    0    0 -0.44324120898E+03  0.16029869733E+03  0.15696823138E+04  0.17663157176E+04  0.65864270000E+03 0. -1.
    8880022    1    1    2    0    0  0.44324120898E+03 -0.16029869733E+03 -0.16534568818E+04  0.17261140619E+04  0.15294330000E+03 0.  0.
<mgrwt>
<rscale>  0 0.71630613E+03</rscale>
<asrwt>0</asrwt>
<pdfrwt beam="1">  1        1 0.26220424E+00 0.80991891E+03</pdfrwt>
<pdfrwt beam="2">  1       -1 0.27509264E+00 0.80991891E+03</pdfrwt>
<totfact> 0.23945875E-01</totfact>
</mgrwt>
</event>
<event>
 4    1  0.1521315E-007  0.8702904E+03  0.7818608E-02  0.9575515E-01
         -1   -1    0    0    0  501 -0.00000000000E+00  0.00000000000E+00  0.11112337671E+04  0.11112337671E+04  0.50400000000E-02 0.  1.
          1   -1    0    0  501    0  0.00000000000E+00 -0.00000000000E+00 -0.15689079940E+04  0.15689079940E+04  0.50400000000E-02 0. -1.
    8880023    1    1    2    0    0 -0.25409245020E+03 -0.50895198922E+03 -0.13528126154E+04  0.16085730568E+04  0.65864270000E+03 0. -1.
    8880022    1    1    2    0    0  0.25409245020E+03  0.50895198922E+03  0.89513838844E+03  0.10715687043E+04  0.15294330000E+03 0.  0.
<mgrwt>
<rscale>  0 0.78938204E+03</rscale>
<asrwt>0</asrwt>
<pdfrwt beam="1">  1        1 0.24137046E+00 0.87029036E+03</pdfrwt>
<pdfrwt beam="2">  1       -1 0.17095904E+00 0.87029036E+03</pdfrwt>
<totfact> 0.14578623E+00</totfact>
</mgrwt>
</event>
<event>
 4    1  0.1521315E-007  0.7568430E+03  0.7818608E-02  0.9813350E-01
          1   -1    0    0  501    0  0.00000000000E+00  0.00000000000E+00  0.94088858785E+03  0.94088858787E+03  0.50400000000E-02 0. -1.
         -1   -1    0    0    0  501 -0.00000000000E+00 -0.00000000000E+00 -0.49156235556E+03  0.49156235559E+03  0.50400000000E-02 0.  1.
    8880023    1    1    2    0    0 -0.37001317056E+03  0.45730851834E+02  0.63576070486E+03  0.98843458929E+03  0.65864270000E+03 0. -1.
    8880022    1    1    2    0    0  0.37001317056E+03 -0.45730851834E+02 -0.18643447257E+03  0.44401635417E+03  0.15294330000E+03 0.  0.
<mgrwt>
<rscale>  0 0.64650985E+03</rscale>
<asrwt>0</asrwt>
<pdfrwt beam="1">  1        1 0.14475209E+00 0.75684296E+03</pdfrwt>
<pdfrwt beam="2">  1       -1 0.75624978E-01 0.75684296E+03</pdfrwt>
<totfact> 0.30379606E+01</totfact>
</mgrwt>
</event>
<event>
 4    1  0.1521315E-007  0.6930069E+03  0.7818608E-02  0.1002755E+00
         -1   -1    0    0    0  501 -0.00000000000E+00  0.00000000000E+00  0.42921618042E+03  0.42921618045E+03  0.50400000000E-02 0.  1.
          1   -1    0    0  501    0  0.00000000000E+00 -0.00000000000E+00 -0.82824620758E+03  0.82824620760E+03  0.50400000000E-02 0. -1.
    8880023    1    1    2    0    0  0.25508421262E+02 -0.21400387887E+03 -0.60693606499E+03  0.92121112291E+03  0.65864270000E+03 0. -1.
    8880022    1    1    2    0    0 -0.25508421262E+02  0.21400387887E+03  0.20790603782E+03  0.33625126514E+03  0.15294330000E+03 0.  0.
<mgrwt>
<rscale>  0 0.54458564E+03</rscale>
<asrwt>0</asrwt>
<pdfrwt beam="1">  1        1 0.12742249E+00 0.69300689E+03</pdfrwt>
<pdfrwt beam="2">  1       -1 0.66033259E-01 0.69300689E+03</pdfrwt>
<totfact> 0.49974099E+01</totfact>
</mgrwt>
</event>
<event>
 4    1  0.1521315E-007  0.9685077E+03  0.7818608E-02  0.9423971E-01
          1   -1    0    0  501    0  0.00000000000E+00  0.00000000000E+00  0.27224624183E+04  0.27224624183E+04  0.50400000000E-02 0. -1.
         -1   -1    0    0    0  501 -0.00000000000E+00 -0.00000000000E+00 -0.28462296082E+03  0.28462296086E+03  0.50400000000E-02 0.  1.
    8880023    1    1    2    0    0 -0.69104879923E+03  0.16324392737E+03  0.17833044271E+04  0.20293304090E+04  0.65864270000E+03 0.  0.
    8880022    1    1    2    0    0  0.69104879923E+03 -0.16324392737E+03  0.65453503036E+03  0.97775497018E+03  0.15294330000E+03 0.  0.
<mgrwt>
<rscale>  0 0.90128938E+03</rscale>
<asrwt>0</asrwt>
<pdfrwt beam="1">  1        1 0.41884038E+00 0.96850773E+03</pdfrwt>
<pdfrwt beam="2">  1       -1 0.43788147E-01 0.96850773E+03</pdfrwt>
<totfact> 0.50042819E+00</totfact>
</mgrwt>
</event>
<event>
 4    1  0.1521315E-007  0.7347539E+03  0.7818608E-02  0.9875501E-01
         -1   -1    0    0    0  501 -0.00000000000E+00  0.00000000000E+00  0.77029890740E+03  0.77029890742E+03  0.50400000000E-02 0.  1.
          1   -1    0    0  501    0  0.00000000000E+00 -0.00000000000E+00 -0.48068141049E+03  0.48068141051E+03  0.50400000000E-02 0. -1.
    8880023    1    1    2    0    0  0.97920189726E+02 -0.31058780770E+03 -0.75205999487E+02  0.73859278257E+03  0.65864270000E+03 0. -1.
    8880022    1    1    2    0    0 -0.97920189726E+02  0.31058780770E+03  0.36482349640E+03  0.51238753536E+03  0.15294330000E+03 0.  0.
<mgrwt>
<rscale>  0 0.61463462E+03</rscale>
<asrwt>0</asrwt>
<pdfrwt beam="1">  1        1 0.73950988E-01 0.73475394E+03</pdfrwt>
<pdfrwt beam="2">  1       -1 0.11850752E+00 0.73475394E+03</pdfrwt>
<totfact> 0.30623874E+01</totfact>
</mgrwt>
</event>
<event>
 4    1  0.1521315E-007  0.6646448E+03  0.7818608E-02  0.1019833E+00
         -1   -1    0    0    0  501 -0.00000000000E+00  0.00000000000E+00  0.37995356386E+03  0.37995356389E+03  0.50400000000E-02 0.  1.
          1   -1    0    0  501    0  0.00000000000E+00 -0.00000000000E+00 -0.11240533993E+04  0.11240533993E+04  0.50400000000E-02 0. -1.
    8880023    1    1    2    0    0 -0.73668317458E+02  0.50154159985E+02 -0.99522998650E+03  0.11967603741E+04  0.65864270000E+03 0. -1.
    8880022    1    1    2    0    0  0.73668317458E+02 -0.50154159985E+02  0.25113015102E+03  0.30724658912E+03  0.15294330000E+03 0.  0.
<mgrwt>
<rscale>  0 0.47746811E+03</rscale>
<asrwt>0</asrwt>
<pdfrwt beam="1">  1        1 0.17293129E+00 0.66464477E+03</pdfrwt>
<pdfrwt beam="2">  1       -1 0.58454395E-01 0.66464477E+03</pdfrwt>
<totfact> 0.37404898E+01</totfact>
</mgrwt>
</event>
<event>
 4    1  0.1521315E-007  0.9396075E+03  0.7818608E-02  0.9465227E-01
         -1   -1    0    0    0  501 -0.00000000000E+00  0.00000000000E+00  0.97179574956E+03  0.97179574957E+03  0.50400000000E-02 0.  1.
          1   -1    0    0  501    0  0.00000000000E+00 -0.00000000000E+00 -0.99190235898E+03  0.99190235899E+03  0.50400000000E-02 0. -1.
    8880023    1    1    2    0    0 -0.66984244799E+03  0.19056427962E+02  0.53406128956E+03  0.10807792188E+04  0.65864270000E+03 0.  0.
    8880022    1    1    2    0    0  0.66984244799E+03 -0.19056427962E+02 -0.55416789898E+03  0.88291888973E+03  0.15294330000E+03 0.  0.
<mgrwt>
<rscale>  0 0.86896766E+03</rscale>
<asrwt>0</asrwt>
<pdfrwt beam="1">  1        1 0.15260036E+00 0.93960750E+03</pdfrwt>
<pdfrwt beam="2">  1       -1 0.14950704E+00 0.93960750E+03</pdfrwt>
<totfact> 0.54569582E+00</totfact>
</mgrwt>
</event>
<event>
 4    1  0.1521315E-007  0.8922663E+03  0.7818608E-02  0.9538562E-01
         -1   -1    0    0    0  501 -0.00000000000E+00  0.00000000000E+00  0.17891587654E+04  0.17891587654E+04  0.50400000000E-02 0.  1.
          1   -1    0    0  501    0  0.00000000000E+00 -0.00000000000E+00 -0.53380993712E+03  0.53380993714E+03  0.50400000000E-02 0. -1.
    8880023    1    1    2    0    0  0.57344940185E+03  0.18298834118E+03 -0.32851180897E+02  0.89287085059E+03  0.65864270000E+03 0. -1.
    8880022    1    1    2    0    0 -0.57344940185E+03 -0.18298834118E+03  0.12882000091E+04  0.14300978519E+04  0.15294330000E+03 0.  0.
<mgrwt>
<rscale>  0 0.81499505E+03</rscale>
<asrwt>0</asrwt>
<pdfrwt beam="1">  1        1 0.82124606E-01 0.89226630E+03</pdfrwt>
<pdfrwt beam="2">  1       -1 0.27525520E+00 0.89226630E+03</pdfrwt>
<totfact> 0.19824856E+00</totfact>
</mgrwt>
</event>
<event>
 4    1  0.1521315E-007  0.8487315E+03  0.7818608E-02  0.9613931E-01
         -1   -1    0    0    0  501 -0.00000000000E+00  0.00000000000E+00  0.49042739962E+03  0.49042739965E+03  0.50400000000E-02 0.  1.
          1   -1    0    0  501    0  0.00000000000E+00 -0.00000000000E+00 -0.17462025545E+04  0.17462025545E+04  0.50400000000E-02 0. -1.
    8880023    1    1    2    0    0 -0.24216793411E+03 -0.47737791126E+03 -0.14216548459E+04  0.16557317674E+04  0.65864270000E+03 0.  0.
    8880022    1    1    2    0    0  0.24216793411E+03  0.47737791126E+03  0.16587969101E+03  0.58089818675E+03  0.15294330000E+03 0.  1.
<mgrwt>
<rscale>  0 0.76380959E+03</rscale>
<asrwt>0</asrwt>
<pdfrwt beam="1">  1        1 0.26864654E+00 0.84873152E+03</pdfrwt>
<pdfrwt beam="2">  1       -1 0.75450370E-01 0.84873152E+03</pdfrwt>
<totfact> 0.80444127E+00</totfact>
</mgrwt>
</event>
<event>
 4    1  0.1521315E-007  0.6714349E+03  0.7818608E-02  0.1014654E+00
         -1   -1    0    0    0  501 -0.00000000000E+00  0.00000000000E+00  0.91449658208E+02  0.91449658347E+02  0.50400000000E-02 0.  1.
          1   -1    0    0  501    0  0.00000000000E+00 -0.00000000000E+00 -0.22217249337E+04  0.22217249337E+04  0.50400000000E-02 0. -1.
    8880023    1    1    2    0    0  0.28006309712E+02  0.12739801192E+03 -0.18514954020E+04  0.19694821747E+04  0.65864270000E+03 0. -1.
    8880022    1    1    2    0    0 -0.28006309712E+02 -0.12739801192E+03 -0.27877987351E+03  0.34369241730E+03  0.15294330000E+03 0.  0.
<mgrwt>
<rscale>  0 0.49665980E+03</rscale>
<asrwt>0</asrwt>
<pdfrwt beam="1">  1        1 0.34180380E+00 0.67143489E+03</pdfrwt>
<pdfrwt beam="2">  1       -1 0.14069180E-01 0.67143489E+03</pdfrwt>
<totfact> 0.80320308E+01</totfact>
</mgrwt>
</event>
<event>
 4    1  0.1521315E-007  0.8731906E+03  0.7818608E-02  0.9570517E-01
         -1   -1    0    0    0  501 -0.00000000000E+00  0.00000000000E+00  0.77623545417E+03  0.77623545419E+03  0.50400000000E-02 0.  1.
          1   -1    0    0  501    0  0.00000000000E+00 -0.00000000000E+00 -0.10716247213E+04  0.10716247213E+04  0.50400000000E-02 0. -1.
    8880023    1    1    2    0    0 -0.28512376931E+03  0.49734907254E+03 -0.70883869058E+03  0.11246840264E+04  0.65864270000E+03 0.  0.
    8880022    1    1    2    0    0  0.28512376931E+03 -0.49734907254E+03  0.41344942347E+03  0.72317614905E+03  0.15294330000E+03 0.  0.
<mgrwt>
<rscale>  0 0.79278662E+03</rscale>
<asrwt>0</asrwt>
<pdfrwt beam="1">  1        1 0.16486534E+00 0.87319063E+03</pdfrwt>
<pdfrwt beam="2">  1       -1 0.11942084E+00 0.87319063E+03</pdfrwt>
<totfact> 0.84901264E+00</totfact>
</mgrwt>
</event>
<event>
 4    1  0.1521315E-007  0.6943590E+03  0.7818608E-02  0.1002146E+00
         -1   -1    0    0    0  501 -0.00000000000E+00  0.00000000000E+00  0.18870076195E+03  0.18870076202E+03  0.50400000000E-02 0.  1.
          1   -1    0    0  501    0  0.00000000000E+00 -0.00000000000E+00 -0.14983096356E+04  0.14983096357E+04  0.50400000000E-02 0. -1.
    8880023    1    1    2    0    0 -0.17561970737E+03 -0.13221914254E+03 -0.12215522491E+04  0.14051065037E+04  0.65864270000E+03 0.  0.
    8880022    1    1    2    0    0  0.17561970737E+03  0.13221914254E+03 -0.88056624585E+02  0.28190389394E+03  0.15294330000E+03 0.  0.
<mgrwt>
<rscale>  0 0.54719223E+03</rscale>
<asrwt>0</asrwt>
<pdfrwt beam="1">  1        1 0.23050917E+00 0.69435898E+03</pdfrwt>
<pdfrwt beam="2">  1       -1 0.29030887E-01 0.69435898E+03</pdfrwt>
<totfact> 0.73080689E+01</totfact>
</mgrwt>
</event>
<event>
 4    1  0.1521315E-007  0.6691121E+03  0.7818608E-02  0.1016308E+00
         -1   -1    0    0    0  501 -0.00000000000E+00  0.00000000000E+00  0.27021757023E+03  0.27021757028E+03  0.50400000000E-02 0.  1.
          1   -1    0    0  501    0  0.00000000000E+00 -0.00000000000E+00 -0.12844226038E+04  0.12844226039E+04  0.50400000000E-02 0. -1.
    8880023    1    1    2    0    0  0.22510696772E+02  0.11573275082E+03 -0.11416375362E+04  0.13232714277E+04  0.65864270000E+03 0. -1.
    8880022    1    1    2    0    0 -0.22510696772E+02 -0.11573275082E+03  0.12743250260E+03  0.23136874641E+03  0.15294330000E+03 0.  0.
<mgrwt>
<rscale>  0 0.49042973E+03</rscale>
<asrwt>0</asrwt>
<pdfrwt beam="1">  1        1 0.19760347E+00 0.66911210E+03</pdfrwt>
<pdfrwt beam="2">  1       -1 0.41571935E-01 0.66911210E+03</pdfrwt>
<totfact> 0.54486283E+01</totfact>
</mgrwt>
</event>
<event>
 4    1  0.1521315E-007  0.6906303E+03  0.7818608E-02  0.1003854E+00
         -1   -1    0    0    0  501 -0.00000000000E+00  0.00000000000E+00  0.77591289345E+03  0.77591289347E+03  0.50400000000E-02 0.  1.
          1   -1    0    0  501    0  0.00000000000E+00 -0.00000000000E+00 -0.19803005699E+04  0.19803005699E+04  0.50400000000E-02 0. -1.
    8880023    1    1    2    0    0  0.16215470518E+03  0.12986837727E+03 -0.18960998618E+04  0.20179605635E+04  0.65864270000E+03 0. -1.
    8880022    1    1    2    0    0 -0.16215470518E+03 -0.12986837727E+03  0.69171218532E+03  0.73825289986E+03  0.15294330000E+03 0.  0.
<mgrwt>
<rscale>  0 0.53991950E+03</rscale>
<asrwt>0</asrwt>
<pdfrwt beam="1">  1        1 0.30466162E+00 0.69063026E+03</pdfrwt>
<pdfrwt beam="2">  1       -1 0.11937122E+00 0.69063026E+03</pdfrwt>
<totfact> 0.20564963E+00</totfact>
</mgrwt>
</event>
<event>
 4    1  0.1521315E-007  0.8460962E+03  0.7818608E-02  0.9618791E-01
         -1   -1    0    0    0  501 -0.00000000000E+00  0.00000000000E+00  0.17315260633E+04  0.17315260633E+04  0.50400000000E-02 0.  1.
          1   -1    0    0  501    0  0.00000000000E+00 -0.00000000000E+00 -0.30986132575E+03  0.30986132579E+03  0.50400000000E-02 0. -1.
    8880023    1    1    2    0    0  0.50069105195E+03  0.17713552308E+03  0.54958053796E+03  0.10089189745E+04  0.65864270000E+03 0. -1.
    8880022    1    1    2    0    0 -0.50069105195E+03 -0.17713552308E+03  0.87208419962E+03  0.10324684147E+04  0.15294330000E+03 0.  0.
<mgrwt>
<rscale>  0 0.76064869E+03</rscale>
<asrwt>0</asrwt>
<pdfrwt beam="1">  1        1 0.47670973E-01 0.84609617E+03</pdfrwt>
<pdfrwt beam="2">  1       -1 0.26638862E+00 0.84609617E+03</pdfrwt>
<totfact> 0.47130670E+00</totfact>
</mgrwt>
</event>
<event>
 4    1  0.1521315E-007  0.7421460E+03  0.7818608E-02  0.9853740E-01
          1   -1    0    0  501    0  0.00000000000E+00  0.00000000000E+00  0.21423279865E+04  0.21423279865E+04  0.50400000000E-02 0. -1.
         -1   -1    0    0    0  501 -0.00000000000E+00 -0.00000000000E+00 -0.22653412728E+03  0.22653412733E+03  0.50400000000E-02 0.  1.
    8880023    1    1    2    0    0 -0.28000679510E+03 -0.19638384537E+03  0.47730002143E+03  0.88238083430E+03  0.65864270000E+03 0.  0.
    8880022    1    1    2    0    0  0.28000679510E+03  0.19638384537E+03  0.14384938378E+04  0.14864812795E+04  0.15294330000E+03 0.  0.
<mgrwt>
<rscale>  0 0.62556612E+03</rscale>
<asrwt>0</asrwt>
<pdfrwt beam="1">  1        1 0.32958893E+00 0.74214596E+03</pdfrwt>
<pdfrwt beam="2">  1       -1 0.34851403E-01 0.74214596E+03</pdfrwt>
<totfact> 0.19470299E+01</totfact>
</mgrwt>
</event>
<event>
 4    1  0.1521315E-007  0.6637157E+03  0.7818608E-02  0.1020636E+00
         -1   -1    0    0    0  501 -0.00000000000E+00  0.00000000000E+00  0.46175345059E+03  0.46175345062E+03  0.50400000000E-02 0.  1.
          1   -1    0    0  501    0  0.00000000000E+00 -0.00000000000E+00 -0.21210811330E+04  0.21210811330E+04  0.50400000000E-02 0. -1.
    8880023    1    1    2    0    0 -0.81827113459E+02 -0.35560600766E+01 -0.20503242560E+04  0.21550749600E+04  0.65864270000E+03 0. -1.
    8880022    1    1    2    0    0  0.81827113459E+02  0.35560600766E+01  0.39099657359E+03  0.42775962366E+03  0.15294330000E+03 0.  0.
<mgrwt>
<rscale>  0 0.47457771E+03</rscale>
<asrwt>0</asrwt>
<pdfrwt beam="1">  1        1 0.32632017E+00 0.66371570E+03</pdfrwt>
<pdfrwt beam="2">  1       -1 0.71038994E-01 0.66371570E+03</pdfrwt>
<totfact> 0.52752608E+00</totfact>
</mgrwt>
</event>
<event>
 4    1  0.1521315E-007  0.7145217E+03  0.7818608E-02  0.9941578E-01
         -1   -1    0    0    0  501 -0.00000000000E+00  0.00000000000E+00  0.90675750908E+03  0.90675750909E+03  0.50400000000E-02 0.  1.
          1   -1    0    0  501    0  0.00000000000E+00 -0.00000000000E+00 -0.75431157910E+03  0.75431157911E+03  0.50400000000E-02 0. -1.
    8880023    1    1    2    0    0 -0.16415697724E+03  0.22312225519E+03 -0.54272725660E+03  0.89727038024E+03  0.65864270000E+03 0. -1.
    8880022    1    1    2    0    0  0.16415697724E+03 -0.22312225519E+03  0.69517318658E+03  0.76379870797E+03  0.15294330000E+03 0.  0.
<mgrwt>
<rscale>  0 0.58287864E+03</rscale>
<asrwt>0</asrwt>
<pdfrwt beam="1">  1        1 0.11604794E+00 0.71452170E+03</pdfrwt>
<pdfrwt beam="2">  1       -1 0.13950116E+00 0.71452170E+03</pdfrwt>
<totfact> 0.10634356E+01</totfact>
</mgrwt>
</event>
<event>
 4    1  0.1521315E-007  0.8262086E+03  0.7818608E-02  0.9656755E-01
         -1   -1    0    0    0  501 -0.00000000000E+00  0.00000000000E+00  0.80476200654E+03  0.80476200656E+03  0.50400000000E-02 0.  1.
          1   -1    0    0  501    0  0.00000000000E+00 -0.00000000000E+00 -0.11534860650E+04  0.11534860650E+04  0.50400000000E-02 0. -1.
    8880023    1    1    2    0    0 -0.43987443605E+03  0.23520384463E+03 -0.88453934943E+03  0.12103844162E+04  0.65864270000E+03 0. -1.
    8880022    1    1    2    0    0  0.43987443605E+03 -0.23520384463E+03  0.53581529095E+03  0.74786365539E+03  0.15294330000E+03 0.  0.
<mgrwt>
<rscale>  0 0.73651006E+03</rscale>
<asrwt>0</asrwt>
<pdfrwt beam="1">  1        1 0.17745940E+00 0.82620855E+03</pdfrwt>
<pdfrwt beam="2">  1       -1 0.12380954E+00 0.82620855E+03</pdfrwt>
<totfact> 0.67912139E+00</totfact>
</mgrwt>
</event>
<event>
 4    1  0.1521315E-007  0.7526107E+03  0.7818608E-02  0.9824627E-01
          1   -1    0    0  501    0  0.00000000000E+00  0.00000000000E+00  0.32501566334E+03  0.32501566338E+03  0.50400000000E-02 0. -1.
         -1   -1    0    0    0  501 -0.00000000000E+00 -0.00000000000E+00 -0.12479632131E+04  0.12479632131E+04  0.50400000000E-02 0.  1.
    8880023    1    1    2    0    0  0.30397239371E+03  0.20053284469E+03 -0.25066622847E+03  0.79325683249E+03  0.65864270000E+03 0.  0.
    8880022    1    1    2    0    0 -0.30397239371E+03 -0.20053284469E+03 -0.67228132131E+03  0.77972204402E+03  0.15294330000E+03 0.  0.
<mgrwt>
<rscale>  0 0.64057481E+03</rscale>
<asrwt>0</asrwt>
<pdfrwt beam="1">  1        1 0.50002411E-01 0.75261069E+03</pdfrwt>
<pdfrwt beam="2">  1       -1 0.19199434E+00 0.75261069E+03</pdfrwt>
<totfact> 0.13892243E+01</totfact>
</mgrwt>
</event>
<event>
 4    1  0.1521315E-007  0.7647254E+03  0.7818608E-02  0.9793024E-01
          1   -1    0    0  501    0  0.00000000000E+00  0.00000000000E+00  0.17939983355E+04  0.17939983355E+04  0.50400000000E-02 0. -1.
         -1   -1    0    0    0  501 -0.00000000000E+00 -0.00000000000E+00 -0.31524243937E+03  0.31524243941E+03  0.50400000000E-02 0.  1.
    8880023    1    1    2    0    0  0.54357866728E+02 -0.38475962712E+03  0.15077951617E+04  0.16906363312E+04  0.65864270000E+03 0. -1.
    8880022    1    1    2    0    0 -0.54357866728E+02  0.38475962712E+03 -0.29039265608E+02  0.41860444371E+03  0.15294330000E+03 0.  0.
<mgrwt>
<rscale>  0 0.65738262E+03</rscale>
<asrwt>0</asrwt>
<pdfrwt beam="1">  1        1 0.27599975E+00 0.76472541E+03</pdfrwt>
<pdfrwt beam="2">  1       -1 0.48498837E-01 0.76472541E+03</pdfrwt>
<totfact> 0.18136249E+01</totfact>
</mgrwt>
</event>
<event>
 4    1  0.1521315E-007  0.9000278E+03  0.7818608E-02  0.9525987E-01
         -1   -1    0    0    0  501 -0.00000000000E+00  0.00000000000E+00  0.13012643757E+04  0.13012643757E+04  0.50400000000E-02 0.  1.
          1   -1    0    0  501    0  0.00000000000E+00 -0.00000000000E+00 -0.15079738721E+04  0.15079738721E+04  0.50400000000E-02 0. -1.
    8880023    1    1    2    0    0 -0.57669429665E+03  0.20895798770E+03 -0.12793212213E+04  0.15641971570E+04  0.65864270000E+03 0. -1.
    8880022    1    1    2    0    0  0.57669429665E+03 -0.20895798770E+03  0.10726117249E+04  0.12450410908E+04  0.15294330000E+03 0.  0.
<mgrwt>
<rscale>  0 0.82394719E+03</rscale>
<asrwt>0</asrwt>
<pdfrwt beam="1">  1        1 0.23199598E+00 0.90002775E+03</pdfrwt>
<pdfrwt beam="2">  1       -1 0.20019452E+00 0.90002775E+03</pdfrwt>
<totfact> 0.99201711E-01</totfact>
</mgrwt>
</event>
<event>
 4    1  0.1521315E-007  0.9008069E+03  0.7818608E-02  0.9524738E-01
          1   -1    0    0  501    0  0.00000000000E+00  0.00000000000E+00  0.92403661648E+03  0.92403661649E+03  0.50400000000E-02 0. -1.
         -1   -1    0    0    0  501 -0.00000000000E+00 -0.00000000000E+00 -0.11378293273E+04  0.11378293274E+04  0.50400000000E-02 0.  1.
    8880023    1    1    2    0    0 -0.26660256247E+03 -0.55368393264E+03 -0.79564392149E+03  0.12018744858E+04  0.65864270000E+03 0.  0.
    8880022    1    1    2    0    0  0.26660256247E+03  0.55368393264E+03  0.58185121062E+03  0.85999145803E+03  0.15294330000E+03 0.  0.
<mgrwt>
<rscale>  0 0.82484336E+03</rscale>
<asrwt>0</asrwt>
<pdfrwt beam="1">  1        1 0.14215948E+00 0.90080688E+03</pdfrwt>
<pdfrwt beam="2">  1       -1 0.17505067E+00 0.90080688E+03</pdfrwt>
<totfact> 0.39912646E+00</totfact>
</mgrwt>
</event>
<event>
 4    1  0.1521315E-007  0.8210165E+03  0.7818608E-02  0.9667071E-01
          1   -1    0    0  501    0  0.00000000000E+00  0.00000000000E+00  0.35037026276E+04  0.35037026276E+04  0.50400000000E-02 0. -1.
         -1   -1    0    0    0  501 -0.00000000000E+00 -0.00000000000E+00 -0.31763578293E+03  0.31763578297E+03  0.50400000000E-02 0.  1.
    8880023    1    1    2    0    0  0.24398648168E+03 -0.42512165972E+03  0.32040377959E+04  0.33075559304E+04  0.65864270000E+03 0.  0.
    8880022    1    1    2    0    0 -0.24398648168E+03  0.42512165972E+03 -0.17970951267E+02  0.51378248015E+03  0.15294330000E+03 0.  0.
<mgrwt>
<rscale>  0 0.73011667E+03</rscale>
<asrwt>0</asrwt>
<pdfrwt beam="1">  1        1 0.53903118E+00 0.82101646E+03</pdfrwt>
<pdfrwt beam="2">  1       -1 0.48867043E-01 0.82101646E+03</pdfrwt>
<totfact> 0.11179314E+00</totfact>
</mgrwt>
</event>
<event>
 4    1  0.1521315E-007  0.6780246E+03  0.7818608E-02  0.1010464E+00
         -1   -1    0    0    0  501 -0.00000000000E+00  0.00000000000E+00  0.48984087288E+03  0.48984087290E+03  0.50400000000E-02 0.  1.
          1   -1    0    0  501    0  0.00000000000E+00 -0.00000000000E+00 -0.47912075781E+03  0.47912075784E+03  0.50400000000E-02 0. -1.
    8880023    1    1    2    0    0  0.30493532175E+02 -0.15804207887E+03  0.16596047254E+03  0.69804028459E+03  0.65864270000E+03 0.  0.
    8880022    1    1    2    0    0 -0.30493532175E+02  0.15804207887E+03 -0.15524035748E+03  0.27092134616E+03  0.15294330000E+03 0.  0.
<mgrwt>
<rscale>  0 0.51290702E+03</rscale>
<asrwt>0</asrwt>
<pdfrwt beam="1">  1        1 0.73710885E-01 0.67802460E+03</pdfrwt>
<pdfrwt beam="2">  1       -1 0.75360135E-01 0.67802460E+03</pdfrwt>
<totfact> 0.85199276E+01</totfact>
</mgrwt>
</event>
<event>
 4    1  0.1521315E-007  0.1020757E+04  0.7818608E-02  0.9354891E-01
         -1   -1    0    0    0  501 -0.00000000000E+00  0.00000000000E+00  0.10862300435E+04  0.10862300435E+04  0.50400000000E-02 0.  1.
          1   -1    0    0  501    0  0.00000000000E+00 -0.00000000000E+00 -0.11312498668E+04  0.11312498668E+04  0.50400000000E-02 0. -1.
    8880023    1    1    2    0    0  0.40715109186E+03  0.66510403790E+03 -0.65747239123E+03  0.12141727819E+04  0.65864270000E+03 0. -1.
    8880022    1    1    2    0    0 -0.40715109186E+03 -0.66510403790E+03  0.61245256801E+03  0.10033071284E+04  0.15294330000E+03 0.  0.
<mgrwt>
<rscale>  0 0.95882839E+03</rscale>
<asrwt>0</asrwt>
<pdfrwt beam="1">  1        1 0.17403844E+00 0.10207574E+04</pdfrwt>
<pdfrwt beam="2">  1       -1 0.16711232E+00 0.10207574E+04</pdfrwt>
<totfact> 0.31072403E+00</totfact>
</mgrwt>
</event>
<event>
 4    1  0.1521315E-007  0.7792984E+03  0.7818608E-02  0.9757488E-01
         -1   -1    0    0    0  501 -0.00000000000E+00  0.00000000000E+00  0.34545967124E+03  0.34545967128E+03  0.50400000000E-02 0.  1.
          1   -1    0    0  501    0  0.00000000000E+00 -0.00000000000E+00 -0.17402394290E+04  0.17402394290E+04  0.50400000000E-02 0. -1.
    8880023    1    1    2    0    0 -0.41156720146E+03  0.64094868871E+02 -0.14423724611E+04  0.16394341208E+04  0.65864270000E+03 0. -1.
    8880022    1    1    2    0    0  0.41156720146E+03 -0.64094868871E+02  0.47592703325E+02  0.44626497954E+03  0.15294330000E+03 0.  0.
<mgrwt>
<rscale>  0 0.67694759E+03</rscale>
<asrwt>0</asrwt>
<pdfrwt beam="1">  1        1 0.26772914E+00 0.77929835E+03</pdfrwt>
<pdfrwt beam="2">  1       -1 0.53147643E-01 0.77929835E+03</pdfrwt>
<totfact> 0.16527500E+01</totfact>
</mgrwt>
</event>
<event>
 4    1  0.1521315E-007  0.8843872E+03  0.7818608E-02  0.9551575E-01
         -1   -1    0    0    0  501 -0.00000000000E+00  0.00000000000E+00  0.90398186233E+03  0.90398186235E+03  0.50400000000E-02 0.  1.
          1   -1    0    0  501    0  0.00000000000E+00 -0.00000000000E+00 -0.82232498803E+03  0.82232498804E+03  0.50400000000E-02 0. -1.
    8880023    1    1    2    0    0 -0.12116401423E+03 -0.57762420529E+03 -0.37898024451E+03  0.96216769478E+03  0.65864270000E+03 0. -1.
    8880022    1    1    2    0    0  0.12116401423E+03  0.57762420529E+03  0.46063711882E+03  0.76413915561E+03  0.15294330000E+03 0.  0.
<mgrwt>
<rscale>  0 0.80585911E+03</rscale>
<asrwt>0</asrwt>
<pdfrwt beam="1">  1        1 0.12651154E+00 0.88438716E+03</pdfrwt>
<pdfrwt beam="2">  1       -1 0.13907413E+00 0.88438716E+03</pdfrwt>
<totfact> 0.91508377E+00</totfact>
</mgrwt>
</event>
<event>
 4    1  0.1521315E-007  0.1096831E+04  0.7818608E-02  0.9264592E-01
         -1   -1    0    0    0  501 -0.00000000000E+00  0.00000000000E+00  0.37185376762E+03  0.37185376765E+03  0.50400000000E-02 0.  1.
          1   -1    0    0  501    0  0.00000000000E+00 -0.00000000000E+00 -0.26547371562E+04  0.26547371562E+04  0.50400000000E-02 0. -1.
    8880023    1    1    2    0    0 -0.85673606245E+03  0.18770262078E+03 -0.12645533530E+04  0.16739576886E+04  0.65864270000E+03 0. -1.
    8880022    1    1    2    0    0  0.85673606245E+03 -0.18770262078E+03 -0.10183300356E+04  0.13526332352E+04  0.15294330000E+03 0.  1.
<mgrwt>
<rscale>  0 0.10410895E+04</rscale>
<asrwt>0</asrwt>
<pdfrwt beam="1">  1        1 0.40842109E+00 0.10968314E+04</pdfrwt>
<pdfrwt beam="2">  1       -1 0.57208274E-01 0.10968314E+04</pdfrwt>
<totfact> 0.32948346E+00</totfact>
</mgrwt>
</event>
<event>
 4    1  0.1521315E-007  0.8024537E+03  0.7818608E-02  0.9705516E-01
         -1   -1    0    0    0  501 -0.00000000000E+00  0.00000000000E+00  0.79217496187E+03  0.79217496188E+03  0.50400000000E-02 0.  1.
          1   -1    0    0  501    0  0.00000000000E+00 -0.00000000000E+00 -0.19219868874E+04  0.19219868874E+04  0.50400000000E-02 0. -1.
    8880023    1    1    2    0    0  0.45477606896E+03 -0.57449360360E+02 -0.17516070926E+04  0.19266705258E+04  0.65864270000E+03 0. -1.
    8880022    1    1    2    0    0 -0.45477606896E+03  0.57449360360E+02  0.62179516701E+03  0.78749132353E+03  0.15294330000E+03 0.  0.
<mgrwt>
<rscale>  0 0.70689343E+03</rscale>
<asrwt>0</asrwt>
<pdfrwt beam="1">  1        1 0.29569029E+00 0.80245368E+03</pdfrwt>
<pdfrwt beam="2">  1       -1 0.12187307E+00 0.80245368E+03</pdfrwt>
<totfact> 0.20916323E+00</totfact>
</mgrwt>
</event>
<event>
 4    1  0.1521315E-007  0.8295483E+03  0.7818608E-02  0.9650212E-01
         -1   -1    0    0    0  501 -0.00000000000E+00  0.00000000000E+00  0.11074308431E+04  0.11074308432E+04  0.50400000000E-02 0.  1.
          1   -1    0    0  501    0  0.00000000000E+00 -0.00000000000E+00 -0.11596230148E+04  0.11596230148E+04  0.50400000000E-02 0. -1.
    8880023    1    1    2    0    0  0.64702148584E+02  0.50015381293E+03 -0.92811902605E+03  0.12448113662E+04  0.65864270000E+03 0.  0.
    8880022    1    1    2    0    0 -0.64702148584E+02 -0.50015381293E+03  0.87592685442E+03  0.10222424918E+04  0.15294330000E+03 0.  0.
<mgrwt>
<rscale>  0 0.74060131E+03</rscale>
<asrwt>0</asrwt>
<pdfrwt beam="1">  1        1 0.17840354E+00 0.82954832E+03</pdfrwt>
<pdfrwt beam="2">  1       -1 0.17037398E+00 0.82954832E+03</pdfrwt>
<totfact> 0.28761666E+00</totfact>
</mgrwt>
</event>
<event>
 4    1  0.1521315E-007  0.8572407E+03  0.7818608E-02  0.9598491E-01
         -1   -1    0    0    0  501 -0.00000000000E+00  0.00000000000E+00  0.91258640988E+03  0.91258640990E+03  0.50400000000E-02 0.  1.
          1   -1    0    0  501    0  0.00000000000E+00 -0.00000000000E+00 -0.56815579399E+03  0.56815579401E+03  0.50400000000E-02 0. -1.
    8880023    1    1    2    0    0  0.51841316294E+03  0.17972000825E+03  0.30461275953E+03  0.90975305903E+03  0.65864270000E+03 0.  0.
    8880022    1    1    2    0    0 -0.51841316294E+03 -0.17972000825E+03  0.39817856363E+02  0.57098914488E+03  0.15294330000E+03 0.  1.
<mgrwt>
<rscale>  0 0.77396163E+03</rscale>
<asrwt>0</asrwt>
<pdfrwt beam="1">  1        1 0.87408585E-01 0.85724075E+03</pdfrwt>
<pdfrwt beam="2">  1       -1 0.14039791E+00 0.85724075E+03</pdfrwt>
<totfact> 0.15655389E+01</totfact>
</mgrwt>
</event>
<event>
 4    1  0.1725895E-007  0.8402744E+03  0.7818608E-02  0.9629663E-01
         -1   -1    0    0    0  501 -0.00000000000E+00  0.00000000000E+00  0.28659905184E+04  0.28659905184E+04  0.50400000000E-02 0.  1.
          1   -1    0    0  501    0  0.00000000000E+00 -0.00000000000E+00 -0.94683393984E+03  0.94683393985E+03  0.50400000000E-02 0. -1.
    8880023    1    1    2    0    0 -0.51897313680E+03 -0.54016042414E+02 -0.72716017134E+03  0.11112258864E+04  0.65864270000E+03 0. -1.
    8880022    1    1    2    0    0  0.51897313680E+03  0.54016042414E+02  0.26463167499E+04  0.27015985719E+04  0.15294330000E+03 0.  0.
<mgrwt>
<rscale>  0 0.75363612E+03</rscale>
<asrwt>0</asrwt>
<pdfrwt beam="1">  1        1 0.14566676E+00 0.84027439E+03</pdfrwt>
<pdfrwt beam="2">  1       -1 0.44092161E+00 0.84027439E+03</pdfrwt>
<totfact> 0.66145690E-02</totfact>
</mgrwt>
</event>
<event>
 4    1  0.1521315E-007  0.7774964E+03  0.7818608E-02  0.9761751E-01
          1   -1    0    0  501    0  0.00000000000E+00  0.00000000000E+00  0.69254762002E+03  0.69254762004E+03  0.50400000000E-02 0. -1.
         -1   -1    0    0    0  501 -0.00000000000E+00 -0.00000000000E+00 -0.58325338264E+03  0.58325338267E+03  0.50400000000E-02 0.  1.
    8880023    1    1    2    0    0  0.27047670853E+03  0.31230236152E+03  0.24439630790E+03  0.81500317573E+03  0.65864270000E+03 0. -1.
    8880022    1    1    2    0    0 -0.27047670853E+03 -0.31230236152E+03 -0.13510207053E+03  0.46079782697E+03  0.15294330000E+03 0.  0.
<mgrwt>
<rscale>  0 0.67456213E+03</rscale>
<asrwt>0</asrwt>
<pdfrwt beam="1">  1        1 0.10654579E+00 0.77749638E+03</pdfrwt>
<pdfrwt beam="2">  1       -1 0.89731290E-01 0.77749638E+03</pdfrwt>
<totfact> 0.34393328E+01</totfact>
</mgrwt>
</event>
<event>
 4    1  0.1521315E-007  0.7079554E+03  0.7818608E-02  0.9965673E-01
          1   -1    0    0  501    0  0.00000000000E+00  0.00000000000E+00  0.78103599612E+03  0.78103599614E+03  0.50400000000E-02 0. -1.
         -1   -1    0    0    0  501 -0.00000000000E+00 -0.00000000000E+00 -0.62398408628E+03  0.62398408630E+03  0.50400000000E-02 0.  1.
    8880023    1    1    2    0    0 -0.15821596165E+03 -0.20581161047E+03  0.55944905496E+03  0.90232153963E+03  0.65864270000E+03 0. -1.
    8880022    1    1    2    0    0  0.15821596165E+03  0.20581161047E+03 -0.40239714512E+03  0.50269854280E+03  0.15294330000E+03 0.  0.
<mgrwt>
<rscale>  0 0.57181380E+03</rscale>
<asrwt>0</asrwt>
<pdfrwt beam="1">  1        1 0.12015938E+00 0.70795545E+03</pdfrwt>
<pdfrwt beam="2">  1       -1 0.95997551E-01 0.70795545E+03</pdfrwt>
<totfact> 0.24779126E+01</totfact>
</mgrwt>
</event>
<event>
 4    1  0.1521315E-007  0.9857576E+03  0.7818608E-02  0.9400433E-01
         -1   -1    0    0    0  501 -0.00000000000E+00  0.00000000000E+00  0.11995393938E+04  0.11995393939E+04  0.50400000000E-02 0.  1.
          1   -1    0    0  501    0  0.00000000000E+00 -0.00000000000E+00 -0.12670413474E+04  0.12670413474E+04  0.50400000000E-02 0. -1.
    8880023    1    1    2    0    0  0.29928816988E+03  0.66957774618E+03  0.83623991202E+03  0.12926775172E+04  0.65864270000E+03 0.  0.
    8880022    1    1    2    0    0 -0.29928816988E+03 -0.66957774618E+03 -0.90374186557E+03  0.11739032240E+04  0.15294330000E+03 0.  0.
<mgrwt>
<rscale>  0 0.92040064E+03</rscale>
<asrwt>0</asrwt>
<pdfrwt beam="1">  1        1 0.19492944E+00 0.98575756E+03</pdfrwt>
<pdfrwt beam="2">  1       -1 0.18454452E+00 0.98575756E+03</pdfrwt>
<totfact> 0.18570121E+00</totfact>
</mgrwt>
</event>
<event>
 4    1  0.1521315E-007  0.8101824E+03  0.7818608E-02  0.9689197E-01
          1   -1    0    0  501    0  0.00000000000E+00  0.00000000000E+00  0.98004555066E+03  0.98004555067E+03  0.50400000000E-02 0. -1.
         -1   -1    0    0    0  501 -0.00000000000E+00 -0.00000000000E+00 -0.54921244441E+03  0.54921244443E+03  0.50400000000E-02 0.  1.
    8880023    1    1    2    0    0  0.16200480803E+02  0.47151131361E+03  0.59680148914E+03  0.10062641791E+04  0.65864270000E+03 0. -1.
    8880022    1    1    2    0    0 -0.16200480803E+02 -0.47151131361E+03 -0.16596838289E+03  0.52299381600E+03  0.15294330000E+03 0.  0.
<mgrwt>
<rscale>  0 0.71663652E+03</rscale>
<asrwt>0</asrwt>
<pdfrwt beam="1">  1        1 0.15077624E+00 0.81018244E+03</pdfrwt>
<pdfrwt beam="2">  1       -1 0.84494223E-01 0.81018244E+03</pdfrwt>
<totfact> 0.22224417E+01</totfact>
</mgrwt>
</event>
<event>
 4    1  0.1521315E-007  0.7228249E+03  0.7818608E-02  0.9913141E-01
          1   -1    0    0  501    0  0.00000000000E+00  0.00000000000E+00  0.89464788548E+03  0.89464788550E+03  0.50400000000E-02 0. -1.
         -1   -1    0    0    0  501 -0.00000000000E+00 -0.00000000000E+00 -0.37684995049E+03  0.37684995053E+03  0.50400000000E-02 0.  1.
    8880023    1    1    2    0    0 -0.90635658202E+01 -0.29762975424E+03  0.58521356771E+03  0.93002728182E+03  0.65864270000E+03 0. -1.
    8880022    1    1    2    0    0  0.90635658202E+01  0.29762975424E+03 -0.67415632719E+02  0.34147055420E+03  0.15294330000E+03 0.  1.
<mgrwt>
<rscale>  0 0.59628630E+03</rscale>
<asrwt>0</asrwt>
<pdfrwt beam="1">  1        1 0.13763814E+00 0.72282489E+03</pdfrwt>
<pdfrwt beam="2">  1       -1 0.57976916E-01 0.72282489E+03</pdfrwt>
<totfact> 0.56801490E+01</totfact>
</mgrwt>
</event>
<event>
 4    1  0.1663570E-007  0.8271746E+03  0.7818608E-02  0.9654855E-01
          1   -1    0    0  501    0  0.00000000000E+00  0.00000000000E+00  0.12171818071E+04  0.12171818071E+04  0.50400000000E-02 0. -1.
         -1   -1    0    0    0  501 -0.00000000000E+00 -0.00000000000E+00 -0.19089629247E+04  0.19089629247E+04  0.50400000000E-02 0.  1.
    8880023    1    1    2    0    0  0.49186881052E+03 -0.92046864379E+02  0.10332122429E+04  0.13235351515E+04  0.65864270000E+03 0.  0.
    8880022    1    1    2    0    0 -0.49186881052E+03  0.92046864379E+02 -0.17249933606E+04  0.18026095803E+04  0.15294330000E+03 0.  0.
<mgrwt>
<rscale>  0 0.73769510E+03</rscale>
<asrwt>0</asrwt>
<pdfrwt beam="1">  1        1 0.18725874E+00 0.82717456E+03</pdfrwt>
<pdfrwt beam="2">  1       -1 0.29368660E+00 0.82717456E+03</pdfrwt>
<totfact> 0.39452358E-01</totfact>
</mgrwt>
</event>
<event>
 4    1  0.1521315E-007  0.8011095E+03  0.7818608E-02  0.9708402E-01
          1   -1    0    0  501    0  0.00000000000E+00  0.00000000000E+00  0.62764139748E+03  0.62764139750E+03  0.50400000000E-02 0. -1.
         -1   -1    0    0    0  501 -0.00000000000E+00 -0.00000000000E+00 -0.76895523805E+03  0.76895523806E+03  0.50400000000E-02 0.  1.
    8880023    1    1    2    0    0  0.45111027049E+03 -0.66826466334E+02  0.17619261312E+03  0.82025623797E+03  0.65864270000E+03 0. -1.
    8880022    1    1    2    0    0 -0.45111027049E+03  0.66826466334E+02 -0.31750645370E+03  0.57634039759E+03  0.15294330000E+03 0.  0.
<mgrwt>
<rscale>  0 0.70518727E+03</rscale>
<asrwt>0</asrwt>
<pdfrwt beam="1">  1        1 0.96560215E-01 0.80110952E+03</pdfrwt>
<pdfrwt beam="2">  1       -1 0.11830081E+00 0.80110952E+03</pdfrwt>
<totfact> 0.20986209E+01</totfact>
</mgrwt>
</event>
<event>
 4    1  0.1521315E-007  0.8226372E+03  0.7818608E-02  0.9663832E-01
          1   -1    0    0  501    0  0.00000000000E+00  0.00000000000E+00  0.78245126056E+03  0.78245126057E+03  0.50400000000E-02 0. -1.
         -1   -1    0    0    0  501 -0.00000000000E+00 -0.00000000000E+00 -0.80913916100E+03  0.80913916102E+03  0.50400000000E-02 0.  1.
    8880023    1    1    2    0    0 -0.38734798299E+03  0.30476748990E+03  0.40671140874E+03  0.91768516338E+03  0.65864270000E+03 0.  0.
    8880022    1    1    2    0    0  0.38734798299E+03 -0.30476748990E+03 -0.43339930918E+03  0.67390525821E+03  0.15294330000E+03 0.  0.
<mgrwt>
<rscale>  0 0.73211677E+03</rscale>
<asrwt>0</asrwt>
<pdfrwt beam="1">  1        1 0.12037712E+00 0.82263716E+03</pdfrwt>
<pdfrwt beam="2">  1       -1 0.12448295E+00 0.82263716E+03</pdfrwt>
<totfact> 0.13220386E+01</totfact>
</mgrwt>
</event>
<event>
 4    1  0.1521315E-007  0.7011885E+03  0.7818608E-02  0.9992306E-01
          1   -1    0    0  501    0  0.00000000000E+00  0.00000000000E+00  0.89021094111E+03  0.89021094112E+03  0.50400000000E-02 0. -1.
         -1   -1    0    0    0  501 -0.00000000000E+00 -0.00000000000E+00 -0.11652155244E+04  0.11652155244E+04  0.50400000000E-02 0.  1.
    8880023    1    1    2    0    0  0.22934036913E+03 -0.72513247395E+02  0.72915290075E+03  0.10115974174E+04  0.65864270000E+03 0. -1.
    8880022    1    1    2    0    0 -0.22934036913E+03  0.72513247395E+02 -0.10041574841E+04  0.10438290482E+04  0.15294330000E+03 0.  0.
<mgrwt>
<rscale>  0 0.55988897E+03</rscale>
<asrwt>0</asrwt>
<pdfrwt beam="1">  1        1 0.13695553E+00 0.70118855E+03</pdfrwt>
<pdfrwt beam="2">  1       -1 0.17926393E+00 0.70118855E+03</pdfrwt>
<totfact> 0.40848940E+00</totfact>
</mgrwt>
</event>
<event>
 4    1  0.1521315E-007  0.8780789E+03  0.7818608E-02  0.9562180E-01
         -1   -1    0    0    0  501 -0.00000000000E+00  0.00000000000E+00  0.19301759780E+04  0.19301759780E+04  0.50400000000E-02 0.  1.
          1   -1    0    0  501    0  0.00000000000E+00 -0.00000000000E+00 -0.36964105462E+03  0.36964105466E+03  0.50400000000E-02 0. -1.
    8880023    1    1    2    0    0 -0.58032987658E+03 -0.20727456662E+02  0.34383824638E+03  0.94299911933E+03  0.65864270000E+03 0. -1.
    8880022    1    1    2    0    0  0.58032987658E+03  0.20727456662E+02  0.12166966770E+04  0.13568179133E+04  0.15294330000E+03 0.  0.
<mgrwt>
<rscale>  0 0.79850748E+03</rscale>
<asrwt>0</asrwt>
<pdfrwt beam="1">  1        1 0.56867855E-01 0.87807893E+03</pdfrwt>
<pdfrwt beam="2">  1       -1 0.29695015E+00 0.87807893E+03</pdfrwt>
<totfact> 0.23722934E+00</totfact>
</mgrwt>
</event>
<event>
 4    1  0.1521315E-007  0.6597617E+03  0.7818608E-02  0.1024402E+00
          1   -1    0    0  501    0  0.00000000000E+00  0.00000000000E+00  0.19542064157E+03  0.19542064163E+03  0.50400000000E-02 0. -1.
         -1   -1    0    0    0  501 -0.00000000000E+00 -0.00000000000E+00 -0.10235004110E+04  0.10235004111E+04  0.50400000000E-02 0.  1.
    8880023    1    1    2    0    0  0.34792147238E+02 -0.16273892874E+02 -0.42169886174E+03  0.78301690234E+03  0.65864270000E+03 0. -1.
    8880022    1    1    2    0    0 -0.34792147238E+02  0.16273892874E+02 -0.40638090774E+03  0.43590415034E+03  0.15294330000E+03 0.  0.
<mgrwt>
<rscale>  0 0.46131039E+03</rscale>
<asrwt>0</asrwt>
<pdfrwt beam="1">  1        1 0.30064715E-01 0.65976173E+03</pdfrwt>
<pdfrwt beam="2">  1       -1 0.15746160E+00 0.65976173E+03</pdfrwt>
<totfact> 0.48131094E+01</totfact>
</mgrwt>
</event>
<event>
 4    1  0.1521315E-007  0.6932146E+03  0.7818608E-02  0.1002661E+00
          1   -1    0    0  501    0  0.00000000000E+00  0.00000000000E+00  0.30668526462E+03  0.30668526467E+03  0.50400000000E-02 0. -1.
         -1   -1    0    0    0  501 -0.00000000000E+00 -0.00000000000E+00 -0.87453715557E+03  0.87453715558E+03  0.50400000000E-02 0.  1.
    8880023    1    1    2    0    0  0.21144544961E+03 -0.45024010417E+02 -0.18814854176E+03  0.71829410391E+03  0.65864270000E+03 0.  0.
    8880022    1    1    2    0    0 -0.21144544961E+03  0.45024010417E+02 -0.37970334918E+03  0.46292831634E+03  0.15294330000E+03 0.  0.
<mgrwt>
<rscale>  0 0.54498836E+03</rscale>
<asrwt>0</asrwt>
<pdfrwt beam="1">  1        1 0.47182349E-01 0.69321465E+03</pdfrwt>
<pdfrwt beam="2">  1       -1 0.13454418E+00 0.69321465E+03</pdfrwt>
<totfact> 0.40621188E+01</totfact>
</mgrwt>
</event>
<event>
 4    1  0.1521315E-007  0.9237568E+03  0.7818608E-02  0.9488923E-01
         -1   -1    0    0    0  501 -0.00000000000E+00  0.00000000000E+00  0.18951265334E+04  0.18951265334E+04  0.50400000000E-02 0.  1.
          1   -1    0    0  501    0  0.00000000000E+00 -0.00000000000E+00 -0.36838464459E+03  0.36838464463E+03  0.50400000000E-02 0. -1.
    8880023    1    1    2    0    0  0.32103245649E+02 -0.64690472577E+03  0.12211575195E+04  0.15311930761E+04  0.65864270000E+03 0. -1.
    8880022    1    1    2    0    0 -0.32103245649E+02  0.64690472577E+03  0.30558436926E+03  0.73231810189E+03  0.15294330000E+03 0.  0.
<mgrwt>
<rscale>  0 0.85105458E+03</rscale>
<asrwt>0</asrwt>
<pdfrwt beam="1">  1        1 0.56674562E-01 0.92375676E+03</pdfrwt>
<pdfrwt beam="2">  1       -1 0.29155792E+00 0.92375676E+03</pdfrwt>
<totfact> 0.25651401E+00</totfact>
</mgrwt>
</event>
<event>
 4    1  0.1521315E-007  0.9044828E+03  0.7818608E-02  0.9518873E-01
          1   -1    0    0  501    0  0.00000000000E+00  0.00000000000E+00  0.19993421657E+04  0.19993421657E+04  0.50400000000E-02 0. -1.
         -1   -1    0    0    0  501 -0.00000000000E+00 -0.00000000000E+00 -0.39851975550E+03  0.39851975553E+03  0.50400000000E-02 0.  1.
    8880023    1    1    2    0    0  0.50979273631E+03 -0.35269019464E+03  0.14998050908E+04  0.17514292804E+04  0.65864270000E+03 0. -1.
    8880022    1    1    2    0    0 -0.50979273631E+03  0.35269019464E+03  0.10101731941E+03  0.64643264090E+03  0.15294330000E+03 0.  0.
<mgrwt>
<rscale>  0 0.82906567E+03</rscale>
<asrwt>0</asrwt>
<pdfrwt beam="1">  1        1 0.30759109E+00 0.90448284E+03</pdfrwt>
<pdfrwt beam="2">  1       -1 0.61310733E-01 0.90448284E+03</pdfrwt>
<totfact> 0.82380997E+00</totfact>
</mgrwt>
</event>
<event>
 4    1  0.1521315E-007  0.9174284E+03  0.7818608E-02  0.9498613E-01
          1   -1    0    0  501    0  0.00000000000E+00  0.00000000000E+00  0.12627686419E+04  0.12627686419E+04  0.50400000000E-02 0. -1.
         -1   -1    0    0    0  501 -0.00000000000E+00 -0.00000000000E+00 -0.68801755025E+03  0.68801755026E+03  0.50400000000E-02 0.  1.
    8880023    1    1    2    0    0 -0.47805268344E+03 -0.42347415746E+03  0.83870744648E+03  0.12430225731E+04  0.65864270000E+03 0. -1.
    8880022    1    1    2    0    0  0.47805268344E+03  0.42347415746E+03 -0.26395635485E+03  0.70776361906E+03  0.15294330000E+03 0.  0.
<mgrwt>
<rscale>  0 0.84386134E+03</rscale>
<asrwt>0</asrwt>
<pdfrwt beam="1">  1        1 0.19427210E+00 0.91742844E+03</pdfrwt>
<pdfrwt beam="2">  1       -1 0.10584885E+00 0.91742844E+03</pdfrwt>
<totfact> 0.81453141E+00</totfact>
</mgrwt>
</event>
<event>
 4    1  0.1521315E-007  0.7513130E+03  0.7818608E-02  0.9828140E-01
         -1   -1    0    0    0  501 -0.00000000000E+00  0.00000000000E+00  0.37110354759E+03  0.37110354763E+03  0.50400000000E-02 0.  1.
          1   -1    0    0  501    0  0.00000000000E+00 -0.00000000000E+00 -0.19678292117E+04  0.19678292117E+04  0.50400000000E-02 0. -1.
    8880023    1    1    2    0    0  0.22205418037E+03 -0.28522437623E+03 -0.17601361347E+04  0.19137790945E+04  0.65864270000E+03 0. -1.
    8880022    1    1    2    0    0 -0.22205418037E+03  0.28522437623E+03  0.16341047054E+03  0.42515366483E+03  0.15294330000E+03 0.  0.
<mgrwt>
<rscale>  0 0.63874031E+03</rscale>
<asrwt>0</asrwt>
<pdfrwt beam="1">  1        1 0.30274295E+00 0.75131299E+03</pdfrwt>
<pdfrwt beam="2">  1       -1 0.57092854E-01 0.75131299E+03</pdfrwt>
<totfact> 0.10172588E+01</totfact>
</mgrwt>
</event>
<event>
 4    1  0.1521315E-007  0.8006160E+03  0.7818608E-02  0.9709466E-01
          1   -1    0    0  501    0  0.00000000000E+00  0.00000000000E+00  0.16817655234E+04  0.16817655234E+04  0.50400000000E-02 0. -1.
         -1   -1    0    0    0  501 -0.00000000000E+00 -0.00000000000E+00 -0.88310771568E+03  0.88310771569E+03  0.50400000000E-02 0.  1.
    8880023    1    1    2    0    0  0.44499752195E+03 -0.95670826852E+02  0.15085486150E+04  0.17078363012E+04  0.65864270000E+03 0. -1.
    8880022    1    1    2    0    0 -0.44499752195E+03  0.95670826852E+02 -0.70989080727E+03  0.85703693789E+03  0.15294330000E+03 0.  0.
<mgrwt>
<rscale>  0 0.70455988E+03</rscale>
<asrwt>0</asrwt>
<pdfrwt beam="1">  1        1 0.25873316E+00 0.80061596E+03</pdfrwt>
<pdfrwt beam="2">  1       -1 0.13586273E+00 0.80061596E+03</pdfrwt>
<totfact> 0.23093333E+00</totfact>
</mgrwt>
</event>
<event>
 4    1  0.1521315E-007  0.1258878E+04  0.7818608E-02  0.9101911E-01
          1   -1    0    0  501    0  0.00000000000E+00  0.00000000000E+00  0.29870473869E+04  0.29870473869E+04  0.50400000000E-02 0. -1.
         -1   -1    0    0    0  501 -0.00000000000E+00 -0.00000000000E+00 -0.60700037313E+03  0.60700037315E+03  0.50400000000E-02 0.  1.
    8880023    1    1    2    0    0 -0.38939107425E+03  0.99966908677E+03  0.21419904254E+04  0.24845315213E+04  0.65864270000E+03 0.  0.
    8880022    1    1    2    0    0  0.38939107425E+03 -0.99966908677E+03  0.23805658840E+03  0.11095162388E+04  0.15294330000E+03 0.  0.
<mgrwt>
<rscale>  0 0.12125864E+04</rscale>
<asrwt>0</asrwt>
<pdfrwt beam="1">  1        1 0.45954575E+00 0.12588780E+04</pdfrwt>
<pdfrwt beam="2">  1       -1 0.93384673E-01 0.12588780E+04</pdfrwt>
<totfact> 0.67193204E-01</totfact>
</mgrwt>
</event>
<event>
 4    1  0.1521315E-007  0.7850877E+03  0.7818608E-02  0.9744019E-01
         -1   -1    0    0    0  501 -0.00000000000E+00  0.00000000000E+00  0.79923842701E+03  0.79923842702E+03  0.50400000000E-02 0.  1.
          1   -1    0    0  501    0  0.00000000000E+00 -0.00000000000E+00 -0.79038722983E+03  0.79038722985E+03  0.50400000000E-02 0. -1.
    8880023    1    1    2    0    0 -0.40575698626E+03  0.13384214786E+03 -0.48191542452E+03  0.92119766342E+03  0.65864270000E+03 0.  0.
    8880022    1    1    2    0    0  0.40575698626E+03 -0.13384214786E+03  0.49076662169E+03  0.66842799345E+03  0.15294330000E+03 0.  0.
<mgrwt>
<rscale>  0 0.68455334E+03</rscale>
<asrwt>0</asrwt>
<pdfrwt beam="1">  1        1 0.12159804E+00 0.78508768E+03</pdfrwt>
<pdfrwt beam="2">  1       -1 0.12295976E+00 0.78508768E+03</pdfrwt>
<totfact> 0.13471306E+01</totfact>
</mgrwt>
</event>
<event>
 4    1  0.1521315E-007  0.1241775E+04  0.7818608E-02  0.9117546E-01
          1   -1    0    0  501    0  0.00000000000E+00  0.00000000000E+00  0.10744010053E+04  0.10744010053E+04  0.50400000000E-02 0. -1.
         -1   -1    0    0    0  501 -0.00000000000E+00 -0.00000000000E+00 -0.16695700614E+04  0.16695700614E+04  0.50400000000E-02 0.  1.
    8880023    1    1    2    0    0  0.50571960554E+03 -0.92327880970E+03  0.38232290669E+03  0.12992986920E+04  0.65864270000E+03 0.  0.
    8880022    1    1    2    0    0 -0.50571960554E+03  0.92327880970E+03 -0.97749196277E+03  0.14446723747E+04  0.15294330000E+03 0.  0.
<mgrwt>
<rscale>  0 0.11946573E+04</rscale>
<asrwt>0</asrwt>
<pdfrwt beam="1">  1        1 0.16529246E+00 0.12417755E+04</pdfrwt>
<pdfrwt beam="2">  1       -1 0.25685693E+00 0.12417755E+04</pdfrwt>
<totfact> 0.81477980E-01</totfact>
</mgrwt>
</event>
<event>
 4    1  0.1521315E-007  0.6698990E+03  0.7818608E-02  0.1015735E+00
          1   -1    0    0  501    0  0.00000000000E+00  0.00000000000E+00  0.13898156170E+04  0.13898156170E+04  0.50400000000E-02 0. -1.
         -1   -1    0    0    0  501 -0.00000000000E+00 -0.00000000000E+00 -0.45770312434E+03  0.45770312436E+03  0.50400000000E-02 0.  1.
    8880023    1    1    2    0    0 -0.26548770444E+01  0.12225966552E+03  0.12820489360E+04  0.14465179414E+04  0.65864270000E+03 0. -1.
    8880022    1    1    2    0    0  0.26548770444E+01 -0.12225966552E+03 -0.34993644335E+03  0.40100079998E+03  0.15294330000E+03 0.  0.
<mgrwt>
<rscale>  0 0.49257480E+03</rscale>
<asrwt>0</asrwt>
<pdfrwt beam="1">  1        1 0.21381779E+00 0.66989901E+03</pdfrwt>
<pdfrwt beam="2">  1       -1 0.70415865E-01 0.66989901E+03</pdfrwt>
<totfact> 0.16656532E+01</totfact>
</mgrwt>
</event>
<event>
 4    1  0.1521315E-007  0.9264937E+03  0.7818608E-02  0.9484773E-01
         -1   -1    0    0    0  501 -0.00000000000E+00  0.00000000000E+00  0.10041274870E+04  0.10041274870E+04  0.50400000000E-02 0.  1.
          1   -1    0    0  501    0  0.00000000000E+00 -0.00000000000E+00 -0.10217117099E+04  0.10217117099E+04  0.50400000000E-02 0. -1.
    8880023    1    1    2    0    0  0.55477180460E+03  0.34177278987E+03 -0.62857204985E+03  0.11195952051E+04  0.65864270000E+03 0. -1.
    8880022    1    1    2    0    0 -0.55477180460E+03 -0.34177278987E+03  0.61098782690E+03  0.90624399182E+03  0.15294330000E+03 0.  0.
<mgrwt>
<rscale>  0 0.85415802E+03</rscale>
<asrwt>0</asrwt>
<pdfrwt beam="1">  1        1 0.15718642E+00 0.92649371E+03</pdfrwt>
<pdfrwt beam="2">  1       -1 0.15448115E+00 0.92649371E+03</pdfrwt>
<totfact> 0.47416146E+00</totfact>
</mgrwt>
</event>
<event>
 4    1  0.1521315E-007  0.1041652E+04  0.7818608E-02  0.9328985E-01
          1   -1    0    0  501    0  0.00000000000E+00  0.00000000000E+00  0.11977443271E+04  0.11977443271E+04  0.50400000000E-02 0. -1.
         -1   -1    0    0    0  501 -0.00000000000E+00 -0.00000000000E+00 -0.87474561218E+03  0.87474561220E+03  0.50400000000E-02 0.  1.
    8880023    1    1    2    0    0 -0.66199005401E+03  0.46151595945E+03 -0.24973366937E+03  0.10711698858E+04  0.65864270000E+03 0.  0.
    8880022    1    1    2    0    0  0.66199005401E+03 -0.46151595945E+03  0.57273238424E+03  0.10013200534E+04  0.15294330000E+03 0.  0.
<mgrwt>
<rscale>  0 0.98157665E+03</rscale>
<asrwt>0</asrwt>
<pdfrwt beam="1">  1        1 0.18426836E+00 0.10416516E+04</pdfrwt>
<pdfrwt beam="2">  1       -1 0.13457625E+00 0.10416516E+04</pdfrwt>
<totfact> 0.49733516E+00</totfact>
</mgrwt>
</event>
<event>
 4    1  0.1521315E-007  0.1515786E+04  0.7818608E-02  0.8898569E-01
         -1   -1    0    0    0  501 -0.00000000000E+00  0.00000000000E+00  0.21464418558E+04  0.21464418558E+04  0.50400000000E-02 0.  1.
          1   -1    0    0  501    0  0.00000000000E+00 -0.00000000000E+00 -0.14274578216E+04  0.14274578216E+04  0.50400000000E-02 0. -1.
    8880023    1    1    2    0    0  0.72884655247E+03  0.11543739630E+04 -0.63649621423E+03  0.16439994466E+04  0.65864270000E+03 0.  0.
    8880022    1    1    2    0    0 -0.72884655247E+03 -0.11543739630E+04  0.13554802485E+04  0.19299002307E+04  0.15294330000E+03 0.  0.
<mgrwt>
<rscale>  0 0.14789561E+04</rscale>
<asrwt>0</asrwt>
<pdfrwt beam="1">  1        1 0.21960890E+00 0.15157859E+04</pdfrwt>
<pdfrwt beam="2">  1       -1 0.33022182E+00 0.15157859E+04</pdfrwt>
<totfact> 0.14570486E-01</totfact>
</mgrwt>
</event>
<event>
 4    1  0.1521315E-007  0.9123361E+03  0.7818608E-02  0.9506511E-01
         -1   -1    0    0    0  501 -0.00000000000E+00  0.00000000000E+00  0.12290391440E+04  0.12290391440E+04  0.50400000000E-02 0.  1.
          1   -1    0    0  501    0  0.00000000000E+00 -0.00000000000E+00 -0.89840454145E+03  0.89840454146E+03  0.50400000000E-02 0. -1.
    8880023    1    1    2    0    0  0.35587707525E+03  0.52143888675E+03 -0.52543961575E+03  0.10528266720E+04  0.65864270000E+03 0. -1.
    8880022    1    1    2    0    0 -0.35587707525E+03 -0.52143888675E+03  0.85607421832E+03  0.10746170134E+04  0.15294330000E+03 0.  0.
<mgrwt>
<rscale>  0 0.83805461E+03</rscale>
<asrwt>0</asrwt>
<pdfrwt beam="1">  1        1 0.13821608E+00 0.91233613E+03</pdfrwt>
<pdfrwt beam="2">  1       -1 0.18908295E+00 0.91233613E+03</pdfrwt>
<totfact> 0.33214135E+00</totfact>
</mgrwt>
</event>
<event>
 4    1  0.1521315E-007  0.9266305E+03  0.7818608E-02  0.9484566E-01
         -1   -1    0    0    0  501 -0.00000000000E+00  0.00000000000E+00  0.12613896162E+04  0.12613896162E+04  0.50400000000E-02 0.  1.
          1   -1    0    0  501    0  0.00000000000E+00 -0.00000000000E+00 -0.83146914123E+03  0.83146914124E+03  0.50400000000E-02 0. -1.
    8880023    1    1    2    0    0 -0.62482844621E+03 -0.18553530192E+03 -0.41460291368E+03  0.10151550215E+04  0.65864270000E+03 0. -1.
    8880022    1    1    2    0    0  0.62482844621E+03  0.18553530192E+03  0.84452338867E+03  0.10777037359E+04  0.15294330000E+03 0.  0.
<mgrwt>
<rscale>  0 0.85431304E+03</rscale>
<asrwt>0</asrwt>
<pdfrwt beam="1">  1        1 0.12791833E+00 0.92663053E+03</pdfrwt>
<pdfrwt beam="2">  1       -1 0.19405994E+00 0.92663053E+03</pdfrwt>
<totfact> 0.34810924E+00</totfact>
</mgrwt>
</event>
<event>
 4    1  0.1521315E-007  0.7572447E+03  0.7818608E-02  0.9812294E-01
         -1   -1    0    0    0  501 -0.00000000000E+00  0.00000000000E+00  0.86020214329E+03  0.86020214330E+03  0.50400000000E-02 0.  1.
          1   -1    0    0  501    0  0.00000000000E+00 -0.00000000000E+00 -0.84097943526E+03  0.84097943527E+03  0.50400000000E-02 0. -1.
    8880023    1    1    2    0    0 -0.29942476088E+03 -0.22350406584E+03 -0.59713906454E+03  0.96436223668E+03  0.65864270000E+03 0. -1.
    8880022    1    1    2    0    0  0.29942476088E+03  0.22350406584E+03  0.61636177257E+03  0.73681934189E+03  0.15294330000E+03 0.  0.
<mgrwt>
<rscale>  0 0.64706948E+03</rscale>
<asrwt>0</asrwt>
<pdfrwt beam="1">  1        1 0.12938145E+00 0.75724465E+03</pdfrwt>
<pdfrwt beam="2">  1       -1 0.13233879E+00 0.75724465E+03</pdfrwt>
<totfact> 0.10179327E+01</totfact>
</mgrwt>
</event>
<event>
 4    1  0.1521315E-007  0.6622932E+03  0.7818608E-02  0.1021921E+00
         -1   -1    0    0    0  501 -0.00000000000E+00  0.00000000000E+00  0.22914725977E+03  0.22914725982E+03  0.50400000000E-02 0.  1.
          1   -1    0    0  501    0  0.00000000000E+00 -0.00000000000E+00 -0.16512009065E+04  0.16512009065E+04  0.50400000000E-02 0. -1.
    8880023    1    1    2    0    0 -0.69275526771E+02  0.47905645619E+01 -0.15391484358E+04  0.16755924808E+04  0.65864270000E+03 0. -1.
    8880022    1    1    2    0    0  0.69275526771E+02 -0.47905645619E+01  0.11709478904E+03  0.20475568552E+03  0.15294330000E+03 0.  0.
<mgrwt>
<rscale>  0 0.46999714E+03</rscale>
<asrwt>0</asrwt>
<pdfrwt beam="1">  1        1 0.25403090E+00 0.66229318E+03</pdfrwt>
<pdfrwt beam="2">  1       -1 0.35253426E-01 0.66229318E+03</pdfrwt>
<totfact> 0.41095084E+01</totfact>
</mgrwt>
</event>
<event>
 4    1  0.1521315E-007  0.1038208E+04  0.7818608E-02  0.9333193E-01
          1   -1    0    0  501    0  0.00000000000E+00  0.00000000000E+00  0.15696078411E+04  0.15696078411E+04  0.50400000000E-02 0. -1.
         -1   -1    0    0    0  501 -0.00000000000E+00 -0.00000000000E+00 -0.77777364985E+03  0.77777364987E+03  0.50400000000E-02 0.  1.
    8880023    1    1    2    0    0 -0.77575723595E+03  0.20558981983E+03 -0.20528591566E+03  0.10583094900E+04  0.65864270000E+03 0.  0.
    8880022    1    1    2    0    0  0.77575723595E+03 -0.20558981983E+03  0.99712010689E+03  0.12890720010E+04  0.15294330000E+03 0.  0.
<mgrwt>
<rscale>  0 0.97783686E+03</rscale>
<asrwt>0</asrwt>
<pdfrwt beam="1">  1        1 0.24147813E+00 0.10382084E+04</pdfrwt>
<pdfrwt beam="2">  1       -1 0.11965749E+00 0.10382084E+04</pdfrwt>
<totfact> 0.36549014E+00</totfact>
</mgrwt>
</event>
<event>
 4    1  0.1521315E-007  0.7633026E+03  0.7818608E-02  0.9796631E-01
          1   -1    0    0  501    0  0.00000000000E+00  0.00000000000E+00  0.10181173085E+04  0.10181173085E+04  0.50400000000E-02 0. -1.
         -1   -1    0    0    0  501 -0.00000000000E+00 -0.00000000000E+00 -0.59390207442E+03  0.59390207444E+03  0.50400000000E-02 0.  1.
    8880023    1    1    2    0    0 -0.30394937785E+03  0.23756150800E+03  0.76079332340E+03  0.10777000425E+04  0.65864270000E+03 0. -1.
    8880022    1    1    2    0    0  0.30394937785E+03 -0.23756150800E+03 -0.33657808932E+03  0.53431934047E+03  0.15294330000E+03 0.  0.
<mgrwt>
<rscale>  0 0.65543647E+03</rscale>
<asrwt>0</asrwt>
<pdfrwt beam="1">  1        1 0.15663343E+00 0.76330263E+03</pdfrwt>
<pdfrwt beam="2">  1       -1 0.91369551E-01 0.76330263E+03</pdfrwt>
<totfact> 0.17593429E+01</totfact>
</mgrwt>
</event>
<event>
 4    1  0.1521315E-007  0.6615826E+03  0.7818608E-02  0.1022591E+00
         -1   -1    0    0    0  501 -0.00000000000E+00  0.00000000000E+00  0.53748553640E+03  0.53748553643E+03  0.50400000000E-02 0.  1.
          1   -1    0    0  501    0  0.00000000000E+00 -0.00000000000E+00 -0.45679562531E+03  0.45679562534E+03  0.50400000000E-02 0. -1.
    8880023    1    1    2    0    0  0.58177710141E+02 -0.22285550990E+02 -0.18004683834E+03  0.68564448660E+03  0.65864270000E+03 0. -1.
    8880022    1    1    2    0    0 -0.58177710141E+02  0.22285550990E+02  0.26073674943E+03  0.30863667517E+03  0.15294330000E+03 0.  0.
<mgrwt>
<rscale>  0 0.46763235E+03</rscale>
<asrwt>0</asrwt>
<pdfrwt beam="1">  1        1 0.70276250E-01 0.66158257E+03</pdfrwt>
<pdfrwt beam="2">  1       -1 0.82690082E-01 0.66158257E+03</pdfrwt>
<totfact> 0.74814976E+01</totfact>
</mgrwt>
</event>
<event>
 4    1  0.1521315E-007  0.8419901E+03  0.7818608E-02  0.9626439E-01
         -1   -1    0    0    0  501 -0.00000000000E+00  0.00000000000E+00  0.19834549407E+04  0.19834549407E+04  0.50400000000E-02 0.  1.
          1   -1    0    0  501    0  0.00000000000E+00 -0.00000000000E+00 -0.27367345696E+03  0.27367345701E+03  0.50400000000E-02 0. -1.
    8880023    1    1    2    0    0 -0.40710615194E+03 -0.33075928438E+03  0.64607138197E+03  0.10612989965E+04  0.65864270000E+03 0. -1.
    8880022    1    1    2    0    0  0.40710615194E+03  0.33075928438E+03  0.10637101018E+04  0.11958294012E+04  0.15294330000E+03 0.  0.
<mgrwt>
<rscale>  0 0.75570712E+03</rscale>
<asrwt>0</asrwt>
<pdfrwt beam="1">  1        1 0.42103609E-01 0.84199010E+03</pdfrwt>
<pdfrwt beam="2">  1       -1 0.30514691E+00 0.84199010E+03</pdfrwt>
<totfact> 0.31283896E+00</totfact>
</mgrwt>
</event>
<event>
 4    1  0.1521315E-007  0.6982527E+03  0.7818608E-02  0.1000453E+00
          1   -1    0    0  501    0  0.00000000000E+00  0.00000000000E+00  0.98851791503E+03  0.98851791505E+03  0.50400000000E-02 0. -1.
         -1   -1    0    0    0  501 -0.00000000000E+00 -0.00000000000E+00 -0.24770193378E+03  0.24770193384E+03  0.50400000000E-02 0.  1.
    8880023    1    1    2    0    0  0.21900561970E+03 -0.76047027284E+02  0.61830709519E+03  0.93266311284E+03  0.65864270000E+03 0.  1.
    8880022    1    1    2    0    0 -0.21900561970E+03  0.76047027284E+02  0.12250888606E+03  0.30355673605E+03  0.15294330000E+03 0. -1.
<mgrwt>
<rscale>  0 0.55452125E+03</rscale>
<asrwt>0</asrwt>
<pdfrwt beam="1">  1        1 0.15207968E+00 0.69825269E+03</pdfrwt>
<pdfrwt beam="2">  1       -1 0.38107991E-01 0.69825269E+03</pdfrwt>
<totfact> 0.10516811E+02</totfact>
</mgrwt>
</event>
<event>
 4    1  0.1521315E-007  0.8953053E+03  0.7818608E-02  0.9533610E-01
         -1   -1    0    0    0  501 -0.00000000000E+00  0.00000000000E+00  0.30677166879E+03  0.30677166883E+03  0.50400000000E-02 0.  1.
          1   -1    0    0  501    0  0.00000000000E+00 -0.00000000000E+00 -0.22065600620E+04  0.22065600620E+04  0.50400000000E-02 0. -1.
    8880023    1    1    2    0    0 -0.50743022179E+03  0.33207832379E+03 -0.62038069414E+03  0.10892400355E+04  0.65864270000E+03 0.  1.
    8880022    1    1    2    0    0  0.50743022179E+03 -0.33207832379E+03 -0.12794076990E+04  0.14240916952E+04  0.15294330000E+03 0.  0.
<mgrwt>
<rscale>  0 0.81850574E+03</rscale>
<asrwt>0</asrwt>
<pdfrwt beam="1">  1        1 0.33947077E+00 0.89530534E+03</pdfrwt>
<pdfrwt beam="2">  1       -1 0.47195643E-01 0.89530534E+03</pdfrwt>
<totfact> 0.99167174E+00</totfact>
</mgrwt>
</event>
<event>
 4    1  0.1521315E-007  0.7017104E+03  0.7818608E-02  0.9990178E-01
          1   -1    0    0  501    0  0.00000000000E+00  0.00000000000E+00  0.47734316532E+03  0.47734316535E+03  0.50400000000E-02 0. -1.
         -1   -1    0    0    0  501 -0.00000000000E+00 -0.00000000000E+00 -0.54464285335E+03  0.54464285338E+03  0.50400000000E-02 0.  1.
    8880023    1    1    2    0    0 -0.23415984915E+03  0.61290374552E+02  0.68591353442E+02  0.70505483829E+03  0.65864270000E+03 0. -1.
    8880022    1    1    2    0    0  0.23415984915E+03 -0.61290374552E+02 -0.13589104147E+03  0.31693118044E+03  0.15294330000E+03 0.  1.
<mgrwt>
<rscale>  0 0.56083006E+03</rscale>
<asrwt>0</asrwt>
<pdfrwt beam="1">  1        1 0.73437410E-01 0.70171045E+03</pdfrwt>
<pdfrwt beam="2">  1       -1 0.83791208E-01 0.70171045E+03</pdfrwt>
<totfact> 0.68294853E+01</totfact>
</mgrwt>
</event>
<event>
 4    1  0.1521315E-007  0.7168528E+03  0.7818608E-02  0.9933382E-01
         -1   -1    0    0    0  501 -0.00000000000E+00  0.00000000000E+00  0.69787963829E+03  0.69787963831E+03  0.50400000000E-02 0.  1.
          1   -1    0    0  501    0  0.00000000000E+00 -0.00000000000E+00 -0.14027681235E+04  0.14027681235E+04  0.50400000000E-02 0. -1.
    8880023    1    1    2    0    0 -0.27075382089E+03  0.82219841613E+02 -0.12654341167E+04  0.14543732134E+04  0.65864270000E+03 0. -1.
    8880022    1    1    2    0    0  0.27075382089E+03 -0.82219841613E+02  0.56054563151E+03  0.64627454840E+03  0.15294330000E+03 0.  0.
<mgrwt>
<rscale>  0 0.58670357E+03</rscale>
<asrwt>0</asrwt>
<pdfrwt beam="1">  1        1 0.21581048E+00 0.71685280E+03</pdfrwt>
<pdfrwt beam="2">  1       -1 0.10736610E+00 0.71685280E+03</pdfrwt>
<totfact> 0.64582268E+00</totfact>
</mgrwt>
</event>
<event>
 4    1  0.1521315E-007  0.8125409E+03  0.7818608E-02  0.9684308E-01
         -1   -1    0    0    0  501 -0.00000000000E+00  0.00000000000E+00  0.35749780500E+03  0.35749780504E+03  0.50400000000E-02 0.  1.
          1   -1    0    0  501    0  0.00000000000E+00 -0.00000000000E+00 -0.15693654437E+04  0.15693654437E+04  0.50400000000E-02 0. -1.
    8880023    1    1    2    0    0  0.97576531533E+02 -0.46571598759E+03 -0.11711307220E+04  0.14254016750E+04  0.65864270000E+03 0. -1.
    8880022    1    1    2    0    0 -0.97576531533E+02  0.46571598759E+03 -0.40736916664E+02  0.50146157380E+03  0.15294330000E+03 0.  0.
<mgrwt>
<rscale>  0 0.71958799E+03</rscale>
<asrwt>0</asrwt>
<pdfrwt beam="1">  1        1 0.24144083E+00 0.81254093E+03</pdfrwt>
<pdfrwt beam="2">  1       -1 0.54999663E-01 0.81254093E+03</pdfrwt>
<totfact> 0.20102521E+01</totfact>
</mgrwt>
</event>
<event>
 4    1  0.1521315E-007  0.6884748E+03  0.7818608E-02  0.1004886E+00
          1   -1    0    0  501    0  0.00000000000E+00  0.00000000000E+00  0.97660508075E+03  0.97660508076E+03  0.50400000000E-02 0. -1.
         -1   -1    0    0    0  501 -0.00000000000E+00 -0.00000000000E+00 -0.34305148150E+03  0.34305148154E+03  0.50400000000E-02 0.  1.
    8880023    1    1    2    0    0  0.50564870537E+02 -0.19398604729E+03  0.77004060774E+03  0.10329376247E+04  0.65864270000E+03 0. -1.
    8880022    1    1    2    0    0 -0.50564870537E+02  0.19398604729E+03 -0.13648700849E+03  0.28671893760E+03  0.15294330000E+03 0.  0.
<mgrwt>
<rscale>  0 0.53558734E+03</rscale>
<asrwt>0</asrwt>
<pdfrwt beam="1">  1        1 0.15024694E+00 0.68847484E+03</pdfrwt>
<pdfrwt beam="2">  1       -1 0.52777151E-01 0.68847484E+03</pdfrwt>
<totfact> 0.58788366E+01</totfact>
</mgrwt>
</event>
<event>
 4    1  0.1521315E-007  0.6737587E+03  0.7818608E-02  0.1013100E+00
         -1   -1    0    0    0  501 -0.00000000000E+00  0.00000000000E+00  0.18969687420E+03  0.18969687427E+03  0.50400000000E-02 0.  1.
          1   -1    0    0  501    0  0.00000000000E+00 -0.00000000000E+00 -0.10694224984E+04  0.10694224984E+04  0.50400000000E-02 0. -1.
    8880023    1    1    2    0    0  0.33521694030E+02 -0.13790164897E+03 -0.77078007309E+03  0.10237444486E+04  0.65864270000E+03 0.  0.
    8880022    1    1    2    0    0 -0.33521694030E+02  0.13790164897E+03 -0.10894555115E+03  0.23537492409E+03  0.15294330000E+03 0.  0.
<mgrwt>
<rscale>  0 0.50260828E+03</rscale>
<asrwt>0</asrwt>
<pdfrwt beam="1">  1        1 0.16452653E+00 0.67375869E+03</pdfrwt>
<pdfrwt beam="2">  1       -1 0.29184135E-01 0.67375869E+03</pdfrwt>
<totfact> 0.14642593E+02</totfact>
</mgrwt>
</event>
<event>
 4    1  0.1521315E-007  0.6792502E+03  0.7818608E-02  0.1009751E+00
         -1   -1    0    0    0  501 -0.00000000000E+00  0.00000000000E+00  0.83975738343E+03  0.83975738345E+03  0.50400000000E-02 0.  1.
          1   -1    0    0  501    0  0.00000000000E+00 -0.00000000000E+00 -0.91119610410E+03  0.91119610411E+03  0.50400000000E-02 0. -1.
    8880023    1    1    2    0    0  0.42051227454E+01  0.16599067295E+03 -0.76414029924E+03  0.10223948307E+04  0.65864270000E+03 0. -1.
    8880022    1    1    2    0    0 -0.42051227454E+01 -0.16599067295E+03  0.69270157858E+03  0.72855865690E+03  0.15294330000E+03 0.  0.
<mgrwt>
<rscale>  0 0.51573711E+03</rscale>
<asrwt>0</asrwt>
<pdfrwt beam="1">  1        1 0.14018401E+00 0.67925017E+03</pdfrwt>
<pdfrwt beam="2">  1       -1 0.12919344E+00 0.67925017E+03</pdfrwt>
<totfact> 0.95712936E+00</totfact>
</mgrwt>
</event>
<event>
 4    1  0.1521315E-007  0.7041002E+03  0.7818608E-02  0.9980599E-01
         -1   -1    0    0    0  501 -0.00000000000E+00  0.00000000000E+00  0.41266494083E+03  0.41266494086E+03  0.50400000000E-02 0.  1.
          1   -1    0    0  501    0  0.00000000000E+00 -0.00000000000E+00 -0.86184077239E+03  0.86184077241E+03  0.50400000000E-02 0. -1.
    8880023    1    1    2    0    0  0.20526810675E+03 -0.14075465014E+03 -0.61822179153E+03  0.93699266644E+03  0.65864270000E+03 0. -1.
    8880022    1    1    2    0    0 -0.20526810675E+03  0.14075465014E+03  0.16904595996E+03  0.33751304683E+03  0.15294330000E+03 0.  0.
<mgrwt>
<rscale>  0 0.56509177E+03</rscale>
<asrwt>0</asrwt>
<pdfrwt beam="1">  1        1 0.13259089E+00 0.70410019E+03</pdfrwt>
<pdfrwt beam="2">  1       -1 0.63486914E-01 0.70410019E+03</pdfrwt>
<totfact> 0.50617755E+01</totfact>
</mgrwt>
</event>
<event>
 4    1  0.1521315E-007  0.7048627E+03  0.7818608E-02  0.9977597E-01
          1   -1    0    0  501    0  0.00000000000E+00  0.00000000000E+00  0.67112143064E+03  0.67112143066E+03  0.50400000000E-02 0. -1.
         -1   -1    0    0    0  501 -0.00000000000E+00 -0.00000000000E+00 -0.39303041622E+03  0.39303041625E+03  0.50400000000E-02 0.  1.
    8880023    1    1    2    0    0 -0.60214700407E+02  0.24371165945E+03  0.30691073929E+03  0.76878188796E+03  0.65864270000E+03 0. -1.
    8880022    1    1    2    0    0  0.60214700407E+02 -0.24371165945E+03 -0.28819724868E+02  0.29536995895E+03  0.15294330000E+03 0.  0.
<mgrwt>
<rscale>  0 0.56643577E+03</rscale>
<asrwt>0</asrwt>
<pdfrwt beam="1">  1        1 0.10324945E+00 0.70486267E+03</pdfrwt>
<pdfrwt beam="2">  1       -1 0.60466219E-01 0.70486267E+03</pdfrwt>
<totfact> 0.82394131E+01</totfact>
</mgrwt>
</event>
<event>
 4    1  0.1521315E-007  0.1048323E+04  0.7818608E-02  0.9320901E-01
         -1   -1    0    0    0  501 -0.00000000000E+00  0.00000000000E+00  0.79213783434E+03  0.79213783436E+03  0.50400000000E-02 0.  1.
          1   -1    0    0  501    0  0.00000000000E+00 -0.00000000000E+00 -0.20049750833E+04  0.20049750833E+04  0.50400000000E-02 0. -1.
    8880023    1    1    2    0    0 -0.62899345829E+03  0.51916975303E+03 -0.15747911455E+04  0.18918106040E+04  0.65864270000E+03 0.  0.
    8880022    1    1    2    0    0  0.62899345829E+03 -0.51916975303E+03  0.36195389652E+03  0.90530231373E+03  0.15294330000E+03 0.  0.
<mgrwt>
<rscale>  0 0.98881275E+03</rscale>
<asrwt>0</asrwt>
<pdfrwt beam="1">  1        1 0.30845770E+00 0.10483226E+04</pdfrwt>
<pdfrwt beam="2">  1       -1 0.12186736E+00 0.10483226E+04</pdfrwt>
<totfact> 0.17693345E+00</totfact>
</mgrwt>
</event>
<event>
 4    1  0.1521315E-007  0.1267925E+04  0.7818608E-02  0.9093766E-01
          1   -1    0    0  501    0  0.00000000000E+00  0.00000000000E+00  0.13890314851E+04  0.13890314851E+04  0.50400000000E-02 0. -1.
         -1   -1    0    0    0  501 -0.00000000000E+00 -0.00000000000E+00 -0.12825285376E+04  0.12825285376E+04  0.50400000000E-02 0.  1.
    8880023    1    1    2    0    0  0.29357716851E+03 -0.10428975967E+04  0.67726212274E+03  0.14374690050E+04  0.65864270000E+03 0.  0.
    8880022    1    1    2    0    0 -0.29357716851E+03  0.10428975967E+04 -0.57075917526E+03  0.12340910178E+04  0.15294330000E+03 0.  0.
<mgrwt>
<rscale>  0 0.12220574E+04</rscale>
<asrwt>0</asrwt>
<pdfrwt beam="1">  1        1 0.21369715E+00 0.12679247E+04</pdfrwt>
<pdfrwt beam="2">  1       -1 0.19731208E+00 0.12679247E+04</pdfrwt>
<totfact> 0.11941883E+00</totfact>
</mgrwt>
</event>
<event>
 4    1  0.1521315E-007  0.9277971E+03  0.7818608E-02  0.9482806E-01
          1   -1    0    0  501    0  0.00000000000E+00  0.00000000000E+00  0.13225892697E+04  0.13225892697E+04  0.50400000000E-02 0. -1.
         -1   -1    0    0    0  501 -0.00000000000E+00 -0.00000000000E+00 -0.10103301793E+04  0.10103301793E+04  0.50400000000E-02 0.  1.
    8880023    1    1    2    0    0  0.43324579309E+03 -0.48917825896E+03  0.10054307723E+04  0.13681003364E+04  0.65864270000E+03 0.  0.
    8880022    1    1    2    0    0 -0.43324579309E+03  0.48917825896E+03 -0.69317168196E+03  0.96481911256E+03  0.15294330000E+03 0.  0.
<mgrwt>
<rscale>  0 0.85563438E+03</rscale>
<asrwt>0</asrwt>
<pdfrwt beam="1">  1        1 0.20347527E+00 0.92779712E+03</pdfrwt>
<pdfrwt beam="2">  1       -1 0.15543541E+00 0.92779712E+03</pdfrwt>
<totfact> 0.27990332E+00</totfact>
</mgrwt>
</event>
<event>
 4    1  0.1521315E-007  0.7258714E+03  0.7818608E-02  0.9903198E-01
          1   -1    0    0  501    0  0.00000000000E+00  0.00000000000E+00  0.73595140283E+03  0.73595140284E+03  0.50400000000E-02 0. -1.
         -1   -1    0    0    0  501 -0.00000000000E+00 -0.00000000000E+00 -0.38759901867E+03  0.38759901871E+03  0.50400000000E-02 0.  1.
    8880023    1    1    2    0    0  0.29814818116E+03 -0.64704606694E+02  0.25988383178E+03  0.77099211172E+03  0.65864270000E+03 0.  0.
    8880022    1    1    2    0    0 -0.29814818116E+03  0.64704606694E+02  0.88468552369E+02  0.35255830983E+03  0.15294330000E+03 0. -1.
<mgrwt>
<rscale>  0 0.60106553E+03</rscale>
<asrwt>0</asrwt>
<pdfrwt beam="1">  1        1 0.11322329E+00 0.72587136E+03</pdfrwt>
<pdfrwt beam="2">  1       -1 0.59630619E-01 0.72587136E+03</pdfrwt>
<totfact> 0.73530038E+01</totfact>
</mgrwt>
</event>
<event>
 4    1  0.1521315E-007  0.1109391E+04  0.7818608E-02  0.9250672E-01
          1   -1    0    0  501    0  0.00000000000E+00  0.00000000000E+00  0.20552658992E+04  0.20552658992E+04  0.50400000000E-02 0. -1.
         -1   -1    0    0    0  501 -0.00000000000E+00 -0.00000000000E+00 -0.54918681735E+03  0.54918681738E+03  0.50400000000E-02 0.  1.
    8880023    1    1    2    0    0  0.33713637086E+03 -0.82660532549E+03  0.12326384777E+04  0.16583561498E+04  0.65864270000E+03 0.  1.
    8880022    1    1    2    0    0 -0.33713637086E+03  0.82660532549E+03  0.27344060420E+03  0.94609656681E+03  0.15294330000E+03 0. -1.
<mgrwt>
<rscale>  0 0.10545371E+04</rscale>
<asrwt>0</asrwt>
<pdfrwt beam="1">  1        1 0.31619475E+00 0.11093906E+04</pdfrwt>
<pdfrwt beam="2">  1       -1 0.84490280E-01 0.11093906E+04</pdfrwt>
<totfact> 0.37844805E+00</totfact>
</mgrwt>
</event>
<event>
 4    1  0.1521315E-007  0.1164470E+04  0.7818608E-02  0.9192458E-01
         -1   -1    0    0    0  501 -0.00000000000E+00  0.00000000000E+00  0.11013695557E+04  0.11013695557E+04  0.50400000000E-02 0.  1.
          1   -1    0    0  501    0  0.00000000000E+00 -0.00000000000E+00 -0.21043112254E+04  0.21043112254E+04  0.50400000000E-02 0. -1.
    8880023    1    1    2    0    0 -0.72736867412E+03  0.62698882178E+03 -0.16631831877E+04  0.20303124619E+04  0.65864270000E+03 0.  0.
    8880022    1    1    2    0    0  0.72736867412E+03 -0.62698882178E+03  0.66024151797E+03  0.11753683192E+04  0.15294330000E+03 0.  0.
<mgrwt>
<rscale>  0 0.11131612E+04</rscale>
<asrwt>0</asrwt>
<pdfrwt beam="1">  1        1 0.32374019E+00 0.11644700E+04</pdfrwt>
<pdfrwt beam="2">  1       -1 0.16944147E+00 0.11644700E+04</pdfrwt>
<totfact> 0.62105484E-01</totfact>
</mgrwt>
</event>
<event>
 4    1  0.1521315E-007  0.7686603E+03  0.7818608E-02  0.9783182E-01
         -1   -1    0    0    0  501 -0.00000000000E+00  0.00000000000E+00  0.38981473455E+03  0.38981473458E+03  0.50400000000E-02 0.  1.
          1   -1    0    0  501    0  0.00000000000E+00 -0.00000000000E+00 -0.10213164276E+04  0.10213164276E+04  0.50400000000E-02 0. -1.
    8880023    1    1    2    0    0 -0.11081868481E+03 -0.38045710260E+03 -0.61778225055E+03  0.98615085215E+03  0.65864270000E+03 0. -1.
    8880022    1    1    2    0    0  0.11081868481E+03  0.38045710260E+03 -0.13719442516E+02  0.42498031006E+03  0.15294330000E+03 0.  0.
<mgrwt>
<rscale>  0 0.66272968E+03</rscale>
<asrwt>0</asrwt>
<pdfrwt beam="1">  1        1 0.15712560E+00 0.76866026E+03</pdfrwt>
<pdfrwt beam="2">  1       -1 0.59971498E-01 0.76866026E+03</pdfrwt>
<totfact> 0.42014925E+01</totfact>
</mgrwt>
</event>
<event>
 4    1  0.1521315E-007  0.7616477E+03  0.7818608E-02  0.9800860E-01
         -1   -1    0    0    0  501 -0.00000000000E+00  0.00000000000E+00  0.10815602210E+04  0.10815602210E+04  0.50400000000E-02 0.  1.
          1   -1    0    0  501    0  0.00000000000E+00 -0.00000000000E+00 -0.80996828759E+03  0.80996828760E+03  0.50400000000E-02 0. -1.
    8880023    1    1    2    0    0  0.27348242644E+02  0.38150901509E+03 -0.57214349772E+03  0.95260455763E+03  0.65864270000E+03 0.  0.
    8880022    1    1    2    0    0 -0.27348242644E+02 -0.38150901509E+03  0.84373543111E+03  0.93892395097E+03  0.15294330000E+03 0.  0.
<mgrwt>
<rscale>  0 0.65316399E+03</rscale>
<asrwt>0</asrwt>
<pdfrwt beam="1">  1        1 0.12461051E+00 0.76164773E+03</pdfrwt>
<pdfrwt beam="2">  1       -1 0.16639388E+00 0.76164773E+03</pdfrwt>
<totfact> 0.58572139E+00</totfact>
</mgrwt>
</event>
<event>
 4    1  0.1521315E-007  0.7271285E+03  0.7818608E-02  0.9899165E-01
         -1   -1    0    0    0  501 -0.00000000000E+00  0.00000000000E+00  0.18490131650E+03  0.18490131657E+03  0.50400000000E-02 0.  1.
          1   -1    0    0  501    0  0.00000000000E+00 -0.00000000000E+00 -0.21533449182E+04  0.21533449182E+04  0.50400000000E-02 0. -1.
    8880023    1    1    2    0    0 -0.70137515353E+02  0.29997725410E+03 -0.18269558034E+04  0.19663375442E+04  0.65864270000E+03 0.  0.
    8880022    1    1    2    0    0  0.70137515353E+02 -0.29997725410E+03 -0.14148779834E+03  0.37190869058E+03  0.15294330000E+03 0.  0.
<mgrwt>
<rscale>  0 0.60301791E+03</rscale>
<asrwt>0</asrwt>
<pdfrwt beam="1">  1        1 0.33128382E+00 0.72712848E+03</pdfrwt>
<pdfrwt beam="2">  1       -1 0.28446358E-01 0.72712848E+03</pdfrwt>
<totfact> 0.27393738E+01</totfact>
</mgrwt>
</event>
<event>
 4    1  0.1521315E-007  0.8496566E+03  0.7818608E-02  0.9612234E-01
          1   -1    0    0  501    0  0.00000000000E+00  0.00000000000E+00  0.10048437398E+04  0.10048437398E+04  0.50400000000E-02 0. -1.
         -1   -1    0    0    0  501 -0.00000000000E+00 -0.00000000000E+00 -0.75851349243E+03  0.75851349244E+03  0.50400000000E-02 0.  1.
    8880023    1    1    2    0    0  0.49094338784E+03  0.21698081983E+03  0.65399602886E+03  0.10722066490E+04  0.65864270000E+03 0. -1.
    8880022    1    1    2    0    0 -0.49094338784E+03 -0.21698081983E+03 -0.40766578149E+03  0.69115058320E+03  0.15294330000E+03 0.  0.
<mgrwt>
<rscale>  0 0.76491720E+03</rscale>
<asrwt>0</asrwt>
<pdfrwt beam="1">  1        1 0.15459134E+00 0.84965657E+03</pdfrwt>
<pdfrwt beam="2">  1       -1 0.11669438E+00 0.84965657E+03</pdfrwt>
<totfact> 0.10131500E+01</totfact>
</mgrwt>
</event>
<event>
 4    1  0.1521315E-007  0.6784534E+03  0.7818608E-02  0.1010212E+00
          1   -1    0    0  501    0  0.00000000000E+00  0.00000000000E+00  0.64441469302E+03  0.64441469304E+03  0.50400000000E-02 0. -1.
         -1   -1    0    0    0  501 -0.00000000000E+00 -0.00000000000E+00 -0.80269757080E+03  0.80269757082E+03  0.50400000000E-02 0.  1.
    8880023    1    1    2    0    0 -0.15899198342E+03  0.34790158779E+02  0.43990677375E+03  0.80858950141E+03  0.65864270000E+03 0. -1.
    8880022    1    1    2    0    0  0.15899198342E+03 -0.34790158779E+02 -0.59818965153E+03  0.63852276244E+03  0.15294330000E+03 0.  0.
<mgrwt>
<rscale>  0 0.51390320E+03</rscale>
<asrwt>0</asrwt>
<pdfrwt beam="1">  1        1 0.99140721E-01 0.67845340E+03</pdfrwt>
<pdfrwt beam="2">  1       -1 0.12349193E+00 0.67845340E+03</pdfrwt>
<totfact> 0.18431371E+01</totfact>
</mgrwt>
</event>
<event>
 4    1  0.1521315E-007  0.7480094E+03  0.7818608E-02  0.9837202E-01
          1   -1    0    0  501    0  0.00000000000E+00  0.00000000000E+00  0.21392241740E+04  0.21392241740E+04  0.50400000000E-02 0. -1.
         -1   -1    0    0    0  501 -0.00000000000E+00 -0.00000000000E+00 -0.17360715481E+03  0.17360715489E+03  0.50400000000E-02 0.  1.
    8880023    1    1    2    0    0 -0.28640277544E+03 -0.20900074120E+03  0.16587617689E+04  0.18196177269E+04  0.65864270000E+03 0.  0.
    8880022    1    1    2    0    0  0.28640277544E+03  0.20900074120E+03  0.30685525026E+03  0.49321360203E+03  0.15294330000E+03 0. -1.
<mgrwt>
<rscale>  0 0.63403732E+03</rscale>
<asrwt>0</asrwt>
<pdfrwt beam="1">  1        1 0.32911137E+00 0.74800940E+03</pdfrwt>
<pdfrwt beam="2">  1       -1 0.26708796E-01 0.74800940E+03</pdfrwt>
<totfact> 0.31124941E+01</totfact>
</mgrwt>
</event>
<event>
 4    1  0.1521315E-007  0.6668007E+03  0.7818608E-02  0.1018068E+00
          1   -1    0    0  501    0  0.00000000000E+00  0.00000000000E+00  0.52067217403E+03  0.52067217406E+03  0.50400000000E-02 0. -1.
         -1   -1    0    0    0  501 -0.00000000000E+00 -0.00000000000E+00 -0.89165053501E+03  0.89165053503E+03  0.50400000000E-02 0.  1.
    8880023    1    1    2    0    0 -0.89726749066E+02 -0.52555200076E+02  0.28913622186E+03  0.72678944654E+03  0.65864270000E+03 0. -1.
    8880022    1    1    2    0    0  0.89726749066E+02  0.52555200076E+02 -0.66011458284E+03  0.68553326254E+03  0.15294330000E+03 0.  0.
<mgrwt>
<rscale>  0 0.48390218E+03</rscale>
<asrwt>0</asrwt>
<pdfrwt beam="1">  1        1 0.80103411E-01 0.66680068E+03</pdfrwt>
<pdfrwt beam="2">  1       -1 0.13717701E+00 0.66680068E+03</pdfrwt>
<totfact> 0.19191169E+01</totfact>
</mgrwt>
</event>
<event>
 4    1  0.1521315E-007  0.1240507E+04  0.7818608E-02  0.9118718E-01
         -1   -1    0    0    0  501 -0.00000000000E+00  0.00000000000E+00  0.73625972136E+03  0.73625972138E+03  0.50400000000E-02 0.  1.
          1   -1    0    0  501    0  0.00000000000E+00 -0.00000000000E+00 -0.20062228144E+04  0.20062228144E+04  0.50400000000E-02 0. -1.
    8880023    1    1    2    0    0  0.73037453478E+03 -0.75604284512E+03 -0.24127330541E+03  0.12637526494E+04  0.65864270000E+03 0.  1.
    8880022    1    1    2    0    0 -0.73037453478E+03  0.75604284512E+03 -0.10286897877E+04  0.14787298864E+04  0.15294330000E+03 0.  0.
<mgrwt>
<rscale>  0 0.11933263E+04</rscale>
<asrwt>0</asrwt>
<pdfrwt beam="1">  1        1 0.30864966E+00 0.12405071E+04</pdfrwt>
<pdfrwt beam="2">  1       -1 0.11327073E+00 0.12405071E+04</pdfrwt>
<totfact> 0.20596672E+00</totfact>
</mgrwt>
</event>
<event>
 4    1  0.1521315E-007  0.8401903E+03  0.7818608E-02  0.9629821E-01
          1   -1    0    0  501    0  0.00000000000E+00  0.00000000000E+00  0.72784970572E+03  0.72784970573E+03  0.50400000000E-02 0. -1.
         -1   -1    0    0    0  501 -0.00000000000E+00 -0.00000000000E+00 -0.73601890872E+03  0.73601890874E+03  0.50400000000E-02 0.  1.
    8880023    1    1    2    0    0  0.45819241158E+03 -0.24933777563E+03 -0.23864919495E+03  0.87342615996E+03  0.65864270000E+03 0.  0.
    8880022    1    1    2    0    0 -0.45819241158E+03  0.24933777563E+03  0.23047999195E+03  0.59044245451E+03  0.15294330000E+03 0.  0.
<mgrwt>
<rscale>  0 0.75353457E+03</rscale>
<asrwt>0</asrwt>
<pdfrwt beam="1">  1        1 0.11197688E+00 0.84019035E+03</pdfrwt>
<pdfrwt beam="2">  1       -1 0.11323368E+00 0.84019035E+03</pdfrwt>
<totfact> 0.18597569E+01</totfact>
</mgrwt>
</event>
<event>
 4    1  0.1521315E-007  0.7800358E+03  0.7818608E-02  0.9755753E-01
         -1   -1    0    0    0  501 -0.00000000000E+00  0.00000000000E+00  0.27104882676E+03  0.27104882681E+03  0.50400000000E-02 0.  1.
          1   -1    0    0  501    0  0.00000000000E+00 -0.00000000000E+00 -0.16105781937E+04  0.16105781937E+04  0.50400000000E-02 0. -1.
    8880023    1    1    2    0    0 -0.24232136627E+03  0.34047910822E+03 -0.11683779124E+04  0.14048355136E+04  0.65864270000E+03 0.  0.
    8880022    1    1    2    0    0  0.24232136627E+03 -0.34047910822E+03 -0.17115145449E+03  0.47679150692E+03  0.15294330000E+03 0.  0.
<mgrwt>
<rscale>  0 0.67792131E+03</rscale>
<asrwt>0</asrwt>
<pdfrwt beam="1">  1        1 0.24778125E+00 0.78003582E+03</pdfrwt>
<pdfrwt beam="2">  1       -1 0.41699821E-01 0.78003582E+03</pdfrwt>
<totfact> 0.31855012E+01</totfact>
</mgrwt>
</event>
<event>
 4    1  0.1521315E-007  0.8787610E+03  0.7818608E-02  0.9561025E-01
          1   -1    0    0  501    0  0.00000000000E+00  0.00000000000E+00  0.15068242804E+04  0.15068242804E+04  0.50400000000E-02 0. -1.
         -1   -1    0    0    0  501 -0.00000000000E+00 -0.00000000000E+00 -0.68608469648E+03  0.68608469650E+03  0.50400000000E-02 0.  1.
    8880023    1    1    2    0    0 -0.53083877527E+03  0.23795146165E+03  0.11958664758E+04  0.14840207336E+04  0.65864270000E+03 0.  0.
    8880022    1    1    2    0    0  0.53083877527E+03 -0.23795146165E+03 -0.37512689192E+03  0.70888824330E+03  0.15294330000E+03 0.  0.
<mgrwt>
<rscale>  0 0.79930404E+03</rscale>
<asrwt>0</asrwt>
<pdfrwt beam="1">  1        1 0.23181912E+00 0.87876101E+03</pdfrwt>
<pdfrwt beam="2">  1       -1 0.10555149E+00 0.87876101E+03</pdfrwt>
<totfact> 0.55586518E+00</totfact>
</mgrwt>
</event>
<event>
 4    1  0.1521315E-007  0.7406944E+03  0.7818608E-02  0.9857929E-01
          1   -1    0    0  501    0  0.00000000000E+00  0.00000000000E+00  0.65707308263E+03  0.65707308265E+03  0.50400000000E-02 0. -1.
         -1   -1    0    0    0  501 -0.00000000000E+00 -0.00000000000E+00 -0.20646312288E+04  0.20646312288E+04  0.50400000000E-02 0.  1.
    8880023    1    1    2    0    0  0.27345978183E+03 -0.20009439650E+03  0.42354686134E+03  0.85324097991E+03  0.65864270000E+03 0. -1.
    8880022    1    1    2    0    0 -0.27345978183E+03  0.20009439650E+03 -0.18311050075E+04  0.18684633315E+04  0.15294330000E+03 0.  0.
<mgrwt>
<rscale>  0 0.62344279E+03</rscale>
<asrwt>0</asrwt>
<pdfrwt beam="1">  1        1 0.10108817E+00 0.74069442E+03</pdfrwt>
<pdfrwt beam="2">  1       -1 0.31763557E+00 0.74069442E+03</pdfrwt>
<totfact> 0.80720134E-01</totfact>
</mgrwt>
</event>
<event>
 4    1  0.1521315E-007  0.6882144E+03  0.7818608E-02  0.1005013E+00
          1   -1    0    0  501    0  0.00000000000E+00  0.00000000000E+00  0.14789472675E+04  0.14789472675E+04  0.50400000000E-02 0. -1.
         -1   -1    0    0    0  501 -0.00000000000E+00 -0.00000000000E+00 -0.44179014657E+03  0.44179014659E+03  0.50400000000E-02 0.  1.
    8880023    1    1    2    0    0  0.16715424809E+03 -0.10903350657E+03  0.13524370949E+04  0.15174732782E+04  0.65864270000E+03 0.  0.
    8880022    1    1    2    0    0 -0.16715424809E+03  0.10903350657E+03 -0.31527997402E+03  0.40326413582E+03  0.15294330000E+03 0.  0.
<mgrwt>
<rscale>  0 0.53505701E+03</rscale>
<asrwt>0</asrwt>
<pdfrwt beam="1">  1        1 0.22753034E+00 0.68821440E+03</pdfrwt>
<pdfrwt beam="2">  1       -1 0.67967716E-01 0.68821440E+03</pdfrwt>
<totfact> 0.15497911E+01</totfact>
</mgrwt>
</event>
<event>
 4    1  0.1521315E-007  0.6736655E+03  0.7818608E-02  0.1013161E+00
          1   -1    0    0  501    0  0.00000000000E+00  0.00000000000E+00  0.81786569565E+03  0.81786569566E+03  0.50400000000E-02 0. -1.
         -1   -1    0    0    0  501 -0.00000000000E+00 -0.00000000000E+00 -0.54489516104E+03  0.54489516107E+03  0.50400000000E-02 0.  1.
    8880023    1    1    2    0    0 -0.10581632199E+03 -0.93903919947E+02  0.64736894116E+03  0.93429748604E+03  0.65864270000E+03 0. -1.
    8880022    1    1    2    0    0  0.10581632199E+03  0.93903919947E+02 -0.37439840655E+03  0.42846337069E+03  0.15294330000E+03 0.  0.
<mgrwt>
<rscale>  0 0.50237478E+03</rscale>
<asrwt>0</asrwt>
<pdfrwt beam="1">  1        1 0.12582549E+00 0.67366553E+03</pdfrwt>
<pdfrwt beam="2">  1       -1 0.83830025E-01 0.67366553E+03</pdfrwt>
<totfact> 0.31129505E+01</totfact>
</mgrwt>
</event>
<event>
 4    1  0.1521315E-007  0.6948156E+03  0.7818608E-02  0.1001943E+00
         -1   -1    0    0    0  501 -0.00000000000E+00  0.00000000000E+00  0.19672421844E+03  0.19672421850E+03  0.50400000000E-02 0.  1.
          1   -1    0    0  501    0  0.00000000000E+00 -0.00000000000E+00 -0.23286984653E+04  0.23286984653E+04  0.50400000000E-02 0. -1.
    8880023    1    1    2    0    0 -0.12226264368E+03 -0.18441897738E+03 -0.21463973938E+04  0.22560564026E+04  0.65864270000E+03 0. -1.
    8880022    1    1    2    0    0  0.12226264368E+03  0.18441897738E+03  0.14423146972E+02  0.26936628119E+03  0.15294330000E+03 0.  0.
<mgrwt>
<rscale>  0 0.54806506E+03</rscale>
<asrwt>0</asrwt>
<pdfrwt beam="1">  1        1 0.35826128E+00 0.69481560E+03</pdfrwt>
<pdfrwt beam="2">  1       -1 0.30265266E-01 0.69481560E+03</pdfrwt>
<totfact> 0.18845058E+01</totfact>
</mgrwt>
</event>
<event>
 4    1  0.1521315E-007  0.9615038E+03  0.7818608E-02  0.9433752E-01
          1   -1    0    0  501    0  0.00000000000E+00  0.00000000000E+00  0.16676024806E+04  0.16676024806E+04  0.50400000000E-02 0. -1.
         -1   -1    0    0    0  501 -0.00000000000E+00 -0.00000000000E+00 -0.45446458658E+03  0.45446458661E+03  0.50400000000E-02 0.  1.
    8880023    1    1    2    0    0 -0.62767975596E+03  0.31096232155E+03  0.40948838134E+03  0.10450695585E+04  0.65864270000E+03 0.  0.
    8880022    1    1    2    0    0  0.62767975596E+03 -0.31096232155E+03  0.80364951268E+03  0.10769975087E+04  0.15294330000E+03 0.  0.
<mgrwt>
<rscale>  0 0.89349303E+03</rscale>
<asrwt>0</asrwt>
<pdfrwt beam="1">  1        1 0.25655423E+00 0.96150385E+03</pdfrwt>
<pdfrwt beam="2">  1       -1 0.69917628E-01 0.96150385E+03</pdfrwt>
<totfact> 0.10496230E+01</totfact>
</mgrwt>
</event>
<event>
 4    1  0.1521315E-007  0.7304213E+03  0.7818608E-02  0.9888783E-01
         -1   -1    0    0    0  501 -0.00000000000E+00  0.00000000000E+00  0.10733458970E+04  0.10733458970E+04  0.50400000000E-02 0.  1.
          1   -1    0    0  501    0  0.00000000000E+00 -0.00000000000E+00 -0.11092166033E+04  0.11092166034E+04  0.50400000000E-02 0. -1.
    8880023    1    1    2    0    0 -0.13165816576E+03 -0.28700373452E+03 -0.95293969484E+03  0.12006703480E+04  0.65864270000E+03 0.  0.
    8880022    1    1    2    0    0  0.13165816576E+03  0.28700373452E+03  0.91706898849E+03  0.98189215238E+03  0.15294330000E+03 0.  0.
<mgrwt>
<rscale>  0 0.60808017E+03</rscale>
<asrwt>0</asrwt>
<pdfrwt beam="1">  1        1 0.17064871E+00 0.73042126E+03</pdfrwt>
<pdfrwt beam="2">  1       -1 0.16513014E+00 0.73042126E+03</pdfrwt>
<totfact> 0.34808209E+00</totfact>
</mgrwt>
</event>
<event>
 4    1  0.1521315E-007  0.7396494E+03  0.7818608E-02  0.9860970E-01
         -1   -1    0    0    0  501 -0.00000000000E+00  0.00000000000E+00  0.52729154077E+03  0.52729154080E+03  0.50400000000E-02 0.  1.
          1   -1    0    0  501    0  0.00000000000E+00 -0.00000000000E+00 -0.74487843406E+03  0.74487843408E+03  0.50400000000E-02 0. -1.
    8880023    1    1    2    0    0  0.33458060706E+03  0.36425915594E+02 -0.42013013882E+03  0.85064126972E+03  0.65864270000E+03 0. -1.
    8880022    1    1    2    0    0 -0.33458060706E+03 -0.36425915594E+02  0.20254324553E+03  0.42152870516E+03  0.15294330000E+03 0.  0.
<mgrwt>
<rscale>  0 0.62190733E+03</rscale>
<asrwt>0</asrwt>
<pdfrwt beam="1">  1        1 0.11459668E+00 0.73964940E+03</pdfrwt>
<pdfrwt beam="2">  1       -1 0.81121775E-01 0.73964940E+03</pdfrwt>
<totfact> 0.38421044E+01</totfact>
</mgrwt>
</event>
<event>
 4    1  0.1521315E-007  0.9050191E+03  0.7818608E-02  0.9518022E-01
         -1   -1    0    0    0  501 -0.00000000000E+00  0.00000000000E+00  0.36133634993E+03  0.36133634997E+03  0.50400000000E-02 0.  1.
          1   -1    0    0  501    0  0.00000000000E+00 -0.00000000000E+00 -0.33063170392E+04  0.33063170392E+04  0.50400000000E-02 0. -1.
    8880023    1    1    2    0    0  0.61727119280E+03  0.65005442181E+02 -0.28872886550E+04  0.30258049204E+04  0.65864270000E+03 0. -1.
    8880022    1    1    2    0    0 -0.61727119280E+03 -0.65005442181E+02 -0.57692034257E+02  0.64184846873E+03  0.15294330000E+03 0.  0.
<mgrwt>
<rscale>  0 0.82968087E+03</rscale>
<asrwt>0</asrwt>
<pdfrwt beam="1">  1        1 0.50866414E+00 0.90501914E+03</pdfrwt>
<pdfrwt beam="2">  1       -1 0.55590210E-01 0.90501914E+03</pdfrwt>
<totfact> 0.12156819E+00</totfact>
</mgrwt>
</event>
<event>
 4    1  0.1521315E-007  0.9065963E+03  0.7818608E-02  0.9515524E-01
          1   -1    0    0  501    0  0.00000000000E+00  0.00000000000E+00  0.11920033925E+04  0.11920033926E+04  0.50400000000E-02 0. -1.
         -1   -1    0    0    0  501 -0.00000000000E+00 -0.00000000000E+00 -0.69783908031E+03  0.69783908033E+03  0.50400000000E-02 0.  1.
    8880023    1    1    2    0    0 -0.45303331374E+02  0.62133264252E+03 -0.21690196514E+03  0.93218201722E+03  0.65864270000E+03 0.  0.
    8880022    1    1    2    0    0  0.45303331374E+02 -0.62133264252E+03  0.71106627738E+03  0.95766045566E+03  0.15294330000E+03 0.  0.
<mgrwt>
<rscale>  0 0.83148891E+03</rscale>
<asrwt>0</asrwt>
<pdfrwt beam="1">  1        1 0.18338513E+00 0.90659630E+03</pdfrwt>
<pdfrwt beam="2">  1       -1 0.10735986E+00 0.90659630E+03</pdfrwt>
<totfact> 0.88761417E+00</totfact>
</mgrwt>
</event>
<event>
 4    1  0.2005273E-007  0.7700421E+03  0.7818608E-02  0.9779771E-01
         -1   -1    0    0    0  501 -0.00000000000E+00  0.00000000000E+00  0.14878653832E+04  0.14878653832E+04  0.50400000000E-02 0.  1.
          1   -1    0    0  501    0  0.00000000000E+00 -0.00000000000E+00 -0.24037856647E+04  0.24037856647E+04  0.50400000000E-02 0. -1.
    8880023    1    1    2    0    0 -0.34403285431E+03 -0.20198020512E+03 -0.23092657599E+04  0.24342705610E+04  0.65864270000E+03 0. -1.
    8880022    1    1    2    0    0  0.34403285431E+03  0.20198020512E+03  0.13933454784E+04  0.14573804868E+04  0.15294330000E+03 0.  0.
<mgrwt>
<rscale>  0 0.66459560E+03</rscale>
<asrwt>0</asrwt>
<pdfrwt beam="1">  1        1 0.36981318E+00 0.77004209E+03</pdfrwt>
<pdfrwt beam="2">  1       -1 0.22890237E+00 0.77004209E+03</pdfrwt>
<totfact> 0.16294203E-01</totfact>
</mgrwt>
</event>
<event>
 4    1  0.1521315E-007  0.7227956E+03  0.7818608E-02  0.9913238E-01
          1   -1    0    0  501    0  0.00000000000E+00  0.00000000000E+00  0.17531230567E+04  0.17531230567E+04  0.50400000000E-02 0. -1.
         -1   -1    0    0    0  501 -0.00000000000E+00 -0.00000000000E+00 -0.17389505909E+03  0.17389505916E+03  0.50400000000E-02 0.  1.
    8880023    1    1    2    0    0 -0.28264653962E+03  0.93457052952E+02  0.79555014349E+03  0.10748644213E+04  0.65864270000E+03 0.  1.
    8880022    1    1    2    0    0  0.28264653962E+03 -0.93457052952E+02  0.78367785410E+03  0.85215369454E+03  0.15294330000E+03 0. -1.
<mgrwt>
<rscale>  0 0.59624002E+03</rscale>
<asrwt>0</asrwt>
<pdfrwt beam="1">  1        1 0.26971124E+00 0.72279561E+03</pdfrwt>
<pdfrwt beam="2">  1       -1 0.26753086E-01 0.72279561E+03</pdfrwt>
<totfact> 0.56418699E+01</totfact>
</mgrwt>
</event>
<event>
 4    1  0.1521315E-007  0.9017816E+03  0.7818608E-02  0.9523178E-01
          1   -1    0    0  501    0  0.00000000000E+00  0.00000000000E+00  0.55806087980E+03  0.55806087983E+03  0.50400000000E-02 0. -1.
         -1   -1    0    0    0  501 -0.00000000000E+00 -0.00000000000E+00 -0.16449076450E+04  0.16449076450E+04  0.50400000000E-02 0.  1.
    8880023    1    1    2    0    0 -0.55634109514E+03 -0.26435662120E+03  0.47625371753E+02  0.90303832676E+03  0.65864270000E+03 0.  0.
    8880022    1    1    2    0    0  0.55634109514E+03  0.26435662120E+03 -0.11344721369E+04  0.12999301980E+04  0.15294330000E+03 0.  0.
<mgrwt>
<rscale>  0 0.82596389E+03</rscale>
<asrwt>0</asrwt>
<pdfrwt beam="1">  1        1 0.85855521E-01 0.90178159E+03</pdfrwt>
<pdfrwt beam="2">  1       -1 0.25306271E+00 0.90178159E+03</pdfrwt>
<totfact> 0.25838107E+00</totfact>
</mgrwt>
</event>
<event>
 4    1  0.1521315E-007  0.7738015E+03  0.7818608E-02  0.9770604E-01
         -1   -1    0    0    0  501 -0.00000000000E+00  0.00000000000E+00  0.66183656323E+03  0.66183656324E+03  0.50400000000E-02 0.  1.
          1   -1    0    0  501    0  0.00000000000E+00 -0.00000000000E+00 -0.68346230254E+03  0.68346230256E+03  0.50400000000E-02 0. -1.
    8880023    1    1    2    0    0 -0.40614424212E+03 -0.23381816041E+01 -0.29975444518E+03  0.82983223978E+03  0.65864270000E+03 0. -1.
    8880022    1    1    2    0    0  0.40614424212E+03  0.23381816041E+01  0.27812870587E+03  0.51546662603E+03  0.15294330000E+03 0.  0.
<mgrwt>
<rscale>  0 0.66964244E+03</rscale>
<asrwt>0</asrwt>
<pdfrwt beam="1">  1        1 0.10514805E+00 0.77380154E+03</pdfrwt>
<pdfrwt beam="2">  1       -1 0.10182101E+00 0.77380154E+03</pdfrwt>
<totfact> 0.26422075E+01</totfact>
</mgrwt>
</event>
<event>
 4    1  0.1521315E-007  0.7057647E+03  0.7818608E-02  0.9974078E-01
          1   -1    0    0  501    0  0.00000000000E+00  0.00000000000E+00  0.18423707860E+04  0.18423707860E+04  0.50400000000E-02 0. -1.
         -1   -1    0    0    0  501 -0.00000000000E+00 -0.00000000000E+00 -0.15662080153E+03  0.15662080161E+03  0.50400000000E-02 0.  1.
    8880023    1    1    2    0    0  0.19951773351E+03  0.15648070632E+03  0.14761779170E+04  0.16362166685E+04  0.65864270000E+03 0. -1.
    8880022    1    1    2    0    0 -0.19951773351E+03 -0.15648070632E+03  0.20957206740E+03  0.36277491904E+03  0.15294330000E+03 0.  1.
<mgrwt>
<rscale>  0 0.56801618E+03</rscale>
<asrwt>0</asrwt>
<pdfrwt beam="1">  1        1 0.28344166E+00 0.70576465E+03</pdfrwt>
<pdfrwt beam="2">  1       -1 0.24095508E-01 0.70576465E+03</pdfrwt>
<totfact> 0.58897894E+01</totfact>
</mgrwt>
</event>
<event>
 4    1  0.1618492E-007  0.6906654E+03  0.7818608E-02  0.1003838E+00
          1   -1    0    0  501    0  0.00000000000E+00  0.00000000000E+00  0.11145560530E+04  0.11145560530E+04  0.50400000000E-02 0. -1.
         -1   -1    0    0    0  501 -0.00000000000E+00 -0.00000000000E+00 -0.11526978660E+04  0.11526978660E+04  0.50400000000E-02 0.  1.
    8880023    1    1    2    0    0  0.10490822638E+03 -0.17945115269E+03  0.99005950329E+03  0.12071605024E+04  0.65864270000E+03 0. -1.
    8880022    1    1    2    0    0 -0.10490822638E+03  0.17945115269E+03 -0.10282013163E+04  0.10600934166E+04  0.15294330000E+03 0.  0.
<mgrwt>
<rscale>  0 0.53998927E+03</rscale>
<asrwt>0</asrwt>
<pdfrwt beam="1">  1        1 0.17147016E+00 0.69066537E+03</pdfrwt>
<pdfrwt beam="2">  1       -1 0.17733813E+00 0.69066537E+03</pdfrwt>
<totfact> 0.28310467E+00</totfact>
</mgrwt>
</event>
<event>
 4    1  0.1521315E-007  0.6719107E+03  0.7818608E-02  0.1014329E+00
         -1   -1    0    0    0  501 -0.00000000000E+00  0.00000000000E+00  0.55453210410E+03  0.55453210412E+03  0.50400000000E-02 0.  1.
          1   -1    0    0  501    0  0.00000000000E+00 -0.00000000000E+00 -0.75551958523E+03  0.75551958525E+03  0.50400000000E-02 0. -1.
    8880023    1    1    2    0    0 -0.12950219874E+03 -0.29715808804E+02 -0.57521836296E+03  0.88449998311E+03  0.65864270000E+03 0. -1.
    8880022    1    1    2    0    0  0.12950219874E+03  0.29715808804E+02  0.37423088183E+03  0.42555170626E+03  0.15294330000E+03 0.  0.
<mgrwt>
<rscale>  0 0.49789973E+03</rscale>
<asrwt>0</asrwt>
<pdfrwt beam="1">  1        1 0.11623378E+00 0.67191075E+03</pdfrwt>
<pdfrwt beam="2">  1       -1 0.85312631E-01 0.67191075E+03</pdfrwt>
<totfact> 0.33980331E+01</totfact>
</mgrwt>
</event>
<event>
 4    1  0.1521315E-007  0.8497406E+03  0.7818608E-02  0.9612080E-01
          1   -1    0    0  501    0  0.00000000000E+00  0.00000000000E+00  0.15039033632E+04  0.15039033632E+04  0.50400000000E-02 0. -1.
         -1   -1    0    0    0  501 -0.00000000000E+00 -0.00000000000E+00 -0.40426703425E+03  0.40426703428E+03  0.50400000000E-02 0.  1.
    8880023    1    1    2    0    0  0.17841723813E+03 -0.50637547569E+03  0.10455537978E+04  0.13473090899E+04  0.65864270000E+03 0. -1.
    8880022    1    1    2    0    0 -0.17841723813E+03  0.50637547569E+03  0.54082531169E+02  0.56086130766E+03  0.15294330000E+03 0.  1.
<mgrwt>
<rscale>  0 0.76501773E+03</rscale>
<asrwt>0</asrwt>
<pdfrwt beam="1">  1        1 0.23136975E+00 0.84974057E+03</pdfrwt>
<pdfrwt beam="2">  1       -1 0.62194929E-01 0.84974057E+03</pdfrwt>
<totfact> 0.17428169E+01</totfact>
</mgrwt>
</event>
<event>
 4    1  0.1521315E-007  0.9330862E+03  0.7818608E-02  0.9474879E-01
         -1   -1    0    0    0  501 -0.00000000000E+00  0.00000000000E+00  0.51345850346E+03  0.51345850348E+03  0.50400000000E-02 0.  1.
          1   -1    0    0  501    0  0.00000000000E+00 -0.00000000000E+00 -0.14166715019E+04  0.14166715020E+04  0.50400000000E-02 0. -1.
    8880023    1    1    2    0    0  0.56819794288E+03 -0.33762516481E+03 -0.82814244871E+03  0.12475855786E+04  0.65864270000E+03 0. -1.
    8880022    1    1    2    0    0 -0.56819794288E+03  0.33762516481E+03 -0.75070549777E+02  0.68254442688E+03  0.15294330000E+03 0.  0.
<mgrwt>
<rscale>  0 0.86161519E+03</rscale>
<asrwt>0</asrwt>
<pdfrwt beam="1">  1        1 0.21794946E+00 0.93308620E+03</pdfrwt>
<pdfrwt beam="2">  1       -1 0.78993617E-01 0.93308620E+03</pdfrwt>
<totfact> 0.12134422E+01</totfact>
</mgrwt>
</event>
<event>
 4    1  0.1521315E-007  0.9252313E+03  0.7818608E-02  0.9486684E-01
         -1   -1    0    0    0  501 -0.00000000000E+00  0.00000000000E+00  0.63995694088E+03  0.63995694090E+03  0.50400000000E-02 0.  1.
          1   -1    0    0  501    0  0.00000000000E+00 -0.00000000000E+00 -0.12516506044E+04  0.12516506044E+04  0.50400000000E-02 0. -1.
    8880023    1    1    2    0    0 -0.43746397441E+03 -0.48048727659E+03 -0.77207545652E+03  0.12050533053E+04  0.65864270000E+03 0.  0.
    8880022    1    1    2    0    0  0.43746397441E+03  0.48048727659E+03  0.16038179301E+03  0.68655423997E+03  0.15294330000E+03 0.  0.
<mgrwt>
<rscale>  0 0.85272712E+03</rscale>
<asrwt>0</asrwt>
<pdfrwt beam="1">  1        1 0.19256163E+00 0.92523130E+03</pdfrwt>
<pdfrwt beam="2">  1       -1 0.98454915E-01 0.92523130E+03</pdfrwt>
<totfact> 0.97961794E+00</totfact>
</mgrwt>
</event>
<event>
 4    1  0.1521315E-007  0.7067945E+03  0.7818608E-02  0.9970102E-01
         -1   -1    0    0    0  501 -0.00000000000E+00  0.00000000000E+00  0.62048416158E+03  0.62048416160E+03  0.50400000000E-02 0.  1.
          1   -1    0    0  501    0  0.00000000000E+00 -0.00000000000E+00 -0.70216267159E+03  0.70216267161E+03  0.50400000000E-02 0. -1.
    8880023    1    1    2    0    0  0.18512277684E+03  0.17741996853E+03 -0.45804626838E+03  0.84223801742E+03  0.65864270000E+03 0.  0.
    8880022    1    1    2    0    0 -0.18512277684E+03 -0.17741996853E+03  0.37636775837E+03  0.48040881579E+03  0.15294330000E+03 0.  0.
<mgrwt>
<rscale>  0 0.56980850E+03</rscale>
<asrwt>0</asrwt>
<pdfrwt beam="1">  1        1 0.10802503E+00 0.70679452E+03</pdfrwt>
<pdfrwt beam="2">  1       -1 0.95459102E-01 0.70679452E+03</pdfrwt>
<totfact> 0.29575134E+01</totfact>
</mgrwt>
</event>
<event>
 4    1  0.1521315E-007  0.6591912E+03  0.7818608E-02  0.1025001E+00
          1   -1    0    0  501    0  0.00000000000E+00  0.00000000000E+00  0.10473366870E+04  0.10473366870E+04  0.50400000000E-02 0. -1.
         -1   -1    0    0    0  501 -0.00000000000E+00 -0.00000000000E+00 -0.26933459227E+03  0.26933459232E+03  0.50400000000E-02 0.  1.
    8880023    1    1    2    0    0  0.26450463260E+02 -0.48178255050E+01  0.90252358590E+03  0.11176233121E+04  0.65864270000E+03 0. -1.
    8880022    1    1    2    0    0 -0.26450463260E+02  0.48178255050E+01 -0.12452149120E+03  0.19904796717E+03  0.15294330000E+03 0.  0.
<mgrwt>
<rscale>  0 0.45924382E+03</rscale>
<asrwt>0</asrwt>
<pdfrwt beam="1">  1        1 0.16112872E+00 0.65919120E+03</pdfrwt>
<pdfrwt beam="2">  1       -1 0.41436092E-01 0.65919120E+03</pdfrwt>
<totfact> 0.81724099E+01</totfact>
</mgrwt>
</event>
<event>
 4    1  0.1521315E-007  0.1127822E+04  0.7818608E-02  0.9230695E-01
          1   -1    0    0  501    0  0.00000000000E+00  0.00000000000E+00  0.10648181629E+04  0.10648181629E+04  0.50400000000E-02 0. -1.
         -1   -1    0    0    0  501 -0.00000000000E+00 -0.00000000000E+00 -0.22128523169E+04  0.22128523170E+04  0.50400000000E-02 0.  1.
    8880023    1    1    2    0    0 -0.78791345375E+02  0.91212021680E+03  0.61545312742E+03  0.12848206584E+04  0.65864270000E+03 0.  0.
    8880022    1    1    2    0    0  0.78791345375E+02 -0.91212021680E+03 -0.17634872815E+04  0.19928498215E+04  0.15294330000E+03 0.  1.
<mgrwt>
<rscale>  0 0.10742149E+04</rscale>
<asrwt>0</asrwt>
<pdfrwt beam="1">  1        1 0.16381818E+00 0.11278216E+04</pdfrwt>
<pdfrwt beam="2">  1       -1 0.34043882E+00 0.11278216E+04</pdfrwt>
<totfact> 0.24200268E-01</totfact>
</mgrwt>
</event>
<event>
 4    1  0.1521315E-007  0.8859129E+03  0.7818608E-02  0.9549035E-01
          1   -1    0    0  501    0  0.00000000000E+00  0.00000000000E+00  0.42063023270E+04  0.42063023270E+04  0.50400000000E-02 0. -1.
         -1   -1    0    0    0  501 -0.00000000000E+00 -0.00000000000E+00 -0.21270151468E+03  0.21270151474E+03  0.50400000000E-02 0.  1.
    8880023    1    1    2    0    0  0.55974617736E+03  0.19420526552E+03  0.35612061934E+04  0.36697453899E+04  0.65864270000E+03 0.  0.
    8880022    1    1    2    0    0 -0.55974617736E+03 -0.19420526552E+03  0.43239461890E+03  0.74925845187E+03  0.15294330000E+03 0.  0.
<mgrwt>
<rscale>  0 0.80763216E+03</rscale>
<asrwt>0</asrwt>
<pdfrwt beam="1">  1        1 0.64712345E+00 0.88591290E+03</pdfrwt>
<pdfrwt beam="2">  1       -1 0.32723309E-01 0.88591290E+03</pdfrwt>
<totfact> 0.59126714E-01</totfact>
</mgrwt>
</event>
<event>
 4    1  0.1521315E-007  0.7005685E+03  0.7818608E-02  0.9994851E-01
          1   -1    0    0  501    0  0.00000000000E+00  0.00000000000E+00  0.97061991938E+03  0.97061991939E+03  0.50400000000E-02 0. -1.
         -1   -1    0    0    0  501 -0.00000000000E+00 -0.00000000000E+00 -0.25021609798E+03  0.25021609803E+03  0.50400000000E-02 0.  1.
    8880023    1    1    2    0    0  0.22276938069E+03 -0.85789152355E+02  0.48139117656E+03  0.85001979199E+03  0.65864270000E+03 0. -1.
    8880022    1    1    2    0    0 -0.22276938069E+03  0.85789152355E+02  0.23901264484E+03  0.37081622543E+03  0.15294330000E+03 0.  1.
<mgrwt>
<rscale>  0 0.55876583E+03</rscale>
<asrwt>0</asrwt>
<pdfrwt beam="1">  1        1 0.14932614E+00 0.70056847E+03</pdfrwt>
<pdfrwt beam="2">  1       -1 0.38494784E-01 0.70056847E+03</pdfrwt>
<totfact> 0.10662612E+02</totfact>
</mgrwt>
</event>
<event>
 4    1  0.1521315E-007  0.7251727E+03  0.7818608E-02  0.9905457E-01
          1   -1    0    0  501    0  0.00000000000E+00  0.00000000000E+00  0.32207826858E+03  0.32207826862E+03  0.50400000000E-02 0. -1.
         -1   -1    0    0    0  501 -0.00000000000E+00 -0.00000000000E+00 -0.29014767357E+04  0.29014767357E+04  0.50400000000E-02 0.  1.
    8880023    1    1    2    0    0  0.14965530101E+03 -0.26394793896E+03 -0.11307578577E+03  0.73393566693E+03  0.65864270000E+03 0.  0.
    8880022    1    1    2    0    0 -0.14965530101E+03  0.26394793896E+03 -0.24663226814E+04  0.24896193374E+04  0.15294330000E+03 0.  0.
<mgrwt>
<rscale>  0 0.59997555E+03</rscale>
<asrwt>0</asrwt>
<pdfrwt beam="1">  1        1 0.49550505E-01 0.72517269E+03</pdfrwt>
<pdfrwt beam="2">  1       -1 0.44638102E+00 0.72517269E+03</pdfrwt>
<totfact> 0.29517002E-01</totfact>
</mgrwt>
</event>
<event>
 4    1  0.1521315E-007  0.6617884E+03  0.7818608E-02  0.1022395E+00
          1   -1    0    0  501    0  0.00000000000E+00  0.00000000000E+00  0.18041931856E+04  0.18041931856E+04  0.50400000000E-02 0. -1.
         -1   -1    0    0    0  501 -0.00000000000E+00 -0.00000000000E+00 -0.85500350803E+03  0.85500350804E+03  0.50400000000E-02 0.  1.
    8880023    1    1    2    0    0 -0.16863502979E+02 -0.62203863425E+02  0.17345403953E+04  0.18565005487E+04  0.65864270000E+03 0. -1.
    8880022    1    1    2    0    0  0.16863502979E+02  0.62203863425E+02 -0.78535071767E+03  0.80269614495E+03  0.15294330000E+03 0.  0.
<mgrwt>
<rscale>  0 0.46832292E+03</rscale>
<asrwt>0</asrwt>
<pdfrwt beam="1">  1        1 0.27756818E+00 0.66178841E+03</pdfrwt>
<pdfrwt beam="2">  1       -1 0.13153900E+00 0.66178841E+03</pdfrwt>
<totfact> 0.21326556E+00</totfact>
</mgrwt>
</event>
<event>
 4    1  0.1521315E-007  0.8116574E+03  0.7818608E-02  0.9686135E-01
          1   -1    0    0  501    0  0.00000000000E+00  0.00000000000E+00  0.12124486442E+04  0.12124486442E+04  0.50400000000E-02 0. -1.
         -1   -1    0    0    0  501 -0.00000000000E+00 -0.00000000000E+00 -0.51248396807E+03  0.51248396810E+03  0.50400000000E-02 0.  1.
    8880023    1    1    2    0    0 -0.45333583856E+03  0.13951383478E+03  0.87802937681E+03  0.11957103685E+04  0.65864270000E+03 0.  0.
    8880022    1    1    2    0    0  0.45333583856E+03 -0.13951383478E+03 -0.17806470072E+03  0.52922224374E+03  0.15294330000E+03 0.  0.
<mgrwt>
<rscale>  0 0.71848344E+03</rscale>
<asrwt>0</asrwt>
<pdfrwt beam="1">  1        1 0.18653056E+00 0.81165738E+03</pdfrwt>
<pdfrwt beam="2">  1       -1 0.78843688E-01 0.81165738E+03</pdfrwt>
<totfact> 0.17243282E+01</totfact>
</mgrwt>
</event>
<event>
 4    1  0.1521315E-007  0.1127249E+04  0.7818608E-02  0.9231307E-01
          1   -1    0    0  501    0  0.00000000000E+00  0.00000000000E+00  0.66511050678E+03  0.66511050680E+03  0.50400000000E-02 0. -1.
         -1   -1    0    0    0  501 -0.00000000000E+00 -0.00000000000E+00 -0.17300803823E+04  0.17300803823E+04  0.50400000000E-02 0.  1.
    8880023    1    1    2    0    0  0.65393738915E+03  0.63972361222E+03 -0.23701646138E+03  0.11518973123E+04  0.65864270000E+03 0. -1.
    8880022    1    1    2    0    0 -0.65393738915E+03 -0.63972361222E+03 -0.82795341411E+03  0.12432935767E+04  0.15294330000E+03 0.  0.
<mgrwt>
<rscale>  0 0.10736047E+04</rscale>
<asrwt>0</asrwt>
<pdfrwt beam="1">  1        1 0.10232469E+00 0.11272491E+04</pdfrwt>
<pdfrwt beam="2">  1       -1 0.26616621E+00 0.11272491E+04</pdfrwt>
<totfact> 0.16010627E+00</totfact>
</mgrwt>
</event>
<event>
 4    1  0.1521315E-007  0.7327544E+03  0.7818608E-02  0.9881579E-01
         -1   -1    0    0    0  501 -0.00000000000E+00  0.00000000000E+00  0.78024099245E+03  0.78024099246E+03  0.50400000000E-02 0.  1.
          1   -1    0    0  501    0  0.00000000000E+00 -0.00000000000E+00 -0.57341426728E+03  0.57341426730E+03  0.50400000000E-02 0. -1.
    8880023    1    1    2    0    0 -0.13062516310E+03 -0.29335274936E+03 -0.25041512323E+03  0.77436213040E+03  0.65864270000E+03 0.  0.
    8880022    1    1    2    0    0  0.13062516310E+03  0.29335274936E+03  0.45724184840E+03  0.57929312937E+03  0.15294330000E+03 0.  0.
<mgrwt>
<rscale>  0 0.61162412E+03</rscale>
<asrwt>0</asrwt>
<pdfrwt beam="1">  1        1 0.88217580E-01 0.73275438E+03</pdfrwt>
<pdfrwt beam="2">  1       -1 0.12003708E+00 0.73275438E+03</pdfrwt>
<totfact> 0.23233731E+01</totfact>
</mgrwt>
</event>
<event>
 4    1  0.1521315E-007  0.7820832E+03  0.7818608E-02  0.9750966E-01
         -1   -1    0    0    0  501 -0.00000000000E+00  0.00000000000E+00  0.10905013762E+04  0.10905013762E+04  0.50400000000E-02 0.  1.
          1   -1    0    0  501    0  0.00000000000E+00 -0.00000000000E+00 -0.12207028487E+04  0.12207028488E+04  0.50400000000E-02 0. -1.
    8880023    1    1    2    0    0 -0.70065401610E+02 -0.41585428518E+03 -0.10373884976E+04  0.12991647502E+04  0.65864270000E+03 0. -1.
    8880022    1    1    2    0    0  0.70065401610E+02  0.41585428518E+03  0.90718702504E+03  0.10120394747E+04  0.15294330000E+03 0.  0.
<mgrwt>
<rscale>  0 0.68061705E+03</rscale>
<asrwt>0</asrwt>
<pdfrwt beam="1">  1        1 0.18780044E+00 0.78208321E+03</pdfrwt>
<pdfrwt beam="2">  1       -1 0.16776944E+00 0.78208321E+03</pdfrwt>
<totfact> 0.27341692E+00</totfact>
</mgrwt>
</event>
<event>
 4    1  0.1521315E-007  0.8303858E+03  0.7818608E-02  0.9648582E-01
         -1   -1    0    0    0  501 -0.00000000000E+00  0.00000000000E+00  0.57824584300E+03  0.57824584303E+03  0.50400000000E-02 0.  1.
          1   -1    0    0  501    0  0.00000000000E+00 -0.00000000000E+00 -0.10559626458E+04  0.10559626458E+04  0.50400000000E-02 0. -1.
    8880023    1    1    2    0    0  0.22334713085E+03  0.45370295235E+03 -0.67513433359E+03  0.10702088042E+04  0.65864270000E+03 0. -1.
    8880022    1    1    2    0    0 -0.22334713085E+03 -0.45370295235E+03  0.19741753080E+03  0.56399968468E+03  0.15294330000E+03 0.  0.
<mgrwt>
<rscale>  0 0.74162468E+03</rscale>
<asrwt>0</asrwt>
<pdfrwt beam="1">  1        1 0.16245579E+00 0.83038576E+03</pdfrwt>
<pdfrwt beam="2">  1       -1 0.88960899E-01 0.83038576E+03</pdfrwt>
<totfact> 0.17319761E+01</totfact>
</mgrwt>
</event>
<event>
 4    1  0.1521315E-007  0.7869705E+03  0.7818608E-02  0.9739711E-01
          1   -1    0    0  501    0  0.00000000000E+00  0.00000000000E+00  0.38907128432E+03  0.38907128435E+03  0.50400000000E-02 0. -1.
         -1   -1    0    0    0  501 -0.00000000000E+00 -0.00000000000E+00 -0.10188055254E+04  0.10188055254E+04  0.50400000000E-02 0.  1.
    8880023    1    1    2    0    0 -0.42922170788E+03 -0.35792021813E+02 -0.50145704201E+03  0.93315685422E+03  0.65864270000E+03 0.  0.
    8880022    1    1    2    0    0  0.42922170788E+03  0.35792021813E+02 -0.12827719903E+03  0.47471995549E+03  0.15294330000E+03 0.  0.
<mgrwt>
<rscale>  0 0.68700861E+03</rscale>
<asrwt>0</asrwt>
<pdfrwt beam="1">  1        1 0.59857121E-01 0.78697049E+03</pdfrwt>
<pdfrwt beam="2">  1       -1 0.15673931E+00 0.78697049E+03</pdfrwt>
<totfact> 0.19689778E+01</totfact>
</mgrwt>
</event>
<event>
 4    1  0.1521315E-007  0.8337707E+03  0.7818608E-02  0.9642040E-01
         -1   -1    0    0    0  501 -0.00000000000E+00  0.00000000000E+00  0.11896468535E+03  0.11896468545E+03  0.50400000000E-02 0.  1.
          1   -1    0    0  501    0  0.00000000000E+00 -0.00000000000E+00 -0.47665356616E+04  0.47665356616E+04  0.50400000000E-02 0. -1.
    8880023    1    1    2    0    0 -0.51072566322E+03  0.22862604630E+02 -0.37475213045E+04  0.38391521897E+04  0.65864270000E+03 0. -1.
    8880022    1    1    2    0    0  0.51072566322E+03 -0.22862604630E+02 -0.90004967179E+03  0.10463481574E+04  0.15294330000E+03 0.  0.
<mgrwt>
<rscale>  0 0.74575111E+03</rscale>
<asrwt>0</asrwt>
<pdfrwt beam="1">  1        1 0.73331303E+00 0.83377072E+03</pdfrwt>
<pdfrwt beam="2">  1       -1 0.18302263E-01 0.83377072E+03</pdfrwt>
<totfact> 0.43994069E-01</totfact>
</mgrwt>
</event>
<event>
 4    1  0.1521315E-007  0.6642303E+03  0.7818608E-02  0.1020188E+00
         -1   -1    0    0    0  501 -0.00000000000E+00  0.00000000000E+00  0.62844707620E+03  0.62844707622E+03  0.50400000000E-02 0.  1.
          1   -1    0    0  501    0  0.00000000000E+00 -0.00000000000E+00 -0.43304878607E+03  0.43304878610E+03  0.50400000000E-02 0. -1.
    8880023    1    1    2    0    0 -0.42198340233E+01  0.85871410521E+02 -0.14379049535E+03  0.67961578775E+03  0.65864270000E+03 0.  0.
    8880022    1    1    2    0    0  0.42198340233E+01 -0.85871410521E+02  0.33918878548E+03  0.38188007457E+03  0.15294330000E+03 0.  1.
<mgrwt>
<rscale>  0 0.47618808E+03</rscale>
<asrwt>0</asrwt>
<pdfrwt beam="1">  1        1 0.66622890E-01 0.66423032E+03</pdfrwt>
<pdfrwt beam="2">  1       -1 0.96684166E-01 0.66423032E+03</pdfrwt>
<totfact> 0.57045553E+01</totfact>
</mgrwt>
</event>
<event>
 4    1  0.1521315E-007  0.8877017E+03  0.7818608E-02  0.9546070E-01
          1   -1    0    0  501    0  0.00000000000E+00  0.00000000000E+00  0.63264455335E+03  0.63264455337E+03  0.50400000000E-02 0. -1.
         -1   -1    0    0    0  501 -0.00000000000E+00 -0.00000000000E+00 -0.10318481670E+04  0.10318481670E+04  0.50400000000E-02 0.  1.
    8880023    1    1    2    0    0  0.35054006985E+03  0.48096340902E+03  0.71301509744E+02  0.89056063968E+03  0.65864270000E+03 0.  0.
    8880022    1    1    2    0    0 -0.35054006985E+03 -0.48096340902E+03 -0.47050512340E+03  0.77393208071E+03  0.15294330000E+03 0.  0.
<mgrwt>
<rscale>  0 0.80970849E+03</rscale>
<asrwt>0</asrwt>
<pdfrwt beam="1">  1        1 0.97329931E-01 0.88770172E+03</pdfrwt>
<pdfrwt beam="2">  1       -1 0.15874587E+00 0.88770172E+03</pdfrwt>
<totfact> 0.96035037E+00</totfact>
</mgrwt>
</event>
<event>
 4    1  0.1521315E-007  0.1115178E+04  0.7818608E-02  0.9244343E-01
         -1   -1    0    0    0  501 -0.00000000000E+00  0.00000000000E+00  0.45608171969E+03  0.45608171971E+03  0.50400000000E-02 0.  1.
          1   -1    0    0  501    0  0.00000000000E+00 -0.00000000000E+00 -0.28290461182E+04  0.28290461182E+04  0.50400000000E-02 0. -1.
    8880023    1    1    2    0    0 -0.14826526465E+03  0.88759740559E+03 -0.20182050180E+04  0.23058129681E+04  0.65864270000E+03 0.  0.
    8880022    1    1    2    0    0  0.14826526465E+03 -0.88759740559E+03 -0.35475938053E+03  0.97931486979E+03  0.15294330000E+03 0.  0.
<mgrwt>
<rscale>  0 0.10607231E+04</rscale>
<asrwt>0</asrwt>
<pdfrwt beam="1">  1        1 0.43523786E+00 0.11151780E+04</pdfrwt>
<pdfrwt beam="2">  1       -1 0.70166420E-01 0.11151780E+04</pdfrwt>
<totfact> 0.16440004E+00</totfact>
</mgrwt>
</event>
<event>
 4    1  0.1521315E-007  0.6898649E+03  0.7818608E-02  0.1004217E+00
          1   -1    0    0  501    0  0.00000000000E+00  0.00000000000E+00  0.89250201632E+03  0.89250201634E+03  0.50400000000E-02 0. -1.
         -1   -1    0    0    0  501 -0.00000000000E+00 -0.00000000000E+00 -0.27494250791E+03  0.27494250796E+03  0.50400000000E-02 0.  1.
    8880023    1    1    2    0    0  0.19265908023E+03  0.70610217069E+02  0.59415273741E+03  0.91045648198E+03  0.65864270000E+03 0.  0.
    8880022    1    1    2    0    0 -0.19265908023E+03 -0.70610217069E+02  0.23406771003E+02  0.25698804231E+03  0.15294330000E+03 0.  0.
<mgrwt>
<rscale>  0 0.53839252E+03</rscale>
<asrwt>0</asrwt>
<pdfrwt beam="1">  1        1 0.13730800E+00 0.68986486E+03</pdfrwt>
<pdfrwt beam="2">  1       -1 0.42298847E-01 0.68986486E+03</pdfrwt>
<totfact> 0.10380436E+02</totfact>
</mgrwt>
</event>
<event>
 4    1  0.1521315E-007  0.6930226E+03  0.7818608E-02  0.1002748E+00
         -1   -1    0    0    0  501 -0.00000000000E+00  0.00000000000E+00  0.69408809710E+03  0.69408809712E+03  0.50400000000E-02 0.  1.
          1   -1    0    0  501    0  0.00000000000E+00 -0.00000000000E+00 -0.62050738964E+03  0.62050738966E+03  0.50400000000E-02 0. -1.
    8880023    1    1    2    0    0  0.19972560998E+03 -0.81116344288E+02 -0.37944556958E+03  0.79010083352E+03  0.65864270000E+03 0. -1.
    8880022    1    1    2    0    0 -0.19972560998E+03  0.81116344288E+02  0.45302627705E+03  0.52449465326E+03  0.15294330000E+03 0.  0.
<mgrwt>
<rscale>  0 0.54461621E+03</rscale>
<asrwt>0</asrwt>
<pdfrwt beam="1">  1        1 0.95462676E-01 0.69302265E+03</pdfrwt>
<pdfrwt beam="2">  1       -1 0.10678278E+00 0.69302265E+03</pdfrwt>
<totfact> 0.27525823E+01</totfact>
</mgrwt>
</event>
<event>
 4    1  0.1521315E-007  0.1280945E+04  0.7818608E-02  0.9082192E-01
          1   -1    0    0  501    0  0.00000000000E+00  0.00000000000E+00  0.18906864329E+04  0.18906864329E+04  0.50400000000E-02 0. -1.
         -1   -1    0    0    0  501 -0.00000000000E+00 -0.00000000000E+00 -0.83463720902E+03  0.83463720904E+03  0.50400000000E-02 0.  1.
    8880023    1    1    2    0    0 -0.89511568738E+03 -0.63700627532E+03  0.98121447910E+03  0.16135678321E+04  0.65864270000E+03 0.  0.
    8880022    1    1    2    0    0  0.89511568738E+03  0.63700627532E+03  0.74834744763E+02  0.11117558098E+04  0.15294330000E+03 0.  0.
<mgrwt>
<rscale>  0 0.12356731E+04</rscale>
<asrwt>0</asrwt>
<pdfrwt beam="1">  1        1 0.29087483E+00 0.12809447E+04</pdfrwt>
<pdfrwt beam="2">  1       -1 0.12840573E+00 0.12809447E+04</pdfrwt>
<totfact> 0.18020520E+00</totfact>
</mgrwt>
</event>
<event>
 4    1  0.1521315E-007  0.1019367E+04  0.7818608E-02  0.9356646E-01
         -1   -1    0    0    0  501 -0.00000000000E+00  0.00000000000E+00  0.52838852140E+03  0.52838852143E+03  0.50400000000E-02 0.  1.
          1   -1    0    0  501    0  0.00000000000E+00 -0.00000000000E+00 -0.26861295499E+04  0.26861295499E+04  0.50400000000E-02 0. -1.
    8880023    1    1    2    0    0  0.37723588584E+03  0.68043574988E+03 -0.21956189669E+04  0.24207132373E+04  0.65864270000E+03 0.  0.
    8880022    1    1    2    0    0 -0.37723588584E+03 -0.68043574988E+03  0.37877938387E+02  0.79380483402E+03  0.15294330000E+03 0.  0.
<mgrwt>
<rscale>  0 0.95731034E+03</rscale>
<asrwt>0</asrwt>
<pdfrwt beam="1">  1        1 0.41325069E+00 0.10193674E+04</pdfrwt>
<pdfrwt beam="2">  1       -1 0.81290543E-01 0.10193674E+04</pdfrwt>
<totfact> 0.15418843E+00</totfact>
</mgrwt>
</event>
<event>
 4    1  0.1521315E-007  0.1039781E+04  0.7818608E-02  0.9331268E-01
          1   -1    0    0  501    0  0.00000000000E+00  0.00000000000E+00  0.20271584009E+04  0.20271584009E+04  0.50400000000E-02 0. -1.
         -1   -1    0    0    0  501 -0.00000000000E+00 -0.00000000000E+00 -0.11629574265E+04  0.11629574265E+04  0.50400000000E-02 0.  1.
    8880023    1    1    2    0    0  0.64402184080E+03 -0.48225489919E+03  0.17172878368E+04  0.20075411926E+04  0.65864270000E+03 0. -1.
    8880022    1    1    2    0    0 -0.64402184080E+03  0.48225489919E+03 -0.85308686241E+03  0.11825746349E+04  0.15294330000E+03 0.  0.
<mgrwt>
<rscale>  0 0.97954514E+03</rscale>
<asrwt>0</asrwt>
<pdfrwt beam="1">  1        1 0.31187052E+00 0.10397808E+04</pdfrwt>
<pdfrwt beam="2">  1       -1 0.17891653E+00 0.10397808E+04</pdfrwt>
<totfact> 0.60850392E-01</totfact>
</mgrwt>
</event>
<event>
 4    1  0.1521315E-007  0.8116264E+03  0.7818608E-02  0.9686199E-01
         -1   -1    0    0    0  501 -0.00000000000E+00  0.00000000000E+00  0.12096202395E+04  0.12096202395E+04  0.50400000000E-02 0.  1.
          1   -1    0    0  501    0  0.00000000000E+00 -0.00000000000E+00 -0.72695163146E+03  0.72695163147E+03  0.50400000000E-02 0. -1.
    8880023    1    1    2    0    0  0.47368543450E+03  0.23438759678E+02 -0.41371556646E+03  0.91098739975E+03  0.65864270000E+03 0. -1.
    8880022    1    1    2    0    0 -0.47368543450E+03 -0.23438759678E+02  0.89638417447E+03  0.10255844712E+04  0.15294330000E+03 0.  0.
<mgrwt>
<rscale>  0 0.71844473E+03</rscale>
<asrwt>0</asrwt>
<pdfrwt beam="1">  1        1 0.11183871E+00 0.81162644E+03</pdfrwt>
<pdfrwt beam="2">  1       -1 0.18609542E+00 0.81162644E+03</pdfrwt>
<totfact> 0.49701990E+00</totfact>
</mgrwt>
</event>
<event>
 4    1  0.1521315E-007  0.8727781E+03  0.7818608E-02  0.9571226E-01
         -1   -1    0    0    0  501 -0.00000000000E+00  0.00000000000E+00  0.85430882241E+03  0.85430882243E+03  0.50400000000E-02 0.  1.
          1   -1    0    0  501    0  0.00000000000E+00 -0.00000000000E+00 -0.11404621309E+04  0.11404621309E+04  0.50400000000E-02 0. -1.
    8880023    1    1    2    0    0 -0.55789905542E+03 -0.12915095064E+03 -0.81964598901E+03  0.11973141099E+04  0.65864270000E+03 0. -1.
    8880022    1    1    2    0    0  0.55789905542E+03  0.12915095064E+03  0.53349268050E+03  0.79745684351E+03  0.15294330000E+03 0.  0.
<mgrwt>
<rscale>  0 0.79230278E+03</rscale>
<asrwt>0</asrwt>
<pdfrwt beam="1">  1        1 0.17545571E+00 0.87277805E+03</pdfrwt>
<pdfrwt beam="2">  1       -1 0.13143213E+00 0.87277805E+03</pdfrwt>
<totfact> 0.59409110E+00</totfact>
</mgrwt>
</event>
<event>
 4    1  0.1521315E-007  0.8973760E+03  0.7818608E-02  0.9530257E-01
         -1   -1    0    0    0  501 -0.00000000000E+00  0.00000000000E+00  0.30139562612E+03  0.30139562616E+03  0.50400000000E-02 0.  1.
          1   -1    0    0  501    0  0.00000000000E+00 -0.00000000000E+00 -0.26724402743E+04  0.26724402743E+04  0.50400000000E-02 0. -1.
    8880023    1    1    2    0    0  0.60698971178E+03 -0.55108787604E+02 -0.21109110003E+04  0.22937368955E+04  0.65864270000E+03 0. -1.
    8880022    1    1    2    0    0 -0.60698971178E+03  0.55108787604E+02 -0.26013364790E+03  0.68009900490E+03  0.15294330000E+03 0.  0.
<mgrwt>
<rscale>  0 0.82089373E+03</rscale>
<asrwt>0</asrwt>
<pdfrwt beam="1">  1        1 0.41114464E+00 0.89737601E+03</pdfrwt>
<pdfrwt beam="2">  1       -1 0.46368560E-01 0.89737601E+03</pdfrwt>
<totfact> 0.49236095E+00</totfact>
</mgrwt>
</event>
<event>
 4    1  0.1521315E-007  0.1029674E+04  0.7818608E-02  0.9343725E-01
          1   -1    0    0  501    0  0.00000000000E+00  0.00000000000E+00  0.10109432451E+04  0.10109432451E+04  0.50400000000E-02 0. -1.
         -1   -1    0    0    0  501 -0.00000000000E+00 -0.00000000000E+00 -0.92286624806E+03  0.92286624807E+03  0.50400000000E-02 0.  1.
    8880023    1    1    2    0    0  0.55321829555E+03 -0.56601083460E+03  0.34790570739E+03  0.10868612308E+04  0.65864270000E+03 0.  0.
    8880022    1    1    2    0    0 -0.55321829555E+03  0.56601083460E+03 -0.25982871039E+03  0.84694826240E+03  0.15294330000E+03 0.  0.
<mgrwt>
<rscale>  0 0.96855259E+03</rscale>
<asrwt>0</asrwt>
<pdfrwt beam="1">  1        1 0.15552973E+00 0.10296742E+04</pdfrwt>
<pdfrwt beam="2">  1       -1 0.14197942E+00 0.10296742E+04</pdfrwt>
<totfact> 0.59892313E+00</totfact>
</mgrwt>
</event>
<event>
 4    1  0.1521315E-007  0.7680908E+03  0.7818608E-02  0.9784594E-01
         -1   -1    0    0    0  501 -0.00000000000E+00  0.00000000000E+00  0.62121265947E+03  0.62121265949E+03  0.50400000000E-02 0.  1.
          1   -1    0    0  501    0  0.00000000000E+00 -0.00000000000E+00 -0.13835165396E+04  0.13835165396E+04  0.50400000000E-02 0. -1.
    8880023    1    1    2    0    0 -0.11589760244E+01  0.39516067351E+03 -0.11811509462E+04  0.14089290490E+04  0.65864270000E+03 0. -1.
    8880022    1    1    2    0    0  0.11589760244E+01 -0.39516067351E+03  0.41884706607E+03  0.59580015012E+03  0.15294330000E+03 0.  0.
<mgrwt>
<rscale>  0 0.66195898E+03</rscale>
<asrwt>0</asrwt>
<pdfrwt beam="1">  1        1 0.21284870E+00 0.76809082E+03</pdfrwt>
<pdfrwt beam="2">  1       -1 0.95571179E-01 0.76809082E+03</pdfrwt>
<totfact> 0.86263705E+00</totfact>
</mgrwt>
</event>
<event>
 4    1  0.1521315E-007  0.6891018E+03  0.7818608E-02  0.1004582E+00
          1   -1    0    0  501    0  0.00000000000E+00  0.00000000000E+00  0.15925201525E+04  0.15925201525E+04  0.50400000000E-02 0. -1.
         -1   -1    0    0    0  501 -0.00000000000E+00 -0.00000000000E+00 -0.28578606744E+03  0.28578606748E+03  0.50400000000E-02 0.  1.
    8880023    1    1    2    0    0 -0.14446120367E+03  0.14206349743E+03  0.14364798799E+04  0.15932155310E+04  0.65864270000E+03 0.  0.
    8880022    1    1    2    0    0  0.14446120367E+03 -0.14206349743E+03 -0.12974579480E+03  0.28509068900E+03  0.15294330000E+03 0.  0.
<mgrwt>
<rscale>  0 0.53685781E+03</rscale>
<asrwt>0</asrwt>
<pdfrwt beam="1">  1        1 0.24500310E+00 0.68910179E+03</pdfrwt>
<pdfrwt beam="2">  1       -1 0.43967087E-01 0.68910179E+03</pdfrwt>
<totfact> 0.30064930E+01</totfact>
</mgrwt>
</event>
<event>
 4    1  0.1521315E-007  0.9955688E+03  0.7818608E-02  0.9387378E-01
          1   -1    0    0  501    0  0.00000000000E+00  0.00000000000E+00  0.22266068844E+04  0.22266068844E+04  0.50400000000E-02 0. -1.
         -1   -1    0    0    0  501 -0.00000000000E+00 -0.00000000000E+00 -0.94887549357E+03  0.94887549358E+03  0.50400000000E-02 0.  1.
    8880023    1    1    2    0    0 -0.56100286641E+03  0.49256766961E+03  0.19304821315E+04  0.21720770224E+04  0.65864270000E+03 0.  0.
    8880022    1    1    2    0    0  0.56100286641E+03 -0.49256766961E+03 -0.65275074059E+03  0.10034053556E+04  0.15294330000E+03 0.  0.
<mgrwt>
<rscale>  0 0.93121739E+03</rscale>
<asrwt>0</asrwt>
<pdfrwt beam="1">  1        1 0.34255491E+00 0.99556885E+03</pdfrwt>
<pdfrwt beam="2">  1       -1 0.14598084E+00 0.99556885E+03</pdfrwt>
<totfact> 0.79577511E-01</totfact>
</mgrwt>
</event>
<event>
 4    1  0.1521315E-007  0.9216207E+03  0.7818608E-02  0.9492178E-01
          1   -1    0    0  501    0  0.00000000000E+00  0.00000000000E+00  0.17360484254E+04  0.17360484254E+04  0.50400000000E-02 0. -1.
         -1   -1    0    0    0  501 -0.00000000000E+00 -0.00000000000E+00 -0.39479445633E+03  0.39479445636E+03  0.50400000000E-02 0.  1.
    8880023    1    1    2    0    0  0.59479266892E+03 -0.24858836291E+03  0.10771044256E+04  0.14175819705E+04  0.65864270000E+03 0.  1.
    8880022    1    1    2    0    0 -0.59479266892E+03  0.24858836291E+03  0.26414954342E+03  0.71326091122E+03  0.15294330000E+03 0.  0.
<mgrwt>
<rscale>  0 0.84862934E+03</rscale>
<asrwt>0</asrwt>
<pdfrwt beam="1">  1        1 0.26708437E+00 0.92162069E+03</pdfrwt>
<pdfrwt beam="2">  1       -1 0.60737608E-01 0.92162069E+03</pdfrwt>
<totfact> 0.12592754E+01</totfact>
</mgrwt>
</event>
<event>
 4    1  0.1521315E-007  0.7360869E+03  0.7818608E-02  0.9871496E-01
         -1   -1    0    0    0  501 -0.00000000000E+00  0.00000000000E+00  0.10442415830E+04  0.10442415831E+04  0.50400000000E-02 0.  1.
          1   -1    0    0  501    0  0.00000000000E+00 -0.00000000000E+00 -0.80963143343E+03  0.80963143345E+03  0.50400000000E-02 0. -1.
    8880023    1    1    2    0    0 -0.16805507883E+03  0.28243804325E+03 -0.59631357707E+03  0.94731929478E+03  0.65864270000E+03 0. -1.
    8880022    1    1    2    0    0  0.16805507883E+03 -0.28243804325E+03  0.83092372669E+03  0.90655372173E+03  0.15294330000E+03 0.  0.
<mgrwt>
<rscale>  0 0.61662835E+03</rscale>
<asrwt>0</asrwt>
<pdfrwt beam="1">  1        1 0.12455868E+00 0.73608693E+03</pdfrwt>
<pdfrwt beam="2">  1       -1 0.16065255E+00 0.73608693E+03</pdfrwt>
<totfact> 0.64917693E+00</totfact>
</mgrwt>
</event>
<event>
 4    1  0.1521315E-007  0.1017459E+04  0.7818608E-02  0.9359064E-01
         -1   -1    0    0    0  501 -0.00000000000E+00  0.00000000000E+00  0.18149104777E+04  0.18149104777E+04  0.50400000000E-02 0.  1.
          1   -1    0    0  501    0  0.00000000000E+00 -0.00000000000E+00 -0.61122224152E+03  0.61122224154E+03  0.50400000000E-02 0. -1.
    8880023    1    1    2    0    0  0.72240915770E+03 -0.28202455355E+03  0.38570917755E+02  0.10181899439E+04  0.65864270000E+03 0. -1.
    8880022    1    1    2    0    0 -0.72240915770E+03  0.28202455355E+03  0.11651173185E+04  0.14079427754E+04  0.15294330000E+03 0.  0.
<mgrwt>
<rscale>  0 0.95522514E+03</rscale>
<asrwt>0</asrwt>
<pdfrwt beam="1">  1        1 0.94034193E-01 0.10174591E+04</pdfrwt>
<pdfrwt beam="2">  1       -1 0.27921699E+00 0.10174591E+04</pdfrwt>
<totfact> 0.15150138E+00</totfact>
</mgrwt>
</event>
<event>
 4    1  0.1521315E-007  0.9011241E+03  0.7818608E-02  0.9524229E-01
          1   -1    0    0  501    0  0.00000000000E+00  0.00000000000E+00  0.92378907792E+03  0.92378907794E+03  0.50400000000E-02 0. -1.
         -1   -1    0    0    0  501 -0.00000000000E+00 -0.00000000000E+00 -0.85063489335E+03  0.85063489336E+03  0.50400000000E-02 0.  1.
    8880023    1    1    2    0    0 -0.42735306239E+03 -0.44224858234E+03  0.48034817280E+03  0.10211557285E+04  0.65864270000E+03 0.  0.
    8880022    1    1    2    0    0  0.42735306239E+03  0.44224858234E+03 -0.40719398822E+03  0.75326824278E+03  0.15294330000E+03 0.  0.
<mgrwt>
<rscale>  0 0.82520812E+03</rscale>
<asrwt>0</asrwt>
<pdfrwt beam="1">  1        1 0.14212140E+00 0.90112411E+03</pdfrwt>
<pdfrwt beam="2">  1       -1 0.13086691E+00 0.90112411E+03</pdfrwt>
<totfact> 0.87911744E+00</totfact>
</mgrwt>
</event>
<event>
 4    1  0.1521315E-007  0.1003432E+04  0.7818608E-02  0.9377082E-01
         -1   -1    0    0    0  501 -0.00000000000E+00  0.00000000000E+00  0.14174556852E+04  0.14174556852E+04  0.50400000000E-02 0.  1.
          1   -1    0    0  501    0  0.00000000000E+00 -0.00000000000E+00 -0.66502285495E+03  0.66502285497E+03  0.50400000000E-02 0. -1.
    8880023    1    1    2    0    0  0.73752347412E+02 -0.75340910530E+03 -0.11483705933E+01  0.10034322168E+04  0.65864270000E+03 0.  0.
    8880022    1    1    2    0    0 -0.73752347412E+02  0.75340910530E+03  0.75358120082E+03  0.10790463233E+04  0.15294330000E+03 0.  0.
<mgrwt>
<rscale>  0 0.93985996E+03</rscale>
<asrwt>0</asrwt>
<pdfrwt beam="1">  1        1 0.10231121E+00 0.10034316E+04</pdfrwt>
<pdfrwt beam="2">  1       -1 0.21807011E+00 0.10034316E+04</pdfrwt>
<totfact> 0.33540488E+00</totfact>
</mgrwt>
</event>
<event>
 4    1  0.1521315E-007  0.8677506E+03  0.7818608E-02  0.9579923E-01
         -1   -1    0    0    0  501 -0.00000000000E+00  0.00000000000E+00  0.76634258796E+03  0.76634258798E+03  0.50400000000E-02 0.  1.
          1   -1    0    0  501    0  0.00000000000E+00 -0.00000000000E+00 -0.13350866302E+04  0.13350866302E+04  0.50400000000E-02 0. -1.
    8880023    1    1    2    0    0  0.41283578754E+03 -0.38567794769E+03 -0.10367867435E+04  0.13520051126E+04  0.65864270000E+03 0.  0.
    8880022    1    1    2    0    0 -0.41283578754E+03  0.38567794769E+03  0.46804270125E+03  0.74942410557E+03  0.15294330000E+03 0.  0.
<mgrwt>
<rscale>  0 0.78639411E+03</rscale>
<asrwt>0</asrwt>
<pdfrwt beam="1">  1        1 0.20539794E+00 0.86775058E+03</pdfrwt>
<pdfrwt beam="2">  1       -1 0.11789886E+00 0.86775058E+03</pdfrwt>
<totfact> 0.56359052E+00</totfact>
</mgrwt>
</event>
<event>
 4    1  0.1521315E-007  0.7631676E+03  0.7818608E-02  0.9796975E-01
         -1   -1    0    0    0  501 -0.00000000000E+00  0.00000000000E+00  0.39362043651E+03  0.39362043654E+03  0.50400000000E-02 0.  1.
          1   -1    0    0  501    0  0.00000000000E+00 -0.00000000000E+00 -0.92784009915E+03  0.92784009917E+03  0.50400000000E-02 0. -1.
    8880023    1    1    2    0    0  0.23775673794E+03 -0.30345736804E+03 -0.48397766255E+03  0.90369199663E+03  0.65864270000E+03 0.  0.
    8880022    1    1    2    0    0 -0.23775673794E+03  0.30345736804E+03 -0.50242000096E+02  0.41776853908E+03  0.15294330000E+03 0.  0.
<mgrwt>
<rscale>  0 0.65525147E+03</rscale>
<asrwt>0</asrwt>
<pdfrwt beam="1">  1        1 0.14274463E+00 0.76316764E+03</pdfrwt>
<pdfrwt beam="2">  1       -1 0.60556991E-01 0.76316764E+03</pdfrwt>
<totfact> 0.48829968E+01</totfact>
</mgrwt>
</event>
<event>
 4    1  0.1521315E-007  0.6842977E+03  0.7818608E-02  0.1006990E+00
         -1   -1    0    0    0  501 -0.00000000000E+00  0.00000000000E+00  0.84403598636E+03  0.84403598638E+03  0.50400000000E-02 0.  1.
          1   -1    0    0  501    0  0.00000000000E+00 -0.00000000000E+00 -0.66782804263E+03  0.66782804265E+03  0.50400000000E-02 0. -1.
    8880023    1    1    2    0    0  0.27688205984E+02 -0.18353884280E+03 -0.46479689737E+03  0.82722397550E+03  0.65864270000E+03 0. -1.
    8880022    1    1    2    0    0 -0.27688205984E+02  0.18353884280E+03  0.64100484110E+03  0.68464005353E+03  0.15294330000E+03 0.  0.
<mgrwt>
<rscale>  0 0.52688623E+03</rscale>
<asrwt>0</asrwt>
<pdfrwt beam="1">  1        1 0.10274278E+00 0.68429771E+03</pdfrwt>
<pdfrwt beam="2">  1       -1 0.12985169E+00 0.68429771E+03</pdfrwt>
<totfact> 0.15421678E+01</totfact>
</mgrwt>
</event>
<event>
 4    1  0.1521315E-007  0.7219924E+03  0.7818608E-02  0.9915901E-01
         -1   -1    0    0    0  501 -0.00000000000E+00  0.00000000000E+00  0.27673191722E+03  0.27673191727E+03  0.50400000000E-02 0.  1.
          1   -1    0    0  501    0  0.00000000000E+00 -0.00000000000E+00 -0.20706763227E+04  0.20706763227E+04  0.50400000000E-02 0. -1.
    8880023    1    1    2    0    0  0.29244040505E+03  0.44061239557E+02 -0.18711629292E+04  0.20056230197E+04  0.65864270000E+03 0. -1.
    8880022    1    1    2    0    0 -0.29244040505E+03 -0.44061239557E+02  0.77218523755E+02  0.34178522022E+03  0.15294330000E+03 0.  0.
<mgrwt>
<rscale>  0 0.59496798E+03</rscale>
<asrwt>0</asrwt>
<pdfrwt beam="1">  1        1 0.31856558E+00 0.72199238E+03</pdfrwt>
<pdfrwt beam="2">  1       -1 0.42574142E-01 0.72199238E+03</pdfrwt>
<totfact> 0.15187472E+01</totfact>
</mgrwt>
</event>
<event>
 4    1  0.1521315E-007  0.1242489E+04  0.7818608E-02  0.9116887E-01
          1   -1    0    0  501    0  0.00000000000E+00  0.00000000000E+00  0.10733657987E+04  0.10733657987E+04  0.50400000000E-02 0. -1.
         -1   -1    0    0    0  501 -0.00000000000E+00 -0.00000000000E+00 -0.16446571003E+04  0.16446571003E+04  0.50400000000E-02 0.  1.
    8880023    1    1    2    0    0 -0.62272291598E+03 -0.84981446101E+03  0.37059145223E+03  0.12965788364E+04  0.65864270000E+03 0. -1.
    8880022    1    1    2    0    0  0.62272291598E+03  0.84981446101E+03 -0.94188275387E+03  0.14214440627E+04  0.15294330000E+03 0.  1.
<mgrwt>
<rscale>  0 0.11954059E+04</rscale>
<asrwt>0</asrwt>
<pdfrwt beam="1">  1        1 0.16513320E+00 0.12424889E+04</pdfrwt>
<pdfrwt beam="2">  1       -1 0.25302417E+00 0.12424889E+04</pdfrwt>
<totfact> 0.86439772E-01</totfact>
</mgrwt>
</event>
<event>
 4    1  0.1521315E-007  0.8193670E+03  0.7818608E-02  0.9670386E-01
         -1   -1    0    0    0  501 -0.00000000000E+00  0.00000000000E+00  0.23942517580E+03  0.23942517585E+03  0.50400000000E-02 0.  1.
          1   -1    0    0  501    0  0.00000000000E+00 -0.00000000000E+00 -0.21502599069E+04  0.21502599069E+04  0.50400000000E-02 0. -1.
    8880023    1    1    2    0    0 -0.15177276541E+03 -0.46315998737E+03 -0.15836454163E+04  0.17830578109E+04  0.65864270000E+03 0.  0.
    8880022    1    1    2    0    0  0.15177276541E+03  0.46315998737E+03 -0.32718931481E+03  0.60662727186E+03  0.15294330000E+03 0.  0.
<mgrwt>
<rscale>  0 0.72807688E+03</rscale>
<asrwt>0</asrwt>
<pdfrwt beam="1">  1        1 0.33080920E+00 0.81936704E+03</pdfrwt>
<pdfrwt beam="2">  1       -1 0.36834644E-01 0.81936704E+03</pdfrwt>
<totfact> 0.17235824E+01</totfact>
</mgrwt>
</event>
<event>
 4    1  0.1521315E-007  0.6749245E+03  0.7818608E-02  0.1012354E+00
          1   -1    0    0  501    0  0.00000000000E+00  0.00000000000E+00  0.10972073456E+04  0.10972073456E+04  0.50400000000E-02 0. -1.
         -1   -1    0    0    0  501 -0.00000000000E+00 -0.00000000000E+00 -0.33158408639E+03  0.33158408642E+03  0.50400000000E-02 0.  1.
    8880023    1    1    2    0    0  0.70879400456E+02  0.12918604367E+03  0.93777886030E+03  0.11554013677E+04  0.65864270000E+03 0. -1.
    8880022    1    1    2    0    0 -0.70879400456E+02 -0.12918604367E+03 -0.17215560110E+03  0.27339006437E+03  0.15294330000E+03 0.  1.
<mgrwt>
<rscale>  0 0.50549747E+03</rscale>
<asrwt>0</asrwt>
<pdfrwt beam="1">  1        1 0.16880113E+00 0.67492454E+03</pdfrwt>
<pdfrwt beam="2">  1       -1 0.51012937E-01 0.67492454E+03</pdfrwt>
<totfact> 0.50832912E+01</totfact>
</mgrwt>
</event>
<event>
 4    1  0.1521315E-007  0.8420453E+03  0.7818608E-02  0.9626336E-01
         -1   -1    0    0    0  501 -0.00000000000E+00  0.00000000000E+00  0.70097296124E+03  0.70097296125E+03  0.50400000000E-02 0.  1.
          1   -1    0    0  501    0  0.00000000000E+00 -0.00000000000E+00 -0.20312943786E+04  0.20312943786E+04  0.50400000000E-02 0. -1.
    8880023    1    1    2    0    0 -0.19551910046E+03  0.48682887545E+03 -0.18156469620E+04  0.20014030502E+04  0.65864270000E+03 0. -1.
    8880022    1    1    2    0    0  0.19551910046E+03 -0.48682887545E+03  0.48532554461E+03  0.73086428965E+03  0.15294330000E+03 0.  0.
<mgrwt>
<rscale>  0 0.75577368E+03</rscale>
<asrwt>0</asrwt>
<pdfrwt beam="1">  1        1 0.31250683E+00 0.84204530E+03</pdfrwt>
<pdfrwt beam="2">  1       -1 0.10784199E+00 0.84204530E+03</pdfrwt>
<totfact> 0.23526172E+00</totfact>
</mgrwt>
</event>
<event>
 4    1  0.1521315E-007  0.1131297E+04  0.7818608E-02  0.9226985E-01
          1   -1    0    0  501    0  0.00000000000E+00  0.00000000000E+00  0.88830864399E+03  0.88830864400E+03  0.50400000000E-02 0. -1.
         -1   -1    0    0    0  501 -0.00000000000E+00 -0.00000000000E+00 -0.14168814860E+04  0.14168814860E+04  0.50400000000E-02 0.  1.
    8880023    1    1    2    0    0 -0.26204765567E+03 -0.88167717233E+03  0.16477204137E+03  0.11432338527E+04  0.65864270000E+03 0.  0.
    8880022    1    1    2    0    0  0.26204765567E+03  0.88167717233E+03 -0.69334488337E+03  0.11619562773E+04  0.15294330000E+03 0.  0.
<mgrwt>
<rscale>  0 0.10779187E+04</rscale>
<asrwt>0</asrwt>
<pdfrwt beam="1">  1        1 0.13666287E+00 0.11312974E+04</pdfrwt>
<pdfrwt beam="2">  1       -1 0.21798177E+00 0.11312974E+04</pdfrwt>
<totfact> 0.20901318E+00</totfact>
</mgrwt>
</event>
<event>
 4    1  0.2868434E-007  0.7215594E+03  0.7818608E-02  0.9917344E-01
         -1   -1    0    0    0  501 -0.00000000000E+00  0.00000000000E+00  0.14285248370E+04  0.14285248370E+04  0.50400000000E-02 0.  1.
          1   -1    0    0  501    0  0.00000000000E+00 -0.00000000000E+00 -0.24180336600E+04  0.24180336600E+04  0.50400000000E-02 0. -1.
    8880023    1    1    2    0    0  0.22334687714E+03  0.19223403134E+03 -0.23437011133E+04  0.24522607661E+04  0.65864270000E+03 0. -1.
    8880022    1    1    2    0    0 -0.22334687714E+03 -0.19223403134E+03  0.13541922902E+04  0.13942977309E+04  0.15294330000E+03 0.  0.
<mgrwt>
<rscale>  0 0.59428018E+03</rscale>
<asrwt>0</asrwt>
<pdfrwt beam="1">  1        1 0.37200518E+00 0.72155939E+03</pdfrwt>
<pdfrwt beam="2">  1       -1 0.21977305E+00 0.72155939E+03</pdfrwt>
<totfact> 0.18541890E-01</totfact>
</mgrwt>
</event>
<event>
 4    1  0.3177393E-007  0.6989505E+03  0.7818608E-02  0.1000158E+00
          1   -1    0    0  501    0  0.00000000000E+00  0.00000000000E+00  0.15000542947E+04  0.15000542948E+04  0.50400000000E-02 0. -1.
         -1   -1    0    0    0  501 -0.00000000000E+00 -0.00000000000E+00 -0.18616053967E+04  0.18616053967E+04  0.50400000000E-02 0.  1.
    8880023    1    1    2    0    0 -0.12574477960E+02  0.23358835103E+03  0.14070617477E+04  0.15710998069E+04  0.65864270000E+03 0. -1.
    8880022    1    1    2    0    0  0.12574477960E+02 -0.23358835103E+03 -0.17686128496E+04  0.17905598846E+04  0.15294330000E+03 0.  0.
<mgrwt>
<rscale>  0 0.55580883E+03</rscale>
<asrwt>0</asrwt>
<pdfrwt beam="1">  1        1 0.23077758E+00 0.69895053E+03</pdfrwt>
<pdfrwt beam="2">  1       -1 0.28640083E+00 0.69895053E+03</pdfrwt>
<totfact> 0.28664052E-01</totfact>
</mgrwt>
</event>
<event>
 4    1  0.1521315E-007  0.6992686E+03  0.7818608E-02  0.1000025E+00
         -1   -1    0    0    0  501 -0.00000000000E+00  0.00000000000E+00  0.33193697713E+03  0.33193697716E+03  0.50400000000E-02 0.  1.
          1   -1    0    0  501    0  0.00000000000E+00 -0.00000000000E+00 -0.14395265802E+04  0.14395265802E+04  0.50400000000E-02 0. -1.
    8880023    1    1    2    0    0 -0.15364673867E+03  0.17764871070E+03 -0.12683578753E+04  0.14483467440E+04  0.65864270000E+03 0. -1.
    8880022    1    1    2    0    0  0.15364673867E+03 -0.17764871070E+03  0.16076827223E+03  0.32311681338E+03  0.15294330000E+03 0.  0.
<mgrwt>
<rscale>  0 0.55639325E+03</rscale>
<asrwt>0</asrwt>
<pdfrwt beam="1">  1        1 0.22146563E+00 0.69926861E+03</pdfrwt>
<pdfrwt beam="2">  1       -1 0.51067228E-01 0.69926861E+03</pdfrwt>
<totfact> 0.28848334E+01</totfact>
</mgrwt>
</event>
<event>
 4    1  0.1521315E-007  0.1757242E+04  0.7818608E-02  0.8746565E-01
         -1   -1    0    0    0  501 -0.00000000000E+00  0.00000000000E+00  0.35350704291E+04  0.35350704291E+04  0.50400000000E-02 0.  1.
          1   -1    0    0  501    0  0.00000000000E+00 -0.00000000000E+00 -0.91651874536E+03  0.91651874538E+03  0.50400000000E-02 0. -1.
    8880023    1    1    2    0    0  0.14384721357E+04  0.76477967355E+03  0.20932071904E+04  0.27330233410E+04  0.65864270000E+03 0.  0.
    8880022    1    1    2    0    0 -0.14384721357E+04 -0.76477967355E+03  0.52534449331E+03  0.17185658335E+04  0.15294330000E+03 0.  0.
<mgrwt>
<rscale>  0 0.17261937E+04</rscale>
<asrwt>0</asrwt>
<pdfrwt beam="1">  1        1 0.14100288E+00 0.17572422E+04</pdfrwt>
<pdfrwt beam="2">  1       -1 0.54385699E+00 0.17572422E+04</pdfrwt>
<totfact> 0.13006989E-02</totfact>
</mgrwt>
</event>
<event>
 4    1  0.1521315E-007  0.1525510E+04  0.7818608E-02  0.8891830E-01
          1   -1    0    0  501    0  0.00000000000E+00  0.00000000000E+00  0.37863276626E+04  0.37863276626E+04  0.50400000000E-02 0. -1.
         -1   -1    0    0    0  501 -0.00000000000E+00 -0.00000000000E+00 -0.96286273671E+03  0.96286273672E+03  0.50400000000E-02 0.  1.
    8880023    1    1    2    0    0 -0.86594097975E+03 -0.10693530587E+04 -0.85151735385E+02  0.15278844095E+04  0.65864270000E+03 0.  0.
    8880022    1    1    2    0    0  0.86594097975E+03  0.10693530587E+04  0.29086166612E+04  0.32213059898E+04  0.15294330000E+03 0.  0.
<mgrwt>
<rscale>  0 0.14889573E+04</rscale>
<asrwt>0</asrwt>
<pdfrwt beam="1">  1        1 0.58251194E+00 0.15255097E+04</pdfrwt>
<pdfrwt beam="2">  1       -1 0.14813273E+00 0.15255097E+04</pdfrwt>
<totfact> 0.50490597E-02</totfact>
</mgrwt>
</event>
<event>
 4    1  0.1521315E-007  0.7184075E+03  0.7818608E-02  0.9928012E-01
          1   -1    0    0  501    0  0.00000000000E+00  0.00000000000E+00  0.20746165319E+04  0.20746165319E+04  0.50400000000E-02 0. -1.
         -1   -1    0    0    0  501 -0.00000000000E+00 -0.00000000000E+00 -0.37895642980E+03  0.37895642984E+03  0.50400000000E-02 0.  1.
    8880023    1    1    2    0    0  0.15305114627E+03  0.24264053772E+03  0.19256825854E+04  0.20553254511E+04  0.65864270000E+03 0. -1.
    8880022    1    1    2    0    0 -0.15305114627E+03 -0.24264053772E+03 -0.23002248329E+03  0.39824751067E+03  0.15294330000E+03 0.  0.
<mgrwt>
<rscale>  0 0.58922714E+03</rscale>
<asrwt>0</asrwt>
<pdfrwt beam="1">  1        1 0.31917178E+00 0.71840747E+03</pdfrwt>
<pdfrwt beam="2">  1       -1 0.58300989E-01 0.71840747E+03</pdfrwt>
<totfact> 0.83296892E+00</totfact>
</mgrwt>
</event>
<event>
 4    1  0.1521315E-007  0.6772393E+03  0.7818608E-02  0.1010930E+00
          1   -1    0    0  501    0  0.00000000000E+00  0.00000000000E+00  0.14056958360E+04  0.14056958360E+04  0.50400000000E-02 0. -1.
         -1   -1    0    0    0  501 -0.00000000000E+00 -0.00000000000E+00 -0.14746940401E+03  0.14746940409E+03  0.50400000000E-02 0.  1.
    8880023    1    1    2    0    0 -0.12609652234E+03 -0.94565308921E+02  0.10566726512E+04  0.12550737941E+04  0.65864270000E+03 0. -1.
    8880022    1    1    2    0    0  0.12609652234E+03  0.94565308921E+02  0.20155378073E+03  0.29809144593E+03  0.15294330000E+03 0.  1.
<mgrwt>
<rscale>  0 0.51106537E+03</rscale>
<asrwt>0</asrwt>
<pdfrwt beam="1">  1        1 0.21626089E+00 0.67723935E+03</pdfrwt>
<pdfrwt beam="2">  1       -1 0.22687601E-01 0.67723935E+03</pdfrwt>
<totfact> 0.12914724E+02</totfact>
</mgrwt>
</event>
<event>
 4    1  0.1521315E-007  0.7506824E+03  0.7818608E-02  0.9829856E-01
         -1   -1    0    0    0  501 -0.00000000000E+00  0.00000000000E+00  0.47327351018E+03  0.47327351021E+03  0.50400000000E-02 0.  1.
          1   -1    0    0  501    0  0.00000000000E+00 -0.00000000000E+00 -0.82364532833E+03  0.82364532835E+03  0.50400000000E-02 0. -1.
    8880023    1    1    2    0    0 -0.13548330368E+03 -0.33370367319E+03 -0.47251087900E+03  0.88701217811E+03  0.65864270000E+03 0. -1.
    8880022    1    1    2    0    0  0.13548330368E+03  0.33370367319E+03  0.12213906085E+03  0.40990666045E+03  0.15294330000E+03 0.  0.
<mgrwt>
<rscale>  0 0.63784629E+03</rscale>
<asrwt>0</asrwt>
<pdfrwt beam="1">  1        1 0.12671467E+00 0.75068241E+03</pdfrwt>
<pdfrwt beam="2">  1       -1 0.72811310E-01 0.75068241E+03</pdfrwt>
<totfact> 0.41075185E+01</totfact>
</mgrwt>
</event>
<event>
 4    1  0.1521315E-007  0.7613912E+03  0.7818608E-02  0.9801519E-01
          1   -1    0    0  501    0  0.00000000000E+00  0.00000000000E+00  0.33505263496E+03  0.33505263500E+03  0.50400000000E-02 0. -1.
         -1   -1    0    0    0  501 -0.00000000000E+00 -0.00000000000E+00 -0.15801217815E+04  0.15801217815E+04  0.50400000000E-02 0.  1.
    8880023    1    1    2    0    0 -0.38068317437E+03  0.31411463258E+02 -0.19294767828E+03  0.78545870171E+03  0.65864270000E+03 0.  0.
    8880022    1    1    2    0    0  0.38068317437E+03 -0.31411463258E+02 -0.10521214683E+04  0.11297157148E+04  0.15294330000E+03 0.  0.
<mgrwt>
<rscale>  0 0.65281086E+03</rscale>
<asrwt>0</asrwt>
<pdfrwt beam="1">  1        1 0.51546560E-01 0.76139120E+03</pdfrwt>
<pdfrwt beam="2">  1       -1 0.24309565E+00 0.76139120E+03</pdfrwt>
<totfact> 0.60800988E+00</totfact>
</mgrwt>
</event>
<event>
 4    1  0.1521315E-007  0.7389042E+03  0.7818608E-02  0.9863151E-01
          1   -1    0    0  501    0  0.00000000000E+00  0.00000000000E+00  0.17781578702E+03  0.17781578709E+03  0.50400000000E-02 0. -1.
         -1   -1    0    0    0  501 -0.00000000000E+00 -0.00000000000E+00 -0.20872478399E+04  0.20872478399E+04  0.50400000000E-02 0.  1.
    8880023    1    1    2    0    0  0.93721954747E+02  0.32153606937E+03 -0.76809525121E+03  0.10658094435E+04  0.65864270000E+03 0. -1.
    8880022    1    1    2    0    0 -0.93721954747E+02 -0.32153606937E+03 -0.11413368016E+04  0.11992541834E+04  0.15294330000E+03 0.  1.
<mgrwt>
<rscale>  0 0.62080888E+03</rscale>
<asrwt>0</asrwt>
<pdfrwt beam="1">  1        1 0.27356276E-01 0.73890423E+03</pdfrwt>
<pdfrwt beam="2">  1       -1 0.32111504E+00 0.73890423E+03</pdfrwt>
<totfact> 0.43860095E+00</totfact>
</mgrwt>
</event>
<event>
 4    1  0.1521315E-007  0.1088461E+04  0.7818608E-02  0.9274014E-01
         -1   -1    0    0    0  501 -0.00000000000E+00  0.00000000000E+00  0.80311724732E+03  0.80311724733E+03  0.50400000000E-02 0.  1.
          1   -1    0    0  501    0  0.00000000000E+00 -0.00000000000E+00 -0.13848206672E+04  0.13848206672E+04  0.50400000000E-02 0. -1.
    8880023    1    1    2    0    0 -0.75901383449E+03  0.41813235711E+03  0.73352904214E+02  0.10909296604E+04  0.65864270000E+03 0.  0.
    8880022    1    1    2    0    0  0.75901383449E+03 -0.41813235711E+03 -0.65505632410E+03  0.10970082542E+04  0.15294330000E+03 0.  0.
<mgrwt>
<rscale>  0 0.10321082E+04</rscale>
<asrwt>0</asrwt>
<pdfrwt beam="1">  1        1 0.21304933E+00 0.10884608E+04</pdfrwt>
<pdfrwt beam="2">  1       -1 0.12355650E+00 0.10884608E+04</pdfrwt>
<totfact> 0.45094290E+00</totfact>
</mgrwt>
</event>
<event>
 4    1  0.1521315E-007  0.6775956E+03  0.7818608E-02  0.1010718E+00
         -1   -1    0    0    0  501 -0.00000000000E+00  0.00000000000E+00  0.21656994943E+03  0.21656994949E+03  0.50400000000E-02 0.  1.
          1   -1    0    0  501    0  0.00000000000E+00 -0.00000000000E+00 -0.97508046227E+03  0.97508046228E+03  0.50400000000E-02 0. -1.
    8880023    1    1    2    0    0 -0.14836864524E+03 -0.57552347552E+02 -0.67278036555E+03  0.95486603989E+03  0.65864270000E+03 0.  0.
    8880022    1    1    2    0    0  0.14836864524E+03  0.57552347552E+02 -0.85730147293E+02  0.23678437189E+03  0.15294330000E+03 0.  0.
<mgrwt>
<rscale>  0 0.51190359E+03</rscale>
<asrwt>0</asrwt>
<pdfrwt beam="1">  1        1 0.15001238E+00 0.67759555E+03</pdfrwt>
<pdfrwt beam="2">  1       -1 0.33318454E-01 0.67759555E+03</pdfrwt>
<totfact> 0.13712265E+02</totfact>
</mgrwt>
</event>
<event>
 4    1  0.1521315E-007  0.6957110E+03  0.7818608E-02  0.1001548E+00
         -1   -1    0    0    0  501 -0.00000000000E+00  0.00000000000E+00  0.48968146141E+03  0.48968146143E+03  0.50400000000E-02 0.  1.
          1   -1    0    0  501    0  0.00000000000E+00 -0.00000000000E+00 -0.67943317247E+03  0.67943317249E+03  0.50400000000E-02 0. -1.
    8880023    1    1    2    0    0  0.16171100997E+03 -0.15509095553E+03 -0.42054414924E+03  0.81293987659E+03  0.65864270000E+03 0.  0.
    8880022    1    1    2    0    0 -0.16171100997E+03  0.15509095553E+03  0.23079243817E+03  0.35617475734E+03  0.15294330000E+03 0.  0.
<mgrwt>
<rscale>  0 0.54976608E+03</rscale>
<asrwt>0</asrwt>
<pdfrwt beam="1">  1        1 0.10452818E+00 0.69571105E+03</pdfrwt>
<pdfrwt beam="2">  1       -1 0.75335610E-01 0.69571105E+03</pdfrwt>
<totfact> 0.51858804E+01</totfact>
</mgrwt>
</event>
<event>
 4    1  0.1521315E-007  0.7003427E+03  0.7818608E-02  0.9995783E-01
          1   -1    0    0  501    0  0.00000000000E+00  0.00000000000E+00  0.30188144080E+04  0.30188144080E+04  0.50400000000E-02 0. -1.
         -1   -1    0    0    0  501 -0.00000000000E+00 -0.00000000000E+00 -0.20260994168E+03  0.20260994174E+03  0.50400000000E-02 0.  1.
    8880023    1    1    2    0    0 -0.23320312731E+03 -0.47811603813E+02  0.28515327272E+04  0.29362763406E+04  0.65864270000E+03 0. -1.
    8880022    1    1    2    0    0  0.23320312731E+03  0.47811603813E+02 -0.35328260908E+02  0.28514800908E+03  0.15294330000E+03 0.  0.
<mgrwt>
<rscale>  0 0.55835546E+03</rscale>
<asrwt>0</asrwt>
<pdfrwt beam="1">  1        1 0.46443300E+00 0.70034267E+03</pdfrwt>
<pdfrwt beam="2">  1       -1 0.31170760E-01 0.70034267E+03</pdfrwt>
<totfact> 0.59465857E+00</totfact>
</mgrwt>
</event>
<event>
 4    1  0.1521315E-007  0.9643991E+03  0.7818608E-02  0.9429693E-01
         -1   -1    0    0    0  501 -0.00000000000E+00  0.00000000000E+00  0.49903899597E+03  0.49903899599E+03  0.50400000000E-02 0.  1.
          1   -1    0    0  501    0  0.00000000000E+00 -0.00000000000E+00 -0.27084906312E+04  0.27084906312E+04  0.50400000000E-02 0. -1.
    8880023    1    1    2    0    0  0.37086483630E+03 -0.59892792024E+03 -0.22874691973E+04  0.24824546149E+04  0.65864270000E+03 0. -1.
    8880022    1    1    2    0    0 -0.37086483630E+03  0.59892792024E+03  0.78017562016E+02  0.72507501229E+03  0.15294330000E+03 0.  0.
<mgrwt>
<rscale>  0 0.89671854E+03</rscale>
<asrwt>0</asrwt>
<pdfrwt beam="1">  1        1 0.41669086E+00 0.96439908E+03</pdfrwt>
<pdfrwt beam="2">  1       -1 0.76775232E-01 0.96439908E+03</pdfrwt>
<totfact> 0.16940609E+00</totfact>
</mgrwt>
</event>
<event>
 4    1  0.1521315E-007  0.7059418E+03  0.7818608E-02  0.9973391E-01
         -1   -1    0    0    0  501 -0.00000000000E+00  0.00000000000E+00  0.94816602613E+03  0.94816602615E+03  0.50400000000E-02 0.  1.
          1   -1    0    0  501    0  0.00000000000E+00 -0.00000000000E+00 -0.59920028220E+03  0.59920028222E+03  0.50400000000E-02 0. -1.
    8880023    1    1    2    0    0 -0.25320848662E+03  0.20714811021E+02 -0.35011369696E+03  0.78799330464E+03  0.65864270000E+03 0. -1.
    8880022    1    1    2    0    0  0.25320848662E+03 -0.20714811021E+02  0.69907944089E+03  0.75937300373E+03  0.15294330000E+03 0.  0.
<mgrwt>
<rscale>  0 0.56832542E+03</rscale>
<asrwt>0</asrwt>
<pdfrwt beam="1">  1        1 0.92184660E-01 0.70594182E+03</pdfrwt>
<pdfrwt beam="2">  1       -1 0.14587170E+00 0.70594182E+03</pdfrwt>
<totfact> 0.13346505E+01</totfact>
</mgrwt>
</event>
<event>
 4    1  0.1521315E-007  0.8983311E+03  0.7818608E-02  0.9528716E-01
         -1   -1    0    0    0  501 -0.00000000000E+00  0.00000000000E+00  0.29379216095E+03  0.29379216100E+03  0.50400000000E-02 0.  1.
          1   -1    0    0  501    0  0.00000000000E+00 -0.00000000000E+00 -0.29025711600E+04  0.29025711600E+04  0.50400000000E-02 0. -1.
    8880023    1    1    2    0    0 -0.54778337880E+03 -0.27041081166E+03 -0.23494057775E+04  0.25152944859E+04  0.65864270000E+03 0.  0.
    8880022    1    1    2    0    0  0.54778337880E+03  0.27041081166E+03 -0.25937322163E+03  0.68106883519E+03  0.15294330000E+03 0.  0.
<mgrwt>
<rscale>  0 0.82199416E+03</rscale>
<asrwt>0</asrwt>
<pdfrwt beam="1">  1        1 0.44654939E+00 0.89833114E+03</pdfrwt>
<pdfrwt beam="2">  1       -1 0.45198796E-01 0.89833114E+03</pdfrwt>
<totfact> 0.35576357E+00</totfact>
</mgrwt>
</event>
<event>
 4    1  0.1521315E-007  0.7801824E+03  0.7818608E-02  0.9755409E-01
          1   -1    0    0  501    0  0.00000000000E+00  0.00000000000E+00  0.44264188217E+03  0.44264188220E+03  0.50400000000E-02 0. -1.
         -1   -1    0    0    0  501 -0.00000000000E+00 -0.00000000000E+00 -0.10647517165E+04  0.10647517165E+04  0.50400000000E-02 0.  1.
    8880023    1    1    2    0    0  0.41677337909E+03  0.34268318176E+02 -0.70843352740E+03  0.10538323568E+04  0.65864270000E+03 0.  1.
    8880022    1    1    2    0    0 -0.41677337909E+03 -0.34268318176E+02  0.86323693118E+02  0.45356124191E+03  0.15294330000E+03 0.  0.
<mgrwt>
<rscale>  0 0.67811468E+03</rscale>
<asrwt>0</asrwt>
<pdfrwt beam="1">  1        1 0.68098751E-01 0.78018240E+03</pdfrwt>
<pdfrwt beam="2">  1       -1 0.16380796E+00 0.78018240E+03</pdfrwt>
<totfact> 0.14674286E+01</totfact>
</mgrwt>
</event>
<event>
 4    1  0.1521315E-007  0.7256171E+03  0.7818608E-02  0.9904019E-01
          1   -1    0    0  501    0  0.00000000000E+00  0.00000000000E+00  0.17625086001E+04  0.17625086001E+04  0.50400000000E-02 0. -1.
         -1   -1    0    0    0  501 -0.00000000000E+00 -0.00000000000E+00 -0.18972217926E+03  0.18972217933E+03  0.50400000000E-02 0.  1.
    8880023    1    1    2    0    0  0.28382686901E+02 -0.30315736321E+03  0.67136718000E+03  0.98856161186E+03  0.65864270000E+03 0.  0.
    8880022    1    1    2    0    0 -0.28382686901E+02  0.30315736321E+03  0.90141924082E+03  0.96366916756E+03  0.15294330000E+03 0.  0.
<mgrwt>
<rscale>  0 0.60066927E+03</rscale>
<asrwt>0</asrwt>
<pdfrwt beam="1">  1        1 0.27115516E+00 0.72561710E+03</pdfrwt>
<pdfrwt beam="2">  1       -1 0.29188028E-01 0.72561710E+03</pdfrwt>
<totfact> 0.47824744E+01</totfact>
</mgrwt>
</event>
<event>
 4    1  0.1521315E-007  0.7771961E+03  0.7818608E-02  0.9762465E-01
         -1   -1    0    0    0  501 -0.00000000000E+00  0.00000000000E+00  0.55602600036E+03  0.55602600038E+03  0.50400000000E-02 0.  1.
          1   -1    0    0  501    0  0.00000000000E+00 -0.00000000000E+00 -0.15034127785E+04  0.15034127785E+04  0.50400000000E-02 0. -1.
    8880023    1    1    2    0    0  0.44474773743E+02 -0.41017744373E+03 -0.12870956911E+04  0.15035454982E+04  0.65864270000E+03 0. -1.
    8880022    1    1    2    0    0 -0.44474773743E+02  0.41017744373E+03  0.33970891302E+03  0.55589328063E+03  0.15294330000E+03 0.  0.
<mgrwt>
<rscale>  0 0.67416373E+03</rscale>
<asrwt>0</asrwt>
<pdfrwt beam="1">  1        1 0.23129427E+00 0.77719608E+03</pdfrwt>
<pdfrwt beam="2">  1       -1 0.85542462E-01 0.77719608E+03</pdfrwt>
<totfact> 0.90907110E+00</totfact>
</mgrwt>
</event>
<event>
 4    1  0.1521315E-007  0.7637725E+03  0.7818608E-02  0.9795437E-01
          1   -1    0    0  501    0  0.00000000000E+00  0.00000000000E+00  0.10339165788E+04  0.10339165788E+04  0.50400000000E-02 0. -1.
         -1   -1    0    0    0  501 -0.00000000000E+00 -0.00000000000E+00 -0.60511813566E+03  0.60511813568E+03  0.50400000000E-02 0.  1.
    8880023    1    1    2    0    0 -0.29700694724E+03  0.24763896542E+03  0.78224275684E+03  0.10932758667E+04  0.65864270000E+03 0. -1.
    8880022    1    1    2    0    0  0.29700694724E+03 -0.24763896542E+03 -0.35344431376E+03  0.54575884770E+03  0.15294330000E+03 0.  0.
<mgrwt>
<rscale>  0 0.65607992E+03</rscale>
<asrwt>0</asrwt>
<pdfrwt beam="1">  1        1 0.15906409E+00 0.76377247E+03</pdfrwt>
<pdfrwt beam="2">  1       -1 0.93095097E-01 0.76377247E+03</pdfrwt>
<totfact> 0.16412686E+01</totfact>
</mgrwt>
</event>
<event>
 4    1  0.1521315E-007  0.1241798E+04  0.7818608E-02  0.9117525E-01
         -1   -1    0    0    0  501 -0.00000000000E+00  0.00000000000E+00  0.10879764142E+04  0.10879764142E+04  0.50400000000E-02 0.  1.
          1   -1    0    0  501    0  0.00000000000E+00 -0.00000000000E+00 -0.14103905020E+04  0.14103905020E+04  0.50400000000E-02 0. -1.
    8880023    1    1    2    0    0 -0.23682138624E+03  0.10257517152E+04 -0.62799471218E+03  0.13915597418E+04  0.65864270000E+03 0.  0.
    8880022    1    1    2    0    0  0.23682138624E+03 -0.10257517152E+04  0.30558062443E+03  0.11068071744E+04  0.15294330000E+03 0.  0.
<mgrwt>
<rscale>  0 0.11946805E+04</rscale>
<asrwt>0</asrwt>
<pdfrwt beam="1">  1        1 0.21698315E+00 0.12417976E+04</pdfrwt>
<pdfrwt beam="2">  1       -1 0.16738099E+00 0.12417976E+04</pdfrwt>
<totfact> 0.18965027E+00</totfact>
</mgrwt>
</event>
<event>
 4    1  0.1521315E-007  0.8724699E+03  0.7818608E-02  0.9571756E-01
          1   -1    0    0  501    0  0.00000000000E+00  0.00000000000E+00  0.99230418626E+03  0.99230418627E+03  0.50400000000E-02 0. -1.
         -1   -1    0    0    0  501 -0.00000000000E+00 -0.00000000000E+00 -0.14099474735E+04  0.14099474735E+04  0.50400000000E-02 0.  1.
    8880023    1    1    2    0    0 -0.60114287279E+01  0.57215147025E+03  0.71242116296E+03  0.11263869503E+04  0.65864270000E+03 0. -1.
    8880022    1    1    2    0    0  0.60114287279E+01 -0.57215147025E+03 -0.11300644502E+04  0.12758647094E+04  0.15294330000E+03 0.  0.
<mgrwt>
<rscale>  0 0.79194125E+03</rscale>
<asrwt>0</asrwt>
<pdfrwt beam="1">  1        1 0.15266218E+00 0.87246986E+03</pdfrwt>
<pdfrwt beam="2">  1       -1 0.21691500E+00 0.87246986E+03</pdfrwt>
<totfact> 0.18133435E+00</totfact>
</mgrwt>
</event>
<event>
 4    1  0.1521315E-007  0.1080852E+04  0.7818608E-02  0.9282680E-01
          1   -1    0    0  501    0  0.00000000000E+00  0.00000000000E+00  0.14882828906E+04  0.14882828906E+04  0.50400000000E-02 0. -1.
         -1   -1    0    0    0  501 -0.00000000000E+00 -0.00000000000E+00 -0.68412439452E+03  0.68412439454E+03  0.50400000000E-02 0.  1.
    8880023    1    1    2    0    0  0.66412725701E+03  0.54163330954E+03  0.16714470736E+03  0.10936997828E+04  0.65864270000E+03 0.  1.
    8880022    1    1    2    0    0 -0.66412725701E+03 -0.54163330954E+03  0.63701378870E+03  0.10787075023E+04  0.15294330000E+03 0.  0.
<mgrwt>
<rscale>  0 0.10239312E+04</rscale>
<asrwt>0</asrwt>
<pdfrwt beam="1">  1        1 0.22896660E+00 0.10808524E+04</pdfrwt>
<pdfrwt beam="2">  1       -1 0.10524991E+00 0.10808524E+04</pdfrwt>
<totfact> 0.56217278E+00</totfact>
</mgrwt>
</event>
<event>
 4    1  0.1521315E-007  0.7528378E+03  0.7818608E-02  0.9824015E-01
          1   -1    0    0  501    0  0.00000000000E+00  0.00000000000E+00  0.99152307868E+03  0.99152307869E+03  0.50400000000E-02 0. -1.
         -1   -1    0    0    0  501 -0.00000000000E+00 -0.00000000000E+00 -0.38744956850E+03  0.38744956853E+03  0.50400000000E-02 0.  1.
    8880023    1    1    2    0    0 -0.22902602229E+02  0.36390937286E+03  0.63148398555E+03  0.98261731672E+03  0.65864270000E+03 0.  0.
    8880022    1    1    2    0    0  0.22902602229E+02 -0.36390937286E+03 -0.27410475377E+02  0.39635533050E+03  0.15294330000E+03 0.  0.
<mgrwt>
<rscale>  0 0.64089515E+03</rscale>
<asrwt>0</asrwt>
<pdfrwt beam="1">  1        1 0.15254201E+00 0.75283781E+03</pdfrwt>
<pdfrwt beam="2">  1       -1 0.59607627E-01 0.75283781E+03</pdfrwt>
<totfact> 0.44910030E+01</totfact>
</mgrwt>
</event>
<event>
 4    1  0.1521315E-007  0.6773065E+03  0.7818608E-02  0.1010890E+00
         -1   -1    0    0    0  501 -0.00000000000E+00  0.00000000000E+00  0.24468688624E+03  0.24468688629E+03  0.50400000000E-02 0.  1.
          1   -1    0    0  501    0  0.00000000000E+00 -0.00000000000E+00 -0.10459255401E+04  0.10459255401E+04  0.50400000000E-02 0. -1.
    8880023    1    1    2    0    0 -0.12209367377E+03 -0.10013480012E+03 -0.82735767209E+03  0.10692355995E+04  0.65864270000E+03 0. -1.
    8880022    1    1    2    0    0  0.12209367377E+03  0.10013480012E+03  0.26119018222E+02  0.22137682692E+03  0.15294330000E+03 0.  0.
<mgrwt>
<rscale>  0 0.51122367E+03</rscale>
<asrwt>0</asrwt>
<pdfrwt beam="1">  1        1 0.16091162E+00 0.67730647E+03</pdfrwt>
<pdfrwt beam="2">  1       -1 0.37644137E-01 0.67730647E+03</pdfrwt>
<totfact> 0.97313642E+01</totfact>
</mgrwt>
</event>
<event>
 4    1  0.1521315E-007  0.6650821E+03  0.7818608E-02  0.1019465E+00
         -1   -1    0    0    0  501 -0.00000000000E+00  0.00000000000E+00  0.42345650950E+03  0.42345650953E+03  0.50400000000E-02 0.  1.
          1   -1    0    0  501    0  0.00000000000E+00 -0.00000000000E+00 -0.42662544187E+03  0.42662544190E+03  0.50400000000E-02 0. -1.
    8880023    1    1    2    0    0 -0.31518001571E+02  0.86779340454E+02  0.40022806945E+02  0.66628527651E+03  0.65864270000E+03 0.  0.
    8880022    1    1    2    0    0  0.31518001571E+02 -0.86779340454E+02 -0.43191739319E+02  0.18379667492E+03  0.15294330000E+03 0.  1.
<mgrwt>
<rscale>  0 0.47880314E+03</rscale>
<asrwt>0</asrwt>
<pdfrwt beam="1">  1        1 0.65634683E-01 0.66508213E+03</pdfrwt>
<pdfrwt beam="2">  1       -1 0.65147155E-01 0.66508213E+03</pdfrwt>
<totfact> 0.13423989E+02</totfact>
</mgrwt>
</event>
<event>
 4    1  0.1521315E-007  0.7045355E+03  0.7818608E-02  0.9978882E-01
         -1   -1    0    0    0  501 -0.00000000000E+00  0.00000000000E+00  0.43140863038E+03  0.43140863040E+03  0.50400000000E-02 0.  1.
          1   -1    0    0  501    0  0.00000000000E+00 -0.00000000000E+00 -0.85566729279E+03  0.85566729281E+03  0.50400000000E-02 0. -1.
    8880023    1    1    2    0    0 -0.13018481382E+03 -0.21356974749E+03 -0.61675489221E+03  0.93635299226E+03  0.65864270000E+03 0. -1.
    8880022    1    1    2    0    0  0.13018481382E+03  0.21356974749E+03  0.19249622979E+03  0.35072293095E+03  0.15294330000E+03 0.  0.
<mgrwt>
<rscale>  0 0.56586005E+03</rscale>
<asrwt>0</asrwt>
<pdfrwt beam="1">  1        1 0.13164112E+00 0.70453554E+03</pdfrwt>
<pdfrwt beam="2">  1       -1 0.66370559E-01 0.70453554E+03</pdfrwt>
<totfact> 0.46851741E+01</totfact>
</mgrwt>
</event>
<event>
 4    1  0.1521315E-007  0.1190227E+04  0.7818608E-02  0.9166681E-01
          1   -1    0    0  501    0  0.00000000000E+00  0.00000000000E+00  0.11329575634E+04  0.11329575634E+04  0.50400000000E-02 0. -1.
         -1   -1    0    0    0  501 -0.00000000000E+00 -0.00000000000E+00 -0.27952696681E+04  0.27952696681E+04  0.50400000000E-02 0.  1.
    8880023    1    1    2    0    0 -0.99012152985E+03  0.49894953558E+02 -0.24027863494E+04  0.26814217493E+04  0.65864270000E+03 0.  0.
    8880022    1    1    2    0    0  0.99012152985E+03 -0.49894953558E+02  0.74047424480E+03  0.12468054822E+04  0.15294330000E+03 0.  0.
<mgrwt>
<rscale>  0 0.11404049E+04</rscale>
<asrwt>0</asrwt>
<pdfrwt beam="1">  1        1 0.17430116E+00 0.11902270E+04</pdfrwt>
<pdfrwt beam="2">  1       -1 0.43004149E+00 0.11902270E+04</pdfrwt>
<totfact> 0.52877899E-02</totfact>
</mgrwt>
</event>
<event>
 4    1  0.1521315E-007  0.1036221E+04  0.7818608E-02  0.9335632E-01
         -1   -1    0    0    0  501 -0.00000000000E+00  0.00000000000E+00  0.36505327711E+03  0.36505327714E+03  0.50400000000E-02 0.  1.
          1   -1    0    0  501    0  0.00000000000E+00 -0.00000000000E+00 -0.27906086768E+04  0.27906086768E+04  0.50400000000E-02 0. -1.
    8880023    1    1    2    0    0  0.70836136685E+03  0.37171036153E+03 -0.19612292507E+04  0.22181467037E+04  0.65864270000E+03 0.  0.
    8880022    1    1    2    0    0 -0.70836136685E+03 -0.37171036153E+03 -0.46432614904E+03  0.93751525033E+03  0.15294330000E+03 0.  0.
<mgrwt>
<rscale>  0 0.97567706E+03</rscale>
<asrwt>0</asrwt>
<pdfrwt beam="1">  1        1 0.42932440E+00 0.10362213E+04</pdfrwt>
<pdfrwt beam="2">  1       -1 0.56162044E-01 0.10362213E+04</pdfrwt>
<totfact> 0.27652856E+00</totfact>
</mgrwt>
</event>
<event>
 4    1  0.1521315E-007  0.7361804E+03  0.7818608E-02  0.9871216E-01
         -1   -1    0    0    0  501 -0.00000000000E+00  0.00000000000E+00  0.18125005299E+03  0.18125005306E+03  0.50400000000E-02 0.  1.
          1   -1    0    0  501    0  0.00000000000E+00 -0.00000000000E+00 -0.16764878664E+04  0.16764878664E+04  0.50400000000E-02 0. -1.
    8880023    1    1    2    0    0 -0.25906300672E+03 -0.20257781222E+03 -0.10707041853E+04  0.12993725678E+04  0.65864270000E+03 0. -1.
    8880022    1    1    2    0    0  0.25906300672E+03  0.20257781222E+03 -0.42453362813E+03  0.55836535161E+03  0.15294330000E+03 0.  1.
<mgrwt>
<rscale>  0 0.61676780E+03</rscale>
<asrwt>0</asrwt>
<pdfrwt beam="1">  1        1 0.25792120E+00 0.73618042E+03</pdfrwt>
<pdfrwt beam="2">  1       -1 0.27884625E-01 0.73618042E+03</pdfrwt>
<totfact> 0.59060222E+01</totfact>
</mgrwt>
</event>
<event>
 4    1  0.1749448E-007  0.6613433E+03  0.7818608E-02  0.1022821E+00
          1   -1    0    0  501    0  0.00000000000E+00  0.00000000000E+00  0.18674131758E+04  0.18674131758E+04  0.50400000000E-02 0. -1.
         -1   -1    0    0    0  501 -0.00000000000E+00 -0.00000000000E+00 -0.99206282352E+03  0.99206282353E+03  0.50400000000E-02 0.  1.
    8880023    1    1    2    0    0  0.58709284404E+02 -0.10862663574E+02  0.18014114229E+04  0.19189731885E+04  0.65864270000E+03 0. -1.
    8880022    1    1    2    0    0 -0.58709284404E+02  0.10862663574E+02 -0.92606107063E+03  0.94050281078E+03  0.15294330000E+03 0.  0.
<mgrwt>
<rscale>  0 0.46682384E+03</rscale>
<asrwt>0</asrwt>
<pdfrwt beam="1">  1        1 0.28729433E+00 0.66134332E+03</pdfrwt>
<pdfrwt beam="2">  1       -1 0.15262505E+00 0.66134332E+03</pdfrwt>
<totfact> 0.13130401E+00</totfact>
</mgrwt>
</event>
<event>
 4    1  0.1521315E-007  0.7640991E+03  0.7818608E-02  0.9794609E-01
          1   -1    0    0  501    0  0.00000000000E+00  0.00000000000E+00  0.92552324407E+03  0.92552324408E+03  0.50400000000E-02 0. -1.
         -1   -1    0    0    0  501 -0.00000000000E+00 -0.00000000000E+00 -0.43504961363E+03  0.43504961366E+03  0.50400000000E-02 0.  1.
    8880023    1    1    2    0    0 -0.76371551505E+02  0.37974275178E+03  0.54782943666E+03  0.94019384669E+03  0.65864270000E+03 0.  0.
    8880022    1    1    2    0    0  0.76371551505E+02 -0.37974275178E+03 -0.57355806222E+02  0.42037901105E+03  0.15294330000E+03 0.  0.
<mgrwt>
<rscale>  0 0.65652673E+03</rscale>
<asrwt>0</asrwt>
<pdfrwt beam="1">  1        1 0.14238819E+00 0.76409906E+03</pdfrwt>
<pdfrwt beam="2">  1       -1 0.66930711E-01 0.76409906E+03</pdfrwt>
<totfact> 0.40142592E+01</totfact>
</mgrwt>
</event>
<event>
 4    1  0.1521315E-007  0.7972673E+03  0.7818608E-02  0.9716736E-01
          1   -1    0    0  501    0  0.00000000000E+00  0.00000000000E+00  0.27043971737E+04  0.27043971737E+04  0.50400000000E-02 0. -1.
         -1   -1    0    0    0  501 -0.00000000000E+00 -0.00000000000E+00 -0.36135784446E+03  0.36135784449E+03  0.50400000000E-02 0.  1.
    8880023    1    1    2    0    0  0.44924227499E+03  0.25051241458E+01  0.24524062495E+04  0.25787461132E+04  0.65864270000E+03 0. -1.
    8880022    1    1    2    0    0 -0.44924227499E+03 -0.25051241458E+01 -0.10936692029E+03  0.48700890501E+03  0.15294330000E+03 0.  0.
<mgrwt>
<rscale>  0 0.70029011E+03</rscale>
<asrwt>0</asrwt>
<pdfrwt beam="1">  1        1 0.41606110E+00 0.79726727E+03</pdfrwt>
<pdfrwt beam="2">  1       -1 0.55593514E-01 0.79726727E+03</pdfrwt>
<totfact> 0.33661841E+00</totfact>
</mgrwt>
</event>
<event>
 4    1  0.1521315E-007  0.6997931E+03  0.7818608E-02  0.9998061E-01
         -1   -1    0    0    0  501 -0.00000000000E+00  0.00000000000E+00  0.32924111892E+03  0.32924111896E+03  0.50400000000E-02 0.  1.
          1   -1    0    0  501    0  0.00000000000E+00 -0.00000000000E+00 -0.74241388298E+03  0.74241388300E+03  0.50400000000E-02 0. -1.
    8880023    1    1    2    0    0  0.19158952192E+03 -0.13854104600E+03 -0.35268540419E+03  0.78364364792E+03  0.65864270000E+03 0.  0.
    8880022    1    1    2    0    0 -0.19158952192E+03  0.13854104600E+03 -0.60487359872E+02  0.28801135404E+03  0.15294330000E+03 0.  1.
<mgrwt>
<rscale>  0 0.55735357E+03</rscale>
<asrwt>0</asrwt>
<pdfrwt beam="1">  1        1 0.11421752E+00 0.69979309E+03</pdfrwt>
<pdfrwt beam="2">  1       -1 0.50652480E-01 0.69979309E+03</pdfrwt>
<totfact> 0.99618779E+01</totfact>
</mgrwt>
</event>
<event>
 4    1  0.1521315E-007  0.1240693E+04  0.7818608E-02  0.9118546E-01
         -1   -1    0    0    0  501 -0.00000000000E+00  0.00000000000E+00  0.96162703087E+03  0.96162703088E+03  0.50400000000E-02 0.  1.
          1   -1    0    0  501    0  0.00000000000E+00 -0.00000000000E+00 -0.14692426422E+04  0.14692426422E+04  0.50400000000E-02 0. -1.
    8880023    1    1    2    0    0  0.22036439586E+03  0.10280798867E+04  0.27986095973E+02  0.12410085206E+04  0.65864270000E+03 0.  0.
    8880022    1    1    2    0    0 -0.22036439586E+03 -0.10280798867E+04 -0.53560170734E+03  0.11898611525E+04  0.15294330000E+03 0.  0.
<mgrwt>
<rscale>  0 0.11935213E+04</rscale>
<asrwt>0</asrwt>
<pdfrwt beam="1">  1        1 0.22603733E+00 0.12406929E+04</pdfrwt>
<pdfrwt beam="2">  1       -1 0.14794262E+00 0.12406929E+04</pdfrwt>
<totfact> 0.24305622E+00</totfact>
</mgrwt>
</event>
<event>
 4    1  0.1521315E-007  0.1307123E+04  0.7818608E-02  0.9059433E-01
          1   -1    0    0  501    0  0.00000000000E+00  0.00000000000E+00  0.15323272528E+04  0.15323272528E+04  0.50400000000E-02 0. -1.
         -1   -1    0    0    0  501 -0.00000000000E+00 -0.00000000000E+00 -0.11164277387E+04  0.11164277388E+04  0.50400000000E-02 0.  1.
    8880023    1    1    2    0    0  0.74642680408E+03 -0.84711670774E+03 -0.24747050254E+03  0.13303426424E+04  0.65864270000E+03 0.  0.
    8880022    1    1    2    0    0 -0.74642680408E+03  0.84711670774E+03  0.66337001656E+03  0.13184123491E+04  0.15294330000E+03 0.  0.
<mgrwt>
<rscale>  0 0.12629988E+04</rscale>
<asrwt>0</asrwt>
<pdfrwt beam="1">  1        1 0.23574265E+00 0.13071228E+04</pdfrwt>
<pdfrwt beam="2">  1       -1 0.17175811E+00 0.13071228E+04</pdfrwt>
<totfact> 0.14371186E+00</totfact>
</mgrwt>
</event>
<event>
 4    1  0.1558816E-007  0.1079059E+04  0.7818608E-02  0.9284737E-01
         -1   -1    0    0    0  501 -0.00000000000E+00  0.00000000000E+00  0.78088771484E+03  0.78088771486E+03  0.50400000000E-02 0.  1.
          1   -1    0    0  501    0  0.00000000000E+00 -0.00000000000E+00 -0.34585258478E+04  0.34585258478E+04  0.50400000000E-02 0. -1.
    8880023    1    1    2    0    0  0.85239925820E+03  0.63042769974E+02 -0.30937659939E+04  0.32765465231E+04  0.65864270000E+03 0.  0.
    8880022    1    1    2    0    0 -0.85239925820E+03 -0.63042769974E+02  0.41612786099E+03  0.96286703959E+03  0.15294330000E+03 0.  0.
<mgrwt>
<rscale>  0 0.10220023E+04</rscale>
<asrwt>0</asrwt>
<pdfrwt beam="1">  1        1 0.53208089E+00 0.10790594E+04</pdfrwt>
<pdfrwt beam="2">  1       -1 0.12013657E+00 0.10790594E+04</pdfrwt>
<totfact> 0.17010798E-01</totfact>
</mgrwt>
</event>
<event>
 4    1  0.1521315E-007  0.8079740E+03  0.7818608E-02  0.9693813E-01
         -1   -1    0    0    0  501 -0.00000000000E+00  0.00000000000E+00  0.60105814060E+03  0.60105814062E+03  0.50400000000E-02 0.  1.
          1   -1    0    0  501    0  0.00000000000E+00 -0.00000000000E+00 -0.93387596311E+03  0.93387596313E+03  0.50400000000E-02 0. -1.
    8880023    1    1    2    0    0 -0.46357164520E+03  0.64133672906E+02 -0.56964256539E+03  0.98859226014E+03  0.65864270000E+03 0. -1.
    8880022    1    1    2    0    0  0.46357164520E+03 -0.64133672906E+02  0.23682474288E+03  0.54634184362E+03  0.15294330000E+03 0.  0.
<mgrwt>
<rscale>  0 0.71386386E+03</rscale>
<asrwt>0</asrwt>
<pdfrwt beam="1">  1        1 0.14367323E+00 0.80797401E+03</pdfrwt>
<pdfrwt beam="2">  1       -1 0.92470483E-01 0.80797401E+03</pdfrwt>
<totfact> 0.19847234E+01</totfact>
</mgrwt>
</event>
<event>
 4    1  0.1521315E-007  0.8440091E+03  0.7818608E-02  0.9622667E-01
          1   -1    0    0  501    0  0.00000000000E+00  0.00000000000E+00  0.15297480903E+04  0.15297480904E+04  0.50400000000E-02 0. -1.
         -1   -1    0    0    0  501 -0.00000000000E+00 -0.00000000000E+00 -0.10927899665E+04  0.10927899665E+04  0.50400000000E-02 0.  1.
    8880023    1    1    2    0    0  0.14217264981E+02 -0.52757837645E+03  0.13292862245E+04  0.15745961853E+04  0.65864270000E+03 0. -1.
    8880022    1    1    2    0    0 -0.14217264981E+02  0.52757837645E+03 -0.89232810069E+03  0.10479418716E+04  0.15294330000E+03 0.  0.
<mgrwt>
<rscale>  0 0.75813946E+03</rscale>
<asrwt>0</asrwt>
<pdfrwt beam="1">  1        1 0.23534586E+00 0.84400905E+03</pdfrwt>
<pdfrwt beam="2">  1       -1 0.16812153E+00 0.84400905E+03</pdfrwt>
<totfact> 0.16340569E+00</totfact>
</mgrwt>
</event>
<event>
 4    1  0.1521315E-007  0.7749662E+03  0.7818608E-02  0.9767797E-01
          1   -1    0    0  501    0  0.00000000000E+00  0.00000000000E+00  0.18577442449E+04  0.18577442449E+04  0.50400000000E-02 0. -1.
         -1   -1    0    0    0  501 -0.00000000000E+00 -0.00000000000E+00 -0.49279340034E+03  0.49279340036E+03  0.50400000000E-02 0.  1.
    8880023    1    1    2    0    0  0.17391703299E+03 -0.36947968825E+03  0.16545621756E+04  0.18270600903E+04  0.65864270000E+03 0. -1.
    8880022    1    1    2    0    0 -0.17391703299E+03  0.36947968825E+03 -0.28961133109E+03  0.52347755492E+03  0.15294330000E+03 0.  0.
<mgrwt>
<rscale>  0 0.67119738E+03</rscale>
<asrwt>0</asrwt>
<pdfrwt beam="1">  1        1 0.28580681E+00 0.77496618E+03</pdfrwt>
<pdfrwt beam="2">  1       -1 0.75814369E-01 0.77496618E+03</pdfrwt>
<totfact> 0.67765683E+00</totfact>
</mgrwt>
</event>
<event>
 4    1  0.1521315E-007  0.6794343E+03  0.7818608E-02  0.1009645E+00
          1   -1    0    0  501    0  0.00000000000E+00  0.00000000000E+00  0.65187752152E+03  0.65187752154E+03  0.50400000000E-02 0. -1.
         -1   -1    0    0    0  501 -0.00000000000E+00 -0.00000000000E+00 -0.38013906030E+03  0.38013906033E+03  0.50400000000E-02 0.  1.
    8880023    1    1    2    0    0  0.48967454369E+02  0.15944556460E+03  0.38288670874E+03  0.77989302962E+03  0.65864270000E+03 0.  0.
    8880022    1    1    2    0    0 -0.48967454369E+02 -0.15944556460E+03 -0.11114824752E+03  0.25212355225E+03  0.15294330000E+03 0.  0.
<mgrwt>
<rscale>  0 0.51615771E+03</rscale>
<asrwt>0</asrwt>
<pdfrwt beam="1">  1        1 0.10028885E+00 0.67943425E+03</pdfrwt>
<pdfrwt beam="2">  1       -1 0.58482932E-01 0.67943425E+03</pdfrwt>
<totfact> 0.92031850E+01</totfact>
</mgrwt>
</event>
<event>
 4    1  0.1521315E-007  0.7949232E+03  0.7818608E-02  0.9721883E-01
         -1   -1    0    0    0  501 -0.00000000000E+00  0.00000000000E+00  0.43766160646E+03  0.43766160649E+03  0.50400000000E-02 0.  1.
          1   -1    0    0  501    0  0.00000000000E+00 -0.00000000000E+00 -0.10506410771E+04  0.10506410771E+04  0.50400000000E-02 0. -1.
    8880023    1    1    2    0    0  0.27339117330E+03 -0.35121206848E+03 -0.63463344042E+03  0.10171835924E+04  0.65864270000E+03 0.  0.
    8880022    1    1    2    0    0 -0.27339117330E+03  0.35121206848E+03  0.21653969763E+02  0.47111909121E+03  0.15294330000E+03 0.  0.
<mgrwt>
<rscale>  0 0.69728727E+03</rscale>
<asrwt>0</asrwt>
<pdfrwt beam="1">  1        1 0.16163709E+00 0.79492318E+03</pdfrwt>
<pdfrwt beam="2">  1       -1 0.67332555E-01 0.79492318E+03</pdfrwt>
<totfact> 0.31569544E+01</totfact>
</mgrwt>
</event>
<event>
 4    1  0.1521315E-007  0.6673878E+03  0.7818608E-02  0.1017609E+00
         -1   -1    0    0    0  501 -0.00000000000E+00  0.00000000000E+00  0.55450589257E+03  0.55450589259E+03  0.50400000000E-02 0.  1.
          1   -1    0    0  501    0  0.00000000000E+00 -0.00000000000E+00 -0.11624910692E+04  0.11624910692E+04  0.50400000000E-02 0. -1.
    8880023    1    1    2    0    0  0.90302390873E+02  0.58666150743E+02 -0.10459657755E+04  0.12407460856E+04  0.65864270000E+03 0. -1.
    8880022    1    1    2    0    0 -0.90302390873E+02 -0.58666150743E+02  0.43798059892E+03  0.47625087620E+03  0.15294330000E+03 0.  0.
<mgrwt>
<rscale>  0 0.48559411E+03</rscale>
<asrwt>0</asrwt>
<pdfrwt beam="1">  1        1 0.17884478E+00 0.66738778E+03</pdfrwt>
<pdfrwt beam="2">  1       -1 0.85308599E-01 0.66738778E+03</pdfrwt>
<totfact> 0.16144597E+01</totfact>
</mgrwt>
</event>
<event>
 4    1  0.1521315E-007  0.6692486E+03  0.7818608E-02  0.1016207E+00
         -1   -1    0    0    0  501 -0.00000000000E+00  0.00000000000E+00  0.43598542064E+03  0.43598542067E+03  0.50400000000E-02 0.  1.
          1   -1    0    0  501    0  0.00000000000E+00 -0.00000000000E+00 -0.52668483629E+03  0.52668483631E+03  0.50400000000E-02 0. -1.
    8880023    1    1    2    0    0 -0.11601629804E+03  0.24975086862E+02 -0.24750113093E+03  0.71354786276E+03  0.65864270000E+03 0. -1.
    8880022    1    1    2    0    0  0.11601629804E+03 -0.24975086862E+02  0.15680171528E+03  0.24912239423E+03  0.15294330000E+03 0.  1.
<mgrwt>
<rscale>  0 0.49080458E+03</rscale>
<asrwt>0</asrwt>
<pdfrwt beam="1">  1        1 0.81028436E-01 0.66924864E+03</pdfrwt>
<pdfrwt beam="2">  1       -1 0.67074680E-01 0.66924864E+03</pdfrwt>
<totfact> 0.95074108E+01</totfact>
</mgrwt>
</event>
<event>
 4    1  0.1521315E-007  0.8176960E+03  0.7818608E-02  0.9673764E-01
         -1   -1    0    0    0  501 -0.00000000000E+00  0.00000000000E+00  0.90712529871E+03  0.90712529873E+03  0.50400000000E-02 0.  1.
          1   -1    0    0  501    0  0.00000000000E+00 -0.00000000000E+00 -0.24402326430E+04  0.24402326430E+04  0.50400000000E-02 0. -1.
    8880023    1    1    2    0    0  0.30242468666E+03 -0.37862355840E+03 -0.22923154953E+04  0.24337906702E+04  0.65864270000E+03 0.  0.
    8880022    1    1    2    0    0 -0.30242468666E+03  0.37862355840E+03  0.75920815100E+03  0.91356727155E+03  0.15294330000E+03 0.  0.
<mgrwt>
<rscale>  0 0.72600587E+03</rscale>
<asrwt>0</asrwt>
<pdfrwt beam="1">  1        1 0.37542040E+00 0.81769597E+03</pdfrwt>
<pdfrwt beam="2">  1       -1 0.13955774E+00 0.81769597E+03</pdfrwt>
<totfact> 0.66318071E-01</totfact>
</mgrwt>
</event>
<event>
 4    1  0.1521315E-007  0.1389371E+04  0.7818608E-02  0.8991986E-01
          1   -1    0    0  501    0  0.00000000000E+00  0.00000000000E+00  0.14513432764E+04  0.14513432764E+04  0.50400000000E-02 0. -1.
         -1   -1    0    0    0  501 -0.00000000000E+00 -0.00000000000E+00 -0.12681534301E+04  0.12681534301E+04  0.50400000000E-02 0.  1.
    8880023    1    1    2    0    0  0.99751639659E+03 -0.70816783400E+03  0.44549382018E+03  0.14590461242E+04  0.65864270000E+03 0. -1.
    8880022    1    1    2    0    0 -0.99751639659E+03  0.70816783400E+03 -0.26230397393E+03  0.12604505823E+04  0.15294330000E+03 0.  1.
<mgrwt>
<rscale>  0 0.13484710E+04</rscale>
<asrwt>0</asrwt>
<pdfrwt beam="1">  1        1 0.22328358E+00 0.13893707E+04</pdfrwt>
<pdfrwt beam="2">  1       -1 0.19510053E+00 0.13893707E+04</pdfrwt>
<totfact> 0.11040100E+00</totfact>
</mgrwt>
</event>
<event>
 4    1  0.1521315E-007  0.8089560E+03  0.7818608E-02  0.9691756E-01
          1   -1    0    0  501    0  0.00000000000E+00  0.00000000000E+00  0.98507981099E+03  0.98507981100E+03  0.50400000000E-02 0. -1.
         -1   -1    0    0    0  501 -0.00000000000E+00 -0.00000000000E+00 -0.47369745548E+03  0.47369745551E+03  0.50400000000E-02 0.  1.
    8880023    1    1    2    0    0 -0.40836683933E+03  0.23202628233E+03  0.52543953003E+03  0.96462250499E+03  0.65864270000E+03 0.  0.
    8880022    1    1    2    0    0  0.40836683933E+03 -0.23202628233E+03 -0.14057174526E+02  0.49415476151E+03  0.15294330000E+03 0.  0.
<mgrwt>
<rscale>  0 0.71509788E+03</rscale>
<asrwt>0</asrwt>
<pdfrwt beam="1">  1        1 0.15155074E+00 0.80895604E+03</pdfrwt>
<pdfrwt beam="2">  1       -1 0.72876533E-01 0.80895604E+03</pdfrwt>
<totfact> 0.30114405E+01</totfact>
</mgrwt>
</event>
<event>
 4    1  0.1521315E-007  0.9614996E+03  0.7818608E-02  0.9433758E-01
          1   -1    0    0  501    0  0.00000000000E+00  0.00000000000E+00  0.19278649556E+04  0.19278649556E+04  0.50400000000E-02 0. -1.
         -1   -1    0    0    0  501 -0.00000000000E+00 -0.00000000000E+00 -0.36941234401E+03  0.36941234405E+03  0.50400000000E-02 0.  1.
    8880023    1    1    2    0    0  0.23972737956E+03 -0.65818083966E+03  0.77215286067E+03  0.12331672558E+04  0.65864270000E+03 0.  0.
    8880022    1    1    2    0    0 -0.23972737956E+03  0.65818083966E+03  0.78629975095E+03  0.10641100439E+04  0.15294330000E+03 0.  0.
<mgrwt>
<rscale>  0 0.89348827E+03</rscale>
<asrwt>0</asrwt>
<pdfrwt beam="1">  1        1 0.29659461E+00 0.96149958E+03</pdfrwt>
<pdfrwt beam="2">  1       -1 0.56832668E-01 0.96149958E+03</pdfrwt>
<totfact> 0.10609796E+01</totfact>
</mgrwt>
</event>
<event>
 4    1  0.1521315E-007  0.6743298E+03  0.7818608E-02  0.1012732E+00
          1   -1    0    0  501    0  0.00000000000E+00  0.00000000000E+00  0.24178869459E+04  0.24178869459E+04  0.50400000000E-02 0. -1.
         -1   -1    0    0    0  501 -0.00000000000E+00 -0.00000000000E+00 -0.14979571780E+03  0.14979571788E+03  0.50400000000E-02 0.  1.
    8880023    1    1    2    0    0  0.60508687056E+02 -0.13133584770E+03  0.22584603268E+04  0.23569818964E+04  0.65864270000E+03 0. -1.
    8880022    1    1    2    0    0 -0.60508687056E+02  0.13133584770E+03  0.96309013296E+01  0.21070076738E+03  0.15294330000E+03 0.  0.
<mgrwt>
<rscale>  0 0.50403098E+03</rscale>
<asrwt>0</asrwt>
<pdfrwt beam="1">  1        1 0.37198257E+00 0.67432975E+03</pdfrwt>
<pdfrwt beam="2">  1       -1 0.23045497E-01 0.67432975E+03</pdfrwt>
<totfact> 0.26253726E+01</totfact>
</mgrwt>
</event>
<event>
 4    1  0.1521315E-007  0.6647294E+03  0.7818608E-02  0.1019762E+00
          1   -1    0    0  501    0  0.00000000000E+00  0.00000000000E+00  0.36813955810E+03  0.36813955814E+03  0.50400000000E-02 0. -1.
         -1   -1    0    0    0  501 -0.00000000000E+00 -0.00000000000E+00 -0.12953704699E+04  0.12953704699E+04  0.50400000000E-02 0.  1.
    8880023    1    1    2    0    0 -0.77172292349E+02 -0.45818977049E+02  0.53497168675E+02  0.66687862065E+03  0.65864270000E+03 0. -1.
    8880022    1    1    2    0    0  0.77172292349E+02  0.45818977049E+02 -0.98072808047E+03  0.99663140739E+03  0.15294330000E+03 0.  0.
<mgrwt>
<rscale>  0 0.47772763E+03</rscale>
<asrwt>0</asrwt>
<pdfrwt beam="1">  1        1 0.56636855E-01 0.66472938E+03</pdfrwt>
<pdfrwt beam="2">  1       -1 0.19928776E+00 0.66472938E+03</pdfrwt>
<totfact> 0.10629324E+01</totfact>
</mgrwt>
</event>
<event>
 4    1  0.1521315E-007  0.7129021E+03  0.7818608E-02  0.9947378E-01
         -1   -1    0    0    0  501 -0.00000000000E+00  0.00000000000E+00  0.48334095417E+03  0.48334095420E+03  0.50400000000E-02 0.  1.
          1   -1    0    0  501    0  0.00000000000E+00 -0.00000000000E+00 -0.81308546367E+03  0.81308546368E+03  0.50400000000E-02 0. -1.
    8880023    1    1    2    0    0 -0.25195536955E+02 -0.27163274172E+03 -0.56124747967E+03  0.90731918373E+03  0.65864270000E+03 0.  0.
    8880022    1    1    2    0    0  0.25195536955E+02  0.27163274172E+03  0.23150297017E+03  0.38910723415E+03  0.15294330000E+03 0.  0.
<mgrwt>
<rscale>  0 0.58019071E+03</rscale>
<asrwt>0</asrwt>
<pdfrwt beam="1">  1        1 0.12509007E+00 0.71290207E+03</pdfrwt>
<pdfrwt beam="2">  1       -1 0.74360147E-01 0.71290207E+03</pdfrwt>
<totfact> 0.40300359E+01</totfact>
</mgrwt>
</event>
<event>
 4    1  0.1521315E-007  0.7157938E+03  0.7818608E-02  0.9937084E-01
          1   -1    0    0  501    0  0.00000000000E+00  0.00000000000E+00  0.17021335438E+04  0.17021335438E+04  0.50400000000E-02 0. -1.
         -1   -1    0    0    0  501 -0.00000000000E+00 -0.00000000000E+00 -0.31566329327E+03  0.31566329331E+03  0.50400000000E-02 0.  1.
    8880023    1    1    2    0    0 -0.23359993317E+03 -0.15485988833E+03  0.15134543981E+04  0.16741878434E+04  0.65864270000E+03 0. -1.
    8880022    1    1    2    0    0  0.23359993317E+03  0.15485988833E+03 -0.12698414755E+03  0.34360899367E+03  0.15294330000E+03 0.  0.
<mgrwt>
<rscale>  0 0.58497212E+03</rscale>
<asrwt>0</asrwt>
<pdfrwt beam="1">  1        1 0.26186670E+00 0.71579377E+03</pdfrwt>
<pdfrwt beam="2">  1       -1 0.48563583E-01 0.71579377E+03</pdfrwt>
<totfact> 0.20991882E+01</totfact>
</mgrwt>
</event>
<event>
 4    1  0.1521315E-007  0.6885325E+03  0.7818608E-02  0.1004858E+00
          1   -1    0    0  501    0  0.00000000000E+00  0.00000000000E+00  0.19075157250E+04  0.19075157250E+04  0.50400000000E-02 0. -1.
         -1   -1    0    0    0  501 -0.00000000000E+00 -0.00000000000E+00 -0.12015867090E+03  0.12015867101E+03  0.50400000000E-02 0.  1.
    8880023    1    1    2    0    0  0.17551205194E+03  0.97274490687E+02  0.14613996589E+04  0.16154770120E+04  0.65864270000E+03 0. -1.
    8880022    1    1    2    0    0 -0.17551205194E+03 -0.97274490687E+02  0.32595739520E+03  0.41219738405E+03  0.15294330000E+03 0.  0.
<mgrwt>
<rscale>  0 0.53570457E+03</rscale>
<asrwt>0</asrwt>
<pdfrwt beam="1">  1        1 0.29346394E+00 0.68853251E+03</pdfrwt>
<pdfrwt beam="2">  1       -1 0.18485950E-01 0.68853251E+03</pdfrwt>
<totfact> 0.83194401E+01</totfact>
</mgrwt>
</event>
<event>
 4    1  0.1521315E-007  0.7788739E+03  0.7818608E-02  0.9758489E-01
          1   -1    0    0  501    0  0.00000000000E+00  0.00000000000E+00  0.11678225719E+04  0.11678225719E+04  0.50400000000E-02 0. -1.
         -1   -1    0    0    0  501 -0.00000000000E+00 -0.00000000000E+00 -0.57024770698E+03  0.57024770701E+03  0.50400000000E-02 0.  1.
    8880023    1    1    2    0    0 -0.37063546063E+03 -0.18831793290E+03  0.90864885186E+03  0.11967820314E+04  0.65864270000E+03 0.  0.
    8880022    1    1    2    0    0  0.37063546063E+03  0.18831793290E+03 -0.31107398692E+03  0.54128824750E+03  0.15294330000E+03 0.  0.
<mgrwt>
<rscale>  0 0.67638645E+03</rscale>
<asrwt>0</asrwt>
<pdfrwt beam="1">  1        1 0.17966501E+00 0.77887386E+03</pdfrwt>
<pdfrwt beam="2">  1       -1 0.87730417E-01 0.77887386E+03</pdfrwt>
<totfact> 0.14829297E+01</totfact>
</mgrwt>
</event>
<event>
 4    1  0.1521315E-007  0.7070319E+03  0.7818608E-02  0.9969192E-01
         -1   -1    0    0    0  501 -0.00000000000E+00  0.00000000000E+00  0.28174365146E+03  0.28174365150E+03  0.50400000000E-02 0.  1.
          1   -1    0    0  501    0  0.00000000000E+00 -0.00000000000E+00 -0.13376586899E+04  0.13376586899E+04  0.50400000000E-02 0. -1.
    8880023    1    1    2    0    0  0.25648409671E+03 -0.17313532603E+02 -0.11093875193E+04  0.13155359078E+04  0.65864270000E+03 0. -1.
    8880022    1    1    2    0    0 -0.25648409671E+03  0.17313532603E+02  0.53472480889E+02  0.30386643366E+03  0.15294330000E+03 0.  1.
<mgrwt>
<rscale>  0 0.57021975E+03</rscale>
<asrwt>0</asrwt>
<pdfrwt beam="1">  1        1 0.20579364E+00 0.70703186E+03</pdfrwt>
<pdfrwt beam="2">  1       -1 0.43345178E-01 0.70703186E+03</pdfrwt>
<totfact> 0.46092156E+01</totfact>
</mgrwt>
</event>
<event>
 4    1  0.1521315E-007  0.1024706E+04  0.7818608E-02  0.9349925E-01
          1   -1    0    0  501    0  0.00000000000E+00  0.00000000000E+00  0.20316506682E+04  0.20316506682E+04  0.50400000000E-02 0. -1.
         -1   -1    0    0    0  501 -0.00000000000E+00 -0.00000000000E+00 -0.96326967136E+03  0.96326967138E+03  0.50400000000E-02 0.  1.
    8880023    1    1    2    0    0  0.33843554878E+03  0.70828937447E+03  0.16938126345E+04  0.19796524709E+04  0.65864270000E+03 0. -1.
    8880022    1    1    2    0    0 -0.33843554878E+03 -0.70828937447E+03 -0.62543163767E+03  0.10152678686E+04  0.15294330000E+03 0.  0.
<mgrwt>
<rscale>  0 0.96313776E+03</rscale>
<asrwt>0</asrwt>
<pdfrwt beam="1">  1        1 0.31256164E+00 0.10247061E+04</pdfrwt>
<pdfrwt beam="2">  1       -1 0.14819533E+00 0.10247061E+04</pdfrwt>
<totfact> 0.10300442E+00</totfact>
</mgrwt>
</event>
<event>
 4    1  0.1521315E-007  0.8263542E+03  0.7818608E-02  0.9656468E-01
         -1   -1    0    0    0  501 -0.00000000000E+00  0.00000000000E+00  0.33790950544E+03  0.33790950548E+03  0.50400000000E-02 0.  1.
          1   -1    0    0  501    0  0.00000000000E+00 -0.00000000000E+00 -0.14668240197E+04  0.14668240197E+04  0.50400000000E-02 0. -1.
    8880023    1    1    2    0    0 -0.35253292595E+03  0.35323034234E+03 -0.93520798781E+03  0.12479885117E+04  0.65864270000E+03 0.  0.
    8880022    1    1    2    0    0  0.35253292595E+03 -0.35323034234E+03 -0.19370652644E+03  0.55674501348E+03  0.15294330000E+03 0.  0.
<mgrwt>
<rscale>  0 0.73668888E+03</rscale>
<asrwt>0</asrwt>
<pdfrwt beam="1">  1        1 0.22566523E+00 0.82635425E+03</pdfrwt>
<pdfrwt beam="2">  1       -1 0.51986079E-01 0.82635425E+03</pdfrwt>
<totfact> 0.26294769E+01</totfact>
</mgrwt>
</event>
<event>
 4    1  0.1521315E-007  0.6761982E+03  0.7818608E-02  0.1011561E+00
         -1   -1    0    0    0  501 -0.00000000000E+00  0.00000000000E+00  0.19429721247E+03  0.19429721253E+03  0.50400000000E-02 0.  1.
          1   -1    0    0  501    0  0.00000000000E+00 -0.00000000000E+00 -0.22802352689E+04  0.22802352689E+04  0.50400000000E-02 0. -1.
    8880023    1    1    2    0    0 -0.90759310851E+00 -0.15307817658E+03 -0.21459562547E+04  0.22499716010E+04  0.65864270000E+03 0.  0.
    8880022    1    1    2    0    0  0.90759310851E+00  0.15307817658E+03  0.60018198308E+02  0.22456088042E+03  0.15294330000E+03 0.  1.
<mgrwt>
<rscale>  0 0.50858750E+03</rscale>
<asrwt>0</asrwt>
<pdfrwt beam="1">  1        1 0.35080541E+00 0.67619816E+03</pdfrwt>
<pdfrwt beam="2">  1       -1 0.29891880E-01 0.67619816E+03</pdfrwt>
<totfact> 0.20820666E+01</totfact>
</mgrwt>
</event>
<event>
 4    1  0.1521315E-007  0.6761550E+03  0.7818608E-02  0.1011588E+00
         -1   -1    0    0    0  501 -0.00000000000E+00  0.00000000000E+00  0.31369060667E+03  0.31369060671E+03  0.50400000000E-02 0.  1.
          1   -1    0    0  501    0  0.00000000000E+00 -0.00000000000E+00 -0.33386785000E+04  0.33386785000E+04  0.50400000000E-02 0. -1.
    8880023    1    1    2    0    0  0.81325823829E+02 -0.12946599436E+03 -0.32621066815E+04  0.33314449630E+04  0.65864270000E+03 0. -1.
    8880022    1    1    2    0    0 -0.81325823829E+02  0.12946599436E+03  0.23711878820E+03  0.32092414376E+03  0.15294330000E+03 0.  0.
<mgrwt>
<rscale>  0 0.50848378E+03</rscale>
<asrwt>0</asrwt>
<pdfrwt beam="1">  1        1 0.51364282E+00 0.67615497E+03</pdfrwt>
<pdfrwt beam="2">  1       -1 0.48260096E-01 0.67615497E+03</pdfrwt>
<totfact> 0.15793581E+00</totfact>
</mgrwt>
</event>
<event>
 4    1  0.1521315E-007  0.8962771E+03  0.7818608E-02  0.9532035E-01
          1   -1    0    0  501    0  0.00000000000E+00  0.00000000000E+00  0.37987627310E+03  0.37987627313E+03  0.50400000000E-02 0. -1.
         -1   -1    0    0    0  501 -0.00000000000E+00 -0.00000000000E+00 -0.15714174184E+04  0.15714174184E+04  0.50400000000E-02 0.  1.
    8880023    1    1    2    0    0 -0.53742276564E+03  0.28404077571E+03 -0.53608086429E+03  0.10443635816E+04  0.65864270000E+03 0.  1.
    8880022    1    1    2    0    0  0.53742276564E+03 -0.28404077571E+03 -0.65546028101E+03  0.90693010993E+03  0.15294330000E+03 0. -1.
<mgrwt>
<rscale>  0 0.81962679E+03</rscale>
<asrwt>0</asrwt>
<pdfrwt beam="1">  1        1 0.58442504E-01 0.89627708E+03</pdfrwt>
<pdfrwt beam="2">  1       -1 0.24175652E+00 0.89627708E+03</pdfrwt>
<totfact> 0.51721053E+00</totfact>
</mgrwt>
</event>
<event>
 4    1  0.1521315E-007  0.9835162E+03  0.7818608E-02  0.9403448E-01
          1   -1    0    0  501    0  0.00000000000E+00  0.00000000000E+00  0.11292388388E+04  0.11292388388E+04  0.50400000000E-02 0. -1.
         -1   -1    0    0    0  501 -0.00000000000E+00 -0.00000000000E+00 -0.11127000842E+04  0.11127000843E+04  0.50400000000E-02 0.  1.
    8880023    1    1    2    0    0 -0.71558663087E+03  0.14638849520E+03  0.71803937742E+03  0.12177374806E+04  0.65864270000E+03 0. -1.
    8880022    1    1    2    0    0  0.71558663087E+03 -0.14638849520E+03 -0.70150062290E+03  0.10242014425E+04  0.15294330000E+03 0.  0.
<mgrwt>
<rscale>  0 0.91792428E+03</rscale>
<asrwt>0</asrwt>
<pdfrwt beam="1">  1        1 0.17372905E+00 0.98351615E+03</pdfrwt>
<pdfrwt beam="2">  1       -1 0.17118463E+00 0.98351615E+03</pdfrwt>
<totfact> 0.29235924E+00</totfact>
</mgrwt>
</event>
<event>
 4    1  0.1521315E-007  0.7219559E+03  0.7818608E-02  0.9916022E-01
          1   -1    0    0  501    0  0.00000000000E+00  0.00000000000E+00  0.52577300442E+03  0.52577300444E+03  0.50400000000E-02 0. -1.
         -1   -1    0    0    0  501 -0.00000000000E+00 -0.00000000000E+00 -0.72075139449E+03  0.72075139451E+03  0.50400000000E-02 0.  1.
    8880023    1    1    2    0    0 -0.55530937609E+02  0.29039023382E+03  0.18106877315E+03  0.74431598115E+03  0.65864270000E+03 0. -1.
    8880022    1    1    2    0    0  0.55530937609E+02 -0.29039023382E+03 -0.37604716322E+03  0.50220841780E+03  0.15294330000E+03 0.  0.
<mgrwt>
<rscale>  0 0.59491016E+03</rscale>
<asrwt>0</asrwt>
<pdfrwt beam="1">  1        1 0.80888155E-01 0.72195594E+03</pdfrwt>
<pdfrwt beam="2">  1       -1 0.11088483E+00 0.72195594E+03</pdfrwt>
<totfact> 0.31768917E+01</totfact>
</mgrwt>
</event>
<event>
 4    1  0.1521315E-007  0.7492621E+03  0.7818608E-02  0.9833745E-01
          1   -1    0    0  501    0  0.00000000000E+00  0.00000000000E+00  0.24308066700E+03  0.24308066706E+03  0.50400000000E-02 0. -1.
         -1   -1    0    0    0  501 -0.00000000000E+00 -0.00000000000E+00 -0.15251482202E+04  0.15251482202E+04  0.50400000000E-02 0.  1.
    8880023    1    1    2    0    0 -0.16722309892E+03 -0.31562633176E+03 -0.51753361313E+03  0.91062329922E+03  0.65864270000E+03 0.  0.
    8880022    1    1    2    0    0  0.16722309892E+03  0.31562633176E+03 -0.76453394011E+03  0.85760558808E+03  0.15294330000E+03 0.  0.
<mgrwt>
<rscale>  0 0.63582638E+03</rscale>
<asrwt>0</asrwt>
<pdfrwt beam="1">  1        1 0.37397027E-01 0.74926214E+03</pdfrwt>
<pdfrwt beam="2">  1       -1 0.23463818E+00 0.74926214E+03</pdfrwt>
<totfact> 0.10480212E+01</totfact>
</mgrwt>
</event>
<event>
 4    1  0.1521315E-007  0.6819539E+03  0.7818608E-02  0.1008239E+00
          1   -1    0    0  501    0  0.00000000000E+00  0.00000000000E+00  0.10135438666E+04  0.10135438667E+04  0.50400000000E-02 0. -1.
         -1   -1    0    0    0  501 -0.00000000000E+00 -0.00000000000E+00 -0.52686604447E+03  0.52686604450E+03  0.50400000000E-02 0.  1.
    8880023    1    1    2    0    0  0.16963391667E+03 -0.49751977028E+02  0.86145321281E+03  0.10987095927E+04  0.65864270000E+03 0. -1.
    8880022    1    1    2    0    0 -0.16963391667E+03  0.49751977028E+02 -0.37477539064E+03  0.44170031848E+03  0.15294330000E+03 0.  0.
<mgrwt>
<rscale>  0 0.52180431E+03</rscale>
<asrwt>0</asrwt>
<pdfrwt beam="1">  1        1 0.15592983E+00 0.68195391E+03</pdfrwt>
<pdfrwt beam="2">  1       -1 0.81056314E-01 0.68195391E+03</pdfrwt>
<totfact> 0.23232262E+01</totfact>
</mgrwt>
</event>
<event>
 4    1  0.1521315E-007  0.8725492E+03  0.7818608E-02  0.9571619E-01
         -1   -1    0    0    0  501 -0.00000000000E+00  0.00000000000E+00  0.67305330136E+03  0.67305330138E+03  0.50400000000E-02 0.  1.
          1   -1    0    0  501    0  0.00000000000E+00 -0.00000000000E+00 -0.12805585162E+04  0.12805585162E+04  0.50400000000E-02 0. -1.
    8880023    1    1    2    0    0 -0.56265103685E+03  0.10466942381E+03 -0.93321326755E+03  0.12775872129E+04  0.65864270000E+03 0.  0.
    8880022    1    1    2    0    0  0.56265103685E+03 -0.10466942381E+03  0.32570805270E+03  0.67602460470E+03  0.15294330000E+03 0.  0.
<mgrwt>
<rscale>  0 0.79203432E+03</rscale>
<asrwt>0</asrwt>
<pdfrwt beam="1">  1        1 0.19700900E+00 0.87254919E+03</pdfrwt>
<pdfrwt beam="2">  1       -1 0.10354666E+00 0.87254919E+03</pdfrwt>
<totfact> 0.83713622E+00</totfact>
</mgrwt>
</event>
<event>
 4    1  0.1521315E-007  0.7929585E+03  0.7818608E-02  0.9726233E-01
         -1   -1    0    0    0  501 -0.00000000000E+00  0.00000000000E+00  0.74311449420E+03  0.74311449422E+03  0.50400000000E-02 0.  1.
          1   -1    0    0  501    0  0.00000000000E+00 -0.00000000000E+00 -0.74758846394E+03  0.74758846396E+03  0.50400000000E-02 0. -1.
    8880023    1    1    2    0    0 -0.19229621237E+03  0.39748610272E+03  0.38583602503E+03  0.88184617685E+03  0.65864270000E+03 0.  0.
    8880022    1    1    2    0    0  0.19229621237E+03 -0.39748610272E+03 -0.39030999477E+03  0.60885678134E+03  0.15294330000E+03 0.  0.
<mgrwt>
<rscale>  0 0.69476137E+03</rscale>
<asrwt>0</asrwt>
<pdfrwt beam="1">  1        1 0.11501361E+00 0.79295854E+03</pdfrwt>
<pdfrwt beam="2">  1       -1 0.11432531E+00 0.79295854E+03</pdfrwt>
<totfact> 0.17528192E+01</totfact>
</mgrwt>
</event>
<event>
 4    1  0.1521315E-007  0.1158020E+04  0.7818608E-02  0.9199050E-01
          1   -1    0    0  501    0  0.00000000000E+00  0.00000000000E+00  0.21535828215E+04  0.21535828215E+04  0.50400000000E-02 0. -1.
         -1   -1    0    0    0  501 -0.00000000000E+00 -0.00000000000E+00 -0.76372325485E+03  0.76372325486E+03  0.50400000000E-02 0.  1.
    8880023    1    1    2    0    0 -0.88606734856E+03  0.34940755453E+03  0.15547706696E+04  0.19386394782E+04  0.65864270000E+03 0.  0.
    8880022    1    1    2    0    0  0.88606734856E+03 -0.34940755453E+03 -0.16491110295E+03  0.97866659810E+03  0.15294330000E+03 0.  0.
<mgrwt>
<rscale>  0 0.11063234E+04</rscale>
<asrwt>0</asrwt>
<pdfrwt beam="1">  1        1 0.33132043E+00 0.11580204E+04</pdfrwt>
<pdfrwt beam="2">  1       -1 0.11749589E+00 0.11580204E+04</pdfrwt>
<totfact> 0.15136015E+00</totfact>
</mgrwt>
</event>
<event>
 4    1  0.1521315E-007  0.6807991E+03  0.7818608E-02  0.1008875E+00
         -1   -1    0    0    0  501 -0.00000000000E+00  0.00000000000E+00  0.36681051716E+03  0.36681051720E+03  0.50400000000E-02 0.  1.
          1   -1    0    0  501    0  0.00000000000E+00 -0.00000000000E+00 -0.60471325130E+03  0.60471325132E+03  0.50400000000E-02 0. -1.
    8880023    1    1    2    0    0 -0.16325328576E+03 -0.55005153227E+02 -0.28214233606E+03  0.73694756004E+03  0.65864270000E+03 0.  0.
    8880022    1    1    2    0    0  0.16325328576E+03  0.55005153227E+02  0.44239601917E+02  0.23457620848E+03  0.15294330000E+03 0. -1.
<mgrwt>
<rscale>  0 0.51924126E+03</rscale>
<asrwt>0</asrwt>
<pdfrwt beam="1">  1        1 0.93032808E-01 0.68079910E+03</pdfrwt>
<pdfrwt beam="2">  1       -1 0.56432387E-01 0.68079910E+03</pdfrwt>
<totfact> 0.11002851E+02</totfact>
</mgrwt>
</event>
<event>
 4    1  0.1521315E-007  0.9716700E+03  0.7818608E-02  0.9419598E-01
          1   -1    0    0  501    0  0.00000000000E+00  0.00000000000E+00  0.21285870058E+04  0.21285870058E+04  0.50400000000E-02 0. -1.
         -1   -1    0    0    0  501 -0.00000000000E+00 -0.00000000000E+00 -0.36038430347E+03  0.36038430351E+03  0.50400000000E-02 0.  1.
    8880023    1    1    2    0    0 -0.36278598469E+03 -0.61540128219E+03  0.71150519277E+03  0.12043181699E+04  0.65864270000E+03 0. -1.
    8880022    1    1    2    0    0  0.36278598469E+03  0.61540128219E+03  0.10566975095E+04  0.12846531394E+04  0.15294330000E+03 0.  0.
<mgrwt>
<rscale>  0 0.90480230E+03</rscale>
<asrwt>0</asrwt>
<pdfrwt beam="1">  1        1 0.32747493E+00 0.97167001E+03</pdfrwt>
<pdfrwt beam="2">  1       -1 0.55443738E-01 0.97167001E+03</pdfrwt>
<totfact> 0.81475457E+00</totfact>
</mgrwt>
</event>
<event>
 4    1  0.1521315E-007  0.8969579E+03  0.7818608E-02  0.9530933E-01
          1   -1    0    0  501    0  0.00000000000E+00  0.00000000000E+00  0.71570393837E+03  0.71570393839E+03  0.50400000000E-02 0. -1.
         -1   -1    0    0    0  501 -0.00000000000E+00 -0.00000000000E+00 -0.14052622637E+04  0.14052622637E+04  0.50400000000E-02 0.  1.
    8880023    1    1    2    0    0 -0.51022961609E+03  0.33224837910E+03  0.30281296675E+03  0.94669379719E+03  0.65864270000E+03 0. -1.
    8880022    1    1    2    0    0  0.51022961609E+03 -0.33224837910E+03 -0.99237129210E+03  0.11742724049E+04  0.15294330000E+03 0.  0.
<mgrwt>
<rscale>  0 0.82041180E+03</rscale>
<asrwt>0</asrwt>
<pdfrwt beam="1">  1        1 0.11010830E+00 0.89695789E+03</pdfrwt>
<pdfrwt beam="2">  1       -1 0.21619419E+00 0.89695789E+03</pdfrwt>
<totfact> 0.31299371E+00</totfact>
</mgrwt>
</event>
<event>
 4    1  0.1521315E-007  0.7202425E+03  0.7818608E-02  0.9921766E-01
          1   -1    0    0  501    0  0.00000000000E+00  0.00000000000E+00  0.13811299158E+04  0.13811299158E+04  0.50400000000E-02 0. -1.
         -1   -1    0    0    0  501 -0.00000000000E+00 -0.00000000000E+00 -0.57521750755E+03  0.57521750757E+03  0.50400000000E-02 0.  1.
    8880023    1    1    2    0    0 -0.66353560897E+02  0.28378913920E+03  0.12264654467E+04  0.14223103631E+04  0.65864270000E+03 0. -1.
    8880022    1    1    2    0    0  0.66353560897E+02 -0.28378913920E+03 -0.42055303850E+03  0.53403706030E+03  0.15294330000E+03 0.  0.
<mgrwt>
<rscale>  0 0.59217902E+03</rscale>
<asrwt>0</asrwt>
<pdfrwt beam="1">  1        1 0.21248152E+00 0.72024251E+03</pdfrwt>
<pdfrwt beam="2">  1       -1 0.88495003E-01 0.72024251E+03</pdfrwt>
<totfact> 0.10341173E+01</totfact>
</mgrwt>
</event>
<event>
 4    1  0.1521315E-007  0.7847336E+03  0.7818608E-02  0.9744833E-01
         -1   -1    0    0    0  501 -0.00000000000E+00  0.00000000000E+00  0.48876285675E+03  0.48876285678E+03  0.50400000000E-02 0.  1.
          1   -1    0    0  501    0  0.00000000000E+00 -0.00000000000E+00 -0.15659883095E+04  0.15659883095E+04  0.50400000000E-02 0. -1.
    8880023    1    1    2    0    0  0.42515673721E+03 -0.35190109632E+02 -0.13237288361E+04  0.15388517904E+04  0.65864270000E+03 0. -1.
    8880022    1    1    2    0    0 -0.42515673721E+03  0.35190109632E+02  0.24650338336E+03  0.51589937588E+03  0.15294330000E+03 0.  0.
<mgrwt>
<rscale>  0 0.68409061E+03</rscale>
<asrwt>0</asrwt>
<pdfrwt beam="1">  1        1 0.24092128E+00 0.78473359E+03</pdfrwt>
<pdfrwt beam="2">  1       -1 0.75194287E-01 0.78473359E+03</pdfrwt>
<totfact> 0.10825657E+01</totfact>
</mgrwt>
</event>
<event>
 4    1  0.1521315E-007  0.7852319E+03  0.7818608E-02  0.9743688E-01
          1   -1    0    0  501    0  0.00000000000E+00  0.00000000000E+00  0.80538736829E+03  0.80538736831E+03  0.50400000000E-02 0. -1.
         -1   -1    0    0    0  501 -0.00000000000E+00 -0.00000000000E+00 -0.50286156984E+03  0.50286156986E+03  0.50400000000E-02 0.  1.
    8880023    1    1    2    0    0  0.42306516265E+03  0.61601481720E+02  0.45636644690E+02  0.78655691720E+03  0.65864270000E+03 0.  0.
    8880022    1    1    2    0    0 -0.42306516265E+03 -0.61601481720E+02  0.25688915377E+03  0.52169202097E+03  0.15294330000E+03 0.  1.
<mgrwt>
<rscale>  0 0.68474167E+03</rscale>
<asrwt>0</asrwt>
<pdfrwt beam="1">  1        1 0.12390575E+00 0.78523186E+03</pdfrwt>
<pdfrwt beam="2">  1       -1 0.77363318E-01 0.78523186E+03</pdfrwt>
<totfact> 0.37399843E+01</totfact>
</mgrwt>
</event>
<event>
 4    1  0.1521315E-007  0.6595111E+03  0.7818608E-02  0.1024663E+00
          1   -1    0    0  501    0  0.00000000000E+00  0.00000000000E+00  0.12455179954E+04  0.12455179955E+04  0.50400000000E-02 0. -1.
         -1   -1    0    0    0  501 -0.00000000000E+00 -0.00000000000E+00 -0.32477767360E+03  0.32477767364E+03  0.50400000000E-02 0.  1.
    8880023    1    1    2    0    0 -0.17898779001E+02 -0.28710083540E+02  0.11303152511E+04  0.13086509880E+04  0.65864270000E+03 0. -1.
    8880022    1    1    2    0    0  0.17898779001E+02  0.28710083540E+02 -0.20957492924E+03  0.26164468114E+03  0.15294330000E+03 0.  0.
<mgrwt>
<rscale>  0 0.46040780E+03</rscale>
<asrwt>0</asrwt>
<pdfrwt beam="1">  1        1 0.19161816E+00 0.65951106E+03</pdfrwt>
<pdfrwt beam="2">  1       -1 0.49965795E-01 0.65951106E+03</pdfrwt>
<totfact> 0.41309141E+01</totfact>
</mgrwt>
</event>
<event>
 4    1  0.1521315E-007  0.6873733E+03  0.7818608E-02  0.1005427E+00
          1   -1    0    0  501    0  0.00000000000E+00  0.00000000000E+00  0.26157252411E+03  0.26157252416E+03  0.50400000000E-02 0. -1.
         -1   -1    0    0    0  501 -0.00000000000E+00 -0.00000000000E+00 -0.12237152444E+04  0.12237152444E+04  0.50400000000E-02 0.  1.
    8880023    1    1    2    0    0 -0.14478285805E+03  0.13307794434E+03 -0.25099333956E+03  0.73176476960E+03  0.65864270000E+03 0. -1.
    8880022    1    1    2    0    0  0.14478285805E+03 -0.13307794434E+03 -0.71114938071E+03  0.75352299896E+03  0.15294330000E+03 0.  0.
<mgrwt>
<rscale>  0 0.53333365E+03</rscale>
<asrwt>0</asrwt>
<pdfrwt beam="1">  1        1 0.40241928E-01 0.68737328E+03</pdfrwt>
<pdfrwt beam="2">  1       -1 0.18826388E+00 0.68737328E+03</pdfrwt>
<totfact> 0.19682840E+01</totfact>
</mgrwt>
</event>
<event>
 4    1  0.1521315E-007  0.7032536E+03  0.7818608E-02  0.9983963E-01
         -1   -1    0    0    0  501 -0.00000000000E+00  0.00000000000E+00  0.25259034932E+03  0.25259034937E+03  0.50400000000E-02 0.  1.
          1   -1    0    0  501    0  0.00000000000E+00 -0.00000000000E+00 -0.17639026119E+04  0.17639026119E+04  0.50400000000E-02 0. -1.
    8880023    1    1    2    0    0 -0.69012053965E+02 -0.23662787672E+03 -0.15702023905E+04  0.17204944548E+04  0.65864270000E+03 0. -1.
    8880022    1    1    2    0    0  0.69012053965E+02  0.23662787672E+03  0.58890127952E+02  0.29599850644E+03  0.15294330000E+03 0.  0.
<mgrwt>
<rscale>  0 0.56359074E+03</rscale>
<asrwt>0</asrwt>
<pdfrwt beam="1">  1        1 0.27136962E+00 0.70325360E+03</pdfrwt>
<pdfrwt beam="2">  1       -1 0.38860055E-01 0.70325360E+03</pdfrwt>
<totfact> 0.28833226E+01</totfact>
</mgrwt>
</event>
<event>
 4    1  0.1521315E-007  0.1232117E+04  0.7818608E-02  0.9126518E-01
          1   -1    0    0  501    0  0.00000000000E+00  0.00000000000E+00  0.18269613441E+04  0.18269613441E+04  0.50400000000E-02 0. -1.
         -1   -1    0    0    0  501 -0.00000000000E+00 -0.00000000000E+00 -0.13219738701E+04  0.13219738701E+04  0.50400000000E-02 0.  1.
    8880023    1    1    2    0    0  0.50651689495E+03  0.90980351586E+03  0.13289892845E+04  0.18122705446E+04  0.65864270000E+03 0. -1.
    8880022    1    1    2    0    0 -0.50651689495E+03 -0.90980351586E+03 -0.82400181046E+03  0.13366646696E+04  0.15294330000E+03 0.  1.
<mgrwt>
<rscale>  0 0.11845172E+04</rscale>
<asrwt>0</asrwt>
<pdfrwt beam="1">  1        1 0.28107097E+00 0.12321169E+04</pdfrwt>
<pdfrwt beam="2">  1       -1 0.20338060E+00 0.12321169E+04</pdfrwt>
<totfact> 0.54406625E-01</totfact>
</mgrwt>
</event>
<event>
 4    1  0.1521315E-007  0.8536159E+03  0.7818608E-02  0.9605022E-01
          1   -1    0    0  501    0  0.00000000000E+00  0.00000000000E+00  0.10502388797E+04  0.10502388797E+04  0.50400000000E-02 0. -1.
         -1   -1    0    0    0  501 -0.00000000000E+00 -0.00000000000E+00 -0.54249031741E+03  0.54249031743E+03  0.50400000000E-02 0.  1.
    8880023    1    1    2    0    0 -0.36783737925E+03 -0.39943160165E+03  0.56810634393E+03  0.10253804008E+04  0.65864270000E+03 0.  0.
    8880022    1    1    2    0    0  0.36783737925E+03  0.39943160165E+03 -0.60357781611E+02  0.56734879641E+03  0.15294330000E+03 0.  0.
<mgrwt>
<rscale>  0 0.76964686E+03</rscale>
<asrwt>0</asrwt>
<pdfrwt beam="1">  1        1 0.16157521E+00 0.85361593E+03</pdfrwt>
<pdfrwt beam="2">  1       -1 0.83460050E-01 0.85361593E+03</pdfrwt>
<totfact> 0.20048495E+01</totfact>
</mgrwt>
</event>
<event>
 4    1  0.1521315E-007  0.8890036E+03  0.7818608E-02  0.9543920E-01
          1   -1    0    0  501    0  0.00000000000E+00  0.00000000000E+00  0.16907967597E+04  0.16907967597E+04  0.50400000000E-02 0. -1.
         -1   -1    0    0    0  501 -0.00000000000E+00 -0.00000000000E+00 -0.46472308879E+03  0.46472308881E+03  0.50400000000E-02 0.  1.
    8880023    1    1    2    0    0  0.54638573298E+03 -0.24078987522E+03  0.12555835459E+04  0.15384464178E+04  0.65864270000E+03 0.  0.
    8880022    1    1    2    0    0 -0.54638573298E+03  0.24078987522E+03 -0.29509875023E+02  0.61707343076E+03  0.15294330000E+03 0.  0.
<mgrwt>
<rscale>  0 0.81121794E+03</rscale>
<asrwt>0</asrwt>
<pdfrwt beam="1">  1        1 0.26012258E+00 0.88900357E+03</pdfrwt>
<pdfrwt beam="2">  1       -1 0.71495859E-01 0.88900357E+03</pdfrwt>
<totfact> 0.97534081E+00</totfact>
</mgrwt>
</event>
<event>
 4    1  0.1521315E-007  0.8648078E+03  0.7818608E-02  0.9585068E-01
         -1   -1    0    0    0  501 -0.00000000000E+00  0.00000000000E+00  0.10572321808E+04  0.10572321808E+04  0.50400000000E-02 0.  1.
          1   -1    0    0  501    0  0.00000000000E+00 -0.00000000000E+00 -0.86508661999E+03  0.86508662001E+03  0.50400000000E-02 0. -1.
    8880023    1    1    2    0    0  0.49032673904E+03  0.27140731918E+03 -0.51547911013E+03  0.10067825799E+04  0.65864270000E+03 0.  0.
    8880022    1    1    2    0    0 -0.49032673904E+03 -0.27140731918E+03  0.70762467095E+03  0.91553622095E+03  0.15294330000E+03 0.  0.
<mgrwt>
<rscale>  0 0.78292418E+03</rscale>
<asrwt>0</asrwt>
<pdfrwt beam="1">  1        1 0.13309025E+00 0.86480775E+03</pdfrwt>
<pdfrwt beam="2">  1       -1 0.16265111E+00 0.86480775E+03</pdfrwt>
<totfact> 0.55302724E+00</totfact>
</mgrwt>
</event>
<event>
 4    1  0.1521315E-007  0.1506430E+04  0.7818608E-02  0.8905109E-01
          1   -1    0    0  501    0  0.00000000000E+00  0.00000000000E+00  0.20357673466E+04  0.20357673466E+04  0.50400000000E-02 0. -1.
         -1   -1    0    0    0  501 -0.00000000000E+00 -0.00000000000E+00 -0.12994768284E+04  0.12994768284E+04  0.50400000000E-02 0.  1.
    8880023    1    1    2    0    0  0.12292666608E+04 -0.56958283393E+03  0.11668190571E+04  0.19054653097E+04  0.65864270000E+03 0.  0.
    8880022    1    1    2    0    0 -0.12292666608E+04  0.56958283393E+03 -0.43052853880E+03  0.14297788654E+04  0.15294330000E+03 0.  0.
<mgrwt>
<rscale>  0 0.14693291E+04</rscale>
<asrwt>0</asrwt>
<pdfrwt beam="1">  1        1 0.31319498E+00 0.15064300E+04</pdfrwt>
<pdfrwt beam="2">  1       -1 0.19991951E+00 0.15064300E+04</pdfrwt>
<totfact> 0.40116816E-01</totfact>
</mgrwt>
</event>
<event>
 4    1  0.1521315E-007  0.7161816E+03  0.7818608E-02  0.9935724E-01
         -1   -1    0    0    0  501 -0.00000000000E+00  0.00000000000E+00  0.19402839360E+03  0.19402839366E+03  0.50400000000E-02 0.  1.
          1   -1    0    0  501    0  0.00000000000E+00 -0.00000000000E+00 -0.18192271879E+04  0.18192271880E+04  0.50400000000E-02 0. -1.
    8880023    1    1    2    0    0 -0.23058442504E+03  0.16104897111E+03 -0.15131204606E+04  0.16740518757E+04  0.65864270000E+03 0. -1.
    8880022    1    1    2    0    0  0.23058442504E+03 -0.16104897111E+03 -0.11207833377E+03  0.33920370588E+03  0.15294330000E+03 0.  0.
<mgrwt>
<rscale>  0 0.58560747E+03</rscale>
<asrwt>0</asrwt>
<pdfrwt beam="1">  1        1 0.27988109E+00 0.71618165E+03</pdfrwt>
<pdfrwt beam="2">  1       -1 0.29850523E-01 0.71618165E+03</pdfrwt>
<totfact> 0.42191192E+01</totfact>
</mgrwt>
</event>
<event>
 4    1  0.1521315E-007  0.6838923E+03  0.7818608E-02  0.1007202E+00
         -1   -1    0    0    0  501 -0.00000000000E+00  0.00000000000E+00  0.17846464891E+04  0.17846464891E+04  0.50400000000E-02 0.  1.
          1   -1    0    0  501    0  0.00000000000E+00 -0.00000000000E+00 -0.54865259820E+03  0.54865259823E+03  0.50400000000E-02 0. -1.
    8880023    1    1    2    0    0 -0.70079890714E+02 -0.17025646063E+03 -0.32279259019E+03  0.75624315931E+03  0.65864270000E+03 0. -1.
    8880022    1    1    2    0    0  0.70079890714E+02  0.17025646063E+03  0.15587864811E+04  0.15770559280E+04  0.15294330000E+03 0.  0.
<mgrwt>
<rscale>  0 0.52601815E+03</rscale>
<asrwt>0</asrwt>
<pdfrwt beam="1">  1        1 0.84408093E-01 0.68389229E+03</pdfrwt>
<pdfrwt beam="2">  1       -1 0.27456100E+00 0.68389229E+03</pdfrwt>
<totfact> 0.19936368E+00</totfact>
</mgrwt>
</event>
<event>
 4    1  0.1521315E-007  0.8342364E+03  0.7818608E-02  0.9641145E-01
         -1   -1    0    0    0  501 -0.00000000000E+00  0.00000000000E+00  0.96967370517E+03  0.96967370519E+03  0.50400000000E-02 0.  1.
          1   -1    0    0  501    0  0.00000000000E+00 -0.00000000000E+00 -0.58952762081E+03  0.58952762083E+03  0.50400000000E-02 0. -1.
    8880023    1    1    2    0    0  0.63351200451E+02 -0.50806175433E+03 -0.10077560051E+03  0.84030116549E+03  0.65864270000E+03 0. -1.
    8880022    1    1    2    0    0 -0.63351200451E+02  0.50806175433E+03  0.48092168487E+03  0.71890016052E+03  0.15294330000E+03 0.  0.
<mgrwt>
<rscale>  0 0.74631754E+03</rscale>
<asrwt>0</asrwt>
<pdfrwt beam="1">  1        1 0.90696557E-01 0.83423637E+03</pdfrwt>
<pdfrwt beam="2">  1       -1 0.14918057E+00 0.83423637E+03</pdfrwt>
<totfact> 0.12676986E+01</totfact>
</mgrwt>
</event>
<event>
 4    1  0.1521315E-007  0.8255722E+03  0.7818608E-02  0.9658010E-01
         -1   -1    0    0    0  501 -0.00000000000E+00  0.00000000000E+00  0.62677340771E+03  0.62677340773E+03  0.50400000000E-02 0.  1.
          1   -1    0    0  501    0  0.00000000000E+00 -0.00000000000E+00 -0.85196380598E+03  0.85196380600E+03  0.50400000000E-02 0. -1.
    8880023    1    1    2    0    0 -0.44107355374E+03 -0.23068039996E+03 -0.41561862594E+03  0.92428803694E+03  0.65864270000E+03 0. -1.
    8880022    1    1    2    0    0  0.44107355374E+03  0.23068039996E+03  0.19042822768E+03  0.55444917679E+03  0.15294330000E+03 0.  0.
<mgrwt>
<rscale>  0 0.73572872E+03</rscale>
<asrwt>0</asrwt>
<pdfrwt beam="1">  1        1 0.13107135E+00 0.82557225E+03</pdfrwt>
<pdfrwt beam="2">  1       -1 0.96426678E-01 0.82557225E+03</pdfrwt>
<totfact> 0.21052234E+01</totfact>
</mgrwt>
</event>
<event>
 4    1  0.1521315E-007  0.9689726E+03  0.7818608E-02  0.9423327E-01
          1   -1    0    0  501    0  0.00000000000E+00  0.00000000000E+00  0.51025850168E+03  0.51025850170E+03  0.50400000000E-02 0. -1.
         -1   -1    0    0    0  501 -0.00000000000E+00 -0.00000000000E+00 -0.19144531703E+04  0.19144531703E+04  0.50400000000E-02 0.  1.
    8880023    1    1    2    0    0  0.64365773513E+03 -0.30133434355E+03 -0.15770873627E+03  0.98172293360E+03  0.65864270000E+03 0. -1.
    8880022    1    1    2    0    0 -0.64365773513E+03  0.30133434355E+03 -0.12464859323E+04  0.14429887384E+04  0.15294330000E+03 0.  0.
<mgrwt>
<rscale>  0 0.90180605E+03</rscale>
<asrwt>0</asrwt>
<pdfrwt beam="1">  1        1 0.78501309E-01 0.96897259E+03</pdfrwt>
<pdfrwt beam="2">  1       -1 0.29453125E+00 0.96897259E+03</pdfrwt>
<totfact> 0.15716221E+00</totfact>
</mgrwt>
</event>
<event>
 4    1  0.1521315E-007  0.7436169E+03  0.7818608E-02  0.9849534E-01
          1   -1    0    0  501    0  0.00000000000E+00  0.00000000000E+00  0.11773402754E+04  0.11773402754E+04  0.50400000000E-02 0. -1.
         -1   -1    0    0    0  501 -0.00000000000E+00 -0.00000000000E+00 -0.69269199306E+03  0.69269199308E+03  0.50400000000E-02 0.  1.
    8880023    1    1    2    0    0  0.34388444528E+03 -0.29990570683E+02  0.99065365358E+03  0.12386931879E+04  0.65864270000E+03 0. -1.
    8880022    1    1    2    0    0 -0.34388444528E+03  0.29990570683E+02 -0.50600537122E+03  0.63133908065E+03  0.15294330000E+03 0.  0.
<mgrwt>
<rscale>  0 0.62770696E+03</rscale>
<asrwt>0</asrwt>
<pdfrwt beam="1">  1        1 0.18112927E+00 0.74361694E+03</pdfrwt>
<pdfrwt beam="2">  1       -1 0.10656800E+00 0.74361694E+03</pdfrwt>
<totfact> 0.94560213E+00</totfact>
</mgrwt>
</event>
<event>
 4    1  0.1521315E-007  0.6767271E+03  0.7818608E-02  0.1011239E+00
         -1   -1    0    0    0  501 -0.00000000000E+00  0.00000000000E+00  0.35964798882E+03  0.35964798885E+03  0.50400000000E-02 0.  1.
          1   -1    0    0  501    0  0.00000000000E+00 -0.00000000000E+00 -0.17542660916E+04  0.17542660917E+04  0.50400000000E-02 0. -1.
    8880023    1    1    2    0    0 -0.15197300310E+03  0.32459687946E+02 -0.16468702752E+04  0.17804890717E+04  0.65864270000E+03 0. -1.
    8880022    1    1    2    0    0  0.15197300310E+03 -0.32459687946E+02  0.25225217235E+03  0.33342500878E+03  0.15294330000E+03 0.  0.
<mgrwt>
<rscale>  0 0.50985165E+03</rscale>
<asrwt>0</asrwt>
<pdfrwt beam="1">  1        1 0.26988709E+00 0.67672715E+03</pdfrwt>
<pdfrwt beam="2">  1       -1 0.55330460E-01 0.67672715E+03</pdfrwt>
<totfact> 0.15195010E+01</totfact>
</mgrwt>
</event>
<event>
 4    1  0.1521315E-007  0.8243720E+03  0.7818608E-02  0.9660383E-01
          1   -1    0    0  501    0  0.00000000000E+00  0.00000000000E+00  0.89566616044E+03  0.89566616046E+03  0.50400000000E-02 0. -1.
         -1   -1    0    0    0  501 -0.00000000000E+00 -0.00000000000E+00 -0.13181596160E+04  0.13181596160E+04  0.50400000000E-02 0.  1.
    8880023    1    1    2    0    0 -0.47449572272E+03  0.14364138144E+03  0.63190469134E+03  0.10386976377E+04  0.65864270000E+03 0. -1.
    8880022    1    1    2    0    0  0.47449572272E+03 -0.14364138144E+03 -0.10543981469E+04  0.11751281388E+04  0.15294330000E+03 0.  0.
<mgrwt>
<rscale>  0 0.73425330E+03</rscale>
<asrwt>0</asrwt>
<pdfrwt beam="1">  1        1 0.13779479E+00 0.82437203E+03</pdfrwt>
<pdfrwt beam="2">  1       -1 0.20279379E+00 0.82437203E+03</pdfrwt>
<totfact> 0.27176885E+00</totfact>
</mgrwt>
</event>
<event>
 4    1  0.1521315E-007  0.1396125E+04  0.7818608E-02  0.8986700E-01
          1   -1    0    0  501    0  0.00000000000E+00  0.00000000000E+00  0.23920058164E+04  0.23920058164E+04  0.50400000000E-02 0. -1.
         -1   -1    0    0    0  501 -0.00000000000E+00 -0.00000000000E+00 -0.10098880652E+04  0.10098880652E+04  0.50400000000E-02 0.  1.
    8880023    1    1    2    0    0  0.53985191563E+03 -0.11063067444E+04  0.16202526180E+04  0.21387808340E+04  0.65864270000E+03 0.  0.
    8880022    1    1    2    0    0 -0.53985191563E+03  0.11063067444E+04 -0.23813486681E+03  0.12631130477E+04  0.15294330000E+03 0.  0.
<mgrwt>
<rscale>  0 0.13554675E+04</rscale>
<asrwt>0</asrwt>
<pdfrwt beam="1">  1        1 0.36800089E+00 0.13961250E+04</pdfrwt>
<pdfrwt beam="2">  1       -1 0.15536740E+00 0.13961250E+04</pdfrwt>
<totfact> 0.49009394E-01</totfact>
</mgrwt>
</event>
<event>
 4    1  0.1521315E-007  0.6768004E+03  0.7818608E-02  0.1011195E+00
          1   -1    0    0  501    0  0.00000000000E+00  0.00000000000E+00  0.94130023399E+03  0.94130023400E+03  0.50400000000E-02 0. -1.
         -1   -1    0    0    0  501 -0.00000000000E+00 -0.00000000000E+00 -0.31049303905E+03  0.31049303909E+03  0.50400000000E-02 0.  1.
    8880023    1    1    2    0    0  0.12588196286E+02 -0.15520998986E+03  0.74411740896E+03  0.10058675500E+04  0.65864270000E+03 0. -1.
    8880022    1    1    2    0    0 -0.12588196286E+02  0.15520998986E+03 -0.11331021402E+03  0.24592572305E+03  0.15294330000E+03 0.  0.
<mgrwt>
<rscale>  0 0.51002590E+03</rscale>
<asrwt>0</asrwt>
<pdfrwt beam="1">  1        1 0.14481542E+00 0.67680042E+03</pdfrwt>
<pdfrwt beam="2">  1       -1 0.47768161E-01 0.67680042E+03</pdfrwt>
<totfact> 0.75782367E+01</totfact>
</mgrwt>
</event>
<event>
 4    1  0.1521315E-007  0.7707751E+03  0.7818608E-02  0.9777970E-01
         -1   -1    0    0    0  501 -0.00000000000E+00  0.00000000000E+00  0.33636182151E+03  0.33636182155E+03  0.50400000000E-02 0.  1.
          1   -1    0    0  501    0  0.00000000000E+00 -0.00000000000E+00 -0.23012697650E+04  0.23012697651E+04  0.50400000000E-02 0. -1.
    8880023    1    1    2    0    0  0.78080960077E+02  0.39266711438E+03 -0.20592700372E+04  0.21987922575E+04  0.65864270000E+03 0. -1.
    8880022    1    1    2    0    0 -0.78080960077E+02 -0.39266711438E+03  0.94362093689E+02  0.43883932912E+03  0.15294330000E+03 0.  0.
<mgrwt>
<rscale>  0 0.66558304E+03</rscale>
<asrwt>0</asrwt>
<pdfrwt beam="1">  1        1 0.35404149E+00 0.77077513E+03</pdfrwt>
<pdfrwt beam="2">  1       -1 0.51747974E-01 0.77077513E+03</pdfrwt>
<totfact> 0.73238055E+00</totfact>
</mgrwt>
</event>
<event>
 4    1  0.1521315E-007  0.9085266E+03  0.7818608E-02  0.9512480E-01
         -1   -1    0    0    0  501 -0.00000000000E+00  0.00000000000E+00  0.57480177100E+03  0.57480177103E+03  0.50400000000E-02 0.  1.
          1   -1    0    0  501    0  0.00000000000E+00 -0.00000000000E+00 -0.17404413303E+04  0.17404413303E+04  0.50400000000E-02 0. -1.
    8880023    1    1    2    0    0  0.56433504068E+03  0.27043723050E+03 -0.13660497963E+04  0.16405830019E+04  0.65864270000E+03 0.  0.
    8880022    1    1    2    0    0 -0.56433504068E+03 -0.27043723050E+03  0.20041023696E+03  0.67466009951E+03  0.15294330000E+03 0.  0.
<mgrwt>
<rscale>  0 0.83369942E+03</rscale>
<asrwt>0</asrwt>
<pdfrwt beam="1">  1        1 0.26776020E+00 0.90852658E+03</pdfrwt>
<pdfrwt beam="2">  1       -1 0.88431042E-01 0.90852658E+03</pdfrwt>
<totfact> 0.57293426E+00</totfact>
</mgrwt>
</event>
<event>
 4    1  0.1521315E-007  0.1165786E+04  0.7818608E-02  0.9191120E-01
         -1   -1    0    0    0  501 -0.00000000000E+00  0.00000000000E+00  0.16493384612E+04  0.16493384612E+04  0.50400000000E-02 0.  1.
          1   -1    0    0  501    0  0.00000000000E+00 -0.00000000000E+00 -0.81697170905E+03  0.81697170906E+03  0.50400000000E-02 0. -1.
    8880023    1    1    2    0    0 -0.49921290588E+03  0.82221247815E+03 -0.28907044191E+02  0.11661443770E+04  0.65864270000E+03 0. -1.
    8880022    1    1    2    0    0  0.49921290588E+03 -0.82221247815E+03  0.86127379635E+03  0.13001657932E+04  0.15294330000E+03 0.  0.
<mgrwt>
<rscale>  0 0.11145556E+04</rscale>
<asrwt>0</asrwt>
<pdfrwt beam="1">  1        1 0.12568795E+00 0.11657860E+04</pdfrwt>
<pdfrwt beam="2">  1       -1 0.25374438E+00 0.11657860E+04</pdfrwt>
<totfact> 0.13911600E+00</totfact>
</mgrwt>
</event>
<event>
 4    1  0.1521315E-007  0.6751376E+03  0.7818608E-02  0.1012220E+00
         -1   -1    0    0    0  501 -0.00000000000E+00  0.00000000000E+00  0.23738823690E+04  0.23738823690E+04  0.50400000000E-02 0.  1.
          1   -1    0    0  501    0  0.00000000000E+00 -0.00000000000E+00 -0.39658349505E+03  0.39658349508E+03  0.50400000000E-02 0. -1.
    8880023    1    1    2    0    0 -0.14316088849E+03 -0.38801568564E+02 -0.99795334685E+02  0.68247338175E+03  0.65864270000E+03 0. -1.
    8880022    1    1    2    0    0  0.14316088849E+03  0.38801568564E+02  0.20770942086E+04  0.20879924823E+04  0.15294330000E+03 0.  0.
<mgrwt>
<rscale>  0 0.50601915E+03</rscale>
<asrwt>0</asrwt>
<pdfrwt beam="1">  1        1 0.61012844E-01 0.67513762E+03</pdfrwt>
<pdfrwt beam="2">  1       -1 0.36521268E+00 0.67513762E+03</pdfrwt>
<totfact> 0.80751324E-01</totfact>
</mgrwt>
</event>
<event>
 4    1  0.1521315E-007  0.1175075E+04  0.7818608E-02  0.9181740E-01
          1   -1    0    0  501    0  0.00000000000E+00  0.00000000000E+00  0.60404254726E+03  0.60404254729E+03  0.50400000000E-02 0. -1.
         -1   -1    0    0    0  501 -0.00000000000E+00 -0.00000000000E+00 -0.23091821669E+04  0.23091821669E+04  0.50400000000E-02 0.  1.
    8880023    1    1    2    0    0 -0.97313254289E+03 -0.22680401073E+01 -0.32792859069E+03  0.12199751870E+04  0.65864270000E+03 0.  0.
    8880022    1    1    2    0    0  0.97313254289E+03  0.22680401073E+01 -0.13772110289E+04  0.16932495271E+04  0.15294330000E+03 0.  0.
<mgrwt>
<rscale>  0 0.11243907E+04</rscale>
<asrwt>0</asrwt>
<pdfrwt beam="1">  1        1 0.92929624E-01 0.11750754E+04</pdfrwt>
<pdfrwt beam="2">  1       -1 0.35525879E+00 0.11750754E+04</pdfrwt>
<totfact> 0.48464417E-01</totfact>
</mgrwt>
</event>
<event>
 4    1  0.1521315E-007  0.6700471E+03  0.7818608E-02  0.1015629E+00
         -1   -1    0    0    0  501 -0.00000000000E+00  0.00000000000E+00  0.10881961919E+03  0.10881961930E+03  0.50400000000E-02 0.  1.
          1   -1    0    0  501    0  0.00000000000E+00 -0.00000000000E+00 -0.24144577607E+04  0.24144577607E+04  0.50400000000E-02 0. -1.
    8880023    1    1    2    0    0  0.11643552924E+02  0.12254504121E+03 -0.22011530828E+04  0.23008776499E+04  0.65864270000E+03 0. -1.
    8880022    1    1    2    0    0 -0.11643552924E+02 -0.12254504121E+03 -0.10448505867E+03  0.22239973011E+03  0.15294330000E+03 0.  0.
<mgrwt>
<rscale>  0 0.49297432E+03</rscale>
<asrwt>0</asrwt>
<pdfrwt beam="1">  1        1 0.37145500E+00 0.67004706E+03</pdfrwt>
<pdfrwt beam="2">  1       -1 0.16741482E-01 0.67004706E+03</pdfrwt>
<totfact> 0.44907977E+01</totfact>
</mgrwt>
</event>
<event>
 4    1  0.1521315E-007  0.7542319E+03  0.7818608E-02  0.9820276E-01
         -1   -1    0    0    0  501 -0.00000000000E+00  0.00000000000E+00  0.10970222276E+04  0.10970222276E+04  0.50400000000E-02 0.  1.
          1   -1    0    0  501    0  0.00000000000E+00 -0.00000000000E+00 -0.47187949349E+03  0.47187949352E+03  0.50400000000E-02 0. -1.
    8880023    1    1    2    0    0 -0.36727965765E+03  0.12697313796E+02 -0.80718885515E+02  0.75853893337E+03  0.65864270000E+03 0. -1.
    8880022    1    1    2    0    0  0.36727965765E+03 -0.12697313796E+02  0.70586161958E+03  0.81036278772E+03  0.15294330000E+03 0.  0.
<mgrwt>
<rscale>  0 0.64285682E+03</rscale>
<asrwt>0</asrwt>
<pdfrwt beam="1">  1        1 0.72596846E-01 0.75423191E+03</pdfrwt>
<pdfrwt beam="2">  1       -1 0.16877265E+00 0.75423191E+03</pdfrwt>
<totfact> 0.12403920E+01</totfact>
</mgrwt>
</event>
<event>
 4    1  0.1521315E-007  0.1411589E+04  0.7818608E-02  0.8974730E-01
          1   -1    0    0  501    0  0.00000000000E+00  0.00000000000E+00  0.21319201735E+04  0.21319201735E+04  0.50400000000E-02 0. -1.
         -1   -1    0    0    0  501 -0.00000000000E+00 -0.00000000000E+00 -0.91430441231E+03  0.91430441233E+03  0.50400000000E-02 0.  1.
    8880023    1    1    2    0    0  0.89794528819E+03  0.86744828910E+03  0.10870104327E+04  0.17816212173E+04  0.65864270000E+03 0.  0.
    8880022    1    1    2    0    0 -0.89794528819E+03 -0.86744828910E+03  0.13060532845E+03  0.12646033685E+04  0.15294330000E+03 0.  0.
<mgrwt>
<rscale>  0 0.13714739E+04</rscale>
<asrwt>0</asrwt>
<pdfrwt beam="1">  1        1 0.32798771E+00 0.14115886E+04</pdfrwt>
<pdfrwt beam="2">  1       -1 0.14066222E+00 0.14115886E+04</pdfrwt>
<totfact> 0.96321901E-01</totfact>
</mgrwt>
</event>
<event>
 4    1  0.1521315E-007  0.6613962E+03  0.7818608E-02  0.1022770E+00
         -1   -1    0    0    0  501 -0.00000000000E+00  0.00000000000E+00  0.60502900158E+03  0.60502900160E+03  0.50400000000E-02 0.  1.
          1   -1    0    0  501    0  0.00000000000E+00 -0.00000000000E+00 -0.30481618562E+03  0.30481618566E+03  0.50400000000E-02 0. -1.
    8880023    1    1    2    0    0  0.54125681922E+02 -0.26553238266E+02  0.13161643233E+03  0.67436470506E+03  0.65864270000E+03 0. -1.
    8880022    1    1    2    0    0 -0.54125681922E+02  0.26553238266E+02  0.16859638364E+03  0.23548048220E+03  0.15294330000E+03 0.  1.
<mgrwt>
<rscale>  0 0.46700293E+03</rscale>
<asrwt>0</asrwt>
<pdfrwt beam="1">  1        1 0.46894798E-01 0.66139615E+03</pdfrwt>
<pdfrwt beam="2">  1       -1 0.93081384E-01 0.66139615E+03</pdfrwt>
<totfact> 0.98423625E+01</totfact>
</mgrwt>
</event>
<event>
 4    1  0.1865364E-007  0.1185329E+04  0.7818608E-02  0.9171517E-01
         -1   -1    0    0    0  501 -0.00000000000E+00  0.00000000000E+00  0.12333369463E+04  0.12333369463E+04  0.50400000000E-02 0.  1.
          1   -1    0    0  501    0  0.00000000000E+00 -0.00000000000E+00 -0.24107727846E+04  0.24107727846E+04  0.50400000000E-02 0. -1.
    8880023    1    1    2    0    0 -0.43674291083E+03  0.88343076294E+03 -0.20176449879E+04  0.23400632014E+04  0.65864270000E+03 0.  0.
    8880022    1    1    2    0    0  0.43674291083E+03 -0.88343076294E+03  0.84020914957E+03  0.13040465295E+04  0.15294330000E+03 0.  0.
<mgrwt>
<rscale>  0 0.11352315E+04</rscale>
<asrwt>0</asrwt>
<pdfrwt beam="1">  1        1 0.37088812E+00 0.11853289E+04</pdfrwt>
<pdfrwt beam="2">  1       -1 0.18974415E+00 0.11853289E+04</pdfrwt>
<totfact> 0.27352738E-01</totfact>
</mgrwt>
</event>
<event>
 4    1  0.1521315E-007  0.1016021E+04  0.7818608E-02  0.9360891E-01
          1   -1    0    0  501    0  0.00000000000E+00  0.00000000000E+00  0.19164148370E+04  0.19164148370E+04  0.50400000000E-02 0. -1.
         -1   -1    0    0    0  501 -0.00000000000E+00 -0.00000000000E+00 -0.65303874590E+03  0.65303874592E+03  0.50400000000E-02 0.  1.
    8880023    1    1    2    0    0  0.29339903940E+03 -0.71582555866E+03 -0.72045621981E+02  0.10185725328E+04  0.65864270000E+03 0.  1.
    8880022    1    1    2    0    0 -0.29339903940E+03  0.71582555866E+03  0.13354217131E+04  0.15508810501E+04  0.15294330000E+03 0.  0.
<mgrwt>
<rscale>  0 0.95365334E+03</rscale>
<asrwt>0</asrwt>
<pdfrwt beam="1">  1        1 0.29483305E+00 0.10160214E+04</pdfrwt>
<pdfrwt beam="2">  1       -1 0.10046750E+00 0.10160214E+04</pdfrwt>
<totfact> 0.32274728E+00</totfact>
</mgrwt>
</event>
<event>
 4    1  0.1521315E-007  0.1134131E+04  0.7818608E-02  0.9223974E-01
         -1   -1    0    0    0  501 -0.00000000000E+00  0.00000000000E+00  0.13100438639E+04  0.13100438639E+04  0.50400000000E-02 0.  1.
          1   -1    0    0  501    0  0.00000000000E+00 -0.00000000000E+00 -0.12366932983E+04  0.12366932983E+04  0.50400000000E-02 0. -1.
    8880023    1    1    2    0    0 -0.79579310932E+03 -0.46814170110E+03 -0.69993994892E+03  0.13327300790E+04  0.65864270000E+03 0. -1.
    8880022    1    1    2    0    0  0.79579310932E+03  0.46814170110E+03  0.77329051454E+03  0.12140070832E+04  0.15294330000E+03 0.  0.
<mgrwt>
<rscale>  0 0.10809367E+04</rscale>
<asrwt>0</asrwt>
<pdfrwt beam="1">  1        1 0.19026051E+00 0.11341312E+04</pdfrwt>
<pdfrwt beam="2">  1       -1 0.20154521E+00 0.11341312E+04</pdfrwt>
<totfact> 0.14575584E+00</totfact>
</mgrwt>
</event>
<event>
 4    1  0.1521315E-007  0.6787621E+03  0.7818608E-02  0.1010033E+00
         -1   -1    0    0    0  501 -0.00000000000E+00  0.00000000000E+00  0.54040663140E+03  0.54040663142E+03  0.50400000000E-02 0.  1.
          1   -1    0    0  501    0  0.00000000000E+00 -0.00000000000E+00 -0.13014008104E+04  0.13014008104E+04  0.50400000000E-02 0. -1.
    8880023    1    1    2    0    0 -0.12371979665E+03  0.10770902062E+03 -0.11830076543E+04  0.13639007067E+04  0.65864270000E+03 0. -1.
    8880022    1    1    2    0    0  0.12371979665E+03 -0.10770902062E+03  0.42201347529E+03  0.47790673520E+03  0.15294330000E+03 0.  0.
<mgrwt>
<rscale>  0 0.51461641E+03</rscale>
<asrwt>0</asrwt>
<pdfrwt beam="1">  1        1 0.20021551E+00 0.67876213E+03</pdfrwt>
<pdfrwt beam="2">  1       -1 0.83139482E-01 0.67876213E+03</pdfrwt>
<totfact> 0.13547027E+01</totfact>
</mgrwt>
</event>
<event>
 4    1  0.1521315E-007  0.7104776E+03  0.7818608E-02  0.9956232E-01
          1   -1    0    0  501    0  0.00000000000E+00  0.00000000000E+00  0.33901799617E+04  0.33901799618E+04  0.50400000000E-02 0. -1.
         -1   -1    0    0    0  501 -0.00000000000E+00 -0.00000000000E+00 -0.20535695590E+03  0.20535695597E+03  0.50400000000E-02 0.  1.
    8880023    1    1    2    0    0  0.26630549963E+03  0.70426154024E+01  0.32096600283E+04  0.32873539392E+04  0.65864270000E+03 0. -1.
    8880022    1    1    2    0    0 -0.26630549963E+03 -0.70426154024E+01 -0.24837022497E+02  0.30818297855E+03  0.15294330000E+03 0.  0.
<mgrwt>
<rscale>  0 0.57611769E+03</rscale>
<asrwt>0</asrwt>
<pdfrwt beam="1">  1        1 0.52156616E+00 0.71047760E+03</pdfrwt>
<pdfrwt beam="2">  1       -1 0.31593377E-01 0.71047760E+03</pdfrwt>
<totfact> 0.30867775E+00</totfact>
</mgrwt>
</event>
<event>
 4    1  0.1521315E-007  0.7028889E+03  0.7818608E-02  0.9985422E-01
          1   -1    0    0  501    0  0.00000000000E+00  0.00000000000E+00  0.32657023343E+04  0.32657023343E+04  0.50400000000E-02 0. -1.
         -1   -1    0    0    0  501 -0.00000000000E+00 -0.00000000000E+00 -0.14243118427E+03  0.14243118436E+03  0.50400000000E-02 0.  1.
    8880023    1    1    2    0    0 -0.23715926987E+03  0.63230201747E+02  0.30205227302E+04  0.31012272325E+04  0.65864270000E+03 0. -1.
    8880022    1    1    2    0    0  0.23715926987E+03 -0.63230201747E+02  0.10274841985E+03  0.30690628618E+03  0.15294330000E+03 0.  0.
<mgrwt>
<rscale>  0 0.56294117E+03</rscale>
<asrwt>0</asrwt>
<pdfrwt beam="1">  1        1 0.50241578E+00 0.70288888E+03</pdfrwt>
<pdfrwt beam="2">  1       -1 0.21912488E-01 0.70288888E+03</pdfrwt>
<totfact> 0.71784387E+00</totfact>
</mgrwt>
</event>
<event>
 4    1  0.1521315E-007  0.8966616E+03  0.7818608E-02  0.9531412E-01
         -1   -1    0    0    0  501 -0.00000000000E+00  0.00000000000E+00  0.14549152050E+04  0.14549152050E+04  0.50400000000E-02 0.  1.
          1   -1    0    0  501    0  0.00000000000E+00 -0.00000000000E+00 -0.59727343267E+03  0.59727343270E+03  0.50400000000E-02 0. -1.
    8880023    1    1    2    0    0 -0.44487032543E+03 -0.41506893863E+03 -0.10539117908E+03  0.90283405848E+03  0.65864270000E+03 0. -1.
    8880022    1    1    2    0    0  0.44487032543E+03  0.41506893863E+03  0.96303295139E+03  0.11493545792E+04  0.15294330000E+03 0.  0.
<mgrwt>
<rscale>  0 0.82007022E+03</rscale>
<asrwt>0</asrwt>
<pdfrwt beam="1">  1        1 0.91888222E-01 0.89666161E+03</pdfrwt>
<pdfrwt beam="2">  1       -1 0.22383311E+00 0.89666161E+03</pdfrwt>
<totfact> 0.36425416E+00</totfact>
</mgrwt>
</event>
<event>
 4    1  0.1521315E-007  0.8197846E+03  0.7818608E-02  0.9669545E-01
         -1   -1    0    0    0  501 -0.00000000000E+00  0.00000000000E+00  0.82363018692E+03  0.82363018694E+03  0.50400000000E-02 0.  1.
          1   -1    0    0  501    0  0.00000000000E+00 -0.00000000000E+00 -0.68120467883E+03  0.68120467884E+03  0.50400000000E-02 0. -1.
    8880023    1    1    2    0    0  0.21138592852E+03  0.43994612211E+03 -0.25341543813E+03  0.85805955019E+03  0.65864270000E+03 0.  0.
    8880022    1    1    2    0    0 -0.21138592852E+03 -0.43994612211E+03  0.39584094622E+03  0.64677531559E+03  0.15294330000E+03 0.  0.
<mgrwt>
<rscale>  0 0.72859368E+03</rscale>
<asrwt>0</asrwt>
<pdfrwt beam="1">  1        1 0.10480072E+00 0.81978461E+03</pdfrwt>
<pdfrwt beam="2">  1       -1 0.12671234E+00 0.81978461E+03</pdfrwt>
<totfact> 0.15664893E+01</totfact>
</mgrwt>
</event>
<event>
 4    1  0.1521315E-007  0.7126249E+03  0.7818608E-02  0.9948380E-01
         -1   -1    0    0    0  501 -0.00000000000E+00  0.00000000000E+00  0.29926891616E+03  0.29926891620E+03  0.50400000000E-02 0.  1.
          1   -1    0    0  501    0  0.00000000000E+00 -0.00000000000E+00 -0.10713749206E+04  0.10713749206E+04  0.50400000000E-02 0. -1.
    8880023    1    1    2    0    0 -0.97512311891E+02 -0.25399876255E+03 -0.78248586568E+03  0.10583564421E+04  0.65864270000E+03 0. -1.
    8880022    1    1    2    0    0  0.97512311891E+02  0.25399876255E+03  0.10379861230E+02  0.31228739469E+03  0.15294330000E+03 0.  0.
<mgrwt>
<rscale>  0 0.57972809E+03</rscale>
<asrwt>0</asrwt>
<pdfrwt beam="1">  1        1 0.16482691E+00 0.71262489E+03</pdfrwt>
<pdfrwt beam="2">  1       -1 0.46041372E-01 0.71262489E+03</pdfrwt>
<totfact> 0.64193397E+01</totfact>
</mgrwt>
</event>
<event>
 4    1  0.1521315E-007  0.9712796E+03  0.7818608E-02  0.9420137E-01
         -1   -1    0    0    0  501 -0.00000000000E+00  0.00000000000E+00  0.43774220393E+03  0.43774220396E+03  0.50400000000E-02 0.  1.
          1   -1    0    0  501    0  0.00000000000E+00 -0.00000000000E+00 -0.34668593512E+04  0.34668593512E+04  0.50400000000E-02 0. -1.
    8880023    1    1    2    0    0 -0.68464511112E+03 -0.20207640226E+03 -0.30222878074E+04  0.31745247829E+04  0.65864270000E+03 0. -1.
    8880022    1    1    2    0    0  0.68464511112E+03  0.20207640226E+03 -0.68293399328E+01  0.73007677228E+03  0.15294330000E+03 0.  0.
<mgrwt>
<rscale>  0 0.90436880E+03</rscale>
<asrwt>0</asrwt>
<pdfrwt beam="1">  1        1 0.53336296E+00 0.97127957E+03</pdfrwt>
<pdfrwt beam="2">  1       -1 0.67344957E-01 0.97127957E+03</pdfrwt>
<totfact> 0.61891444E-01</totfact>
</mgrwt>
</event>
<event>
 4    1  0.1521315E-007  0.8367437E+03  0.7818608E-02  0.9636351E-01
         -1   -1    0    0    0  501 -0.00000000000E+00  0.00000000000E+00  0.30540955335E+03  0.30540955339E+03  0.50400000000E-02 0.  1.
          1   -1    0    0  501    0  0.00000000000E+00 -0.00000000000E+00 -0.24374892144E+04  0.24374892144E+04  0.50400000000E-02 0. -1.
    8880023    1    1    2    0    0  0.34160511364E+03  0.38682785911E+03 -0.39681050926E+03  0.92606621403E+03  0.65864270000E+03 0.  0.
    8880022    1    1    2    0    0 -0.34160511364E+03 -0.38682785911E+03 -0.17352691517E+04  0.18168325537E+04  0.15294330000E+03 0.  0.
<mgrwt>
<rscale>  0 0.74936247E+03</rscale>
<asrwt>0</asrwt>
<pdfrwt beam="1">  1        1 0.37499833E+00 0.83674372E+03</pdfrwt>
<pdfrwt beam="2">  1       -1 0.46986087E-01 0.83674372E+03</pdfrwt>
<totfact> 0.70330450E+00</totfact>
</mgrwt>
</event>
<event>
 4    1  0.1521315E-007  0.6918608E+03  0.7818608E-02  0.1003280E+00
         -1   -1    0    0    0  501 -0.00000000000E+00  0.00000000000E+00  0.78693224028E+03  0.78693224030E+03  0.50400000000E-02 0.  1.
          1   -1    0    0  501    0  0.00000000000E+00 -0.00000000000E+00 -0.10904838925E+04  0.10904838925E+04  0.50400000000E-02 0. -1.
    8880023    1    1    2    0    0 -0.18097745940E+03 -0.11003781011E+03 -0.95284547032E+03  0.11775338029E+04  0.65864270000E+03 0. -1.
    8880022    1    1    2    0    0  0.18097745940E+03  0.11003781011E+03  0.64929381809E+03  0.69988232989E+03  0.15294330000E+03 0.  0.
<mgrwt>
<rscale>  0 0.54234934E+03</rscale>
<asrwt>0</asrwt>
<pdfrwt beam="1">  1        1 0.16776675E+00 0.69186080E+03</pdfrwt>
<pdfrwt beam="2">  1       -1 0.12106650E+00 0.69186080E+03</pdfrwt>
<totfact> 0.81498015E+00</totfact>
</mgrwt>
</event>
<event>
 4    1  0.1521315E-007  0.7918122E+03  0.7818608E-02  0.9728788E-01
         -1   -1    0    0    0  501 -0.00000000000E+00  0.00000000000E+00  0.66975503782E+03  0.66975503784E+03  0.50400000000E-02 0.  1.
          1   -1    0    0  501    0  0.00000000000E+00 -0.00000000000E+00 -0.16562535977E+04  0.16562535977E+04  0.50400000000E-02 0. -1.
    8880023    1    1    2    0    0  0.16553651658E+03 -0.40712890962E+03 -0.14607686360E+04  0.16615689879E+04  0.65864270000E+03 0. -1.
    8880022    1    1    2    0    0 -0.16553651658E+03  0.40712890962E+03  0.47427007607E+03  0.66443964770E+03  0.15294330000E+03 0.  0.
<mgrwt>
<rscale>  0 0.69328353E+03</rscale>
<asrwt>0</asrwt>
<pdfrwt beam="1">  1        1 0.25480824E+00 0.79181216E+03</pdfrwt>
<pdfrwt beam="2">  1       -1 0.10303924E+00 0.79181216E+03</pdfrwt>
<totfact> 0.47111071E+00</totfact>
</mgrwt>
</event>
<event>
 4    1  0.1521315E-007  0.7917216E+03  0.7818608E-02  0.9728990E-01
         -1   -1    0    0    0  501 -0.00000000000E+00  0.00000000000E+00  0.24042853928E+03  0.24042853933E+03  0.50400000000E-02 0.  1.
          1   -1    0    0  501    0  0.00000000000E+00 -0.00000000000E+00 -0.18816245555E+04  0.18816245555E+04  0.50400000000E-02 0. -1.
    8880023    1    1    2    0    0 -0.43883496394E+03 -0.20898728559E+02 -0.13734687317E+04  0.15853199821E+04  0.65864270000E+03 0.  0.
    8880022    1    1    2    0    0  0.43883496394E+03  0.20898728559E+02 -0.26772728456E+03  0.53673311277E+03  0.15294330000E+03 0.  0.
<mgrwt>
<rscale>  0 0.69316666E+03</rscale>
<asrwt>0</asrwt>
<pdfrwt beam="1">  1        1 0.28948069E+00 0.79172160E+03</pdfrwt>
<pdfrwt beam="2">  1       -1 0.36989007E-01 0.79172160E+03</pdfrwt>
<totfact> 0.25984239E+01</totfact>
</mgrwt>
</event>
<event>
 4    1  0.1521315E-007  0.1033907E+04  0.7818608E-02  0.9338483E-01
         -1   -1    0    0    0  501 -0.00000000000E+00  0.00000000000E+00  0.49112905776E+03  0.49112905779E+03  0.50400000000E-02 0.  1.
          1   -1    0    0  501    0  0.00000000000E+00 -0.00000000000E+00 -0.34749790423E+04  0.34749790423E+04  0.50400000000E-02 0. -1.
    8880023    1    1    2    0    0 -0.59677037153E+03 -0.52822162701E+03 -0.29803512270E+04  0.31545929382E+04  0.65864270000E+03 0.  0.
    8880022    1    1    2    0    0  0.59677037153E+03  0.52822162701E+03 -0.34987575462E+01  0.81151516184E+03  0.15294330000E+03 0.  0.
<mgrwt>
<rscale>  0 0.97315984E+03</rscale>
<asrwt>0</asrwt>
<pdfrwt beam="1">  1        1 0.53461215E+00 0.10339068E+04</pdfrwt>
<pdfrwt beam="2">  1       -1 0.75558319E-01 0.10339068E+04</pdfrwt>
<totfact> 0.47548936E-01</totfact>
</mgrwt>
</event>
<event>
 4    1  0.1521315E-007  0.9844511E+03  0.7818608E-02  0.9402189E-01
          1   -1    0    0  501    0  0.00000000000E+00  0.00000000000E+00  0.66793156818E+03  0.66793156820E+03  0.50400000000E-02 0. -1.
         -1   -1    0    0    0  501 -0.00000000000E+00 -0.00000000000E+00 -0.18583100809E+04  0.18583100809E+04  0.50400000000E-02 0.  1.
    8880023    1    1    2    0    0 -0.56037168722E+03  0.47044384343E+03  0.14580733030E+03  0.99519034435E+03  0.65864270000E+03 0. -1.
    8880022    1    1    2    0    0  0.56037168722E+03 -0.47044384343E+03 -0.13361858430E+04  0.15310513047E+04  0.15294330000E+03 0.  0.
<mgrwt>
<rscale>  0 0.91895752E+03</rscale>
<asrwt>0</asrwt>
<pdfrwt beam="1">  1        1 0.10275870E+00 0.98445114E+03</pdfrwt>
<pdfrwt beam="2">  1       -1 0.28589386E+00 0.98445114E+03</pdfrwt>
<totfact> 0.12092197E+00</totfact>
</mgrwt>
</event>
<event>
 4    1  0.2661776E-007  0.7357122E+03  0.7818608E-02  0.9872618E-01
         -1   -1    0    0    0  501 -0.00000000000E+00  0.00000000000E+00  0.82179537886E+03  0.82179537887E+03  0.50400000000E-02 0.  1.
          1   -1    0    0  501    0  0.00000000000E+00 -0.00000000000E+00 -0.31254472541E+04  0.31254472541E+04  0.50400000000E-02 0. -1.
    8880023    1    1    2    0    0  0.26275385467E+03 -0.19601709535E+03 -0.30395080753E+04  0.31272802618E+04  0.65864270000E+03 0. -1.
    8880022    1    1    2    0    0 -0.26275385467E+03  0.19601709535E+03  0.73585620010E+03  0.81996237112E+03  0.15294330000E+03 0.  0.
<mgrwt>
<rscale>  0 0.61606897E+03</rscale>
<asrwt>0</asrwt>
<pdfrwt beam="1">  1        1 0.48083803E+00 0.73571224E+03</pdfrwt>
<pdfrwt beam="2">  1       -1 0.12643006E+00 0.73571224E+03</pdfrwt>
<totfact> 0.28715604E-01</totfact>
</mgrwt>
</event>
<event>
 4    1  0.1521315E-007  0.1013668E+04  0.7818608E-02  0.9363890E-01
          1   -1    0    0  501    0  0.00000000000E+00  0.00000000000E+00  0.45424036033E+03  0.45424036036E+03  0.50400000000E-02 0. -1.
         -1   -1    0    0    0  501 -0.00000000000E+00 -0.00000000000E+00 -0.21000437191E+04  0.21000437192E+04  0.50400000000E-02 0.  1.
    8880023    1    1    2    0    0 -0.25516882762E+03 -0.72705042372E+03 -0.14052834272E+04  0.17327276665E+04  0.65864270000E+03 0.  0.
    8880022    1    1    2    0    0  0.25516882762E+03  0.72705042372E+03 -0.24051993158E+03  0.82155641299E+03  0.15294330000E+03 0.  0.
<mgrwt>
<rscale>  0 0.95107952E+03</rscale>
<asrwt>0</asrwt>
<pdfrwt beam="1">  1        1 0.69883134E-01 0.10136684E+04</pdfrwt>
<pdfrwt beam="2">  1       -1 0.32308364E+00 0.10136684E+04</pdfrwt>
<totfact> 0.11997999E+00</totfact>
</mgrwt>
</event>
<event>
 4    1  0.1521315E-007  0.7446132E+03  0.7818608E-02  0.9846707E-01
          1   -1    0    0  501    0  0.00000000000E+00  0.00000000000E+00  0.64547810091E+03  0.64547810093E+03  0.50400000000E-02 0. -1.
         -1   -1    0    0    0  501 -0.00000000000E+00 -0.00000000000E+00 -0.15173437729E+04  0.15173437729E+04  0.50400000000E-02 0.  1.
    8880023    1    1    2    0    0 -0.12475245717E+03 -0.32415350981E+03  0.39320159740E+03  0.84205485329E+03  0.65864270000E+03 0. -1.
    8880022    1    1    2    0    0  0.12475245717E+03  0.32415350981E+03 -0.12650672693E+04  0.13207670205E+04  0.15294330000E+03 0.  0.
<mgrwt>
<rscale>  0 0.62915088E+03</rscale>
<asrwt>0</asrwt>
<pdfrwt beam="1">  1        1 0.99304324E-01 0.74461324E+03</pdfrwt>
<pdfrwt beam="2">  1       -1 0.23343750E+00 0.74461324E+03</pdfrwt>
<totfact> 0.28748916E+00</totfact>
</mgrwt>
</event>
<event>
 4    1  0.1521315E-007  0.7143453E+03  0.7818608E-02  0.9942206E-01
         -1   -1    0    0    0  501 -0.00000000000E+00  0.00000000000E+00  0.38864588063E+03  0.38864588067E+03  0.50400000000E-02 0.  1.
          1   -1    0    0  501    0  0.00000000000E+00 -0.00000000000E+00 -0.13080471757E+04  0.13080471757E+04  0.50400000000E-02 0. -1.
    8880023    1    1    2    0    0 -0.52477758123E+02  0.27152360843E+03  0.10642128021E+02  0.71442455598E+03  0.65864270000E+03 0.  0.
    8880022    1    1    2    0    0  0.52477758123E+02 -0.27152360843E+03 -0.93004342312E+03  0.98226850043E+03  0.15294330000E+03 0.  0.
<mgrwt>
<rscale>  0 0.58258710E+03</rscale>
<asrwt>0</asrwt>
<pdfrwt beam="1">  1        1 0.20123803E+00 0.71434529E+03</pdfrwt>
<pdfrwt beam="2">  1       -1 0.59791675E-01 0.71434529E+03</pdfrwt>
<totfact> 0.26210394E+01</totfact>
</mgrwt>
</event>
<event>
 4    1  0.1521315E-007  0.7892537E+03  0.7818608E-02  0.9734532E-01
         -1   -1    0    0    0  501 -0.00000000000E+00  0.00000000000E+00  0.41415779516E+03  0.41415779519E+03  0.50400000000E-02 0.  1.
          1   -1    0    0  501    0  0.00000000000E+00 -0.00000000000E+00 -0.21898102657E+04  0.21898102657E+04  0.50400000000E-02 0. -1.
    8880023    1    1    2    0    0 -0.24699193561E+03 -0.35791934068E+03 -0.19557935613E+04  0.21090400497E+04  0.65864270000E+03 0.  0.
    8880022    1    1    2    0    0  0.24699193561E+03  0.35791934068E+03  0.18014109073E+03  0.49492801120E+03  0.15294330000E+03 0.  1.
<mgrwt>
<rscale>  0 0.68997460E+03</rscale>
<asrwt>0</asrwt>
<pdfrwt beam="1">  1        1 0.33689388E+00 0.78925375E+03</pdfrwt>
<pdfrwt beam="2">  1       -1 0.63716585E-01 0.78925375E+03</pdfrwt>
<totfact> 0.57809594E+00</totfact>
</mgrwt>
</event>
<event>
 4    1  0.1521315E-007  0.1044403E+04  0.7818608E-02  0.9325640E-01
         -1   -1    0    0    0  501 -0.00000000000E+00  0.00000000000E+00  0.69099710859E+03  0.69099710861E+03  0.50400000000E-02 0.  1.
          1   -1    0    0  501    0  0.00000000000E+00 -0.00000000000E+00 -0.30731467405E+04  0.30731467405E+04  0.50400000000E-02 0. -1.
    8880023    1    1    2    0    0  0.73618642957E+03 -0.33911279918E+03 -0.26885132159E+04  0.28842471232E+04  0.65864270000E+03 0. -1.
    8880022    1    1    2    0    0 -0.73618642957E+03  0.33911279918E+03  0.30636358395E+03  0.87989672590E+03  0.15294330000E+03 0.  0.
<mgrwt>
<rscale>  0 0.98456292E+03</rscale>
<asrwt>0</asrwt>
<pdfrwt beam="1">  1        1 0.47279180E+00 0.10444033E+04</pdfrwt>
<pdfrwt beam="2">  1       -1 0.10630725E+00 0.10444033E+04</pdfrwt>
<totfact> 0.44626267E-01</totfact>
</mgrwt>
</event>
<event>
 4    1  0.1521315E-007  0.7342139E+03  0.7818608E-02  0.9877134E-01
         -1   -1    0    0    0  501 -0.00000000000E+00  0.00000000000E+00  0.22372220844E+03  0.22372220850E+03  0.50400000000E-02 0.  1.
          1   -1    0    0  501    0  0.00000000000E+00 -0.00000000000E+00 -0.19466330314E+04  0.19466330314E+04  0.50400000000E-02 0. -1.
    8880023    1    1    2    0    0 -0.15106316024E+03 -0.28712323857E+03 -0.16476913036E+04  0.18038726870E+04  0.65864270000E+03 0. -1.
    8880022    1    1    2    0    0  0.15106316024E+03  0.28712323857E+03 -0.75219519355E+02  0.36648255295E+03  0.15294330000E+03 0.  0.
<mgrwt>
<rscale>  0 0.61382391E+03</rscale>
<asrwt>0</asrwt>
<pdfrwt beam="1">  1        1 0.29948199E+00 0.73421389E+03</pdfrwt>
<pdfrwt beam="2">  1       -1 0.34418803E-01 0.73421389E+03</pdfrwt>
<totfact> 0.26936249E+01</totfact>
</mgrwt>
</event>
<event>
 4    1  0.1521315E-007  0.7681635E+03  0.7818608E-02  0.9784414E-01
          1   -1    0    0  501    0  0.00000000000E+00  0.00000000000E+00  0.26749537653E+04  0.26749537653E+04  0.50400000000E-02 0. -1.
         -1   -1    0    0    0  501 -0.00000000000E+00 -0.00000000000E+00 -0.45585280638E+03  0.45585280641E+03  0.50400000000E-02 0.  1.
    8880023    1    1    2    0    0  0.39175651579E+03  0.52837205292E+02  0.25046073044E+04  0.26197581746E+04  0.65864270000E+03 0.  0.
    8880022    1    1    2    0    0 -0.39175651579E+03 -0.52837205292E+02 -0.28550634543E+03  0.51104839715E+03  0.15294330000E+03 0.  0.
<mgrwt>
<rscale>  0 0.66205739E+03</rscale>
<asrwt>0</asrwt>
<pdfrwt beam="1">  1        1 0.41153135E+00 0.76816349E+03</pdfrwt>
<pdfrwt beam="2">  1       -1 0.70131201E-01 0.76816349E+03</pdfrwt>
<totfact> 0.22335851E+00</totfact>
</mgrwt>
</event>
<event>
 4    1  0.1521315E-007  0.6933685E+03  0.7818608E-02  0.1002591E+00
          1   -1    0    0  501    0  0.00000000000E+00  0.00000000000E+00  0.11494631286E+04  0.11494631286E+04  0.50400000000E-02 0. -1.
         -1   -1    0    0    0  501 -0.00000000000E+00 -0.00000000000E+00 -0.31701295241E+03  0.31701295245E+03  0.50400000000E-02 0.  1.
    8880023    1    1    2    0    0 -0.12237785509E+03  0.17881069214E+03  0.95020880661E+03  0.11762893290E+04  0.65864270000E+03 0. -1.
    8880022    1    1    2    0    0  0.12237785509E+03 -0.17881069214E+03 -0.11775863041E+03  0.29018675209E+03  0.15294330000E+03 0.  0.
<mgrwt>
<rscale>  0 0.54528597E+03</rscale>
<asrwt>0</asrwt>
<pdfrwt beam="1">  1        1 0.17684049E+00 0.69336845E+03</pdfrwt>
<pdfrwt beam="2">  1       -1 0.48771222E-01 0.69336845E+03</pdfrwt>
<totfact> 0.50529935E+01</totfact>
</mgrwt>
</event>
<event>
 4    1  0.1521315E-007  0.7272530E+03  0.7818608E-02  0.9898767E-01
          1   -1    0    0  501    0  0.00000000000E+00  0.00000000000E+00  0.11563146861E+04  0.11563146861E+04  0.50400000000E-02 0. -1.
         -1   -1    0    0    0  501 -0.00000000000E+00 -0.00000000000E+00 -0.36547129644E+03  0.36547129647E+03  0.50400000000E-02 0.  1.
    8880023    1    1    2    0    0 -0.25664408133E+03  0.17093998806E+03  0.90329878430E+03  0.11596747665E+04  0.65864270000E+03 0. -1.
    8880022    1    1    2    0    0  0.25664408133E+03 -0.17093998806E+03 -0.11245539468E+03  0.36211121607E+03  0.15294330000E+03 0.  0.
<mgrwt>
<rscale>  0 0.60321063E+03</rscale>
<asrwt>0</asrwt>
<pdfrwt beam="1">  1        1 0.17789456E+00 0.72725296E+03</pdfrwt>
<pdfrwt beam="2">  1       -1 0.56226354E-01 0.72725296E+03</pdfrwt>
<totfact> 0.37921073E+01</totfact>
</mgrwt>
</event>
<event>
 4    1  0.1521315E-007  0.7448648E+03  0.7818608E-02  0.9845996E-01
         -1   -1    0    0    0  501 -0.00000000000E+00  0.00000000000E+00  0.11085449867E+04  0.11085449867E+04  0.50400000000E-02 0.  1.
          1   -1    0    0  501    0  0.00000000000E+00 -0.00000000000E+00 -0.59200797567E+03  0.59200797569E+03  0.50400000000E-02 0. -1.
    8880023    1    1    2    0    0  0.34658964777E+03  0.29816509869E+02 -0.29758502296E+03  0.80211000514E+03  0.65864270000E+03 0. -1.
    8880022    1    1    2    0    0 -0.34658964777E+03 -0.29816509869E+02  0.81412203401E+03  0.89844295727E+03  0.15294330000E+03 0.  0.
<mgrwt>
<rscale>  0 0.62951474E+03</rscale>
<asrwt>0</asrwt>
<pdfrwt beam="1">  1        1 0.91078151E-01 0.74486483E+03</pdfrwt>
<pdfrwt beam="2">  1       -1 0.17054538E+00 0.74486483E+03</pdfrwt>
<totfact> 0.87874672E+00</totfact>
</mgrwt>
</event>
<event>
 4    1  0.1521315E-007  0.6600273E+03  0.7818608E-02  0.1024128E+00
         -1   -1    0    0    0  501 -0.00000000000E+00  0.00000000000E+00  0.11717030882E+04  0.11717030882E+04  0.50400000000E-02 0.  1.
          1   -1    0    0  501    0  0.00000000000E+00 -0.00000000000E+00 -0.18931302895E+03  0.18931302901E+03  0.50400000000E-02 0. -1.
    8880023    1    1    2    0    0  0.16994435744E+02 -0.39204669596E+02  0.43359906758E+03  0.78971145024E+03  0.65864270000E+03 0. -1.
    8880022    1    1    2    0    0 -0.16994435744E+02  0.39204669596E+02  0.54879099166E+03  0.57130466698E+03  0.15294330000E+03 0.  0.
<mgrwt>
<rscale>  0 0.46225765E+03</rscale>
<asrwt>0</asrwt>
<pdfrwt beam="1">  1        1 0.29125082E-01 0.66002729E+03</pdfrwt>
<pdfrwt beam="2">  1       -1 0.18026201E+00 0.66002729E+03</pdfrwt>
<totfact> 0.34140116E+01</totfact>
</mgrwt>
</event>
<event>
 4    1  0.1521315E-007  0.6955360E+03  0.7818608E-02  0.1001625E+00
         -1   -1    0    0    0  501 -0.00000000000E+00  0.00000000000E+00  0.11064946554E+03  0.11064946566E+03  0.50400000000E-02 0.  1.
          1   -1    0    0  501    0  0.00000000000E+00 -0.00000000000E+00 -0.23256302929E+04  0.23256302929E+04  0.50400000000E-02 0. -1.
    8880023    1    1    2    0    0  0.22239633058E+03  0.22361308860E+02 -0.12122060169E+04  0.13975742519E+04  0.65864270000E+03 0.  1.
    8880022    1    1    2    0    0 -0.22239633058E+03 -0.22361308860E+02 -0.10027748105E+04  0.10387055066E+04  0.15294330000E+03 0.  0.
<mgrwt>
<rscale>  0 0.54943469E+03</rscale>
<asrwt>0</asrwt>
<pdfrwt beam="1">  1        1 0.35778924E+00 0.69553603E+03</pdfrwt>
<pdfrwt beam="2">  1       -1 0.17022996E-01 0.69553603E+03</pdfrwt>
<totfact> 0.49995530E+01</totfact>
</mgrwt>
</event>
<event>
 4    1  0.1521315E-007  0.7898895E+03  0.7818608E-02  0.9733099E-01
          1   -1    0    0  501    0  0.00000000000E+00  0.00000000000E+00  0.10084362411E+04  0.10084362411E+04  0.50400000000E-02 0. -1.
         -1   -1    0    0    0  501 -0.00000000000E+00 -0.00000000000E+00 -0.39064530650E+03  0.39064530654E+03  0.50400000000E-02 0.  1.
    8880023    1    1    2    0    0 -0.33125839648E+03 -0.28351903361E+03  0.34014663968E+03  0.86001459895E+03  0.65864270000E+03 0.  0.
    8880022    1    1    2    0    0  0.33125839648E+03  0.28351903361E+03  0.27764429492E+03  0.53906694870E+03  0.15294330000E+03 0. -1.
<mgrwt>
<rscale>  0 0.69079822E+03</rscale>
<asrwt>0</asrwt>
<pdfrwt beam="1">  1        1 0.15514404E+00 0.78988947E+03</pdfrwt>
<pdfrwt beam="2">  1       -1 0.60099278E-01 0.78988947E+03</pdfrwt>
<totfact> 0.42717943E+01</totfact>
</mgrwt>
</event>
<event>
 4    1  0.1521315E-007  0.1071682E+04  0.7818608E-02  0.9293259E-01
          1   -1    0    0  501    0  0.00000000000E+00  0.00000000000E+00  0.19048790889E+04  0.19048790889E+04  0.50400000000E-02 0. -1.
         -1   -1    0    0    0  501 -0.00000000000E+00 -0.00000000000E+00 -0.91004772627E+03  0.91004772628E+03  0.50400000000E-02 0.  1.
    8880023    1    1    2    0    0 -0.66971098551E+03  0.51592622548E+03  0.14807779906E+04  0.18278966978E+04  0.65864270000E+03 0. -1.
    8880022    1    1    2    0    0  0.66971098551E+03 -0.51592622548E+03 -0.48594662799E+03  0.98703011733E+03  0.15294330000E+03 0.  0.
<mgrwt>
<rscale>  0 0.10140580E+04</rscale>
<asrwt>0</asrwt>
<pdfrwt beam="1">  1        1 0.29305832E+00 0.10716823E+04</pdfrwt>
<pdfrwt beam="2">  1       -1 0.14000734E+00 0.10716823E+04</pdfrwt>
<totfact> 0.14481896E+00</totfact>
</mgrwt>
</event>
<event>
 4    1  0.1521315E-007  0.7158575E+03  0.7818608E-02  0.9936860E-01
          1   -1    0    0  501    0  0.00000000000E+00  0.00000000000E+00  0.53508459809E+03  0.53508459811E+03  0.50400000000E-02 0. -1.
         -1   -1    0    0    0  501 -0.00000000000E+00 -0.00000000000E+00 -0.11050173095E+04  0.11050173095E+04  0.50400000000E-02 0.  1.
    8880023    1    1    2    0    0 -0.28040392449E+03  0.39160068178E+01  0.25149691464E+03  0.75875068390E+03  0.65864270000E+03 0.  0.
    8880022    1    1    2    0    0  0.28040392449E+03 -0.39160068178E+01 -0.82142962603E+03  0.88135122369E+03  0.15294330000E+03 0.  0.
<mgrwt>
<rscale>  0 0.58507654E+03</rscale>
<asrwt>0</asrwt>
<pdfrwt beam="1">  1        1 0.82320708E-01 0.71585746E+03</pdfrwt>
<pdfrwt beam="2">  1       -1 0.17000266E+00 0.71585746E+03</pdfrwt>
<totfact> 0.10268553E+01</totfact>
</mgrwt>
</event>
<event>
 4    1  0.1942915E-007  0.7032402E+03  0.7818608E-02  0.9984016E-01
          1   -1    0    0  501    0  0.00000000000E+00  0.00000000000E+00  0.20936379608E+04  0.20936379608E+04  0.50400000000E-02 0. -1.
         -1   -1    0    0    0  501 -0.00000000000E+00 -0.00000000000E+00 -0.98100537921E+03  0.98100537922E+03  0.50400000000E-02 0.  1.
    8880023    1    1    2    0    0 -0.17843819333E+03  0.16998928309E+03  0.20111047908E+04  0.21305138420E+04  0.65864270000E+03 0. -1.
    8880022    1    1    2    0    0  0.17843819333E+03 -0.16998928309E+03 -0.89847220923E+03  0.94412949799E+03  0.15294330000E+03 0.  0.
<mgrwt>
<rscale>  0 0.56356687E+03</rscale>
<asrwt>0</asrwt>
<pdfrwt beam="1">  1        1 0.32209815E+00 0.70324018E+03</pdfrwt>
<pdfrwt beam="2">  1       -1 0.15092391E+00 0.70324018E+03</pdfrwt>
<totfact> 0.94666781E-01</totfact>
</mgrwt>
</event>
<event>
 4    1  0.1521315E-007  0.6999555E+03  0.7818608E-02  0.9997386E-01
         -1   -1    0    0    0  501 -0.00000000000E+00  0.00000000000E+00  0.20544248932E+03  0.20544248938E+03  0.50400000000E-02 0.  1.
          1   -1    0    0  501    0  0.00000000000E+00 -0.00000000000E+00 -0.16831595881E+04  0.16831595881E+04  0.50400000000E-02 0. -1.
    8880023    1    1    2    0    0 -0.39427720620E+02 -0.23360858905E+03 -0.14438699296E+04  0.16045865816E+04  0.65864270000E+03 0.  0.
    8880022    1    1    2    0    0  0.39427720620E+02  0.23360858905E+03 -0.33847169220E+02  0.28401549590E+03  0.15294330000E+03 0.  0.
<mgrwt>
<rscale>  0 0.55765013E+03</rscale>
<asrwt>0</asrwt>
<pdfrwt beam="1">  1        1 0.25894762E+00 0.69995552E+03</pdfrwt>
<pdfrwt beam="2">  1       -1 0.31606538E-01 0.69995552E+03</pdfrwt>
<totfact> 0.47200517E+01</totfact>
</mgrwt>
</event>
<event>
 4    1  0.1521315E-007  0.9434594E+03  0.7818608E-02  0.9459588E-01
          1   -1    0    0  501    0  0.00000000000E+00  0.00000000000E+00  0.84231545366E+03  0.84231545368E+03  0.50400000000E-02 0. -1.
         -1   -1    0    0    0  501 -0.00000000000E+00 -0.00000000000E+00 -0.90688177571E+03  0.90688177573E+03  0.50400000000E-02 0.  1.
    8880023    1    1    2    0    0  0.14044866084E+03  0.66074171880E+03  0.26814701413E+03  0.98082540380E+03  0.65864270000E+03 0. -1.
    8880022    1    1    2    0    0 -0.14044866084E+03 -0.66074171880E+03 -0.33271333618E+03  0.76837182560E+03  0.15294330000E+03 0.  0.
<mgrwt>
<rscale>  0 0.87329968E+03</rscale>
<asrwt>0</asrwt>
<pdfrwt beam="1">  1        1 0.12958699E+00 0.94345941E+03</pdfrwt>
<pdfrwt beam="2">  1       -1 0.13952027E+00 0.94345941E+03</pdfrwt>
<totfact> 0.86690025E+00</totfact>
</mgrwt>
</event>
<event>
 4    1  0.1521315E-007  0.8026007E+03  0.7818608E-02  0.9705201E-01
         -1   -1    0    0    0  501 -0.00000000000E+00  0.00000000000E+00  0.86688600683E+03  0.86688600684E+03  0.50400000000E-02 0.  1.
          1   -1    0    0  501    0  0.00000000000E+00 -0.00000000000E+00 -0.77037367326E+03  0.77037367328E+03  0.50400000000E-02 0. -1.
    8880023    1    1    2    0    0 -0.26471883022E+03 -0.37454185999E+03 -0.43979391990E+03  0.91519755365E+03  0.65864270000E+03 0.  0.
    8880022    1    1    2    0    0  0.26471883022E+03  0.37454185999E+03  0.53630625347E+03  0.72206212647E+03  0.15294330000E+03 0.  0.
<mgrwt>
<rscale>  0 0.70707982E+03</rscale>
<asrwt>0</asrwt>
<pdfrwt beam="1">  1        1 0.11851903E+00 0.80260069E+03</pdfrwt>
<pdfrwt beam="2">  1       -1 0.13336708E+00 0.80260069E+03</pdfrwt>
<totfact> 0.11421655E+01</totfact>
</mgrwt>
</event>
<event>
 4    1  0.1521315E-007  0.7901004E+03  0.7818608E-02  0.9732625E-01
          1   -1    0    0  501    0  0.00000000000E+00  0.00000000000E+00  0.80251997519E+03  0.80251997521E+03  0.50400000000E-02 0. -1.
         -1   -1    0    0    0  501 -0.00000000000E+00 -0.00000000000E+00 -0.76577220895E+03  0.76577220897E+03  0.50400000000E-02 0.  1.
    8880023    1    1    2    0    0 -0.15272974656E+03  0.40880557354E+03  0.48268537079E+03  0.92587458432E+03  0.65864270000E+03 0.  1.
    8880022    1    1    2    0    0  0.15272974656E+03 -0.40880557354E+03 -0.44593760455E+03  0.64241759986E+03  0.15294330000E+03 0.  0.
<mgrwt>
<rscale>  0 0.69107124E+03</rscale>
<asrwt>0</asrwt>
<pdfrwt beam="1">  1        1 0.12346461E+00 0.79010036E+03</pdfrwt>
<pdfrwt beam="2">  1       -1 0.11781111E+00 0.79010036E+03</pdfrwt>
<totfact> 0.14588922E+01</totfact>
</mgrwt>
</event>
<event>
 4    1  0.1521315E-007  0.8692179E+03  0.7818608E-02  0.9577372E-01
          1   -1    0    0  501    0  0.00000000000E+00  0.00000000000E+00  0.34515275896E+04  0.34515275896E+04  0.50400000000E-02 0. -1.
         -1   -1    0    0    0  501 -0.00000000000E+00 -0.00000000000E+00 -0.16285035969E+03  0.16285035977E+03  0.50400000000E-02 0.  1.
    8880023    1    1    2    0    0 -0.19358563810E+03 -0.53315489675E+03  0.15236552216E+04  0.17541564879E+04  0.65864270000E+03 0.  1.
    8880022    1    1    2    0    0  0.19358563810E+03  0.53315489675E+03  0.17650220083E+04  0.18602214615E+04  0.15294330000E+03 0.  0.
<mgrwt>
<rscale>  0 0.78812109E+03</rscale>
<asrwt>0</asrwt>
<pdfrwt beam="1">  1        1 0.53100422E+00 0.86921790E+03</pdfrwt>
<pdfrwt beam="2">  1       -1 0.25053902E-01 0.86921790E+03</pdfrwt>
<totfact> 0.40198553E+00</totfact>
</mgrwt>
</event>
<event>
 4    1  0.1521315E-007  0.7033998E+03  0.7818608E-02  0.9983379E-01
          1   -1    0    0  501    0  0.00000000000E+00  0.00000000000E+00  0.13895606080E+04  0.13895606080E+04  0.50400000000E-02 0. -1.
         -1   -1    0    0    0  501 -0.00000000000E+00 -0.00000000000E+00 -0.23971676890E+03  0.23971676895E+03  0.50400000000E-02 0.  1.
    8880023    1    1    2    0    0  0.21591681471E+03 -0.11975408617E+03  0.11389373173E+04  0.13386371917E+04  0.65864270000E+03 0.  0.
    8880022    1    1    2    0    0 -0.21591681471E+03  0.11975408617E+03  0.10906521768E+02  0.29064018522E+03  0.15294330000E+03 0.  0.
<mgrwt>
<rscale>  0 0.56385068E+03</rscale>
<asrwt>0</asrwt>
<pdfrwt beam="1">  1        1 0.21377856E+00 0.70339983E+03</pdfrwt>
<pdfrwt beam="2">  1       -1 0.36879502E-01 0.70339983E+03</pdfrwt>
<totfact> 0.56898405E+01</totfact>
</mgrwt>
</event>
<event>
 4    1  0.1521315E-007  0.8160049E+03  0.7818608E-02  0.9677202E-01
         -1   -1    0    0    0  501 -0.00000000000E+00  0.00000000000E+00  0.96918923366E+03  0.96918923368E+03  0.50400000000E-02 0.  1.
          1   -1    0    0  501    0  0.00000000000E+00 -0.00000000000E+00 -0.76323551971E+03  0.76323551973E+03  0.50400000000E-02 0. -1.
    8880023    1    1    2    0    0 -0.21060374639E+03 -0.43324333851E+03 -0.42817653107E+03  0.92151998154E+03  0.65864270000E+03 0. -1.
    8880022    1    1    2    0    0  0.21060374639E+03  0.43324333851E+03  0.63413024502E+03  0.81090477186E+03  0.15294330000E+03 0.  0.
<mgrwt>
<rscale>  0 0.72390540E+03</rscale>
<asrwt>0</asrwt>
<pdfrwt beam="1">  1        1 0.11742085E+00 0.81600486E+03</pdfrwt>
<pdfrwt beam="2">  1       -1 0.14910603E+00 0.81600486E+03</pdfrwt>
<totfact> 0.86439940E+00</totfact>
</mgrwt>
</event>
<event>
 4    1  0.1521315E-007  0.6780054E+03  0.7818608E-02  0.1010475E+00
          1   -1    0    0  501    0  0.00000000000E+00  0.00000000000E+00  0.15316958731E+04  0.15316958731E+04  0.50400000000E-02 0. -1.
         -1   -1    0    0    0  501 -0.00000000000E+00 -0.00000000000E+00 -0.56524730615E+03  0.56524730617E+03  0.50400000000E-02 0.  1.
    8880023    1    1    2    0    0 -0.10699521940E+03  0.12013798225E+03  0.14302189014E+04  0.15827878644E+04  0.65864270000E+03 0. -1.
    8880022    1    1    2    0    0  0.10699521940E+03 -0.12013798225E+03 -0.46377033438E+03  0.51415531488E+03  0.15294330000E+03 0.  0.
<mgrwt>
<rscale>  0 0.51286225E+03</rscale>
<asrwt>0</asrwt>
<pdfrwt beam="1">  1        1 0.23564552E+00 0.67800540E+03</pdfrwt>
<pdfrwt beam="2">  1       -1 0.86961125E-01 0.67800540E+03</pdfrwt>
<totfact> 0.85230465E+00</totfact>
</mgrwt>
</event>
<event>
 4    1  0.1521315E-007  0.7259061E+03  0.7818608E-02  0.9903086E-01
         -1   -1    0    0    0  501 -0.00000000000E+00  0.00000000000E+00  0.29729660665E+03  0.29729660669E+03  0.50400000000E-02 0.  1.
          1   -1    0    0  501    0  0.00000000000E+00 -0.00000000000E+00 -0.15201710724E+04  0.15201710724E+04  0.50400000000E-02 0. -1.
    8880023    1    1    2    0    0  0.12766615979E+03  0.27718365309E+03 -0.12798642488E+04  0.14713912218E+04  0.65864270000E+03 0.  0.
    8880022    1    1    2    0    0 -0.12766615979E+03 -0.27718365309E+03  0.56989783089E+02  0.34607645729E+03  0.15294330000E+03 0.  0.
<mgrwt>
<rscale>  0 0.60111960E+03</rscale>
<asrwt>0</asrwt>
<pdfrwt beam="1">  1        1 0.23387247E+00 0.72590608E+03</pdfrwt>
<pdfrwt beam="2">  1       -1 0.45737941E-01 0.72590608E+03</pdfrwt>
<totfact> 0.31141673E+01</totfact>
</mgrwt>
</event>
<event>
 4    1  0.1521315E-007  0.8515304E+03  0.7818608E-02  0.9608811E-01
         -1   -1    0    0    0  501 -0.00000000000E+00  0.00000000000E+00  0.80361983541E+03  0.80361983543E+03  0.50400000000E-02 0.  1.
          1   -1    0    0  501    0  0.00000000000E+00 -0.00000000000E+00 -0.10213514780E+04  0.10213514780E+04  0.50400000000E-02 0. -1.
    8880023    1    1    2    0    0  0.10199568674E+03  0.52999118168E+03 -0.68660264495E+03  0.10938588442E+04  0.65864270000E+03 0.  0.
    8880022    1    1    2    0    0 -0.10199568674E+03 -0.52999118168E+03  0.46887100236E+03  0.73111246922E+03  0.15294330000E+03 0.  0.
<mgrwt>
<rscale>  0 0.76715777E+03</rscale>
<asrwt>0</asrwt>
<pdfrwt beam="1">  1        1 0.15713100E+00 0.85153037E+03</pdfrwt>
<pdfrwt beam="2">  1       -1 0.12363382E+00 0.85153037E+03</pdfrwt>
<totfact> 0.85399780E+00</totfact>
</mgrwt>
</event>
<event>
 4    1  0.1521315E-007  0.7244333E+03  0.7818608E-02  0.9907861E-01
         -1   -1    0    0    0  501 -0.00000000000E+00  0.00000000000E+00  0.74912423103E+03  0.74912423105E+03  0.50400000000E-02 0.  1.
          1   -1    0    0  501    0  0.00000000000E+00 -0.00000000000E+00 -0.67877935946E+03  0.67877935948E+03  0.50400000000E-02 0. -1.
    8880023    1    1    2    0    0  0.66374172911E+01 -0.30157812577E+03 -0.41610741189E+03  0.83543342389E+03  0.65864270000E+03 0. -1.
    8880022    1    1    2    0    0 -0.66374172911E+01  0.30157812577E+03  0.48645228347E+03  0.59247016664E+03  0.15294330000E+03 0.  0.
<mgrwt>
<rscale>  0 0.59881818E+03</rscale>
<asrwt>0</asrwt>
<pdfrwt beam="1">  1        1 0.10442759E+00 0.72443331E+03</pdfrwt>
<pdfrwt beam="2">  1       -1 0.11524988E+00 0.72443331E+03</pdfrwt>
<totfact> 0.20071737E+01</totfact>
</mgrwt>
</event>
<event>
 4    1  0.1521315E-007  0.8941955E+03  0.7818608E-02  0.9535415E-01
          1   -1    0    0  501    0  0.00000000000E+00  0.00000000000E+00  0.24412386955E+04  0.24412386955E+04  0.50400000000E-02 0. -1.
         -1   -1    0    0    0  501 -0.00000000000E+00 -0.00000000000E+00 -0.33450799684E+03  0.33450799688E+03  0.50400000000E-02 0.  1.
    8880023    1    1    2    0    0 -0.51640148404E+03  0.31480920492E+03  0.19304404350E+04  0.21274834447E+04  0.65864270000E+03 0.  0.
    8880022    1    1    2    0    0  0.51640148404E+03 -0.31480920492E+03  0.17629026368E+03  0.64826324769E+03  0.15294330000E+03 0.  0.
<mgrwt>
<rscale>  0 0.81722444E+03</rscale>
<asrwt>0</asrwt>
<pdfrwt beam="1">  1        1 0.37557520E+00 0.89419547E+03</pdfrwt>
<pdfrwt beam="2">  1       -1 0.51462767E-01 0.89419547E+03</pdfrwt>
<totfact> 0.58349043E+00</totfact>
</mgrwt>
</event>
<event>
 4    1  0.1521315E-007  0.6733817E+03  0.7818608E-02  0.1013346E+00
          1   -1    0    0  501    0  0.00000000000E+00  0.00000000000E+00  0.10110850013E+04  0.10110850013E+04  0.50400000000E-02 0. -1.
         -1   -1    0    0    0  501 -0.00000000000E+00 -0.00000000000E+00 -0.49094856491E+03  0.49094856493E+03  0.50400000000E-02 0.  1.
    8880023    1    1    2    0    0  0.13875148544E+03 -0.19511801720E+02  0.86705872528E+03  0.10978313734E+04  0.65864270000E+03 0. -1.
    8880022    1    1    2    0    0 -0.13875148544E+03  0.19511801720E+02 -0.34692228891E+03  0.40420219281E+03  0.15294330000E+03 0.  0.
<mgrwt>
<rscale>  0 0.50166090E+03</rscale>
<asrwt>0</asrwt>
<pdfrwt beam="1">  1        1 0.15555154E+00 0.67338168E+03</pdfrwt>
<pdfrwt beam="2">  1       -1 0.75530548E-01 0.67338168E+03</pdfrwt>
<totfact> 0.27102870E+01</totfact>
</mgrwt>
</event>
<event>
 4    1  0.1521315E-007  0.1331193E+04  0.7818608E-02  0.9039080E-01
          1   -1    0    0  501    0  0.00000000000E+00  0.00000000000E+00  0.14493140884E+04  0.14493140884E+04  0.50400000000E-02 0. -1.
         -1   -1    0    0    0  501 -0.00000000000E+00 -0.00000000000E+00 -0.24675294887E+04  0.24675294887E+04  0.50400000000E-02 0.  1.
    8880023    1    1    2    0    0  0.10186994752E+04 -0.54819284390E+03  0.94534924057E+03  0.16327153480E+04  0.65864270000E+03 0. -1.
    8880022    1    1    2    0    0 -0.10186994752E+04  0.54819284390E+03 -0.19635646409E+04  0.22841282291E+04  0.15294330000E+03 0.  0.
<mgrwt>
<rscale>  0 0.12880690E+04</rscale>
<asrwt>0</asrwt>
<pdfrwt beam="1">  1        1 0.22297140E+00 0.13311928E+04</pdfrwt>
<pdfrwt beam="2">  1       -1 0.37961992E+00 0.13311928E+04</pdfrwt>
<totfact> 0.67719665E-02</totfact>
</mgrwt>
</event>
<event>
 4    1  0.1521315E-007  0.1026793E+04  0.7818608E-02  0.9347314E-01
         -1   -1    0    0    0  501 -0.00000000000E+00  0.00000000000E+00  0.12437109901E+04  0.12437109901E+04  0.50400000000E-02 0.  1.
          1   -1    0    0  501    0  0.00000000000E+00 -0.00000000000E+00 -0.12547683203E+04  0.12547683203E+04  0.50400000000E-02 0. -1.
    8880023    1    1    2    0    0 -0.76365651352E+03 -0.19318967520E+03 -0.85337953278E+03  0.13351255950E+04  0.65864270000E+03 0. -1.
    8880022    1    1    2    0    0  0.76365651352E+03  0.19318967520E+03  0.84232220253E+03  0.11633537154E+04  0.15294330000E+03 0.  0.
<mgrwt>
<rscale>  0 0.96541314E+03</rscale>
<asrwt>0</asrwt>
<pdfrwt beam="1">  1        1 0.19304128E+00 0.10267929E+04</pdfrwt>
<pdfrwt beam="2">  1       -1 0.19134015E+00 0.10267929E+04</pdfrwt>
<totfact> 0.16878840E+00</totfact>
</mgrwt>
</event>
<event>
 4    1  0.1521315E-007  0.8562731E+03  0.7818608E-02  0.9600227E-01
         -1   -1    0    0    0  501 -0.00000000000E+00  0.00000000000E+00  0.99594960935E+03  0.99594960936E+03  0.50400000000E-02 0.  1.
          1   -1    0    0  501    0  0.00000000000E+00 -0.00000000000E+00 -0.66411311110E+03  0.66411311112E+03  0.50400000000E-02 0. -1.
    8880023    1    1    2    0    0 -0.31879728047E+03  0.44470414707E+03 -0.20275606109E+03  0.87995097081E+03  0.65864270000E+03 0. -1.
    8880022    1    1    2    0    0  0.31879728047E+03 -0.44470414707E+03  0.53459255934E+03  0.78011174967E+03  0.15294330000E+03 0.  0.
<mgrwt>
<rscale>  0 0.77281124E+03</rscale>
<asrwt>0</asrwt>
<pdfrwt beam="1">  1        1 0.10217125E+00 0.85627314E+03</pdfrwt>
<pdfrwt beam="2">  1       -1 0.15322302E+00 0.85627314E+03</pdfrwt>
<totfact> 0.98849821E+00</totfact>
</mgrwt>
</event>
<event>
 4    1  0.1521315E-007  0.6767704E+03  0.7818608E-02  0.1011213E+00
          1   -1    0    0  501    0  0.00000000000E+00  0.00000000000E+00  0.35484994581E+03  0.35484994584E+03  0.50400000000E-02 0. -1.
         -1   -1    0    0    0  501 -0.00000000000E+00 -0.00000000000E+00 -0.11043065340E+04  0.11043065340E+04  0.50400000000E-02 0.  1.
    8880023    1    1    2    0    0  0.80780788024E+00  0.15558702504E+03  0.18916701072E+01  0.67677304881E+03  0.65864270000E+03 0. -1.
    8880022    1    1    2    0    0 -0.80780788024E+00 -0.15558702504E+03 -0.75134825826E+03  0.78238343101E+03  0.15294330000E+03 0.  0.
<mgrwt>
<rscale>  0 0.50995454E+03</rscale>
<asrwt>0</asrwt>
<pdfrwt beam="1">  1        1 0.54592300E-01 0.67677041E+03</pdfrwt>
<pdfrwt beam="2">  1       -1 0.16989331E+00 0.67677041E+03</pdfrwt>
<totfact> 0.17945207E+01</totfact>
</mgrwt>
</event>
<event>
 4    1  0.1521315E-007  0.7052137E+03  0.7818608E-02  0.9976223E-01
         -1   -1    0    0    0  501 -0.00000000000E+00  0.00000000000E+00  0.25744527087E+03  0.25744527092E+03  0.50400000000E-02 0.  1.
          1   -1    0    0  501    0  0.00000000000E+00 -0.00000000000E+00 -0.11964058858E+04  0.11964058858E+04  0.50400000000E-02 0. -1.
    8880023    1    1    2    0    0  0.22993214299E+03 -0.10318636401E+03 -0.91896710043E+03  0.11583725454E+04  0.65864270000E+03 0. -1.
    8880022    1    1    2    0    0 -0.22993214299E+03  0.10318636401E+03 -0.19993514505E+02  0.29547861130E+03  0.15294330000E+03 0.  0.
<mgrwt>
<rscale>  0 0.56705210E+03</rscale>
<asrwt>0</asrwt>
<pdfrwt beam="1">  1        1 0.18406244E+00 0.70521374E+03</pdfrwt>
<pdfrwt beam="2">  1       -1 0.39606965E-01 0.70521374E+03</pdfrwt>
<totfact> 0.68519515E+01</totfact>
</mgrwt>
</event>
<event>
 4    1  0.1521315E-007  0.6926608E+03  0.7818608E-02  0.1002913E+00
          1   -1    0    0  501    0  0.00000000000E+00  0.00000000000E+00  0.10943152747E+04  0.10943152747E+04  0.50400000000E-02 0. -1.
         -1   -1    0    0    0  501 -0.00000000000E+00 -0.00000000000E+00 -0.23180072699E+03  0.23180072704E+03  0.50400000000E-02 0.  1.
    8880023    1    1    2    0    0 -0.22343037050E+02 -0.21323591654E+03  0.79463367582E+03  0.10541449864E+04  0.65864270000E+03 0. -1.
    8880022    1    1    2    0    0  0.22343037050E+02  0.21323591654E+03  0.67880871928E+02  0.27197101536E+03  0.15294330000E+03 0.  0.
<mgrwt>
<rscale>  0 0.54391297E+03</rscale>
<asrwt>0</asrwt>
<pdfrwt beam="1">  1        1 0.16835620E+00 0.69266079E+03</pdfrwt>
<pdfrwt beam="2">  1       -1 0.35661650E-01 0.69266079E+03</pdfrwt>
<totfact> 0.98453798E+01</totfact>
</mgrwt>
</event>
<event>
 4    1  0.1521315E-007  0.7245957E+03  0.7818608E-02  0.9907332E-01
         -1   -1    0    0    0  501 -0.00000000000E+00  0.00000000000E+00  0.32074625987E+03  0.32074625991E+03  0.50400000000E-02 0.  1.
          1   -1    0    0  501    0  0.00000000000E+00 -0.00000000000E+00 -0.12501652482E+04  0.12501652482E+04  0.50400000000E-02 0. -1.
    8880023    1    1    2    0    0  0.14978406739E+03  0.26228501364E+03 -0.99013907927E+03  0.12269532582E+04  0.65864270000E+03 0. -1.
    8880022    1    1    2    0    0 -0.14978406739E+03 -0.26228501364E+03  0.60720090952E+02  0.34395824991E+03  0.15294330000E+03 0.  0.
<mgrwt>
<rscale>  0 0.59907269E+03</rscale>
<asrwt>0</asrwt>
<pdfrwt beam="1">  1        1 0.19233311E+00 0.72459568E+03</pdfrwt>
<pdfrwt beam="2">  1       -1 0.49345579E-01 0.72459568E+03</pdfrwt>
<totfact> 0.41651134E+01</totfact>
</mgrwt>
</event>
<event>
 4    1  0.1521315E-007  0.6747916E+03  0.7818608E-02  0.1012438E+00
          1   -1    0    0  501    0  0.00000000000E+00  0.00000000000E+00  0.74535471887E+03  0.74535471889E+03  0.50400000000E-02 0. -1.
         -1   -1    0    0    0  501 -0.00000000000E+00 -0.00000000000E+00 -0.10313575324E+04  0.10313575324E+04  0.50400000000E-02 0.  1.
    8880023    1    1    2    0    0 -0.13538214367E+03  0.56614590663E+02  0.57713255022E+03  0.88793340036E+03  0.65864270000E+03 0. -1.
    8880022    1    1    2    0    0  0.13538214367E+03 -0.56614590663E+02 -0.86313536374E+03  0.88877885093E+03  0.15294330000E+03 0.  0.
<mgrwt>
<rscale>  0 0.50517111E+03</rscale>
<asrwt>0</asrwt>
<pdfrwt beam="1">  1        1 0.11466996E+00 0.67479163E+03</pdfrwt>
<pdfrwt beam="2">  1       -1 0.15867039E+00 0.67479163E+03</pdfrwt>
<totfact> 0.77234951E+00</totfact>
</mgrwt>
</event>
<event>
 4    1  0.1541446E-007  0.8554736E+03  0.7818608E-02  0.9601666E-01
          1   -1    0    0  501    0  0.00000000000E+00  0.00000000000E+00  0.12475593375E+04  0.12475593375E+04  0.50400000000E-02 0. -1.
         -1   -1    0    0    0  501 -0.00000000000E+00 -0.00000000000E+00 -0.10949736604E+04  0.10949736604E+04  0.50400000000E-02 0.  1.
    8880023    1    1    2    0    0 -0.97357565345E+02 -0.53716505889E+03  0.10043762902E+04  0.13193205579E+04  0.65864270000E+03 0.  0.
    8880022    1    1    2    0    0  0.97357565345E+02  0.53716505889E+03 -0.85179061299E+03  0.10232124400E+04  0.15294330000E+03 0.  0.
<mgrwt>
<rscale>  0 0.77185986E+03</rscale>
<asrwt>0</asrwt>
<pdfrwt beam="1">  1        1 0.19193220E+00 0.85547355E+03</pdfrwt>
<pdfrwt beam="2">  1       -1 0.16845749E+00 0.85547355E+03</pdfrwt>
<totfact> 0.25543116E+00</totfact>
</mgrwt>
</event>
<event>
 4    1  0.1521315E-007  0.7385773E+03  0.7818608E-02  0.9864111E-01
         -1   -1    0    0    0  501 -0.00000000000E+00  0.00000000000E+00  0.17830476515E+03  0.17830476522E+03  0.50400000000E-02 0.  1.
          1   -1    0    0  501    0  0.00000000000E+00 -0.00000000000E+00 -0.26806053028E+04  0.26806053028E+04  0.50400000000E-02 0. -1.
    8880023    1    1    2    0    0  0.13385069293E+03  0.30621919248E+03 -0.23460199670E+04  0.24595337147E+04  0.65864270000E+03 0.  0.
    8880022    1    1    2    0    0 -0.13385069293E+03 -0.30621919248E+03 -0.15628057069E+03  0.39937635337E+03  0.15294330000E+03 0.  0.
<mgrwt>
<rscale>  0 0.62032599E+03</rscale>
<asrwt>0</asrwt>
<pdfrwt beam="1">  1        1 0.41240079E+00 0.73857729E+03</pdfrwt>
<pdfrwt beam="2">  1       -1 0.27431504E-01 0.73857729E+03</pdfrwt>
<totfact> 0.12763205E+01</totfact>
</mgrwt>
</event>
<event>
 4    1  0.1521315E-007  0.6957920E+03  0.7818608E-02  0.1001513E+00
          1   -1    0    0  501    0  0.00000000000E+00  0.00000000000E+00  0.10092880204E+04  0.10092880204E+04  0.50400000000E-02 0. -1.
         -1   -1    0    0    0  501 -0.00000000000E+00 -0.00000000000E+00 -0.34560331015E+03  0.34560331019E+03  0.50400000000E-02 0.  1.
    8880023    1    1    2    0    0  0.14567573892E+03 -0.17057206316E+03  0.79232106409E+03  0.10544662747E+04  0.65864270000E+03 0. -1.
    8880022    1    1    2    0    0 -0.14567573892E+03  0.17057206316E+03 -0.12863635387E+03  0.30042505587E+03  0.15294330000E+03 0.  0.
<mgrwt>
<rscale>  0 0.54991911E+03</rscale>
<asrwt>0</asrwt>
<pdfrwt beam="1">  1        1 0.15527508E+00 0.69579196E+03</pdfrwt>
<pdfrwt beam="2">  1       -1 0.53169741E-01 0.69579196E+03</pdfrwt>
<totfact> 0.54631994E+01</totfact>
</mgrwt>
</event>
<event>
 4    1  0.1521315E-007  0.7599434E+03  0.7818608E-02  0.9805254E-01
          1   -1    0    0  501    0  0.00000000000E+00  0.00000000000E+00  0.11248689008E+04  0.11248689008E+04  0.50400000000E-02 0. -1.
         -1   -1    0    0    0  501 -0.00000000000E+00 -0.00000000000E+00 -0.54487385357E+03  0.54487385360E+03  0.50400000000E-02 0.  1.
    8880023    1    1    2    0    0  0.37623460072E+03  0.46382006094E+02  0.87998197578E+03  0.11627047128E+04  0.65864270000E+03 0.  0.
    8880022    1    1    2    0    0 -0.37623460072E+03 -0.46382006094E+02 -0.29998692857E+03  0.50703804157E+03  0.15294330000E+03 0.  0.
<mgrwt>
<rscale>  0 0.65081343E+03</rscale>
<asrwt>0</asrwt>
<pdfrwt beam="1">  1        1 0.17305675E+00 0.75994340E+03</pdfrwt>
<pdfrwt beam="2">  1       -1 0.83826747E-01 0.75994340E+03</pdfrwt>
<totfact> 0.17644935E+01</totfact>
</mgrwt>
</event>
<event>
 4    1  0.1521315E-007  0.7403508E+03  0.7818608E-02  0.9858927E-01
          1   -1    0    0  501    0  0.00000000000E+00  0.00000000000E+00  0.14997004916E+04  0.14997004916E+04  0.50400000000E-02 0. -1.
         -1   -1    0    0    0  501 -0.00000000000E+00 -0.00000000000E+00 -0.36105300090E+03  0.36105300094E+03  0.50400000000E-02 0.  1.
    8880023    1    1    2    0    0 -0.19325655856E+03 -0.27741833550E+03  0.12675479744E+04  0.14679227173E+04  0.65864270000E+03 0. -1.
    8880022    1    1    2    0    0  0.19325655856E+03  0.27741833550E+03 -0.12890048367E+03  0.39283077527E+03  0.15294330000E+03 0. -1.
<mgrwt>
<rscale>  0 0.62293847E+03</rscale>
<asrwt>0</asrwt>
<pdfrwt beam="1">  1        1 0.23072315E+00 0.74035075E+03</pdfrwt>
<pdfrwt beam="2">  1       -1 0.55546616E-01 0.74035075E+03</pdfrwt>
<totfact> 0.22205457E+01</totfact>
</mgrwt>
</event>
<event>
 4    1  0.1521315E-007  0.8485579E+03  0.7818608E-02  0.9614250E-01
         -1   -1    0    0    0  501 -0.00000000000E+00  0.00000000000E+00  0.23467263243E+03  0.23467263248E+03  0.50400000000E-02 0.  1.
          1   -1    0    0  501    0  0.00000000000E+00 -0.00000000000E+00 -0.28676209270E+04  0.28676209270E+04  0.50400000000E-02 0. -1.
    8880023    1    1    2    0    0 -0.39209837917E+03  0.36400425975E+03 -0.23053836923E+04  0.24565920326E+04  0.65864270000E+03 0.  0.
    8880022    1    1    2    0    0  0.39209837917E+03 -0.36400425975E+03 -0.32756460232E+03  0.64570152685E+03  0.15294330000E+03 0.  0.
<mgrwt>
<rscale>  0 0.76360156E+03</rscale>
<asrwt>0</asrwt>
<pdfrwt beam="1">  1        1 0.44117243E+00 0.84855786E+03</pdfrwt>
<pdfrwt beam="2">  1       -1 0.36103484E-01 0.84855786E+03</pdfrwt>
<totfact> 0.57246598E+00</totfact>
</mgrwt>
</event>
<event>
 4    1  0.1521315E-007  0.7879025E+03  0.7818608E-02  0.9737591E-01
         -1   -1    0    0    0  501 -0.00000000000E+00  0.00000000000E+00  0.11131065631E+04  0.11131065631E+04  0.50400000000E-02 0.  1.
          1   -1    0    0  501    0  0.00000000000E+00 -0.00000000000E+00 -0.10821966267E+04  0.10821966267E+04  0.50400000000E-02 0. -1.
    8880023    1    1    2    0    0 -0.41649963737E+03 -0.11622464049E+03 -0.87649056137E+03  0.11785694826E+04  0.65864270000E+03 0. -1.
    8880022    1    1    2    0    0  0.41649963737E+03  0.11622464049E+03  0.90740049777E+03  0.10167337072E+04  0.15294330000E+03 0.  0.
<mgrwt>
<rscale>  0 0.68822078E+03</rscale>
<asrwt>0</asrwt>
<pdfrwt beam="1">  1        1 0.16649179E+00 0.78790248E+03</pdfrwt>
<pdfrwt beam="2">  1       -1 0.17124716E+00 0.78790248E+03</pdfrwt>
<totfact> 0.32569796E+00</totfact>
</mgrwt>
</event>
<event>
 4    1  0.1521315E-007  0.6793849E+03  0.7818608E-02  0.1009674E+00
          1   -1    0    0  501    0  0.00000000000E+00  0.00000000000E+00  0.60028968396E+03  0.60028968399E+03  0.50400000000E-02 0. -1.
         -1   -1    0    0    0  501 -0.00000000000E+00 -0.00000000000E+00 -0.94503731168E+03  0.94503731170E+03  0.50400000000E-02 0.  1.
    8880023    1    1    2    0    0  0.10276159646E+03 -0.13112488328E+03  0.38531046377E+03  0.78104291846E+03  0.65864270000E+03 0. -1.
    8880022    1    1    2    0    0 -0.10276159646E+03  0.13112488328E+03 -0.73005809149E+03  0.76428407722E+03  0.15294330000E+03 0.  0.
<mgrwt>
<rscale>  0 0.51604513E+03</rscale>
<asrwt>0</asrwt>
<pdfrwt beam="1">  1        1 0.92352259E-01 0.67938493E+03</pdfrwt>
<pdfrwt beam="2">  1       -1 0.14539036E+00 0.67938493E+03</pdfrwt>
<totfact> 0.13475430E+01</totfact>
</mgrwt>
</event>
<event>
 4    1  0.1521315E-007  0.9556243E+03  0.7818608E-02  0.9442068E-01
         -1   -1    0    0    0  501 -0.00000000000E+00  0.00000000000E+00  0.35585459534E+03  0.35585459538E+03  0.50400000000E-02 0.  1.
          1   -1    0    0  501    0  0.00000000000E+00 -0.00000000000E+00 -0.32921640170E+04  0.32921640170E+04  0.50400000000E-02 0. -1.
    8880023    1    1    2    0    0  0.69140633911E+03  0.36944047660E+02 -0.27551293551E+04  0.29161542411E+04  0.65864270000E+03 0.  0.
    8880022    1    1    2    0    0 -0.69140633911E+03 -0.36944047660E+02 -0.18118006659E+03  0.73186437129E+03  0.15294330000E+03 0.  0.
<mgrwt>
<rscale>  0 0.88693075E+03</rscale>
<asrwt>0</asrwt>
<pdfrwt beam="1">  1        1 0.50648675E+00 0.95562430E+03</pdfrwt>
<pdfrwt beam="2">  1       -1 0.54746863E-01 0.95562430E+03</pdfrwt>
<totfact> 0.12720663E+00</totfact>
</mgrwt>
</event>
<event>
 4    1  0.1521315E-007  0.7139783E+03  0.7818608E-02  0.9943514E-01
          1   -1    0    0  501    0  0.00000000000E+00  0.00000000000E+00  0.87158847608E+03  0.87158847609E+03  0.50400000000E-02 0. -1.
         -1   -1    0    0    0  501 -0.00000000000E+00 -0.00000000000E+00 -0.82036987975E+03  0.82036987976E+03  0.50400000000E-02 0.  1.
    8880023    1    1    2    0    0 -0.20573630001E+03 -0.18337753847E+03  0.68165126459E+03  0.98712380153E+03  0.65864270000E+03 0.  0.
    8880022    1    1    2    0    0  0.20573630001E+03  0.18337753847E+03 -0.63043266826E+03  0.70483455433E+03  0.15294330000E+03 0.  0.
<mgrwt>
<rscale>  0 0.58197959E+03</rscale>
<asrwt>0</asrwt>
<pdfrwt beam="1">  1        1 0.13409054E+00 0.71397826E+03</pdfrwt>
<pdfrwt beam="2">  1       -1 0.12621075E+00 0.71397826E+03</pdfrwt>
<totfact> 0.10874361E+01</totfact>
</mgrwt>
</event>
<event>
 4    1  0.1521315E-007  0.8012024E+03  0.7818608E-02  0.9708202E-01
         -1   -1    0    0    0  501 -0.00000000000E+00  0.00000000000E+00  0.12961388220E+04  0.12961388220E+04  0.50400000000E-02 0.  1.
          1   -1    0    0  501    0  0.00000000000E+00 -0.00000000000E+00 -0.44428168344E+03  0.44428168347E+03  0.50400000000E-02 0. -1.
    8880023    1    1    2    0    0 -0.20376523307E+03 -0.40816035770E+03  0.46837788971E+02  0.80257032872E+03  0.65864270000E+03 0. -1.
    8880022    1    1    2    0    0  0.20376523307E+03  0.40816035770E+03  0.80501934962E+03  0.93785017678E+03  0.15294330000E+03 0.  0.
<mgrwt>
<rscale>  0 0.70530533E+03</rscale>
<asrwt>0</asrwt>
<pdfrwt beam="1">  1        1 0.68351028E-01 0.80120244E+03</pdfrwt>
<pdfrwt beam="2">  1       -1 0.19940597E+00 0.80120244E+03</pdfrwt>
<totfact> 0.81232837E+00</totfact>
</mgrwt>
</event>
<event>
 4    1  0.1521315E-007  0.9496585E+03  0.7818608E-02  0.9450606E-01
          1   -1    0    0  501    0  0.00000000000E+00  0.00000000000E+00  0.12627184506E+04  0.12627184506E+04  0.50400000000E-02 0. -1.
         -1   -1    0    0    0  501 -0.00000000000E+00 -0.00000000000E+00 -0.54119753757E+03  0.54119753759E+03  0.50400000000E-02 0.  1.
    8880023    1    1    2    0    0  0.58845401392E+03 -0.34894556781E+03  0.46543951940E+03  0.10575846483E+04  0.65864270000E+03 0.  1.
    8880022    1    1    2    0    0 -0.58845401392E+03  0.34894556781E+03  0.25608139365E+03  0.74633133994E+03  0.15294330000E+03 0. -1.
<mgrwt>
<rscale>  0 0.88025525E+03</rscale>
<asrwt>0</asrwt>
<pdfrwt beam="1">  1        1 0.19426437E+00 0.94965854E+03</pdfrwt>
<pdfrwt beam="2">  1       -1 0.83261161E-01 0.94965854E+03</pdfrwt>
<totfact> 0.13902771E+01</totfact>
</mgrwt>
</event>
<event>
 4    1  0.1521315E-007  0.7984785E+03  0.7818608E-02  0.9714095E-01
         -1   -1    0    0    0  501 -0.00000000000E+00  0.00000000000E+00  0.11006203054E+04  0.11006203054E+04  0.50400000000E-02 0.  1.
          1   -1    0    0  501    0  0.00000000000E+00 -0.00000000000E+00 -0.12601978413E+04  0.12601978413E+04  0.50400000000E-02 0. -1.
    8880023    1    1    2    0    0  0.27878438555E+03 -0.35501695183E+03 -0.10688735521E+04  0.13341883849E+04  0.65864270000E+03 0. -1.
    8880022    1    1    2    0    0 -0.27878438555E+03  0.35501695183E+03  0.90929601619E+03  0.10266297618E+04  0.15294330000E+03 0.  0.
<mgrwt>
<rscale>  0 0.70183721E+03</rscale>
<asrwt>0</asrwt>
<pdfrwt beam="1">  1        1 0.19387659E+00 0.79847854E+03</pdfrwt>
<pdfrwt beam="2">  1       -1 0.16932620E+00 0.79847854E+03</pdfrwt>
<totfact> 0.24879784E+00</totfact>
</mgrwt>
</event>
<event>
 4    1  0.1521315E-007  0.7461935E+03  0.7818608E-02  0.9842260E-01
         -1   -1    0    0    0  501 -0.00000000000E+00  0.00000000000E+00  0.53103238037E+03  0.53103238039E+03  0.50400000000E-02 0.  1.
          1   -1    0    0  501    0  0.00000000000E+00 -0.00000000000E+00 -0.72201859681E+03  0.72201859682E+03  0.50400000000E-02 0. -1.
    8880023    1    1    2    0    0  0.12128488158E+03  0.32906609404E+03 -0.36739578617E+03  0.83173576736E+03  0.65864270000E+03 0.  0.
    8880022    1    1    2    0    0 -0.12128488158E+03 -0.32906609404E+03  0.17640956973E+03  0.42131520985E+03  0.15294330000E+03 0.  0.
<mgrwt>
<rscale>  0 0.63143129E+03</rscale>
<asrwt>0</asrwt>
<pdfrwt beam="1">  1        1 0.11107978E+00 0.74619349E+03</pdfrwt>
<pdfrwt beam="2">  1       -1 0.81697289E-01 0.74619349E+03</pdfrwt>
<totfact> 0.39679221E+01</totfact>
</mgrwt>
</event>
<event>
 4    1  0.1521315E-007  0.1074033E+04  0.7818608E-02  0.9290533E-01
          1   -1    0    0  501    0  0.00000000000E+00  0.00000000000E+00  0.29747554843E+04  0.29747554844E+04  0.50400000000E-02 0. -1.
         -1   -1    0    0    0  501 -0.00000000000E+00 -0.00000000000E+00 -0.35653357320E+03  0.35653357324E+03  0.50400000000E-02 0.  1.
    8880023    1    1    2    0    0  0.62015670142E+03  0.57891537245E+03  0.87040240955E+03  0.13824427307E+04  0.65864270000E+03 0.  0.
    8880022    1    1    2    0    0 -0.62015670142E+03 -0.57891537245E+03  0.17478195016E+04  0.19488463269E+04  0.15294330000E+03 0.  0.
<mgrwt>
<rscale>  0 0.10165912E+04</rscale>
<asrwt>0</asrwt>
<pdfrwt beam="1">  1        1 0.45765469E+00 0.10740333E+04</pdfrwt>
<pdfrwt beam="2">  1       -1 0.54851319E-01 0.10740333E+04</pdfrwt>
<totfact> 0.21291428E+00</totfact>
</mgrwt>
</event>
<event>
 4    1  0.1521315E-007  0.1006342E+04  0.7818608E-02  0.9373307E-01
          1   -1    0    0  501    0  0.00000000000E+00  0.00000000000E+00  0.14691610914E+04  0.14691610914E+04  0.50400000000E-02 0. -1.
         -1   -1    0    0    0  501 -0.00000000000E+00 -0.00000000000E+00 -0.68486413051E+03  0.68486413053E+03  0.50400000000E-02 0.  1.
    8880023    1    1    2    0    0 -0.40405432396E+03 -0.64471189615E+03  0.92314332155E+03  0.13656196850E+04  0.65864270000E+03 0.  0.
    8880022    1    1    2    0    0  0.40405432396E+03  0.64471189615E+03 -0.13884636067E+03  0.78840553691E+03  0.15294330000E+03 0.  0.
<mgrwt>
<rscale>  0 0.94305309E+03</rscale>
<asrwt>0</asrwt>
<pdfrwt beam="1">  1        1 0.22602478E+00 0.10063417E+04</pdfrwt>
<pdfrwt beam="2">  1       -1 0.10536371E+00 0.10063417E+04</pdfrwt>
<totfact> 0.58305659E+00</totfact>
</mgrwt>
</event>
<event>
 4    1  0.1521315E-007  0.7455631E+03  0.7818608E-02  0.9844029E-01
          1   -1    0    0  501    0  0.00000000000E+00  0.00000000000E+00  0.10778741723E+04  0.10778741723E+04  0.50400000000E-02 0. -1.
         -1   -1    0    0    0  501 -0.00000000000E+00 -0.00000000000E+00 -0.82525080531E+03  0.82525080532E+03  0.50400000000E-02 0.  1.
    8880023    1    1    2    0    0 -0.34339448206E+03  0.64298823048E+02 -0.60783350238E+03  0.96193860606E+03  0.65864270000E+03 0.  1.
    8880022    1    1    2    0    0  0.34339448206E+03 -0.64298823048E+02  0.86045686932E+03  0.94118637152E+03  0.15294330000E+03 0.  0.
<mgrwt>
<rscale>  0 0.63052300E+03</rscale>
<asrwt>0</asrwt>
<pdfrwt beam="1">  1        1 0.16582680E+00 0.74556309E+03</pdfrwt>
<pdfrwt beam="2">  1       -1 0.12696166E+00 0.74556309E+03</pdfrwt>
<totfact> 0.73454810E+00</totfact>
</mgrwt>
</event>
<event>
 4    1  0.1521315E-007  0.8729771E+03  0.7818608E-02  0.9570884E-01
          1   -1    0    0  501    0  0.00000000000E+00  0.00000000000E+00  0.12312317073E+04  0.12312317073E+04  0.50400000000E-02 0. -1.
         -1   -1    0    0    0  501 -0.00000000000E+00 -0.00000000000E+00 -0.63489068712E+03  0.63489068714E+03  0.50400000000E-02 0.  1.
    8880023    1    1    2    0    0  0.50336647113E+03 -0.27368036095E+03  0.85246508363E+03  0.12201580509E+04  0.65864270000E+03 0. -1.
    8880022    1    1    2    0    0 -0.50336647113E+03  0.27368036095E+03 -0.25612406342E+03  0.64596434353E+03  0.15294330000E+03 0.  0.
<mgrwt>
<rscale>  0 0.79253619E+03</rscale>
<asrwt>0</asrwt>
<pdfrwt beam="1">  1        1 0.18942026E+00 0.87297706E+03</pdfrwt>
<pdfrwt beam="2">  1       -1 0.97675490E-01 0.87297706E+03</pdfrwt>
<totfact> 0.10381582E+01</totfact>
</mgrwt>
</event>
<event>
 4    1  0.1521315E-007  0.7336870E+03  0.7818608E-02  0.9878733E-01
          1   -1    0    0  501    0  0.00000000000E+00  0.00000000000E+00  0.58556737506E+03  0.58556737508E+03  0.50400000000E-02 0. -1.
         -1   -1    0    0    0  501 -0.00000000000E+00 -0.00000000000E+00 -0.91279121986E+03  0.91279121987E+03  0.50400000000E-02 0.  1.
    8880023    1    1    2    0    0  0.32177021981E+03  0.30827729597E+02  0.28683465357E+03  0.78776312938E+03  0.65864270000E+03 0.  0.
    8880022    1    1    2    0    0 -0.32177021981E+03 -0.30827729597E+02 -0.61405849836E+03  0.71059546557E+03  0.15294330000E+03 0.  0.
<mgrwt>
<rscale>  0 0.61303128E+03</rscale>
<asrwt>0</asrwt>
<pdfrwt beam="1">  1        1 0.90087288E-01 0.73368701E+03</pdfrwt>
<pdfrwt beam="2">  1       -1 0.14042942E+00 0.73368701E+03</pdfrwt>
<totfact> 0.15190456E+01</totfact>
</mgrwt>
</event>
<event>
 4    1  0.1521315E-007  0.6653257E+03  0.7818608E-02  0.1019262E+00
         -1   -1    0    0    0  501 -0.00000000000E+00  0.00000000000E+00  0.15642256105E+03  0.15642256114E+03  0.50400000000E-02 0.  1.
          1   -1    0    0  501    0  0.00000000000E+00 -0.00000000000E+00 -0.19131354186E+04  0.19131354186E+04  0.50400000000E-02 0. -1.
    8880023    1    1    2    0    0  0.36158691078E+02  0.86836951968E+02 -0.17686063099E+04  0.18896101695E+04  0.65864270000E+03 0. -1.
    8880022    1    1    2    0    0 -0.36158691078E+02 -0.86836951968E+02  0.11893452362E+02  0.17994781019E+03  0.15294330000E+03 0.  0.
<mgrwt>
<rscale>  0 0.47953986E+03</rscale>
<asrwt>0</asrwt>
<pdfrwt beam="1">  1        1 0.29432851E+00 0.66532572E+03</pdfrwt>
<pdfrwt beam="2">  1       -1 0.24065011E-01 0.66532572E+03</pdfrwt>
<totfact> 0.53211068E+01</totfact>
</mgrwt>
</event>
<event>
 4    1  0.1521315E-007  0.9314138E+03  0.7818608E-02  0.9477376E-01
         -1   -1    0    0    0  501 -0.00000000000E+00  0.00000000000E+00  0.15755394872E+04  0.15755394872E+04  0.50400000000E-02 0.  1.
          1   -1    0    0  501    0  0.00000000000E+00 -0.00000000000E+00 -0.46194187906E+03  0.46194187909E+03  0.50400000000E-02 0. -1.
    8880023    1    1    2    0    0 -0.52685207371E+03 -0.39515605823E+03  0.97294391805E+03  0.13469044108E+04  0.65864270000E+03 0.  1.
    8880022    1    1    2    0    0  0.52685207371E+03  0.39515605823E+03  0.14065369012E+03  0.69057695552E+03  0.15294330000E+03 0.  0.
<mgrwt>
<rscale>  0 0.85972578E+03</rscale>
<asrwt>0</asrwt>
<pdfrwt beam="1">  1        1 0.71067980E-01 0.93141378E+03</pdfrwt>
<pdfrwt beam="2">  1       -1 0.24239070E+00 0.93141378E+03</pdfrwt>
<totfact> 0.39248026E+00</totfact>
</mgrwt>
</event>
<event>
 4    1  0.1521315E-007  0.9202605E+03  0.7818608E-02  0.9494260E-01
         -1   -1    0    0    0  501 -0.00000000000E+00  0.00000000000E+00  0.45832129557E+03  0.45832129560E+03  0.50400000000E-02 0.  1.
          1   -1    0    0  501    0  0.00000000000E+00 -0.00000000000E+00 -0.32232808239E+04  0.32232808239E+04  0.50400000000E-02 0. -1.
    8880023    1    1    2    0    0  0.23218251382E+03 -0.59929990164E+03 -0.28688462206E+04  0.30128322116E+04  0.65864270000E+03 0.  0.
    8880022    1    1    2    0    0 -0.23218251382E+03  0.59929990164E+03  0.10388669226E+03  0.66876990787E+03  0.15294330000E+03 0.  0.
<mgrwt>
<rscale>  0 0.84708349E+03</rscale>
<asrwt>0</asrwt>
<pdfrwt beam="1">  1        1 0.49588934E+00 0.92026045E+03</pdfrwt>
<pdfrwt beam="2">  1       -1 0.70510970E-01 0.92026045E+03</pdfrwt>
<totfact> 0.86946126E-01</totfact>
</mgrwt>
</event>
<event>
 4    1  0.1521315E-007  0.6831782E+03  0.7818608E-02  0.1007580E+00
          1   -1    0    0  501    0  0.00000000000E+00  0.00000000000E+00  0.99842045368E+03  0.99842045369E+03  0.50400000000E-02 0. -1.
         -1   -1    0    0    0  501 -0.00000000000E+00 -0.00000000000E+00 -0.21900998439E+03  0.21900998445E+03  0.50400000000E-02 0.  1.
    8880023    1    1    2    0    0 -0.74081122909E+02 -0.16563300365E+03  0.66721506229E+03  0.95493897725E+03  0.65864270000E+03 0. -1.
    8880022    1    1    2    0    0  0.74081122909E+02  0.16563300365E+03  0.11219540700E+03  0.26249146088E+03  0.15294330000E+03 0.  1.
<mgrwt>
<rscale>  0 0.52447830E+03</rscale>
<asrwt>0</asrwt>
<pdfrwt beam="1">  1        1 0.15360314E+00 0.68317824E+03</pdfrwt>
<pdfrwt beam="2">  1       -1 0.33693844E-01 0.68317824E+03</pdfrwt>
<totfact> 0.12887501E+02</totfact>
</mgrwt>
</event>
<event>
 4    1  0.1521315E-007  0.6586452E+03  0.7818608E-02  0.1025589E+00
         -1   -1    0    0    0  501 -0.00000000000E+00  0.00000000000E+00  0.13566971107E+04  0.13566971107E+04  0.50400000000E-02 0.  1.
          1   -1    0    0  501    0  0.00000000000E+00 -0.00000000000E+00 -0.31031395676E+03  0.31031395680E+03  0.50400000000E-02 0. -1.
    8880023    1    1    2    0    0 -0.17663886730E+01 -0.39045546399E+00  0.51737926880E+02  0.66067411931E+03  0.65864270000E+03 0. -1.
    8880022    1    1    2    0    0  0.17663886730E+01  0.39045546399E+00  0.99464522703E+03  0.10063369482E+04  0.15294330000E+03 0.  0.
<mgrwt>
<rscale>  0 0.45722382E+03</rscale>
<asrwt>0</asrwt>
<pdfrwt beam="1">  1        1 0.47740608E-01 0.65864518E+03</pdfrwt>
<pdfrwt beam="2">  1       -1 0.20872263E+00 0.65864518E+03</pdfrwt>
<totfact> 0.11471396E+01</totfact>
</mgrwt>
</event>
<event>
 4    1  0.1521315E-007  0.7571407E+03  0.7818608E-02  0.9812567E-01
          1   -1    0    0  501    0  0.00000000000E+00  0.00000000000E+00  0.10211591531E+04  0.10211591531E+04  0.50400000000E-02 0. -1.
         -1   -1    0    0    0  501 -0.00000000000E+00 -0.00000000000E+00 -0.62693596099E+03  0.62693596101E+03  0.50400000000E-02 0.  1.
    8880023    1    1    2    0    0  0.28747423558E+03  0.23834935056E+03  0.78197219986E+03  0.10884588080E+04  0.65864270000E+03 0.  0.
    8880022    1    1    2    0    0 -0.28747423558E+03 -0.23834935056E+03 -0.38774900780E+03  0.55963630609E+03  0.15294330000E+03 0.  0.
<mgrwt>
<rscale>  0 0.64692473E+03</rscale>
<asrwt>0</asrwt>
<pdfrwt beam="1">  1        1 0.15710141E+00 0.75714071E+03</pdfrwt>
<pdfrwt beam="2">  1       -1 0.96451686E-01 0.75714071E+03</pdfrwt>
<totfact> 0.15520487E+01</totfact>
</mgrwt>
</event>
<event>
 4    1  0.1521315E-007  0.8443073E+03  0.7818608E-02  0.9622111E-01
         -1   -1    0    0    0  501 -0.00000000000E+00  0.00000000000E+00  0.29797254107E+03  0.29797254111E+03  0.50400000000E-02 0.  1.
          1   -1    0    0  501    0  0.00000000000E+00 -0.00000000000E+00 -0.21155743039E+04  0.21155743039E+04  0.50400000000E-02 0. -1.
    8880023    1    1    2    0    0 -0.51901036028E+03 -0.98350667922E+02 -0.16242853355E+04  0.18306167445E+04  0.65864270000E+03 0.  1.
    8880022    1    1    2    0    0  0.51901036028E+03  0.98350667922E+02 -0.19331642733E+03  0.58293010049E+03  0.15294330000E+03 0.  0.
<mgrwt>
<rscale>  0 0.75849835E+03</rscale>
<asrwt>0</asrwt>
<pdfrwt beam="1">  1        1 0.32547296E+00 0.84430730E+03</pdfrwt>
<pdfrwt beam="2">  1       -1 0.45841931E-01 0.84430730E+03</pdfrwt>
<totfact> 0.12140814E+01</totfact>
</mgrwt>
</event>
<event>
 4    1  0.1521315E-007  0.6843693E+03  0.7818608E-02  0.1006953E+00
         -1   -1    0    0    0  501 -0.00000000000E+00  0.00000000000E+00  0.45374814713E+03  0.45374814716E+03  0.50400000000E-02 0.  1.
          1   -1    0    0  501    0  0.00000000000E+00 -0.00000000000E+00 -0.23007755048E+04  0.23007755048E+04  0.50400000000E-02 0. -1.
    8880023    1    1    2    0    0  0.17278854136E+01  0.18587147502E+03 -0.22130442688E+04  0.23164469199E+04  0.65864270000E+03 0. -1.
    8880022    1    1    2    0    0 -0.17278854136E+01 -0.18587147502E+03  0.36601691120E+03  0.43807673199E+03  0.15294330000E+03 0.  0.
<mgrwt>
<rscale>  0 0.52703916E+03</rscale>
<asrwt>0</asrwt>
<pdfrwt beam="1">  1        1 0.35396546E+00 0.68436934E+03</pdfrwt>
<pdfrwt beam="2">  1       -1 0.69807408E-01 0.68436934E+03</pdfrwt>
<totfact> 0.41263933E+00</totfact>
</mgrwt>
</event>
<event>
 4    1  0.1521315E-007  0.6624711E+03  0.7818608E-02  0.1021756E+00
         -1   -1    0    0    0  501 -0.00000000000E+00  0.00000000000E+00  0.13174715328E+03  0.13174715338E+03  0.50400000000E-02 0.  1.
          1   -1    0    0  501    0  0.00000000000E+00 -0.00000000000E+00 -0.25724290828E+04  0.25724290828E+04  0.50400000000E-02 0. -1.
    8880023    1    1    2    0    0  0.34822617250E+02 -0.62008715388E+02 -0.24472984024E+04  0.25353771657E+04  0.65864270000E+03 0. -1.
    8880022    1    1    2    0    0 -0.34822617250E+02  0.62008715388E+02  0.66164729579E+01  0.16879907045E+03  0.15294330000E+03 0.  0.
<mgrwt>
<rscale>  0 0.47058082E+03</rscale>
<asrwt>0</asrwt>
<pdfrwt beam="1">  1        1 0.39575828E+00 0.66247106E+03</pdfrwt>
<pdfrwt beam="2">  1       -1 0.20268795E-01 0.66247106E+03</pdfrwt>
<totfact> 0.25600832E+01</totfact>
</mgrwt>
</event>
<event>
 4    1  0.1521315E-007  0.6915910E+03  0.7818608E-02  0.1003405E+00
         -1   -1    0    0    0  501 -0.00000000000E+00  0.00000000000E+00  0.15333967770E+04  0.15333967770E+04  0.50400000000E-02 0.  1.
          1   -1    0    0  501    0  0.00000000000E+00 -0.00000000000E+00 -0.15753578600E+03  0.15753578609E+03  0.50400000000E-02 0. -1.
    8880023    1    1    2    0    0  0.14333711490E+03  0.15473338333E+03  0.79124089295E+03  0.10508854863E+04  0.65864270000E+03 0. -1.
    8880022    1    1    2    0    0 -0.14333711490E+03 -0.15473338333E+03  0.58462009801E+03  0.64004707674E+03  0.15294330000E+03 0.  0.
<mgrwt>
<rscale>  0 0.54181924E+03</rscale>
<asrwt>0</asrwt>
<pdfrwt beam="1">  1        1 0.24236273E-01 0.69159103E+03</pdfrwt>
<pdfrwt beam="2">  1       -1 0.23590721E+00 0.69159103E+03</pdfrwt>
<totfact> 0.18188986E+01</totfact>
</mgrwt>
</event>
<event>
 4    1  0.1521315E-007  0.7290151E+03  0.7818608E-02  0.9893185E-01
         -1   -1    0    0    0  501 -0.00000000000E+00  0.00000000000E+00  0.67074279484E+03  0.67074279486E+03  0.50400000000E-02 0.  1.
          1   -1    0    0  501    0  0.00000000000E+00 -0.00000000000E+00 -0.87769706705E+03  0.87769706706E+03  0.50400000000E-02 0. -1.
    8880023    1    1    2    0    0 -0.30875136718E+01 -0.31247925127E+03 -0.65577474226E+03  0.98056286594E+03  0.65864270000E+03 0.  0.
    8880022    1    1    2    0    0  0.30875136718E+01  0.31247925127E+03  0.44882047005E+03  0.56787699598E+03  0.15294330000E+03 0.  0.
<mgrwt>
<rscale>  0 0.60592729E+03</rscale>
<asrwt>0</asrwt>
<pdfrwt beam="1">  1        1 0.13503032E+00 0.72901510E+03</pdfrwt>
<pdfrwt beam="2">  1       -1 0.10319120E+00 0.72901510E+03</pdfrwt>
<totfact> 0.17359718E+01</totfact>
</mgrwt>
</event>
<event>
 4    1  0.1521315E-007  0.7707905E+03  0.7818608E-02  0.9777932E-01
          1   -1    0    0  501    0  0.00000000000E+00  0.00000000000E+00  0.10602586463E+04  0.10602586463E+04  0.50400000000E-02 0. -1.
         -1   -1    0    0    0  501 -0.00000000000E+00 -0.00000000000E+00 -0.44607861510E+03  0.44607861513E+03  0.50400000000E-02 0.  1.
    8880023    1    1    2    0    0  0.39269143595E+03  0.78110815669E+02  0.73079113826E+03  0.10621552417E+04  0.65864270000E+03 0. -1.
    8880022    1    1    2    0    0 -0.39269143595E+03 -0.78110815669E+02 -0.11661110705E+03  0.44418201978E+03  0.15294330000E+03 0.  0.
<mgrwt>
<rscale>  0 0.66560379E+03</rscale>
<asrwt>0</asrwt>
<pdfrwt beam="1">  1        1 0.16311671E+00 0.77079055E+03</pdfrwt>
<pdfrwt beam="2">  1       -1 0.68627479E-01 0.77079055E+03</pdfrwt>
<totfact> 0.29940857E+01</totfact>
</mgrwt>
</event>
<event>
 4    1  0.1521315E-007  0.6838099E+03  0.7818608E-02  0.1007246E+00
         -1   -1    0    0    0  501 -0.00000000000E+00  0.00000000000E+00  0.21620000492E+03  0.21620000498E+03  0.50400000000E-02 0.  1.
          1   -1    0    0  501    0  0.00000000000E+00 -0.00000000000E+00 -0.19422320336E+04  0.19422320336E+04  0.50400000000E-02 0. -1.
    8880023    1    1    2    0    0  0.11588365112E+03  0.14267693766E+03 -0.17855564357E+04  0.19120166633E+04  0.65864270000E+03 0. -1.
    8880022    1    1    2    0    0 -0.11588365112E+03 -0.14267693766E+03  0.59524407063E+02  0.24641537531E+03  0.15294330000E+03 0. -1.
<mgrwt>
<rscale>  0 0.52584113E+03</rscale>
<asrwt>0</asrwt>
<pdfrwt beam="1">  1        1 0.29880492E+00 0.68380987E+03</pdfrwt>
<pdfrwt beam="2">  1       -1 0.33261540E-01 0.68380987E+03</pdfrwt>
<totfact> 0.29015369E+01</totfact>
</mgrwt>
</event>
<event>
 4    1  0.1521315E-007  0.7724624E+03  0.7818608E-02  0.9773850E-01
          1   -1    0    0  501    0  0.00000000000E+00  0.00000000000E+00  0.79066506889E+03  0.79066506891E+03  0.50400000000E-02 0. -1.
         -1   -1    0    0    0  501 -0.00000000000E+00 -0.00000000000E+00 -0.51160997042E+03  0.51160997045E+03  0.50400000000E-02 0.  1.
    8880023    1    1    2    0    0  0.13620634756E+03  0.37991546654E+03  0.37722615178E+03  0.85964975815E+03  0.65864270000E+03 0. -1.
    8880022    1    1    2    0    0 -0.13620634756E+03 -0.37991546654E+03 -0.98171053314E+02  0.44262528120E+03  0.15294330000E+03 0. -1.
<mgrwt>
<rscale>  0 0.66784959E+03</rscale>
<asrwt>0</asrwt>
<pdfrwt beam="1">  1        1 0.12164078E+00 0.77246239E+03</pdfrwt>
<pdfrwt beam="2">  1       -1 0.78709227E-01 0.77246239E+03</pdfrwt>
<totfact> 0.37186978E+01</totfact>
</mgrwt>
</event>
<event>
 4    1  0.1521315E-007  0.7235015E+03  0.7818608E-02  0.9910911E-01
          1   -1    0    0  501    0  0.00000000000E+00  0.00000000000E+00  0.25315384455E+04  0.25315384455E+04  0.50400000000E-02 0. -1.
         -1   -1    0    0    0  501 -0.00000000000E+00 -0.00000000000E+00 -0.12580252846E+03  0.12580252856E+03  0.50400000000E-02 0.  1.
    8880023    1    1    2    0    0  0.27339805231E+03 -0.12205631911E+03  0.20199473733E+04  0.21456098986E+04  0.65864270000E+03 0.  0.
    8880022    1    1    2    0    0 -0.27339805231E+03  0.12205631911E+03  0.38578854372E+03  0.51173107540E+03  0.15294330000E+03 0.  0.
<mgrwt>
<rscale>  0 0.59735380E+03</rscale>
<asrwt>0</asrwt>
<pdfrwt beam="1">  1        1 0.38946745E+00 0.72350152E+03</pdfrwt>
<pdfrwt beam="2">  1       -1 0.19354235E-01 0.72350152E+03</pdfrwt>
<totfact> 0.29210517E+01</totfact>
</mgrwt>
</event>
<event>
 4    1  0.1521315E-007  0.7533607E+03  0.7818608E-02  0.9822609E-01
          1   -1    0    0  501    0  0.00000000000E+00  0.00000000000E+00  0.26020535536E+04  0.26020535536E+04  0.50400000000E-02 0. -1.
         -1   -1    0    0    0  501 -0.00000000000E+00 -0.00000000000E+00 -0.23712027667E+03  0.23712027672E+03  0.50400000000E-02 0.  1.
    8880023    1    1    2    0    0 -0.16452198060E+03 -0.32661093480E+03  0.23211688384E+04  0.24403641465E+04  0.65864270000E+03 0.  0.
    8880022    1    1    2    0    0  0.16452198060E+03  0.32661093480E+03  0.43764438538E+02  0.39880968384E+03  0.15294330000E+03 0.  0.
<mgrwt>
<rscale>  0 0.64163190E+03</rscale>
<asrwt>0</asrwt>
<pdfrwt beam="1">  1        1 0.40031594E+00 0.75336073E+03</pdfrwt>
<pdfrwt beam="2">  1       -1 0.36480042E-01 0.75336073E+03</pdfrwt>
<totfact> 0.87432371E+00</totfact>
</mgrwt>
</event>
<event>
 4    1  0.1521315E-007  0.7959890E+03  0.7818608E-02  0.9719537E-01
         -1   -1    0    0    0  501 -0.00000000000E+00  0.00000000000E+00  0.32884161408E+03  0.32884161412E+03  0.50400000000E-02 0.  1.
          1   -1    0    0  501    0  0.00000000000E+00 -0.00000000000E+00 -0.16600895949E+04  0.16600895949E+04  0.50400000000E-02 0. -1.
    8880023    1    1    2    0    0 -0.14361837515E+03 -0.42327543246E+03 -0.12885552067E+04  0.15145867610E+04  0.65864270000E+03 0.  0.
    8880022    1    1    2    0    0  0.14361837515E+03  0.42327543246E+03 -0.42692774051E+02  0.47434444803E+03  0.15294330000E+03 0.  0.
<mgrwt>
<rscale>  0 0.69865411E+03</rscale>
<asrwt>0</asrwt>
<pdfrwt beam="1">  1        1 0.25539839E+00 0.79598903E+03</pdfrwt>
<pdfrwt beam="2">  1       -1 0.50591019E-01 0.79598903E+03</pdfrwt>
<totfact> 0.20519781E+01</totfact>
</mgrwt>
</event>
<event>
 4    1  0.1521315E-007  0.7048088E+03  0.7818608E-02  0.9977808E-01
         -1   -1    0    0    0  501 -0.00000000000E+00  0.00000000000E+00  0.32046317150E+03  0.32046317154E+03  0.50400000000E-02 0.  1.
          1   -1    0    0  501    0  0.00000000000E+00 -0.00000000000E+00 -0.80103026467E+03  0.80103026468E+03  0.50400000000E-02 0. -1.
    8880023    1    1    2    0    0 -0.11729662082E+03  0.22178096187E+03 -0.42323389719E+03  0.82212069084E+03  0.65864270000E+03 0.  0.
    8880022    1    1    2    0    0  0.11729662082E+03 -0.22178096187E+03 -0.57333195975E+02  0.29937274539E+03  0.15294330000E+03 0.  1.
<mgrwt>
<rscale>  0 0.56634111E+03</rscale>
<asrwt>0</asrwt>
<pdfrwt beam="1">  1        1 0.12323542E+00 0.70480884E+03</pdfrwt>
<pdfrwt beam="2">  1       -1 0.49302027E-01 0.70480884E+03</pdfrwt>
<totfact> 0.93031607E+01</totfact>
</mgrwt>
</event>
<event>
 4    1  0.1521315E-007  0.7066234E+03  0.7818608E-02  0.9970760E-01
         -1   -1    0    0    0  501 -0.00000000000E+00  0.00000000000E+00  0.64085859139E+03  0.64085859141E+03  0.50400000000E-02 0.  1.
          1   -1    0    0  501    0  0.00000000000E+00 -0.00000000000E+00 -0.89363932761E+03  0.89363932762E+03  0.50400000000E-02 0. -1.
    8880023    1    1    2    0    0 -0.23409017060E+03 -0.10348039824E+03 -0.70153378325E+03  0.99572398590E+03  0.65864270000E+03 0. -1.
    8880022    1    1    2    0    0  0.23409017060E+03  0.10348039824E+03  0.44875304703E+03  0.53877393313E+03  0.15294330000E+03 0.  0.
<mgrwt>
<rscale>  0 0.56951155E+03</rscale>
<asrwt>0</asrwt>
<pdfrwt beam="1">  1        1 0.13748297E+00 0.70662338E+03</pdfrwt>
<pdfrwt beam="2">  1       -1 0.98593629E-01 0.70662338E+03</pdfrwt>
<totfact> 0.18748830E+01</totfact>
</mgrwt>
</event>
<event>
 4    1  0.1521315E-007  0.8464461E+03  0.7818608E-02  0.9618143E-01
         -1   -1    0    0    0  501 -0.00000000000E+00  0.00000000000E+00  0.10969968017E+04  0.10969968017E+04  0.50400000000E-02 0.  1.
          1   -1    0    0  501    0  0.00000000000E+00 -0.00000000000E+00 -0.11480709124E+04  0.11480709124E+04  0.50400000000E-02 0. -1.
    8880023    1    1    2    0    0  0.32256710677E+02 -0.53067912745E+03 -0.89762857071E+03  0.12337779739E+04  0.65864270000E+03 0.  0.
    8880022    1    1    2    0    0 -0.32256710677E+02  0.53067912745E+03  0.84655446002E+03  0.10112897401E+04  0.15294330000E+03 0.  0.
<mgrwt>
<rscale>  0 0.76106891E+03</rscale>
<asrwt>0</asrwt>
<pdfrwt beam="1">  1        1 0.17662629E+00 0.84644612E+03</pdfrwt>
<pdfrwt beam="2">  1       -1 0.16876874E+00 0.84644612E+03</pdfrwt>
<totfact> 0.30057491E+00</totfact>
</mgrwt>
</event>
<event>
 4    1  0.1521315E-007  0.6989545E+03  0.7818608E-02  0.1000157E+00
         -1   -1    0    0    0  501 -0.00000000000E+00  0.00000000000E+00  0.39105856620E+03  0.39105856624E+03  0.50400000000E-02 0.  1.
          1   -1    0    0  501    0  0.00000000000E+00 -0.00000000000E+00 -0.25449861783E+04  0.25449861783E+04  0.50400000000E-02 0. -1.
    8880023    1    1    2    0    0 -0.17913676556E+00  0.23393828906E+03 -0.24387844284E+04  0.25369680427E+04  0.65864270000E+03 0. -1.
    8880022    1    1    2    0    0  0.17913676556E+00 -0.23393828906E+03  0.28485681628E+03  0.39907670187E+03  0.15294330000E+03 0.  0.
<mgrwt>
<rscale>  0 0.55581610E+03</rscale>
<asrwt>0</asrwt>
<pdfrwt beam="1">  1        1 0.39153633E+00 0.69895448E+03</pdfrwt>
<pdfrwt beam="2">  1       -1 0.60162858E-01 0.69895448E+03</pdfrwt>
<totfact> 0.37857893E+00</totfact>
</mgrwt>
</event>
<event>
 4    1  0.1521315E-007  0.7150103E+03  0.7818608E-02  0.9939846E-01
         -1   -1    0    0    0  501 -0.00000000000E+00  0.00000000000E+00  0.67545067073E+03  0.67545067075E+03  0.50400000000E-02 0.  1.
          1   -1    0    0  501    0  0.00000000000E+00 -0.00000000000E+00 -0.61484903061E+03  0.61484903064E+03  0.50400000000E-02 0. -1.
    8880023    1    1    2    0    0 -0.25621854941E+03 -0.10854272910E+03 -0.32952358054E+03  0.78728995008E+03  0.65864270000E+03 0. -1.
    8880022    1    1    2    0    0  0.25621854941E+03  0.10854272910E+03  0.39012522065E+03  0.50300975130E+03  0.15294330000E+03 0.  0.
<mgrwt>
<rscale>  0 0.58368448E+03</rscale>
<asrwt>0</asrwt>
<pdfrwt beam="1">  1        1 0.94592159E-01 0.71501026E+03</pdfrwt>
<pdfrwt beam="2">  1       -1 0.10391549E+00 0.71501026E+03</pdfrwt>
<totfact> 0.29641487E+01</totfact>
</mgrwt>
</event>
<event>
 4    1  0.1521315E-007  0.9130177E+03  0.7818608E-02  0.9505449E-01
          1   -1    0    0  501    0  0.00000000000E+00  0.00000000000E+00  0.32103963209E+04  0.32103963209E+04  0.50400000000E-02 0. -1.
         -1   -1    0    0    0  501 -0.00000000000E+00 -0.00000000000E+00 -0.35490844386E+03  0.35490844390E+03  0.50400000000E-02 0.  1.
    8880023    1    1    2    0    0  0.57573809570E+03 -0.26137487193E+03  0.27608870343E+04  0.29079371728E+04  0.65864270000E+03 0.  0.
    8880022    1    1    2    0    0 -0.57573809570E+03  0.26137487193E+03  0.94600842707E+02  0.65736759197E+03  0.15294330000E+03 0.  0.
<mgrwt>
<rscale>  0 0.83883282E+03</rscale>
<asrwt>0</asrwt>
<pdfrwt beam="1">  1        1 0.49390713E+00 0.91301774E+03</pdfrwt>
<pdfrwt beam="2">  1       -1 0.54601299E-01 0.91301774E+03</pdfrwt>
<totfact> 0.14821582E+00</totfact>
</mgrwt>
</event>
<event>
 4    1  0.1521315E-007  0.6779081E+03  0.7818608E-02  0.1010533E+00
          1   -1    0    0  501    0  0.00000000000E+00  0.00000000000E+00  0.69845495570E+03  0.69845495572E+03  0.50400000000E-02 0. -1.
         -1   -1    0    0    0  501 -0.00000000000E+00 -0.00000000000E+00 -0.55607855855E+03  0.55607855858E+03  0.50400000000E-02 0.  1.
    8880023    1    1    2    0    0 -0.72747766970E+02  0.14302762962E+03  0.49404148793E+03  0.83883033952E+03  0.65864270000E+03 0.  0.
    8880022    1    1    2    0    0  0.72747766970E+02 -0.14302762962E+03 -0.35166509078E+03  0.41570317478E+03  0.15294330000E+03 0.  0.
<mgrwt>
<rscale>  0 0.51263514E+03</rscale>
<asrwt>0</asrwt>
<pdfrwt beam="1">  1        1 0.10745461E+00 0.67790807E+03</pdfrwt>
<pdfrwt beam="2">  1       -1 0.85550548E-01 0.67790807E+03</pdfrwt>
<totfact> 0.38059011E+01</totfact>
</mgrwt>
</event>
<event>
 4    1  0.1521315E-007  0.1019941E+04  0.7818608E-02  0.9355921E-01
         -1   -1    0    0    0  501 -0.00000000000E+00  0.00000000000E+00  0.55068917341E+03  0.55068917343E+03  0.50400000000E-02 0.  1.
          1   -1    0    0  501    0  0.00000000000E+00 -0.00000000000E+00 -0.15234398464E+04  0.15234398464E+04  0.50400000000E-02 0. -1.
    8880023    1    1    2    0    0 -0.24514300801E+02 -0.77837552089E+03 -0.69094784412E+03  0.12319450199E+04  0.65864270000E+03 0.  0.
    8880022    1    1    2    0    0  0.24514300801E+02  0.77837552089E+03 -0.28180282891E+03  0.84218400000E+03  0.15294330000E+03 0.  0.
<mgrwt>
<rscale>  0 0.95793684E+03</rscale>
<asrwt>0</asrwt>
<pdfrwt beam="1">  1        1 0.23437536E+00 0.10199410E+04</pdfrwt>
<pdfrwt beam="2">  1       -1 0.84721412E-01 0.10199410E+04</pdfrwt>
<totfact> 0.87217448E+00</totfact>
</mgrwt>
</event>
<event>
 4    1  0.1521315E-007  0.8639860E+03  0.7818608E-02  0.9586512E-01
         -1   -1    0    0    0  501 -0.00000000000E+00  0.00000000000E+00  0.75791946771E+03  0.75791946773E+03  0.50400000000E-02 0.  1.
          1   -1    0    0  501    0  0.00000000000E+00 -0.00000000000E+00 -0.19042275096E+04  0.19042275096E+04  0.50400000000E-02 0. -1.
    8880023    1    1    2    0    0  0.31572982644E+03 -0.46149357339E+03 -0.16704281296E+04  0.18806387171E+04  0.65864270000E+03 0. -1.
    8880022    1    1    2    0    0 -0.31572982644E+03  0.46149357339E+03  0.52412008770E+03  0.78150826031E+03  0.15294330000E+03 0.  0.
<mgrwt>
<rscale>  0 0.78195373E+03</rscale>
<asrwt>0</asrwt>
<pdfrwt beam="1">  1        1 0.29295808E+00 0.86398602E+03</pdfrwt>
<pdfrwt beam="2">  1       -1 0.11660300E+00 0.86398602E+03</pdfrwt>
<totfact> 0.23686462E+00</totfact>
</mgrwt>
</event>
<event>
 4    1  0.1521315E-007  0.1020506E+04  0.7818608E-02  0.9355208E-01
          1   -1    0    0  501    0  0.00000000000E+00  0.00000000000E+00  0.20030011653E+04  0.20030011653E+04  0.50400000000E-02 0. -1.
         -1   -1    0    0    0  501 -0.00000000000E+00 -0.00000000000E+00 -0.50206210392E+03  0.50206210394E+03  0.50400000000E-02 0.  1.
    8880023    1    1    2    0    0 -0.69036000997E+03 -0.36197444385E+03  0.13567723007E+04  0.16977230998E+04  0.65864270000E+03 0.  0.
    8880022    1    1    2    0    0  0.69036000997E+03  0.36197444385E+03  0.14416676072E+03  0.80734016949E+03  0.15294330000E+03 0.  0.
<mgrwt>
<rscale>  0 0.95855399E+03</rscale>
<asrwt>0</asrwt>
<pdfrwt beam="1">  1        1 0.30815403E+00 0.10205061E+04</pdfrwt>
<pdfrwt beam="2">  1       -1 0.77240323E-01 0.10205061E+04</pdfrwt>
<totfact> 0.50284284E+00</totfact>
</mgrwt>
</event>
<event>
 4    1  0.1521315E-007  0.7032763E+03  0.7818608E-02  0.9983872E-01
         -1   -1    0    0    0  501 -0.00000000000E+00  0.00000000000E+00  0.24600191965E+03  0.24600191970E+03  0.50400000000E-02 0.  1.
          1   -1    0    0  501    0  0.00000000000E+00 -0.00000000000E+00 -0.12676257039E+04  0.12676257039E+04  0.50400000000E-02 0. -1.
    8880023    1    1    2    0    0 -0.16390907576E+03  0.18417695743E+03 -0.10002008502E+04  0.12227016332E+04  0.65864270000E+03 0. -1.
    8880022    1    1    2    0    0  0.16390907576E+03 -0.18417695743E+03 -0.21422933992E+02  0.29092599038E+03  0.15294330000E+03 0.  0.
<mgrwt>
<rscale>  0 0.56363110E+03</rscale>
<asrwt>0</asrwt>
<pdfrwt beam="1">  1        1 0.19501934E+00 0.70327629E+03</pdfrwt>
<pdfrwt beam="2">  1       -1 0.37846450E-01 0.70327629E+03</pdfrwt>
<totfact> 0.66148223E+01</totfact>
</mgrwt>
</event>
<event>
 4    1  0.1521315E-007  0.9321596E+03  0.7818608E-02  0.9476261E-01
          1   -1    0    0  501    0  0.00000000000E+00  0.00000000000E+00  0.15193234109E+04  0.15193234110E+04  0.50400000000E-02 0. -1.
         -1   -1    0    0    0  501 -0.00000000000E+00 -0.00000000000E+00 -0.44496606159E+03  0.44496606162E+03  0.50400000000E-02 0.  1.
    8880023    1    1    2    0    0 -0.13950736869E+03 -0.64470851437E+03  0.41915902016E+03  0.10220645111E+04  0.65864270000E+03 0.  0.
    8880022    1    1    2    0    0  0.13950736869E+03  0.64470851437E+03  0.65519832919E+03  0.94222496147E+03  0.15294330000E+03 0.  0.
<mgrwt>
<rscale>  0 0.86056860E+03</rscale>
<asrwt>0</asrwt>
<pdfrwt beam="1">  1        1 0.23374206E+00 0.93215963E+03</pdfrwt>
<pdfrwt beam="2">  1       -1 0.68456317E-01 0.93215963E+03</pdfrwt>
<totfact> 0.13883928E+01</totfact>
</mgrwt>
</event>
<event>
 4    1  0.1521315E-007  0.7529388E+03  0.7818608E-02  0.9823743E-01
          1   -1    0    0  501    0  0.00000000000E+00  0.00000000000E+00  0.91700692081E+03  0.91700692082E+03  0.50400000000E-02 0. -1.
         -1   -1    0    0    0  501 -0.00000000000E+00 -0.00000000000E+00 -0.57587426313E+03  0.57587426315E+03  0.50400000000E-02 0.  1.
    8880023    1    1    2    0    0 -0.33786760743E+03 -0.13766678004E+03  0.64707240746E+03  0.99278374747E+03  0.65864270000E+03 0. -1.
    8880022    1    1    2    0    0  0.33786760743E+03  0.13766678004E+03 -0.30593974979E+03  0.50009743650E+03  0.15294330000E+03 0.  0.
<mgrwt>
<rscale>  0 0.64103756E+03</rscale>
<asrwt>0</asrwt>
<pdfrwt beam="1">  1        1 0.14107799E+00 0.75293882E+03</pdfrwt>
<pdfrwt beam="2">  1       -1 0.88596040E-01 0.75293882E+03</pdfrwt>
<totfact> 0.22643740E+01</totfact>
</mgrwt>
</event>
<event>
 4    1  0.1521315E-007  0.1113064E+04  0.7818608E-02  0.9246649E-01
         -1   -1    0    0    0  501 -0.00000000000E+00  0.00000000000E+00  0.11455495323E+04  0.11455495323E+04  0.50400000000E-02 0.  1.
          1   -1    0    0  501    0  0.00000000000E+00 -0.00000000000E+00 -0.17655426191E+04  0.17655426191E+04  0.50400000000E-02 0. -1.
    8880023    1    1    2    0    0 -0.73442581879E+03  0.51547956547E+03  0.69469368076E+03  0.13120632538E+04  0.65864270000E+03 0.  1.
    8880022    1    1    2    0    0  0.73442581879E+03 -0.51547956547E+03 -0.13146867675E+04  0.15990288976E+04  0.15294330000E+03 0. -1.
<mgrwt>
<rscale>  0 0.10584639E+04</rscale>
<asrwt>0</asrwt>
<pdfrwt beam="1">  1        1 0.27162194E+00 0.11130636E+04</pdfrwt>
<pdfrwt beam="2">  1       -1 0.17623839E+00 0.11130636E+04</pdfrwt>
<totfact> 0.94525031E-01</totfact>
</mgrwt>
</event>
<event>
 4    1  0.1521315E-007  0.7362932E+03  0.7818608E-02  0.9870879E-01
          1   -1    0    0  501    0  0.00000000000E+00  0.00000000000E+00  0.20886270812E+04  0.20886270812E+04  0.50400000000E-02 0. -1.
         -1   -1    0    0    0  501 -0.00000000000E+00 -0.00000000000E+00 -0.21444586888E+03  0.21444586894E+03  0.50400000000E-02 0.  1.
    8880023    1    1    2    0    0 -0.31268697363E+03 -0.10268566848E+03  0.17827511799E+04  0.19288155603E+04  0.65864270000E+03 0.  1.
    8880022    1    1    2    0    0  0.31268697363E+03  0.10268566848E+03  0.91430032389E+02  0.37425738981E+03  0.15294330000E+03 0.  0.
<mgrwt>
<rscale>  0 0.61693596E+03</rscale>
<asrwt>0</asrwt>
<pdfrwt beam="1">  1        1 0.32132725E+00 0.73629321E+03</pdfrwt>
<pdfrwt beam="2">  1       -1 0.32991671E-01 0.73629321E+03</pdfrwt>
<totfact> 0.23328793E+01</totfact>
</mgrwt>
</event>
<event>
 4    1  0.1521315E-007  0.1003441E+04  0.7818608E-02  0.9377069E-01
         -1   -1    0    0    0  501 -0.00000000000E+00  0.00000000000E+00  0.44041716852E+03  0.44041716855E+03  0.50400000000E-02 0.  1.
          1   -1    0    0  501    0  0.00000000000E+00 -0.00000000000E+00 -0.28767557157E+04  0.28767557157E+04  0.50400000000E-02 0. -1.
    8880023    1    1    2    0    0  0.39731033637E+03 -0.64438263990E+03 -0.23308701833E+04  0.25376860538E+04  0.65864270000E+03 0.  0.
    8880022    1    1    2    0    0 -0.39731033637E+03  0.64438263990E+03 -0.10546836383E+03  0.77948683040E+03  0.15294330000E+03 0.  0.
<mgrwt>
<rscale>  0 0.93987079E+03</rscale>
<asrwt>0</asrwt>
<pdfrwt beam="1">  1        1 0.44257779E+00 0.10034414E+04</pdfrwt>
<pdfrwt beam="2">  1       -1 0.67756489E-01 0.10034414E+04</pdfrwt>
<totfact> 0.16603115E+00</totfact>
</mgrwt>
</event>
<event>
 4    1  0.1521315E-007  0.8301952E+03  0.7818608E-02  0.9648953E-01
         -1   -1    0    0    0  501 -0.00000000000E+00  0.00000000000E+00  0.49830415691E+03  0.49830415694E+03  0.50400000000E-02 0.  1.
          1   -1    0    0  501    0  0.00000000000E+00 -0.00000000000E+00 -0.12095081259E+04  0.12095081259E+04  0.50400000000E-02 0. -1.
    8880023    1    1    2    0    0 -0.37311830183E+03  0.34087627187E+03 -0.82199993951E+03  0.11682927744E+04  0.65864270000E+03 0. -1.
    8880022    1    1    2    0    0  0.37311830183E+03 -0.34087627187E+03  0.11079597054E+03  0.53951950844E+03  0.15294330000E+03 0.  0.
<mgrwt>
<rscale>  0 0.74139192E+03</rscale>
<asrwt>0</asrwt>
<pdfrwt beam="1">  1        1 0.18607817E+00 0.83019522E+03</pdfrwt>
<pdfrwt beam="2">  1       -1 0.76662179E-01 0.83019522E+03</pdfrwt>
<totfact> 0.18344288E+01</totfact>
</mgrwt>
</event>
<event>
 4    1  0.1521315E-007  0.6631041E+03  0.7818608E-02  0.1021180E+00
          1   -1    0    0  501    0  0.00000000000E+00  0.00000000000E+00  0.12621414032E+04  0.12621414032E+04  0.50400000000E-02 0. -1.
         -1   -1    0    0    0  501 -0.00000000000E+00 -0.00000000000E+00 -0.23402080929E+03  0.23402080935E+03  0.50400000000E-02 0.  1.
    8880023    1    1    2    0    0 -0.59553787823E+02 -0.48479330728E+02  0.11202551845E+04  0.13017982885E+04  0.65864270000E+03 0.  0.
    8880022    1    1    2    0    0  0.59553787823E+02  0.48479330728E+02 -0.92134590672E+02  0.19436392403E+03  0.15294330000E+03 0.  0.
<mgrwt>
<rscale>  0 0.47263246E+03</rscale>
<asrwt>0</asrwt>
<pdfrwt beam="1">  1        1 0.19417560E+00 0.66310414E+03</pdfrwt>
<pdfrwt beam="2">  1       -1 0.36003201E-01 0.66310414E+03</pdfrwt>
<totfact> 0.73303463E+01</totfact>
</mgrwt>
</event>
<event>
 4    1  0.1521315E-007  0.9940665E+03  0.7818608E-02  0.9389362E-01
          1   -1    0    0  501    0  0.00000000000E+00  0.00000000000E+00  0.28217467958E+04  0.28217467958E+04  0.50400000000E-02 0. -1.
         -1   -1    0    0    0  501 -0.00000000000E+00 -0.00000000000E+00 -0.42113707350E+03  0.42113707353E+03  0.50400000000E-02 0.  1.
    8880023    1    1    2    0    0 -0.70417184694E+03  0.24186772968E+03  0.22612641526E+04  0.24701181678E+04  0.65864270000E+03 0. -1.
    8880022    1    1    2    0    0  0.70417184694E+03 -0.24186772968E+03  0.13934556968E+03  0.77276570155E+03  0.15294330000E+03 0.  0.
<mgrwt>
<rscale>  0 0.92956345E+03</rscale>
<asrwt>0</asrwt>
<pdfrwt beam="1">  1        1 0.43411489E+00 0.99406649E+03</pdfrwt>
<pdfrwt beam="2">  1       -1 0.64790319E-01 0.99406649E+03</pdfrwt>
<totfact> 0.19919017E+00</totfact>
</mgrwt>
</event>
<event>
 4    1  0.1521315E-007  0.7915010E+03  0.7818608E-02  0.9729483E-01
         -1   -1    0    0    0  501 -0.00000000000E+00  0.00000000000E+00  0.57948265019E+03  0.57948265022E+03  0.50400000000E-02 0.  1.
          1   -1    0    0  501    0  0.00000000000E+00 -0.00000000000E+00 -0.26809012904E+04  0.26809012904E+04  0.50400000000E-02 0. -1.
    8880023    1    1    2    0    0 -0.57667082000E+02  0.43513000452E+03 -0.25159876189E+04  0.26375495290E+04  0.65864270000E+03 0. -1.
    8880022    1    1    2    0    0  0.57667082000E+02 -0.43513000452E+03  0.41456897870E+03  0.62283441162E+03  0.15294330000E+03 0.  0.
<mgrwt>
<rscale>  0 0.69288188E+03</rscale>
<asrwt>0</asrwt>
<pdfrwt beam="1">  1        1 0.41244634E+00 0.79150099E+03</pdfrwt>
<pdfrwt beam="2">  1       -1 0.89151179E-01 0.79150099E+03</pdfrwt>
<totfact> 0.13245249E+00</totfact>
</mgrwt>
</event>
<event>
 4    1  0.1521315E-007  0.1026836E+04  0.7818608E-02  0.9347261E-01
         -1   -1    0    0    0  501 -0.00000000000E+00  0.00000000000E+00  0.70109493575E+03  0.70109493576E+03  0.50400000000E-02 0.  1.
          1   -1    0    0  501    0  0.00000000000E+00 -0.00000000000E+00 -0.16536045689E+04  0.16536045689E+04  0.50400000000E-02 0. -1.
    8880023    1    1    2    0    0  0.56842789802E+03  0.54540934713E+03 -0.11362142265E+04  0.15314615914E+04  0.65864270000E+03 0. -1.
    8880022    1    1    2    0    0 -0.56842789802E+03 -0.54540934713E+03  0.18370459336E+03  0.82323791326E+03  0.15294330000E+03 0.  0.
<mgrwt>
<rscale>  0 0.96545991E+03</rscale>
<asrwt>0</asrwt>
<pdfrwt beam="1">  1        1 0.25440070E+00 0.10268358E+04</pdfrwt>
<pdfrwt beam="2">  1       -1 0.10786076E+00 0.10268358E+04</pdfrwt>
<totfact> 0.41133434E+00</totfact>
</mgrwt>
</event>
<event>
 4    1  0.1521315E-007  0.8859746E+03  0.7818608E-02  0.9548933E-01
          1   -1    0    0  501    0  0.00000000000E+00  0.00000000000E+00  0.12778746939E+04  0.12778746939E+04  0.50400000000E-02 0. -1.
         -1   -1    0    0    0  501 -0.00000000000E+00 -0.00000000000E+00 -0.72587965574E+03  0.72587965576E+03  0.50400000000E-02 0.  1.
    8880023    1    1    2    0    0 -0.53940802949E+03  0.24531556429E+03  0.92997589517E+03  0.12844477880E+04  0.65864270000E+03 0.  0.
    8880022    1    1    2    0    0  0.53940802949E+03 -0.24531556429E+03 -0.37798085699E+03  0.71930656165E+03  0.15294330000E+03 0.  0.
<mgrwt>
<rscale>  0 0.80770379E+03</rscale>
<asrwt>0</asrwt>
<pdfrwt beam="1">  1        1 0.19659611E+00 0.88597458E+03</pdfrwt>
<pdfrwt beam="2">  1       -1 0.11167379E+00 0.88597458E+03</pdfrwt>
<totfact> 0.70303558E+00</totfact>
</mgrwt>
</event>
<event>
 4    1  0.1521315E-007  0.6611867E+03  0.7818608E-02  0.1022972E+00
         -1   -1    0    0    0  501 -0.00000000000E+00  0.00000000000E+00  0.44527703912E+03  0.44527703915E+03  0.50400000000E-02 0.  1.
          1   -1    0    0  501    0  0.00000000000E+00 -0.00000000000E+00 -0.85432973999E+03  0.85432974000E+03  0.50400000000E-02 0. -1.
    8880023    1    1    2    0    0  0.97746528042E+01  0.57115353283E+02 -0.70184102985E+03  0.96423479758E+03  0.65864270000E+03 0. -1.
    8880022    1    1    2    0    0 -0.97746528042E+01 -0.57115353283E+02  0.29278832899E+03  0.33537198157E+03  0.15294330000E+03 0.  0.
<mgrwt>
<rscale>  0 0.46629127E+03</rscale>
<asrwt>0</asrwt>
<pdfrwt beam="1">  1        1 0.13143534E+00 0.66118675E+03</pdfrwt>
<pdfrwt beam="2">  1       -1 0.68504160E-01 0.66118675E+03</pdfrwt>
<totfact> 0.44263068E+01</totfact>
</mgrwt>
</event>
<event>
 4    1  0.1521315E-007  0.7826317E+03  0.7818608E-02  0.9749691E-01
         -1   -1    0    0    0  501 -0.00000000000E+00  0.00000000000E+00  0.19742447076E+04  0.19742447076E+04  0.50400000000E-02 0.  1.
          1   -1    0    0  501    0  0.00000000000E+00 -0.00000000000E+00 -0.22685860375E+03  0.22685860380E+03  0.50400000000E-02 0. -1.
    8880023    1    1    2    0    0  0.38683706743E+03 -0.17046794703E+03  0.65757100680E+03  0.10222094076E+04  0.65864270000E+03 0.  0.
    8880022    1    1    2    0    0 -0.38683706743E+03  0.17046794703E+03  0.10898150970E+04  0.11788939038E+04  0.15294330000E+03 0.  0.
<mgrwt>
<rscale>  0 0.68133742E+03</rscale>
<asrwt>0</asrwt>
<pdfrwt beam="1">  1        1 0.34901323E-01 0.78263174E+03</pdfrwt>
<pdfrwt beam="2">  1       -1 0.30372996E+00 0.78263174E+03</pdfrwt>
<totfact> 0.41074517E+00</totfact>
</mgrwt>
</event>
<event>
 4    1  0.1521315E-007  0.6776288E+03  0.7818608E-02  0.1010698E+00
         -1   -1    0    0    0  501 -0.00000000000E+00  0.00000000000E+00  0.10250684989E+04  0.10250684989E+04  0.50400000000E-02 0.  1.
          1   -1    0    0  501    0  0.00000000000E+00 -0.00000000000E+00 -0.26520789989E+03  0.26520789994E+03  0.50400000000E-02 0. -1.
    8880023    1    1    2    0    0  0.11852020473E+03 -0.10641194705E+03  0.22892981002E+03  0.71525492349E+03  0.65864270000E+03 0.  0.
    8880022    1    1    2    0    0 -0.11852020473E+03  0.10641194705E+03  0.53093078897E+03  0.57502147533E+03  0.15294330000E+03 0.  0.
<mgrwt>
<rscale>  0 0.51198152E+03</rscale>
<asrwt>0</asrwt>
<pdfrwt beam="1">  1        1 0.40801216E-01 0.67762877E+03</pdfrwt>
<pdfrwt beam="2">  1       -1 0.15770284E+00 0.67762877E+03</pdfrwt>
<totfact> 0.32247595E+01</totfact>
</mgrwt>
</event>
<event>
 4    1  0.1521315E-007  0.6599087E+03  0.7818608E-02  0.1024250E+00
          1   -1    0    0  501    0  0.00000000000E+00  0.00000000000E+00  0.25671865081E+04  0.25671865081E+04  0.50400000000E-02 0. -1.
         -1   -1    0    0    0  501 -0.00000000000E+00 -0.00000000000E+00 -0.33707504230E+03  0.33707504234E+03  0.50400000000E-02 0.  1.
    8880023    1    1    2    0    0 -0.37449615845E+02  0.16332782355E+02  0.25031359981E+04  0.25886616744E+04  0.65864270000E+03 0.  0.
    8880022    1    1    2    0    0  0.37449615845E+02 -0.16332782355E+02 -0.27302453227E+03  0.31559987602E+03  0.15294330000E+03 0.  1.
<mgrwt>
<rscale>  0 0.46183562E+03</rscale>
<asrwt>0</asrwt>
<pdfrwt beam="1">  1        1 0.39495178E+00 0.65990866E+03</pdfrwt>
<pdfrwt beam="2">  1       -1 0.51857698E-01 0.65990866E+03</pdfrwt>
<totfact> 0.49130068E+00</totfact>
</mgrwt>
</event>
<event>
 4    1  0.1521315E-007  0.7469865E+03  0.7818608E-02  0.9840044E-01
          1   -1    0    0  501    0  0.00000000000E+00  0.00000000000E+00  0.83445699984E+03  0.83445699986E+03  0.50400000000E-02 0. -1.
         -1   -1    0    0    0  501 -0.00000000000E+00 -0.00000000000E+00 -0.38384221566E+03  0.38384221569E+03  0.50400000000E-02 0.  1.
    8880023    1    1    2    0    0 -0.81864236965E+02  0.34274893869E+03  0.27626432614E+03  0.79643629528E+03  0.65864270000E+03 0.  0.
    8880022    1    1    2    0    0  0.81864236965E+02 -0.34274893869E+03  0.17435045804E+03  0.42186292027E+03  0.15294330000E+03 0. -1.
<mgrwt>
<rscale>  0 0.63257118E+03</rscale>
<asrwt>0</asrwt>
<pdfrwt beam="1">  1        1 0.12837800E+00 0.74698648E+03</pdfrwt>
<pdfrwt beam="2">  1       -1 0.59052650E-01 0.74698648E+03</pdfrwt>
<totfact> 0.61338389E+01</totfact>
</mgrwt>
</event>
<event>
 4    1  0.1521315E-007  0.9051164E+03  0.7818608E-02  0.9517868E-01
          1   -1    0    0  501    0  0.00000000000E+00  0.00000000000E+00  0.42953752900E+04  0.42953752900E+04  0.50400000000E-02 0. -1.
         -1   -1    0    0    0  501 -0.00000000000E+00 -0.00000000000E+00 -0.29345866874E+03  0.29345866878E+03  0.50400000000E-02 0.  1.
    8880023    1    1    2    0    0  0.35475423359E+03  0.50948489084E+03  0.38175701250E+04  0.39234012395E+04  0.65864270000E+03 0. -1.
    8880022    1    1    2    0    0 -0.35475423359E+03 -0.50948489084E+03  0.18434649625E+03  0.66543271932E+03  0.15294330000E+03 0.  0.
<mgrwt>
<rscale>  0 0.82979237E+03</rscale>
<asrwt>0</asrwt>
<pdfrwt beam="1">  1        1 0.66082693E+00 0.90511636E+03</pdfrwt>
<pdfrwt beam="2">  1       -1 0.45147490E-01 0.90511636E+03</pdfrwt>
<totfact> 0.27151131E-01</totfact>
</mgrwt>
</event>
<event>
 4    1  0.1521315E-007  0.8190335E+03  0.7818608E-02  0.9671059E-01
         -1   -1    0    0    0  501 -0.00000000000E+00  0.00000000000E+00  0.16107811496E+04  0.16107811496E+04  0.50400000000E-02 0.  1.
          1   -1    0    0  501    0  0.00000000000E+00 -0.00000000000E+00 -0.68308574582E+03  0.68308574584E+03  0.50400000000E-02 0. -1.
    8880023    1    1    2    0    0  0.37272192725E+03 -0.31318361021E+03 -0.37053294670E+03  0.89894965355E+03  0.65864270000E+03 0.  0.
    8880022    1    1    2    0    0 -0.37272192725E+03  0.31318361021E+03  0.12982283504E+04  0.13949172419E+04  0.15294330000E+03 0.  0.
<mgrwt>
<rscale>  0 0.72766383E+03</rscale>
<asrwt>0</asrwt>
<pdfrwt beam="1">  1        1 0.10509012E+00 0.81903346E+03</pdfrwt>
<pdfrwt beam="2">  1       -1 0.24781248E+00 0.81903346E+03</pdfrwt>
<totfact> 0.21060220E+00</totfact>
</mgrwt>
</event>
<event>
 4    1  0.1521315E-007  0.1910721E+04  0.7818608E-02  0.8663642E-01
          1   -1    0    0  501    0  0.00000000000E+00  0.00000000000E+00  0.20467294640E+04  0.20467294640E+04  0.50400000000E-02 0. -1.
         -1   -1    0    0    0  501 -0.00000000000E+00 -0.00000000000E+00 -0.19260605307E+04  0.19260605307E+04  0.50400000000E-02 0.  1.
    8880023    1    1    2    0    0  0.10828775620E+03 -0.17903401866E+04  0.76873662793E+03  0.20595655929E+04  0.65864270000E+03 0.  0.
    8880022    1    1    2    0    0 -0.10828775620E+03  0.17903401866E+04 -0.64806769462E+03  0.19132244019E+04  0.15294330000E+03 0.  0.
<mgrwt>
<rscale>  0 0.18824497E+04</rscale>
<asrwt>0</asrwt>
<pdfrwt beam="1">  1        1 0.31488146E+00 0.19107209E+04</pdfrwt>
<pdfrwt beam="2">  1       -1 0.29631700E+00 0.19107209E+04</pdfrwt>
<totfact> 0.86970854E-02</totfact>
</mgrwt>
</event>
<event>
 4    1  0.1521315E-007  0.7572502E+03  0.7818608E-02  0.9812279E-01
         -1   -1    0    0    0  501 -0.00000000000E+00  0.00000000000E+00  0.31464703686E+03  0.31464703690E+03  0.50400000000E-02 0.  1.
          1   -1    0    0  501    0  0.00000000000E+00 -0.00000000000E+00 -0.20584492930E+04  0.20584492930E+04  0.50400000000E-02 0. -1.
    8880023    1    1    2    0    0 -0.30621754729E+03 -0.21412246318E+03 -0.18117855504E+04  0.19636686845E+04  0.65864270000E+03 0. -1.
    8880022    1    1    2    0    0  0.30621754729E+03  0.21412246318E+03  0.67983294276E+02  0.40942764540E+03  0.15294330000E+03 0.  0.
<mgrwt>
<rscale>  0 0.64707716E+03</rscale>
<asrwt>0</asrwt>
<pdfrwt beam="1">  1        1 0.31668450E+00 0.75725017E+03</pdfrwt>
<pdfrwt beam="2">  1       -1 0.48407238E-01 0.75725017E+03</pdfrwt>
<totfact> 0.12123643E+01</totfact>
</mgrwt>
</event>
<event>
 4    1  0.1521315E-007  0.6910133E+03  0.7818608E-02  0.1003675E+00
          1   -1    0    0  501    0  0.00000000000E+00  0.00000000000E+00  0.89759999623E+03  0.89759999624E+03  0.50400000000E-02 0. -1.
         -1   -1    0    0    0  501 -0.00000000000E+00 -0.00000000000E+00 -0.28275767853E+03  0.28275767858E+03  0.50400000000E-02 0.  1.
    8880023    1    1    2    0    0  0.20888055009E+03  0.76195777555E+01  0.60933866377E+03  0.92129960143E+03  0.65864270000E+03 0.  0.
    8880022    1    1    2    0    0 -0.20888055009E+03 -0.76195777555E+01  0.55036539323E+01  0.25905807339E+03  0.15294330000E+03 0.  0.
<mgrwt>
<rscale>  0 0.54067908E+03</rscale>
<asrwt>0</asrwt>
<pdfrwt beam="1">  1        1 0.13809231E+00 0.69101328E+03</pdfrwt>
<pdfrwt beam="2">  1       -1 0.43501181E-01 0.69101328E+03</pdfrwt>
<totfact> 0.97643286E+01</totfact>
</mgrwt>
</event>
<event>
 4    1  0.1521315E-007  0.8805590E+03  0.7818608E-02  0.9557990E-01
         -1   -1    0    0    0  501 -0.00000000000E+00  0.00000000000E+00  0.11335346250E+04  0.11335346250E+04  0.50400000000E-02 0.  1.
          1   -1    0    0  501    0  0.00000000000E+00 -0.00000000000E+00 -0.12754434936E+04  0.12754434936E+04  0.50400000000E-02 0. -1.
    8880023    1    1    2    0    0 -0.52903003695E+03 -0.24839717839E+03 -0.10172342371E+04  0.13454180159E+04  0.65864270000E+03 0.  0.
    8880022    1    1    2    0    0  0.52903003695E+03  0.24839717839E+03  0.87532536850E+03  0.10635601027E+04  0.15294330000E+03 0.  0.
<mgrwt>
<rscale>  0 0.80140184E+03</rscale>
<asrwt>0</asrwt>
<pdfrwt beam="1">  1        1 0.19622208E+00 0.88055900E+03</pdfrwt>
<pdfrwt beam="2">  1       -1 0.17438994E+00 0.88055900E+03</pdfrwt>
<totfact> 0.21994128E+00</totfact>
</mgrwt>
</event>
<event>
 4    1  0.1521315E-007  0.7950996E+03  0.7818608E-02  0.9721494E-01
          1   -1    0    0  501    0  0.00000000000E+00  0.00000000000E+00  0.10006449521E+04  0.10006449521E+04  0.50400000000E-02 0. -1.
         -1   -1    0    0    0  501 -0.00000000000E+00 -0.00000000000E+00 -0.71221872927E+03  0.71221872929E+03  0.50400000000E-02 0.  1.
    8880023    1    1    2    0    0 -0.41316865111E+03  0.16632763214E+03  0.72107309985E+03  0.10733731118E+04  0.65864270000E+03 0.  0.
    8880022    1    1    2    0    0  0.41316865111E+03 -0.16632763214E+03 -0.43264687701E+03  0.63949056965E+03  0.15294330000E+03 0.  0.
<mgrwt>
<rscale>  0 0.69751372E+03</rscale>
<asrwt>0</asrwt>
<pdfrwt beam="1">  1        1 0.15394538E+00 0.79509963E+03</pdfrwt>
<pdfrwt beam="2">  1       -1 0.10957211E+00 0.79509963E+03</pdfrwt>
<totfact> 0.11940318E+01</totfact>
</mgrwt>
</event>
<event>
 4    1  0.1521315E-007  0.1380448E+04  0.7818608E-02  0.8999026E-01
         -1   -1    0    0    0  501 -0.00000000000E+00  0.00000000000E+00  0.63831153225E+03  0.63831153227E+03  0.50400000000E-02 0.  1.
          1   -1    0    0  501    0  0.00000000000E+00 -0.00000000000E+00 -0.34934254336E+04  0.34934254336E+04  0.50400000000E-02 0. -1.
    8880023    1    1    2    0    0  0.61771702900E+03  0.10441508594E+04 -0.48211134659E+03  0.14622130152E+04  0.65864270000E+03 0.  0.
    8880022    1    1    2    0    0 -0.61771702900E+03 -0.10441508594E+04 -0.23730025548E+04  0.26695239507E+04  0.15294330000E+03 0.  0.
<mgrwt>
<rscale>  0 0.13392232E+04</rscale>
<asrwt>0</asrwt>
<pdfrwt beam="1">  1        1 0.53745005E+00 0.13804476E+04</pdfrwt>
<pdfrwt beam="2">  1       -1 0.98201777E-01 0.13804476E+04</pdfrwt>
<totfact> 0.24580461E-01</totfact>
</mgrwt>
</event>
<event>
 4    1  0.1521315E-007  0.8024189E+03  0.7818608E-02  0.9705590E-01
          1   -1    0    0  501    0  0.00000000000E+00  0.00000000000E+00  0.75882912009E+03  0.75882912010E+03  0.50400000000E-02 0. -1.
         -1   -1    0    0    0  501 -0.00000000000E+00 -0.00000000000E+00 -0.83755597651E+03  0.83755597653E+03  0.50400000000E-02 0.  1.
    8880023    1    1    2    0    0  0.43811257045E+03  0.13462279377E+03  0.41686131719E+03  0.90423972763E+03  0.65864270000E+03 0. -1.
    8880022    1    1    2    0    0 -0.43811257045E+03 -0.13462279377E+03 -0.49558817361E+03  0.69214536900E+03  0.15294330000E+03 0.  0.
<mgrwt>
<rscale>  0 0.70684936E+03</rscale>
<asrwt>0</asrwt>
<pdfrwt beam="1">  1        1 0.11674294E+00 0.80241892E+03</pdfrwt>
<pdfrwt beam="2">  1       -1 0.12885477E+00 0.80241892E+03</pdfrwt>
<totfact> 0.12758484E+01</totfact>
</mgrwt>
</event>
<event>
 4    1  0.1521315E-007  0.1108888E+04  0.7818608E-02  0.9251225E-01
          1   -1    0    0  501    0  0.00000000000E+00  0.00000000000E+00  0.22912532076E+04  0.22912532076E+04  0.50400000000E-02 0. -1.
         -1   -1    0    0    0  501 -0.00000000000E+00 -0.00000000000E+00 -0.50944770094E+03  0.50944770096E+03  0.50400000000E-02 0.  1.
    8880023    1    1    2    0    0  0.54804635566E+01 -0.89207174833E+03  0.14743241899E+04  0.18447937725E+04  0.65864270000E+03 0.  1.
    8880022    1    1    2    0    0 -0.54804635566E+01  0.89207174833E+03  0.30748131668E+03  0.95590713606E+03  0.15294330000E+03 0.  0.
<mgrwt>
<rscale>  0 0.10539994E+04</rscale>
<asrwt>0</asrwt>
<pdfrwt beam="1">  1        1 0.35250049E+00 0.11088878E+04</pdfrwt>
<pdfrwt beam="2">  1       -1 0.78376571E-01 0.11088878E+04</pdfrwt>
<totfact> 0.30780464E+00</totfact>
</mgrwt>
</event>
<event>
 4    1  0.1521315E-007  0.7778811E+03  0.7818608E-02  0.9760838E-01
         -1   -1    0    0    0  501 -0.00000000000E+00  0.00000000000E+00  0.31131838420E+03  0.31131838424E+03  0.50400000000E-02 0.  1.
          1   -1    0    0  501    0  0.00000000000E+00 -0.00000000000E+00 -0.15249835778E+04  0.15249835778E+04  0.50400000000E-02 0. -1.
    8880023    1    1    2    0    0 -0.36628815620E+03 -0.19266999289E+03 -0.11530852679E+04  0.13909365840E+04  0.65864270000E+03 0. -1.
    8880022    1    1    2    0    0  0.36628815620E+03  0.19266999289E+03 -0.60579925728E+02  0.44536537803E+03  0.15294330000E+03 0.  0.
<mgrwt>
<rscale>  0 0.67507212E+03</rscale>
<asrwt>0</asrwt>
<pdfrwt beam="1">  1        1 0.23461285E+00 0.77788106E+03</pdfrwt>
<pdfrwt beam="2">  1       -1 0.47895137E-01 0.77788106E+03</pdfrwt>
<totfact> 0.28175576E+01</totfact>
</mgrwt>
</event>
<event>
 4    1  0.1521315E-007  0.6768180E+03  0.7818608E-02  0.1011184E+00
         -1   -1    0    0    0  501 -0.00000000000E+00  0.00000000000E+00  0.57760206560E+03  0.57760206563E+03  0.50400000000E-02 0.  1.
          1   -1    0    0  501    0  0.00000000000E+00 -0.00000000000E+00 -0.84289387440E+03  0.84289387442E+03  0.50400000000E-02 0. -1.
    8880023    1    1    2    0    0 -0.23473804159E+02  0.15401746106E+03 -0.67523216247E+03  0.95604449546E+03  0.65864270000E+03 0. -1.
    8880022    1    1    2    0    0  0.23473804159E+02 -0.15401746106E+03  0.40994035367E+03  0.46445144459E+03  0.15294330000E+03 0.  0.
<mgrwt>
<rscale>  0 0.51006767E+03</rscale>
<asrwt>0</asrwt>
<pdfrwt beam="1">  1        1 0.12967598E+00 0.67681800E+03</pdfrwt>
<pdfrwt beam="2">  1       -1 0.88861856E-01 0.67681800E+03</pdfrwt>
<totfact> 0.26119857E+01</totfact>
</mgrwt>
</event>
<event>
 4    1  0.1521315E-007  0.9217387E+03  0.7818608E-02  0.9491998E-01
          1   -1    0    0  501    0  0.00000000000E+00  0.00000000000E+00  0.21699113227E+04  0.21699113227E+04  0.50400000000E-02 0. -1.
         -1   -1    0    0    0  501 -0.00000000000E+00 -0.00000000000E+00 -0.49352438573E+03  0.49352438576E+03  0.50400000000E-02 0.  1.
    8880023    1    1    2    0    0  0.56695466520E+03  0.30717172052E+03  0.17685633184E+04  0.19943466288E+04  0.65864270000E+03 0. -1.
    8880022    1    1    2    0    0 -0.56695466520E+03 -0.30717172052E+03 -0.92176381405E+02  0.66908907971E+03  0.15294330000E+03 0.  0.
<mgrwt>
<rscale>  0 0.84876341E+03</rscale>
<asrwt>0</asrwt>
<pdfrwt beam="1">  1        1 0.33383251E+00 0.92173872E+03</pdfrwt>
<pdfrwt beam="2">  1       -1 0.75926829E-01 0.92173872E+03</pdfrwt>
<totfact> 0.40784767E+00</totfact>
</mgrwt>
</event>
<event>
 4    1  0.1521315E-007  0.6854789E+03  0.7818608E-02  0.1006380E+00
          1   -1    0    0  501    0  0.00000000000E+00  0.00000000000E+00  0.96531211701E+03  0.96531211702E+03  0.50400000000E-02 0. -1.
         -1   -1    0    0    0  501 -0.00000000000E+00 -0.00000000000E+00 -0.99613422106E+03  0.99613422107E+03  0.50400000000E-02 0.  1.
    8880023    1    1    2    0    0 -0.23265765803E+01 -0.18990956160E+03  0.82439067570E+03  0.10721479595E+04  0.65864270000E+03 0. -1.
    8880022    1    1    2    0    0  0.23265765803E+01  0.18990956160E+03 -0.85521277976E+03  0.88929837862E+03  0.15294330000E+03 0.  0.
<mgrwt>
<rscale>  0 0.52939049E+03</rscale>
<asrwt>0</asrwt>
<pdfrwt beam="1">  1        1 0.14850956E+00 0.68547886E+03</pdfrwt>
<pdfrwt beam="2">  1       -1 0.15325142E+00 0.68547886E+03</pdfrwt>
<totfact> 0.55513953E+00</totfact>
</mgrwt>
</event>
<event>
 4    1  0.1521315E-007  0.6816757E+03  0.7818608E-02  0.1008391E+00
          1   -1    0    0  501    0  0.00000000000E+00  0.00000000000E+00  0.35172095396E+03  0.35172095399E+03  0.50400000000E-02 0. -1.
         -1   -1    0    0    0  501 -0.00000000000E+00 -0.00000000000E+00 -0.98264770655E+03  0.98264770657E+03  0.50400000000E-02 0.  1.
    8880023    1    1    2    0    0 -0.17569409919E+03  0.17761136263E+01 -0.21583629156E+02  0.68201732411E+03  0.65864270000E+03 0.  0.
    8880022    1    1    2    0    0  0.17569409919E+03 -0.17761136263E+01 -0.60934312344E+03  0.65235133645E+03  0.15294330000E+03 0.  0.
<mgrwt>
<rscale>  0 0.52119059E+03</rscale>
<asrwt>0</asrwt>
<pdfrwt beam="1">  1        1 0.54110916E-01 0.68167571E+03</pdfrwt>
<pdfrwt beam="2">  1       -1 0.15117657E+00 0.68167571E+03</pdfrwt>
<totfact> 0.25073376E+01</totfact>
</mgrwt>
</event>
<event>
 4    1  0.1521315E-007  0.6853017E+03  0.7818608E-02  0.1006471E+00
         -1   -1    0    0    0  501 -0.00000000000E+00  0.00000000000E+00  0.42994664931E+03  0.42994664933E+03  0.50400000000E-02 0.  1.
          1   -1    0    0  501    0  0.00000000000E+00 -0.00000000000E+00 -0.63060190821E+03  0.63060190823E+03  0.50400000000E-02 0. -1.
    8880023    1    1    2    0    0  0.12299215661E+03  0.14387902879E+03 -0.35558776295E+03  0.77206289183E+03  0.65864270000E+03 0. -1.
    8880022    1    1    2    0    0 -0.12299215661E+03 -0.14387902879E+03  0.15493250405E+03  0.28848566574E+03  0.15294330000E+03 0.  0.
<mgrwt>
<rscale>  0 0.52901724E+03</rscale>
<asrwt>0</asrwt>
<pdfrwt beam="1">  1        1 0.97015678E-01 0.68530172E+03</pdfrwt>
<pdfrwt beam="2">  1       -1 0.66145639E-01 0.68530172E+03</pdfrwt>
<totfact> 0.75632986E+01</totfact>
</mgrwt>
</event>
<event>
 4    1  0.1521315E-007  0.7834212E+03  0.7818608E-02  0.9747861E-01
         -1   -1    0    0    0  501 -0.00000000000E+00  0.00000000000E+00  0.27962916616E+03  0.27962916621E+03  0.50400000000E-02 0.  1.
          1   -1    0    0  501    0  0.00000000000E+00 -0.00000000000E+00 -0.15812050902E+04  0.15812050902E+04  0.50400000000E-02 0. -1.
    8880023    1    1    2    0    0 -0.42391693541E+03 -0.15264621284E+02 -0.11371061934E+04  0.13808545463E+04  0.65864270000E+03 0.  0.
    8880022    1    1    2    0    0  0.42391693541E+03  0.15264621284E+02 -0.16446973066E+03  0.47997971010E+03  0.15294330000E+03 0.  0.
<mgrwt>
<rscale>  0 0.68237284E+03</rscale>
<asrwt>0</asrwt>
<pdfrwt beam="1">  1        1 0.24326232E+00 0.78342120E+03</pdfrwt>
<pdfrwt beam="2">  1       -1 0.43019873E-01 0.78342120E+03</pdfrwt>
<totfact> 0.31481765E+01</totfact>
</mgrwt>
</event>
<event>
 4    1  0.1521315E-007  0.6654806E+03  0.7818608E-02  0.1019134E+00
         -1   -1    0    0    0  501 -0.00000000000E+00  0.00000000000E+00  0.73488911519E+03  0.73488911521E+03  0.50400000000E-02 0.  1.
          1   -1    0    0  501    0  0.00000000000E+00 -0.00000000000E+00 -0.11898666755E+04  0.11898666755E+04  0.50400000000E-02 0. -1.
    8880023    1    1    2    0    0 -0.94985531812E+02  0.56545190984E+01 -0.10831594541E+04  0.12712587597E+04  0.65864270000E+03 0. -1.
    8880022    1    1    2    0    0  0.94985531812E+02 -0.56545190984E+01  0.62818189380E+03  0.65349703102E+03  0.15294330000E+03 0.  0.
<mgrwt>
<rscale>  0 0.48000581E+03</rscale>
<asrwt>0</asrwt>
<pdfrwt beam="1">  1        1 0.18305641E+00 0.66548060E+03</pdfrwt>
<pdfrwt beam="2">  1       -1 0.11305986E+00 0.66548060E+03</pdfrwt>
<totfact> 0.81565566E+00</totfact>
</mgrwt>
</event>
<event>
 4    1  0.1521315E-007  0.6970160E+03  0.7818608E-02  0.1000981E+00
          1   -1    0    0  501    0  0.00000000000E+00  0.00000000000E+00  0.45029698213E+03  0.45029698216E+03  0.50400000000E-02 0. -1.
         -1   -1    0    0    0  501 -0.00000000000E+00 -0.00000000000E+00 -0.83459169034E+03  0.83459169035E+03  0.50400000000E-02 0.  1.
    8880023    1    1    2    0    0 -0.22283982129E+03 -0.48616309921E+02  0.12323638556E+03  0.70782663452E+03  0.65864270000E+03 0. -1.
    8880022    1    1    2    0    0  0.22283982129E+03  0.48616309921E+02 -0.50753109377E+03  0.57706203800E+03  0.15294330000E+03 0.  0.
<mgrwt>
<rscale>  0 0.55222072E+03</rscale>
<asrwt>0</asrwt>
<pdfrwt beam="1">  1        1 0.69276459E-01 0.69701602E+03</pdfrwt>
<pdfrwt beam="2">  1       -1 0.12839872E+00 0.69701602E+03</pdfrwt>
<totfact> 0.27562098E+01</totfact>
</mgrwt>
</event>
<event>
 4    1  0.1521315E-007  0.9925746E+03  0.7818608E-02  0.9391337E-01
          1   -1    0    0  501    0  0.00000000000E+00  0.00000000000E+00  0.12797475478E+04  0.12797475478E+04  0.50400000000E-02 0. -1.
         -1   -1    0    0    0  501 -0.00000000000E+00 -0.00000000000E+00 -0.69467360454E+03  0.69467360456E+03  0.50400000000E-02 0.  1.
    8880023    1    1    2    0    0  0.66255024489E+03  0.33529274244E+03  0.69028863098E+03  0.12090089538E+04  0.65864270000E+03 0. -1.
    8880022    1    1    2    0    0 -0.66255024489E+03 -0.33529274244E+03 -0.10521468773E+03  0.76541219853E+03  0.15294330000E+03 0.  0.
<mgrwt>
<rscale>  0 0.92792014E+03</rscale>
<asrwt>0</asrwt>
<pdfrwt beam="1">  1        1 0.19688423E+00 0.99257456E+03</pdfrwt>
<pdfrwt beam="2">  1       -1 0.10687286E+00 0.99257456E+03</pdfrwt>
<totfact> 0.76765961E+00</totfact>
</mgrwt>
</event>
<event>
 4    1  0.1521315E-007  0.6651768E+03  0.7818608E-02  0.1019386E+00
         -1   -1    0    0    0  501 -0.00000000000E+00  0.00000000000E+00  0.64664645323E+03  0.64664645325E+03  0.50400000000E-02 0.  1.
          1   -1    0    0  501    0  0.00000000000E+00 -0.00000000000E+00 -0.34867031471E+03  0.34867031475E+03  0.50400000000E-02 0. -1.
    8880023    1    1    2    0    0  0.91791653712E+02 -0.14974485834E+02  0.20969388121E+02  0.66550722342E+03  0.65864270000E+03 0. -1.
    8880022    1    1    2    0    0 -0.91791653712E+02  0.14974485834E+02  0.27700675040E+03  0.32980954458E+03  0.15294330000E+03 0.  0.
<mgrwt>
<rscale>  0 0.47908997E+03</rscale>
<asrwt>0</asrwt>
<pdfrwt beam="1">  1        1 0.53641587E-01 0.66517678E+03</pdfrwt>
<pdfrwt beam="2">  1       -1 0.99484070E-01 0.66517678E+03</pdfrwt>
<totfact> 0.71172604E+01</totfact>
</mgrwt>
</event>
<event>
 4    1  0.1521315E-007  0.6947608E+03  0.7818608E-02  0.1001967E+00
         -1   -1    0    0    0  501 -0.00000000000E+00  0.00000000000E+00  0.19397984672E+03  0.19397984679E+03  0.50400000000E-02 0.  1.
          1   -1    0    0  501    0  0.00000000000E+00 -0.00000000000E+00 -0.12507684715E+04  0.12507684715E+04  0.50400000000E-02 0. -1.
    8880023    1    1    2    0    0 -0.97218225791E+02  0.19857243233E+03 -0.88731021848E+03  0.11269481019E+04  0.65864270000E+03 0.  1.
    8880022    1    1    2    0    0  0.97218225791E+02 -0.19857243233E+03 -0.16947840625E+03  0.31780021634E+03  0.15294330000E+03 0. -1.
<mgrwt>
<rscale>  0 0.54796054E+03</rscale>
<asrwt>0</asrwt>
<pdfrwt beam="1">  1        1 0.19242591E+00 0.69476082E+03</pdfrwt>
<pdfrwt beam="2">  1       -1 0.29843054E-01 0.69476082E+03</pdfrwt>
<totfact> 0.10361217E+02</totfact>
</mgrwt>
</event>
<event>
 4    1  0.1521315E-007  0.6903358E+03  0.7818608E-02  0.1003993E+00
          1   -1    0    0  501    0  0.00000000000E+00  0.00000000000E+00  0.87963792756E+03  0.87963792758E+03  0.50400000000E-02 0. -1.
         -1   -1    0    0    0  501 -0.00000000000E+00 -0.00000000000E+00 -0.27054610079E+03  0.27054610083E+03  0.50400000000E-02 0.  1.
    8880023    1    1    2    0    0 -0.77543842134E+01  0.20662335023E+03  0.55873214440E+03  0.88811325561E+03  0.65864270000E+03 0. -1.
    8880022    1    1    2    0    0  0.77543842134E+01 -0.20662335023E+03  0.50359682377E+02  0.26207077281E+03  0.15294330000E+03 0.  0.
<mgrwt>
<rscale>  0 0.53933354E+03</rscale>
<asrwt>0</asrwt>
<pdfrwt beam="1">  1        1 0.13532891E+00 0.69033582E+03</pdfrwt>
<pdfrwt beam="2">  1       -1 0.41622478E-01 0.69033582E+03</pdfrwt>
<totfact> 0.10953329E+02</totfact>
</mgrwt>
</event>
<event>
 4    1  0.1521315E-007  0.6633811E+03  0.7818608E-02  0.1020932E+00
         -1   -1    0    0    0  501 -0.00000000000E+00  0.00000000000E+00  0.11155709592E+04  0.11155709593E+04  0.50400000000E-02 0.  1.
          1   -1    0    0  501    0  0.00000000000E+00 -0.00000000000E+00 -0.87630431270E+03  0.87630431272E+03  0.50400000000E-02 0. -1.
    8880023    1    1    2    0    0 -0.78174261219E+02 -0.12369317223E+02 -0.74217567322E+03  0.99543917510E+03  0.65864270000E+03 0. -1.
    8880022    1    1    2    0    0  0.78174261219E+02  0.12369317223E+02  0.98144231977E+03  0.99643609688E+03  0.15294330000E+03 0.  0.
<mgrwt>
<rscale>  0 0.47351760E+03</rscale>
<asrwt>0</asrwt>
<pdfrwt beam="1">  1        1 0.13481605E+00 0.66338105E+03</pdfrwt>
<pdfrwt beam="2">  1       -1 0.17162630E+00 0.66338105E+03</pdfrwt>
<totfact> 0.47908433E+00</totfact>
</mgrwt>
</event>
<event>
 4    1  0.1521315E-007  0.6657477E+03  0.7818608E-02  0.1018914E+00
          1   -1    0    0  501    0  0.00000000000E+00  0.00000000000E+00  0.28956398694E+04  0.28956398694E+04  0.50400000000E-02 0. -1.
         -1   -1    0    0    0  501 -0.00000000000E+00 -0.00000000000E+00 -0.19261625406E+03  0.19261625413E+03  0.50400000000E-02 0.  1.
    8880023    1    1    2    0    0 -0.97003835315E+02  0.15971238081E+00  0.28032782980E+04  0.28812478532E+04  0.65864270000E+03 0. -1.
    8880022    1    1    2    0    0  0.97003835315E+02 -0.15971238081E+00 -0.10025468263E+03  0.20700827031E+03  0.15294330000E+03 0.  0.
<mgrwt>
<rscale>  0 0.48080484E+03</rscale>
<asrwt>0</asrwt>
<pdfrwt beam="1">  1        1 0.44548305E+00 0.66574768E+03</pdfrwt>
<pdfrwt beam="2">  1       -1 0.29633270E-01 0.66574768E+03</pdfrwt>
<totfact> 0.80025289E+00</totfact>
</mgrwt>
</event>
<event>
 4    1  0.1521315E-007  0.8218180E+03  0.7818608E-02  0.9665467E-01
         -1   -1    0    0    0  501 -0.00000000000E+00  0.00000000000E+00  0.43940805025E+03  0.43940805028E+03  0.50400000000E-02 0.  1.
          1   -1    0    0  501    0  0.00000000000E+00 -0.00000000000E+00 -0.20357511587E+04  0.20357511587E+04  0.50400000000E-02 0. -1.
    8880023    1    1    2    0    0  0.31566611115E+03  0.37673539776E+03 -0.17538544628E+04  0.19368506232E+04  0.65864270000E+03 0. -1.
    8880022    1    1    2    0    0 -0.31566611115E+03 -0.37673539776E+03  0.15751135444E+03  0.53830858571E+03  0.15294330000E+03 0.  0.
<mgrwt>
<rscale>  0 0.73110639E+03</rscale>
<asrwt>0</asrwt>
<pdfrwt beam="1">  1        1 0.31319248E+00 0.82181802E+03</pdfrwt>
<pdfrwt beam="2">  1       -1 0.67601240E-01 0.82181802E+03</pdfrwt>
<totfact> 0.64756438E+00</totfact>
</mgrwt>
</event>
<event>
 4    1  0.1521315E-007  0.1115969E+04  0.7818608E-02  0.9243482E-01
         -1   -1    0    0    0  501 -0.00000000000E+00  0.00000000000E+00  0.10037834465E+04  0.10037834465E+04  0.50400000000E-02 0.  1.
          1   -1    0    0  501    0  0.00000000000E+00 -0.00000000000E+00 -0.21731955569E+04  0.21731955569E+04  0.50400000000E-02 0. -1.
    8880023    1    1    2    0    0  0.73145632793E+03 -0.52587860071E+03 -0.17635910776E+04  0.20870170956E+04  0.65864270000E+03 0.  0.
    8880022    1    1    2    0    0 -0.73145632793E+03  0.52587860071E+03  0.59417896718E+03  0.10899619078E+04  0.15294330000E+03 0.  0.
<mgrwt>
<rscale>  0 0.10615681E+04</rscale>
<asrwt>0</asrwt>
<pdfrwt beam="1">  1        1 0.33433778E+00 0.11159690E+04</pdfrwt>
<pdfrwt beam="2">  1       -1 0.15442822E+00 0.11159690E+04</pdfrwt>
<totfact> 0.72920106E-01</totfact>
</mgrwt>
</event>
<event>
 4    1  0.1521315E-007  0.7923463E+03  0.7818608E-02  0.9727596E-01
         -1   -1    0    0    0  501 -0.00000000000E+00  0.00000000000E+00  0.49240562572E+03  0.49240562575E+03  0.50400000000E-02 0.  1.
          1   -1    0    0  501    0  0.00000000000E+00 -0.00000000000E+00 -0.12728565949E+04  0.12728565949E+04  0.50400000000E-02 0. -1.
    8880023    1    1    2    0    0  0.39481199229E+03 -0.19525871623E+03 -0.97816678694E+03  0.12588180746E+04  0.65864270000E+03 0.  0.
    8880022    1    1    2    0    0 -0.39481199229E+03  0.19525871623E+03  0.19771581775E+03  0.50644414610E+03  0.15294330000E+03 0.  0.
<mgrwt>
<rscale>  0 0.69397249E+03</rscale>
<asrwt>0</asrwt>
<pdfrwt beam="1">  1        1 0.19582409E+00 0.79234631E+03</pdfrwt>
<pdfrwt beam="2">  1       -1 0.75754712E-01 0.79234631E+03</pdfrwt>
<totfact> 0.17014113E+01</totfact>
</mgrwt>
</event>
<event>
 4    1  0.1521315E-007  0.8026169E+03  0.7818608E-02  0.9705166E-01
         -1   -1    0    0    0  501 -0.00000000000E+00  0.00000000000E+00  0.67675909339E+03  0.67675909341E+03  0.50400000000E-02 0.  1.
          1   -1    0    0  501    0  0.00000000000E+00 -0.00000000000E+00 -0.10984376103E+04  0.10984376104E+04  0.50400000000E-02 0. -1.
    8880023    1    1    2    0    0  0.40085496007E+03  0.22293263362E+03 -0.82097759540E+03  0.11481280750E+04  0.65864270000E+03 0. -1.
    8880022    1    1    2    0    0 -0.40085496007E+03 -0.22293263362E+03  0.39929907845E+03  0.62706862879E+03  0.15294330000E+03 0.  0.
<mgrwt>
<rscale>  0 0.70710035E+03</rscale>
<asrwt>0</asrwt>
<pdfrwt beam="1">  1        1 0.16899040E+00 0.80261689E+03</pdfrwt>
<pdfrwt beam="2">  1       -1 0.10411678E+00 0.80261689E+03</pdfrwt>
<totfact> 0.11322735E+01</totfact>
</mgrwt>
</event>
<event>
 4    1  0.1521315E-007  0.7175989E+03  0.7818608E-02  0.9930796E-01
         -1   -1    0    0    0  501 -0.00000000000E+00  0.00000000000E+00  0.27261149788E+03  0.27261149792E+03  0.50400000000E-02 0.  1.
          1   -1    0    0  501    0  0.00000000000E+00 -0.00000000000E+00 -0.11430983052E+04  0.11430983052E+04  0.50400000000E-02 0. -1.
    8880023    1    1    2    0    0  0.15881436884E+03  0.23646567481E+03 -0.33907677639E+03  0.79367580640E+03  0.65864270000E+03 0. -1.
    8880022    1    1    2    0    0 -0.15881436884E+03 -0.23646567481E+03 -0.53141003093E+03  0.62203399674E+03  0.15294330000E+03 0.  1.
<mgrwt>
<rscale>  0 0.58791736E+03</rscale>
<asrwt>0</asrwt>
<pdfrwt beam="1">  1        1 0.17586127E+00 0.71759893E+03</pdfrwt>
<pdfrwt beam="2">  1       -1 0.41940231E-01 0.71759893E+03</pdfrwt>
<totfact> 0.67423242E+01</totfact>
</mgrwt>
</event>
<event>
 4    1  0.1521315E-007  0.7245805E+03  0.7818608E-02  0.9907381E-01
          1   -1    0    0  501    0  0.00000000000E+00  0.00000000000E+00  0.53801127090E+03  0.53801127092E+03  0.50400000000E-02 0. -1.
         -1   -1    0    0    0  501 -0.00000000000E+00 -0.00000000000E+00 -0.52647979444E+03  0.52647979447E+03  0.50400000000E-02 0.  1.
    8880023    1    1    2    0    0 -0.23109868388E+03  0.19442242352E+03 -0.16880603650E+02  0.72477709780E+03  0.65864270000E+03 0.  0.
    8880022    1    1    2    0    0  0.23109868388E+03 -0.19442242352E+03  0.28412080102E+02  0.33971396758E+03  0.15294330000E+03 0. -1.
<mgrwt>
<rscale>  0 0.59904889E+03</rscale>
<asrwt>0</asrwt>
<pdfrwt beam="1">  1        1 0.82770964E-01 0.72458049E+03</pdfrwt>
<pdfrwt beam="2">  1       -1 0.80996892E-01 0.72458049E+03</pdfrwt>
<totfact> 0.62161783E+01</totfact>
</mgrwt>
</event>
<event>
 4    1  0.1521315E-007  0.6891742E+03  0.7818608E-02  0.1004548E+00
         -1   -1    0    0    0  501 -0.00000000000E+00  0.00000000000E+00  0.16511814623E+03  0.16511814631E+03  0.50400000000E-02 0.  1.
          1   -1    0    0  501    0  0.00000000000E+00 -0.00000000000E+00 -0.20704621224E+04  0.20704621224E+04  0.50400000000E-02 0. -1.
    8880023    1    1    2    0    0 -0.19715579921E+03 -0.47754646114E+02 -0.18518835804E+04  0.19759640475E+04  0.65864270000E+03 0.  0.
    8880022    1    1    2    0    0  0.19715579921E+03  0.47754646114E+02 -0.53460395779E+02  0.25961622122E+03  0.15294330000E+03 0.  0.
<mgrwt>
<rscale>  0 0.53700404E+03</rscale>
<asrwt>0</asrwt>
<pdfrwt beam="1">  1        1 0.31853262E+00 0.68917423E+03</pdfrwt>
<pdfrwt beam="2">  1       -1 0.25402793E-01 0.68917423E+03</pdfrwt>
<totfact> 0.38000028E+01</totfact>
</mgrwt>
</event>
<event>
 4    1  0.1521315E-007  0.7542978E+03  0.7818608E-02  0.9820100E-01
         -1   -1    0    0    0  501 -0.00000000000E+00  0.00000000000E+00  0.15915172379E+04  0.15915172379E+04  0.50400000000E-02 0.  1.
          1   -1    0    0  501    0  0.00000000000E+00 -0.00000000000E+00 -0.30614612031E+03  0.30614612035E+03  0.50400000000E-02 0. -1.
    8880023    1    1    2    0    0  0.33819432712E+03  0.14415143589E+03  0.12957926219E+04  0.14993477797E+04  0.65864270000E+03 0.  1.
    8880022    1    1    2    0    0 -0.33819432712E+03 -0.14415143589E+03 -0.10421504269E+02  0.39831557857E+03  0.15294330000E+03 0.  0.
<mgrwt>
<rscale>  0 0.64294941E+03</rscale>
<asrwt>0</asrwt>
<pdfrwt beam="1">  1        1 0.47099403E-01 0.75429785E+03</pdfrwt>
<pdfrwt beam="2">  1       -1 0.24484881E+00 0.75429785E+03</pdfrwt>
<totfact> 0.66678432E+00</totfact>
</mgrwt>
</event>
<event>
 4    1  0.1521315E-007  0.6641250E+03  0.7818608E-02  0.1020279E+00
         -1   -1    0    0    0  501 -0.00000000000E+00  0.00000000000E+00  0.24995564241E+03  0.24995564247E+03  0.50400000000E-02 0.  1.
          1   -1    0    0  501    0  0.00000000000E+00 -0.00000000000E+00 -0.80097643599E+03  0.80097643600E+03  0.50400000000E-02 0. -1.
    8880023    1    1    2    0    0  0.39743854611E+02  0.75314304514E+02 -0.56955243079E+03  0.87490113506E+03  0.65864270000E+03 0. -1.
    8880022    1    1    2    0    0 -0.39743854611E+02 -0.75314304514E+02  0.18531637223E+02  0.17603094341E+03  0.15294330000E+03 0.  0.
<mgrwt>
<rscale>  0 0.47586046E+03</rscale>
<asrwt>0</asrwt>
<pdfrwt beam="1">  1        1 0.12322714E+00 0.66412501E+03</pdfrwt>
<pdfrwt beam="2">  1       -1 0.38454715E-01 0.66412501E+03</pdfrwt>
<totfact> 0.14757638E+02</totfact>
</mgrwt>
</event>
<event>
 4    1  0.1521315E-007  0.1243718E+04  0.7818608E-02  0.9115754E-01
         -1   -1    0    0    0  501 -0.00000000000E+00  0.00000000000E+00  0.50814956886E+03  0.50814956889E+03  0.50400000000E-02 0.  1.
          1   -1    0    0  501    0  0.00000000000E+00 -0.00000000000E+00 -0.31225905379E+04  0.31225905379E+04  0.50400000000E-02 0. -1.
    8880023    1    1    2    0    0  0.55324853146E+03 -0.89829862602E+03 -0.21148508923E+04  0.24534524373E+04  0.65864270000E+03 0.  0.
    8880022    1    1    2    0    0 -0.55324853146E+03  0.89829862602E+03 -0.49959007680E+03  0.11772876696E+04  0.15294330000E+03 0.  0.
<mgrwt>
<rscale>  0 0.11966954E+04</rscale>
<asrwt>0</asrwt>
<pdfrwt beam="1">  1        1 0.48039853E+00 0.12437180E+04</pdfrwt>
<pdfrwt beam="2">  1       -1 0.78176859E-01 0.12437180E+04</pdfrwt>
<totfact> 0.79065687E-01</totfact>
</mgrwt>
</event>
<event>
 4    1  0.1521315E-007  0.7334689E+03  0.7818608E-02  0.9879397E-01
         -1   -1    0    0    0  501 -0.00000000000E+00  0.00000000000E+00  0.16667192695E+03  0.16667192703E+03  0.50400000000E-02 0.  1.
          1   -1    0    0  501    0  0.00000000000E+00 -0.00000000000E+00 -0.35923438551E+04  0.35923438551E+04  0.50400000000E-02 0. -1.
    8880023    1    1    2    0    0 -0.50219867469E+02  0.31881710997E+03 -0.32997964314E+04  0.33803303211E+04  0.65864270000E+03 0. -1.
    8880022    1    1    2    0    0  0.50219867469E+02 -0.31881710997E+03 -0.12587549673E+03  0.37868546102E+03  0.15294330000E+03 0.  0.
<mgrwt>
<rscale>  0 0.61270263E+03</rscale>
<asrwt>0</asrwt>
<pdfrwt beam="1">  1        1 0.55266823E+00 0.73346888E+03</pdfrwt>
<pdfrwt beam="2">  1       -1 0.25641838E-01 0.73346888E+03</pdfrwt>
<totfact> 0.30781750E+00</totfact>
</mgrwt>
</event>
<event>
 4    1  0.1521315E-007  0.6953313E+03  0.7818608E-02  0.1001715E+00
         -1   -1    0    0    0  501 -0.00000000000E+00  0.00000000000E+00  0.42377205260E+03  0.42377205263E+03  0.50400000000E-02 0.  1.
          1   -1    0    0  501    0  0.00000000000E+00 -0.00000000000E+00 -0.98402203963E+03  0.98402203964E+03  0.50400000000E-02 0. -1.
    8880023    1    1    2    0    0 -0.21129354884E+03 -0.70926109617E+02 -0.79044225121E+03  0.10527509846E+04  0.65864270000E+03 0. -1.
    8880022    1    1    2    0    0  0.21129354884E+03  0.70926109617E+02  0.23019226418E+03  0.35504310768E+03  0.15294330000E+03 0.  0.
<mgrwt>
<rscale>  0 0.54904648E+03</rscale>
<asrwt>0</asrwt>
<pdfrwt beam="1">  1        1 0.15138801E+00 0.69533135E+03</pdfrwt>
<pdfrwt beam="2">  1       -1 0.65195701E-01 0.69533135E+03</pdfrwt>
<totfact> 0.38325305E+01</totfact>
</mgrwt>
</event>
<event>
 4    1  0.1521315E-007  0.7454139E+03  0.7818608E-02  0.9844448E-01
          1   -1    0    0  501    0  0.00000000000E+00  0.00000000000E+00  0.23634510269E+04  0.23634510269E+04  0.50400000000E-02 0. -1.
         -1   -1    0    0    0  501 -0.00000000000E+00 -0.00000000000E+00 -0.16407623112E+03  0.16407623120E+03  0.50400000000E-02 0.  1.
    8880023    1    1    2    0    0 -0.34252811675E+03  0.67128066034E+02  0.19060677045E+04  0.20466401707E+04  0.65864270000E+03 0.  0.
    8880022    1    1    2    0    0  0.34252811675E+03 -0.67128066034E+02  0.29330709132E+03  0.48088708742E+03  0.15294330000E+03 0.  0.
<mgrwt>
<rscale>  0 0.63030779E+03</rscale>
<asrwt>0</asrwt>
<pdfrwt beam="1">  1        1 0.36360782E+00 0.74541391E+03</pdfrwt>
<pdfrwt beam="2">  1       -1 0.25242499E-01 0.74541391E+03</pdfrwt>
<totfact> 0.24230861E+01</totfact>
</mgrwt>
</event>
<event>
 4    1  0.1521315E-007  0.9209842E+03  0.7818608E-02  0.9493152E-01
          1   -1    0    0  501    0  0.00000000000E+00  0.00000000000E+00  0.44232512584E+03  0.44232512587E+03  0.50400000000E-02 0. -1.
         -1   -1    0    0    0  501 -0.00000000000E+00 -0.00000000000E+00 -0.15354889285E+04  0.15354889285E+04  0.50400000000E-02 0.  1.
    8880023    1    1    2    0    0  0.44853728848E+03 -0.46175319374E+03 -0.35635938637E+03  0.98752414128E+03  0.65864270000E+03 0.  0.
    8880022    1    1    2    0    0 -0.44853728848E+03  0.46175319374E+03 -0.73680441626E+03  0.99028991307E+03  0.15294330000E+03 0.  0.
<mgrwt>
<rscale>  0 0.84790615E+03</rscale>
<asrwt>0</asrwt>
<pdfrwt beam="1">  1        1 0.68050020E-01 0.92098421E+03</pdfrwt>
<pdfrwt beam="2">  1       -1 0.23622906E+00 0.92098421E+03</pdfrwt>
<totfact> 0.45724233E+00</totfact>
</mgrwt>
</event>
<event>
 4    1  0.1521315E-007  0.8130221E+03  0.7818608E-02  0.9683316E-01
         -1   -1    0    0    0  501 -0.00000000000E+00  0.00000000000E+00  0.23856285273E+03  0.23856285278E+03  0.50400000000E-02 0.  1.
          1   -1    0    0  501    0  0.00000000000E+00 -0.00000000000E+00 -0.18391991734E+04  0.18391991734E+04  0.50400000000E-02 0. -1.
    8880023    1    1    2    0    0  0.30746521587E+03 -0.36422509167E+03 -0.11183430502E+04  0.13826410093E+04  0.65864270000E+03 0. -1.
    8880022    1    1    2    0    0 -0.30746521587E+03  0.36422509167E+03 -0.48229327043E+03  0.69512101687E+03  0.15294330000E+03 0. -1.
<mgrwt>
<rscale>  0 0.72018897E+03</rscale>
<asrwt>0</asrwt>
<pdfrwt beam="1">  1        1 0.28295371E+00 0.81302213E+03</pdfrwt>
<pdfrwt beam="2">  1       -1 0.36701979E-01 0.81302213E+03</pdfrwt>
<totfact> 0.28060548E+01</totfact>
</mgrwt>
</event>
<event>
 4    1  0.1521315E-007  0.7274553E+03  0.7818608E-02  0.9898122E-01
          1   -1    0    0  501    0  0.00000000000E+00  0.00000000000E+00  0.55008468177E+03  0.55008468180E+03  0.50400000000E-02 0. -1.
         -1   -1    0    0    0  501 -0.00000000000E+00 -0.00000000000E+00 -0.13080037965E+04  0.13080037965E+04  0.50400000000E-02 0.  1.
    8880023    1    1    2    0    0 -0.30697480891E+03 -0.33874846790E+02  0.26844716323E+03  0.77540642521E+03  0.65864270000E+03 0. -1.
    8880022    1    1    2    0    0  0.30697480891E+03  0.33874846790E+02 -0.10263662779E+04  0.10826820531E+04  0.15294330000E+03 0.  0.
<mgrwt>
<rscale>  0 0.60352369E+03</rscale>
<asrwt>0</asrwt>
<pdfrwt beam="1">  1        1 0.84628413E-01 0.72745532E+03</pdfrwt>
<pdfrwt beam="2">  1       -1 0.20123135E+00 0.72745532E+03</pdfrwt>
<totfact> 0.59433022E+00</totfact>
</mgrwt>
</event>
<event>
 4    1  0.1521315E-007  0.8341791E+03  0.7818608E-02  0.9641255E-01
         -1   -1    0    0    0  501 -0.00000000000E+00  0.00000000000E+00  0.49663787759E+03  0.49663787762E+03  0.50400000000E-02 0.  1.
          1   -1    0    0  501    0  0.00000000000E+00 -0.00000000000E+00 -0.20766056115E+04  0.20766056115E+04  0.50400000000E-02 0. -1.
    8880023    1    1    2    0    0 -0.49612353015E+03 -0.12611893901E+03 -0.18089159145E+04  0.19919918514E+04  0.65864270000E+03 0.  0.
    8880022    1    1    2    0    0  0.49612353015E+03  0.12611893901E+03  0.22894818062E+03  0.58125163773E+03  0.15294330000E+03 0.  0.
<mgrwt>
<rscale>  0 0.74624787E+03</rscale>
<asrwt>0</asrwt>
<pdfrwt beam="1">  1        1 0.31947778E+00 0.83417909E+03</pdfrwt>
<pdfrwt beam="2">  1       -1 0.76405828E-01 0.83417909E+03</pdfrwt>
<totfact> 0.47126062E+00</totfact>
</mgrwt>
</event>
<event>
 4    1  0.1521315E-007  0.6935338E+03  0.7818608E-02  0.1002516E+00
          1   -1    0    0  501    0  0.00000000000E+00  0.00000000000E+00  0.14970882460E+04  0.14970882460E+04  0.50400000000E-02 0. -1.
         -1   -1    0    0    0  501 -0.00000000000E+00 -0.00000000000E+00 -0.48168612490E+03  0.48168612493E+03  0.50400000000E-02 0.  1.
    8880023    1    1    2    0    0 -0.16159506691E+03 -0.14514116292E+03  0.13700964812E+04  0.15356280464E+04  0.65864270000E+03 0. -1.
    8880022    1    1    2    0    0  0.16159506691E+03  0.14514116292E+03 -0.35469436012E+03  0.44314632453E+03  0.15294330000E+03 0.  0.
<mgrwt>
<rscale>  0 0.54560543E+03</rscale>
<asrwt>0</asrwt>
<pdfrwt beam="1">  1        1 0.23032127E+00 0.69353380E+03</pdfrwt>
<pdfrwt beam="2">  1       -1 0.74105558E-01 0.69353380E+03</pdfrwt>
<totfact> 0.12603735E+01</totfact>
</mgrwt>
</event>
<event>
 4    1  0.1521315E-007  0.1431087E+04  0.7818608E-02  0.8959896E-01
          1   -1    0    0  501    0  0.00000000000E+00  0.00000000000E+00  0.22330490403E+04  0.22330490403E+04  0.50400000000E-02 0. -1.
         -1   -1    0    0    0  501 -0.00000000000E+00 -0.00000000000E+00 -0.11515811127E+04  0.11515811128E+04  0.50400000000E-02 0.  1.
    8880023    1    1    2    0    0 -0.89706637914E+03 -0.89970696300E+03  0.14657221732E+04  0.20485000373E+04  0.65864270000E+03 0. -1.
    8880022    1    1    2    0    0  0.89706637914E+03  0.89970696300E+03 -0.38425424560E+03  0.13361301157E+04  0.15294330000E+03 0.  1.
<mgrwt>
<rscale>  0 0.13916349E+04</rscale>
<asrwt>0</asrwt>
<pdfrwt beam="1">  1        1 0.34354601E+00 0.14310873E+04</pdfrwt>
<pdfrwt beam="2">  1       -1 0.17716632E+00 0.14310873E+04</pdfrwt>
<totfact> 0.43065744E-01</totfact>
</mgrwt>
</event>
<event>
 4    1  0.1521315E-007  0.1502932E+04  0.7818608E-02  0.8907569E-01
          1   -1    0    0  501    0  0.00000000000E+00  0.00000000000E+00  0.17887414895E+04  0.17887414895E+04  0.50400000000E-02 0. -1.
         -1   -1    0    0    0  501 -0.00000000000E+00 -0.00000000000E+00 -0.18265063881E+04  0.18265063881E+04  0.50400000000E-02 0.  1.
    8880023    1    1    2    0    0  0.13226809954E+04  0.27478782858E+03 -0.11226112293E+04  0.18759156550E+04  0.65864270000E+03 0.  1.
    8880022    1    1    2    0    0 -0.13226809954E+04 -0.27478782858E+03  0.10848463307E+04  0.17393322226E+04  0.15294330000E+03 0.  0.
<mgrwt>
<rscale>  0 0.14657283E+04</rscale>
<asrwt>0</asrwt>
<pdfrwt beam="1">  1        1 0.27519100E+00 0.15029317E+04</pdfrwt>
<pdfrwt beam="2">  1       -1 0.28100098E+00 0.15029317E+04</pdfrwt>
<totfact> 0.17154195E-01</totfact>
</mgrwt>
</event>
<event>
 4    1  0.1521315E-007  0.6729428E+03  0.7818608E-02  0.1013636E+00
         -1   -1    0    0    0  501 -0.00000000000E+00  0.00000000000E+00  0.28961726321E+03  0.28961726326E+03  0.50400000000E-02 0.  1.
          1   -1    0    0  501    0  0.00000000000E+00 -0.00000000000E+00 -0.24186121570E+04  0.24186121570E+04  0.50400000000E-02 0. -1.
    8880023    1    1    2    0    0 -0.12300575154E+03 -0.62541077068E+02 -0.23270924511E+04  0.24224391187E+04  0.65864270000E+03 0.  0.
    8880022    1    1    2    0    0  0.12300575154E+03  0.62541077068E+02  0.19809755736E+03  0.28579030159E+03  0.15294330000E+03 0.  1.
<mgrwt>
<rscale>  0 0.50054965E+03</rscale>
<asrwt>0</asrwt>
<pdfrwt beam="1">  1        1 0.37209416E+00 0.67294280E+03</pdfrwt>
<pdfrwt beam="2">  1       -1 0.44556504E-01 0.67294280E+03</pdfrwt>
<totfact> 0.82216162E+00</totfact>
</mgrwt>
</event>
<event>
 4    1  0.1521315E-007  0.1364505E+04  0.7818608E-02  0.9011766E-01
          1   -1    0    0  501    0  0.00000000000E+00  0.00000000000E+00  0.13450829142E+04  0.13450829142E+04  0.50400000000E-02 0. -1.
         -1   -1    0    0    0  501 -0.00000000000E+00 -0.00000000000E+00 -0.13907181053E+04  0.13907181053E+04  0.50400000000E-02 0.  1.
    8880023    1    1    2    0    0 -0.39939084555E+03 -0.11262995354E+04 -0.49274339714E+03  0.14507480665E+04  0.65864270000E+03 0.  1.
    8880022    1    1    2    0    0  0.39939084555E+03  0.11262995354E+04  0.44710820610E+03  0.12850529529E+04  0.15294330000E+03 0.  0.
<mgrwt>
<rscale>  0 0.13226862E+04</rscale>
<asrwt>0</asrwt>
<pdfrwt beam="1">  1        1 0.20693583E+00 0.13645050E+04</pdfrwt>
<pdfrwt beam="2">  1       -1 0.21395663E+00 0.13645050E+04</pdfrwt>
<totfact> 0.97634464E-01</totfact>
</mgrwt>
</event>
<event>
 4    1  0.1521315E-007  0.1021903E+04  0.7818608E-02  0.9353447E-01
          1   -1    0    0  501    0  0.00000000000E+00  0.00000000000E+00  0.58655783664E+03  0.58655783667E+03  0.50400000000E-02 0. -1.
         -1   -1    0    0    0  501 -0.00000000000E+00 -0.00000000000E+00 -0.16875398626E+04  0.16875398626E+04  0.50400000000E-02 0.  1.
    8880023    1    1    2    0    0 -0.46152556551E+03  0.63045147839E+03 -0.14841069108E+03  0.10326232874E+04  0.65864270000E+03 0.  0.
    8880022    1    1    2    0    0  0.46152556551E+03 -0.63045147839E+03 -0.95257133483E+03  0.12414744118E+04  0.15294330000E+03 0.  0.
<mgrwt>
<rscale>  0 0.96007882E+03</rscale>
<asrwt>0</asrwt>
<pdfrwt beam="1">  1        1 0.90239668E-01 0.10219027E+04</pdfrwt>
<pdfrwt beam="2">  1       -1 0.25962151E+00 0.10219027E+04</pdfrwt>
<totfact> 0.21494109E+00</totfact>
</mgrwt>
</event>
<event>
 4    1  0.1728407E-007  0.9191579E+03  0.7818608E-02  0.9495951E-01
         -1   -1    0    0    0  501 -0.00000000000E+00  0.00000000000E+00  0.19021848818E+04  0.19021848818E+04  0.50400000000E-02 0.  1.
          1   -1    0    0  501    0  0.00000000000E+00 -0.00000000000E+00 -0.19648320682E+04  0.19648320683E+04  0.50400000000E-02 0. -1.
    8880023    1    1    2    0    0  0.22669976805E+03 -0.59970673355E+03 -0.17932805512E+04  0.20151194239E+04  0.65864270000E+03 0. -1.
    8880022    1    1    2    0    0 -0.22669976805E+03  0.59970673355E+03  0.17306333647E+04  0.18518975261E+04  0.15294330000E+03 0.  0.
<mgrwt>
<rscale>  0 0.84582960E+03</rscale>
<asrwt>0</asrwt>
<pdfrwt beam="1">  1        1 0.30228186E+00 0.91915785E+03</pdfrwt>
<pdfrwt beam="2">  1       -1 0.29264383E+00 0.91915785E+03</pdfrwt>
<totfact> 0.12051890E-01</totfact>
</mgrwt>
</event>
<event>
 4    1  0.1521315E-007  0.7508269E+03  0.7818608E-02  0.9829462E-01
          1   -1    0    0  501    0  0.00000000000E+00  0.00000000000E+00  0.48851919134E+03  0.48851919136E+03  0.50400000000E-02 0. -1.
         -1   -1    0    0    0  501 -0.00000000000E+00 -0.00000000000E+00 -0.11984232277E+04  0.11984232277E+04  0.50400000000E-02 0.  1.
    8880023    1    1    2    0    0  0.25765970107E+03 -0.25207606789E+03  0.12837378400E+03  0.76172232489E+03  0.65864270000E+03 0. -1.
    8880022    1    1    2    0    0 -0.25765970107E+03  0.25207606789E+03 -0.83827782037E+03  0.92522009420E+03  0.15294330000E+03 0.  0.
<mgrwt>
<rscale>  0 0.63805134E+03</rscale>
<asrwt>0</asrwt>
<pdfrwt beam="1">  1        1 0.75156799E-01 0.75082693E+03</pdfrwt>
<pdfrwt beam="2">  1       -1 0.18437280E+00 0.75082693E+03</pdfrwt>
<totfact> 0.91408204E+00</totfact>
</mgrwt>
</event>
<event>
 4    1  0.1521315E-007  0.6735601E+03  0.7818608E-02  0.1013230E+00
          1   -1    0    0  501    0  0.00000000000E+00  0.00000000000E+00  0.17630767663E+03  0.17630767670E+03  0.50400000000E-02 0. -1.
         -1   -1    0    0    0  501 -0.00000000000E+00 -0.00000000000E+00 -0.15771256040E+04  0.15771256040E+04  0.50400000000E-02 0.  1.
    8880023    1    1    2    0    0 -0.12008474318E+03  0.73842535715E+02 -0.52707332309E+03  0.85527162925E+03  0.65864270000E+03 0. -1.
    8880022    1    1    2    0    0  0.12008474318E+03 -0.73842535715E+02 -0.87374460432E+03  0.89816165149E+03  0.15294330000E+03 0.  0.
<mgrwt>
<rscale>  0 0.50211018E+03</rscale>
<asrwt>0</asrwt>
<pdfrwt beam="1">  1        1 0.27124259E-01 0.67356015E+03</pdfrwt>
<pdfrwt beam="2">  1       -1 0.24263470E+00 0.67356015E+03</pdfrwt>
<totfact> 0.14230089E+01</totfact>
</mgrwt>
</event>
<event>
 4    1  0.1521315E-007  0.6692361E+03  0.7818608E-02  0.1016216E+00
          1   -1    0    0  501    0  0.00000000000E+00  0.00000000000E+00  0.47169129544E+04  0.47169129544E+04  0.50400000000E-02 0. -1.
         -1   -1    0    0    0  501 -0.00000000000E+00 -0.00000000000E+00 -0.67813749730E+02  0.67813749917E+02  0.50400000000E-02 0.  1.
    8880023    1    1    2    0    0 -0.11351646986E+03 -0.34363008715E+02  0.44738606025E+04  0.45236385468E+04  0.65864270000E+03 0. -1.
    8880022    1    1    2    0    0  0.11351646986E+03  0.34363008715E+02  0.17523860223E+03  0.26108815757E+03  0.15294330000E+03 0.  0.
<mgrwt>
<rscale>  0 0.49077030E+03</rscale>
<asrwt>0</asrwt>
<pdfrwt beam="1">  1        1 0.72567905E+00 0.66923614E+03</pdfrwt>
<pdfrwt beam="2">  1       -1 0.10432883E-01 0.66923614E+03</pdfrwt>
<totfact> 0.12900846E+00</totfact>
</mgrwt>
</event>
<event>
 4    1  0.1521315E-007  0.6673287E+03  0.7818608E-02  0.1017655E+00
         -1   -1    0    0    0  501 -0.00000000000E+00  0.00000000000E+00  0.41307723093E+03  0.41307723096E+03  0.50400000000E-02 0.  1.
          1   -1    0    0  501    0  0.00000000000E+00 -0.00000000000E+00 -0.16269192598E+04  0.16269192598E+04  0.50400000000E-02 0. -1.
    8880023    1    1    2    0    0 -0.95656357511E+02  0.48654243556E+02 -0.15320003588E+04  0.16710334167E+04  0.65864270000E+03 0. -1.
    8880022    1    1    2    0    0  0.95656357511E+02 -0.48654243556E+02  0.31815832989E+03  0.36896307409E+03  0.15294330000E+03 0.  0.
<mgrwt>
<rscale>  0 0.48542492E+03</rscale>
<asrwt>0</asrwt>
<pdfrwt beam="1">  1        1 0.25029527E+00 0.66732869E+03</pdfrwt>
<pdfrwt beam="2">  1       -1 0.63550344E-01 0.66732869E+03</pdfrwt>
<totfact> 0.14121602E+01</totfact>
</mgrwt>
</event>
<event>
 4    1  0.1521315E-007  0.7693385E+03  0.7818608E-02  0.9781505E-01
          1   -1    0    0  501    0  0.00000000000E+00  0.00000000000E+00  0.41354318795E+04  0.41354318795E+04  0.50400000000E-02 0. -1.
         -1   -1    0    0    0  501 -0.00000000000E+00 -0.00000000000E+00 -0.13636950509E+03  0.13636950518E+03  0.50400000000E-02 0.  1.
    8880023    1    1    2    0    0  0.19805595997E+02  0.39708838604E+03  0.36223276139E+04  0.37031255713E+04  0.65864270000E+03 0.  0.
    8880022    1    1    2    0    0 -0.19805595997E+02 -0.39708838604E+03  0.37673476049E+03  0.56867581339E+03  0.15294330000E+03 0.  0.
<mgrwt>
<rscale>  0 0.66364621E+03</rscale>
<asrwt>0</asrwt>
<pdfrwt beam="1">  1        1 0.63622026E+00 0.76933845E+03</pdfrwt>
<pdfrwt beam="2">  1       -1 0.20979925E-01 0.76933845E+03</pdfrwt>
<totfact> 0.15081802E+00</totfact>
</mgrwt>
</event>
<event>
 4    1  0.1521315E-007  0.9031592E+03  0.7818608E-02  0.9520979E-01
          1   -1    0    0  501    0  0.00000000000E+00  0.00000000000E+00  0.23467276466E+04  0.23467276466E+04  0.50400000000E-02 0. -1.
         -1   -1    0    0    0  501 -0.00000000000E+00 -0.00000000000E+00 -0.46395083277E+03  0.46395083279E+03  0.50400000000E-02 0.  1.
    8880023    1    1    2    0    0  0.56982607815E+03  0.23913287382E+03  0.19709118302E+04  0.21679921447E+04  0.65864270000E+03 0.  0.
    8880022    1    1    2    0    0 -0.56982607815E+03 -0.23913287382E+03 -0.88135016387E+02  0.64268633470E+03  0.15294330000E+03 0.  0.
<mgrwt>
<rscale>  0 0.82754638E+03</rscale>
<asrwt>0</asrwt>
<pdfrwt beam="1">  1        1 0.36103502E+00 0.90315918E+03</pdfrwt>
<pdfrwt beam="2">  1       -1 0.71377051E-01 0.90315918E+03</pdfrwt>
<totfact> 0.35316484E+00</totfact>
</mgrwt>
</event>
<event>
 4    1  0.1521315E-007  0.6747777E+03  0.7818608E-02  0.1012447E+00
          1   -1    0    0  501    0  0.00000000000E+00  0.00000000000E+00  0.19501491169E+03  0.19501491175E+03  0.50400000000E-02 0. -1.
         -1   -1    0    0    0  501 -0.00000000000E+00 -0.00000000000E+00 -0.18412905462E+04  0.18412905462E+04  0.50400000000E-02 0.  1.
    8880023    1    1    2    0    0  0.60123196131E+02  0.13379075674E+03 -0.42651358512E+03  0.79827239077E+03  0.65864270000E+03 0. -1.
    8880022    1    1    2    0    0 -0.60123196131E+02 -0.13379075674E+03 -0.12197620493E+04  0.12380330671E+04  0.15294330000E+03 0.  0.
<mgrwt>
<rscale>  0 0.50513691E+03</rscale>
<asrwt>0</asrwt>
<pdfrwt beam="1">  1        1 0.30002295E-01 0.67477772E+03</pdfrwt>
<pdfrwt beam="2">  1       -1 0.28327546E+00 0.67477772E+03</pdfrwt>
<totfact> 0.68540861E+00</totfact>
</mgrwt>
</event>
<event>
 4    1  0.1521315E-007  0.1594022E+04  0.7818608E-02  0.8845947E-01
          1   -1    0    0  501    0  0.00000000000E+00  0.00000000000E+00  0.23045212814E+04  0.23045212814E+04  0.50400000000E-02 0. -1.
         -1   -1    0    0    0  501 -0.00000000000E+00 -0.00000000000E+00 -0.12157117734E+04  0.12157117734E+04  0.50400000000E-02 0.  1.
    8880023    1    1    2    0    0 -0.87870524936E+03 -0.11554100048E+04  0.12850248177E+04  0.20474848431E+04  0.65864270000E+03 0. -1.
    8880022    1    1    2    0    0  0.87870524936E+03  0.11554100048E+04 -0.19621530967E+03  0.14727482117E+04  0.15294330000E+03 0.  0.
<mgrwt>
<rscale>  0 0.15593031E+04</rscale>
<asrwt>0</asrwt>
<pdfrwt beam="1">  1        1 0.35454173E+00 0.15940218E+04</pdfrwt>
<pdfrwt beam="2">  1       -1 0.18703258E+00 0.15940218E+04</pdfrwt>
<totfact> 0.32079945E-01</totfact>
</mgrwt>
</event>
<event>
 4    1  0.1521315E-007  0.8794510E+03  0.7818608E-02  0.9559859E-01
          1   -1    0    0  501    0  0.00000000000E+00  0.00000000000E+00  0.10815356679E+04  0.10815356679E+04  0.50400000000E-02 0. -1.
         -1   -1    0    0    0  501 -0.00000000000E+00 -0.00000000000E+00 -0.10693566789E+04  0.10693566789E+04  0.50400000000E-02 0.  1.
    8880023    1    1    2    0    0  0.57887794876E+03  0.67261952478E+02  0.77957505503E+03  0.11752324547E+04  0.65864270000E+03 0. -1.
    8880022    1    1    2    0    0 -0.57887794876E+03 -0.67261952478E+02 -0.76739606604E+03  0.97565989207E+03  0.15294330000E+03 0.  0.
<mgrwt>
<rscale>  0 0.80010941E+03</rscale>
<asrwt>0</asrwt>
<pdfrwt beam="1">  1        1 0.16639010E+00 0.87945100E+03</pdfrwt>
<pdfrwt beam="2">  1       -1 0.16451641E+00 0.87945100E+03</pdfrwt>
<totfact> 0.36053444E+00</totfact>
</mgrwt>
</event>
<event>
 4    1  0.1521315E-007  0.7608066E+03  0.7818608E-02  0.9803024E-01
         -1   -1    0    0    0  501 -0.00000000000E+00  0.00000000000E+00  0.43200541395E+03  0.43200541398E+03  0.50400000000E-02 0.  1.
          1   -1    0    0  501    0  0.00000000000E+00 -0.00000000000E+00 -0.11413420851E+04  0.11413420851E+04  0.50400000000E-02 0. -1.
    8880023    1    1    2    0    0 -0.37924179783E+03 -0.34527803001E+02 -0.84885455421E+03  0.11399038428E+04  0.65864270000E+03 0. -1.
    8880022    1    1    2    0    0  0.37924179783E+03  0.34527803001E+02  0.13951788311E+03  0.43344365623E+03  0.15294330000E+03 0.  0.
<mgrwt>
<rscale>  0 0.65200527E+03</rscale>
<asrwt>0</asrwt>
<pdfrwt beam="1">  1        1 0.17559109E+00 0.76080662E+03</pdfrwt>
<pdfrwt beam="2">  1       -1 0.66462372E-01 0.76080662E+03</pdfrwt>
<totfact> 0.27825803E+01</totfact>
</mgrwt>
</event>
<event>
 4    1  0.1521315E-007  0.7590721E+03  0.7818608E-02  0.9807516E-01
          1   -1    0    0  501    0  0.00000000000E+00  0.00000000000E+00  0.19739412763E+04  0.19739412763E+04  0.50400000000E-02 0. -1.
         -1   -1    0    0    0  501 -0.00000000000E+00 -0.00000000000E+00 -0.18186976983E+03  0.18186976990E+03  0.50400000000E-02 0.  1.
    8880023    1    1    2    0    0  0.37601956456E+03 -0.31456222967E+02  0.91520397338E+03  0.11890284799E+04  0.65864270000E+03 0.  0.
    8880022    1    1    2    0    0 -0.37601956456E+03  0.31456222967E+02  0.87686753312E+03  0.96678256632E+03  0.15294330000E+03 0.  1.
<mgrwt>
<rscale>  0 0.64960762E+03</rscale>
<asrwt>0</asrwt>
<pdfrwt beam="1">  1        1 0.30368329E+00 0.75907207E+03</pdfrwt>
<pdfrwt beam="2">  1       -1 0.27979963E-01 0.75907207E+03</pdfrwt>
<totfact> 0.37006502E+01</totfact>
</mgrwt>
</event>
<event>
 4    1  0.1521315E-007  0.6891859E+03  0.7818608E-02  0.1004542E+00
         -1   -1    0    0    0  501 -0.00000000000E+00  0.00000000000E+00  0.40599118547E+03  0.40599118550E+03  0.50400000000E-02 0.  1.
          1   -1    0    0  501    0  0.00000000000E+00 -0.00000000000E+00 -0.15455570740E+04  0.15455570740E+04  0.50400000000E-02 0. -1.
    8880023    1    1    2    0    0 -0.19600506455E+03 -0.52431186937E+02 -0.14167765946E+04  0.15755104379E+04  0.65864270000E+03 0. -1.
    8880022    1    1    2    0    0  0.19600506455E+03  0.52431186937E+02  0.27721070607E+03  0.37603782159E+03  0.15294330000E+03 0.  0.
<mgrwt>
<rscale>  0 0.53702761E+03</rscale>
<asrwt>0</asrwt>
<pdfrwt beam="1">  1        1 0.23777801E+00 0.68918591E+03</pdfrwt>
<pdfrwt beam="2">  1       -1 0.62460183E-01 0.68918591E+03</pdfrwt>
<totfact> 0.16535505E+01</totfact>
</mgrwt>
</event>
<event>
 4    1  0.1521315E-007  0.7798413E+03  0.7818608E-02  0.9756210E-01
          1   -1    0    0  501    0  0.00000000000E+00  0.00000000000E+00  0.89097299841E+03  0.89097299842E+03  0.50400000000E-02 0. -1.
         -1   -1    0    0    0  501 -0.00000000000E+00 -0.00000000000E+00 -0.43907838280E+03  0.43907838283E+03  0.50400000000E-02 0.  1.
    8880023    1    1    2    0    0 -0.14893381448E+03 -0.39007824596E+03  0.41618465301E+03  0.88394693887E+03  0.65864270000E+03 0.  0.
    8880022    1    1    2    0    0  0.14893381448E+03  0.39007824596E+03  0.35709962600E+02  0.44610444238E+03  0.15294330000E+03 0.  0.
<mgrwt>
<rscale>  0 0.67766469E+03</rscale>
<asrwt>0</asrwt>
<pdfrwt beam="1">  1        1 0.13707277E+00 0.77984135E+03</pdfrwt>
<pdfrwt beam="2">  1       -1 0.67550520E-01 0.77984135E+03</pdfrwt>
<totfact> 0.41961894E+01</totfact>
</mgrwt>
</event>
<event>
 4    1  0.1521315E-007  0.6811345E+03  0.7818608E-02  0.1008689E+00
         -1   -1    0    0    0  501 -0.00000000000E+00  0.00000000000E+00  0.88467202429E+03  0.88467202431E+03  0.50400000000E-02 0.  1.
          1   -1    0    0  501    0  0.00000000000E+00 -0.00000000000E+00 -0.14079987201E+04  0.14079987201E+04  0.50400000000E-02 0. -1.
    8880023    1    1    2    0    0  0.77303954866E+02 -0.15542888869E+03 -0.13079339288E+04  0.14746645073E+04  0.65864270000E+03 0. -1.
    8880022    1    1    2    0    0 -0.77303954866E+02  0.15542888869E+03  0.78460723296E+03  0.81800623709E+03  0.15294330000E+03 0.  0.
<mgrwt>
<rscale>  0 0.51998996E+03</rscale>
<asrwt>0</asrwt>
<pdfrwt beam="1">  1        1 0.21661519E+00 0.68113453E+03</pdfrwt>
<pdfrwt beam="2">  1       -1 0.13610339E+00 0.68113453E+03</pdfrwt>
<totfact> 0.36116788E+00</totfact>
</mgrwt>
</event>
<event>
 4    1  0.1521315E-007  0.9381207E+03  0.7818608E-02  0.9467416E-01
         -1   -1    0    0    0  501 -0.00000000000E+00  0.00000000000E+00  0.98339208808E+03  0.98339208810E+03  0.50400000000E-02 0.  1.
          1   -1    0    0  501    0  0.00000000000E+00 -0.00000000000E+00 -0.73852589626E+03  0.73852589627E+03  0.50400000000E-02 0. -1.
    8880023    1    1    2    0    0 -0.32039004935E+03  0.58618293562E+03 -0.11960590775E+03  0.94571454317E+03  0.65864270000E+03 0.  0.
    8880022    1    1    2    0    0  0.32039004935E+03 -0.58618293562E+03  0.36447209958E+03  0.77620344120E+03  0.15294330000E+03 0.  0.
<mgrwt>
<rscale>  0 0.86729340E+03</rscale>
<asrwt>0</asrwt>
<pdfrwt beam="1">  1        1 0.11361937E+00 0.93812069E+03</pdfrwt>
<pdfrwt beam="2">  1       -1 0.15129109E+00 0.93812069E+03</pdfrwt>
<totfact> 0.86279984E+00</totfact>
</mgrwt>
</event>
<event>
 4    1  0.1521315E-007  0.7186596E+03  0.7818608E-02  0.9927148E-01
          1   -1    0    0  501    0  0.00000000000E+00  0.00000000000E+00  0.32232709935E+03  0.32232709939E+03  0.50400000000E-02 0. -1.
         -1   -1    0    0    0  501 -0.00000000000E+00 -0.00000000000E+00 -0.13589317114E+04  0.13589317114E+04  0.50400000000E-02 0.  1.
    8880023    1    1    2    0    0  0.25957040313E+03 -0.12363120831E+03 -0.14648462315E+03  0.73343671911E+03  0.65864270000E+03 0. -1.
    8880022    1    1    2    0    0 -0.25957040313E+03  0.12363120831E+03 -0.89011998888E+03  0.94782209167E+03  0.15294330000E+03 0.  0.
<mgrwt>
<rscale>  0 0.58963448E+03</rscale>
<asrwt>0</asrwt>
<pdfrwt beam="1">  1        1 0.49588785E-01 0.71865964E+03</pdfrwt>
<pdfrwt beam="2">  1       -1 0.20906641E+00 0.71865964E+03</pdfrwt>
<totfact> 0.10777587E+01</totfact>
</mgrwt>
</event>
<event>
 4    1  0.1521315E-007  0.6711241E+03  0.7818608E-02  0.1014870E+00
         -1   -1    0    0    0  501 -0.00000000000E+00  0.00000000000E+00  0.31172475296E+03  0.31172475300E+03  0.50400000000E-02 0.  1.
          1   -1    0    0  501    0  0.00000000000E+00 -0.00000000000E+00 -0.99215324501E+03  0.99215324502E+03  0.50400000000E-02 0. -1.
    8880023    1    1    2    0    0  0.98376457374E+02  0.83183108954E+02 -0.82028867733E+03  0.10598495541E+04  0.65864270000E+03 0. -1.
    8880022    1    1    2    0    0 -0.98376457374E+02 -0.83183108954E+02  0.13986018529E+03  0.24402844388E+03  0.15294330000E+03 0.  0.
<mgrwt>
<rscale>  0 0.49584360E+03</rscale>
<asrwt>0</asrwt>
<pdfrwt beam="1">  1        1 0.15263896E+00 0.67112410E+03</pdfrwt>
<pdfrwt beam="2">  1       -1 0.47957655E-01 0.67112410E+03</pdfrwt>
<totfact> 0.68657422E+01</totfact>
</mgrwt>
</event>
<event>
 4    1  0.1521315E-007  0.8784438E+03  0.7818608E-02  0.9561562E-01
         -1   -1    0    0    0  501 -0.00000000000E+00  0.00000000000E+00  0.18226995116E+04  0.18226995116E+04  0.50400000000E-02 0.  1.
          1   -1    0    0  501    0  0.00000000000E+00 -0.00000000000E+00 -0.31136043450E+03  0.31136043454E+03  0.50400000000E-02 0. -1.
    8880023    1    1    2    0    0  0.51970931898E+03  0.26029884727E+03  0.69393001171E+03  0.11194651998E+04  0.65864270000E+03 0.  1.
    8880022    1    1    2    0    0 -0.51970931898E+03 -0.26029884727E+03  0.81740906540E+03  0.10145947464E+04  0.15294330000E+03 0.  0.
<mgrwt>
<rscale>  0 0.79893362E+03</rscale>
<asrwt>0</asrwt>
<pdfrwt beam="1">  1        1 0.47901606E-01 0.87844378E+03</pdfrwt>
<pdfrwt beam="2">  1       -1 0.28041531E+00 0.87844378E+03</pdfrwt>
<totfact> 0.37919544E+00</totfact>
</mgrwt>
</event>
<event>
 4    1  0.1521315E-007  0.6926121E+03  0.7818608E-02  0.1002935E+00
         -1   -1    0    0    0  501 -0.00000000000E+00  0.00000000000E+00  0.90713127326E+03  0.90713127327E+03  0.50400000000E-02 0.  1.
          1   -1    0    0  501    0  0.00000000000E+00 -0.00000000000E+00 -0.87839675828E+03  0.87839675829E+03  0.50400000000E-02 0. -1.
    8880023    1    1    2    0    0 -0.20735681639E+03 -0.53893412430E+02 -0.71567734448E+03  0.99594458524E+03  0.65864270000E+03 0. -1.
    8880022    1    1    2    0    0  0.20735681639E+03  0.53893412430E+02  0.74441185945E+03  0.78958344633E+03  0.15294330000E+03 0.  0.
<mgrwt>
<rscale>  0 0.54381820E+03</rscale>
<asrwt>0</asrwt>
<pdfrwt beam="1">  1        1 0.13513796E+00 0.69261212E+03</pdfrwt>
<pdfrwt beam="2">  1       -1 0.13955866E+00 0.69261212E+03</pdfrwt>
<totfact> 0.83446892E+00</totfact>
</mgrwt>
</event>
<event>
 4    1  0.1521315E-007  0.7403303E+03  0.7818608E-02  0.9858986E-01
          1   -1    0    0  501    0  0.00000000000E+00  0.00000000000E+00  0.99351677232E+03  0.99351677233E+03  0.50400000000E-02 0. -1.
         -1   -1    0    0    0  501 -0.00000000000E+00 -0.00000000000E+00 -0.72518764615E+03  0.72518764617E+03  0.50400000000E-02 0.  1.
    8880023    1    1    2    0    0 -0.38078342394E+02  0.33589986671E+03  0.78731936190E+03  0.10807222883E+04  0.65864270000E+03 0. -1.
    8880022    1    1    2    0    0  0.38078342394E+02 -0.33589986671E+03 -0.51899023573E+03  0.63798213017E+03  0.15294330000E+03 0.  0.
<mgrwt>
<rscale>  0 0.62290837E+03</rscale>
<asrwt>0</asrwt>
<pdfrwt beam="1">  1        1 0.15284873E+00 0.74033026E+03</pdfrwt>
<pdfrwt beam="2">  1       -1 0.11156733E+00 0.74033026E+03</pdfrwt>
<totfact> 0.11671899E+01</totfact>
</mgrwt>
</event>
<event>
 4    1  0.1521315E-007  0.6700263E+03  0.7818608E-02  0.1015644E+00
          1   -1    0    0  501    0  0.00000000000E+00  0.00000000000E+00  0.55594421842E+03  0.55594421845E+03  0.50400000000E-02 0. -1.
         -1   -1    0    0    0  501 -0.00000000000E+00 -0.00000000000E+00 -0.44690292245E+03  0.44690292248E+03  0.50400000000E-02 0.  1.
    8880023    1    1    2    0    0  0.54407271327E+02 -0.11029442800E+03  0.29535642409E+03  0.73223673462E+03  0.65864270000E+03 0. -1.
    8880022    1    1    2    0    0 -0.54407271327E+02  0.11029442800E+03 -0.18631512811E+03  0.27061040630E+03  0.15294330000E+03 0.  0.
<mgrwt>
<rscale>  0 0.49291832E+03</rscale>
<asrwt>0</asrwt>
<pdfrwt beam="1">  1        1 0.85529879E-01 0.67002628E+03</pdfrwt>
<pdfrwt beam="2">  1       -1 0.68754296E-01 0.67002628E+03</pdfrwt>
<totfact> 0.83850189E+01</totfact>
</mgrwt>
</event>
<event>
 4    1  0.1521315E-007  0.8239298E+03  0.7818608E-02  0.9661261E-01
          1   -1    0    0  501    0  0.00000000000E+00  0.00000000000E+00  0.12886380449E+04  0.12886380449E+04  0.50400000000E-02 0. -1.
         -1   -1    0    0    0  501 -0.00000000000E+00 -0.00000000000E+00 -0.56465188121E+03  0.56465188123E+03  0.50400000000E-02 0.  1.
    8880023    1    1    2    0    0  0.18055419992E+03  0.46092321906E+03  0.97588323254E+03  0.12771876615E+04  0.65864270000E+03 0.  0.
    8880022    1    1    2    0    0 -0.18055419992E+03 -0.46092321906E+03 -0.25189706884E+03  0.57610226461E+03  0.15294330000E+03 0.  0.
<mgrwt>
<rscale>  0 0.73370906E+03</rscale>
<asrwt>0</asrwt>
<pdfrwt beam="1">  1        1 0.19825201E+00 0.82392975E+03</pdfrwt>
<pdfrwt beam="2">  1       -1 0.86869520E-01 0.82392975E+03</pdfrwt>
<totfact> 0.12329280E+01</totfact>
</mgrwt>
</event>
<event>
 4    1  0.1521315E-007  0.7063646E+03  0.7818608E-02  0.9971757E-01
          1   -1    0    0  501    0  0.00000000000E+00  0.00000000000E+00  0.43303772314E+03  0.43303772317E+03  0.50400000000E-02 0. -1.
         -1   -1    0    0    0  501 -0.00000000000E+00 -0.00000000000E+00 -0.75944367285E+03  0.75944367287E+03  0.50400000000E-02 0.  1.
    8880023    1    1    2    0    0 -0.23542587157E+03 -0.98566638691E+02  0.55277431661E+02  0.70852418729E+03  0.65864270000E+03 0. -1.
    8880022    1    1    2    0    0  0.23542587157E+03  0.98566638691E+02 -0.38168338137E+03  0.48395720875E+03  0.15294330000E+03 0.  0.
<mgrwt>
<rscale>  0 0.56906183E+03</rscale>
<asrwt>0</asrwt>
<pdfrwt beam="1">  1        1 0.66621188E-01 0.70636459E+03</pdfrwt>
<pdfrwt beam="2">  1       -1 0.11683749E+00 0.70636459E+03</pdfrwt>
<totfact> 0.36585776E+01</totfact>
</mgrwt>
</event>
<event>
 4    1  0.1521315E-007  0.7451847E+03  0.7818608E-02  0.9845094E-01
         -1   -1    0    0    0  501 -0.00000000000E+00  0.00000000000E+00  0.53927184271E+03  0.53927184274E+03  0.50400000000E-02 0.  1.
          1   -1    0    0  501    0  0.00000000000E+00 -0.00000000000E+00 -0.10305559007E+04  0.10305559007E+04  0.50400000000E-02 0. -1.
    8880023    1    1    2    0    0  0.34855102570E+03 -0.14631167788E+01 -0.78998048509E+03  0.10859877215E+04  0.65864270000E+03 0. -1.
    8880022    1    1    2    0    0 -0.34855102570E+03  0.14631167788E+01  0.29869642711E+03  0.48384002192E+03  0.15294330000E+03 0.  0.
<mgrwt>
<rscale>  0 0.62997684E+03</rscale>
<asrwt>0</asrwt>
<pdfrwt beam="1">  1        1 0.15854706E+00 0.74518465E+03</pdfrwt>
<pdfrwt beam="2">  1       -1 0.82964899E-01 0.74518465E+03</pdfrwt>
<totfact> 0.21282004E+01</totfact>
</mgrwt>
</event>
<event>
 4    1  0.1521315E-007  0.8991861E+03  0.7818608E-02  0.9527339E-01
         -1   -1    0    0    0  501 -0.00000000000E+00  0.00000000000E+00  0.73349580852E+03  0.73349580854E+03  0.50400000000E-02 0.  1.
          1   -1    0    0  501    0  0.00000000000E+00 -0.00000000000E+00 -0.27220423743E+04  0.27220423743E+04  0.50400000000E-02 0. -1.
    8880023    1    1    2    0    0 -0.63930034186E+02  0.60880076447E+03 -0.24914039011E+04  0.26487032723E+04  0.65864270000E+03 0. -1.
    8880022    1    1    2    0    0  0.63930034186E+02 -0.60880076447E+03  0.50285733535E+03  0.80683491051E+03  0.15294330000E+03 0.  0.
<mgrwt>
<rscale>  0 0.82297859E+03</rscale>
<asrwt>0</asrwt>
<pdfrwt beam="1">  1        1 0.41877575E+00 0.89918609E+03</pdfrwt>
<pdfrwt beam="2">  1       -1 0.11284551E+00 0.89918609E+03</pdfrwt>
<totfact> 0.70788238E-01</totfact>
</mgrwt>
</event>
<event>
 4    1  0.1521315E-007  0.7737654E+03  0.7818608E-02  0.9770691E-01
         -1   -1    0    0    0  501 -0.00000000000E+00  0.00000000000E+00  0.75685975086E+03  0.75685975088E+03  0.50400000000E-02 0.  1.
          1   -1    0    0  501    0  0.00000000000E+00 -0.00000000000E+00 -0.12647206232E+04  0.12647206232E+04  0.50400000000E-02 0. -1.
    8880023    1    1    2    0    0 -0.31274712218E+03 -0.25902104163E+03 -0.10643638609E+04  0.13158963854E+04  0.65864270000E+03 0. -1.
    8880022    1    1    2    0    0  0.31274712218E+03  0.25902104163E+03  0.55650298863E+03  0.70568398863E+03  0.15294330000E+03 0.  0.
<mgrwt>
<rscale>  0 0.66959411E+03</rscale>
<asrwt>0</asrwt>
<pdfrwt beam="1">  1        1 0.19457240E+00 0.77376538E+03</pdfrwt>
<pdfrwt beam="2">  1       -1 0.11643996E+00 0.77376538E+03</pdfrwt>
<totfact> 0.66031807E+00</totfact>
</mgrwt>
</event>
<event>
 4    1  0.1521315E-007  0.9172413E+03  0.7818608E-02  0.9498902E-01
          1   -1    0    0  501    0  0.00000000000E+00  0.00000000000E+00  0.91203947107E+03  0.91203947109E+03  0.50400000000E-02 0. -1.
         -1   -1    0    0    0  501 -0.00000000000E+00 -0.00000000000E+00 -0.99004103442E+03  0.99004103444E+03  0.50400000000E-02 0.  1.
    8880023    1    1    2    0    0  0.25140661856E+03  0.58678449608E+03 -0.57160154698E+03  0.10807681840E+04  0.65864270000E+03 0.  0.
    8880022    1    1    2    0    0 -0.25140661856E+03 -0.58678449608E+03  0.49359998363E+03  0.82131232156E+03  0.15294330000E+03 0.  0.
<mgrwt>
<rscale>  0 0.84364820E+03</rscale>
<asrwt>0</asrwt>
<pdfrwt beam="1">  1        1 0.14031377E+00 0.91724127E+03</pdfrwt>
<pdfrwt beam="2">  1       -1 0.15231400E+00 0.91724127E+03</pdfrwt>
<totfact> 0.60255462E+00</totfact>
</mgrwt>
</event>
<event>
 4    1  0.1521315E-007  0.7304778E+03  0.7818608E-02  0.9888606E-01
          1   -1    0    0  501    0  0.00000000000E+00  0.00000000000E+00  0.55908776052E+03  0.55908776054E+03  0.50400000000E-02 0. -1.
         -1   -1    0    0    0  501 -0.00000000000E+00 -0.00000000000E+00 -0.18426462281E+04  0.18426462281E+04  0.50400000000E-02 0.  1.
    8880023    1    1    2    0    0 -0.19369003911E+03 -0.24954326338E+03  0.29265326037E+03  0.78692045889E+03  0.65864270000E+03 0. -1.
    8880022    1    1    2    0    0  0.19369003911E+03  0.24954326338E+03 -0.15762117279E+04  0.16148135297E+04  0.15294330000E+03 0.  0.
<mgrwt>
<rscale>  0 0.60816653E+03</rscale>
<asrwt>0</asrwt>
<pdfrwt beam="1">  1        1 0.86013502E-01 0.73047784E+03</pdfrwt>
<pdfrwt beam="2">  1       -1 0.28348403E+00 0.73047784E+03</pdfrwt>
<totfact> 0.16884605E+00</totfact>
</mgrwt>
</event>
<event>
 4    1  0.1521315E-007  0.7144108E+03  0.7818608E-02  0.9941973E-01
          1   -1    0    0  501    0  0.00000000000E+00  0.00000000000E+00  0.18688019255E+04  0.18688019255E+04  0.50400000000E-02 0. -1.
         -1   -1    0    0    0  501 -0.00000000000E+00 -0.00000000000E+00 -0.14625929963E+03  0.14625929972E+03  0.50400000000E-02 0.  1.
    8880023    1    1    2    0    0 -0.21850056623E+03 -0.16979422688E+03  0.13420040912E+04  0.15203150213E+04  0.65864270000E+03 0.  0.
    8880022    1    1    2    0    0  0.21850056623E+03  0.16979422688E+03  0.38053853472E+03  0.49474620397E+03  0.15294330000E+03 0.  0.
<mgrwt>
<rscale>  0 0.58269539E+03</rscale>
<asrwt>0</asrwt>
<pdfrwt beam="1">  1        1 0.28750798E+00 0.71441079E+03</pdfrwt>
<pdfrwt beam="2">  1       -1 0.22501431E-01 0.71441079E+03</pdfrwt>
<totfact> 0.63423229E+01</totfact>
</mgrwt>
</event>
<event>
 4    1  0.1521315E-007  0.7618078E+03  0.7818608E-02  0.9800450E-01
         -1   -1    0    0    0  501 -0.00000000000E+00  0.00000000000E+00  0.69334302836E+03  0.69334302838E+03  0.50400000000E-02 0.  1.
          1   -1    0    0  501    0  0.00000000000E+00 -0.00000000000E+00 -0.53826933660E+03  0.53826933662E+03  0.50400000000E-02 0. -1.
    8880023    1    1    2    0    0  0.24278606401E+03 -0.29596601225E+03 -0.64533768060E+02  0.76453630834E+03  0.65864270000E+03 0. -1.
    8880022    1    1    2    0    0 -0.24278606401E+03  0.29596601225E+03  0.21960745982E+03  0.46707605666E+03  0.15294330000E+03 0.  1.
<mgrwt>
<rscale>  0 0.65338425E+03</rscale>
<asrwt>0</asrwt>
<pdfrwt beam="1">  1        1 0.82810667E-01 0.76180782E+03</pdfrwt>
<pdfrwt beam="2">  1       -1 0.10666816E+00 0.76180782E+03</pdfrwt>
<totfact> 0.33546708E+01</totfact>
</mgrwt>
</event>
<event>
 4    1  0.1521315E-007  0.7500107E+03  0.7818608E-02  0.9831691E-01
         -1   -1    0    0    0  501 -0.00000000000E+00  0.00000000000E+00  0.57344237253E+03  0.57344237255E+03  0.50400000000E-02 0.  1.
          1   -1    0    0  501    0  0.00000000000E+00 -0.00000000000E+00 -0.11619273347E+04  0.11619273347E+04  0.50400000000E-02 0. -1.
    8880023    1    1    2    0    0 -0.35785144074E+03  0.25459661074E+02 -0.94535481538E+03  0.12067360031E+04  0.65864270000E+03 0.  0.
    8880022    1    1    2    0    0  0.35785144074E+03 -0.25459661074E+02  0.35686985323E+03  0.52863370413E+03  0.15294330000E+03 0.  0.
<mgrwt>
<rscale>  0 0.63689209E+03</rscale>
<asrwt>0</asrwt>
<pdfrwt beam="1">  1        1 0.17875805E+00 0.75001070E+03</pdfrwt>
<pdfrwt beam="2">  1       -1 0.88221903E-01 0.75001070E+03</pdfrwt>
<totfact> 0.14850818E+01</totfact>
</mgrwt>
</event>
<event>
 4    1  0.1521315E-007  0.6663537E+03  0.7818608E-02  0.1018424E+00
         -1   -1    0    0    0  501 -0.00000000000E+00  0.00000000000E+00  0.45513364357E+03  0.45513364360E+03  0.50400000000E-02 0.  1.
          1   -1    0    0  501    0  0.00000000000E+00 -0.00000000000E+00 -0.12405003954E+04  0.12405003954E+04  0.50400000000E-02 0. -1.
    8880023    1    1    2    0    0  0.91681019150E+02 -0.42563616101E+02 -0.11262319416E+04  0.13085968299E+04  0.65864270000E+03 0. -1.
    8880022    1    1    2    0    0 -0.91681019150E+02  0.42563616101E+02  0.34086518972E+03  0.38703720915E+03  0.15294330000E+03 0.  0.
<mgrwt>
<rscale>  0 0.48259756E+03</rscale>
<asrwt>0</asrwt>
<pdfrwt beam="1">  1        1 0.19084621E+00 0.66635372E+03</pdfrwt>
<pdfrwt beam="2">  1       -1 0.70020561E-01 0.66635372E+03</pdfrwt>
<totfact> 0.21467053E+01</totfact>
</mgrwt>
</event>
<event>
 4    1  0.1521315E-007  0.6751713E+03  0.7818608E-02  0.1012199E+00
          1   -1    0    0  501    0  0.00000000000E+00  0.00000000000E+00  0.11697034611E+04  0.11697034611E+04  0.50400000000E-02 0. -1.
         -1   -1    0    0    0  501 -0.00000000000E+00 -0.00000000000E+00 -0.20569520343E+03  0.20569520350E+03  0.50400000000E-02 0.  1.
    8880023    1    1    2    0    0  0.71450406045E+02 -0.13015722736E+03  0.94496978730E+03  0.11613888968E+04  0.65864270000E+03 0. -1.
    8880022    1    1    2    0    0 -0.71450406045E+02  0.13015722736E+03  0.19038470352E+02  0.21400976783E+03  0.15294330000E+03 0.  1.
<mgrwt>
<rscale>  0 0.50610140E+03</rscale>
<asrwt>0</asrwt>
<pdfrwt beam="1">  1        1 0.17995438E+00 0.67517129E+03</pdfrwt>
<pdfrwt beam="2">  1       -1 0.31645416E-01 0.67517129E+03</pdfrwt>
<totfact> 0.10718153E+02</totfact>
</mgrwt>
</event>
<event>
 4    1  0.2654175E-007  0.1217219E+04  0.7818608E-02  0.9140563E-01
          1   -1    0    0  501    0  0.00000000000E+00  0.00000000000E+00  0.21377651016E+04  0.21377651016E+04  0.50400000000E-02 0. -1.
         -1   -1    0    0    0  501 -0.00000000000E+00 -0.00000000000E+00 -0.26226989671E+04  0.26226989671E+04  0.50400000000E-02 0.  1.
    8880023    1    1    2    0    0 -0.95495542362E+03 -0.36860915449E+03  0.18453683808E+04  0.22106576481E+04  0.65864270000E+03 0.  0.
    8880022    1    1    2    0    0  0.95495542362E+03  0.36860915449E+03 -0.23303022464E+04  0.25498064206E+04  0.15294330000E+03 0.  0.
<mgrwt>
<rscale>  0 0.11688550E+04</rscale>
<asrwt>0</asrwt>
<pdfrwt beam="1">  1        1 0.32888694E+00 0.12172193E+04</pdfrwt>
<pdfrwt beam="2">  1       -1 0.40349215E+00 0.12172193E+04</pdfrwt>
<totfact> 0.16106537E-02</totfact>
</mgrwt>
</event>
<event>
 4    1  0.1521315E-007  0.7077480E+03  0.7818608E-02  0.9966461E-01
          1   -1    0    0  501    0  0.00000000000E+00  0.00000000000E+00  0.12817205869E+04  0.12817205869E+04  0.50400000000E-02 0. -1.
         -1   -1    0    0    0  501 -0.00000000000E+00 -0.00000000000E+00 -0.25054348409E+03  0.25054348415E+03  0.50400000000E-02 0.  1.
    8880023    1    1    2    0    0 -0.18566468043E+03  0.18062555677E+03  0.10065187402E+04  0.12304418499E+04  0.65864270000E+03 0. -1.
    8880022    1    1    2    0    0  0.18566468043E+03 -0.18062555677E+03  0.24658362576E+02  0.30182222114E+03  0.15294330000E+03 0. -1.
<mgrwt>
<rscale>  0 0.57145655E+03</rscale>
<asrwt>0</asrwt>
<pdfrwt beam="1">  1        1 0.19718778E+00 0.70774796E+03</pdfrwt>
<pdfrwt beam="2">  1       -1 0.38545152E-01 0.70774796E+03</pdfrwt>
<totfact> 0.62515463E+01</totfact>
</mgrwt>
</event>
<event>
 4    1  0.1521315E-007  0.7207647E+03  0.7818608E-02  0.9920007E-01
          1   -1    0    0  501    0  0.00000000000E+00  0.00000000000E+00  0.24436012221E+04  0.24436012221E+04  0.50400000000E-02 0. -1.
         -1   -1    0    0    0  501 -0.00000000000E+00 -0.00000000000E+00 -0.37285650467E+03  0.37285650471E+03  0.50400000000E-02 0.  1.
    8880023    1    1    2    0    0 -0.16877141728E+03  0.23918150221E+03  0.23026989186E+04  0.24128663657E+04  0.65864270000E+03 0. -1.
    8880022    1    1    2    0    0  0.16877141728E+03 -0.23918150221E+03 -0.23195420125E+03  0.40359136114E+03  0.15294330000E+03 0.  0.
<mgrwt>
<rscale>  0 0.59301393E+03</rscale>
<asrwt>0</asrwt>
<pdfrwt beam="1">  1        1 0.37593864E+00 0.72076472E+03</pdfrwt>
<pdfrwt beam="2">  1       -1 0.57362540E-01 0.72076472E+03</pdfrwt>
<totfact> 0.48522108E+00</totfact>
</mgrwt>
</event>
<event>
 4    1  0.1521315E-007  0.6852670E+03  0.7818608E-02  0.1006489E+00
          1   -1    0    0  501    0  0.00000000000E+00  0.00000000000E+00  0.72431625138E+03  0.72431625140E+03  0.50400000000E-02 0. -1.
         -1   -1    0    0    0  501 -0.00000000000E+00 -0.00000000000E+00 -0.37937667416E+03  0.37937667419E+03  0.50400000000E-02 0.  1.
    8880023    1    1    2    0    0 -0.31438963554E+02 -0.18652670987E+03  0.46923304692E+03  0.83052422030E+03  0.65864270000E+03 0. -1.
    8880022    1    1    2    0    0  0.31438963554E+02  0.18652670987E+03 -0.12429346970E+03  0.27316870529E+03  0.15294330000E+03 0.  0.
<mgrwt>
<rscale>  0 0.52894393E+03</rscale>
<asrwt>0</asrwt>
<pdfrwt beam="1">  1        1 0.11143327E+00 0.68526698E+03</pdfrwt>
<pdfrwt beam="2">  1       -1 0.58365643E-01 0.68526698E+03</pdfrwt>
<totfact> 0.78857750E+01</totfact>
</mgrwt>
</event>
<event>
 4    1  0.1521315E-007  0.1028414E+04  0.7818608E-02  0.9345293E-01
          1   -1    0    0  501    0  0.00000000000E+00  0.00000000000E+00  0.20936218650E+04  0.20936218650E+04  0.50400000000E-02 0. -1.
         -1   -1    0    0    0  501 -0.00000000000E+00 -0.00000000000E+00 -0.62246197728E+03  0.62246197730E+03  0.50400000000E-02 0.  1.
    8880023    1    1    2    0    0 -0.58617943760E+03 -0.52935649630E+03  0.15993259124E+04  0.19014410886E+04  0.65864270000E+03 0.  0.
    8880022    1    1    2    0    0  0.58617943760E+03  0.52935649630E+03 -0.12816602465E+03  0.81464275368E+03  0.15294330000E+03 0.  0.
<mgrwt>
<rscale>  0 0.96717951E+03</rscale>
<asrwt>0</asrwt>
<pdfrwt beam="1">  1        1 0.32209567E+00 0.10284137E+04</pdfrwt>
<pdfrwt beam="2">  1       -1 0.95763383E-01 0.10284137E+04</pdfrwt>
<totfact> 0.27298647E+00</totfact>
</mgrwt>
</event>
<event>
 4    1  0.1521315E-007  0.8282360E+03  0.7818608E-02  0.9652774E-01
         -1   -1    0    0    0  501 -0.00000000000E+00  0.00000000000E+00  0.55873355289E+03  0.55873355291E+03  0.50400000000E-02 0.  1.
          1   -1    0    0  501    0  0.00000000000E+00 -0.00000000000E+00 -0.14906873683E+04  0.14906873683E+04  0.50400000000E-02 0. -1.
    8880023    1    1    2    0    0 -0.30708074541E+03 -0.39732362442E+03 -0.12015151710E+04  0.14593195535E+04  0.65864270000E+03 0.  0.
    8880022    1    1    2    0    0  0.30708074541E+03  0.39732362442E+03  0.26956135563E+03  0.59010136772E+03  0.15294330000E+03 0.  1.
<mgrwt>
<rscale>  0 0.73899562E+03</rscale>
<asrwt>0</asrwt>
<pdfrwt beam="1">  1        1 0.22933652E+00 0.82823599E+03</pdfrwt>
<pdfrwt beam="2">  1       -1 0.85959009E-01 0.82823599E+03</pdfrwt>
<totfact> 0.91122681E+00</totfact>
</mgrwt>
</event>
<event>
 4    1  0.1521315E-007  0.8658831E+03  0.7818608E-02  0.9583183E-01
         -1   -1    0    0    0  501 -0.00000000000E+00  0.00000000000E+00  0.58063394058E+03  0.58063394060E+03  0.50400000000E-02 0.  1.
          1   -1    0    0  501    0  0.00000000000E+00 -0.00000000000E+00 -0.12549468966E+04  0.12549468966E+04  0.50400000000E-02 0. -1.
    8880023    1    1    2    0    0  0.33224876292E+03 -0.45338067834E+03 -0.86374164420E+03  0.12230302998E+04  0.65864270000E+03 0. -1.
    8880022    1    1    2    0    0 -0.33224876292E+03  0.45338067834E+03  0.18942868822E+03  0.61255053741E+03  0.15294330000E+03 0.  0.
<mgrwt>
<rscale>  0 0.78419308E+03</rscale>
<asrwt>0</asrwt>
<pdfrwt beam="1">  1        1 0.19306875E+00 0.86588307E+03</pdfrwt>
<pdfrwt beam="2">  1       -1 0.89328299E-01 0.86588307E+03</pdfrwt>
<totfact> 0.12195322E+01</totfact>
</mgrwt>
</event>
<event>
 4    1  0.1521315E-007  0.7267750E+03  0.7818608E-02  0.9900295E-01
         -1   -1    0    0    0  501 -0.00000000000E+00  0.00000000000E+00  0.25471444582E+03  0.25471444587E+03  0.50400000000E-02 0.  1.
          1   -1    0    0  501    0  0.00000000000E+00 -0.00000000000E+00 -0.13728196921E+04  0.13728196921E+04  0.50400000000E-02 0. -1.
    8880023    1    1    2    0    0  0.19654663214E+02  0.30660286963E+03 -0.10510439041E+04  0.12778478470E+04  0.65864270000E+03 0.  0.
    8880022    1    1    2    0    0 -0.19654663214E+02 -0.30660286963E+03 -0.67061342148E+02  0.34968629095E+03  0.15294330000E+03 0. -1.
<mgrwt>
<rscale>  0 0.60246999E+03</rscale>
<asrwt>0</asrwt>
<pdfrwt beam="1">  1        1 0.21120303E+00 0.72677495E+03</pdfrwt>
<pdfrwt beam="2">  1       -1 0.39186838E-01 0.72677495E+03</pdfrwt>
<totfact> 0.52255878E+01</totfact>
</mgrwt>
</event>
<event>
 4    1  0.1521315E-007  0.6992863E+03  0.7818608E-02  0.1000018E+00
         -1   -1    0    0    0  501 -0.00000000000E+00  0.00000000000E+00  0.11324417952E+04  0.11324417952E+04  0.50400000000E-02 0.  1.
          1   -1    0    0  501    0  0.00000000000E+00 -0.00000000000E+00 -0.14661153146E+04  0.14661153146E+04  0.50400000000E-02 0. -1.
    8880023    1    1    2    0    0 -0.13737873163E+03 -0.19057318275E+03 -0.13629052284E+04  0.15318328635E+04  0.65864270000E+03 0. -1.
    8880022    1    1    2    0    0  0.13737873163E+03  0.19057318275E+03  0.10292317090E+04  0.10667242463E+04  0.15294330000E+03 0.  0.
<mgrwt>
<rscale>  0 0.55642562E+03</rscale>
<asrwt>0</asrwt>
<pdfrwt beam="1">  1        1 0.22555620E+00 0.69928625E+03</pdfrwt>
<pdfrwt beam="2">  1       -1 0.17422182E+00 0.69928625E+03</pdfrwt>
<totfact> 0.16761221E+00</totfact>
</mgrwt>
</event>
<event>
 4    1  0.1521315E-007  0.7420041E+03  0.7818608E-02  0.9854147E-01
         -1   -1    0    0    0  501 -0.00000000000E+00  0.00000000000E+00  0.60895567493E+03  0.60895567495E+03  0.50400000000E-02 0.  1.
          1   -1    0    0  501    0  0.00000000000E+00 -0.00000000000E+00 -0.12055064499E+04  0.12055064499E+04  0.50400000000E-02 0. -1.
    8880023    1    1    2    0    0 -0.31444825562E+03  0.13372424116E+03 -0.10122231829E+04  0.12550561168E+04  0.65864270000E+03 0. -1.
    8880022    1    1    2    0    0  0.31444825562E+03 -0.13372424116E+03  0.41567240791E+03  0.55940600805E+03  0.15294330000E+03 0.  0.
<mgrwt>
<rscale>  0 0.62535908E+03</rscale>
<asrwt>0</asrwt>
<pdfrwt beam="1">  1        1 0.18546253E+00 0.74200410E+03</pdfrwt>
<pdfrwt beam="2">  1       -1 0.93685489E-01 0.74200410E+03</pdfrwt>
<totfact> 0.12104331E+01</totfact>
</mgrwt>
</event>
<event>
 4    1  0.1521315E-007  0.9657009E+03  0.7818608E-02  0.9427875E-01
          1   -1    0    0  501    0  0.00000000000E+00  0.00000000000E+00  0.19216131219E+04  0.19216131219E+04  0.50400000000E-02 0. -1.
         -1   -1    0    0    0  501 -0.00000000000E+00 -0.00000000000E+00 -0.48963875391E+03  0.48963875393E+03  0.50400000000E-02 0.  1.
    8880023    1    1    2    0    0  0.42429004582E+03  0.56457597367E+03  0.13832604110E+04  0.16870055258E+04  0.65864270000E+03 0.  0.
    8880022    1    1    2    0    0 -0.42429004582E+03 -0.56457597367E+03  0.48713957024E+02  0.72424635012E+03  0.15294330000E+03 0.  0.
<mgrwt>
<rscale>  0 0.89816765E+03</rscale>
<asrwt>0</asrwt>
<pdfrwt beam="1">  1        1 0.29563278E+00 0.96570093E+03</pdfrwt>
<pdfrwt beam="2">  1       -1 0.75329042E-01 0.96570093E+03</pdfrwt>
<totfact> 0.60555763E+00</totfact>
</mgrwt>
</event>
<event>
 4    1  0.1521315E-007  0.7235014E+03  0.7818608E-02  0.9910912E-01
          1   -1    0    0  501    0  0.00000000000E+00  0.00000000000E+00  0.13639746175E+04  0.13639746175E+04  0.50400000000E-02 0. -1.
         -1   -1    0    0    0  501 -0.00000000000E+00 -0.00000000000E+00 -0.28281426203E+03  0.28281426207E+03  0.50400000000E-02 0.  1.
    8880023    1    1    2    0    0 -0.27419334116E+03 -0.12025867721E+03  0.10925486841E+04  0.13103880995E+04  0.65864270000E+03 0.  0.
    8880022    1    1    2    0    0  0.27419334116E+03  0.12025867721E+03 -0.11388328705E+02  0.33640078006E+03  0.15294330000E+03 0.  0.
<mgrwt>
<rscale>  0 0.59735369E+03</rscale>
<asrwt>0</asrwt>
<pdfrwt beam="1">  1        1 0.20984225E+00 0.72350145E+03</pdfrwt>
<pdfrwt beam="2">  1       -1 0.43509886E-01 0.72350145E+03</pdfrwt>
<totfact> 0.43789337E+01</totfact>
</mgrwt>
</event>
<event>
 4    1  0.1521315E-007  0.7273851E+03  0.7818608E-02  0.9898346E-01
          1   -1    0    0  501    0  0.00000000000E+00  0.00000000000E+00  0.10413394542E+04  0.10413394542E+04  0.50400000000E-02 0. -1.
         -1   -1    0    0    0  501 -0.00000000000E+00 -0.00000000000E+00 -0.30547415019E+03  0.30547415023E+03  0.50400000000E-02 0.  1.
    8880023    1    1    2    0    0 -0.24692590140E+03 -0.18522004872E+03  0.28926915745E+03  0.78279353532E+03  0.65864270000E+03 0.  0.
    8880022    1    1    2    0    0  0.24692590140E+03  0.18522004872E+03  0.44659614654E+03  0.56402006910E+03  0.15294330000E+03 0.  0.
<mgrwt>
<rscale>  0 0.60341507E+03</rscale>
<asrwt>0</asrwt>
<pdfrwt beam="1">  1        1 0.16020607E+00 0.72738509E+03</pdfrwt>
<pdfrwt beam="2">  1       -1 0.46996023E-01 0.72738509E+03</pdfrwt>
<totfact> 0.65008597E+01</totfact>
</mgrwt>
</event>
<event>
 4    1  0.1521315E-007  0.1113653E+04  0.7818608E-02  0.9246005E-01
          1   -1    0    0  501    0  0.00000000000E+00  0.00000000000E+00  0.12211059936E+04  0.12211059936E+04  0.50400000000E-02 0. -1.
         -1   -1    0    0    0  501 -0.00000000000E+00 -0.00000000000E+00 -0.88851675360E+03  0.88851675361E+03  0.50400000000E-02 0.  1.
    8880023    1    1    2    0    0  0.32922308753E+03 -0.83547941426E+03  0.42937161896E+03  0.11935593351E+04  0.65864270000E+03 0.  1.
    8880022    1    1    2    0    0 -0.32922308753E+03  0.83547941426E+03 -0.96782378997E+02  0.91606341206E+03  0.15294330000E+03 0.  0.
<mgrwt>
<rscale>  0 0.10590941E+04</rscale>
<asrwt>0</asrwt>
<pdfrwt beam="1">  1        1 0.18786246E+00 0.11136534E+04</pdfrwt>
<pdfrwt beam="2">  1       -1 0.13669489E+00 0.11136534E+04</pdfrwt>
<totfact> 0.45575210E+00</totfact>
</mgrwt>
</event>
<event>
 4    1  0.1521315E-007  0.7482802E+03  0.7818608E-02  0.9836452E-01
          1   -1    0    0  501    0  0.00000000000E+00  0.00000000000E+00  0.69056530789E+03  0.69056530791E+03  0.50400000000E-02 0. -1.
         -1   -1    0    0    0  501 -0.00000000000E+00 -0.00000000000E+00 -0.48003550685E+03  0.48003550688E+03  0.50400000000E-02 0.  1.
    8880023    1    1    2    0    0  0.32278310922E+03 -0.14806772619E+03  0.23179125500E+03  0.78335839773E+03  0.65864270000E+03 0.  0.
    8880022    1    1    2    0    0 -0.32278310922E+03  0.14806772619E+03 -0.21261453954E+02  0.38724241707E+03  0.15294330000E+03 0.  0.
<mgrwt>
<rscale>  0 0.63442459E+03</rscale>
<asrwt>0</asrwt>
<pdfrwt beam="1">  1        1 0.10624082E+00 0.74828016E+03</pdfrwt>
<pdfrwt beam="2">  1       -1 0.73851616E-01 0.74828016E+03</pdfrwt>
<totfact> 0.52494467E+01</totfact>
</mgrwt>
</event>
<event>
 4    1  0.1521315E-007  0.6869716E+03  0.7818608E-02  0.1005626E+00
         -1   -1    0    0    0  501 -0.00000000000E+00  0.00000000000E+00  0.66259192237E+03  0.66259192239E+03  0.50400000000E-02 0.  1.
          1   -1    0    0  501    0  0.00000000000E+00 -0.00000000000E+00 -0.35515751513E+03  0.35515751517E+03  0.50400000000E-02 0. -1.
    8880023    1    1    2    0    0  0.11478012274E+03  0.15794096477E+03  0.99577714157E+02  0.69415110196E+03  0.65864270000E+03 0.  0.
    8880022    1    1    2    0    0 -0.11478012274E+03 -0.15794096477E+03  0.20785669309E+03  0.32359833560E+03  0.15294330000E+03 0.  0.
<mgrwt>
<rscale>  0 0.53250492E+03</rscale>
<asrwt>0</asrwt>
<pdfrwt beam="1">  1        1 0.54639619E-01 0.68697164E+03</pdfrwt>
<pdfrwt beam="2">  1       -1 0.10193722E+00 0.68697164E+03</pdfrwt>
<totfact> 0.65604966E+01</totfact>
</mgrwt>
</event>
<event>
 4    1  0.1521315E-007  0.8617851E+03  0.7818608E-02  0.9590396E-01
          1   -1    0    0  501    0  0.00000000000E+00  0.00000000000E+00  0.90704676873E+03  0.90704676874E+03  0.50400000000E-02 0. -1.
         -1   -1    0    0    0  501 -0.00000000000E+00 -0.00000000000E+00 -0.74250593971E+03  0.74250593972E+03  0.50400000000E-02 0.  1.
    8880023    1    1    2    0    0 -0.66047247605E+02 -0.55181622598E+03  0.48618509822E+03  0.98946932351E+03  0.65864270000E+03 0.  0.
    8880022    1    1    2    0    0  0.66047247605E+02  0.55181622598E+03 -0.32164426920E+03  0.66008338496E+03  0.15294330000E+03 0.  0.
<mgrwt>
<rscale>  0 0.77935117E+03</rscale>
<asrwt>0</asrwt>
<pdfrwt beam="1">  1        1 0.13954566E+00 0.86178512E+03</pdfrwt>
<pdfrwt beam="2">  1       -1 0.11423168E+00 0.86178512E+03</pdfrwt>
<totfact> 0.12734906E+01</totfact>
</mgrwt>
</event>
<event>
 4    1  0.1521315E-007  0.8582391E+03  0.7818608E-02  0.9596703E-01
         -1   -1    0    0    0  501 -0.00000000000E+00  0.00000000000E+00  0.10395326580E+04  0.10395326580E+04  0.50400000000E-02 0.  1.
          1   -1    0    0  501    0  0.00000000000E+00 -0.00000000000E+00 -0.12292739159E+04  0.12292739159E+04  0.50400000000E-02 0. -1.
    8880023    1    1    2    0    0 -0.78578953291E+02  0.54460037775E+03 -0.97430209320E+03  0.12983986285E+04  0.65864270000E+03 0.  0.
    8880022    1    1    2    0    0  0.78578953291E+02 -0.54460037775E+03  0.78456083527E+03  0.97040794545E+03  0.15294330000E+03 0.  0.
<mgrwt>
<rscale>  0 0.77514757E+03</rscale>
<asrwt>0</asrwt>
<pdfrwt beam="1">  1        1 0.18911907E+00 0.85823914E+03</pdfrwt>
<pdfrwt beam="2">  1       -1 0.15992810E+00 0.85823914E+03</pdfrwt>
<totfact> 0.30467427E+00</totfact>
</mgrwt>
</event>
<event>
 4    1  0.1521315E-007  0.7224943E+03  0.7818608E-02  0.9914235E-01
         -1   -1    0    0    0  501 -0.00000000000E+00  0.00000000000E+00  0.24098262688E+03  0.24098262693E+03  0.50400000000E-02 0.  1.
          1   -1    0    0  501    0  0.00000000000E+00 -0.00000000000E+00 -0.18880615935E+04  0.18880615935E+04  0.50400000000E-02 0. -1.
    8880023    1    1    2    0    0  0.60295396685E+02  0.29077861676E+03 -0.16431608588E+04  0.17949862264E+04  0.65864270000E+03 0. -1.
    8880022    1    1    2    0    0 -0.60295396685E+02 -0.29077861676E+03 -0.39181078792E+01  0.33405799408E+03  0.15294330000E+03 0.  0.
<mgrwt>
<rscale>  0 0.59576337E+03</rscale>
<asrwt>0</asrwt>
<pdfrwt beam="1">  1        1 0.29047100E+00 0.72249425E+03</pdfrwt>
<pdfrwt beam="2">  1       -1 0.37074252E-01 0.72249425E+03</pdfrwt>
<totfact> 0.25853233E+01</totfact>
</mgrwt>
</event>
<event>
 4    1  0.1521315E-007  0.6960180E+03  0.7818608E-02  0.1001414E+00
          1   -1    0    0  501    0  0.00000000000E+00  0.00000000000E+00  0.33518649457E+04  0.33518649457E+04  0.50400000000E-02 0. -1.
         -1   -1    0    0    0  501 -0.00000000000E+00 -0.00000000000E+00 -0.31466150227E+03  0.31466150231E+03  0.50400000000E-02 0.  1.
    8880023    1    1    2    0    0 -0.18558530547E+03 -0.12723575477E+03  0.32483843598E+04  0.33221140857E+04  0.65864270000E+03 0. -1.
    8880022    1    1    2    0    0  0.18558530547E+03  0.12723575477E+03 -0.21118091636E+03  0.34441236236E+03  0.15294330000E+03 0.  0.
<mgrwt>
<rscale>  0 0.55034600E+03</rscale>
<asrwt>0</asrwt>
<pdfrwt beam="1">  1        1 0.51567152E+00 0.69601799E+03</pdfrwt>
<pdfrwt beam="2">  1       -1 0.48409463E-01 0.69601799E+03</pdfrwt>
<totfact> 0.15274591E+00</totfact>
</mgrwt>
</event>
<event>
 4    1  0.1521315E-007  0.7433988E+03  0.7818608E-02  0.9850155E-01
          1   -1    0    0  501    0  0.00000000000E+00  0.00000000000E+00  0.24383826770E+04  0.24383826770E+04  0.50400000000E-02 0. -1.
         -1   -1    0    0    0  501 -0.00000000000E+00 -0.00000000000E+00 -0.18728013868E+03  0.18728013875E+03  0.50400000000E-02 0.  1.
    8880023    1    1    2    0    0 -0.99676403265E+02  0.32999415209E+03  0.67186373676E+03  0.10020192677E+04  0.65864270000E+03 0.  1.
    8880022    1    1    2    0    0  0.99676403265E+02 -0.32999415209E+03  0.15792388016E+04  0.16236435481E+04  0.15294330000E+03 0.  1.
<mgrwt>
<rscale>  0 0.62739012E+03</rscale>
<asrwt>0</asrwt>
<pdfrwt beam="1">  1        1 0.37513576E+00 0.74339877E+03</pdfrwt>
<pdfrwt beam="2">  1       -1 0.28812332E-01 0.74339877E+03</pdfrwt>
<totfact> 0.17173656E+01</totfact>
</mgrwt>
</event>
<event>
 4    1  0.1521315E-007  0.1023560E+04  0.7818608E-02  0.9351363E-01
         -1   -1    0    0    0  501 -0.00000000000E+00  0.00000000000E+00  0.32510179145E+03  0.32510179149E+03  0.50400000000E-02 0.  1.
          1   -1    0    0  501    0  0.00000000000E+00 -0.00000000000E+00 -0.27983712421E+04  0.27983712421E+04  0.50400000000E-02 0. -1.
    8880023    1    1    2    0    0  0.75319766720E+03 -0.21577234818E+03 -0.18359171050E+04  0.21019672345E+04  0.65864270000E+03 0.  0.
    8880022    1    1    2    0    0 -0.75319766720E+03  0.21577234818E+03 -0.63735234566E+03  0.10215057991E+04  0.15294330000E+03 0.  0.
<mgrwt>
<rscale>  0 0.96188723E+03</rscale>
<asrwt>0</asrwt>
<pdfrwt beam="1">  1        1 0.43051864E+00 0.10235598E+04</pdfrwt>
<pdfrwt beam="2">  1       -1 0.50015662E-01 0.10235598E+04</pdfrwt>
<totfact> 0.34204791E+00</totfact>
</mgrwt>
</event>
<event>
 4    1  0.1521315E-007  0.7879672E+03  0.7818608E-02  0.9737444E-01
         -1   -1    0    0    0  501 -0.00000000000E+00  0.00000000000E+00  0.67281046065E+03  0.67281046067E+03  0.50400000000E-02 0.  1.
          1   -1    0    0  501    0  0.00000000000E+00 -0.00000000000E+00 -0.10902617482E+04  0.10902617482E+04  0.50400000000E-02 0. -1.
    8880023    1    1    2    0    0 -0.98696127217E+02  0.42111898110E+03 -0.83116577340E+03  0.11453073260E+04  0.65864270000E+03 0.  0.
    8880022    1    1    2    0    0  0.98696127217E+02 -0.42111898110E+03  0.41371448584E+03  0.61776488293E+03  0.15294330000E+03 0.  0.
<mgrwt>
<rscale>  0 0.68830490E+03</rscale>
<asrwt>0</asrwt>
<pdfrwt beam="1">  1        1 0.16773258E+00 0.78796721E+03</pdfrwt>
<pdfrwt beam="2">  1       -1 0.10350930E+00 0.78796721E+03</pdfrwt>
<totfact> 0.11662113E+01</totfact>
</mgrwt>
</event>
<event>
 4    1  0.1521315E-007  0.6856955E+03  0.7818608E-02  0.1006269E+00
         -1   -1    0    0    0  501 -0.00000000000E+00  0.00000000000E+00  0.73048015947E+03  0.73048015948E+03  0.50400000000E-02 0.  1.
          1   -1    0    0  501    0  0.00000000000E+00 -0.00000000000E+00 -0.56452883432E+03  0.56452883434E+03  0.50400000000E-02 0. -1.
    8880023    1    1    2    0    0  0.10528829704E+03  0.15900479847E+03 -0.31569348949E+03  0.75487796166E+03  0.65864270000E+03 0. -1.
    8880022    1    1    2    0    0 -0.10528829704E+03 -0.15900479847E+03  0.48164481464E+03  0.54013103217E+03  0.15294330000E+03 0.  0.
<mgrwt>
<rscale>  0 0.52984597E+03</rscale>
<asrwt>0</asrwt>
<pdfrwt beam="1">  1        1 0.86850590E-01 0.68569553E+03</pdfrwt>
<pdfrwt beam="2">  1       -1 0.11238156E+00 0.68569553E+03</pdfrwt>
<totfact> 0.27967357E+01</totfact>
</mgrwt>
</event>
<event>
 4    1  0.1521315E-007  0.8421805E+03  0.7818608E-02  0.9626082E-01
          1   -1    0    0  501    0  0.00000000000E+00  0.00000000000E+00  0.67570580487E+03  0.67570580489E+03  0.50400000000E-02 0. -1.
         -1   -1    0    0    0  501 -0.00000000000E+00 -0.00000000000E+00 -0.11534490491E+04  0.11534490491E+04  0.50400000000E-02 0.  1.
    8880023    1    1    2    0    0  0.52067922311E+03 -0.65961703862E+02  0.28644664772E+03  0.88956151446E+03  0.65864270000E+03 0.  0.
    8880022    1    1    2    0    0 -0.52067922311E+03  0.65961703862E+02 -0.76418989192E+03  0.93959333953E+03  0.15294330000E+03 0.  0.
<mgrwt>
<rscale>  0 0.75593673E+03</rscale>
<asrwt>0</asrwt>
<pdfrwt beam="1">  1        1 0.10395474E+00 0.84218051E+03</pdfrwt>
<pdfrwt beam="2">  1       -1 0.17745370E+00 0.84218051E+03</pdfrwt>
<totfact> 0.63724010E+00</totfact>
</mgrwt>
</event>
<event>
 4    1  0.1521315E-007  0.7525923E+03  0.7818608E-02  0.9824677E-01
          1   -1    0    0  501    0  0.00000000000E+00  0.00000000000E+00  0.12699730907E+04  0.12699730907E+04  0.50400000000E-02 0. -1.
         -1   -1    0    0    0  501 -0.00000000000E+00 -0.00000000000E+00 -0.10813735458E+04  0.10813735458E+04  0.50400000000E-02 0.  1.
    8880023    1    1    2    0    0  0.19728136385E+03 -0.30604742252E+03  0.11144585550E+04  0.13447724858E+04  0.65864270000E+03 0. -1.
    8880022    1    1    2    0    0 -0.19728136385E+03  0.30604742252E+03 -0.92585901013E+03  0.10065741508E+04  0.15294330000E+03 0.  0.
<mgrwt>
<rscale>  0 0.64054886E+03</rscale>
<asrwt>0</asrwt>
<pdfrwt beam="1">  1        1 0.19538048E+00 0.75259230E+03</pdfrwt>
<pdfrwt beam="2">  1       -1 0.16636516E+00 0.75259230E+03</pdfrwt>
<totfact> 0.25947280E+00</totfact>
</mgrwt>
</event>
<event>
 4    1  0.1521315E-007  0.7772174E+03  0.7818608E-02  0.9762414E-01
         -1   -1    0    0    0  501 -0.00000000000E+00  0.00000000000E+00  0.73237161240E+03  0.73237161242E+03  0.50400000000E-02 0.  1.
          1   -1    0    0  501    0  0.00000000000E+00 -0.00000000000E+00 -0.12977305401E+04  0.12977305402E+04  0.50400000000E-02 0. -1.
    8880023    1    1    2    0    0  0.41219912842E+03 -0.18670504264E+02 -0.10941863650E+04  0.13421291730E+04  0.65864270000E+03 0.  0.
    8880022    1    1    2    0    0 -0.41219912842E+03  0.18670504264E+02  0.52882743730E+03  0.68797297960E+03  0.15294330000E+03 0.  0.
<mgrwt>
<rscale>  0 0.67419204E+03</rscale>
<asrwt>0</asrwt>
<pdfrwt beam="1">  1        1 0.19965085E+00 0.77721742E+03</pdfrwt>
<pdfrwt beam="2">  1       -1 0.11267256E+00 0.77721742E+03</pdfrwt>
<totfact> 0.67640577E+00</totfact>
</mgrwt>
</event>
<event>
 4    1  0.1521315E-007  0.6607301E+03  0.7818608E-02  0.1023421E+00
         -1   -1    0    0    0  501 -0.00000000000E+00  0.00000000000E+00  0.43959742143E+03  0.43959742146E+03  0.50400000000E-02 0.  1.
          1   -1    0    0  501    0  0.00000000000E+00 -0.00000000000E+00 -0.10031293111E+04  0.10031293111E+04  0.50400000000E-02 0. -1.
    8880023    1    1    2    0    0 -0.33002570106E+02 -0.40802703785E+02 -0.87223557906E+03  0.10942390698E+04  0.65864270000E+03 0. -1.
    8880022    1    1    2    0    0  0.33002570106E+02  0.40802703785E+02  0.30870368937E+03  0.34848766279E+03  0.15294330000E+03 0.  0.
<mgrwt>
<rscale>  0 0.46472181E+03</rscale>
<asrwt>0</asrwt>
<pdfrwt beam="1">  1        1 0.15432759E+00 0.66073008E+03</pdfrwt>
<pdfrwt beam="2">  1       -1 0.67630373E-01 0.66073008E+03</pdfrwt>
<totfact> 0.34542384E+01</totfact>
</mgrwt>
</event>
<event>
 4    1  0.1521315E-007  0.8835117E+03  0.7818608E-02  0.9553036E-01
          1   -1    0    0  501    0  0.00000000000E+00  0.00000000000E+00  0.13748983340E+04  0.13748983340E+04  0.50400000000E-02 0. -1.
         -1   -1    0    0    0  501 -0.00000000000E+00 -0.00000000000E+00 -0.47638946929E+03  0.47638946931E+03  0.50400000000E-02 0.  1.
    8880023    1    1    2    0    0 -0.51346152626E+02  0.58663982035E+03  0.87340847467E+03  0.12423507058E+04  0.65864270000E+03 0. -1.
    8880022    1    1    2    0    0  0.51346152626E+02 -0.58663982035E+03  0.25100390055E+02  0.60893709758E+03  0.15294330000E+03 0.  1.
<mgrwt>
<rscale>  0 0.80484086E+03</rscale>
<asrwt>0</asrwt>
<pdfrwt beam="1">  1        1 0.21152281E+00 0.88351169E+03</pdfrwt>
<pdfrwt beam="2">  1       -1 0.73290690E-01 0.88351169E+03</pdfrwt>
<totfact> 0.15274879E+01</totfact>
</mgrwt>
</event>
<event>
 4    1  0.1521315E-007  0.6984364E+03  0.7818608E-02  0.1000375E+00
          1   -1    0    0  501    0  0.00000000000E+00  0.00000000000E+00  0.72765336102E+03  0.72765336104E+03  0.50400000000E-02 0. -1.
         -1   -1    0    0    0  501 -0.00000000000E+00 -0.00000000000E+00 -0.16053627369E+04  0.16053627369E+04  0.50400000000E-02 0.  1.
    8880023    1    1    2    0    0 -0.17012406828E+03 -0.15830684390E+03  0.54340287018E+03  0.88492945539E+03  0.65864270000E+03 0. -1.
    8880022    1    1    2    0    0  0.17012406828E+03  0.15830684390E+03 -0.14211122460E+04  0.14480866425E+04  0.15294330000E+03 0.  0.
<mgrwt>
<rscale>  0 0.55486102E+03</rscale>
<asrwt>0</asrwt>
<pdfrwt beam="1">  1        1 0.11194667E+00 0.69843644E+03</pdfrwt>
<pdfrwt beam="2">  1       -1 0.24697888E+00 0.69843644E+03</pdfrwt>
<totfact> 0.19777662E+00</totfact>
</mgrwt>
</event>
<event>
 4    1  0.1521315E-007  0.8859894E+03  0.7818608E-02  0.9548908E-01
         -1   -1    0    0    0  501 -0.00000000000E+00  0.00000000000E+00  0.14803787539E+04  0.14803787539E+04  0.50400000000E-02 0.  1.
          1   -1    0    0  501    0  0.00000000000E+00 -0.00000000000E+00 -0.63666369255E+03  0.63666369257E+03  0.50400000000E-02 0. -1.
    8880023    1    1    2    0    0  0.36597464959E+03 -0.46607896753E+03 -0.19893044859E+03  0.90804767373E+03  0.65864270000E+03 0.  0.
    8880022    1    1    2    0    0 -0.36597464959E+03  0.46607896753E+03  0.10426455099E+04  0.12089947727E+04  0.15294330000E+03 0.  0.
<mgrwt>
<rscale>  0 0.80772103E+03</rscale>
<asrwt>0</asrwt>
<pdfrwt beam="1">  1        1 0.97948261E-01 0.88598942E+03</pdfrwt>
<pdfrwt beam="2">  1       -1 0.22775058E+00 0.88598942E+03</pdfrwt>
<totfact> 0.31311568E+00</totfact>
</mgrwt>
</event>
<event>
 4    1  0.1521315E-007  0.7582743E+03  0.7818608E-02  0.9809596E-01
         -1   -1    0    0    0  501 -0.00000000000E+00  0.00000000000E+00  0.41019071581E+03  0.41019071584E+03  0.50400000000E-02 0.  1.
          1   -1    0    0  501    0  0.00000000000E+00 -0.00000000000E+00 -0.21026018623E+04  0.21026018623E+04  0.50400000000E-02 0. -1.
    8880023    1    1    2    0    0 -0.23441298693E+03  0.29363293244E+03 -0.19081766522E+04  0.20533187988E+04  0.65864270000E+03 0. -1.
    8880022    1    1    2    0    0  0.23441298693E+03 -0.29363293244E+03  0.21576550566E+03  0.45947377934E+03  0.15294330000E+03 0.  0.
<mgrwt>
<rscale>  0 0.64850117E+03</rscale>
<asrwt>0</asrwt>
<pdfrwt beam="1">  1        1 0.32347720E+00 0.75827433E+03</pdfrwt>
<pdfrwt beam="2">  1       -1 0.63106265E-01 0.75827433E+03</pdfrwt>
<totfact> 0.67774067E+00</totfact>
</mgrwt>
</event>
<event>
 4    1  0.1521315E-007  0.1992862E+04  0.7818608E-02  0.8622744E-01
         -1   -1    0    0    0  501 -0.00000000000E+00  0.00000000000E+00  0.12419674920E+04  0.12419674920E+04  0.50400000000E-02 0.  1.
          1   -1    0    0  501    0  0.00000000000E+00 -0.00000000000E+00 -0.42072217018E+04  0.42072217018E+04  0.50400000000E-02 0. -1.
    8880023    1    1    2    0    0  0.19209635982E+03  0.18710387371E+04 -0.29524226359E+04  0.35620635303E+04  0.65864270000E+03 0.  0.
    8880022    1    1    2    0    0 -0.19209635982E+03 -0.18710387371E+04 -0.12831573938E+02  0.18871256634E+04  0.15294330000E+03 0.  0.
<mgrwt>
<rscale>  0 0.19658734E+04</rscale>
<asrwt>0</asrwt>
<pdfrwt beam="1">  1        1 0.64726487E+00 0.19928616E+04</pdfrwt>
<pdfrwt beam="2">  1       -1 0.19107192E+00 0.19928616E+04</pdfrwt>
<totfact> 0.97213690E-03</totfact>
</mgrwt>
</event>
<event>
 4    1  0.1521315E-007  0.9866709E+03  0.7818608E-02  0.9399208E-01
          1   -1    0    0  501    0  0.00000000000E+00  0.00000000000E+00  0.18299255413E+04  0.18299255413E+04  0.50400000000E-02 0. -1.
         -1   -1    0    0    0  501 -0.00000000000E+00 -0.00000000000E+00 -0.94277240720E+03  0.94277240721E+03  0.50400000000E-02 0.  1.
    8880023    1    1    2    0    0 -0.52355038416E+03  0.51536807784E+03  0.15057306923E+04  0.18002067615E+04  0.65864270000E+03 0. -1.
    8880022    1    1    2    0    0  0.52355038416E+03 -0.51536807784E+03 -0.61857755811E+03  0.97249118702E+03  0.15294330000E+03 0.  0.
<mgrwt>
<rscale>  0 0.92140915E+03</rscale>
<asrwt>0</asrwt>
<pdfrwt beam="1">  1        1 0.28152700E+00 0.98667090E+03</pdfrwt>
<pdfrwt beam="2">  1       -1 0.14504191E+00 0.98667090E+03</pdfrwt>
<totfact> 0.15004208E+00</totfact>
</mgrwt>
</event>
<event>
 4    1  0.1521315E-007  0.9942403E+03  0.7818608E-02  0.9389132E-01
         -1   -1    0    0    0  501 -0.00000000000E+00  0.00000000000E+00  0.75545326351E+03  0.75545326353E+03  0.50400000000E-02 0.  1.
          1   -1    0    0  501    0  0.00000000000E+00 -0.00000000000E+00 -0.16160960664E+04  0.16160960665E+04  0.50400000000E-02 0. -1.
    8880023    1    1    2    0    0 -0.11964430551E+03 -0.73511147814E+03 -0.11833410304E+04  0.15455775120E+04  0.65864270000E+03 0.  0.
    8880022    1    1    2    0    0  0.11964430551E+03  0.73511147814E+03  0.32269822744E+03  0.82597181800E+03  0.15294330000E+03 0.  0.
<mgrwt>
<rscale>  0 0.92975488E+03</rscale>
<asrwt>0</asrwt>
<pdfrwt beam="1">  1        1 0.24863016E+00 0.99424034E+03</pdfrwt>
<pdfrwt beam="2">  1       -1 0.11622358E+00 0.99424034E+03</pdfrwt>
<totfact> 0.36666091E+00</totfact>
</mgrwt>
</event>
<event>
 4    1  0.1521315E-007  0.7672416E+03  0.7818608E-02  0.9786708E-01
          1   -1    0    0  501    0  0.00000000000E+00  0.00000000000E+00  0.24859404883E+04  0.24859404883E+04  0.50400000000E-02 0. -1.
         -1   -1    0    0    0  501 -0.00000000000E+00 -0.00000000000E+00 -0.19645803473E+03  0.19645803479E+03  0.50400000000E-02 0.  1.
    8880023    1    1    2    0    0  0.21142305723E+02 -0.39294081638E+03  0.20677978492E+04  0.22055492816E+04  0.65864270000E+03 0.  1.
    8880022    1    1    2    0    0 -0.21142305723E+02  0.39294081638E+03  0.22168460440E+03  0.47684924149E+03  0.15294330000E+03 0.  0.
<mgrwt>
<rscale>  0 0.66080771E+03</rscale>
<asrwt>0</asrwt>
<pdfrwt beam="1">  1        1 0.38245240E+00 0.76724161E+03</pdfrwt>
<pdfrwt beam="2">  1       -1 0.30224312E-01 0.76724161E+03</pdfrwt>
<totfact> 0.14614121E+01</totfact>
</mgrwt>
</event>
<event>
 4    1  0.1521315E-007  0.6778084E+03  0.7818608E-02  0.1010592E+00
          1   -1    0    0  501    0  0.00000000000E+00  0.00000000000E+00  0.69964853288E+03  0.69964853290E+03  0.50400000000E-02 0. -1.
         -1   -1    0    0    0  501 -0.00000000000E+00 -0.00000000000E+00 -0.74050377600E+03  0.74050377602E+03  0.50400000000E-02 0.  1.
    8880023    1    1    2    0    0  0.49386519783E+01 -0.15996747574E+03  0.50884335054E+03  0.84755279790E+03  0.65864270000E+03 0. -1.
    8880022    1    1    2    0    0 -0.49386519783E+01  0.15996747574E+03 -0.54969859366E+03  0.59259951102E+03  0.15294330000E+03 0.  0.
<mgrwt>
<rscale>  0 0.51240216E+03</rscale>
<asrwt>0</asrwt>
<pdfrwt beam="1">  1        1 0.10763824E+00 0.67780837E+03</pdfrwt>
<pdfrwt beam="2">  1       -1 0.11392366E+00 0.67780837E+03</pdfrwt>
<totfact> 0.19828490E+01</totfact>
</mgrwt>
</event>
<event>
 4    1  0.1521315E-007  0.6921223E+03  0.7818608E-02  0.1003160E+00
         -1   -1    0    0    0  501 -0.00000000000E+00  0.00000000000E+00  0.10941961196E+04  0.10941961196E+04  0.50400000000E-02 0.  1.
          1   -1    0    0  501    0  0.00000000000E+00 -0.00000000000E+00 -0.49018884798E+03  0.49018884801E+03  0.50400000000E-02 0. -1.
    8880023    1    1    2    0    0  0.14231109988E+03  0.15802077786E+03 -0.21480902382E+03  0.72469037413E+03  0.65864270000E+03 0. -1.
    8880022    1    1    2    0    0 -0.14231109988E+03 -0.15802077786E+03  0.81881629547E+03  0.85969459352E+03  0.15294330000E+03 0.  0.
<mgrwt>
<rscale>  0 0.54286174E+03</rscale>
<asrwt>0</asrwt>
<pdfrwt beam="1">  1        1 0.75413669E-01 0.69212226E+03</pdfrwt>
<pdfrwt beam="2">  1       -1 0.16833786E+00 0.69212226E+03</pdfrwt>
<totfact> 0.11955083E+01</totfact>
</mgrwt>
</event>
<event>
 4    1  0.1521315E-007  0.7680423E+03  0.7818608E-02  0.9784715E-01
         -1   -1    0    0    0  501 -0.00000000000E+00  0.00000000000E+00  0.12744652970E+03  0.12744652980E+03  0.50400000000E-02 0.  1.
          1   -1    0    0  501    0  0.00000000000E+00 -0.00000000000E+00 -0.30936542702E+04  0.30936542702E+04  0.50400000000E-02 0. -1.
    8880023    1    1    2    0    0 -0.19517296570E+03 -0.34349129512E+03 -0.23577256238E+04  0.24796691472E+04  0.65864270000E+03 0. -1.
    8880022    1    1    2    0    0  0.19517296570E+03  0.34349129512E+03 -0.60848211663E+03  0.74143165271E+03  0.15294330000E+03 0.  0.
<mgrwt>
<rscale>  0 0.66189326E+03</rscale>
<asrwt>0</asrwt>
<pdfrwt beam="1">  1        1 0.47594675E+00 0.76804229E+03</pdfrwt>
<pdfrwt beam="2">  1       -1 0.19607161E-01 0.76804229E+03</pdfrwt>
<totfact> 0.11433170E+01</totfact>
</mgrwt>
</event>
<event>
 4    1  0.1887582E-007  0.1142813E+04  0.7818608E-02  0.9214822E-01
         -1   -1    0    0    0  501 -0.00000000000E+00  0.00000000000E+00  0.24077179771E+04  0.24077179771E+04  0.50400000000E-02 0.  1.
          1   -1    0    0  501    0  0.00000000000E+00 -0.00000000000E+00 -0.12932042175E+04  0.12932042175E+04  0.50400000000E-02 0. -1.
    8880023    1    1    2    0    0 -0.30930942881E+03  0.88121436079E+03 -0.91344853451E+03  0.14630138427E+04  0.65864270000E+03 0. -1.
    8880022    1    1    2    0    0  0.30930942881E+03 -0.88121436079E+03  0.20279622941E+04  0.22379083519E+04  0.15294330000E+03 0.  0.
<mgrwt>
<rscale>  0 0.10901739E+04</rscale>
<asrwt>0</asrwt>
<pdfrwt beam="1">  1        1 0.19895450E+00 0.11428129E+04</pdfrwt>
<pdfrwt beam="2">  1       -1 0.37041815E+00 0.11428129E+04</pdfrwt>
<totfact> 0.10370565E-01</totfact>
</mgrwt>
</event>
<event>
 4    1  0.1521315E-007  0.1428309E+04  0.7818608E-02  0.8961992E-01
          1   -1    0    0  501    0  0.00000000000E+00  0.00000000000E+00  0.14908214838E+04  0.14908214838E+04  0.50400000000E-02 0. -1.
         -1   -1    0    0    0  501 -0.00000000000E+00 -0.00000000000E+00 -0.18181251425E+04  0.18181251425E+04  0.50400000000E-02 0.  1.
    8880023    1    1    2    0    0  0.12569445490E+04 -0.16231907448E+03  0.77260558966E+03  0.16238801325E+04  0.65864270000E+03 0. -1.
    8880022    1    1    2    0    0 -0.12569445490E+04  0.16231907448E+03 -0.10999092483E+04  0.16850664938E+04  0.15294330000E+03 0.  0.
<mgrwt>
<rscale>  0 0.13887640E+04</rscale>
<asrwt>0</asrwt>
<pdfrwt beam="1">  1        1 0.22935715E+00 0.14283092E+04</pdfrwt>
<pdfrwt beam="2">  1       -1 0.27971156E+00 0.14283092E+04</pdfrwt>
<totfact> 0.28296540E-01</totfact>
</mgrwt>
</event>
<event>
 4    1  0.1521315E-007  0.8990127E+03  0.7818608E-02  0.9527618E-01
         -1   -1    0    0    0  501 -0.00000000000E+00  0.00000000000E+00  0.79351363544E+03  0.79351363546E+03  0.50400000000E-02 0.  1.
          1   -1    0    0  501    0  0.00000000000E+00 -0.00000000000E+00 -0.13306672821E+04  0.13306672821E+04  0.50400000000E-02 0. -1.
    8880023    1    1    2    0    0 -0.19330496126E+03  0.58055735987E+03 -0.99786663610E+03  0.13431164082E+04  0.65864270000E+03 0.  0.
    8880022    1    1    2    0    0  0.19330496126E+03 -0.58055735987E+03  0.46071298947E+03  0.78106450939E+03  0.15294330000E+03 0.  0.
<mgrwt>
<rscale>  0 0.82277900E+03</rscale>
<asrwt>0</asrwt>
<pdfrwt beam="1">  1        1 0.20471804E+00 0.89901272E+03</pdfrwt>
<pdfrwt beam="2">  1       -1 0.12207902E+00 0.89901272E+03</pdfrwt>
<totfact> 0.51908040E+00</totfact>
</mgrwt>
</event>
<event>
 4    1  0.1521315E-007  0.9487007E+03  0.7818608E-02  0.9451986E-01
         -1   -1    0    0    0  501 -0.00000000000E+00  0.00000000000E+00  0.16337013252E+04  0.16337013252E+04  0.50400000000E-02 0.  1.
          1   -1    0    0  501    0  0.00000000000E+00 -0.00000000000E+00 -0.63851805456E+03  0.63851805458E+03  0.50400000000E-02 0. -1.
    8880023    1    1    2    0    0  0.62131239174E+03 -0.28318508773E+03  0.12124843627E+04  0.15395296093E+04  0.65864270000E+03 0.  1.
    8880022    1    1    2    0    0 -0.62131239174E+03  0.28318508773E+03 -0.21730109206E+03  0.73268977041E+03  0.15294330000E+03 0.  0.
<mgrwt>
<rscale>  0 0.87918185E+03</rscale>
<asrwt>0</asrwt>
<pdfrwt beam="1">  1        1 0.98233545E-01 0.94870074E+03</pdfrwt>
<pdfrwt beam="2">  1       -1 0.25133867E+00 0.94870074E+03</pdfrwt>
<totfact> 0.21686790E+00</totfact>
</mgrwt>
</event>
<event>
 4    1  0.1521315E-007  0.6911066E+03  0.7818608E-02  0.1003631E+00
          1   -1    0    0  501    0  0.00000000000E+00  0.00000000000E+00  0.29788411365E+03  0.29788411369E+03  0.50400000000E-02 0. -1.
         -1   -1    0    0    0  501 -0.00000000000E+00 -0.00000000000E+00 -0.14805481584E+04  0.14805481584E+04  0.50400000000E-02 0.  1.
    8880023    1    1    2    0    0 -0.15504091860E+03  0.14064283097E+03 -0.14145607359E+03  0.70543470241E+03  0.65864270000E+03 0. -1.
    8880022    1    1    2    0    0  0.15504091860E+03 -0.14064283097E+03 -0.10412079711E+04  0.10729975697E+04  0.15294330000E+03 0.  0.
<mgrwt>
<rscale>  0 0.54086366E+03</rscale>
<asrwt>0</asrwt>
<pdfrwt beam="1">  1        1 0.45828326E-01 0.69110658E+03</pdfrwt>
<pdfrwt beam="2">  1       -1 0.22777664E+00 0.69110658E+03</pdfrwt>
<totfact> 0.90003451E+00</totfact>
</mgrwt>
</event>
<event>
 4    1  0.1521315E-007  0.8819659E+03  0.7818608E-02  0.9555625E-01
         -1   -1    0    0    0  501 -0.00000000000E+00  0.00000000000E+00  0.23716930759E+03  0.23716930765E+03  0.50400000000E-02 0.  1.
          1   -1    0    0  501    0  0.00000000000E+00 -0.00000000000E+00 -0.25646417231E+04  0.25646417231E+04  0.50400000000E-02 0. -1.
    8880023    1    1    2    0    0 -0.52545205763E+03  0.26067940593E+03 -0.94687589084E+03  0.12940006864E+04  0.65864270000E+03 0.  1.
    8880022    1    1    2    0    0  0.52545205763E+03 -0.26067940593E+03 -0.13805965247E+04  0.15078103443E+04  0.15294330000E+03 0.  0.
<mgrwt>
<rscale>  0 0.80304138E+03</rscale>
<asrwt>0</asrwt>
<pdfrwt beam="1">  1        1 0.39456024E+00 0.88196589E+03</pdfrwt>
<pdfrwt beam="2">  1       -1 0.36487588E-01 0.88196589E+03</pdfrwt>
<totfact> 0.90935056E+00</totfact>
</mgrwt>
</event>
<event>
 4    1  0.1521315E-007  0.7287500E+03  0.7818608E-02  0.9894020E-01
         -1   -1    0    0    0  501 -0.00000000000E+00  0.00000000000E+00  0.48302058059E+03  0.48302058061E+03  0.50400000000E-02 0.  1.
          1   -1    0    0  501    0  0.00000000000E+00 -0.00000000000E+00 -0.13790858475E+04  0.13790858475E+04  0.50400000000E-02 0. -1.
    8880023    1    1    2    0    0  0.11527211076E+03 -0.28979083780E+03 -0.11977505183E+04  0.14020281379E+04  0.65864270000E+03 0.  0.
    8880022    1    1    2    0    0 -0.11527211076E+03  0.28979083780E+03  0.30168525138E+03  0.46007829020E+03  0.15294330000E+03 0.  0.
<mgrwt>
<rscale>  0 0.60551997E+03</rscale>
<asrwt>0</asrwt>
<pdfrwt beam="1">  1        1 0.21216705E+00 0.72875002E+03</pdfrwt>
<pdfrwt beam="2">  1       -1 0.74310859E-01 0.72875002E+03</pdfrwt>
<totfact> 0.15034514E+01</totfact>
</mgrwt>
</event>
<event>
 4    1  0.1521315E-007  0.7570201E+03  0.7818608E-02  0.9812884E-01
          1   -1    0    0  501    0  0.00000000000E+00  0.00000000000E+00  0.64311471996E+03  0.64311471998E+03  0.50400000000E-02 0. -1.
         -1   -1    0    0    0  501 -0.00000000000E+00 -0.00000000000E+00 -0.10651419096E+04  0.10651419096E+04  0.50400000000E-02 0.  1.
    8880023    1    1    2    0    0 -0.34812264870E+03  0.13446127560E+03  0.35245983528E+03  0.83504931287E+03  0.65864270000E+03 0.  0.
    8880022    1    1    2    0    0  0.34812264870E+03 -0.13446127560E+03 -0.77448702494E+03  0.87320731673E+03  0.15294330000E+03 0.  0.
<mgrwt>
<rscale>  0 0.64675670E+03</rscale>
<asrwt>0</asrwt>
<pdfrwt beam="1">  1        1 0.98940726E-01 0.75702009E+03</pdfrwt>
<pdfrwt beam="2">  1       -1 0.16386799E+00 0.75702009E+03</pdfrwt>
<totfact> 0.87138971E+00</totfact>
</mgrwt>
</event>
<event>
 4    1  0.1521315E-007  0.6766363E+03  0.7818608E-02  0.1011294E+00
          1   -1    0    0  501    0  0.00000000000E+00  0.00000000000E+00  0.85473091613E+03  0.85473091614E+03  0.50400000000E-02 0. -1.
         -1   -1    0    0    0  501 -0.00000000000E+00 -0.00000000000E+00 -0.26864818977E+04  0.26864818977E+04  0.50400000000E-02 0.  1.
    8880023    1    1    2    0    0 -0.15019903008E+03 -0.38298650073E+02  0.71544108785E+03  0.98472975566E+03  0.65864270000E+03 0.  0.
    8880022    1    1    2    0    0  0.15019903008E+03  0.38298650073E+02 -0.25471920694E+04  0.25564830581E+04  0.15294330000E+03 0.  1.
<mgrwt>
<rscale>  0 0.50963543E+03</rscale>
<asrwt>0</asrwt>
<pdfrwt beam="1">  1        1 0.13149707E+00 0.67663634E+03</pdfrwt>
<pdfrwt beam="2">  1       -1 0.41330490E+00 0.67663634E+03</pdfrwt>
<totfact> 0.12682444E-01</totfact>
</mgrwt>
</event>
<event>
 4    1  0.1521315E-007  0.8433490E+03  0.7818608E-02  0.9623897E-01
         -1   -1    0    0    0  501 -0.00000000000E+00  0.00000000000E+00  0.98717622057E+03  0.98717622058E+03  0.50400000000E-02 0.  1.
          1   -1    0    0  501    0  0.00000000000E+00 -0.00000000000E+00 -0.12401589959E+04  0.12401589959E+04  0.50400000000E-02 0. -1.
    8880023    1    1    2    0    0 -0.28248928401E+02  0.52595564038E+03 -0.99518674101E+03  0.13044670151E+04  0.65864270000E+03 0. -1.
    8880022    1    1    2    0    0  0.28248928401E+02 -0.52595564038E+03  0.74220396566E+03  0.92286820146E+03  0.15294330000E+03 0.  0.
<mgrwt>
<rscale>  0 0.75734482E+03</rscale>
<asrwt>0</asrwt>
<pdfrwt beam="1">  1        1 0.19079369E+00 0.84334900E+03</pdfrwt>
<pdfrwt beam="2">  1       -1 0.15187327E+00 0.84334900E+03</pdfrwt>
<totfact> 0.34558010E+00</totfact>
</mgrwt>
</event>
<event>
 4    1  0.1521315E-007  0.1808124E+04  0.7818608E-02  0.8718056E-01
         -1   -1    0    0    0  501 -0.00000000000E+00  0.00000000000E+00  0.19485306115E+04  0.19485306115E+04  0.50400000000E-02 0.  1.
          1   -1    0    0  501    0  0.00000000000E+00 -0.00000000000E+00 -0.23186540634E+04  0.23186540634E+04  0.50400000000E-02 0. -1.
    8880023    1    1    2    0    0  0.46719387226E+03 -0.16177856614E+04 -0.14005595601E+04  0.22871112453E+04  0.65864270000E+03 0.  0.
    8880022    1    1    2    0    0 -0.46719387226E+03  0.16177856614E+04  0.10304361082E+04  0.19800734296E+04  0.15294330000E+03 0.  0.
<mgrwt>
<rscale>  0 0.17780575E+04</rscale>
<asrwt>0</asrwt>
<pdfrwt beam="1">  1        1 0.35671601E+00 0.18081235E+04</pdfrwt>
<pdfrwt beam="2">  1       -1 0.29977394E+00 0.18081235E+04</pdfrwt>
<totfact> 0.54350164E-02</totfact>
</mgrwt>
</event>
<event>
 4    1  0.1521315E-007  0.8991164E+03  0.7818608E-02  0.9527451E-01
         -1   -1    0    0    0  501 -0.00000000000E+00  0.00000000000E+00  0.67475169728E+03  0.67475169730E+03  0.50400000000E-02 0.  1.
          1   -1    0    0  501    0  0.00000000000E+00 -0.00000000000E+00 -0.93054674990E+03  0.93054674991E+03  0.50400000000E-02 0. -1.
    8880023    1    1    2    0    0 -0.73589729510E+02  0.60760573063E+03 -0.35503459601E+03  0.96667468303E+03  0.65864270000E+03 0.  0.
    8880022    1    1    2    0    0  0.73589729510E+02 -0.60760573063E+03  0.99239543396E+02  0.63862376418E+03  0.15294330000E+03 0.  0.
<mgrwt>
<rscale>  0 0.82289841E+03</rscale>
<asrwt>0</asrwt>
<pdfrwt beam="1">  1        1 0.14316104E+00 0.89911644E+03</pdfrwt>
<pdfrwt beam="2">  1       -1 0.10380795E+00 0.89911644E+03</pdfrwt>
<totfact> 0.15210353E+01</totfact>
</mgrwt>
</event>
<event>
 4    1  0.1521315E-007  0.6683107E+03  0.7818608E-02  0.1016904E+00
          1   -1    0    0  501    0  0.00000000000E+00  0.00000000000E+00  0.30346604174E+03  0.30346604178E+03  0.50400000000E-02 0. -1.
         -1   -1    0    0    0  501 -0.00000000000E+00 -0.00000000000E+00 -0.61832460457E+03  0.61832460459E+03  0.50400000000E-02 0.  1.
    8880023    1    1    2    0    0  0.79701619846E+02  0.80477392024E+02 -0.19230524542E+03  0.69542826554E+03  0.65864270000E+03 0. -1.
    8880022    1    1    2    0    0 -0.79701619846E+02 -0.80477392024E+02 -0.12255331742E+03  0.22636238084E+03  0.15294330000E+03 0. -1.
<mgrwt>
<rscale>  0 0.48820618E+03</rscale>
<asrwt>0</asrwt>
<pdfrwt beam="1">  1        1 0.46687083E-01 0.66831068E+03</pdfrwt>
<pdfrwt beam="2">  1       -1 0.95126862E-01 0.66831068E+03</pdfrwt>
<totfact> 0.94268622E+01</totfact>
</mgrwt>
</event>
<event>
 4    1  0.1521315E-007  0.7277843E+03  0.7818608E-02  0.9897076E-01
         -1   -1    0    0    0  501 -0.00000000000E+00  0.00000000000E+00  0.31882644484E+04  0.31882644484E+04  0.50400000000E-02 0.  1.
          1   -1    0    0  501    0  0.00000000000E+00 -0.00000000000E+00 -0.47491098678E+03  0.47491098680E+03  0.50400000000E-02 0. -1.
    8880023    1    1    2    0    0 -0.30583325503E+03 -0.48226351291E+02 -0.17965426463E+03  0.74963032349E+03  0.65864270000E+03 0. -1.
    8880022    1    1    2    0    0  0.30583325503E+03  0.48226351291E+02  0.28930077263E+04  0.29135451117E+04  0.15294330000E+03 0.  0.
<mgrwt>
<rscale>  0 0.60403200E+03</rscale>
<asrwt>0</asrwt>
<pdfrwt beam="1">  1        1 0.73063230E-01 0.72778429E+03</pdfrwt>
<pdfrwt beam="2">  1       -1 0.49050221E+00 0.72778429E+03</pdfrwt>
<totfact> 0.87996429E-02</totfact>
</mgrwt>
</event>
<event>
 4    1  0.1521315E-007  0.6904221E+03  0.7818608E-02  0.1003953E+00
         -1   -1    0    0    0  501 -0.00000000000E+00  0.00000000000E+00  0.50490732088E+03  0.50490732091E+03  0.50400000000E-02 0.  1.
          1   -1    0    0  501    0  0.00000000000E+00 -0.00000000000E+00 -0.18377404250E+04  0.18377404250E+04  0.50400000000E-02 0. -1.
    8880023    1    1    2    0    0  0.17219899917E+03 -0.11497822543E+03 -0.17337721209E+04  0.18661855377E+04  0.65864270000E+03 0. -1.
    8880022    1    1    2    0    0 -0.17219899917E+03  0.11497822543E+03  0.40093901680E+03  0.47646220820E+03  0.15294330000E+03 0.  0.
<mgrwt>
<rscale>  0 0.53950546E+03</rscale>
<asrwt>0</asrwt>
<pdfrwt beam="1">  1        1 0.28272929E+00 0.69042211E+03</pdfrwt>
<pdfrwt beam="2">  1       -1 0.77678050E-01 0.69042211E+03</pdfrwt>
<totfact> 0.67373386E+00</totfact>
</mgrwt>
</event>
<event>
 4    1  0.1521315E-007  0.6781540E+03  0.7818608E-02  0.1010388E+00
         -1   -1    0    0    0  501 -0.00000000000E+00  0.00000000000E+00  0.26661871950E+03  0.26661871955E+03  0.50400000000E-02 0.  1.
          1   -1    0    0  501    0  0.00000000000E+00 -0.00000000000E+00 -0.11165815537E+04  0.11165815537E+04  0.50400000000E-02 0. -1.
    8880023    1    1    2    0    0  0.16124814553E+03  0.90378806002E+01 -0.21658268549E+03  0.71189951091E+03  0.65864270000E+03 0.  0.
    8880022    1    1    2    0    0 -0.16124814553E+03 -0.90378806002E+01 -0.63338014873E+03  0.67130076236E+03  0.15294330000E+03 0.  0.
<mgrwt>
<rscale>  0 0.51320834E+03</rscale>
<asrwt>0</asrwt>
<pdfrwt beam="1">  1        1 0.17178177E+00 0.67815400E+03</pdfrwt>
<pdfrwt beam="2">  1       -1 0.41018265E-01 0.67815400E+03</pdfrwt>
<totfact> 0.73743967E+01</totfact>
</mgrwt>
</event>
<event>
 4    1  0.1521315E-007  0.7293669E+03  0.7818608E-02  0.9892079E-01
          1   -1    0    0  501    0  0.00000000000E+00  0.00000000000E+00  0.40045371646E+03  0.40045371649E+03  0.50400000000E-02 0. -1.
         -1   -1    0    0    0  501 -0.00000000000E+00 -0.00000000000E+00 -0.72861249011E+03  0.72861249013E+03  0.50400000000E-02 0.  1.
    8880023    1    1    2    0    0  0.60056109244E+02  0.30750465913E+03 -0.18726886600E+03  0.75302435956E+03  0.65864270000E+03 0.  0.
    8880022    1    1    2    0    0 -0.60056109244E+02 -0.30750465913E+03 -0.14088990765E+03  0.37604184706E+03  0.15294330000E+03 0. -1.
<mgrwt>
<rscale>  0 0.60646711E+03</rscale>
<asrwt>0</asrwt>
<pdfrwt beam="1">  1        1 0.61608264E-01 0.72936689E+03</pdfrwt>
<pdfrwt beam="2">  1       -1 0.11209423E+00 0.72936689E+03</pdfrwt>
<totfact> 0.44728170E+01</totfact>
</mgrwt>
</event>
<event>
 4    1  0.1945219E-007  0.8140662E+03  0.7818608E-02  0.9681169E-01
         -1   -1    0    0    0  501 -0.00000000000E+00  0.00000000000E+00  0.15001463699E+04  0.15001463699E+04  0.50400000000E-02 0.  1.
          1   -1    0    0  501    0  0.00000000000E+00 -0.00000000000E+00 -0.24748871572E+04  0.24748871572E+04  0.50400000000E-02 0. -1.
    8880023    1    1    2    0    0  0.47528090544E+03 -0.54786487746E+02 -0.23626869146E+04  0.24989984315E+04  0.65864270000E+03 0.  0.
    8880022    1    1    2    0    0 -0.47528090544E+03  0.54786487746E+02  0.13879461273E+04  0.14760350956E+04  0.15294330000E+03 0.  0.
<mgrwt>
<rscale>  0 0.72149153E+03</rscale>
<asrwt>0</asrwt>
<pdfrwt beam="1">  1        1 0.38075187E+00 0.81406615E+03</pdfrwt>
<pdfrwt beam="2">  1       -1 0.23079175E+00 0.81406615E+03</pdfrwt>
<totfact> 0.14007561E-01</totfact>
</mgrwt>
</event>
<event>
 4    1  0.1521315E-007  0.6832616E+03  0.7818608E-02  0.1007536E+00
         -1   -1    0    0    0  501 -0.00000000000E+00  0.00000000000E+00  0.45814770915E+03  0.45814770918E+03  0.50400000000E-02 0.  1.
          1   -1    0    0  501    0  0.00000000000E+00 -0.00000000000E+00 -0.11873392261E+04  0.11873392261E+04  0.50400000000E-02 0. -1.
    8880023    1    1    2    0    0 -0.16215450236E+03  0.82110756182E+02 -0.10460781463E+04  0.12494502604E+04  0.65864270000E+03 0. -1.
    8880022    1    1    2    0    0  0.16215450236E+03 -0.82110756182E+02  0.31688662937E+03  0.39603667482E+03  0.15294330000E+03 0.  0.
<mgrwt>
<rscale>  0 0.52465888E+03</rscale>
<asrwt>0</asrwt>
<pdfrwt beam="1">  1        1 0.18266757E+00 0.68326164E+03</pdfrwt>
<pdfrwt beam="2">  1       -1 0.70484263E-01 0.68326164E+03</pdfrwt>
<totfact> 0.23074596E+01</totfact>
</mgrwt>
</event>
<event>
 4    1  0.1521315E-007  0.7867624E+03  0.7818608E-02  0.9740185E-01
          1   -1    0    0  501    0  0.00000000000E+00  0.00000000000E+00  0.21507751290E+04  0.21507751290E+04  0.50400000000E-02 0. -1.
         -1   -1    0    0    0  501 -0.00000000000E+00 -0.00000000000E+00 -0.20972748387E+03  0.20972748393E+03  0.50400000000E-02 0.  1.
    8880023    1    1    2    0    0  0.38337855235E+03 -0.19546279250E+03  0.16239911927E+04  0.18045338506E+04  0.65864270000E+03 0.  1.
    8880022    1    1    2    0    0 -0.38337855235E+03  0.19546279250E+03  0.31705645239E+03  0.55596876232E+03  0.15294330000E+03 0.  0.
<mgrwt>
<rscale>  0 0.68673763E+03</rscale>
<asrwt>0</asrwt>
<pdfrwt beam="1">  1        1 0.33088848E+00 0.78676237E+03</pdfrwt>
<pdfrwt beam="2">  1       -1 0.32265767E-01 0.78676237E+03</pdfrwt>
<totfact> 0.21894063E+01</totfact>
</mgrwt>
</event>
<event>
 4    1  0.1521315E-007  0.7358714E+03  0.7818608E-02  0.9872141E-01
          1   -1    0    0  501    0  0.00000000000E+00  0.00000000000E+00  0.17414360147E+04  0.17414360148E+04  0.50400000000E-02 0. -1.
         -1   -1    0    0    0  501 -0.00000000000E+00 -0.00000000000E+00 -0.47708894468E+03  0.47708894470E+03  0.50400000000E-02 0.  1.
    8880023    1    1    2    0    0  0.19832938160E+03 -0.26146126928E+03  0.15769439205E+04  0.17401893212E+04  0.65864270000E+03 0.  0.
    8880022    1    1    2    0    0 -0.19832938160E+03  0.26146126928E+03 -0.31259685041E+03  0.47833563827E+03  0.15294330000E+03 0.  1.
<mgrwt>
<rscale>  0 0.61630671E+03</rscale>
<asrwt>0</asrwt>
<pdfrwt beam="1">  1        1 0.26791324E+00 0.73587142E+03</pdfrwt>
<pdfrwt beam="2">  1       -1 0.73398298E-01 0.73587142E+03</pdfrwt>
<totfact> 0.87285915E+00</totfact>
</mgrwt>
</event>
<event>
 4    1  0.1521315E-007  0.7860948E+03  0.7818608E-02  0.9741710E-01
         -1   -1    0    0    0  501 -0.00000000000E+00  0.00000000000E+00  0.84252262786E+03  0.84252262787E+03  0.50400000000E-02 0.  1.
          1   -1    0    0  501    0  0.00000000000E+00 -0.00000000000E+00 -0.53706994352E+03  0.53706994354E+03  0.50400000000E-02 0. -1.
    8880023    1    1    2    0    0  0.33989741560E+03  0.26192475443E+03 -0.70077013551E+02  0.78921215412E+03  0.65864270000E+03 0.  0.
    8880022    1    1    2    0    0 -0.33989741560E+03 -0.26192475443E+03  0.37552969789E+03  0.59038041730E+03  0.15294330000E+03 0.  0.
<mgrwt>
<rscale>  0 0.68586775E+03</rscale>
<asrwt>0</asrwt>
<pdfrwt beam="1">  1        1 0.82626146E-01 0.78609480E+03</pdfrwt>
<pdfrwt beam="2">  1       -1 0.12961886E+00 0.78609480E+03</pdfrwt>
<totfact> 0.20947423E+01</totfact>
</mgrwt>
</event>
<event>
 4    1  0.1521315E-007  0.7325422E+03  0.7818608E-02  0.9882229E-01
         -1   -1    0    0    0  501 -0.00000000000E+00  0.00000000000E+00  0.37765882615E+03  0.37765882618E+03  0.50400000000E-02 0.  1.
          1   -1    0    0  501    0  0.00000000000E+00 -0.00000000000E+00 -0.12906036182E+04  0.12906036182E+04  0.50400000000E-02 0. -1.
    8880023    1    1    2    0    0 -0.14795837200E+03  0.28445763486E+03 -0.10560743715E+04  0.12852669413E+04  0.65864270000E+03 0.  0.
    8880022    1    1    2    0    0  0.14795837200E+03 -0.28445763486E+03  0.14312957947E+03  0.38299550312E+03  0.15294330000E+03 0.  0.
<mgrwt>
<rscale>  0 0.61130320E+03</rscale>
<asrwt>0</asrwt>
<pdfrwt beam="1">  1        1 0.19855440E+00 0.73254217E+03</pdfrwt>
<pdfrwt beam="2">  1       -1 0.58101358E-01 0.73254217E+03</pdfrwt>
<totfact> 0.28460856E+01</totfact>
</mgrwt>
</event>
<event>
 4    1  0.1521315E-007  0.1091273E+04  0.7818608E-02  0.9270836E-01
         -1   -1    0    0    0  501 -0.00000000000E+00  0.00000000000E+00  0.13534343473E+04  0.13534343473E+04  0.50400000000E-02 0.  1.
          1   -1    0    0  501    0  0.00000000000E+00 -0.00000000000E+00 -0.88571698282E+03  0.88571698283E+03  0.50400000000E-02 0. -1.
    8880023    1    1    2    0    0  0.56873369694E+03  0.65848912293E+03 -0.22778597691E+03  0.11147926267E+04  0.65864270000E+03 0. -1.
    8880022    1    1    2    0    0 -0.56873369694E+03 -0.65848912293E+03  0.69550334139E+03  0.11243587034E+04  0.15294330000E+03 0.  0.
<mgrwt>
<rscale>  0 0.10351270E+04</rscale>
<asrwt>0</asrwt>
<pdfrwt beam="1">  1        1 0.13626415E+00 0.10912727E+04</pdfrwt>
<pdfrwt beam="2">  1       -1 0.20822067E+00 0.10912727E+04</pdfrwt>
<totfact> 0.24557938E+00</totfact>
</mgrwt>
</event>
<event>
 4    1  0.1521315E-007  0.1098748E+04  0.7818608E-02  0.9262452E-01
         -1   -1    0    0    0  501 -0.00000000000E+00  0.00000000000E+00  0.18063121861E+04  0.18063121861E+04  0.50400000000E-02 0.  1.
          1   -1    0    0  501    0  0.00000000000E+00 -0.00000000000E+00 -0.10619673880E+04  0.10619673880E+04  0.50400000000E-02 0. -1.
    8880023    1    1    2    0    0 -0.18047958446E+03  0.86073423397E+03 -0.60202780139E+03  0.12528702973E+04  0.65864270000E+03 0.  0.
    8880022    1    1    2    0    0  0.18047958446E+03 -0.86073423397E+03  0.13463725995E+04  0.16154092768E+04  0.15294330000E+03 0.  0.
<mgrwt>
<rscale>  0 0.10431435E+04</rscale>
<asrwt>0</asrwt>
<pdfrwt beam="1">  1        1 0.16337960E+00 0.10987477E+04</pdfrwt>
<pdfrwt beam="2">  1       -1 0.27789418E+00 0.10987477E+04</pdfrwt>
<totfact> 0.62036450E-01</totfact>
</mgrwt>
</event>
<event>
 4    1  0.1521315E-007  0.7004993E+03  0.7818608E-02  0.9995136E-01
         -1   -1    0    0    0  501 -0.00000000000E+00  0.00000000000E+00  0.17975608635E+03  0.17975608642E+03  0.50400000000E-02 0.  1.
          1   -1    0    0  501    0  0.00000000000E+00 -0.00000000000E+00 -0.15522898805E+04  0.15522898805E+04  0.50400000000E-02 0. -1.
    8880023    1    1    2    0    0 -0.48047618556E+02 -0.23362467808E+03 -0.12285411541E+04  0.14142180304E+04  0.65864270000E+03 0.  0.
    8880022    1    1    2    0    0  0.48047618556E+02  0.23362467808E+03 -0.14399264007E+03  0.31782793657E+03  0.15294330000E+03 0.  0.
<mgrwt>
<rscale>  0 0.55864020E+03</rscale>
<asrwt>0</asrwt>
<pdfrwt beam="1">  1        1 0.23881382E+00 0.70049930E+03</pdfrwt>
<pdfrwt beam="2">  1       -1 0.27654784E-01 0.70049930E+03</pdfrwt>
<totfact> 0.72977879E+01</totfact>
</mgrwt>
</event>
<event>
 4    1  0.1521315E-007  0.7184450E+03  0.7818608E-02  0.9927883E-01
         -1   -1    0    0    0  501 -0.00000000000E+00  0.00000000000E+00  0.65890569727E+03  0.65890569729E+03  0.50400000000E-02 0.  1.
          1   -1    0    0  501    0  0.00000000000E+00 -0.00000000000E+00 -0.14961516497E+04  0.14961516498E+04  0.50400000000E-02 0. -1.
    8880023    1    1    2    0    0 -0.57055352389E+01 -0.28691551863E+03 -0.13607558964E+04  0.15387722001E+04  0.65864270000E+03 0. -1.
    8880022    1    1    2    0    0  0.57055352389E+01  0.28691551863E+03  0.52350994391E+03  0.61628514696E+03  0.15294330000E+03 0.  0.
<mgrwt>
<rscale>  0 0.58928787E+03</rscale>
<asrwt>0</asrwt>
<pdfrwt beam="1">  1        1 0.23017718E+00 0.71844504E+03</pdfrwt>
<pdfrwt beam="2">  1       -1 0.10137011E+00 0.71844504E+03</pdfrwt>
<totfact> 0.63601549E+00</totfact>
</mgrwt>
</event>
<event>
 4    1  0.1521315E-007  0.7893453E+03  0.7818608E-02  0.9734326E-01
          1   -1    0    0  501    0  0.00000000000E+00  0.00000000000E+00  0.21112122611E+04  0.21112122611E+04  0.50400000000E-02 0. -1.
         -1   -1    0    0    0  501 -0.00000000000E+00 -0.00000000000E+00 -0.52303368256E+03  0.52303368259E+03  0.50400000000E-02 0.  1.
    8880023    1    1    2    0    0 -0.42316676914E+03  0.10092419110E+03  0.19134928480E+04  0.20699084261E+04  0.65864270000E+03 0. -1.
    8880022    1    1    2    0    0  0.42316676914E+03 -0.10092419110E+03 -0.32531426945E+03  0.56433751760E+03  0.15294330000E+03 0.  0.
<mgrwt>
<rscale>  0 0.69009328E+03</rscale>
<asrwt>0</asrwt>
<pdfrwt beam="1">  1        1 0.32480189E+00 0.78934531E+03</pdfrwt>
<pdfrwt beam="2">  1       -1 0.80466719E-01 0.78934531E+03</pdfrwt>
<totfact> 0.40340687E+00</totfact>
</mgrwt>
</event>
<event>
 4    1  0.1521315E-007  0.6985876E+03  0.7818608E-02  0.1000311E+00
         -1   -1    0    0    0  501 -0.00000000000E+00  0.00000000000E+00  0.12901116519E+04  0.12901116519E+04  0.50400000000E-02 0.  1.
          1   -1    0    0  501    0  0.00000000000E+00 -0.00000000000E+00 -0.19512297984E+03  0.19512297990E+03  0.50400000000E-02 0. -1.
    8880023    1    1    2    0    0 -0.20755944823E+03 -0.10551516193E+03  0.92401734017E+03  0.11583749933E+04  0.65864270000E+03 0.  1.
    8880022    1    1    2    0    0  0.20755944823E+03  0.10551516193E+03  0.17097133192E+03  0.32685963853E+03  0.15294330000E+03 0. -1.
<mgrwt>
<rscale>  0 0.55514006E+03</rscale>
<asrwt>0</asrwt>
<pdfrwt beam="1">  1        1 0.30018919E-01 0.69858756E+03</pdfrwt>
<pdfrwt beam="2">  1       -1 0.19847872E+00 0.69858756E+03</pdfrwt>
<totfact> 0.24409488E+01</totfact>
</mgrwt>
</event>
<event>
 4    1  0.1521315E-007  0.8238030E+03  0.7818608E-02  0.9661512E-01
         -1   -1    0    0    0  501 -0.00000000000E+00  0.00000000000E+00  0.11438460788E+04  0.11438460788E+04  0.50400000000E-02 0.  1.
          1   -1    0    0  501    0  0.00000000000E+00 -0.00000000000E+00 -0.71893046402E+03  0.71893046404E+03  0.50400000000E-02 0. -1.
    8880023    1    1    2    0    0  0.43759890363E+03 -0.23097266136E+03 -0.37873884832E+03  0.90669426614E+03  0.65864270000E+03 0. -1.
    8880022    1    1    2    0    0 -0.43759890363E+03  0.23097266136E+03  0.80365446309E+03  0.95608227670E+03  0.15294330000E+03 0.  0.
<mgrwt>
<rscale>  0 0.73355303E+03</rscale>
<asrwt>0</asrwt>
<pdfrwt beam="1">  1        1 0.11060469E+00 0.82380300E+03</pdfrwt>
<pdfrwt beam="2">  1       -1 0.17597632E+00 0.82380300E+03</pdfrwt>
<totfact> 0.59592171E+00</totfact>
</mgrwt>
</event>
<event>
 4    1  0.1521315E-007  0.7418652E+03  0.7818608E-02  0.9854547E-01
          1   -1    0    0  501    0  0.00000000000E+00  0.00000000000E+00  0.68324900497E+03  0.68324900499E+03  0.50400000000E-02 0. -1.
         -1   -1    0    0    0  501 -0.00000000000E+00 -0.00000000000E+00 -0.52408163482E+03  0.52408163485E+03  0.50400000000E-02 0.  1.
    8880023    1    1    2    0    0  0.67898932587E+02 -0.33457963003E+03  0.30992751411E+03  0.80400190556E+03  0.65864270000E+03 0.  0.
    8880022    1    1    2    0    0 -0.67898932587E+02  0.33457963003E+03 -0.15076014396E+03  0.40332873428E+03  0.15294330000E+03 0. -1.
<mgrwt>
<rscale>  0 0.62515629E+03</rscale>
<asrwt>0</asrwt>
<pdfrwt beam="1">  1        1 0.10511523E+00 0.74186522E+03</pdfrwt>
<pdfrwt beam="2">  1       -1 0.80627944E-01 0.74186522E+03</pdfrwt>
<totfact> 0.44383373E+01</totfact>
</mgrwt>
</event>
<event>
 4    1  0.1521315E-007  0.9942278E+03  0.7818608E-02  0.9389149E-01
          1   -1    0    0  501    0  0.00000000000E+00  0.00000000000E+00  0.23834982585E+04  0.23834982585E+04  0.50400000000E-02 0. -1.
         -1   -1    0    0    0  501 -0.00000000000E+00 -0.00000000000E+00 -0.61578354809E+03  0.61578354811E+03  0.50400000000E-02 0.  1.
    8880023    1    1    2    0    0  0.32812262153E+03 -0.66859124891E+03  0.19750764215E+04  0.22112023404E+04  0.65864270000E+03 0.  0.
    8880022    1    1    2    0    0 -0.32812262153E+03  0.66859124891E+03 -0.20736171111E+03  0.78807946625E+03  0.15294330000E+03 0.  0.
<mgrwt>
<rscale>  0 0.92974107E+03</rscale>
<asrwt>0</asrwt>
<pdfrwt beam="1">  1        1 0.36669204E+00 0.99422780E+03</pdfrwt>
<pdfrwt beam="2">  1       -1 0.94735930E-01 0.99422780E+03</pdfrwt>
<totfact> 0.17882550E+00</totfact>
</mgrwt>
</event>
<event>
 4    1  0.1521315E-007  0.1211110E+04  0.7818608E-02  0.9146397E-01
         -1   -1    0    0    0  501 -0.00000000000E+00  0.00000000000E+00  0.84250943194E+03  0.84250943195E+03  0.50400000000E-02 0.  1.
          1   -1    0    0  501    0  0.00000000000E+00 -0.00000000000E+00 -0.16413632139E+04  0.16413632139E+04  0.50400000000E-02 0. -1.
    8880023    1    1    2    0    0  0.10163483438E+04  0.37767916048E+01 -0.80823185742E+03  0.14560313052E+04  0.65864270000E+03 0.  0.
    8880022    1    1    2    0    0 -0.10163483438E+04 -0.37767916048E+01  0.93780754758E+01  0.10278413406E+04  0.15294330000E+03 0.  0.
<mgrwt>
<rscale>  0 0.11624246E+04</rscale>
<asrwt>0</asrwt>
<pdfrwt beam="1">  1        1 0.25251742E+00 0.12111104E+04</pdfrwt>
<pdfrwt beam="2">  1       -1 0.12961684E+00 0.12111104E+04</pdfrwt>
<totfact> 0.26205433E+00</totfact>
</mgrwt>
</event>
<event>
 4    1  0.1521315E-007  0.8717992E+03  0.7818608E-02  0.9572910E-01
         -1   -1    0    0    0  501 -0.00000000000E+00  0.00000000000E+00  0.13819791067E+04  0.13819791067E+04  0.50400000000E-02 0.  1.
          1   -1    0    0  501    0  0.00000000000E+00 -0.00000000000E+00 -0.40386569799E+03  0.40386569802E+03  0.50400000000E-02 0. -1.
    8880023    1    1    2    0    0 -0.98422007708E+02  0.56261601978E+03  0.40099371255E+03  0.95959879172E+03  0.65864270000E+03 0.  0.
    8880022    1    1    2    0    0  0.98422007708E+02 -0.56261601978E+03  0.57711969619E+03  0.82624601304E+03  0.15294330000E+03 0.  0.
<mgrwt>
<rscale>  0 0.79115425E+03</rscale>
<asrwt>0</asrwt>
<pdfrwt beam="1">  1        1 0.62133183E-01 0.87179922E+03</pdfrwt>
<pdfrwt beam="2">  1       -1 0.21261217E+00 0.87179922E+03</pdfrwt>
<totfact> 0.74485224E+00</totfact>
</mgrwt>
</event>
<event>
 4    1  0.1521315E-007  0.6743699E+03  0.7818608E-02  0.1012706E+00
          1   -1    0    0  501    0  0.00000000000E+00  0.00000000000E+00  0.35536987783E+04  0.35536987783E+04  0.50400000000E-02 0. -1.
         -1   -1    0    0    0  501 -0.00000000000E+00 -0.00000000000E+00 -0.25362272764E+03  0.25362272769E+03  0.50400000000E-02 0.  1.
    8880023    1    1    2    0    0  0.28097993039E+02  0.14203870194E+03  0.34711102412E+04  0.35360120196E+04  0.65864270000E+03 0. -1.
    8880022    1    1    2    0    0 -0.28097993039E+02 -0.14203870194E+03 -0.17103419053E+03  0.27130948639E+03  0.15294330000E+03 0.  0.
<mgrwt>
<rscale>  0 0.50413034E+03</rscale>
<asrwt>0</asrwt>
<pdfrwt beam="1">  1        1 0.54672283E+00 0.67436985E+03</pdfrwt>
<pdfrwt beam="2">  1       -1 0.39018885E-01 0.67436985E+03</pdfrwt>
<totfact> 0.16005790E+00</totfact>
</mgrwt>
</event>
<event>
 4    1  0.1521315E-007  0.6681661E+03  0.7818608E-02  0.1017013E+00
          1   -1    0    0  501    0  0.00000000000E+00  0.00000000000E+00  0.10227551225E+04  0.10227551225E+04  0.50400000000E-02 0. -1.
         -1   -1    0    0    0  501 -0.00000000000E+00 -0.00000000000E+00 -0.21644015899E+03  0.21644015904E+03  0.50400000000E-02 0.  1.
    8880023    1    1    2    0    0 -0.53356646150E+02 -0.98938420284E+02  0.80914866591E+03  0.10493652903E+04  0.65864270000E+03 0.  0.
    8880022    1    1    2    0    0  0.53356646150E+02  0.98938420284E+02 -0.28337023861E+01  0.18982999126E+03  0.15294330000E+03 0. -1.
<mgrwt>
<rscale>  0 0.48780072E+03</rscale>
<asrwt>0</asrwt>
<pdfrwt beam="1">  1        1 0.15734694E+00 0.66816611E+03</pdfrwt>
<pdfrwt beam="2">  1       -1 0.33298487E-01 0.66816611E+03</pdfrwt>
<totfact> 0.12619390E+02</totfact>
</mgrwt>
</event>
<event>
 4    1  0.1521315E-007  0.9318530E+03  0.7818608E-02  0.9476719E-01
          1   -1    0    0  501    0  0.00000000000E+00  0.00000000000E+00  0.11168355876E+04  0.11168355876E+04  0.50400000000E-02 0. -1.
         -1   -1    0    0    0  501 -0.00000000000E+00 -0.00000000000E+00 -0.12164852442E+04  0.12164852442E+04  0.50400000000E-02 0.  1.
    8880023    1    1    2    0    0  0.50302413563E+03  0.42603571928E+03  0.78576158612E+03  0.12189221434E+04  0.65864270000E+03 0. -1.
    8880022    1    1    2    0    0 -0.50302413563E+03 -0.42603571928E+03 -0.88541124265E+03  0.11143986884E+04  0.15294330000E+03 0.  0.
<mgrwt>
<rscale>  0 0.86022208E+03</rscale>
<asrwt>0</asrwt>
<pdfrwt beam="1">  1        1 0.17182086E+00 0.93185295E+03</pdfrwt>
<pdfrwt beam="2">  1       -1 0.18715158E+00 0.93185295E+03</pdfrwt>
<totfact> 0.23094353E+00</totfact>
</mgrwt>
</event>
<event>
 4    1  0.1521315E-007  0.8295473E+03  0.7818608E-02  0.9650214E-01
         -1   -1    0    0    0  501 -0.00000000000E+00  0.00000000000E+00  0.25557384541E+03  0.25557384545E+03  0.50400000000E-02 0.  1.
          1   -1    0    0  501    0  0.00000000000E+00 -0.00000000000E+00 -0.33269672485E+04  0.33269672486E+04  0.50400000000E-02 0. -1.
    8880023    1    1    2    0    0 -0.50405600951E+03  0.16310443128E+02 -0.29180675846E+04  0.30336886995E+04  0.65864270000E+03 0. -1.
    8880022    1    1    2    0    0  0.50405600951E+03 -0.16310443128E+02 -0.15332581859E+03  0.54885239449E+03  0.15294330000E+03 0.  0.
<mgrwt>
<rscale>  0 0.74060005E+03</rscale>
<asrwt>0</asrwt>
<pdfrwt beam="1">  1        1 0.51184108E+00 0.82954728E+03</pdfrwt>
<pdfrwt beam="2">  1       -1 0.39319056E-01 0.82954728E+03</pdfrwt>
<totfact> 0.22780130E+00</totfact>
</mgrwt>
</event>
<event>
 4    1  0.1521315E-007  0.1970752E+04  0.7818608E-02  0.8633535E-01
         -1   -1    0    0    0  501 -0.00000000000E+00  0.00000000000E+00  0.22055482265E+04  0.22055482265E+04  0.50400000000E-02 0.  1.
          1   -1    0    0  501    0  0.00000000000E+00 -0.00000000000E+00 -0.22652027436E+04  0.22652027436E+04  0.50400000000E-02 0. -1.
    8880023    1    1    2    0    0 -0.78803553178E+02 -0.18557597974E+04 -0.11792221089E+04  0.22966125956E+04  0.65864270000E+03 0.  0.
    8880022    1    1    2    0    0  0.78803553178E+02  0.18557597974E+04  0.11195675918E+04  0.21741383745E+04  0.15294330000E+03 0.  0.
<mgrwt>
<rscale>  0 0.19434309E+04</rscale>
<asrwt>0</asrwt>
<pdfrwt beam="1">  1        1 0.34849273E+00 0.19707523E+04</pdfrwt>
<pdfrwt beam="2">  1       -1 0.33931511E+00 0.19707523E+04</pdfrwt>
<totfact> 0.32008323E-02</totfact>
</mgrwt>
</event>
<event>
 4    1  0.1521315E-007  0.7834177E+03  0.7818608E-02  0.9747869E-01
         -1   -1    0    0    0  501 -0.00000000000E+00  0.00000000000E+00  0.40456098554E+03  0.40456098557E+03  0.50400000000E-02 0.  1.
          1   -1    0    0  501    0  0.00000000000E+00 -0.00000000000E+00 -0.16003485742E+04  0.16003485742E+04  0.50400000000E-02 0. -1.
    8880023    1    1    2    0    0 -0.16263764308E+03 -0.39176796387E+03 -0.13219733277E+04  0.15366706953E+04  0.65864270000E+03 0.  0.
    8880022    1    1    2    0    0  0.16263764308E+03  0.39176796387E+03  0.12618573902E+03  0.46823886447E+03  0.15294330000E+03 0.  0.
<mgrwt>
<rscale>  0 0.68236830E+03</rscale>
<asrwt>0</asrwt>
<pdfrwt beam="1">  1        1 0.24620747E+00 0.78341773E+03</pdfrwt>
<pdfrwt beam="2">  1       -1 0.62240153E-01 0.78341773E+03</pdfrwt>
<totfact> 0.15081422E+01</totfact>
</mgrwt>
</event>
<event>
 4    1  0.1521315E-007  0.6621647E+03  0.7818608E-02  0.1022041E+00
          1   -1    0    0  501    0  0.00000000000E+00  0.00000000000E+00  0.13369104134E+04  0.13369104134E+04  0.50400000000E-02 0. -1.
         -1   -1    0    0    0  501 -0.00000000000E+00 -0.00000000000E+00 -0.14000901361E+03  0.14000901371E+03  0.50400000000E-02 0.  1.
    8880023    1    1    2    0    0 -0.60361394351E+02  0.31754822678E+02  0.10986345373E+04  0.12827548166E+04  0.65864270000E+03 0. -1.
    8880022    1    1    2    0    0  0.60361394351E+02 -0.31754822678E+02  0.98266862439E+02  0.19416461047E+03  0.15294330000E+03 0.  0.
<mgrwt>
<rscale>  0 0.46957350E+03</rscale>
<asrwt>0</asrwt>
<pdfrwt beam="1">  1        1 0.20567854E+00 0.66216469E+03</pdfrwt>
<pdfrwt beam="2">  1       -1 0.21539847E-01 0.66216469E+03</pdfrwt>
<totfact> 0.15753478E+02</totfact>
</mgrwt>
</event>
<event>
 4    1  0.1521315E-007  0.8096296E+03  0.7818608E-02  0.9690349E-01
          1   -1    0    0  501    0  0.00000000000E+00  0.00000000000E+00  0.16082071500E+04  0.16082071500E+04  0.50400000000E-02 0. -1.
         -1   -1    0    0    0  501 -0.00000000000E+00 -0.00000000000E+00 -0.30430477324E+03  0.30430477328E+03  0.50400000000E-02 0.  1.
    8880023    1    1    2    0    0 -0.13266220830E+03 -0.45176387492E+03  0.45212157538E+03  0.92731547242E+03  0.65864270000E+03 0.  1.
    8880022    1    1    2    0    0  0.13266220830E+03  0.45176387492E+03  0.85178080139E+03  0.98519645088E+03  0.15294330000E+03 0.  0.
<mgrwt>
<rscale>  0 0.71594325E+03</rscale>
<asrwt>0</asrwt>
<pdfrwt beam="1">  1        1 0.24741648E+00 0.80962959E+03</pdfrwt>
<pdfrwt beam="2">  1       -1 0.46816119E-01 0.80962959E+03</pdfrwt>
<totfact> 0.25711817E+01</totfact>
</mgrwt>
</event>
<event>
 4    1  0.1521315E-007  0.8179589E+03  0.7818608E-02  0.9673231E-01
          1   -1    0    0  501    0  0.00000000000E+00  0.00000000000E+00  0.64563666408E+03  0.64563666410E+03  0.50400000000E-02 0. -1.
         -1   -1    0    0    0  501 -0.00000000000E+00 -0.00000000000E+00 -0.24910033372E+04  0.24910033372E+04  0.50400000000E-02 0.  1.
    8880023    1    1    2    0    0  0.46885689671E+03  0.12417619795E+03  0.34519714521E+03  0.88781630592E+03  0.65864270000E+03 0. -1.
    8880022    1    1    2    0    0 -0.46885689671E+03 -0.12417619795E+03 -0.21905638183E+04  0.22488236953E+04  0.15294330000E+03 0.  0.
<mgrwt>
<rscale>  0 0.72633200E+03</rscale>
<asrwt>0</asrwt>
<pdfrwt beam="1">  1        1 0.99328719E-01 0.81795888E+03</pdfrwt>
<pdfrwt beam="2">  1       -1 0.38323128E+00 0.81795888E+03</pdfrwt>
<totfact> 0.30290136E-01</totfact>
</mgrwt>
</event>
<event>
 4    1  0.1521315E-007  0.7106446E+03  0.7818608E-02  0.9955615E-01
          1   -1    0    0  501    0  0.00000000000E+00  0.00000000000E+00  0.31900825193E+04  0.31900825193E+04  0.50400000000E-02 0. -1.
         -1   -1    0    0    0  501 -0.00000000000E+00 -0.00000000000E+00 -0.10057062500E+03  0.10057062513E+03  0.50400000000E-02 0.  1.
    8880023    1    1    2    0    0 -0.64674704863E+02 -0.25888753882E+03  0.27127755715E+04  0.28043122299E+04  0.65864270000E+03 0. -1.
    8880022    1    1    2    0    0  0.64674704863E+02  0.25888753882E+03  0.37673632278E+03  0.48634091451E+03  0.15294330000E+03 0.  0.
<mgrwt>
<rscale>  0 0.57640025E+03</rscale>
<asrwt>0</asrwt>
<pdfrwt beam="1">  1        1 0.49078197E+00 0.71064462E+03</pdfrwt>
<pdfrwt beam="2">  1       -1 0.15472403E-01 0.71064462E+03</pdfrwt>
<totfact> 0.14491129E+01</totfact>
</mgrwt>
</event>
<event>
 4    1  0.1521315E-007  0.6629900E+03  0.7818608E-02  0.1021283E+00
         -1   -1    0    0    0  501 -0.00000000000E+00  0.00000000000E+00  0.29068118241E+03  0.29068118245E+03  0.50400000000E-02 0.  1.
          1   -1    0    0  501    0  0.00000000000E+00 -0.00000000000E+00 -0.90461553020E+03  0.90461553021E+03  0.50400000000E-02 0. -1.
    8880023    1    1    2    0    0 -0.12097636522E+02  0.74827785966E+02 -0.73210248306E+03  0.98768912231E+03  0.65864270000E+03 0. -1.
    8880022    1    1    2    0    0  0.12097636522E+02 -0.74827785966E+02  0.11816813528E+03  0.20760759035E+03  0.15294330000E+03 0.  0.
<mgrwt>
<rscale>  0 0.47226550E+03</rscale>
<asrwt>0</asrwt>
<pdfrwt beam="1">  1        1 0.13917162E+00 0.66299001E+03</pdfrwt>
<pdfrwt beam="2">  1       -1 0.44720182E-01 0.66299001E+03</pdfrwt>
<totfact> 0.91803205E+01</totfact>
</mgrwt>
</event>
<event>
 4    1  0.1521315E-007  0.7455972E+03  0.7818608E-02  0.9843933E-01
         -1   -1    0    0    0  501 -0.00000000000E+00  0.00000000000E+00  0.28523525469E+03  0.28523525473E+03  0.50400000000E-02 0.  1.
          1   -1    0    0  501    0  0.00000000000E+00 -0.00000000000E+00 -0.14187195792E+04  0.14187195792E+04  0.50400000000E-02 0. -1.
    8880023    1    1    2    0    0 -0.25178410591E+03  0.24230078067E+03 -0.10892017670E+04  0.13199528779E+04  0.65864270000E+03 0. -1.
    8880022    1    1    2    0    0  0.25178410591E+03 -0.24230078067E+03 -0.44282557431E+02  0.38400195600E+03  0.15294330000E+03 0.  0.
<mgrwt>
<rscale>  0 0.63057213E+03</rscale>
<asrwt>0</asrwt>
<pdfrwt beam="1">  1        1 0.21826455E+00 0.74559715E+03</pdfrwt>
<pdfrwt beam="2">  1       -1 0.43882348E-01 0.74559715E+03</pdfrwt>
<totfact> 0.39391598E+01</totfact>
</mgrwt>
</event>
<event>
 4    1  0.1521315E-007  0.9540286E+03  0.7818608E-02  0.9444341E-01
          1   -1    0    0  501    0  0.00000000000E+00  0.00000000000E+00  0.21960051513E+04  0.21960051513E+04  0.50400000000E-02 0. -1.
         -1   -1    0    0    0  501 -0.00000000000E+00 -0.00000000000E+00 -0.47971250297E+03  0.47971250299E+03  0.50400000000E-02 0.  1.
    8880023    1    1    2    0    0 -0.98062187967E+02  0.68318677704E+03  0.17221651099E+04  0.19687618538E+04  0.65864270000E+03 0. -1.
    8880022    1    1    2    0    0  0.98062187967E+02 -0.68318677704E+03 -0.58724615538E+01  0.70695580049E+03  0.15294330000E+03 0.  0.
<mgrwt>
<rscale>  0 0.88514693E+03</rscale>
<asrwt>0</asrwt>
<pdfrwt beam="1">  1        1 0.33784695E+00 0.95402860E+03</pdfrwt>
<pdfrwt beam="2">  1       -1 0.73801922E-01 0.95402860E+03</pdfrwt>
<totfact> 0.41369785E+00</totfact>
</mgrwt>
</event>
<event>
 4    1  0.1521315E-007  0.6723653E+03  0.7818608E-02  0.1014021E+00
          1   -1    0    0  501    0  0.00000000000E+00  0.00000000000E+00  0.35040588219E+04  0.35040588219E+04  0.50400000000E-02 0. -1.
         -1   -1    0    0    0  501 -0.00000000000E+00 -0.00000000000E+00 -0.69233711725E+02  0.69233711909E+02  0.50400000000E-02 0.  1.
    8880023    1    1    2    0    0  0.38320283445E+02  0.12960119142E+03  0.31613064339E+04  0.32320169381E+04  0.65864270000E+03 0. -1.
    8880022    1    1    2    0    0 -0.38320283445E+02 -0.12960119142E+03  0.27351867630E+03  0.34127559573E+03  0.15294330000E+03 0.  0.
<mgrwt>
<rscale>  0 0.49907339E+03</rscale>
<asrwt>0</asrwt>
<pdfrwt beam="1">  1        1 0.53908591E+00 0.67236532E+03</pdfrwt>
<pdfrwt beam="2">  1       -1 0.10651342E-01 0.67236532E+03</pdfrwt>
<totfact> 0.15427084E+01</totfact>
</mgrwt>
</event>
<event>
 4    1  0.1521315E-007  0.6943013E+03  0.7818608E-02  0.1002172E+00
          1   -1    0    0  501    0  0.00000000000E+00  0.00000000000E+00  0.18117810179E+04  0.18117810179E+04  0.50400000000E-02 0. -1.
         -1   -1    0    0    0  501 -0.00000000000E+00 -0.00000000000E+00 -0.45503825096E+03  0.45503825098E+03  0.50400000000E-02 0.  1.
    8880023    1    1    2    0    0  0.10837568892E+03  0.19104659110E+03  0.16972168707E+04  0.18337391860E+04  0.65864270000E+03 0. -1.
    8880022    1    1    2    0    0 -0.10837568892E+03 -0.19104659110E+03 -0.34047410370E+03  0.43308008292E+03  0.15294330000E+03 0.  0.
<mgrwt>
<rscale>  0 0.54708172E+03</rscale>
<asrwt>0</asrwt>
<pdfrwt beam="1">  1        1 0.27873555E+00 0.69430130E+03</pdfrwt>
<pdfrwt beam="2">  1       -1 0.70005883E-01 0.69430130E+03</pdfrwt>
<totfact> 0.86918604E+00</totfact>
</mgrwt>
</event>
<event>
 4    1  0.1521315E-007  0.8399052E+03  0.7818608E-02  0.9630359E-01
          1   -1    0    0  501    0  0.00000000000E+00  0.00000000000E+00  0.84732580889E+03  0.84732580891E+03  0.50400000000E-02 0. -1.
         -1   -1    0    0    0  501 -0.00000000000E+00 -0.00000000000E+00 -0.56445358244E+03  0.56445358247E+03  0.50400000000E-02 0.  1.
    8880023    1    1    2    0    0 -0.51376370062E+03  0.87620608793E+02  0.16411057608E+03  0.85578794021E+03  0.65864270000E+03 0.  1.
    8880022    1    1    2    0    0  0.51376370062E+03 -0.87620608793E+02  0.11876165037E+03  0.55599145117E+03  0.15294330000E+03 0. -1.
<mgrwt>
<rscale>  0 0.75318997E+03</rscale>
<asrwt>0</asrwt>
<pdfrwt beam="1">  1        1 0.13035782E+00 0.83990518E+03</pdfrwt>
<pdfrwt beam="2">  1       -1 0.86839014E-01 0.83990518E+03</pdfrwt>
<totfact> 0.26752374E+01</totfact>
</mgrwt>
</event>
<event>
 4    1  0.1521315E-007  0.7179270E+03  0.7818608E-02  0.9929664E-01
         -1   -1    0    0    0  501 -0.00000000000E+00  0.00000000000E+00  0.26925497588E+03  0.26925497592E+03  0.50400000000E-02 0.  1.
          1   -1    0    0  501    0  0.00000000000E+00 -0.00000000000E+00 -0.11778059650E+04  0.11778059651E+04  0.50400000000E-02 0. -1.
    8880023    1    1    2    0    0 -0.28454907779E+03  0.25314934649E+02 -0.85858929837E+03  0.11191938229E+04  0.65864270000E+03 0.  0.
    8880022    1    1    2    0    0  0.28454907779E+03 -0.25314934649E+02 -0.49961690804E+02  0.32786711813E+03  0.15294330000E+03 0.  0.
<mgrwt>
<rscale>  0 0.58844956E+03</rscale>
<asrwt>0</asrwt>
<pdfrwt beam="1">  1        1 0.18120091E+00 0.71792704E+03</pdfrwt>
<pdfrwt beam="2">  1       -1 0.41423843E-01 0.71792704E+03</pdfrwt>
<totfact> 0.65052805E+01</totfact>
</mgrwt>
</event>
<event>
 4    1  0.1521315E-007  0.9212409E+03  0.7818608E-02  0.9492759E-01
          1   -1    0    0  501    0  0.00000000000E+00  0.00000000000E+00  0.73424184524E+03  0.73424184526E+03  0.50400000000E-02 0. -1.
         -1   -1    0    0    0  501 -0.00000000000E+00 -0.00000000000E+00 -0.90947685871E+03  0.90947685872E+03  0.50400000000E-02 0.  1.
    8880023    1    1    2    0    0  0.86898895322E+02  0.63821880724E+03 -0.30239152037E+03  0.96960069192E+03  0.65864270000E+03 0.  0.
    8880022    1    1    2    0    0 -0.86898895322E+02 -0.63821880724E+03  0.12715650691E+03  0.67411801206E+03  0.15294330000E+03 0.  0.
<mgrwt>
<rscale>  0 0.84819788E+03</rscale>
<asrwt>0</asrwt>
<pdfrwt beam="1">  1        1 0.11296028E+00 0.92124094E+03</pdfrwt>
<pdfrwt beam="2">  1       -1 0.13991952E+00 0.92124094E+03</pdfrwt>
<totfact> 0.10735506E+01</totfact>
</mgrwt>
</event>
<event>
 4    1  0.1521315E-007  0.6962040E+03  0.7818608E-02  0.1001333E+00
          1   -1    0    0  501    0  0.00000000000E+00  0.00000000000E+00  0.12680792487E+04  0.12680792487E+04  0.50400000000E-02 0. -1.
         -1   -1    0    0    0  501 -0.00000000000E+00 -0.00000000000E+00 -0.29224355534E+03  0.29224355538E+03  0.50400000000E-02 0.  1.
    8880023    1    1    2    0    0 -0.22371620245E+03 -0.28997132685E+02  0.10660370221E+04  0.12732379635E+04  0.65864270000E+03 0. -1.
    8880022    1    1    2    0    0  0.22371620245E+03  0.28997132685E+02 -0.90201328785E+02  0.28708484055E+03  0.15294330000E+03 0.  0.
<mgrwt>
<rscale>  0 0.55069661E+03</rscale>
<asrwt>0</asrwt>
<pdfrwt beam="1">  1        1 0.19508912E+00 0.69620398E+03</pdfrwt>
<pdfrwt beam="2">  1       -1 0.44960547E-01 0.69620398E+03</pdfrwt>
<totfact> 0.48292522E+01</totfact>
</mgrwt>
</event>
<event>
 4    1  0.1521315E-007  0.8737276E+03  0.7818608E-02  0.9569596E-01
          1   -1    0    0  501    0  0.00000000000E+00  0.00000000000E+00  0.60532939608E+03  0.60532939610E+03  0.50400000000E-02 0. -1.
         -1   -1    0    0    0  501 -0.00000000000E+00 -0.00000000000E+00 -0.13668456177E+04  0.13668456177E+04  0.50400000000E-02 0.  1.
    8880023    1    1    2    0    0 -0.57134594461E+03 -0.56156755038E+02  0.14763204236E+03  0.88611240582E+03  0.65864270000E+03 0. -1.
    8880022    1    1    2    0    0  0.57134594461E+03  0.56156755038E+02 -0.90914826395E+03  0.10860626080E+04  0.15294330000E+03 0.  0.
<mgrwt>
<rscale>  0 0.79341615E+03</rscale>
<asrwt>0</asrwt>
<pdfrwt beam="1">  1        1 0.93127600E-01 0.87372763E+03</pdfrwt>
<pdfrwt beam="2">  1       -1 0.21028394E+00 0.87372763E+03</pdfrwt>
<totfact> 0.44138934E+00</totfact>
</mgrwt>
</event>
<event>
 4    1  0.1521315E-007  0.7118893E+03  0.7818608E-02  0.9951051E-01
         -1   -1    0    0    0  501 -0.00000000000E+00  0.00000000000E+00  0.50532700338E+03  0.50532700340E+03  0.50400000000E-02 0.  1.
          1   -1    0    0  501    0  0.00000000000E+00 -0.00000000000E+00 -0.16662086822E+04  0.16662086822E+04  0.50400000000E-02 0. -1.
    8880023    1    1    2    0    0 -0.23899867045E+03 -0.12591971722E+03 -0.15310306991E+04  0.16884434689E+04  0.65864270000E+03 0. -1.
    8880022    1    1    2    0    0  0.23899867045E+03  0.12591971722E+03  0.37014902028E+03  0.48309221676E+03  0.15294330000E+03 0.  0.
<mgrwt>
<rscale>  0 0.57849662E+03</rscale>
<asrwt>0</asrwt>
<pdfrwt beam="1">  1        1 0.25633979E+00 0.71188928E+03</pdfrwt>
<pdfrwt beam="2">  1       -1 0.77742617E-01 0.71188928E+03</pdfrwt>
<totfact> 0.87314045E+00</totfact>
</mgrwt>
</event>
<event>
 4    1  0.1521315E-007  0.1359130E+04  0.7818608E-02  0.9016109E-01
          1   -1    0    0  501    0  0.00000000000E+00  0.00000000000E+00  0.13631954781E+04  0.13631954781E+04  0.50400000000E-02 0. -1.
         -1   -1    0    0    0  501 -0.00000000000E+00 -0.00000000000E+00 -0.15267479237E+04  0.15267479237E+04  0.50400000000E-02 0.  1.
    8880023    1    1    2    0    0  0.11803646644E+04  0.14199664179E+03  0.58181270243E+03  0.14784248423E+04  0.65864270000E+03 0.  0.
    8880022    1    1    2    0    0 -0.11803646644E+04 -0.14199664179E+03 -0.74536514795E+03  0.14115185596E+04  0.15294330000E+03 0.  0.
<mgrwt>
<rscale>  0 0.13171063E+04</rscale>
<asrwt>0</asrwt>
<pdfrwt beam="1">  1        1 0.20972238E+00 0.13591299E+04</pdfrwt>
<pdfrwt beam="2">  1       -1 0.23488430E+00 0.13591299E+04</pdfrwt>
<totfact> 0.68732875E-01</totfact>
</mgrwt>
</event>
<event>
 4    1  0.1521315E-007  0.9603626E+03  0.7818608E-02  0.9435359E-01
          1   -1    0    0  501    0  0.00000000000E+00  0.00000000000E+00  0.11261689289E+04  0.11261689289E+04  0.50400000000E-02 0. -1.
         -1   -1    0    0    0  501 -0.00000000000E+00 -0.00000000000E+00 -0.87445445885E+03  0.87445445886E+03  0.50400000000E-02 0.  1.
    8880023    1    1    2    0    0 -0.33030706224E+03  0.61594101409E+03 -0.39287986174E+03  0.10376178874E+04  0.65864270000E+03 0.  1.
    8880022    1    1    2    0    0  0.33030706224E+03 -0.61594101409E+03  0.64459433179E+03  0.96300550039E+03  0.15294330000E+03 0.  0.
<mgrwt>
<rscale>  0 0.89222051E+03</rscale>
<asrwt>0</asrwt>
<pdfrwt beam="1">  1        1 0.17325676E+00 0.96036258E+03</pdfrwt>
<pdfrwt beam="2">  1       -1 0.13453146E+00 0.96036258E+03</pdfrwt>
<totfact> 0.56747329E+00</totfact>
</mgrwt>
</event>
<event>
 4    1  0.1521315E-007  0.1032798E+04  0.7818608E-02  0.9339852E-01
         -1   -1    0    0    0  501 -0.00000000000E+00  0.00000000000E+00  0.89649306314E+03  0.89649306316E+03  0.50400000000E-02 0.  1.
          1   -1    0    0  501    0  0.00000000000E+00 -0.00000000000E+00 -0.10107935200E+04  0.10107935200E+04  0.50400000000E-02 0. -1.
    8880023    1    1    2    0    0  0.50301373963E+03  0.61631058315E+03  0.17413430837E+03  0.10473750621E+04  0.65864270000E+03 0.  0.
    8880022    1    1    2    0    0 -0.50301373963E+03 -0.61631058315E+03 -0.28843476519E+03  0.85991152100E+03  0.15294330000E+03 0.  0.
<mgrwt>
<rscale>  0 0.97195348E+03</rscale>
<asrwt>0</asrwt>
<pdfrwt beam="1">  1        1 0.15550670E+00 0.10327980E+04</pdfrwt>
<pdfrwt beam="2">  1       -1 0.13792201E+00 0.10327980E+04</pdfrwt>
<totfact> 0.64613437E+00</totfact>
</mgrwt>
</event>
<event>
 4    1  0.1521315E-007  0.7283511E+03  0.7818608E-02  0.9895280E-01
         -1   -1    0    0    0  501 -0.00000000000E+00  0.00000000000E+00  0.58251575511E+03  0.58251575514E+03  0.50400000000E-02 0.  1.
          1   -1    0    0  501    0  0.00000000000E+00 -0.00000000000E+00 -0.13762941226E+04  0.13762941227E+04  0.50400000000E-02 0. -1.
    8880023    1    1    2    0    0 -0.30995802091E+03  0.24719942221E+02 -0.12130250495E+04  0.14148939986E+04  0.65864270000E+03 0. -1.
    8880022    1    1    2    0    0  0.30995802091E+03 -0.24719942221E+02  0.41924668198E+03  0.54391587919E+03  0.15294330000E+03 0.  0.
<mgrwt>
<rscale>  0 0.60490602E+03</rscale>
<asrwt>0</asrwt>
<pdfrwt beam="1">  1        1 0.21173756E+00 0.72835105E+03</pdfrwt>
<pdfrwt beam="2">  1       -1 0.89617809E-01 0.72835105E+03</pdfrwt>
<totfact> 0.10125337E+01</totfact>
</mgrwt>
</event>
<event>
 4    1  0.1521315E-007  0.6718862E+03  0.7818608E-02  0.1014345E+00
          1   -1    0    0  501    0  0.00000000000E+00  0.00000000000E+00  0.88709416415E+03  0.88709416416E+03  0.50400000000E-02 0. -1.
         -1   -1    0    0    0  501 -0.00000000000E+00 -0.00000000000E+00 -0.27080463340E+03  0.27080463345E+03  0.50400000000E-02 0.  1.
    8880023    1    1    2    0    0 -0.13136956299E+03  0.19049784835E+02  0.66950495564E+03  0.94850827528E+03  0.65864270000E+03 0.  0.
    8880022    1    1    2    0    0  0.13136956299E+03 -0.19049784835E+02 -0.53215424891E+02  0.20939052234E+03  0.15294330000E+03 0.  0.
<mgrwt>
<rscale>  0 0.49783604E+03</rscale>
<asrwt>0</asrwt>
<pdfrwt beam="1">  1        1 0.13647603E+00 0.67188620E+03</pdfrwt>
<pdfrwt beam="2">  1       -1 0.41662251E-01 0.67188620E+03</pdfrwt>
<totfact> 0.10798092E+02</totfact>
</mgrwt>
</event>
<event>
 4    1  0.1521315E-007  0.9627911E+03  0.7818608E-02  0.9431945E-01
          1   -1    0    0  501    0  0.00000000000E+00  0.00000000000E+00  0.15988482850E+04  0.15988482850E+04  0.50400000000E-02 0. -1.
         -1   -1    0    0    0  501 -0.00000000000E+00 -0.00000000000E+00 -0.10700104405E+04  0.10700104405E+04  0.50400000000E-02 0.  1.
    8880023    1    1    2    0    0 -0.57838536619E+03  0.39827983237E+03  0.12980458193E+04  0.16161341565E+04  0.65864270000E+03 0.  0.
    8880022    1    1    2    0    0  0.57838536619E+03 -0.39827983237E+03 -0.76920797479E+03  0.10527245690E+04  0.15294330000E+03 0.  0.
<mgrwt>
<rscale>  0 0.89492758E+03</rscale>
<asrwt>0</asrwt>
<pdfrwt beam="1">  1        1 0.24597666E+00 0.96279108E+03</pdfrwt>
<pdfrwt beam="2">  1       -1 0.16461699E+00 0.96279108E+03</pdfrwt>
<totfact> 0.15265991E+00</totfact>
</mgrwt>
</event>
<event>
 4    1  0.1521315E-007  0.6637771E+03  0.7818608E-02  0.1020582E+00
          1   -1    0    0  501    0  0.00000000000E+00  0.00000000000E+00  0.18661114612E+04  0.18661114612E+04  0.50400000000E-02 0. -1.
         -1   -1    0    0    0  501 -0.00000000000E+00 -0.00000000000E+00 -0.50693543887E+03  0.50693543889E+03  0.50400000000E-02 0.  1.
    8880023    1    1    2    0    0  0.58335498339E+02 -0.58196734517E+02  0.17896805363E+04  0.19088102364E+04  0.65864270000E+03 0. -1.
    8880022    1    1    2    0    0 -0.58335498339E+02  0.58196734517E+02 -0.43050451402E+03  0.46423666366E+03  0.15294330000E+03 0.  0.
<mgrwt>
<rscale>  0 0.47477124E+03</rscale>
<asrwt>0</asrwt>
<pdfrwt beam="1">  1        1 0.28709407E+00 0.66377714E+03</pdfrwt>
<pdfrwt beam="2">  1       -1 0.77990069E-01 0.66377714E+03</pdfrwt>
<totfact> 0.64276185E+00</totfact>
</mgrwt>
</event>
<event>
 4    1  0.1521315E-007  0.6919437E+03  0.7818608E-02  0.1003242E+00
         -1   -1    0    0    0  501 -0.00000000000E+00  0.00000000000E+00  0.47156317105E+03  0.47156317107E+03  0.50400000000E-02 0.  1.
          1   -1    0    0  501    0  0.00000000000E+00 -0.00000000000E+00 -0.14261431385E+04  0.14261431385E+04  0.50400000000E-02 0. -1.
    8880023    1    1    2    0    0  0.20216116906E+03  0.64083670511E+02 -0.12951139559E+04  0.14683685574E+04  0.65864270000E+03 0. -1.
    8880022    1    1    2    0    0 -0.20216116906E+03 -0.64083670511E+02  0.34053398852E+03  0.42933775219E+03  0.15294330000E+03 0.  0.
<mgrwt>
<rscale>  0 0.54251191E+03</rscale>
<asrwt>0</asrwt>
<pdfrwt beam="1">  1        1 0.21940663E+00 0.69194368E+03</pdfrwt>
<pdfrwt beam="2">  1       -1 0.72548181E-01 0.69194368E+03</pdfrwt>
<totfact> 0.14736680E+01</totfact>
</mgrwt>
</event>
<event>
 4    1  0.1521315E-007  0.6642507E+03  0.7818608E-02  0.1020171E+00
         -1   -1    0    0    0  501 -0.00000000000E+00  0.00000000000E+00  0.14721140107E+03  0.14721140116E+03  0.50400000000E-02 0.  1.
          1   -1    0    0  501    0  0.00000000000E+00 -0.00000000000E+00 -0.20723734941E+04  0.20723734941E+04  0.50400000000E-02 0. -1.
    8880023    1    1    2    0    0  0.82332360188E+02  0.25300755283E+02 -0.19329337636E+04  0.20438840198E+04  0.65864270000E+03 0. -1.
    8880022    1    1    2    0    0 -0.82332360188E+02 -0.25300755283E+02  0.77716705749E+01  0.17570087544E+03  0.15294330000E+03 0.  0.
<mgrwt>
<rscale>  0 0.47625129E+03</rscale>
<asrwt>0</asrwt>
<pdfrwt beam="1">  1        1 0.31882667E+00 0.66425067E+03</pdfrwt>
<pdfrwt beam="2">  1       -1 0.22647909E-01 0.66425067E+03</pdfrwt>
<totfact> 0.46180381E+01</totfact>
</mgrwt>
</event>
<event>
 4    1  0.1521315E-007  0.7658571E+03  0.7818608E-02  0.9790173E-01
          1   -1    0    0  501    0  0.00000000000E+00  0.00000000000E+00  0.69175288377E+03  0.69175288379E+03  0.50400000000E-02 0. -1.
         -1   -1    0    0    0  501 -0.00000000000E+00 -0.00000000000E+00 -0.98669869888E+03  0.98669869889E+03  0.50400000000E-02 0.  1.
    8880023    1    1    2    0    0 -0.39074208524E+03  0.68901082360E+01  0.40196765117E+03  0.86493644253E+03  0.65864270000E+03 0. -1.
    8880022    1    1    2    0    0  0.39074208524E+03 -0.68901082360E+01 -0.69691346628E+03  0.81351514015E+03  0.15294330000E+03 0.  0.
<mgrwt>
<rscale>  0 0.65892566E+03</rscale>
<asrwt>0</asrwt>
<pdfrwt beam="1">  1        1 0.10642352E+00 0.76585707E+03</pdfrwt>
<pdfrwt beam="2">  1       -1 0.15179980E+00 0.76585707E+03</pdfrwt>
<totfact> 0.96410857E+00</totfact>
</mgrwt>
</event>
<event>
 4    1  0.1521315E-007  0.6958194E+03  0.7818608E-02  0.1001501E+00
         -1   -1    0    0    0  501 -0.00000000000E+00  0.00000000000E+00  0.84661407229E+03  0.84661407231E+03  0.50400000000E-02 0.  1.
          1   -1    0    0  501    0  0.00000000000E+00 -0.00000000000E+00 -0.67162456767E+03  0.67162456768E+03  0.50400000000E-02 0. -1.
    8880023    1    1    2    0    0 -0.22435321511E+03 -0.44733604720E+01 -0.45556872208E+03  0.83168951111E+03  0.65864270000E+03 0.  0.
    8880022    1    1    2    0    0  0.22435321511E+03  0.44733604720E+01  0.63055822671E+03  0.68654912888E+03  0.15294330000E+03 0.  0.
<mgrwt>
<rscale>  0 0.54997090E+03</rscale>
<asrwt>0</asrwt>
<pdfrwt beam="1">  1        1 0.10332686E+00 0.69581936E+03</pdfrwt>
<pdfrwt beam="2">  1       -1 0.13024832E+00 0.69581936E+03</pdfrwt>
<totfact> 0.15152876E+01</totfact>
</mgrwt>
</event>
<event>
 4    1  0.1521315E-007  0.7429790E+03  0.7818608E-02  0.9851353E-01
         -1   -1    0    0    0  501 -0.00000000000E+00  0.00000000000E+00  0.11246067140E+04  0.11246067140E+04  0.50400000000E-02 0.  1.
          1   -1    0    0  501    0  0.00000000000E+00 -0.00000000000E+00 -0.34736184633E+03  0.34736184637E+03  0.50400000000E-02 0. -1.
    8880023    1    1    2    0    0  0.30658469449E+03 -0.15560672013E+03  0.17740164245E+03  0.76386463150E+03  0.65864270000E+03 0.  0.
    8880022    1    1    2    0    0 -0.30658469449E+03  0.15560672013E+03  0.59984322521E+03  0.70810392888E+03  0.15294330000E+03 0.  0.
<mgrwt>
<rscale>  0 0.62677988E+03</rscale>
<asrwt>0</asrwt>
<pdfrwt beam="1">  1        1 0.53440285E-01 0.74297903E+03</pdfrwt>
<pdfrwt beam="2">  1       -1 0.17301642E+00 0.74297903E+03</pdfrwt>
<totfact> 0.17383094E+01</totfact>
</mgrwt>
</event>
<event>
 4    1  0.1521315E-007  0.6687134E+03  0.7818608E-02  0.1016602E+00
         -1   -1    0    0    0  501 -0.00000000000E+00  0.00000000000E+00  0.87394535877E+03  0.87394535879E+03  0.50400000000E-02 0.  1.
          1   -1    0    0  501    0  0.00000000000E+00 -0.00000000000E+00 -0.26144683485E+03  0.26144683490E+03  0.50400000000E-02 0. -1.
    8880023    1    1    2    0    0 -0.10727497735E+03  0.43121103119E+02  0.22934895842E+03  0.70695014060E+03  0.65864270000E+03 0. -1.
    8880022    1    1    2    0    0  0.10727497735E+03 -0.43121103119E+02  0.38314956550E+03  0.42844205309E+03  0.15294330000E+03 0.  0.
<mgrwt>
<rscale>  0 0.48932845E+03</rscale>
<asrwt>0</asrwt>
<pdfrwt beam="1">  1        1 0.40222590E-01 0.66871336E+03</pdfrwt>
<pdfrwt beam="2">  1       -1 0.13445313E+00 0.66871336E+03</pdfrwt>
<totfact> 0.50123117E+01</totfact>
</mgrwt>
</event>
<event>
 4    1  0.3235050E-007  0.9461728E+03  0.7818608E-02  0.9455642E-01
          1   -1    0    0  501    0  0.00000000000E+00  0.00000000000E+00  0.16276205247E+04  0.16276205247E+04  0.50400000000E-02 0. -1.
         -1   -1    0    0    0  501 -0.00000000000E+00 -0.00000000000E+00 -0.16663117047E+04  0.16663117047E+04  0.50400000000E-02 0.  1.
    8880023    1    1    2    0    0 -0.67885728630E+03  0.24198748052E+02  0.14033868605E+04  0.16925535977E+04  0.65864270000E+03 0.  0.
    8880022    1    1    2    0    0  0.67885728630E+03 -0.24198748052E+02 -0.14420780405E+04  0.16013786318E+04  0.15294330000E+03 0.  0.
<mgrwt>
<rscale>  0 0.87634662E+03</rscale>
<asrwt>0</asrwt>
<pdfrwt beam="1">  1        1 0.25040316E+00 0.94617282E+03</pdfrwt>
<pdfrwt beam="2">  1       -1 0.25635565E+00 0.94617282E+03</pdfrwt>
<totfact> 0.34627009E-01</totfact>
</mgrwt>
</event>
<event>
 4    1  0.1521315E-007  0.8234719E+03  0.7818608E-02  0.9662170E-01
          1   -1    0    0  501    0  0.00000000000E+00  0.00000000000E+00  0.60927740177E+03  0.60927740179E+03  0.50400000000E-02 0. -1.
         -1   -1    0    0    0  501 -0.00000000000E+00 -0.00000000000E+00 -0.81596231459E+03  0.81596231461E+03  0.50400000000E-02 0.  1.
    8880023    1    1    2    0    0  0.34331346003E+03  0.35557215711E+03 -0.34008423598E+03  0.89093388339E+03  0.65864270000E+03 0.  0.
    8880022    1    1    2    0    0 -0.34331346003E+03 -0.35557215711E+03  0.13339932315E+03  0.53430583301E+03  0.15294330000E+03 0.  0.
<mgrwt>
<rscale>  0 0.73314529E+03</rscale>
<asrwt>0</asrwt>
<pdfrwt beam="1">  1        1 0.93734985E-01 0.82347186E+03</pdfrwt>
<pdfrwt beam="2">  1       -1 0.12553266E+00 0.82347186E+03</pdfrwt>
<totfact> 0.18894185E+01</totfact>
</mgrwt>
</event>
<event>
 4    1  0.1521315E-007  0.7442330E+03  0.7818608E-02  0.9847784E-01
          1   -1    0    0  501    0  0.00000000000E+00  0.00000000000E+00  0.20242518679E+04  0.20242518679E+04  0.50400000000E-02 0. -1.
         -1   -1    0    0    0  501 -0.00000000000E+00 -0.00000000000E+00 -0.78291293438E+03  0.78291293440E+03  0.50400000000E-02 0.  1.
    8880023    1    1    2    0    0 -0.20761799562E+03  0.27742995693E+03  0.19037824420E+04  0.20440818002E+04  0.65864270000E+03 0. -1.
    8880022    1    1    2    0    0  0.20761799562E+03 -0.27742995693E+03 -0.66244350851E+03  0.76308300210E+03  0.15294330000E+03 0.  0.
<mgrwt>
<rscale>  0 0.62860044E+03</rscale>
<asrwt>0</asrwt>
<pdfrwt beam="1">  1        1 0.31142336E+00 0.74423304E+03</pdfrwt>
<pdfrwt beam="2">  1       -1 0.12044815E+00 0.74423304E+03</pdfrwt>
<totfact> 0.18596066E+00</totfact>
</mgrwt>
</event>
<event>
 4    1  0.1521315E-007  0.7494873E+03  0.7818608E-02  0.9833126E-01
          1   -1    0    0  501    0  0.00000000000E+00  0.00000000000E+00  0.19685546814E+04  0.19685546814E+04  0.50400000000E-02 0. -1.
         -1   -1    0    0    0  501 -0.00000000000E+00 -0.00000000000E+00 -0.18997763006E+03  0.18997763013E+03  0.50400000000E-02 0.  1.
    8880023    1    1    2    0    0 -0.34348591513E+03 -0.99691354214E+02  0.15101774895E+04  0.16859321446E+04  0.65864270000E+03 0.  0.
    8880022    1    1    2    0    0  0.34348591513E+03  0.99691354214E+02  0.26839956178E+03  0.47260016692E+03  0.15294330000E+03 0.  0.
<mgrwt>
<rscale>  0 0.63614713E+03</rscale>
<asrwt>0</asrwt>
<pdfrwt beam="1">  1        1 0.30285458E+00 0.74948726E+03</pdfrwt>
<pdfrwt beam="2">  1       -1 0.29227327E-01 0.74948726E+03</pdfrwt>
<totfact> 0.34638433E+01</totfact>
</mgrwt>
</event>
<event>
 4    1  0.1521315E-007  0.9416526E+03  0.7818608E-02  0.9462227E-01
          1   -1    0    0  501    0  0.00000000000E+00  0.00000000000E+00  0.13650058023E+04  0.13650058023E+04  0.50400000000E-02 0. -1.
         -1   -1    0    0    0  501 -0.00000000000E+00 -0.00000000000E+00 -0.50273356649E+03  0.50273356652E+03  0.50400000000E-02 0.  1.
    8880023    1    1    2    0    0  0.30268731210E+03  0.60106560471E+03  0.65532618453E+03  0.11472410751E+04  0.65864270000E+03 0.  0.
    8880022    1    1    2    0    0 -0.30268731210E+03 -0.60106560471E+03  0.20694605127E+03  0.72049829370E+03  0.15294330000E+03 0.  0.
<mgrwt>
<rscale>  0 0.87126868E+03</rscale>
<asrwt>0</asrwt>
<pdfrwt beam="1">  1        1 0.21000090E+00 0.94165263E+03</pdfrwt>
<pdfrwt beam="2">  1       -1 0.77343624E-01 0.94165263E+03</pdfrwt>
<totfact> 0.13777441E+01</totfact>
</mgrwt>
</event>
<event>
 4    1  0.1521315E-007  0.1240397E+04  0.7818608E-02  0.9118820E-01
          1   -1    0    0  501    0  0.00000000000E+00  0.00000000000E+00  0.10431179459E+04  0.10431179460E+04  0.50400000000E-02 0. -1.
         -1   -1    0    0    0  501 -0.00000000000E+00 -0.00000000000E+00 -0.13663600743E+04  0.13663600743E+04  0.50400000000E-02 0.  1.
    8880023    1    1    2    0    0 -0.89739197570E+03  0.54723165101E+03 -0.49122621801E+03  0.13341245225E+04  0.65864270000E+03 0.  0.
    8880022    1    1    2    0    0  0.89739197570E+03 -0.54723165101E+03  0.16798408962E+03  0.10753534978E+04  0.15294330000E+03 0.  0.
<mgrwt>
<rscale>  0 0.11932109E+04</rscale>
<asrwt>0</asrwt>
<pdfrwt beam="1">  1        1 0.16047968E+00 0.12403971E+04</pdfrwt>
<pdfrwt beam="2">  1       -1 0.21020924E+00 0.12403971E+04</pdfrwt>
<totfact> 0.17529956E+00</totfact>
</mgrwt>
</event>
<event>
 4    1  0.1521315E-007  0.8135993E+03  0.7818608E-02  0.9682128E-01
         -1   -1    0    0    0  501 -0.00000000000E+00  0.00000000000E+00  0.14922361711E+04  0.14922361711E+04  0.50400000000E-02 0.  1.
          1   -1    0    0  501    0  0.00000000000E+00 -0.00000000000E+00 -0.84642693967E+03  0.84642693969E+03  0.50400000000E-02 0. -1.
    8880023    1    1    2    0    0  0.41451384220E+03 -0.23730143079E+03 -0.58997087453E+03  0.10049923052E+04  0.65864270000E+03 0.  0.
    8880022    1    1    2    0    0 -0.41451384220E+03  0.23730143079E+03  0.12357801059E+04  0.13336708056E+04  0.15294330000E+03 0.  0.
<mgrwt>
<rscale>  0 0.72090936E+03</rscale>
<asrwt>0</asrwt>
<pdfrwt beam="1">  1        1 0.13021953E+00 0.81359935E+03</pdfrwt>
<pdfrwt beam="2">  1       -1 0.22957479E+00 0.81359935E+03</pdfrwt>
<totfact> 0.19805535E+00</totfact>
</mgrwt>
</event>
<event>
 4    1  0.1521315E-007  0.8543582E+03  0.7818608E-02  0.9603679E-01
         -1   -1    0    0    0  501 -0.00000000000E+00  0.00000000000E+00  0.10661096087E+04  0.10661096087E+04  0.50400000000E-02 0.  1.
          1   -1    0    0  501    0  0.00000000000E+00 -0.00000000000E+00 -0.10883878653E+04  0.10883878653E+04  0.50400000000E-02 0. -1.
    8880023    1    1    2    0    0  0.28552768006E+03  0.46324032164E+03 -0.81509614222E+03  0.11808088664E+04  0.65864270000E+03 0. -1.
    8880022    1    1    2    0    0 -0.28552768006E+03 -0.46324032164E+03  0.79281788566E+03  0.97368860757E+03  0.15294330000E+03 0.  0.
<mgrwt>
<rscale>  0 0.77053153E+03</rscale>
<asrwt>0</asrwt>
<pdfrwt beam="1">  1        1 0.16744429E+00 0.85435816E+03</pdfrwt>
<pdfrwt beam="2">  1       -1 0.16401686E+00 0.85435816E+03</pdfrwt>
<totfact> 0.36062623E+00</totfact>
</mgrwt>
</event>
<event>
 4    1  0.1521315E-007  0.6803210E+03  0.7818608E-02  0.1009143E+00
         -1   -1    0    0    0  501 -0.00000000000E+00  0.00000000000E+00  0.11322119784E+04  0.11322119784E+04  0.50400000000E-02 0.  1.
          1   -1    0    0  501    0  0.00000000000E+00 -0.00000000000E+00 -0.33716973378E+03  0.33716973382E+03  0.50400000000E-02 0. -1.
    8880023    1    1    2    0    0  0.16505641101E+03  0.42223022251E+02  0.41231656954E+02  0.68156926150E+03  0.65864270000E+03 0. -1.
    8880022    1    1    2    0    0 -0.16505641101E+03 -0.42223022251E+02  0.75381058763E+03  0.78781245069E+03  0.15294330000E+03 0.  0.
<mgrwt>
<rscale>  0 0.51816790E+03</rscale>
<asrwt>0</asrwt>
<pdfrwt beam="1">  1        1 0.51872267E-01 0.68032096E+03</pdfrwt>
<pdfrwt beam="2">  1       -1 0.17418646E+00 0.68032096E+03</pdfrwt>
<totfact> 0.17848087E+01</totfact>
</mgrwt>
</event>
<event>
 4    1  0.1521315E-007  0.7612293E+03  0.7818608E-02  0.9801935E-01
          1   -1    0    0  501    0  0.00000000000E+00  0.00000000000E+00  0.10694974010E+04  0.10694974010E+04  0.50400000000E-02 0. -1.
         -1   -1    0    0    0  501 -0.00000000000E+00 -0.00000000000E+00 -0.51488736350E+03  0.51488736353E+03  0.50400000000E-02 0.  1.
    8880023    1    1    2    0    0  0.34753892716E+03 -0.15772304304E+03  0.80102545600E+03  0.11050392987E+04  0.65864270000E+03 0. -1.
    8880022    1    1    2    0    0 -0.34753892716E+03  0.15772304304E+03 -0.24641541847E+03  0.47934546589E+03  0.15294330000E+03 0.  0.
<mgrwt>
<rscale>  0 0.65258789E+03</rscale>
<asrwt>0</asrwt>
<pdfrwt beam="1">  1        1 0.16453806E+00 0.76122932E+03</pdfrwt>
<pdfrwt beam="2">  1       -1 0.79213442E-01 0.76122932E+03</pdfrwt>
<totfact> 0.21898241E+01</totfact>
</mgrwt>
</event>
<event>
 4    1  0.1521315E-007  0.6754725E+03  0.7818608E-02  0.1012010E+00
         -1   -1    0    0    0  501 -0.00000000000E+00  0.00000000000E+00  0.21368764348E+03  0.21368764354E+03  0.50400000000E-02 0.  1.
          1   -1    0    0  501    0  0.00000000000E+00 -0.00000000000E+00 -0.13935155441E+04  0.13935155441E+04  0.50400000000E-02 0. -1.
    8880023    1    1    2    0    0 -0.83834037402E+02 -0.12419658450E+03 -0.12150776535E+04  0.13902074837E+04  0.65864270000E+03 0. -1.
    8880022    1    1    2    0    0  0.83834037402E+02  0.12419658450E+03  0.35249752908E+02  0.21699570393E+03  0.15294330000E+03 0.  0.
<mgrwt>
<rscale>  0 0.50683522E+03</rscale>
<asrwt>0</asrwt>
<pdfrwt beam="1">  1        1 0.21438700E+00 0.67547253E+03</pdfrwt>
<pdfrwt beam="2">  1       -1 0.32875023E-01 0.67547253E+03</pdfrwt>
<totfact> 0.69568078E+01</totfact>
</mgrwt>
</event>
<event>
 4    1  0.1521315E-007  0.7900475E+03  0.7818608E-02  0.9732744E-01
          1   -1    0    0  501    0  0.00000000000E+00  0.00000000000E+00  0.71332248171E+03  0.71332248173E+03  0.50400000000E-02 0. -1.
         -1   -1    0    0    0  501 -0.00000000000E+00 -0.00000000000E+00 -0.11745997243E+04  0.11745997243E+04  0.50400000000E-02 0.  1.
    8880023    1    1    2    0    0  0.40997768888E+03  0.14927526392E+03  0.41850986884E+03  0.89405006928E+03  0.65864270000E+03 0. -1.
    8880022    1    1    2    0    0 -0.40997768888E+03 -0.14927526392E+03 -0.87978711146E+03  0.99387213680E+03  0.15294330000E+03 0.  0.
<mgrwt>
<rscale>  0 0.69100279E+03</rscale>
<asrwt>0</asrwt>
<pdfrwt beam="1">  1        1 0.10974192E+00 0.79004748E+03</pdfrwt>
<pdfrwt beam="2">  1       -1 0.18070765E+00 0.79004748E+03</pdfrwt>
<totfact> 0.56028424E+00</totfact>
</mgrwt>
</event>
<event>
 4    1  0.1521315E-007  0.6959955E+03  0.7818608E-02  0.1001424E+00
          1   -1    0    0  501    0  0.00000000000E+00  0.00000000000E+00  0.24978050672E+04  0.24978050672E+04  0.50400000000E-02 0. -1.
         -1   -1    0    0    0  501 -0.00000000000E+00 -0.00000000000E+00 -0.30764447861E+03  0.30764447865E+03  0.50400000000E-02 0.  1.
    8880023    1    1    2    0    0  0.22338938857E+03  0.26395639457E+02  0.23761141976E+04  0.24759500065E+04  0.65864270000E+03 0. -1.
    8880022    1    1    2    0    0 -0.22338938857E+03 -0.26395639457E+02 -0.18595360897E+03  0.32949953932E+03  0.15294330000E+03 0.  0.
<mgrwt>
<rscale>  0 0.55030358E+03</rscale>
<asrwt>0</asrwt>
<pdfrwt beam="1">  1        1 0.38427769E+00 0.69599551E+03</pdfrwt>
<pdfrwt beam="2">  1       -1 0.47329921E-01 0.69599551E+03</pdfrwt>
<totfact> 0.64635059E+00</totfact>
</mgrwt>
</event>
<event>
 4    1  0.1521315E-007  0.9196718E+03  0.7818608E-02  0.9495162E-01
         -1   -1    0    0    0  501 -0.00000000000E+00  0.00000000000E+00  0.53637536164E+03  0.53637536167E+03  0.50400000000E-02 0.  1.
          1   -1    0    0  501    0  0.00000000000E+00 -0.00000000000E+00 -0.23323351624E+04  0.23323351624E+04  0.50400000000E-02 0. -1.
    8880023    1    1    2    0    0 -0.61688444694E+03 -0.17731217847E+03 -0.19804519027E+04  0.21835718387E+04  0.65864270000E+03 0. -1.
    8880022    1    1    2    0    0  0.61688444694E+03  0.17731217847E+03  0.18449210195E+03  0.68513868539E+03  0.15294330000E+03 0.  0.
<mgrwt>
<rscale>  0 0.84641417E+03</rscale>
<asrwt>0</asrwt>
<pdfrwt beam="1">  1        1 0.35882079E+00 0.91967181E+03</pdfrwt>
<pdfrwt beam="2">  1       -1 0.82519288E-01 0.91967181E+03</pdfrwt>
<totfact> 0.26545461E+00</totfact>
</mgrwt>
</event>
<event>
 4    1  0.1521315E-007  0.7856992E+03  0.7818608E-02  0.9742616E-01
          1   -1    0    0  501    0  0.00000000000E+00  0.00000000000E+00  0.11518645274E+04  0.11518645274E+04  0.50400000000E-02 0. -1.
         -1   -1    0    0    0  501 -0.00000000000E+00 -0.00000000000E+00 -0.46407313614E+03  0.46407313617E+03  0.50400000000E-02 0.  1.
    8880023    1    1    2    0    0 -0.13893563581E+03  0.40522829380E+03  0.82652832058E+03  0.11403825463E+04  0.65864270000E+03 0.  0.
    8880022    1    1    2    0    0  0.13893563581E+03 -0.40522829380E+03 -0.13873692930E+03  0.47555511727E+03  0.15294330000E+03 0.  0.
<mgrwt>
<rscale>  0 0.68535179E+03</rscale>
<asrwt>0</asrwt>
<pdfrwt beam="1">  1        1 0.17720993E+00 0.78569923E+03</pdfrwt>
<pdfrwt beam="2">  1       -1 0.71395867E-01 0.78569923E+03</pdfrwt>
<totfact> 0.23553361E+01</totfact>
</mgrwt>
</event>
<event>
 4    1  0.1521315E-007  0.6885918E+03  0.7818608E-02  0.1004829E+00
          1   -1    0    0  501    0  0.00000000000E+00  0.00000000000E+00  0.42757325540E+03  0.42757325543E+03  0.50400000000E-02 0. -1.
         -1   -1    0    0    0  501 -0.00000000000E+00 -0.00000000000E+00 -0.13636471977E+04  0.13636471977E+04  0.50400000000E-02 0.  1.
    8880023    1    1    2    0    0 -0.17908373127E+03 -0.90980845793E+02  0.12558932819E+03  0.69995098594E+03  0.65864270000E+03 0.  0.
    8880022    1    1    2    0    0  0.17908373127E+03  0.90980845793E+02 -0.10616632705E+04  0.10912694672E+04  0.15294330000E+03 0.  0.
<mgrwt>
<rscale>  0 0.53582507E+03</rscale>
<asrwt>0</asrwt>
<pdfrwt beam="1">  1        1 0.65780501E-01 0.68859183E+03</pdfrwt>
<pdfrwt beam="2">  1       -1 0.20979187E+00 0.68859183E+03</pdfrwt>
<totfact> 0.73794414E+00</totfact>
</mgrwt>
</event>
<event>
 4    1  0.1521315E-007  0.7685462E+03  0.7818608E-02  0.9783464E-01
          1   -1    0    0  501    0  0.00000000000E+00  0.00000000000E+00  0.18597272893E+04  0.18597272893E+04  0.50400000000E-02 0. -1.
         -1   -1    0    0    0  501 -0.00000000000E+00 -0.00000000000E+00 -0.26887010937E+03  0.26887010942E+03  0.50400000000E-02 0.  1.
    8880023    1    1    2    0    0  0.36132544281E+03  0.16216350733E+03  0.15129412247E+04  0.16969544585E+04  0.65864270000E+03 0. -1.
    8880022    1    1    2    0    0 -0.36132544281E+03 -0.16216350733E+03  0.77915955260E+02  0.43164294021E+03  0.15294330000E+03 0.  1.
<mgrwt>
<rscale>  0 0.66257541E+03</rscale>
<asrwt>0</asrwt>
<pdfrwt beam="1">  1        1 0.28611188E+00 0.76854622E+03</pdfrwt>
<pdfrwt beam="2">  1       -1 0.41364633E-01 0.76854622E+03</pdfrwt>
<totfact> 0.22008293E+01</totfact>
</mgrwt>
</event>
<event>
 4    1  0.1521315E-007  0.7092725E+03  0.7818608E-02  0.9960712E-01
         -1   -1    0    0    0  501 -0.00000000000E+00  0.00000000000E+00  0.13511526441E+04  0.13511526441E+04  0.50400000000E-02 0.  1.
          1   -1    0    0  501    0  0.00000000000E+00 -0.00000000000E+00 -0.28872698725E+03  0.28872698729E+03  0.50400000000E-02 0. -1.
    8880023    1    1    2    0    0 -0.14597127980E+03 -0.21897423866E+03  0.21761203908E+03  0.74190466877E+03  0.65864270000E+03 0.  0.
    8880022    1    1    2    0    0  0.14597127980E+03  0.21897423866E+03  0.84481361780E+03  0.89797496266E+03  0.15294330000E+03 0.  0.
<mgrwt>
<rscale>  0 0.57407012E+03</rscale>
<asrwt>0</asrwt>
<pdfrwt beam="1">  1        1 0.44419536E-01 0.70927254E+03</pdfrwt>
<pdfrwt beam="2">  1       -1 0.20786964E+00 0.70927254E+03</pdfrwt>
<totfact> 0.12679500E+01</totfact>
</mgrwt>
</event>
<event>
 4    1  0.1521315E-007  0.7266186E+03  0.7818608E-02  0.9900796E-01
          1   -1    0    0  501    0  0.00000000000E+00  0.00000000000E+00  0.20530276611E+04  0.20530276611E+04  0.50400000000E-02 0. -1.
         -1   -1    0    0    0  501 -0.00000000000E+00 -0.00000000000E+00 -0.15501817004E+03  0.15501817012E+03  0.50400000000E-02 0.  1.
    8880023    1    1    2    0    0  0.23074319102E+03 -0.20229161737E+03  0.92417219047E+03  0.11756142065E+04  0.65864270000E+03 0.  0.
    8880022    1    1    2    0    0 -0.23074319102E+03  0.20229161737E+03  0.97383730058E+03  0.10324316247E+04  0.15294330000E+03 0.  0.
<mgrwt>
<rscale>  0 0.60222732E+03</rscale>
<asrwt>0</asrwt>
<pdfrwt beam="1">  1        1 0.31585040E+00 0.72661856E+03</pdfrwt>
<pdfrwt beam="2">  1       -1 0.23848950E-01 0.72661856E+03</pdfrwt>
<totfact> 0.43240940E+01</totfact>
</mgrwt>
</event>
<event>
 4    1  0.3322526E-007  0.8067867E+03  0.7818608E-02  0.9696309E-01
         -1   -1    0    0    0  501 -0.00000000000E+00  0.00000000000E+00  0.12551516547E+04  0.12551516547E+04  0.50400000000E-02 0.  1.
          1   -1    0    0  501    0  0.00000000000E+00 -0.00000000000E+00 -0.24485369042E+04  0.24485369042E+04  0.50400000000E-02 0. -1.
    8880023    1    1    2    0    0 -0.41242362163E+03 -0.21679797191E+03 -0.23300372646E+04  0.24657612344E+04  0.65864270000E+03 0. -1.
    8880022    1    1    2    0    0  0.41242362163E+03  0.21679797191E+03  0.11366520151E+04  0.12379273245E+04  0.15294330000E+03 0.  0.
<mgrwt>
<rscale>  0 0.71236954E+03</rscale>
<asrwt>0</asrwt>
<pdfrwt beam="1">  1        1 0.37669798E+00 0.80678672E+03</pdfrwt>
<pdfrwt beam="2">  1       -1 0.19310026E+00 0.80678672E+03</pdfrwt>
<totfact> 0.26227235E-01</totfact>
</mgrwt>
</event>
<event>
 4    1  0.1591318E-007  0.1204078E+04  0.7818608E-02  0.9153169E-01
         -1   -1    0    0    0  501 -0.00000000000E+00  0.00000000000E+00  0.12446443751E+04  0.12446443751E+04  0.50400000000E-02 0.  1.
          1   -1    0    0  501    0  0.00000000000E+00 -0.00000000000E+00 -0.24982857594E+04  0.24982857594E+04  0.50400000000E-02 0. -1.
    8880023    1    1    2    0    0  0.12590033121E+03 -0.10000708861E+04 -0.20981378950E+04  0.24190877420E+04  0.65864270000E+03 0. -1.
    8880022    1    1    2    0    0 -0.12590033121E+03  0.10000708861E+04  0.84449651077E+03  0.13238423925E+04  0.15294330000E+03 0.  0.
<mgrwt>
<rscale>  0 0.11550157E+04</rscale>
<asrwt>0</asrwt>
<pdfrwt beam="1">  1        1 0.38435165E+00 0.12040776E+04</pdfrwt>
<pdfrwt beam="2">  1       -1 0.19148375E+00 0.12040776E+04</pdfrwt>
<totfact> 0.23085503E-01</totfact>
</mgrwt>
</event>
<event>
 4    1  0.1521315E-007  0.7721346E+03  0.7818608E-02  0.9774648E-01
          1   -1    0    0  501    0  0.00000000000E+00  0.00000000000E+00  0.14144165906E+04  0.14144165906E+04  0.50400000000E-02 0. -1.
         -1   -1    0    0    0  501 -0.00000000000E+00 -0.00000000000E+00 -0.39231768863E+03  0.39231768866E+03  0.50400000000E-02 0.  1.
    8880023    1    1    2    0    0  0.17603887710E+03  0.36248025482E+03  0.11241690687E+04  0.13637990771E+04  0.65864270000E+03 0. -1.
    8880022    1    1    2    0    0 -0.17603887710E+03 -0.36248025482E+03 -0.10207016673E+03  0.44293520219E+03  0.15294330000E+03 0.  0.
<mgrwt>
<rscale>  0 0.66740993E+03</rscale>
<asrwt>0</asrwt>
<pdfrwt beam="1">  1        1 0.21760255E+00 0.77213459E+03</pdfrwt>
<pdfrwt beam="2">  1       -1 0.60356567E-01 0.77213459E+03</pdfrwt>
<totfact> 0.21524770E+01</totfact>
</mgrwt>
</event>
<event>
 4    1  0.1521315E-007  0.8494535E+03  0.7818608E-02  0.9612606E-01
          1   -1    0    0  501    0  0.00000000000E+00  0.00000000000E+00  0.16424616269E+04  0.16424616269E+04  0.50400000000E-02 0. -1.
         -1   -1    0    0    0  501 -0.00000000000E+00 -0.00000000000E+00 -0.42154606449E+03  0.42154606452E+03  0.50400000000E-02 0.  1.
    8880023    1    1    2    0    0 -0.38152448139E+03 -0.37709422650E+03  0.12432660356E+04  0.15057495234E+04  0.65864270000E+03 0. -1.
    8880022    1    1    2    0    0  0.38152448139E+03  0.37709422650E+03 -0.22350473191E+02  0.55825816808E+03  0.15294330000E+03 0.  0.
<mgrwt>
<rscale>  0 0.76467410E+03</rscale>
<asrwt>0</asrwt>
<pdfrwt beam="1">  1        1 0.25268641E+00 0.84945347E+03</pdfrwt>
<pdfrwt beam="2">  1       -1 0.64853239E-01 0.84945347E+03</pdfrwt>
<totfact> 0.12893725E+01</totfact>
</mgrwt>
</event>
<event>
 4    1  0.1521315E-007  0.6662951E+03  0.7818608E-02  0.1018471E+00
         -1   -1    0    0    0  501 -0.00000000000E+00  0.00000000000E+00  0.25421047099E+03  0.25421047104E+03  0.50400000000E-02 0.  1.
          1   -1    0    0  501    0  0.00000000000E+00 -0.00000000000E+00 -0.93935232825E+03  0.93935232827E+03  0.50400000000E-02 0. -1.
    8880023    1    1    2    0    0 -0.81587028173E+02 -0.59012515676E+02 -0.74634684451E+03  0.10004912487E+04  0.65864270000E+03 0. -1.
    8880022    1    1    2    0    0  0.81587028173E+02  0.59012515676E+02  0.61204987245E+02  0.19307155060E+03  0.15294330000E+03 0.  0.
<mgrwt>
<rscale>  0 0.48242530E+03</rscale>
<asrwt>0</asrwt>
<pdfrwt beam="1">  1        1 0.14451574E+00 0.66629507E+03</pdfrwt>
<pdfrwt beam="2">  1       -1 0.39109304E-01 0.66629507E+03</pdfrwt>
<totfact> 0.10999812E+02</totfact>
</mgrwt>
</event>
<event>
 4    1  0.1597072E-007  0.7392826E+03  0.7818608E-02  0.9862042E-01
         -1   -1    0    0    0  501 -0.00000000000E+00  0.00000000000E+00  0.99949009031E+03  0.99949009033E+03  0.50400000000E-02 0.  1.
          1   -1    0    0  501    0  0.00000000000E+00 -0.00000000000E+00 -0.20023492674E+04  0.20023492674E+04  0.50400000000E-02 0. -1.
    8880023    1    1    2    0    0  0.27440975272E+03 -0.19346271777E+03 -0.18962497284E+04  0.20352645465E+04  0.65864270000E+03 0. -1.
    8880022    1    1    2    0    0 -0.27440975272E+03  0.19346271777E+03  0.89339055130E+03  0.96657481124E+03  0.15294330000E+03 0.  0.
<mgrwt>
<rscale>  0 0.62136699E+03</rscale>
<asrwt>0</asrwt>
<pdfrwt beam="1">  1        1 0.30805373E+00 0.73928259E+03</pdfrwt>
<pdfrwt beam="2">  1       -1 0.15376771E+00 0.73928259E+03</pdfrwt>
<totfact> 0.10274653E+00</totfact>
</mgrwt>
</event>
<event>
 4    1  0.1521315E-007  0.7746784E+03  0.7818608E-02  0.9768489E-01
         -1   -1    0    0    0  501 -0.00000000000E+00  0.00000000000E+00  0.11248945022E+04  0.11248945022E+04  0.50400000000E-02 0.  1.
          1   -1    0    0  501    0  0.00000000000E+00 -0.00000000000E+00 -0.48522328808E+03  0.48522328811E+03  0.50400000000E-02 0. -1.
    8880023    1    1    2    0    0  0.98716703721E+02  0.39569111679E+03 -0.69588080619E+02  0.77779763096E+03  0.65864270000E+03 0.  0.
    8880022    1    1    2    0    0 -0.98716703721E+02 -0.39569111679E+03  0.70925929477E+03  0.83232015940E+03  0.15294330000E+03 0.  0.
<mgrwt>
<rscale>  0 0.67081355E+03</rscale>
<asrwt>0</asrwt>
<pdfrwt beam="1">  1        1 0.74649738E-01 0.77467842E+03</pdfrwt>
<pdfrwt beam="2">  1       -1 0.17306069E+00 0.77467842E+03</pdfrwt>
<totfact> 0.11085086E+01</totfact>
</mgrwt>
</event>
<event>
 4    1  0.1521315E-007  0.6649952E+03  0.7818608E-02  0.1019537E+00
         -1   -1    0    0    0  501 -0.00000000000E+00  0.00000000000E+00  0.77676183085E+03  0.77676183087E+03  0.50400000000E-02 0.  1.
          1   -1    0    0  501    0  0.00000000000E+00 -0.00000000000E+00 -0.61031201751E+03  0.61031201753E+03  0.50400000000E-02 0. -1.
    8880023    1    1    2    0    0 -0.57229859343E+02  0.71646091236E+02 -0.41164920807E+03  0.78209570767E+03  0.65864270000E+03 0. -1.
    8880022    1    1    2    0    0  0.57229859343E+02 -0.71646091236E+02  0.57809902141E+03  0.60497814073E+03  0.15294330000E+03 0.  0.
<mgrwt>
<rscale>  0 0.47853907E+03</rscale>
<asrwt>0</asrwt>
<pdfrwt beam="1">  1        1 0.93894157E-01 0.66499521E+03</pdfrwt>
<pdfrwt beam="2">  1       -1 0.11950182E+00 0.66499521E+03</pdfrwt>
<totfact> 0.21652464E+01</totfact>
</mgrwt>
</event>
<event>
 4    1  0.1521315E-007  0.9075325E+03  0.7818608E-02  0.9514046E-01
         -1   -1    0    0    0  501 -0.00000000000E+00  0.00000000000E+00  0.12043391731E+04  0.12043391731E+04  0.50400000000E-02 0.  1.
          1   -1    0    0  501    0  0.00000000000E+00 -0.00000000000E+00 -0.85302063424E+03  0.85302063426E+03  0.50400000000E-02 0. -1.
    8880023    1    1    2    0    0  0.47711020840E+03 -0.40270449223E+03  0.85028606634E+03  0.12436244047E+04  0.65864270000E+03 0.  1.
    8880022    1    1    2    0    0 -0.47711020840E+03  0.40270449223E+03 -0.49896752751E+03  0.81373540267E+03  0.15294330000E+03 0.  0.
<mgrwt>
<rscale>  0 0.83256136E+03</rscale>
<asrwt>0</asrwt>
<pdfrwt beam="1">  1        1 0.13123394E+00 0.90753251E+03</pdfrwt>
<pdfrwt beam="2">  1       -1 0.18528295E+00 0.90753251E+03</pdfrwt>
<totfact> 0.38548031E+00</totfact>
</mgrwt>
</event>
<event>
 4    1  0.1521315E-007  0.7052162E+03  0.7818608E-02  0.9976213E-01
         -1   -1    0    0    0  501 -0.00000000000E+00  0.00000000000E+00  0.88108797163E+03  0.88108797164E+03  0.50400000000E-02 0.  1.
          1   -1    0    0  501    0  0.00000000000E+00 -0.00000000000E+00 -0.52029738633E+03  0.52029738636E+03  0.50400000000E-02 0. -1.
    8880023    1    1    2    0    0  0.19142445219E+03  0.16394028046E+03 -0.22945971382E+03  0.74160751276E+03  0.65864270000E+03 0. -1.
    8880022    1    1    2    0    0 -0.19142445219E+03 -0.16394028046E+03  0.59025029911E+03  0.65977784524E+03  0.15294330000E+03 0.  0.
<mgrwt>
<rscale>  0 0.56705648E+03</rscale>
<asrwt>0</asrwt>
<pdfrwt beam="1">  1        1 0.80045752E-01 0.70521624E+03</pdfrwt>
<pdfrwt beam="2">  1       -1 0.13555200E+00 0.70521624E+03</pdfrwt>
<totfact> 0.19715633E+01</totfact>
</mgrwt>
</event>
<event>
 4    1  0.1521315E-007  0.8130123E+03  0.7818608E-02  0.9683336E-01
         -1   -1    0    0    0  501 -0.00000000000E+00  0.00000000000E+00  0.32354077025E+03  0.32354077029E+03  0.50400000000E-02 0.  1.
          1   -1    0    0  501    0  0.00000000000E+00 -0.00000000000E+00 -0.20089276409E+04  0.20089276409E+04  0.50400000000E-02 0. -1.
    8880023    1    1    2    0    0 -0.39334317870E+03 -0.26918398160E+03 -0.16392338499E+04  0.18297750389E+04  0.65864270000E+03 0.  0.
    8880022    1    1    2    0    0  0.39334317870E+03  0.26918398160E+03 -0.46153020759E+02  0.50269337226E+03  0.15294330000E+03 0.  0.
<mgrwt>
<rscale>  0 0.72017676E+03</rscale>
<asrwt>0</asrwt>
<pdfrwt beam="1">  1        1 0.30906578E+00 0.81301235E+03</pdfrwt>
<pdfrwt beam="2">  1       -1 0.49775504E-01 0.81301235E+03</pdfrwt>
<totfact> 0.12313762E+01</totfact>
</mgrwt>
</event>
<event>
 4    1  0.1521315E-007  0.6772820E+03  0.7818608E-02  0.1010905E+00
         -1   -1    0    0    0  501 -0.00000000000E+00  0.00000000000E+00  0.64085650938E+03  0.64085650940E+03  0.50400000000E-02 0.  1.
          1   -1    0    0  501    0  0.00000000000E+00 -0.00000000000E+00 -0.13799625976E+04  0.13799625976E+04  0.50400000000E-02 0. -1.
    8880023    1    1    2    0    0  0.15646400188E+03  0.20488188820E+02 -0.12738354749E+04  0.14426946223E+04  0.65864270000E+03 0. -1.
    8880022    1    1    2    0    0 -0.15646400188E+03 -0.20488188820E+02  0.53472938672E+03  0.57812448469E+03  0.15294330000E+03 0.  0.
<mgrwt>
<rscale>  0 0.51116607E+03</rscale>
<asrwt>0</asrwt>
<pdfrwt beam="1">  1        1 0.21230194E+00 0.67728204E+03</pdfrwt>
<pdfrwt beam="2">  1       -1 0.98593309E-01 0.67728204E+03</pdfrwt>
<totfact> 0.82043946E+00</totfact>
</mgrwt>
</event>
<event>
 4    1  0.1521315E-007  0.8794986E+03  0.7818608E-02  0.9559778E-01
          1   -1    0    0  501    0  0.00000000000E+00  0.00000000000E+00  0.83882320823E+03  0.83882320825E+03  0.50400000000E-02 0. -1.
         -1   -1    0    0    0  501 -0.00000000000E+00 -0.00000000000E+00 -0.10391488243E+04  0.10391488243E+04  0.50400000000E-02 0.  1.
    8880023    1    1    2    0    0 -0.42138196075E+03  0.40267199825E+03  0.45290261166E+03  0.98926158165E+03  0.65864270000E+03 0.  0.
    8880022    1    1    2    0    0  0.42138196075E+03 -0.40267199825E+03 -0.65322822769E+03  0.88871045087E+03  0.15294330000E+03 0.  0.
<mgrwt>
<rscale>  0 0.80016491E+03</rscale>
<asrwt>0</asrwt>
<pdfrwt beam="1">  1        1 0.12904972E+00 0.87949855E+03</pdfrwt>
<pdfrwt beam="2">  1       -1 0.15986905E+00 0.87949855E+03</pdfrwt>
<totfact> 0.60948213E+00</totfact>
</mgrwt>
</event>
<event>
 4    1  0.1521315E-007  0.1017966E+04  0.7818608E-02  0.9358421E-01
         -1   -1    0    0    0  501 -0.00000000000E+00  0.00000000000E+00  0.83302377161E+03  0.83302377162E+03  0.50400000000E-02 0.  1.
          1   -1    0    0  501    0  0.00000000000E+00 -0.00000000000E+00 -0.15029344509E+04  0.15029344509E+04  0.50400000000E-02 0. -1.
    8880023    1    1    2    0    0 -0.14837722111E+03  0.76185910605E+03 -0.10463785495E+04  0.14598504623E+04  0.65864270000E+03 0. -1.
    8880022    1    1    2    0    0  0.14837722111E+03 -0.76185910605E+03  0.37646787020E+03  0.87610776022E+03  0.15294330000E+03 0.  0.
<mgrwt>
<rscale>  0 0.95577941E+03</rscale>
<asrwt>0</asrwt>
<pdfrwt beam="1">  1        1 0.23122069E+00 0.10179663E+04</pdfrwt>
<pdfrwt beam="2">  1       -1 0.12815750E+00 0.10179663E+04</pdfrwt>
<totfact> 0.34338460E+00</totfact>
</mgrwt>
</event>
<event>
 4    1  0.1521315E-007  0.7691131E+03  0.7818608E-02  0.9782061E-01
          1   -1    0    0  501    0  0.00000000000E+00  0.00000000000E+00  0.16045145471E+04  0.16045145471E+04  0.50400000000E-02 0. -1.
         -1   -1    0    0    0  501 -0.00000000000E+00 -0.00000000000E+00 -0.29028043137E+03  0.29028043141E+03  0.50400000000E-02 0.  1.
    8880023    1    1    2    0    0 -0.17381099157E+03  0.35709178188E+03  0.12453118968E+04  0.14636723431E+04  0.65864270000E+03 0.  0.
    8880022    1    1    2    0    0  0.17381099157E+03 -0.35709178188E+03  0.68922218937E+02  0.43112263540E+03  0.15294330000E+03 0.  0.
<mgrwt>
<rscale>  0 0.66334187E+03</rscale>
<asrwt>0</asrwt>
<pdfrwt beam="1">  1        1 0.24684838E+00 0.76911313E+03</pdfrwt>
<pdfrwt beam="2">  1       -1 0.44658530E-01 0.76911313E+03</pdfrwt>
<totfact> 0.28375515E+01</totfact>
</mgrwt>
</event>
<event>
 4    1  0.1521315E-007  0.6858542E+03  0.7818608E-02  0.1006189E+00
          1   -1    0    0  501    0  0.00000000000E+00  0.00000000000E+00  0.96208428023E+03  0.96208428025E+03  0.50400000000E-02 0. -1.
         -1   -1    0    0    0  501 -0.00000000000E+00 -0.00000000000E+00 -0.27549266091E+03  0.27549266096E+03  0.50400000000E-02 0.  1.
    8880023    1    1    2    0    0 -0.56140183587E+02  0.18284993664E+03  0.71531506747E+03  0.99099529341E+03  0.65864270000E+03 0.  0.
    8880022    1    1    2    0    0  0.56140183587E+02 -0.18284993664E+03 -0.28723448143E+02  0.24658164780E+03  0.15294330000E+03 0.  0.
<mgrwt>
<rscale>  0 0.53017884E+03</rscale>
<asrwt>0</asrwt>
<pdfrwt beam="1">  1        1 0.14801296E+00 0.68585423E+03</pdfrwt>
<pdfrwt beam="2">  1       -1 0.42383487E-01 0.68585423E+03</pdfrwt>
<totfact> 0.91005432E+01</totfact>
</mgrwt>
</event>
<event>
 4    1  0.1521315E-007  0.6930394E+03  0.7818608E-02  0.1002740E+00
         -1   -1    0    0    0  501 -0.00000000000E+00  0.00000000000E+00  0.14418243059E+03  0.14418243068E+03  0.50400000000E-02 0.  1.
          1   -1    0    0  501    0  0.00000000000E+00 -0.00000000000E+00 -0.15960391386E+04  0.15960391386E+04  0.50400000000E-02 0. -1.
    8880023    1    1    2    0    0 -0.12005848576E+03 -0.17910712061E+03 -0.11000984333E+04  0.13002000499E+04  0.65864270000E+03 0.  0.
    8880022    1    1    2    0    0  0.12005848576E+03  0.17910712061E+03 -0.35175827475E+03  0.44002151939E+03  0.15294330000E+03 0.  0.
<mgrwt>
<rscale>  0 0.54464871E+03</rscale>
<asrwt>0</asrwt>
<pdfrwt beam="1">  1        1 0.24554447E+00 0.69303940E+03</pdfrwt>
<pdfrwt beam="2">  1       -1 0.22181913E-01 0.69303940E+03</pdfrwt>
<totfact> 0.99269717E+01</totfact>
</mgrwt>
</event>
<event>
 4    1  0.1521315E-007  0.7028683E+03  0.7818608E-02  0.9985504E-01
         -1   -1    0    0    0  501 -0.00000000000E+00  0.00000000000E+00  0.12229186976E+03  0.12229186986E+03  0.50400000000E-02 0.  1.
          1   -1    0    0  501    0  0.00000000000E+00 -0.00000000000E+00 -0.29118471431E+04  0.29118471431E+04  0.50400000000E-02 0. -1.
    8880023    1    1    2    0    0 -0.28575101221E+02 -0.24371522822E+03 -0.25878201753E+04  0.26815736266E+04  0.65864270000E+03 0. -1.
    8880022    1    1    2    0    0  0.28575101221E+02  0.24371522822E+03 -0.20173509806E+03  0.35256538638E+03  0.15294330000E+03 0.  0.
<mgrwt>
<rscale>  0 0.56290447E+03</rscale>
<asrwt>0</asrwt>
<pdfrwt beam="1">  1        1 0.44797643E+00 0.70286831E+03</pdfrwt>
<pdfrwt beam="2">  1       -1 0.18814136E-01 0.70286831E+03</pdfrwt>
<totfact> 0.16707197E+01</totfact>
</mgrwt>
</event>
<event>
 4    1  0.1521315E-007  0.7987598E+03  0.7818608E-02  0.9713484E-01
         -1   -1    0    0    0  501 -0.00000000000E+00  0.00000000000E+00  0.45457959936E+03  0.45457959939E+03  0.50400000000E-02 0.  1.
          1   -1    0    0  501    0  0.00000000000E+00 -0.00000000000E+00 -0.11061681983E+04  0.11061681983E+04  0.50400000000E-02 0. -1.
    8880023    1    1    2    0    0  0.36523439295E+03 -0.26610315110E+03 -0.72419462608E+03  0.10781813908E+04  0.65864270000E+03 0.  0.
    8880022    1    1    2    0    0 -0.36523439295E+03  0.26610315110E+03  0.72606027166E+02  0.48256640685E+03  0.15294330000E+03 0.  0.
<mgrwt>
<rscale>  0 0.70219605E+03</rscale>
<asrwt>0</asrwt>
<pdfrwt beam="1">  1        1 0.17017972E+00 0.79875982E+03</pdfrwt>
<pdfrwt beam="2">  1       -1 0.69935323E-01 0.79875982E+03</pdfrwt>
<totfact> 0.26526935E+01</totfact>
</mgrwt>
</event>
<event>
 4    1  0.1521315E-007  0.6731600E+03  0.7818608E-02  0.1013492E+00
         -1   -1    0    0    0  501 -0.00000000000E+00  0.00000000000E+00  0.66561630833E+03  0.66561630835E+03  0.50400000000E-02 0.  1.
          1   -1    0    0  501    0  0.00000000000E+00 -0.00000000000E+00 -0.58803040302E+03  0.58803040304E+03  0.50400000000E-02 0. -1.
    8880023    1    1    2    0    0 -0.82372714616E+02 -0.11202169141E+03 -0.36458327565E+03  0.76554901515E+03  0.65864270000E+03 0.  0.
    8880022    1    1    2    0    0  0.82372714616E+02  0.11202169141E+03  0.44216918096E+03  0.48809769623E+03  0.15294330000E+03 0.  0.
<mgrwt>
<rscale>  0 0.50110063E+03</rscale>
<asrwt>0</asrwt>
<pdfrwt beam="1">  1        1 0.90466215E-01 0.67315996E+03</pdfrwt>
<pdfrwt beam="2">  1       -1 0.10240251E+00 0.67315996E+03</pdfrwt>
<totfact> 0.32835986E+01</totfact>
</mgrwt>
</event>
<event>
 4    1  0.1521315E-007  0.6797940E+03  0.7818608E-02  0.1009440E+00
          1   -1    0    0  501    0  0.00000000000E+00  0.00000000000E+00  0.89814577790E+03  0.89814577792E+03  0.50400000000E-02 0. -1.
         -1   -1    0    0    0  501 -0.00000000000E+00 -0.00000000000E+00 -0.15018258243E+04  0.15018258244E+04  0.50400000000E-02 0.  1.
    8880023    1    1    2    0    0  0.10821983559E+03 -0.12883356516E+03  0.75872848729E+03  0.10187191684E+04  0.65864270000E+03 0. -1.
    8880022    1    1    2    0    0 -0.10821983559E+03  0.12883356516E+03 -0.13624085337E+04  0.13812524339E+04  0.15294330000E+03 0.  0.
<mgrwt>
<rscale>  0 0.51697630E+03</rscale>
<asrwt>0</asrwt>
<pdfrwt beam="1">  1        1 0.13817627E+00 0.67979396E+03</pdfrwt>
<pdfrwt beam="2">  1       -1 0.23105013E+00 0.67979396E+03</pdfrwt>
<totfact> 0.17980954E+00</totfact>
</mgrwt>
</event>
<event>
 4    1  0.1521315E-007  0.6978543E+03  0.7818608E-02  0.1000622E+00
         -1   -1    0    0    0  501 -0.00000000000E+00  0.00000000000E+00  0.20547084247E+03  0.20547084253E+03  0.50400000000E-02 0.  1.
          1   -1    0    0  501    0  0.00000000000E+00 -0.00000000000E+00 -0.13656968042E+04  0.13656968042E+04  0.50400000000E-02 0. -1.
    8880023    1    1    2    0    0  0.43167004911E+02  0.22655467050E+03 -0.10749212905E+04  0.12815835502E+04  0.65864270000E+03 0. -1.
    8880022    1    1    2    0    0 -0.43167004911E+02 -0.22655467050E+03 -0.85304671231E+02  0.28958409657E+03  0.15294330000E+03 0.  1.
<mgrwt>
<rscale>  0 0.55378278E+03</rscale>
<asrwt>0</asrwt>
<pdfrwt beam="1">  1        1 0.21010720E+00 0.69785429E+03</pdfrwt>
<pdfrwt beam="2">  1       -1 0.31610900E-01 0.69785429E+03</pdfrwt>
<totfact> 0.77738465E+01</totfact>
</mgrwt>
</event>
<event>
 4    1  0.1521315E-007  0.7009759E+03  0.7818608E-02  0.9993176E-01
          1   -1    0    0  501    0  0.00000000000E+00  0.00000000000E+00  0.20781590229E+04  0.20781590229E+04  0.50400000000E-02 0. -1.
         -1   -1    0    0    0  501 -0.00000000000E+00 -0.00000000000E+00 -0.13998312623E+03  0.13998312632E+03  0.50400000000E-02 0.  1.
    8880023    1    1    2    0    0 -0.12625946755E+03  0.20399901140E+03  0.17269431138E+04  0.18637864079E+04  0.65864270000E+03 0. -1.
    8880022    1    1    2    0    0  0.12625946755E+03 -0.20399901140E+03  0.21123278280E+03  0.35435574123E+03  0.15294330000E+03 0.  0.
<mgrwt>
<rscale>  0 0.55950448E+03</rscale>
<asrwt>0</asrwt>
<pdfrwt beam="1">  1        1 0.31971675E+00 0.70097593E+03</pdfrwt>
<pdfrwt beam="2">  1       -1 0.21535867E-01 0.70097593E+03</pdfrwt>
<totfact> 0.49569667E+01</totfact>
</mgrwt>
</event>
<event>
 4    1  0.1521315E-007  0.9813812E+03  0.7818608E-02  0.9406333E-01
         -1   -1    0    0    0  501 -0.00000000000E+00  0.00000000000E+00  0.12768318016E+04  0.12768318016E+04  0.50400000000E-02 0.  1.
          1   -1    0    0  501    0  0.00000000000E+00 -0.00000000000E+00 -0.11347491287E+04  0.11347491288E+04  0.50400000000E-02 0. -1.
    8880023    1    1    2    0    0 -0.72215404905E+03 -0.88274297743E+02 -0.76099546158E+03  0.12418627625E+04  0.65864270000E+03 0.  0.
    8880022    1    1    2    0    0  0.72215404905E+03  0.88274297743E+02  0.90307813445E+03  0.11697181678E+04  0.15294330000E+03 0.  0.
<mgrwt>
<rscale>  0 0.91556365E+03</rscale>
<asrwt>0</asrwt>
<pdfrwt beam="1">  1        1 0.17457679E+00 0.98138118E+03</pdfrwt>
<pdfrwt beam="2">  1       -1 0.19643566E+00 0.98138118E+03</pdfrwt>
<totfact> 0.19157913E+00</totfact>
</mgrwt>
</event>
<event>
 4    1  0.1521315E-007  0.1269674E+04  0.7818608E-02  0.9092201E-01
          1   -1    0    0  501    0  0.00000000000E+00  0.00000000000E+00  0.22135898807E+04  0.22135898807E+04  0.50400000000E-02 0. -1.
         -1   -1    0    0    0  501 -0.00000000000E+00 -0.00000000000E+00 -0.11523536373E+04  0.11523536373E+04  0.50400000000E-02 0.  1.
    8880023    1    1    2    0    0  0.10019987636E+04  0.41744439672E+03  0.16810445439E+04  0.21066519199E+04  0.65864270000E+03 0.  0.
    8880022    1    1    2    0    0 -0.10019987636E+04 -0.41744439672E+03 -0.61980830045E+03  0.12592915981E+04  0.15294330000E+03 0.  0.
<mgrwt>
<rscale>  0 0.12238875E+04</rscale>
<asrwt>0</asrwt>
<pdfrwt beam="1">  1        1 0.34055229E+00 0.12696738E+04</pdfrwt>
<pdfrwt beam="2">  1       -1 0.17728518E+00 0.12696738E+04</pdfrwt>
<totfact> 0.45215822E-01</totfact>
</mgrwt>
</event>
<event>
 4    1  0.1521315E-007  0.6780313E+03  0.7818608E-02  0.1010460E+00
          1   -1    0    0  501    0  0.00000000000E+00  0.00000000000E+00  0.60622261402E+03  0.60622261404E+03  0.50400000000E-02 0. -1.
         -1   -1    0    0    0  501 -0.00000000000E+00 -0.00000000000E+00 -0.48022714964E+03  0.48022714966E+03  0.50400000000E-02 0.  1.
    8880023    1    1    2    0    0 -0.30890086384E+02  0.15799364220E+03  0.35679183352E+03  0.76617674667E+03  0.65864270000E+03 0.  0.
    8880022    1    1    2    0    0  0.30890086384E+02 -0.15799364220E+03 -0.23079636914E+03  0.32027301703E+03  0.15294330000E+03 0.  0.
<mgrwt>
<rscale>  0 0.51292254E+03</rscale>
<asrwt>0</asrwt>
<pdfrwt beam="1">  1        1 0.93265017E-01 0.67803126E+03</pdfrwt>
<pdfrwt beam="2">  1       -1 0.73881100E-01 0.67803126E+03</pdfrwt>
<totfact> 0.63924654E+01</totfact>
</mgrwt>
</event>
<event>
 4    1  0.1521315E-007  0.9936077E+03  0.7818608E-02  0.9389969E-01
          1   -1    0    0  501    0  0.00000000000E+00  0.00000000000E+00  0.23778491949E+04  0.23778491949E+04  0.50400000000E-02 0. -1.
         -1   -1    0    0    0  501 -0.00000000000E+00 -0.00000000000E+00 -0.84841908493E+03  0.84841908495E+03  0.50400000000E-02 0.  1.
    8880023    1    1    2    0    0  0.32102108531E+03  0.67111213323E+03 -0.46137936091E+03  0.10955031509E+04  0.65864270000E+03 0.  1.
    8880022    1    1    2    0    0 -0.32102108531E+03 -0.67111213323E+03  0.19908094708E+04  0.21307651290E+04  0.15294330000E+03 0.  0.
<mgrwt>
<rscale>  0 0.92905818E+03</rscale>
<asrwt>0</asrwt>
<pdfrwt beam="1">  1        1 0.36582295E+00 0.99360769E+03</pdfrwt>
<pdfrwt beam="2">  1       -1 0.13052601E+00 0.99360769E+03</pdfrwt>
<totfact> 0.84047888E-01</totfact>
</mgrwt>
</event>
<event>
 4    1  0.2477295E-007  0.8326685E+03  0.7818608E-02  0.9644163E-01
          1   -1    0    0  501    0  0.00000000000E+00  0.00000000000E+00  0.14280869497E+04  0.14280869497E+04  0.50400000000E-02 0. -1.
         -1   -1    0    0    0  501 -0.00000000000E+00 -0.00000000000E+00 -0.16700636641E+04  0.16700636641E+04  0.50400000000E-02 0.  1.
    8880023    1    1    2    0    0  0.38666728513E+03 -0.33168509411E+03  0.12569017265E+04  0.15076931875E+04  0.65864270000E+03 0.  0.
    8880022    1    1    2    0    0 -0.38666728513E+03  0.33168509411E+03 -0.14988784410E+04  0.15904574263E+04  0.15294330000E+03 0.  0.
<mgrwt>
<rscale>  0 0.74440917E+03</rscale>
<asrwt>0</asrwt>
<pdfrwt beam="1">  1        1 0.21970568E+00 0.83266848E+03</pdfrwt>
<pdfrwt beam="2">  1       -1 0.25693287E+00 0.83266848E+03</pdfrwt>
<totfact> 0.48099046E-01</totfact>
</mgrwt>
</event>
<event>
 4    1  0.1521315E-007  0.6609741E+03  0.7818608E-02  0.1023180E+00
         -1   -1    0    0    0  501 -0.00000000000E+00  0.00000000000E+00  0.18547603875E+03  0.18547603882E+03  0.50400000000E-02 0.  1.
          1   -1    0    0  501    0  0.00000000000E+00 -0.00000000000E+00 -0.19904688487E+04  0.19904688487E+04  0.50400000000E-02 0. -1.
    8880023    1    1    2    0    0  0.26077122963E+02 -0.48953888131E+02 -0.18829131038E+04  0.19955571809E+04  0.65864270000E+03 0. -1.
    8880022    1    1    2    0    0 -0.26077122963E+02  0.48953888131E+02  0.77920293831E+02  0.18038770665E+03  0.15294330000E+03 0.  0.
<mgrwt>
<rscale>  0 0.46556333E+03</rscale>
<asrwt>0</asrwt>
<pdfrwt beam="1">  1        1 0.30622596E+00 0.66097406E+03</pdfrwt>
<pdfrwt beam="2">  1       -1 0.28534777E-01 0.66097406E+03</pdfrwt>
<totfact> 0.35331732E+01</totfact>
</mgrwt>
</event>
<event>
 4    1  0.1677063E-007  0.8276756E+03  0.7818608E-02  0.9653872E-01
          1   -1    0    0  501    0  0.00000000000E+00  0.00000000000E+00  0.38852356314E+04  0.38852356314E+04  0.50400000000E-02 0. -1.
         -1   -1    0    0    0  501 -0.00000000000E+00 -0.00000000000E+00 -0.78454340773E+03  0.78454340775E+03  0.50400000000E-02 0.  1.
    8880023    1    1    2    0    0 -0.14490209663E+03  0.47983331602E+03  0.37472190594E+04  0.38375379496E+04  0.65864270000E+03 0. -1.
    8880022    1    1    2    0    0  0.14490209663E+03 -0.47983331602E+03 -0.64652683577E+03  0.83224108956E+03  0.15294330000E+03 0.  0.
<mgrwt>
<rscale>  0 0.73830916E+03</rscale>
<asrwt>0</asrwt>
<pdfrwt beam="1">  1        1 0.59772856E+00 0.82767556E+03</pdfrwt>
<pdfrwt beam="2">  1       -1 0.12069898E+00 0.82767556E+03</pdfrwt>
<totfact> 0.80598065E-02</totfact>
</mgrwt>
</event>
<event>
 4    1  0.1521315E-007  0.6765237E+03  0.7818608E-02  0.1011363E+00
         -1   -1    0    0    0  501 -0.00000000000E+00  0.00000000000E+00  0.91447476064E+03  0.91447476066E+03  0.50400000000E-02 0.  1.
          1   -1    0    0  501    0  0.00000000000E+00 -0.00000000000E+00 -0.38066615565E+03  0.38066615569E+03  0.50400000000E-02 0. -1.
    8880023    1    1    2    0    0 -0.11636857342E+03  0.10164842793E+03 -0.43832002358E+02  0.67794210555E+03  0.65864270000E+03 0. -1.
    8880022    1    1    2    0    0  0.11636857342E+03 -0.10164842793E+03  0.57764060735E+03  0.61719881080E+03  0.15294330000E+03 0.  0.
<mgrwt>
<rscale>  0 0.50936664E+03</rscale>
<asrwt>0</asrwt>
<pdfrwt beam="1">  1        1 0.58564025E-01 0.67652365E+03</pdfrwt>
<pdfrwt beam="2">  1       -1 0.14068842E+00 0.67652365E+03</pdfrwt>
<totfact> 0.27355080E+01</totfact>
</mgrwt>
</event>
<event>
 4    1  0.1521315E-007  0.6827088E+03  0.7818608E-02  0.1007831E+00
         -1   -1    0    0    0  501 -0.00000000000E+00  0.00000000000E+00  0.25457904349E+03  0.25457904354E+03  0.50400000000E-02 0.  1.
          1   -1    0    0  501    0  0.00000000000E+00 -0.00000000000E+00 -0.30202345020E+04  0.30202345020E+04  0.50400000000E-02 0. -1.
    8880023    1    1    2    0    0  0.11311093203E+03  0.13959581591E+03 -0.29161199202E+04  0.29949702286E+04  0.65864270000E+03 0. -1.
    8880022    1    1    2    0    0 -0.11311093203E+03 -0.13959581591E+03  0.15046446173E+03  0.27984331692E+03  0.15294330000E+03 0.  0.
<mgrwt>
<rscale>  0 0.52345811E+03</rscale>
<asrwt>0</asrwt>
<pdfrwt beam="1">  1        1 0.46465144E+00 0.68270878E+03</pdfrwt>
<pdfrwt beam="2">  1       -1 0.39166009E-01 0.68270878E+03</pdfrwt>
<totfact> 0.39669730E+00</totfact>
</mgrwt>
</event>
<event>
 4    1  0.1521315E-007  0.7175439E+03  0.7818608E-02  0.9930986E-01
          1   -1    0    0  501    0  0.00000000000E+00  0.00000000000E+00  0.16792982635E+04  0.16792982635E+04  0.50400000000E-02 0. -1.
         -1   -1    0    0    0  501 -0.00000000000E+00 -0.00000000000E+00 -0.45169426230E+03  0.45169426233E+03  0.50400000000E-02 0.  1.
    8880023    1    1    2    0    0  0.23377321537E+03 -0.16250893415E+03  0.15290498400E+04  0.16890419442E+04  0.65864270000E+03 0. -1.
    8880022    1    1    2    0    0 -0.23377321537E+03  0.16250893415E+03 -0.30144583875E+03  0.44195058165E+03  0.15294330000E+03 0.  0.
<mgrwt>
<rscale>  0 0.58782804E+03</rscale>
<asrwt>0</asrwt>
<pdfrwt beam="1">  1        1 0.25835358E+00 0.71754392E+03</pdfrwt>
<pdfrwt beam="2">  1       -1 0.69491425E-01 0.71754392E+03</pdfrwt>
<totfact> 0.10784693E+01</totfact>
</mgrwt>
</event>
<event>
 4    1  0.1521315E-007  0.7193196E+03  0.7818608E-02  0.9924895E-01
         -1   -1    0    0    0  501 -0.00000000000E+00  0.00000000000E+00  0.54687867803E+03  0.54687867805E+03  0.50400000000E-02 0.  1.
          1   -1    0    0  501    0  0.00000000000E+00 -0.00000000000E+00 -0.94588380209E+03  0.94588380210E+03  0.50400000000E-02 0. -1.
    8880023    1    1    2    0    0  0.21516510225E+03  0.19316958800E+03  0.25364142612E+03  0.76272845120E+03  0.65864270000E+03 0.  1.
    8880022    1    1    2    0    0 -0.21516510225E+03 -0.19316958800E+03 -0.65264655018E+03  0.73003402895E+03  0.15294330000E+03 0.  0.
<mgrwt>
<rscale>  0 0.59069800E+03</rscale>
<asrwt>0</asrwt>
<pdfrwt beam="1">  1        1 0.14552059E+00 0.71931962E+03</pdfrwt>
<pdfrwt beam="2">  1       -1 0.84135181E-01 0.71931962E+03</pdfrwt>
<totfact> 0.24112912E+01</totfact>
</mgrwt>
</event>
<event>
 4    1  0.1521315E-007  0.7443534E+03  0.7818608E-02  0.9847443E-01
         -1   -1    0    0    0  501 -0.00000000000E+00  0.00000000000E+00  0.86928720360E+03  0.86928720362E+03  0.50400000000E-02 0.  1.
          1   -1    0    0  501    0  0.00000000000E+00 -0.00000000000E+00 -0.11878877025E+04  0.11878877025E+04  0.50400000000E-02 0. -1.
    8880023    1    1    2    0    0  0.15424779460E+03 -0.31057924169E+03 -0.10183442294E+04  0.12613829805E+04  0.65864270000E+03 0. -1.
    8880022    1    1    2    0    0 -0.15424779460E+03  0.31057924169E+03  0.69974373054E+03  0.79579192567E+03  0.15294330000E+03 0.  0.
<mgrwt>
<rscale>  0 0.62877483E+03</rscale>
<asrwt>0</asrwt>
<pdfrwt beam="1">  1        1 0.18275196E+00 0.74435345E+03</pdfrwt>
<pdfrwt beam="2">  1       -1 0.13373649E+00 0.74435345E+03</pdfrwt>
<totfact> 0.53456462E+00</totfact>
</mgrwt>
</event>
<event>
 4    1  0.1521315E-007  0.8196013E+03  0.7818608E-02  0.9669914E-01
         -1   -1    0    0    0  501 -0.00000000000E+00  0.00000000000E+00  0.12823196664E+04  0.12823196664E+04  0.50400000000E-02 0.  1.
          1   -1    0    0  501    0  0.00000000000E+00 -0.00000000000E+00 -0.88383342106E+03  0.88383342108E+03  0.50400000000E-02 0. -1.
    8880023    1    1    2    0    0 -0.48742402691E+03  0.18813574204E+02 -0.61925406107E+03  0.10272399578E+04  0.65864270000E+03 0.  0.
    8880022    1    1    2    0    0  0.48742402691E+03 -0.18813574204E+02  0.10177403064E+04  0.11389131297E+04  0.15294330000E+03 0.  0.
<mgrwt>
<rscale>  0 0.72836688E+03</rscale>
<asrwt>0</asrwt>
<pdfrwt beam="1">  1        1 0.13597437E+00 0.81960133E+03</pdfrwt>
<pdfrwt beam="2">  1       -1 0.19727995E+00 0.81960133E+03</pdfrwt>
<totfact> 0.30340123E+00</totfact>
</mgrwt>
</event>
<event>
 4    1  0.1521315E-007  0.1006901E+04  0.7818608E-02  0.9372584E-01
         -1   -1    0    0    0  501 -0.00000000000E+00  0.00000000000E+00  0.83000327381E+03  0.83000327383E+03  0.50400000000E-02 0.  1.
          1   -1    0    0  501    0  0.00000000000E+00 -0.00000000000E+00 -0.20616985834E+04  0.20616985834E+04  0.50400000000E-02 0. -1.
    8880023    1    1    2    0    0 -0.13511679224E+02 -0.76148350749E+03 -0.17064036384E+04  0.19813286656E+04  0.65864270000E+03 0.  0.
    8880022    1    1    2    0    0  0.13511679224E+02  0.76148350749E+03  0.47470832880E+03  0.91037319166E+03  0.15294330000E+03 0.  0.
<mgrwt>
<rscale>  0 0.94366665E+03</rscale>
<asrwt>0</asrwt>
<pdfrwt beam="1">  1        1 0.31718440E+00 0.10069011E+04</pdfrwt>
<pdfrwt beam="2">  1       -1 0.12769281E+00 0.10069011E+04</pdfrwt>
<totfact> 0.14510353E+00</totfact>
</mgrwt>
</event>
<event>
 4    1  0.1521315E-007  0.8444935E+03  0.7818608E-02  0.9621765E-01
          1   -1    0    0  501    0  0.00000000000E+00  0.00000000000E+00  0.54204847750E+03  0.54204847753E+03  0.50400000000E-02 0. -1.
         -1   -1    0    0    0  501 -0.00000000000E+00 -0.00000000000E+00 -0.11531121152E+04  0.11531121152E+04  0.50400000000E-02 0.  1.
    8880023    1    1    2    0    0  0.43824189082E+03  0.29547097622E+03 -0.74802285928E+03  0.11281433672E+04  0.65864270000E+03 0.  0.
    8880022    1    1    2    0    0 -0.43824189082E+03 -0.29547097622E+03  0.13695922160E+03  0.56701722553E+03  0.15294330000E+03 0.  0.
<mgrwt>
<rscale>  0 0.75872235E+03</rscale>
<asrwt>0</asrwt>
<pdfrwt beam="1">  1        1 0.83392074E-01 0.84449349E+03</pdfrwt>
<pdfrwt beam="2">  1       -1 0.17740186E+00 0.84449349E+03</pdfrwt>
<totfact> 0.87741668E+00</totfact>
</mgrwt>
</event>
<event>
 4    1  0.1521315E-007  0.7773370E+03  0.7818608E-02  0.9762130E-01
         -1   -1    0    0    0  501 -0.00000000000E+00  0.00000000000E+00  0.95454854655E+03  0.95454854656E+03  0.50400000000E-02 0.  1.
          1   -1    0    0  501    0  0.00000000000E+00 -0.00000000000E+00 -0.76064403669E+03  0.76064403671E+03  0.50400000000E-02 0. -1.
    8880023    1    1    2    0    0  0.41140925370E+03  0.34424187451E+02 -0.47752134456E+03  0.91229350512E+03  0.65864270000E+03 0. -1.
    8880022    1    1    2    0    0 -0.41140925370E+03 -0.34424187451E+02  0.67142585441E+03  0.80289907815E+03  0.15294330000E+03 0.  0.
<mgrwt>
<rscale>  0 0.67435071E+03</rscale>
<asrwt>0</asrwt>
<pdfrwt beam="1">  1        1 0.11702216E+00 0.77733700E+03</pdfrwt>
<pdfrwt beam="2">  1       -1 0.14685362E+00 0.77733700E+03</pdfrwt>
<totfact> 0.90950148E+00</totfact>
</mgrwt>
</event>
<event>
 4    1  0.1521315E-007  0.6758305E+03  0.7818608E-02  0.1011788E+00
         -1   -1    0    0    0  501 -0.00000000000E+00  0.00000000000E+00  0.31963090895E+03  0.31963090899E+03  0.50400000000E-02 0.  1.
          1   -1    0    0  501    0  0.00000000000E+00 -0.00000000000E+00 -0.84580632597E+03  0.84580632599E+03  0.50400000000E-02 0. -1.
    8880023    1    1    2    0    0 -0.15078331285E+03  0.14178565002E+02 -0.63226146292E+03  0.92547361005E+03  0.65864270000E+03 0.  0.
    8880022    1    1    2    0    0  0.15078331285E+03 -0.14178565002E+02  0.10608604590E+03  0.23996362493E+03  0.15294330000E+03 0.  0.
<mgrwt>
<rscale>  0 0.50770229E+03</rscale>
<asrwt>0</asrwt>
<pdfrwt beam="1">  1        1 0.13012405E+00 0.67583049E+03</pdfrwt>
<pdfrwt beam="2">  1       -1 0.49173986E-01 0.67583049E+03</pdfrwt>
<totfact> 0.85852910E+01</totfact>
</mgrwt>
</event>
<event>
 4    1  0.1521315E-007  0.6826587E+03  0.7818608E-02  0.1007858E+00
          1   -1    0    0  501    0  0.00000000000E+00  0.00000000000E+00  0.20485326781E+04  0.20485326781E+04  0.50400000000E-02 0. -1.
         -1   -1    0    0    0  501 -0.00000000000E+00 -0.00000000000E+00 -0.10743526596E+03  0.10743526608E+03  0.50400000000E-02 0.  1.
    8880023    1    1    2    0    0  0.16040027454E+03 -0.80526067762E+02  0.16167219191E+04  0.17549395048E+04  0.65864270000E+03 0. -1.
    8880022    1    1    2    0    0 -0.16040027454E+03  0.80526067762E+02  0.32437549302E+03  0.40102843933E+03  0.15294330000E+03 0.  0.
<mgrwt>
<rscale>  0 0.52334890E+03</rscale>
<asrwt>0</asrwt>
<pdfrwt beam="1">  1        1 0.31515885E+00 0.68265870E+03</pdfrwt>
<pdfrwt beam="2">  1       -1 0.16528503E-01 0.68265870E+03</pdfrwt>
<totfact> 0.80584225E+01</totfact>
</mgrwt>
</event>
<event>
 4    1  0.1521315E-007  0.8153955E+03  0.7818608E-02  0.9678446E-01
          1   -1    0    0  501    0  0.00000000000E+00  0.00000000000E+00  0.12398261459E+04  0.12398261459E+04  0.50400000000E-02 0. -1.
         -1   -1    0    0    0  501 -0.00000000000E+00 -0.00000000000E+00 -0.61887242708E+03  0.61887242710E+03  0.50400000000E-02 0.  1.
    8880023    1    1    2    0    0  0.22469684014E+03 -0.42493637479E+03  0.95343151410E+03  0.12545522910E+04  0.65864270000E+03 0. -1.
    8880022    1    1    2    0    0 -0.22469684014E+03  0.42493637479E+03 -0.33247779532E+03  0.60414628194E+03  0.15294330000E+03 0.  0.
<mgrwt>
<rscale>  0 0.72314735E+03</rscale>
<asrwt>0</asrwt>
<pdfrwt beam="1">  1        1 0.19074248E+00 0.81539549E+03</pdfrwt>
<pdfrwt beam="2">  1       -1 0.95211144E-01 0.81539549E+03</pdfrwt>
<totfact> 0.10920613E+01</totfact>
</mgrwt>
</event>
<event>
 4    1  0.1521315E-007  0.6703444E+03  0.7818608E-02  0.1015417E+00
          1   -1    0    0  501    0  0.00000000000E+00  0.00000000000E+00  0.42689541402E+03  0.42689541405E+03  0.50400000000E-02 0. -1.
         -1   -1    0    0    0  501 -0.00000000000E+00 -0.00000000000E+00 -0.44593114733E+03  0.44593114736E+03  0.50400000000E-02 0.  1.
    8880023    1    1    2    0    0  0.77085284800E+02  0.98026608675E+02  0.24299368276E+02  0.67078463213E+03  0.65864270000E+03 0. -1.
    8880022    1    1    2    0    0 -0.77085284800E+02 -0.98026608675E+02 -0.43335101593E+02  0.20204192928E+03  0.15294330000E+03 0. -1.
<mgrwt>
<rscale>  0 0.49377280E+03</rscale>
<asrwt>0</asrwt>
<pdfrwt beam="1">  1        1 0.65676217E-01 0.67034436E+03</pdfrwt>
<pdfrwt beam="2">  1       -1 0.68604792E-01 0.67034436E+03</pdfrwt>
<totfact> 0.12079128E+02</totfact>
</mgrwt>
</event>
<event>
 4    1  0.1521315E-007  0.7797520E+03  0.7818608E-02  0.9756420E-01
          1   -1    0    0  501    0  0.00000000000E+00  0.00000000000E+00  0.85995670537E+03  0.85995670538E+03  0.50400000000E-02 0. -1.
         -1   -1    0    0    0  501 -0.00000000000E+00 -0.00000000000E+00 -0.47637612874E+03  0.47637612877E+03  0.50400000000E-02 0.  1.
    8880023    1    1    2    0    0 -0.35225650163E+03 -0.22387126888E+03  0.42818959588E+03  0.88958390512E+03  0.65864270000E+03 0.  0.
    8880022    1    1    2    0    0  0.35225650163E+03  0.22387126888E+03 -0.44609019248E+02  0.44674892903E+03  0.15294330000E+03 0.  0.
<mgrwt>
<rscale>  0 0.67754676E+03</rscale>
<asrwt>0</asrwt>
<pdfrwt beam="1">  1        1 0.13230103E+00 0.77975201E+03</pdfrwt>
<pdfrwt beam="2">  1       -1 0.73288635E-01 0.77975201E+03</pdfrwt>
<totfact> 0.37658840E+01</totfact>
</mgrwt>
</event>
<event>
 4    1  0.1521315E-007  0.8809388E+03  0.7818608E-02  0.9557351E-01
         -1   -1    0    0    0  501 -0.00000000000E+00  0.00000000000E+00  0.15255465081E+04  0.15255465081E+04  0.50400000000E-02 0.  1.
          1   -1    0    0  501    0  0.00000000000E+00 -0.00000000000E+00 -0.65997223522E+03  0.65997223524E+03  0.50400000000E-02 0. -1.
    8880023    1    1    2    0    0 -0.58134609427E+03 -0.65419509924E+02 -0.25076354792E+03  0.91593425355E+03  0.65864270000E+03 0.  0.
    8880022    1    1    2    0    0  0.58134609427E+03  0.65419509924E+02  0.11163378208E+04  0.12695844898E+04  0.15294330000E+03 0.  0.
<mgrwt>
<rscale>  0 0.80184464E+03</rscale>
<asrwt>0</asrwt>
<pdfrwt beam="1">  1        1 0.10153419E+00 0.88093882E+03</pdfrwt>
<pdfrwt beam="2">  1       -1 0.23469946E+00 0.88093882E+03</pdfrwt>
<totfact> 0.26742637E+00</totfact>
</mgrwt>
</event>
<event>
 4    1  0.1521315E-007  0.9603367E+03  0.7818608E-02  0.9435395E-01
         -1   -1    0    0    0  501 -0.00000000000E+00  0.00000000000E+00  0.18471382553E+04  0.18471382553E+04  0.50400000000E-02 0.  1.
          1   -1    0    0  501    0  0.00000000000E+00 -0.00000000000E+00 -0.47279263657E+03  0.47279263660E+03  0.50400000000E-02 0. -1.
    8880023    1    1    2    0    0 -0.90512515571E+02  0.69299623924E+03  0.25864502083E+03  0.99455706530E+03  0.65864270000E+03 0.  0.
    8880022    1    1    2    0    0  0.90512515571E+02 -0.69299623924E+03  0.11157005979E+04  0.13253738266E+04  0.15294330000E+03 0.  0.
<mgrwt>
<rscale>  0 0.89219161E+03</rscale>
<asrwt>0</asrwt>
<pdfrwt beam="1">  1        1 0.72737328E-01 0.96033666E+03</pdfrwt>
<pdfrwt beam="2">  1       -1 0.28417512E+00 0.96033666E+03</pdfrwt>
<totfact> 0.20370776E+00</totfact>
</mgrwt>
</event>
<event>
 4    1  0.1521315E-007  0.7751685E+03  0.7818608E-02  0.9767311E-01
         -1   -1    0    0    0  501 -0.00000000000E+00  0.00000000000E+00  0.43103909868E+03  0.43103909870E+03  0.50400000000E-02 0.  1.
          1   -1    0    0  501    0  0.00000000000E+00 -0.00000000000E+00 -0.22742112763E+04  0.22742112763E+04  0.50400000000E-02 0. -1.
    8880023    1    1    2    0    0 -0.39128767324E+03  0.11819446026E+03 -0.20721557297E+04  0.22124004041E+04  0.65864270000E+03 0. -1.
    8880022    1    1    2    0    0  0.39128767324E+03 -0.11819446026E+03  0.22898355210E+03  0.49284997089E+03  0.15294330000E+03 0.  0.
<mgrwt>
<rscale>  0 0.67146708E+03</rscale>
<asrwt>0</asrwt>
<pdfrwt beam="1">  1        1 0.34987865E+00 0.77516848E+03</pdfrwt>
<pdfrwt beam="2">  1       -1 0.66313709E-01 0.77516848E+03</pdfrwt>
<totfact> 0.46919512E+00</totfact>
</mgrwt>
</event>
<event>
 4    1  0.1521315E-007  0.6795691E+03  0.7818608E-02  0.1009568E+00
         -1   -1    0    0    0  501 -0.00000000000E+00  0.00000000000E+00  0.41101367855E+04  0.41101367855E+04  0.50400000000E-02 0.  1.
          1   -1    0    0  501    0  0.00000000000E+00 -0.00000000000E+00 -0.15421498844E+03  0.15421498852E+03  0.50400000000E-02 0. -1.
    8880023    1    1    2    0    0 -0.16732016079E+03 -0.28238028977E+01  0.61742215462E+03  0.91816356568E+03  0.65864270000E+03 0.  0.
    8880022    1    1    2    0    0  0.16732016079E+03  0.28238028977E+01  0.33384996424E+04  0.33461882083E+04  0.15294330000E+03 0.  0.
<mgrwt>
<rscale>  0 0.51646518E+03</rscale>
<asrwt>0</asrwt>
<pdfrwt beam="1">  1        1 0.23725380E-01 0.67956914E+03</pdfrwt>
<pdfrwt beam="2">  1       -1 0.63232881E+00 0.67956914E+03</pdfrwt>
<totfact> 0.72493747E-02</totfact>
</mgrwt>
</event>
<event>
 4    1  0.1521315E-007  0.1259243E+04  0.7818608E-02  0.9101581E-01
         -1   -1    0    0    0  501 -0.00000000000E+00  0.00000000000E+00  0.14600202460E+04  0.14600202460E+04  0.50400000000E-02 0.  1.
          1   -1    0    0  501    0  0.00000000000E+00 -0.00000000000E+00 -0.98704373396E+03  0.98704373397E+03  0.50400000000E-02 0. -1.
    8880023    1    1    2    0    0  0.29250075392E+02 -0.10728589405E+04  0.51896182500E+03  0.13619887867E+04  0.65864270000E+03 0.  0.
    8880022    1    1    2    0    0 -0.29250075392E+02  0.10728589405E+04 -0.45985312956E+02  0.10850751933E+04  0.15294330000E+03 0.  0.
<mgrwt>
<rscale>  0 0.12129683E+04</rscale>
<asrwt>0</asrwt>
<pdfrwt beam="1">  1        1 0.15185288E+00 0.12592427E+04</pdfrwt>
<pdfrwt beam="2">  1       -1 0.22461850E+00 0.12592427E+04</pdfrwt>
<totfact> 0.15480927E+00</totfact>
</mgrwt>
</event>
<event>
 4    1  0.1521315E-007  0.6734888E+03  0.7818608E-02  0.1013276E+00
          1   -1    0    0  501    0  0.00000000000E+00  0.00000000000E+00  0.26541103339E+04  0.26541103339E+04  0.50400000000E-02 0. -1.
         -1   -1    0    0    0  501 -0.00000000000E+00 -0.00000000000E+00 -0.18276159250E+03  0.18276159257E+03  0.50400000000E-02 0.  1.
    8880023    1    1    2    0    0  0.89746705607E+02 -0.10827054232E+03  0.25323122473E+04  0.26203420589E+04  0.65864270000E+03 0. -1.
    8880022    1    1    2    0    0 -0.89746705607E+02  0.10827054232E+03 -0.60963505883E+02  0.21652986761E+03  0.15294330000E+03 0.  0.
<mgrwt>
<rscale>  0 0.50193078E+03</rscale>
<asrwt>0</asrwt>
<pdfrwt beam="1">  1        1 0.40832466E+00 0.67348882E+03</pdfrwt>
<pdfrwt beam="2">  1       -1 0.28117168E-01 0.67348882E+03</pdfrwt>
<totfact> 0.12899748E+01</totfact>
</mgrwt>
</event>
<event>
 4    1  0.1521315E-007  0.7541911E+03  0.7818608E-02  0.9820385E-01
          1   -1    0    0  501    0  0.00000000000E+00  0.00000000000E+00  0.86587280102E+03  0.86587280104E+03  0.50400000000E-02 0. -1.
         -1   -1    0    0    0  501 -0.00000000000E+00 -0.00000000000E+00 -0.81081200645E+03  0.81081200646E+03  0.50400000000E-02 0.  1.
    8880023    1    1    2    0    0 -0.33584996901E+03  0.14899286644E+03  0.62640019130E+03  0.98039863416E+03  0.65864270000E+03 0.  0.
    8880022    1    1    2    0    0  0.33584996901E+03 -0.14899286644E+03 -0.57133939672E+03  0.69628617335E+03  0.15294330000E+03 0.  1.
<mgrwt>
<rscale>  0 0.64279957E+03</rscale>
<asrwt>0</asrwt>
<pdfrwt beam="1">  1        1 0.13321120E+00 0.75419114E+03</pdfrwt>
<pdfrwt beam="2">  1       -1 0.12474031E+00 0.75419114E+03</pdfrwt>
<totfact> 0.11256867E+01</totfact>
</mgrwt>
</event>
<event>
 4    1  0.1521315E-007  0.7381036E+03  0.7818608E-02  0.9865506E-01
         -1   -1    0    0    0  501 -0.00000000000E+00  0.00000000000E+00  0.29692090738E+03  0.29692090742E+03  0.50400000000E-02 0.  1.
          1   -1    0    0  501    0  0.00000000000E+00 -0.00000000000E+00 -0.43946007595E+04  0.43946007595E+04  0.50400000000E-02 0. -1.
    8880023    1    1    2    0    0  0.32631136841E+03 -0.67138230015E+02 -0.42359196010E+04  0.42997455418E+04  0.65864270000E+03 0. -1.
    8880022    1    1    2    0    0 -0.32631136841E+03  0.67138230015E+02  0.13823974890E+03  0.39177612519E+03  0.15294330000E+03 0.  0.
<mgrwt>
<rscale>  0 0.61962526E+03</rscale>
<asrwt>0</asrwt>
<pdfrwt beam="1">  1        1 0.67609238E+00 0.73810355E+03</pdfrwt>
<pdfrwt beam="2">  1       -1 0.45680143E-01 0.73810355E+03</pdfrwt>
<totfact> 0.22245230E-01</totfact>
</mgrwt>
</event>
<event>
 4    1  0.1521315E-007  0.8000563E+03  0.7818608E-02  0.9710674E-01
          1   -1    0    0  501    0  0.00000000000E+00  0.00000000000E+00  0.66763274230E+03  0.66763274232E+03  0.50400000000E-02 0. -1.
         -1   -1    0    0    0  501 -0.00000000000E+00 -0.00000000000E+00 -0.23215255284E+04  0.23215255284E+04  0.50400000000E-02 0.  1.
    8880023    1    1    2    0    0 -0.36679117355E+03 -0.26785095641E+03  0.38984539303E+03  0.88998288555E+03  0.65864270000E+03 0.  0.
    8880022    1    1    2    0    0  0.36679117355E+03  0.26785095641E+03 -0.20437381792E+04  0.20991753852E+04  0.15294330000E+03 0.  0.
<mgrwt>
<rscale>  0 0.70384790E+03</rscale>
<asrwt>0</asrwt>
<pdfrwt beam="1">  1        1 0.10271273E+00 0.80005631E+03</pdfrwt>
<pdfrwt beam="2">  1       -1 0.35715777E+00 0.80005631E+03</pdfrwt>
<totfact> 0.43117960E-01</totfact>
</mgrwt>
</event>
<event>
 4    1  0.1521315E-007  0.8672075E+03  0.7818608E-02  0.9580869E-01
          1   -1    0    0  501    0  0.00000000000E+00  0.00000000000E+00  0.10217753477E+04  0.10217753477E+04  0.50400000000E-02 0. -1.
         -1   -1    0    0    0  501 -0.00000000000E+00 -0.00000000000E+00 -0.10064251320E+04  0.10064251320E+04  0.50400000000E-02 0.  1.
    8880023    1    1    2    0    0  0.14957233156E+03 -0.54393634442E+03  0.70970160978E+03  0.11205914556E+04  0.65864270000E+03 0. -1.
    8880022    1    1    2    0    0 -0.14957233156E+03  0.54393634442E+03 -0.69435139407E+03  0.90760902409E+03  0.15294330000E+03 0.  0.
<mgrwt>
<rscale>  0 0.78575438E+03</rscale>
<asrwt>0</asrwt>
<pdfrwt beam="1">  1        1 0.15719621E+00 0.86720749E+03</pdfrwt>
<pdfrwt beam="2">  1       -1 0.15483464E+00 0.86720749E+03</pdfrwt>
<totfact> 0.47477464E+00</totfact>
</mgrwt>
</event>
<event>
 4    1  0.1521315E-007  0.7601995E+03  0.7818608E-02  0.9804591E-01
          1   -1    0    0  501    0  0.00000000000E+00  0.00000000000E+00  0.23923769746E+04  0.23923769746E+04  0.50400000000E-02 0. -1.
         -1   -1    0    0    0  501 -0.00000000000E+00 -0.00000000000E+00 -0.53556739113E+03  0.53556739115E+03  0.50400000000E-02 0.  1.
    8880023    1    1    2    0    0 -0.15276071520E+03  0.34750142504E+03  0.22411162496E+04  0.23665386807E+04  0.65864270000E+03 0. -1.
    8880022    1    1    2    0    0  0.15276071520E+03 -0.34750142504E+03 -0.38430666619E+03  0.56140568505E+03  0.15294330000E+03 0.  0.
<mgrwt>
<rscale>  0 0.65116731E+03</rscale>
<asrwt>0</asrwt>
<pdfrwt beam="1">  1        1 0.36805799E+00 0.76019950E+03</pdfrwt>
<pdfrwt beam="2">  1       -1 0.82394984E-01 0.76019950E+03</pdfrwt>
<totfact> 0.24928737E+00</totfact>
</mgrwt>
</event>
<event>
 4    1  0.1521315E-007  0.7369592E+03  0.7818608E-02  0.9868895E-01
          1   -1    0    0  501    0  0.00000000000E+00  0.00000000000E+00  0.40769605461E+03  0.40769605464E+03  0.50400000000E-02 0. -1.
         -1   -1    0    0    0  501 -0.00000000000E+00 -0.00000000000E+00 -0.90310474179E+03  0.90310474180E+03  0.50400000000E-02 0.  1.
    8880023    1    1    2    0    0 -0.97343879967E+02 -0.31594752001E+03 -0.54628235346E+02  0.73898113422E+03  0.65864270000E+03 0.  1.
    8880022    1    1    2    0    0  0.97343879967E+02  0.31594752001E+03 -0.44078045183E+03  0.57181966222E+03  0.15294330000E+03 0. -1.
<mgrwt>
<rscale>  0 0.61792745E+03</rscale>
<asrwt>0</asrwt>
<pdfrwt beam="1">  1        1 0.62722470E-01 0.73695921E+03</pdfrwt>
<pdfrwt beam="2">  1       -1 0.13893919E+00 0.73695921E+03</pdfrwt>
<totfact> 0.25649697E+01</totfact>
</mgrwt>
</event>
<event>
 4    1  0.1521315E-007  0.6789914E+03  0.7818608E-02  0.1009900E+00
         -1   -1    0    0    0  501 -0.00000000000E+00  0.00000000000E+00  0.46067255029E+03  0.46067255031E+03  0.50400000000E-02 0.  1.
          1   -1    0    0  501    0  0.00000000000E+00 -0.00000000000E+00 -0.10501425331E+04  0.10501425331E+04  0.50400000000E-02 0. -1.
    8880023    1    1    2    0    0 -0.10925605130E+03 -0.12362121564E+03 -0.89997404317E+03  0.11273786295E+04  0.65864270000E+03 0. -1.
    8880022    1    1    2    0    0  0.10925605130E+03  0.12362121564E+03  0.31050406032E+03  0.38343645392E+03  0.15294330000E+03 0.  0.
<mgrwt>
<rscale>  0 0.51514387E+03</rscale>
<asrwt>0</asrwt>
<pdfrwt beam="1">  1        1 0.16156039E+00 0.67899138E+03</pdfrwt>
<pdfrwt beam="2">  1       -1 0.70872700E-01 0.67899138E+03</pdfrwt>
<totfact> 0.28841522E+01</totfact>
</mgrwt>
</event>
<event>
 4    1  0.1521315E-007  0.6730263E+03  0.7818608E-02  0.1013580E+00
         -1   -1    0    0    0  501 -0.00000000000E+00  0.00000000000E+00  0.24602985112E+04  0.24602985112E+04  0.50400000000E-02 0.  1.
          1   -1    0    0  501    0  0.00000000000E+00 -0.00000000000E+00 -0.83154142928E+02  0.83154143080E+02  0.50400000000E-02 0. -1.
    8880023    1    1    2    0    0  0.12454218688E+03  0.60360379774E+02  0.20406418171E+04  0.21487632172E+04  0.65864270000E+03 0. -1.
    8880022    1    1    2    0    0 -0.12454218688E+03 -0.60360379774E+02  0.33650255114E+03  0.39468943702E+03  0.15294330000E+03 0.  0.
<mgrwt>
<rscale>  0 0.50076166E+03</rscale>
<asrwt>0</asrwt>
<pdfrwt beam="1">  1        1 0.12792946E-01 0.67302625E+03</pdfrwt>
<pdfrwt beam="2">  1       -1 0.37850744E+00 0.67302625E+03</pdfrwt>
<totfact> 0.51284499E+00</totfact>
</mgrwt>
</event>
<event>
 4    1  0.1521315E-007  0.9880565E+03  0.7818608E-02  0.9397353E-01
          1   -1    0    0  501    0  0.00000000000E+00  0.00000000000E+00  0.57973365937E+03  0.57973365939E+03  0.50400000000E-02 0. -1.
         -1   -1    0    0    0  501 -0.00000000000E+00 -0.00000000000E+00 -0.26269270613E+04  0.26269270613E+04  0.50400000000E-02 0.  1.
    8880023    1    1    2    0    0  0.41235471672E+02  0.73535374596E+03  0.39172759471E+02  0.98883274984E+03  0.65864270000E+03 0.  0.
    8880022    1    1    2    0    0 -0.41235471672E+02 -0.73535374596E+03 -0.20863661614E+04  0.22178279709E+04  0.15294330000E+03 0.  0.
<mgrwt>
<rscale>  0 0.92293853E+03</rscale>
<asrwt>0</asrwt>
<pdfrwt beam="1">  1        1 0.89189795E-01 0.98805653E+03</pdfrwt>
<pdfrwt beam="2">  1       -1 0.40414262E+00 0.98805653E+03</pdfrwt>
<totfact> 0.24794796E-01</totfact>
</mgrwt>
</event>
<event>
 4    1  0.1521315E-007  0.7749198E+03  0.7818608E-02  0.9767909E-01
         -1   -1    0    0    0  501 -0.00000000000E+00  0.00000000000E+00  0.17806780338E+04  0.17806780338E+04  0.50400000000E-02 0.  1.
          1   -1    0    0  501    0  0.00000000000E+00 -0.00000000000E+00 -0.61110900730E+03  0.61110900732E+03  0.50400000000E-02 0. -1.
    8880023    1    1    2    0    0 -0.35789917776E+03 -0.19646548008E+03 -0.32099317196E+03  0.83877132105E+03  0.65864270000E+03 0. -1.
    8880022    1    1    2    0    0  0.35789917776E+03  0.19646548008E+03  0.14905621984E+04  0.15530157200E+04  0.15294330000E+03 0.  0.
<mgrwt>
<rscale>  0 0.67113555E+03</rscale>
<asrwt>0</asrwt>
<pdfrwt beam="1">  1        1 0.94016770E-01 0.77491981E+03</pdfrwt>
<pdfrwt beam="2">  1       -1 0.27395047E+00 0.77491981E+03</pdfrwt>
<totfact> 0.16976238E+00</totfact>
</mgrwt>
</event>
<event>
 4    1  0.1521315E-007  0.7769054E+03  0.7818608E-02  0.9763157E-01
          1   -1    0    0  501    0  0.00000000000E+00  0.00000000000E+00  0.12524510062E+04  0.12524510062E+04  0.50400000000E-02 0. -1.
         -1   -1    0    0    0  501 -0.00000000000E+00 -0.00000000000E+00 -0.44811383788E+03  0.44811383791E+03  0.50400000000E-02 0.  1.
    8880023    1    1    2    0    0 -0.40684579664E+03 -0.65179132234E+02  0.95939355209E+03  0.12345112456E+04  0.65864270000E+03 0. -1.
    8880022    1    1    2    0    0  0.40684579664E+03  0.65179132234E+02 -0.15505638377E+03  0.46605359851E+03  0.15294330000E+03 0.  0.
<mgrwt>
<rscale>  0 0.67377786E+03</rscale>
<asrwt>0</asrwt>
<pdfrwt beam="1">  1        1 0.19268477E+00 0.77690542E+03</pdfrwt>
<pdfrwt beam="2">  1       -1 0.68940591E-01 0.77690542E+03</pdfrwt>
<totfact> 0.21416500E+01</totfact>
</mgrwt>
</event>
<event>
 4    1  0.1521315E-007  0.8832327E+03  0.7818608E-02  0.9553503E-01
          1   -1    0    0  501    0  0.00000000000E+00  0.00000000000E+00  0.16523517847E+04  0.16523517847E+04  0.50400000000E-02 0. -1.
         -1   -1    0    0    0  501 -0.00000000000E+00 -0.00000000000E+00 -0.67446679604E+03  0.67446679605E+03  0.50400000000E-02 0.  1.
    8880023    1    1    2    0    0  0.41970939244E+03 -0.41247287980E+03  0.13505251984E+04  0.16136971118E+04  0.65864270000E+03 0. -1.
    8880022    1    1    2    0    0 -0.41970939244E+03  0.41247287980E+03 -0.37264020973E+03  0.71312146903E+03  0.15294330000E+03 0.  0.
<mgrwt>
<rscale>  0 0.80451627E+03</rscale>
<asrwt>0</asrwt>
<pdfrwt beam="1">  1        1 0.25420797E+00 0.88323273E+03</pdfrwt>
<pdfrwt beam="2">  1       -1 0.10376412E+00 0.88323273E+03</pdfrwt>
<totfact> 0.45989738E+00</totfact>
</mgrwt>
</event>
<event>
 4    1  0.1521315E-007  0.7280581E+03  0.7818608E-02  0.9896207E-01
          1   -1    0    0  501    0  0.00000000000E+00  0.00000000000E+00  0.31989517085E+04  0.31989517085E+04  0.50400000000E-02 0. -1.
         -1   -1    0    0    0  501 -0.00000000000E+00 -0.00000000000E+00 -0.18429138189E+03  0.18429138196E+03  0.50400000000E-02 0.  1.
    8880023    1    1    2    0    0  0.21092634571E+03 -0.22752680589E+03  0.29407444773E+04  0.30295291149E+04  0.65864270000E+03 0. -1.
    8880022    1    1    2    0    0 -0.21092634571E+03  0.22752680589E+03  0.73915849250E+02  0.35371397555E+03  0.15294330000E+03 0.  0.
<mgrwt>
<rscale>  0 0.60445451E+03</rscale>
<asrwt>0</asrwt>
<pdfrwt beam="1">  1        1 0.49214638E+00 0.72805809E+03</pdfrwt>
<pdfrwt beam="2">  1       -1 0.28352522E-01 0.72805809E+03</pdfrwt>
<totfact> 0.51599807E+00</totfact>
</mgrwt>
</event>
<event>
 4    1  0.1521315E-007  0.7446132E+03  0.7818608E-02  0.9846707E-01
          1   -1    0    0  501    0  0.00000000000E+00  0.00000000000E+00  0.94270873971E+03  0.94270873973E+03  0.50400000000E-02 0. -1.
         -1   -1    0    0    0  501 -0.00000000000E+00 -0.00000000000E+00 -0.46653766031E+03  0.46653766034E+03  0.50400000000E-02 0.  1.
    8880023    1    1    2    0    0  0.34328032991E+03 -0.52888529740E+02  0.65316348718E+03  0.99049044858E+03  0.65864270000E+03 0. -1.
    8880022    1    1    2    0    0 -0.34328032991E+03  0.52888529740E+02 -0.17699240778E+03  0.41875595149E+03  0.15294330000E+03 0.  0.
<mgrwt>
<rscale>  0 0.62915079E+03</rscale>
<asrwt>0</asrwt>
<pdfrwt beam="1">  1        1 0.14503211E+00 0.74461318E+03</pdfrwt>
<pdfrwt beam="2">  1       -1 0.71775026E-01 0.74461318E+03</pdfrwt>
<totfact> 0.33788817E+01</totfact>
</mgrwt>
</event>
<event>
 4    1  0.1521315E-007  0.9900874E+03  0.7818608E-02  0.9394643E-01
          1   -1    0    0  501    0  0.00000000000E+00  0.00000000000E+00  0.26671065955E+04  0.26671065956E+04  0.50400000000E-02 0. -1.
         -1   -1    0    0    0  501 -0.00000000000E+00 -0.00000000000E+00 -0.56958749796E+03  0.56958749799E+03  0.50400000000E-02 0.  1.
    8880023    1    1    2    0    0 -0.57324336429E+03  0.46674936273E+03  0.22574725224E+04  0.24650467172E+04  0.65864270000E+03 0.  0.
    8880022    1    1    2    0    0  0.57324336429E+03 -0.46674936273E+03 -0.15995342480E+03  0.77164737636E+03  0.15294330000E+03 0.  0.
<mgrwt>
<rscale>  0 0.92517879E+03</rscale>
<asrwt>0</asrwt>
<pdfrwt beam="1">  1        1 0.41032409E+00 0.99008743E+03</pdfrwt>
<pdfrwt beam="2">  1       -1 0.87628846E-01 0.99008743E+03</pdfrwt>
<totfact> 0.13570692E+00</totfact>
</mgrwt>
</event>
<event>
 4    1  0.1521315E-007  0.1329724E+04  0.7818608E-02  0.9040307E-01
          1   -1    0    0  501    0  0.00000000000E+00  0.00000000000E+00  0.11789038566E+04  0.11789038566E+04  0.50400000000E-02 0. -1.
         -1   -1    0    0    0  501 -0.00000000000E+00 -0.00000000000E+00 -0.16003911988E+04  0.16003911989E+04  0.50400000000E-02 0.  1.
    8880023    1    1    2    0    0 -0.11524047985E+04  0.79492519248E+02  0.35838387519E+03  0.13771728608E+04  0.65864270000E+03 0.  0.
    8880022    1    1    2    0    0  0.11524047985E+04 -0.79492519248E+02 -0.77987121742E+03  0.14021221947E+04  0.15294330000E+03 0.  0.
<mgrwt>
<rscale>  0 0.12865407E+04</rscale>
<asrwt>0</asrwt>
<pdfrwt beam="1">  1        1 0.18136982E+00 0.13297241E+04</pdfrwt>
<pdfrwt beam="2">  1       -1 0.24621403E+00 0.13297241E+04</pdfrwt>
<totfact> 0.78981395E-01</totfact>
</mgrwt>
</event>
<event>
 4    1  0.1521315E-007  0.6589382E+03  0.7818608E-02  0.1025272E+00
         -1   -1    0    0    0  501 -0.00000000000E+00  0.00000000000E+00  0.36305098920E+03  0.36305098924E+03  0.50400000000E-02 0.  1.
          1   -1    0    0  501    0  0.00000000000E+00 -0.00000000000E+00 -0.20641696483E+04  0.20641696483E+04  0.50400000000E-02 0. -1.
    8880023    1    1    2    0    0 -0.19609300365E+02  0.21971410874E+01 -0.19919086663E+04  0.20980704691E+04  0.65864270000E+03 0. -1.
    8880022    1    1    2    0    0  0.19609300365E+02 -0.21971410874E+01  0.29079000721E+03  0.32915016846E+03  0.15294330000E+03 0.  0.
<mgrwt>
<rscale>  0 0.45831312E+03</rscale>
<asrwt>0</asrwt>
<pdfrwt beam="1">  1        1 0.31756456E+00 0.65893821E+03</pdfrwt>
<pdfrwt beam="2">  1       -1 0.55853999E-01 0.65893821E+03</pdfrwt>
<totfact> 0.92988796E+00</totfact>
</mgrwt>
</event>
<event>
 4    1  0.1521315E-007  0.6747251E+03  0.7818608E-02  0.1012480E+00
          1   -1    0    0  501    0  0.00000000000E+00  0.00000000000E+00  0.81687491521E+03  0.81687491523E+03  0.50400000000E-02 0. -1.
         -1   -1    0    0    0  501 -0.00000000000E+00 -0.00000000000E+00 -0.24979842844E+03  0.24979842849E+03  0.50400000000E-02 0.  1.
    8880023    1    1    2    0    0 -0.10391510409E+03  0.10317649776E+03  0.51448028989E+03  0.84849508749E+03  0.65864270000E+03 0. -1.
    8880022    1    1    2    0    0  0.10391510409E+03 -0.10317649776E+03  0.52596196886E+02  0.21817825622E+03  0.15294330000E+03 0.  0.
<mgrwt>
<rscale>  0 0.50500743E+03</rscale>
<asrwt>0</asrwt>
<pdfrwt beam="1">  1        1 0.12567306E+00 0.67472509E+03</pdfrwt>
<pdfrwt beam="2">  1       -1 0.38430528E-01 0.67472509E+03</pdfrwt>
<totfact> 0.14306279E+02</totfact>
</mgrwt>
</event>
<event>
 4    1  0.1521315E-007  0.1037830E+04  0.7818608E-02  0.9333657E-01
          1   -1    0    0  501    0  0.00000000000E+00  0.00000000000E+00  0.97747933640E+03  0.97747933642E+03  0.50400000000E-02 0. -1.
         -1   -1    0    0    0  501 -0.00000000000E+00 -0.00000000000E+00 -0.95613342000E+03  0.95613342002E+03  0.50400000000E-02 0.  1.
    8880023    1    1    2    0    0  0.44675762319E+02 -0.80080217528E+03 -0.26017203841E+03  0.10699438039E+04  0.65864270000E+03 0.  1.
    8880022    1    1    2    0    0 -0.44675762319E+02  0.80080217528E+03  0.28151795482E+03  0.86366895253E+03  0.15294330000E+03 0. -1.
<mgrwt>
<rscale>  0 0.97742522E+03</rscale>
<asrwt>0</asrwt>
<pdfrwt beam="1">  1        1 0.15038144E+00 0.10378296E+04</pdfrwt>
<pdfrwt beam="2">  1       -1 0.14709745E+00 0.10378296E+04</pdfrwt>
<totfact> 0.57861580E+00</totfact>
</mgrwt>
</event>
<event>
 4    1  0.1521315E-007  0.7174220E+03  0.7818608E-02  0.9931407E-01
         -1   -1    0    0    0  501 -0.00000000000E+00  0.00000000000E+00  0.44587504014E+03  0.44587504017E+03  0.50400000000E-02 0.  1.
          1   -1    0    0  501    0  0.00000000000E+00 -0.00000000000E+00 -0.67403755078E+03  0.67403755080E+03  0.50400000000E-02 0. -1.
    8880023    1    1    2    0    0  0.22092078766E+03 -0.17910375368E+03 -0.31798549486E+03  0.78473507008E+03  0.65864270000E+03 0. -1.
    8880022    1    1    2    0    0 -0.22092078766E+03  0.17910375368E+03  0.89822984225E+02  0.33517752089E+03  0.15294330000E+03 0.  0.
<mgrwt>
<rscale>  0 0.58763001E+03</rscale>
<asrwt>0</asrwt>
<pdfrwt beam="1">  1        1 0.10369809E+00 0.71742202E+03</pdfrwt>
<pdfrwt beam="2">  1       -1 0.68596160E-01 0.71742202E+03</pdfrwt>
<totfact> 0.63520825E+01</totfact>
</mgrwt>
</event>
<event>
 4    1  0.1521315E-007  0.7045669E+03  0.7818608E-02  0.9978759E-01
         -1   -1    0    0    0  501 -0.00000000000E+00  0.00000000000E+00  0.52171343660E+03  0.52171343663E+03  0.50400000000E-02 0.  1.
          1   -1    0    0  501    0  0.00000000000E+00 -0.00000000000E+00 -0.55445700028E+03  0.55445700030E+03  0.50400000000E-02 0. -1.
    8880023    1    1    2    0    0  0.21756381832E+03 -0.12357281740E+03 -0.20789045433E+03  0.73459710284E+03  0.65864270000E+03 0.  1.
    8880022    1    1    2    0    0 -0.21756381832E+03  0.12357281740E+03  0.17514689065E+03  0.34157333409E+03  0.15294330000E+03 0.  0.
<mgrwt>
<rscale>  0 0.56591523E+03</rscale>
<asrwt>0</asrwt>
<pdfrwt beam="1">  1        1 0.85301077E-01 0.70456686E+03</pdfrwt>
<pdfrwt beam="2">  1       -1 0.80263606E-01 0.70456686E+03</pdfrwt>
<totfact> 0.60859129E+01</totfact>
</mgrwt>
</event>
<event>
 4    1  0.1521315E-007  0.6878121E+03  0.7818608E-02  0.1005210E+00
          1   -1    0    0  501    0  0.00000000000E+00  0.00000000000E+00  0.12558095870E+04  0.12558095870E+04  0.50400000000E-02 0. -1.
         -1   -1    0    0    0  501 -0.00000000000E+00 -0.00000000000E+00 -0.36512099546E+03  0.36512099549E+03  0.50400000000E-02 0.  1.
    8880023    1    1    2    0    0  0.82695068146E+02  0.18010217776E+03  0.10981732865E+04  0.12957893510E+04  0.65864270000E+03 0. -1.
    8880022    1    1    2    0    0 -0.82695068146E+02 -0.18010217776E+03 -0.20748469499E+03  0.32514123147E+03  0.15294330000E+03 0.  0.
<mgrwt>
<rscale>  0 0.53423477E+03</rscale>
<asrwt>0</asrwt>
<pdfrwt beam="1">  1        1 0.19320147E+00 0.68781209E+03</pdfrwt>
<pdfrwt beam="2">  1       -1 0.56172461E-01 0.68781209E+03</pdfrwt>
<totfact> 0.32352324E+01</totfact>
</mgrwt>
</event>
<event>
 4    1  0.1521315E-007  0.9191959E+03  0.7818608E-02  0.9495893E-01
         -1   -1    0    0    0  501 -0.00000000000E+00  0.00000000000E+00  0.41165023860E+03  0.41165023863E+03  0.50400000000E-02 0.  1.
          1   -1    0    0  501    0  0.00000000000E+00 -0.00000000000E+00 -0.15860974777E+04  0.15860974777E+04  0.50400000000E-02 0. -1.
    8880023    1    1    2    0    0 -0.64117520138E+03 -0.23102427018E+01 -0.89121134218E+03  0.12803041978E+04  0.65864270000E+03 0.  0.
    8880022    1    1    2    0    0  0.64117520138E+03  0.23102427018E+01 -0.28323589696E+03  0.71744351863E+03  0.15294330000E+03 0.  0.
<mgrwt>
<rscale>  0 0.84587293E+03</rscale>
<asrwt>0</asrwt>
<pdfrwt beam="1">  1        1 0.24401499E+00 0.91919594E+03</pdfrwt>
<pdfrwt beam="2">  1       -1 0.63330807E-01 0.91919594E+03</pdfrwt>
<totfact> 0.14648569E+01</totfact>
</mgrwt>
</event>
<event>
 4    1  0.1521315E-007  0.7579357E+03  0.7818608E-02  0.9810481E-01
          1   -1    0    0  501    0  0.00000000000E+00  0.00000000000E+00  0.11566698433E+04  0.11566698433E+04  0.50400000000E-02 0. -1.
         -1   -1    0    0    0  501 -0.00000000000E+00 -0.00000000000E+00 -0.36683777245E+03  0.36683777248E+03  0.50400000000E-02 0.  1.
    8880023    1    1    2    0    0 -0.32414085265E+03 -0.18865053130E+03  0.82089581892E+03  0.11172897865E+04  0.65864270000E+03 0. -1.
    8880022    1    1    2    0    0  0.32414085265E+03  0.18865053130E+03 -0.31063748097E+02  0.40621782922E+03  0.15294330000E+03 0.  0.
<mgrwt>
<rscale>  0 0.64803077E+03</rscale>
<asrwt>0</asrwt>
<pdfrwt beam="1">  1        1 0.17794920E+00 0.75793570E+03</pdfrwt>
<pdfrwt beam="2">  1       -1 0.56436581E-01 0.75793570E+03</pdfrwt>
<totfact> 0.37498852E+01</totfact>
</mgrwt>
</event>
<event>
 4    1  0.1521315E-007  0.8941418E+03  0.7818608E-02  0.9535502E-01
          1   -1    0    0  501    0  0.00000000000E+00  0.00000000000E+00  0.43175843338E+03  0.43175843341E+03  0.50400000000E-02 0. -1.
         -1   -1    0    0    0  501 -0.00000000000E+00 -0.00000000000E+00 -0.16176600080E+04  0.16176600081E+04  0.50400000000E-02 0.  1.
    8880023    1    1    2    0    0  0.56726121303E+03 -0.20950892576E+03 -0.25667720915E+03  0.93025408881E+03  0.65864270000E+03 0.  0.
    8880022    1    1    2    0    0 -0.56726121303E+03  0.20950892576E+03 -0.92922436552E+03  0.11191643527E+04  0.15294330000E+03 0.  0.
<mgrwt>
<rscale>  0 0.81716241E+03</rscale>
<asrwt>0</asrwt>
<pdfrwt beam="1">  1        1 0.66424375E-01 0.89414176E+03</pdfrwt>
<pdfrwt beam="2">  1       -1 0.24887077E+00 0.89414176E+03</pdfrwt>
<totfact> 0.39209366E+00</totfact>
</mgrwt>
</event>
<event>
 4    1  0.1521315E-007  0.1072075E+04  0.7818608E-02  0.9292803E-01
         -1   -1    0    0    0  501 -0.00000000000E+00  0.00000000000E+00  0.88093765910E+03  0.88093765912E+03  0.50400000000E-02 0.  1.
          1   -1    0    0  501    0  0.00000000000E+00 -0.00000000000E+00 -0.19837763973E+04  0.19837763973E+04  0.50400000000E-02 0. -1.
    8880023    1    1    2    0    0 -0.21011916592E+03  0.81938045295E+03  0.39104543229E+03  0.11411665641E+04  0.65864270000E+03 0.  0.
    8880022    1    1    2    0    0  0.21011916592E+03 -0.81938045295E+03 -0.14938841705E+04  0.17235474924E+04  0.15294330000E+03 0.  0.
<mgrwt>
<rscale>  0 0.10144811E+04</rscale>
<asrwt>0</asrwt>
<pdfrwt beam="1">  1        1 0.30519637E+00 0.10720749E+04</pdfrwt>
<pdfrwt beam="2">  1       -1 0.13552887E+00 0.10720749E+04</pdfrwt>
<totfact> 0.13941410E+00</totfact>
</mgrwt>
</event>
<event>
 4    1  0.1521315E-007  0.7174905E+03  0.7818608E-02  0.9931170E-01
          1   -1    0    0  501    0  0.00000000000E+00  0.00000000000E+00  0.39178542451E+03  0.39178542454E+03  0.50400000000E-02 0. -1.
         -1   -1    0    0    0  501 -0.00000000000E+00 -0.00000000000E+00 -0.69181424501E+03  0.69181424502E+03  0.50400000000E-02 0.  1.
    8880023    1    1    2    0    0  0.18084471919E+03  0.21972168946E+03 -0.18875107609E+03  0.74190269461E+03  0.65864270000E+03 0. -1.
    8880022    1    1    2    0    0 -0.18084471919E+03 -0.21972168946E+03 -0.11127774441E+03  0.34169697495E+03  0.15294330000E+03 0.  1.
<mgrwt>
<rscale>  0 0.58774130E+03</rscale>
<asrwt>0</asrwt>
<pdfrwt beam="1">  1        1 0.60274681E-01 0.71749052E+03</pdfrwt>
<pdfrwt beam="2">  1       -1 0.10643296E+00 0.71749052E+03</pdfrwt>
<totfact> 0.52057215E+01</totfact>
</mgrwt>
</event>
<event>
 4    1  0.1521315E-007  0.7330487E+03  0.7818608E-02  0.9880679E-01
         -1   -1    0    0    0  501 -0.00000000000E+00  0.00000000000E+00  0.69879586772E+03  0.69879586774E+03  0.50400000000E-02 0.  1.
          1   -1    0    0  501    0  0.00000000000E+00 -0.00000000000E+00 -0.17419792146E+04  0.17419792146E+04  0.50400000000E-02 0. -1.
    8880023    1    1    2    0    0 -0.14477521172E+03 -0.28738525274E+03 -0.16112819505E+04  0.17701948694E+04  0.65864270000E+03 0. -1.
    8880022    1    1    2    0    0  0.14477521172E+03  0.28738525274E+03  0.56809860366E+03  0.67058021289E+03  0.15294330000E+03 0.  0.
<mgrwt>
<rscale>  0 0.61206872E+03</rscale>
<asrwt>0</asrwt>
<pdfrwt beam="1">  1        1 0.26799680E+00 0.73304867E+03</pdfrwt>
<pdfrwt beam="2">  1       -1 0.10750706E+00 0.73304867E+03</pdfrwt>
<totfact> 0.37748752E+00</totfact>
</mgrwt>
</event>
<event>
 4    1  0.1521315E-007  0.1132085E+04  0.7818608E-02  0.9226147E-01
          1   -1    0    0  501    0  0.00000000000E+00  0.00000000000E+00  0.65855105423E+03  0.65855105424E+03  0.50400000000E-02 0. -1.
         -1   -1    0    0    0  501 -0.00000000000E+00 -0.00000000000E+00 -0.19276977511E+04  0.19276977511E+04  0.50400000000E-02 0.  1.
    8880023    1    1    2    0    0  0.70081588870E+03  0.59721253553E+03 -0.17083798079E+03  0.11449024170E+04  0.65864270000E+03 0.  0.
    8880022    1    1    2    0    0 -0.70081588870E+03 -0.59721253553E+03 -0.10983087161E+04  0.14413463884E+04  0.15294330000E+03 0.  0.
<mgrwt>
<rscale>  0 0.10787574E+04</rscale>
<asrwt>0</asrwt>
<pdfrwt beam="1">  1        1 0.10131555E+00 0.11320848E+04</pdfrwt>
<pdfrwt beam="2">  1       -1 0.29656888E+00 0.11320848E+04</pdfrwt>
<totfact> 0.10344330E+00</totfact>
</mgrwt>
</event>
<event>
 4    1  0.1521315E-007  0.8560855E+03  0.7818608E-02  0.9600565E-01
         -1   -1    0    0    0  501 -0.00000000000E+00  0.00000000000E+00  0.47466373383E+03  0.47466373386E+03  0.50400000000E-02 0.  1.
          1   -1    0    0  501    0  0.00000000000E+00 -0.00000000000E+00 -0.30815470706E+04  0.30815470706E+04  0.50400000000E-02 0. -1.
    8880023    1    1    2    0    0 -0.54651273309E+03  0.19901326122E+02 -0.28219830541E+04  0.29489779236E+04  0.65864270000E+03 0. -1.
    8880022    1    1    2    0    0  0.54651273309E+03 -0.19901326122E+02  0.21509971729E+03  0.60723288087E+03  0.15294330000E+03 0.  0.
<mgrwt>
<rscale>  0 0.77258808E+03</rscale>
<asrwt>0</asrwt>
<pdfrwt beam="1">  1        1 0.47408415E+00 0.85608553E+03</pdfrwt>
<pdfrwt beam="2">  1       -1 0.73025192E-01 0.85608553E+03</pdfrwt>
<totfact> 0.10402287E+00</totfact>
</mgrwt>
</event>
<event>
 4    1  0.1521315E-007  0.1687862E+04  0.7818608E-02  0.8787242E-01
         -1   -1    0    0    0  501 -0.00000000000E+00  0.00000000000E+00  0.22782255613E+04  0.22782255613E+04  0.50400000000E-02 0.  1.
          1   -1    0    0  501    0  0.00000000000E+00 -0.00000000000E+00 -0.22117558674E+04  0.22117558675E+04  0.50400000000E-02 0. -1.
    8880023    1    1    2    0    0  0.15422760617E+04  0.19092935216E+03  0.15824022000E+04  0.23136284050E+04  0.65864270000E+03 0.  0.
    8880022    1    1    2    0    0 -0.15422760617E+04 -0.19092935216E+03 -0.15159325061E+04  0.21763530237E+04  0.15294330000E+03 0.  0.
<mgrwt>
<rscale>  0 0.16553593E+04</rscale>
<asrwt>0</asrwt>
<pdfrwt beam="1">  1        1 0.34027014E+00 0.16878625E+04</pdfrwt>
<pdfrwt beam="2">  1       -1 0.35049624E+00 0.16878625E+04</pdfrwt>
<totfact> 0.30351287E-02</totfact>
</mgrwt>
</event>
<event>
 4    1  0.1521315E-007  0.6720542E+03  0.7818608E-02  0.1014231E+00
          1   -1    0    0  501    0  0.00000000000E+00  0.00000000000E+00  0.15567339360E+04  0.15567339360E+04  0.50400000000E-02 0. -1.
         -1   -1    0    0    0  501 -0.00000000000E+00 -0.00000000000E+00 -0.17806826253E+03  0.17806826261E+03  0.50400000000E-02 0.  1.
    8880023    1    1    2    0    0  0.46096475624E+02  0.12538629828E+03  0.13764090934E+04  0.15317176004E+04  0.65864270000E+03 0. -1.
    8880022    1    1    2    0    0 -0.46096475624E+02 -0.12538629828E+03  0.22565801109E+01  0.20308459821E+03  0.15294330000E+03 0.  0.
<mgrwt>
<rscale>  0 0.49827117E+03</rscale>
<asrwt>0</asrwt>
<pdfrwt beam="1">  1        1 0.23949753E+00 0.67205418E+03</pdfrwt>
<pdfrwt beam="2">  1       -1 0.27395117E-01 0.67205418E+03</pdfrwt>
<totfact> 0.73891539E+01</totfact>
</mgrwt>
</event>
<event>
 4    1  0.1521315E-007  0.8396167E+03  0.7818608E-02  0.9630903E-01
         -1   -1    0    0    0  501 -0.00000000000E+00  0.00000000000E+00  0.99345194561E+03  0.99345194563E+03  0.50400000000E-02 0.  1.
          1   -1    0    0  501    0  0.00000000000E+00 -0.00000000000E+00 -0.89926581996E+03  0.89926581997E+03  0.50400000000E-02 0. -1.
    8880023    1    1    2    0    0 -0.11909193315E+03  0.50691525183E+03  0.69001334277E+03  0.10867725524E+04  0.65864270000E+03 0.  1.
    8880022    1    1    2    0    0  0.11909193315E+03 -0.50691525183E+03 -0.59582721711E+03  0.80594521324E+03  0.15294330000E+03 0.  0.
<mgrwt>
<rscale>  0 0.75284122E+03</rscale>
<asrwt>0</asrwt>
<pdfrwt beam="1">  1        1 0.13834859E+00 0.83961668E+03</pdfrwt>
<pdfrwt beam="2">  1       -1 0.15283876E+00 0.83961668E+03</pdfrwt>
<totfact> 0.61740690E+00</totfact>
</mgrwt>
</event>
<event>
 4    1  0.1521315E-007  0.7085610E+03  0.7818608E-02  0.9963384E-01
         -1   -1    0    0    0  501 -0.00000000000E+00  0.00000000000E+00  0.38188247319E+03  0.38188247322E+03  0.50400000000E-02 0.  1.
          1   -1    0    0  501    0  0.00000000000E+00 -0.00000000000E+00 -0.12645627425E+04  0.12645627425E+04  0.50400000000E-02 0. -1.
    8880023    1    1    2    0    0 -0.21220267458E+02 -0.26038079121E+03 -0.10752103823E+04  0.12876863083E+04  0.65864270000E+03 0. -1.
    8880022    1    1    2    0    0  0.21220267458E+02  0.26038079121E+03  0.19253011302E+03  0.35875890737E+03  0.15294330000E+03 0.  0.
<mgrwt>
<rscale>  0 0.57285357E+03</rscale>
<asrwt>0</asrwt>
<pdfrwt beam="1">  1        1 0.19454811E+00 0.70856098E+03</pdfrwt>
<pdfrwt beam="2">  1       -1 0.58751150E-01 0.70856098E+03</pdfrwt>
<totfact> 0.29144626E+01</totfact>
</mgrwt>
</event>
<event>
 4    1  0.1521315E-007  0.7000472E+03  0.7818608E-02  0.9997005E-01
         -1   -1    0    0    0  501 -0.00000000000E+00  0.00000000000E+00  0.81637783203E+03  0.81637783205E+03  0.50400000000E-02 0.  1.
          1   -1    0    0  501    0  0.00000000000E+00 -0.00000000000E+00 -0.34294289284E+03  0.34294289288E+03  0.50400000000E-02 0. -1.
    8880023    1    1    2    0    0 -0.23365833304E+03  0.40738910587E+02  0.12531585720E+03  0.71117518641E+03  0.65864270000E+03 0. -1.
    8880022    1    1    2    0    0  0.23365833304E+03 -0.40738910587E+02  0.34811908199E+03  0.44814553852E+03  0.15294330000E+03 0.  1.
<mgrwt>
<rscale>  0 0.55781737E+03</rscale>
<asrwt>0</asrwt>
<pdfrwt beam="1">  1        1 0.52760446E-01 0.70004720E+03</pdfrwt>
<pdfrwt beam="2">  1       -1 0.12559659E+00 0.70004720E+03</pdfrwt>
<totfact> 0.41732995E+01</totfact>
</mgrwt>
</event>
<event>
 4    1  0.1764080E-007  0.7062040E+03  0.7818608E-02  0.9972377E-01
          1   -1    0    0  501    0  0.00000000000E+00  0.00000000000E+00  0.21429676644E+04  0.21429676644E+04  0.50400000000E-02 0. -1.
         -1   -1    0    0    0  501 -0.00000000000E+00 -0.00000000000E+00 -0.89501772342E+03  0.89501772343E+03  0.50400000000E-02 0.  1.
    8880023    1    1    2    0    0 -0.17649698973E+03 -0.18374618232E+03  0.20576567329E+04  0.21754712785E+04  0.65864270000E+03 0. -1.
    8880022    1    1    2    0    0  0.17649698973E+03  0.18374618232E+03 -0.80970679192E+03  0.86251410933E+03  0.15294330000E+03 0.  0.
<mgrwt>
<rscale>  0 0.56878232E+03</rscale>
<asrwt>0</asrwt>
<pdfrwt beam="1">  1        1 0.32968733E+00 0.70620397E+03</pdfrwt>
<pdfrwt beam="2">  1       -1 0.13769504E+00 0.70620397E+03</pdfrwt>
<totfact> 0.11165242E+00</totfact>
</mgrwt>
</event>
<event>
 4    1  0.1521315E-007  0.7095507E+03  0.7818608E-02  0.9959673E-01
          1   -1    0    0  501    0  0.00000000000E+00  0.00000000000E+00  0.50447272958E+03  0.50447272961E+03  0.50400000000E-02 0. -1.
         -1   -1    0    0    0  501 -0.00000000000E+00 -0.00000000000E+00 -0.51235183600E+03  0.51235183603E+03  0.50400000000E-02 0.  1.
    8880023    1    1    2    0    0  0.26391541095E+03 -0.78852206902E+00 -0.36259988488E+02  0.71047657170E+03  0.65864270000E+03 0.  0.
    8880022    1    1    2    0    0 -0.26391541095E+03  0.78852206902E+00  0.28380882068E+02  0.30634799393E+03  0.15294330000E+03 0.  1.
<mgrwt>
<rscale>  0 0.57454413E+03</rscale>
<asrwt>0</asrwt>
<pdfrwt beam="1">  1        1 0.77611189E-01 0.70955068E+03</pdfrwt>
<pdfrwt beam="2">  1       -1 0.78823359E-01 0.70955068E+03</pdfrwt>
<totfact> 0.72081443E+01</totfact>
</mgrwt>
</event>
<event>
 4    1  0.1521315E-007  0.9168073E+03  0.7818608E-02  0.9499572E-01
          1   -1    0    0  501    0  0.00000000000E+00  0.00000000000E+00  0.27285212828E+04  0.27285212828E+04  0.50400000000E-02 0. -1.
         -1   -1    0    0    0  501 -0.00000000000E+00 -0.00000000000E+00 -0.47522912775E+03  0.47522912777E+03  0.50400000000E-02 0.  1.
    8880023    1    1    2    0    0 -0.16029783952E+03 -0.61727624634E+03  0.23668026418E+04  0.25381667229E+04  0.65864270000E+03 0.  0.
    8880022    1    1    2    0    0  0.16029783952E+03  0.61727624634E+03 -0.11351048678E+03  0.66558368766E+03  0.15294330000E+03 0.  0.
<mgrwt>
<rscale>  0 0.84315392E+03</rscale>
<asrwt>0</asrwt>
<pdfrwt beam="1">  1        1 0.41977250E+00 0.91680727E+03</pdfrwt>
<pdfrwt beam="2">  1       -1 0.73112174E-01 0.91680727E+03</pdfrwt>
<totfact> 0.18311275E+00</totfact>
</mgrwt>
</event>
<event>
 4    1  0.1521315E-007  0.7327359E+03  0.7818608E-02  0.9881636E-01
          1   -1    0    0  501    0  0.00000000000E+00  0.00000000000E+00  0.11047045459E+04  0.11047045459E+04  0.50400000000E-02 0. -1.
         -1   -1    0    0    0  501 -0.00000000000E+00 -0.00000000000E+00 -0.80298254199E+03  0.80298254201E+03  0.50400000000E-02 0.  1.
    8880023    1    1    2    0    0 -0.32036440343E+03 -0.21408714227E+02  0.93106071336E+03  0.11848105090E+04  0.65864270000E+03 0. -1.
    8880022    1    1    2    0    0  0.32036440343E+03  0.21408714227E+02 -0.62933870948E+03  0.72287657888E+03  0.15294330000E+03 0.  0.
<mgrwt>
<rscale>  0 0.61159618E+03</rscale>
<asrwt>0</asrwt>
<pdfrwt beam="1">  1        1 0.16995455E+00 0.73273589E+03</pdfrwt>
<pdfrwt beam="2">  1       -1 0.12353578E+00 0.73273589E+03</pdfrwt>
<totfact> 0.75204413E+00</totfact>
</mgrwt>
</event>
<event>
 4    1  0.1521315E-007  0.9701131E+03  0.7818608E-02  0.9421748E-01
          1   -1    0    0  501    0  0.00000000000E+00  0.00000000000E+00  0.18822652880E+04  0.18822652880E+04  0.50400000000E-02 0. -1.
         -1   -1    0    0    0  501 -0.00000000000E+00 -0.00000000000E+00 -0.71633931358E+03  0.71633931360E+03  0.50400000000E-02 0.  1.
    8880023    1    1    2    0    0 -0.68323504464E+03  0.20124366027E+03  0.15085556597E+04  0.17935605709E+04  0.65864270000E+03 0. -1.
    8880022    1    1    2    0    0  0.68323504464E+03 -0.20124366027E+03 -0.34262968528E+03  0.80504403064E+03  0.15294330000E+03 0.  0.
<mgrwt>
<rscale>  0 0.90307325E+03</rscale>
<asrwt>0</asrwt>
<pdfrwt beam="1">  1        1 0.28957927E+00 0.97011306E+03</pdfrwt>
<pdfrwt beam="2">  1       -1 0.11020605E+00 0.97011306E+03</pdfrwt>
<totfact> 0.27592395E+00</totfact>
</mgrwt>
</event>
<event>
 4    1  0.1521315E-007  0.9856295E+03  0.7818608E-02  0.9400605E-01
          1   -1    0    0  501    0  0.00000000000E+00  0.00000000000E+00  0.26361396886E+04  0.26361396886E+04  0.50400000000E-02 0. -1.
         -1   -1    0    0    0  501 -0.00000000000E+00 -0.00000000000E+00 -0.71096567093E+03  0.71096567095E+03  0.50400000000E-02 0.  1.
    8880023    1    1    2    0    0 -0.62081123997E+03 -0.39019073021E+03  0.23052817234E+04  0.25071476686E+04  0.65864270000E+03 0.  0.
    8880022    1    1    2    0    0  0.62081123997E+03  0.39019073021E+03 -0.38010770573E+03  0.83995769095E+03  0.15294330000E+03 0.  0.
<mgrwt>
<rscale>  0 0.92025926E+03</rscale>
<asrwt>0</asrwt>
<pdfrwt beam="1">  1        1 0.40555996E+00 0.98562955E+03</pdfrwt>
<pdfrwt beam="2">  1       -1 0.10937933E+00 0.98562955E+03</pdfrwt>
<totfact> 0.86153732E-01</totfact>
</mgrwt>
</event>
<event>
 4    1  0.1521315E-007  0.8991436E+03  0.7818608E-02  0.9527408E-01
         -1   -1    0    0    0  501 -0.00000000000E+00  0.00000000000E+00  0.68411663163E+03  0.68411663165E+03  0.50400000000E-02 0.  1.
          1   -1    0    0  501    0  0.00000000000E+00 -0.00000000000E+00 -0.10474173171E+04  0.10474173171E+04  0.50400000000E-02 0. -1.
    8880023    1    1    2    0    0 -0.42177784817E+03 -0.44356792286E+03 -0.57357357908E+03  0.10665110934E+04  0.65864270000E+03 0. -1.
    8880022    1    1    2    0    0  0.42177784817E+03  0.44356792286E+03  0.21027289361E+03  0.66502285540E+03  0.15294330000E+03 0.  0.
<mgrwt>
<rscale>  0 0.82292970E+03</rscale>
<asrwt>0</asrwt>
<pdfrwt beam="1">  1        1 0.16114113E+00 0.89914363E+03</pdfrwt>
<pdfrwt beam="2">  1       -1 0.10524871E+00 0.89914363E+03</pdfrwt>
<totfact> 0.11929353E+01</totfact>
</mgrwt>
</event>
<event>
 4    1  0.1521315E-007  0.1049108E+04  0.7818608E-02  0.9319955E-01
          1   -1    0    0  501    0  0.00000000000E+00  0.00000000000E+00  0.19965995928E+04  0.19965995928E+04  0.50400000000E-02 0. -1.
         -1   -1    0    0    0  501 -0.00000000000E+00 -0.00000000000E+00 -0.96618715011E+03  0.96618715013E+03  0.50400000000E-02 0.  1.
    8880023    1    1    2    0    0 -0.81232797277E+03 -0.83307784409E+02  0.16298577361E+04  0.19383145690E+04  0.65864270000E+03 0.  0.
    8880022    1    1    2    0    0  0.81232797277E+03  0.83307784409E+02 -0.59944529341E+03  0.10244721739E+04  0.15294330000E+03 0.  0.
<mgrwt>
<rscale>  0 0.98966366E+03</rscale>
<asrwt>0</asrwt>
<pdfrwt beam="1">  1        1 0.30716917E+00 0.10491078E+04</pdfrwt>
<pdfrwt beam="2">  1       -1 0.14864418E+00 0.10491078E+04</pdfrwt>
<totfact> 0.10748222E+00</totfact>
</mgrwt>
</event>
<event>
 4    1  0.1521315E-007  0.1007249E+04  0.7818608E-02  0.9372135E-01
         -1   -1    0    0    0  501 -0.00000000000E+00  0.00000000000E+00  0.10153962895E+04  0.10153962895E+04  0.50400000000E-02 0.  1.
          1   -1    0    0  501    0  0.00000000000E+00 -0.00000000000E+00 -0.84532782164E+03  0.84532782165E+03  0.50400000000E-02 0. -1.
    8880023    1    1    2    0    0 -0.34177463676E+03 -0.68112403806E+03 -0.15336326667E+03  0.10188573774E+04  0.65864270000E+03 0.  0.
    8880022    1    1    2    0    0  0.34177463676E+03  0.68112403806E+03  0.32343173450E+03  0.84186673378E+03  0.15294330000E+03 0.  0.
<mgrwt>
<rscale>  0 0.94404782E+03</rscale>
<asrwt>0</asrwt>
<pdfrwt beam="1">  1        1 0.13005043E+00 0.10072488E+04</pdfrwt>
<pdfrwt beam="2">  1       -1 0.15621481E+00 0.10072488E+04</pdfrwt>
<totfact> 0.63231492E+00</totfact>
</mgrwt>
</event>
<event>
 4    1  0.1521315E-007  0.9267253E+03  0.7818608E-02  0.9484423E-01
          1   -1    0    0  501    0  0.00000000000E+00  0.00000000000E+00  0.38178492215E+04  0.38178492215E+04  0.50400000000E-02 0. -1.
         -1   -1    0    0    0  501 -0.00000000000E+00 -0.00000000000E+00 -0.21370416585E+03  0.21370416591E+03  0.50400000000E-02 0.  1.
    8880023    1    1    2    0    0 -0.12805097540E+03 -0.63922807370E+03  0.29627528137E+04  0.31043073340E+04  0.65864270000E+03 0. -1.
    8880022    1    1    2    0    0  0.12805097540E+03  0.63922807370E+03  0.64139224189E+03  0.92724605336E+03  0.15294330000E+03 0.  0.
<mgrwt>
<rscale>  0 0.85442041E+03</rscale>
<asrwt>0</asrwt>
<pdfrwt beam="1">  1        1 0.58736141E+00 0.92672530E+03</pdfrwt>
<pdfrwt beam="2">  1       -1 0.32877565E-01 0.92672530E+03</pdfrwt>
<totfact> 0.12663170E+00</totfact>
</mgrwt>
</event>
<event>
 4    1  0.1521315E-007  0.6790022E+03  0.7818608E-02  0.1009894E+00
          1   -1    0    0  501    0  0.00000000000E+00  0.00000000000E+00  0.12376718990E+04  0.12376718990E+04  0.50400000000E-02 0. -1.
         -1   -1    0    0    0  501 -0.00000000000E+00 -0.00000000000E+00 -0.23311609371E+03  0.23311609377E+03  0.50400000000E-02 0.  1.
    8880023    1    1    2    0    0  0.46047520700E+02  0.15847223175E+03  0.10409848353E+04  0.12428569733E+04  0.65864270000E+03 0. -1.
    8880022    1    1    2    0    0 -0.46047520700E+02 -0.15847223175E+03 -0.36429030043E+02  0.22793101949E+03  0.15294330000E+03 0.  0.
<mgrwt>
<rscale>  0 0.51516878E+03</rscale>
<asrwt>0</asrwt>
<pdfrwt beam="1">  1        1 0.19041106E+00 0.67900223E+03</pdfrwt>
<pdfrwt beam="2">  1       -1 0.35864015E-01 0.67900223E+03</pdfrwt>
<totfact> 0.76707946E+01</totfact>
</mgrwt>
</event>
<event>
 4    1  0.1521315E-007  0.1065215E+04  0.7818608E-02  0.9300811E-01
          1   -1    0    0  501    0  0.00000000000E+00  0.00000000000E+00  0.29965251280E+04  0.29965251280E+04  0.50400000000E-02 0. -1.
         -1   -1    0    0    0  501 -0.00000000000E+00 -0.00000000000E+00 -0.72433822058E+03  0.72433822060E+03  0.50400000000E-02 0.  1.
    8880023    1    1    2    0    0  0.42180581185E+03  0.72315469878E+03  0.25993190777E+04  0.28091177859E+04  0.65864270000E+03 0.  0.
    8880022    1    1    2    0    0 -0.42180581185E+03 -0.72315469878E+03 -0.32713217025E+03  0.91174556271E+03  0.15294330000E+03 0.  0.
<mgrwt>
<rscale>  0 0.10070827E+04</rscale>
<asrwt>0</asrwt>
<pdfrwt beam="1">  1        1 0.46100387E+00 0.10652150E+04</pdfrwt>
<pdfrwt beam="2">  1       -1 0.11143665E+00 0.10652150E+04</pdfrwt>
<totfact> 0.45217714E-01</totfact>
</mgrwt>
</event>
<event>
 4    1  0.1521315E-007  0.9138861E+03  0.7818608E-02  0.9504098E-01
          1   -1    0    0  501    0  0.00000000000E+00  0.00000000000E+00  0.83112534415E+03  0.83112534417E+03  0.50400000000E-02 0. -1.
         -1   -1    0    0    0  501 -0.00000000000E+00 -0.00000000000E+00 -0.16758037172E+04  0.16758037172E+04  0.50400000000E-02 0.  1.
    8880023    1    1    2    0    0  0.50248300121E+03  0.38586051970E+03  0.47877273167E+03  0.10317029815E+04  0.65864270000E+03 0. -1.
    8880022    1    1    2    0    0 -0.50248300121E+03 -0.38586051970E+03 -0.13234511047E+04  0.14752260799E+04  0.15294330000E+03 0.  0.
<mgrwt>
<rscale>  0 0.83982376E+03</rscale>
<asrwt>0</asrwt>
<pdfrwt beam="1">  1        1 0.12786544E+00 0.91388605E+03</pdfrwt>
<pdfrwt beam="2">  1       -1 0.25781596E+00 0.91388605E+03</pdfrwt>
<totfact> 0.13160191E+00</totfact>
</mgrwt>
</event>
<event>
 4    1  0.1521315E-007  0.7244570E+03  0.7818608E-02  0.9907784E-01
          1   -1    0    0  501    0  0.00000000000E+00  0.00000000000E+00  0.25457125466E+04  0.25457125466E+04  0.50400000000E-02 0. -1.
         -1   -1    0    0    0  501 -0.00000000000E+00 -0.00000000000E+00 -0.11091514199E+03  0.11091514211E+03  0.50400000000E-02 0.  1.
    8880023    1    1    2    0    0 -0.19721842265E+03 -0.22832574252E+03  0.16503111113E+04  0.18023220360E+04  0.65864270000E+03 0.  0.
    8880022    1    1    2    0    0  0.19721842265E+03  0.22832574252E+03  0.78448629327E+03  0.85430565272E+03  0.15294330000E+03 0. -1.
<mgrwt>
<rscale>  0 0.59885534E+03</rscale>
<asrwt>0</asrwt>
<pdfrwt beam="1">  1        1 0.39164807E+00 0.72445701E+03</pdfrwt>
<pdfrwt beam="2">  1       -1 0.17063869E-01 0.72445701E+03</pdfrwt>
<totfact> 0.35164277E+01</totfact>
</mgrwt>
</event>
<event>
 4    1  0.1521315E-007  0.9290486E+03  0.7818608E-02  0.9480922E-01
         -1   -1    0    0    0  501 -0.00000000000E+00  0.00000000000E+00  0.16885048537E+04  0.16885048537E+04  0.50400000000E-02 0.  1.
          1   -1    0    0  501    0  0.00000000000E+00 -0.00000000000E+00 -0.74330033736E+03  0.74330033738E+03  0.50400000000E-02 0. -1.
    8880023    1    1    2    0    0  0.65142229130E+03 -0.70499543942E+02 -0.33332840013E+03  0.98703556972E+03  0.65864270000E+03 0.  0.
    8880022    1    1    2    0    0 -0.65142229130E+03  0.70499543942E+02  0.12785329165E+04  0.14447696214E+04  0.15294330000E+03 0.  0.
<mgrwt>
<rscale>  0 0.85705106E+03</rscale>
<asrwt>0</asrwt>
<pdfrwt beam="1">  1        1 0.11435390E+00 0.92904865E+03</pdfrwt>
<pdfrwt beam="2">  1       -1 0.25976997E+00 0.92904865E+03</pdfrwt>
<totfact> 0.15239234E+00</totfact>
</mgrwt>
</event>
<event>
 4    1  0.1521315E-007  0.8239641E+03  0.7818608E-02  0.9661193E-01
         -1   -1    0    0    0  501 -0.00000000000E+00  0.00000000000E+00  0.61921702805E+03  0.61921702807E+03  0.50400000000E-02 0.  1.
          1   -1    0    0  501    0  0.00000000000E+00 -0.00000000000E+00 -0.11549798342E+04  0.11549798342E+04  0.50400000000E-02 0. -1.
    8880023    1    1    2    0    0  0.34331442829E+03  0.35670967489E+03 -0.83725805935E+03  0.11746990479E+04  0.65864270000E+03 0.  0.
    8880022    1    1    2    0    0 -0.34331442829E+03 -0.35670967489E+03  0.30149525318E+03  0.59949781445E+03  0.15294330000E+03 0.  0.
<mgrwt>
<rscale>  0 0.73375131E+03</rscale>
<asrwt>0</asrwt>
<pdfrwt beam="1">  1        1 0.17768920E+00 0.82396407E+03</pdfrwt>
<pdfrwt beam="2">  1       -1 0.95264158E-01 0.82396407E+03</pdfrwt>
<totfact> 0.12556863E+01</totfact>
</mgrwt>
</event>
<event>
 4    1  0.1521315E-007  0.9641019E+03  0.7818608E-02  0.9430108E-01
         -1   -1    0    0    0  501 -0.00000000000E+00  0.00000000000E+00  0.38157147337E+03  0.38157147341E+03  0.50400000000E-02 0.  1.
          1   -1    0    0  501    0  0.00000000000E+00 -0.00000000000E+00 -0.18958228191E+04  0.18958228191E+04  0.50400000000E-02 0. -1.
    8880023    1    1    2    0    0 -0.32907428799E+03 -0.62240855079E+03 -0.10210018512E+04  0.14042568417E+04  0.65864270000E+03 0.  0.
    8880022    1    1    2    0    0  0.32907428799E+03  0.62240855079E+03 -0.49324949454E+03  0.87313745080E+03  0.15294330000E+03 0.  0.
<mgrwt>
<rscale>  0 0.89638764E+03</rscale>
<asrwt>0</asrwt>
<pdfrwt beam="1">  1        1 0.29166504E+00 0.96410191E+03</pdfrwt>
<pdfrwt beam="2">  1       -1 0.58703305E-01 0.96410191E+03</pdfrwt>
<totfact> 0.10459850E+01</totfact>
</mgrwt>
</event>
<event>
 4    1  0.1521315E-007  0.9070416E+03  0.7818608E-02  0.9514821E-01
         -1   -1    0    0    0  501 -0.00000000000E+00  0.00000000000E+00  0.80099490438E+03  0.80099490440E+03  0.50400000000E-02 0.  1.
          1   -1    0    0  501    0  0.00000000000E+00 -0.00000000000E+00 -0.10051415192E+04  0.10051415192E+04  0.50400000000E-02 0. -1.
    8880023    1    1    2    0    0  0.40215315672E+03  0.47664139982E+03  0.33577431239E+03  0.96719635060E+03  0.65864270000E+03 0.  1.
    8880022    1    1    2    0    0 -0.40215315672E+03 -0.47664139982E+03 -0.53992092723E+03  0.83894007305E+03  0.15294330000E+03 0.  0.
<mgrwt>
<rscale>  0 0.83199904E+03</rscale>
<asrwt>0</asrwt>
<pdfrwt beam="1">  1        1 0.15463716E+00 0.90704156E+03</pdfrwt>
<pdfrwt beam="2">  1       -1 0.12322999E+00 0.90704156E+03</pdfrwt>
<totfact> 0.88034113E+00</totfact>
</mgrwt>
</event>
<event>
 4    1  0.1521315E-007  0.7184210E+03  0.7818608E-02  0.9927965E-01
         -1   -1    0    0    0  501 -0.00000000000E+00  0.00000000000E+00  0.35733387141E+03  0.35733387145E+03  0.50400000000E-02 0.  1.
          1   -1    0    0  501    0  0.00000000000E+00 -0.00000000000E+00 -0.79746170013E+03  0.79746170014E+03  0.50400000000E-02 0. -1.
    8880023    1    1    2    0    0  0.10929145425E+03 -0.26528078167E+03 -0.41266844386E+03  0.82850707053E+03  0.65864270000E+03 0.  1.
    8880022    1    1    2    0    0 -0.10929145425E+03  0.26528078167E+03 -0.27459384855E+02  0.32628850106E+03  0.15294330000E+03 0.  0.
<mgrwt>
<rscale>  0 0.58924900E+03</rscale>
<asrwt>0</asrwt>
<pdfrwt beam="1">  1        1 0.12268642E+00 0.71842099E+03</pdfrwt>
<pdfrwt beam="2">  1       -1 0.54974442E-01 0.71842099E+03</pdfrwt>
<totfact> 0.76029799E+01</totfact>
</mgrwt>
</event>
<event>
 4    1  0.1521315E-007  0.6587099E+03  0.7818608E-02  0.1025519E+00
          1   -1    0    0  501    0  0.00000000000E+00  0.00000000000E+00  0.14749484647E+04  0.14749484647E+04  0.50400000000E-02 0. -1.
         -1   -1    0    0    0  501 -0.00000000000E+00 -0.00000000000E+00 -0.16658679693E+03  0.16658679701E+03  0.50400000000E-02 0.  1.
    8880023    1    1    2    0    0  0.78675276544E+01  0.51561415266E+01  0.13324903495E+04  0.14864148888E+04  0.65864270000E+03 0. -1.
    8880022    1    1    2    0    0 -0.78675276544E+01 -0.51561415266E+01 -0.24128681790E+02  0.15512037289E+03  0.15294330000E+03 0.  0.
<mgrwt>
<rscale>  0 0.45746535E+03</rscale>
<asrwt>0</asrwt>
<pdfrwt beam="1">  1        1 0.22691515E+00 0.65870987E+03</pdfrwt>
<pdfrwt beam="2">  1       -1 0.25628738E-01 0.65870987E+03</pdfrwt>
<totfact> 0.94302331E+01</totfact>
</mgrwt>
</event>
<event>
 4    1  0.1521315E-007  0.7929940E+03  0.7818608E-02  0.9726154E-01
          1   -1    0    0  501    0  0.00000000000E+00  0.00000000000E+00  0.39568462971E+03  0.39568462974E+03  0.50400000000E-02 0. -1.
         -1   -1    0    0    0  501 -0.00000000000E+00 -0.00000000000E+00 -0.11758489517E+04  0.11758489517E+04  0.50400000000E-02 0.  1.
    8880023    1    1    2    0    0 -0.32351943957E+03  0.30060683955E+03 -0.18408039981E+03  0.81407929566E+03  0.65864270000E+03 0.  0.
    8880022    1    1    2    0    0  0.32351943957E+03 -0.30060683955E+03 -0.59608392216E+03  0.75745428578E+03  0.15294330000E+03 0.  0.
<mgrwt>
<rscale>  0 0.69480705E+03</rscale>
<asrwt>0</asrwt>
<pdfrwt beam="1">  1        1 0.60874559E-01 0.79299401E+03</pdfrwt>
<pdfrwt beam="2">  1       -1 0.18089984E+00 0.79299401E+03</pdfrwt>
<totfact> 0.12782143E+01</totfact>
</mgrwt>
</event>
<event>
 4    1  0.1521315E-007  0.6753815E+03  0.7818608E-02  0.1012067E+00
          1   -1    0    0  501    0  0.00000000000E+00  0.00000000000E+00  0.96797955992E+03  0.96797955994E+03  0.50400000000E-02 0. -1.
         -1   -1    0    0    0  501 -0.00000000000E+00 -0.00000000000E+00 -0.22314377266E+03  0.22314377272E+03  0.50400000000E-02 0.  1.
    8880023    1    1    2    0    0 -0.12166769212E+03 -0.86758084095E+02  0.69990207994E+03  0.97262691729E+03  0.65864270000E+03 0. -1.
    8880022    1    1    2    0    0  0.12166769212E+03  0.86758084095E+02  0.44933707318E+02  0.21849641537E+03  0.15294330000E+03 0.  0.
<mgrwt>
<rscale>  0 0.50661391E+03</rscale>
<asrwt>0</asrwt>
<pdfrwt beam="1">  1        1 0.14891993E+00 0.67538152E+03</pdfrwt>
<pdfrwt beam="2">  1       -1 0.34329812E-01 0.67538152E+03</pdfrwt>
<totfact> 0.13175697E+02</totfact>
</mgrwt>
</event>
<event>
 4    1  0.1620411E-007  0.6978088E+03  0.7818608E-02  0.1000642E+00
          1   -1    0    0  501    0  0.00000000000E+00  0.00000000000E+00  0.14479772053E+04  0.14479772053E+04  0.50400000000E-02 0. -1.
         -1   -1    0    0    0  501 -0.00000000000E+00 -0.00000000000E+00 -0.11904461889E+04  0.11904461890E+04  0.50400000000E-02 0.  1.
    8880023    1    1    2    0    0  0.23031619421E+03  0.90222838080E+01  0.13455819456E+04  0.15157598522E+04  0.65864270000E+03 0. -1.
    8880022    1    1    2    0    0 -0.23031619421E+03 -0.90222838080E+01 -0.10880509293E+04  0.11226635420E+04  0.15294330000E+03 0.  0.
<mgrwt>
<rscale>  0 0.55369834E+03</rscale>
<asrwt>0</asrwt>
<pdfrwt beam="1">  1        1 0.22276572E+00 0.69780883E+03</pdfrwt>
<pdfrwt beam="2">  1       -1 0.18314557E+00 0.69780883E+03</pdfrwt>
<totfact> 0.14897669E+00</totfact>
</mgrwt>
</event>
<event>
 4    1  0.1521315E-007  0.9445022E+03  0.7818608E-02  0.9458069E-01
          1   -1    0    0  501    0  0.00000000000E+00  0.00000000000E+00  0.19592498466E+04  0.19592498466E+04  0.50400000000E-02 0. -1.
         -1   -1    0    0    0  501 -0.00000000000E+00 -0.00000000000E+00 -0.52837949368E+03  0.52837949370E+03  0.50400000000E-02 0.  1.
    8880023    1    1    2    0    0  0.41690222980E+03  0.53335427569E+03  0.54370416435E+02  0.94606585450E+03  0.65864270000E+03 0.  1.
    8880022    1    1    2    0    0 -0.41690222980E+03 -0.53335427569E+03  0.13764999365E+04  0.15415634858E+04  0.15294330000E+03 0.  0.
<mgrwt>
<rscale>  0 0.87447113E+03</rscale>
<asrwt>0</asrwt>
<pdfrwt beam="1">  1        1 0.30142305E+00 0.94450223E+03</pdfrwt>
<pdfrwt beam="2">  1       -1 0.81289153E-01 0.94450223E+03</pdfrwt>
<totfact> 0.48752718E+00</totfact>
</mgrwt>
</event>
<event>
 4    1  0.1521315E-007  0.6956594E+03  0.7818608E-02  0.1001571E+00
          1   -1    0    0  501    0  0.00000000000E+00  0.00000000000E+00  0.52929664330E+03  0.52929664332E+03  0.50400000000E-02 0. -1.
         -1   -1    0    0    0  501 -0.00000000000E+00 -0.00000000000E+00 -0.63666958104E+03  0.63666958106E+03  0.50400000000E-02 0.  1.
    8880023    1    1    2    0    0 -0.19272994503E+03  0.11396022219E+03  0.23040115971E+03  0.73282103177E+03  0.65864270000E+03 0. -1.
    8880022    1    1    2    0    0  0.19272994503E+03 -0.11396022219E+03 -0.33777409745E+03  0.43314519261E+03  0.15294330000E+03 0.  0.
<mgrwt>
<rscale>  0 0.54966830E+03</rscale>
<asrwt>0</asrwt>
<pdfrwt beam="1">  1        1 0.81430253E-01 0.69565938E+03</pdfrwt>
<pdfrwt beam="2">  1       -1 0.97949167E-01 0.69565938E+03</pdfrwt>
<totfact> 0.42039259E+01</totfact>
</mgrwt>
</event>
<event>
 4    1  0.1521315E-007  0.6668743E+03  0.7818608E-02  0.1018010E+00
          1   -1    0    0  501    0  0.00000000000E+00  0.00000000000E+00  0.35021998555E+03  0.35021998559E+03  0.50400000000E-02 0. -1.
         -1   -1    0    0    0  501 -0.00000000000E+00 -0.00000000000E+00 -0.23760196163E+04  0.23760196163E+04  0.50400000000E-02 0.  1.
    8880023    1    1    2    0    0 -0.10398647579E+03  0.98935801348E+01  0.24759009018E+02  0.66733371327E+03  0.65864270000E+03 0. -1.
    8880022    1    1    2    0    0  0.10398647579E+03 -0.98935801348E+01 -0.20505586398E+04  0.20589058886E+04  0.15294330000E+03 0.  0.
<mgrwt>
<rscale>  0 0.48411556E+03</rscale>
<asrwt>0</asrwt>
<pdfrwt beam="1">  1        1 0.53879999E-01 0.66687426E+03</pdfrwt>
<pdfrwt beam="2">  1       -1 0.36554147E+00 0.66687426E+03</pdfrwt>
<totfact> 0.94760208E-01</totfact>
</mgrwt>
</event>
<event>
 4    1  0.1521315E-007  0.7051445E+03  0.7818608E-02  0.9976494E-01
          1   -1    0    0  501    0  0.00000000000E+00  0.00000000000E+00  0.39146768509E+03  0.39146768512E+03  0.50400000000E-02 0. -1.
         -1   -1    0    0    0  501 -0.00000000000E+00 -0.00000000000E+00 -0.10576190315E+04  0.10576190315E+04  0.50400000000E-02 0.  1.
    8880023    1    1    2    0    0  0.55169768210E+02  0.24571282740E+03  0.16742699383E+02  0.70534319386E+03  0.65864270000E+03 0. -1.
    8880022    1    1    2    0    0 -0.55169768210E+02 -0.24571282740E+03 -0.68289404579E+03  0.74374352277E+03  0.15294330000E+03 0.  0.
<mgrwt>
<rscale>  0 0.56693058E+03</rscale>
<asrwt>0</asrwt>
<pdfrwt beam="1">  1        1 0.60225798E-01 0.70514446E+03</pdfrwt>
<pdfrwt beam="2">  1       -1 0.16271062E+00 0.70514446E+03</pdfrwt>
<totfact> 0.17760784E+01</totfact>
</mgrwt>
</event>
<event>
 4    1  0.1521315E-007  0.7445232E+03  0.7818608E-02  0.9846962E-01
         -1   -1    0    0    0  501 -0.00000000000E+00  0.00000000000E+00  0.19092345640E+03  0.19092345646E+03  0.50400000000E-02 0.  1.
          1   -1    0    0  501    0  0.00000000000E+00 -0.00000000000E+00 -0.21546121529E+04  0.21546121529E+04  0.50400000000E-02 0. -1.
    8880023    1    1    2    0    0 -0.13941728565E+03  0.31791091566E+03 -0.17687100358E+04  0.19190231699E+04  0.65864270000E+03 0. -1.
    8880022    1    1    2    0    0  0.13941728565E+03 -0.31791091566E+03 -0.19497866073E+03  0.42651243944E+03  0.15294330000E+03 0.  0.
<mgrwt>
<rscale>  0 0.62902053E+03</rscale>
<asrwt>0</asrwt>
<pdfrwt beam="1">  1        1 0.33147878E+00 0.74452316E+03</pdfrwt>
<pdfrwt beam="2">  1       -1 0.29372841E-01 0.74452316E+03</pdfrwt>
<totfact> 0.25800252E+01</totfact>
</mgrwt>
</event>
<event>
 4    1  0.1521315E-007  0.9603797E+03  0.7818608E-02  0.9435335E-01
         -1   -1    0    0    0  501 -0.00000000000E+00  0.00000000000E+00  0.33489243171E+03  0.33489243175E+03  0.50400000000E-02 0.  1.
          1   -1    0    0  501    0  0.00000000000E+00 -0.00000000000E+00 -0.31014310017E+04  0.31014310017E+04  0.50400000000E-02 0. -1.
    8880023    1    1    2    0    0 -0.33141233560E+03  0.61537374469E+03 -0.24908262129E+04  0.26695588420E+04  0.65864270000E+03 0.  0.
    8880022    1    1    2    0    0  0.33141233560E+03 -0.61537374469E+03 -0.27571235709E+03  0.76676459145E+03  0.15294330000E+03 0.  0.
<mgrwt>
<rscale>  0 0.89223961E+03</rscale>
<asrwt>0</asrwt>
<pdfrwt beam="1">  1        1 0.47714321E+00 0.96037971E+03</pdfrwt>
<pdfrwt beam="2">  1       -1 0.51521915E-01 0.96037971E+03</pdfrwt>
<totfact> 0.19776636E+00</totfact>
</mgrwt>
</event>
<event>
 4    1  0.1521315E-007  0.7810589E+03  0.7818608E-02  0.9753355E-01
         -1   -1    0    0    0  501 -0.00000000000E+00  0.00000000000E+00  0.30743154125E+03  0.30743154129E+03  0.50400000000E-02 0.  1.
          1   -1    0    0  501    0  0.00000000000E+00 -0.00000000000E+00 -0.16469720768E+04  0.16469720768E+04  0.50400000000E-02 0. -1.
    8880023    1    1    2    0    0  0.19491403387E+03  0.37182168951E+03 -0.12857187027E+04  0.15043688505E+04  0.65864270000E+03 0.  0.
    8880022    1    1    2    0    0 -0.19491403387E+03 -0.37182168951E+03 -0.53821832826E+02  0.45003476765E+03  0.15294330000E+03 0.  0.
<mgrwt>
<rscale>  0 0.67926979E+03</rscale>
<asrwt>0</asrwt>
<pdfrwt beam="1">  1        1 0.25338032E+00 0.78105893E+03</pdfrwt>
<pdfrwt beam="2">  1       -1 0.47297161E-01 0.78105893E+03</pdfrwt>
<totfact> 0.23826211E+01</totfact>
</mgrwt>
</event>
<event>
 4    1  0.1521315E-007  0.1070176E+04  0.7818608E-02  0.9295011E-01
          1   -1    0    0  501    0  0.00000000000E+00  0.00000000000E+00  0.12092442376E+04  0.12092442376E+04  0.50400000000E-02 0. -1.
         -1   -1    0    0    0  501 -0.00000000000E+00 -0.00000000000E+00 -0.10840910359E+04  0.10840910359E+04  0.50400000000E-02 0.  1.
    8880023    1    1    2    0    0  0.35159648046E+03 -0.76671148439E+03 -0.54898796118E+03  0.12027736999E+04  0.65864270000E+03 0.  1.
    8880022    1    1    2    0    0 -0.35159648046E+03  0.76671148439E+03  0.67414116293E+03  0.10905615737E+04  0.15294330000E+03 0.  0.
<mgrwt>
<rscale>  0 0.10124343E+04</rscale>
<asrwt>0</asrwt>
<pdfrwt beam="1">  1        1 0.18603757E+00 0.10701761E+04</pdfrwt>
<pdfrwt beam="2">  1       -1 0.16678324E+00 0.10701761E+04</pdfrwt>
<totfact> 0.27209740E+00</totfact>
</mgrwt>
</event>
<event>
 4    1  0.1521315E-007  0.7529368E+03  0.7818608E-02  0.9823749E-01
          1   -1    0    0  501    0  0.00000000000E+00  0.00000000000E+00  0.14060542715E+04  0.14060542715E+04  0.50400000000E-02 0. -1.
         -1   -1    0    0    0  501 -0.00000000000E+00 -0.00000000000E+00 -0.23456544142E+03  0.23456544148E+03  0.50400000000E-02 0.  1.
    8880023    1    1    2    0    0  0.36200492627E+03  0.45343840517E+02  0.77546687176E+03  0.10808620199E+04  0.65864270000E+03 0.  1.
    8880022    1    1    2    0    0 -0.36200492627E+03 -0.45343840517E+02  0.39602195828E+03  0.55975769309E+03  0.15294330000E+03 0. -1.
<mgrwt>
<rscale>  0 0.64103472E+03</rscale>
<asrwt>0</asrwt>
<pdfrwt beam="1">  1        1 0.21631605E+00 0.75293681E+03</pdfrwt>
<pdfrwt beam="2">  1       -1 0.36086990E-01 0.75293681E+03</pdfrwt>
<totfact> 0.57313654E+01</totfact>
</mgrwt>
</event>
<event>
 4    1  0.1521315E-007  0.7039690E+03  0.7818608E-02  0.9981118E-01
          1   -1    0    0  501    0  0.00000000000E+00  0.00000000000E+00  0.11796734289E+04  0.11796734290E+04  0.50400000000E-02 0. -1.
         -1   -1    0    0    0  501 -0.00000000000E+00 -0.00000000000E+00 -0.42703504407E+03  0.42703504410E+03  0.50400000000E-02 0.  1.
    8880023    1    1    2    0    0  0.44997265753E+02  0.24441226179E+03  0.10008371046E+04  0.12236205391E+04  0.65864270000E+03 0. -1.
    8880022    1    1    2    0    0 -0.44997265753E+02 -0.24441226179E+03 -0.24819871969E+03  0.38308793392E+03  0.15294330000E+03 0.  0.
<mgrwt>
<rscale>  0 0.56485973E+03</rscale>
<asrwt>0</asrwt>
<pdfrwt beam="1">  1        1 0.18148822E+00 0.70396897E+03</pdfrwt>
<pdfrwt beam="2">  1       -1 0.65697700E-01 0.70396897E+03</pdfrwt>
<totfact> 0.26883580E+01</totfact>
</mgrwt>
</event>
<event>
 4    1  0.1521315E-007  0.1334428E+04  0.7818608E-02  0.9036385E-01
          1   -1    0    0  501    0  0.00000000000E+00  0.00000000000E+00  0.23777942879E+04  0.23777942879E+04  0.50400000000E-02 0. -1.
         -1   -1    0    0    0  501 -0.00000000000E+00 -0.00000000000E+00 -0.12419121086E+04  0.12419121086E+04  0.50400000000E-02 0.  1.
    8880023    1    1    2    0    0 -0.59712401524E+03 -0.99515345768E+03 -0.65004272261E+03  0.14843359597E+04  0.65864270000E+03 0.  0.
    8880022    1    1    2    0    0  0.59712401524E+03  0.99515345768E+03  0.17859249019E+04  0.21353704368E+04  0.15294330000E+03 0.  0.
<mgrwt>
<rscale>  0 0.12914347E+04</rscale>
<asrwt>0</asrwt>
<pdfrwt beam="1">  1        1 0.36581450E+00 0.13344279E+04</pdfrwt>
<pdfrwt beam="2">  1       -1 0.19106340E+00 0.13344279E+04</pdfrwt>
<totfact> 0.27609371E-01</totfact>
</mgrwt>
</event>
<event>
 4    1  0.1521315E-007  0.7013457E+03  0.7818608E-02  0.9991664E-01
         -1   -1    0    0    0  501 -0.00000000000E+00  0.00000000000E+00  0.31474788526E+03  0.31474788530E+03  0.50400000000E-02 0.  1.
          1   -1    0    0  501    0  0.00000000000E+00 -0.00000000000E+00 -0.14533737110E+04  0.14533737110E+04  0.50400000000E-02 0. -1.
    8880023    1    1    2    0    0 -0.13756329988E+03 -0.19786860425E+03 -0.12724103795E+04  0.14528984913E+04  0.65864270000E+03 0. -1.
    8880022    1    1    2    0    0  0.13756329988E+03  0.19786860425E+03  0.13378455381E+03  0.31522310492E+03  0.15294330000E+03 0.  0.
<mgrwt>
<rscale>  0 0.56017283E+03</rscale>
<asrwt>0</asrwt>
<pdfrwt beam="1">  1        1 0.22359595E+00 0.70134574E+03</pdfrwt>
<pdfrwt beam="2">  1       -1 0.48422752E-01 0.70134574E+03</pdfrwt>
<totfact> 0.31197136E+01</totfact>
</mgrwt>
</event>
<event>
 4    1  0.1521315E-007  0.6831867E+03  0.7818608E-02  0.1007576E+00
          1   -1    0    0  501    0  0.00000000000E+00  0.00000000000E+00  0.69852395562E+03  0.69852395564E+03  0.50400000000E-02 0. -1.
         -1   -1    0    0    0  501 -0.00000000000E+00 -0.00000000000E+00 -0.35065062578E+03  0.35065062582E+03  0.50400000000E-02 0.  1.
    8880023    1    1    2    0    0  0.11350275762E+03 -0.14160148409E+03  0.41897064978E+03  0.80142402505E+03  0.65864270000E+03 0. -1.
    8880022    1    1    2    0    0 -0.11350275762E+03  0.14160148409E+03 -0.71097319939E+02  0.24775055641E+03  0.15294330000E+03 0.  1.
<mgrwt>
<rscale>  0 0.52449662E+03</rscale>
<asrwt>0</asrwt>
<pdfrwt beam="1">  1        1 0.10746522E+00 0.68318670E+03</pdfrwt>
<pdfrwt beam="2">  1       -1 0.53946250E-01 0.68318670E+03</pdfrwt>
<totfact> 0.97061784E+01</totfact>
</mgrwt>
</event>
<event>
 4    1  0.1521315E-007  0.6686065E+03  0.7818608E-02  0.1016682E+00
         -1   -1    0    0    0  501 -0.00000000000E+00  0.00000000000E+00  0.40339590801E+03  0.40339590804E+03  0.50400000000E-02 0.  1.
          1   -1    0    0  501    0  0.00000000000E+00 -0.00000000000E+00 -0.13870395797E+04  0.13870395797E+04  0.50400000000E-02 0. -1.
    8880023    1    1    2    0    0  0.55198410908E+02 -0.10088396832E+03 -0.12762699155E+04  0.14407982312E+04  0.65864270000E+03 0. -1.
    8880022    1    1    2    0    0 -0.55198410908E+02  0.10088396832E+03  0.29262624376E+03  0.34963725657E+03  0.15294330000E+03 0.  0.
<mgrwt>
<rscale>  0 0.48903162E+03</rscale>
<asrwt>0</asrwt>
<pdfrwt beam="1">  1        1 0.21339070E+00 0.66860650E+03</pdfrwt>
<pdfrwt beam="2">  1       -1 0.62060910E-01 0.66860650E+03</pdfrwt>
<totfact> 0.21578214E+01</totfact>
</mgrwt>
</event>
<event>
 4    1  0.1521315E-007  0.7056170E+03  0.7818608E-02  0.9974652E-01
          1   -1    0    0  501    0  0.00000000000E+00  0.00000000000E+00  0.53007928804E+03  0.53007928807E+03  0.50400000000E-02 0. -1.
         -1   -1    0    0    0  501 -0.00000000000E+00 -0.00000000000E+00 -0.97811436959E+03  0.97811436960E+03  0.50400000000E-02 0.  1.
    8880023    1    1    2    0    0  0.10432681418E+03  0.23065347702E+03  0.25118576696E+03  0.74899239409E+03  0.65864270000E+03 0. -1.
    8880022    1    1    2    0    0 -0.10432681418E+03 -0.23065347702E+03 -0.69922084851E+03  0.75920126358E+03  0.15294330000E+03 0.  0.
<mgrwt>
<rscale>  0 0.56775812E+03</rscale>
<asrwt>0</asrwt>
<pdfrwt beam="1">  1        1 0.81550660E-01 0.70561698E+03</pdfrwt>
<pdfrwt beam="2">  1       -1 0.15047913E+00 0.70561698E+03</pdfrwt>
<totfact> 0.14606911E+01</totfact>
</mgrwt>
</event>
<event>
 4    1  0.1521315E-007  0.8145511E+03  0.7818608E-02  0.9680174E-01
         -1   -1    0    0    0  501 -0.00000000000E+00  0.00000000000E+00  0.92034015788E+03  0.92034015789E+03  0.50400000000E-02 0.  1.
          1   -1    0    0  501    0  0.00000000000E+00 -0.00000000000E+00 -0.99021498540E+03  0.99021498541E+03  0.50400000000E-02 0. -1.
    8880023    1    1    2    0    0  0.27712042866E+02 -0.47845102358E+03 -0.72094466834E+03  0.10877751424E+04  0.65864270000E+03 0. -1.
    8880022    1    1    2    0    0 -0.27712042866E+02  0.47845102358E+03  0.65106984082E+03  0.82278000093E+03  0.15294330000E+03 0.  0.
<mgrwt>
<rscale>  0 0.72209596E+03</rscale>
<asrwt>0</asrwt>
<pdfrwt beam="1">  1        1 0.15234077E+00 0.81455113E+03</pdfrwt>
<pdfrwt beam="2">  1       -1 0.14159079E+00 0.81455113E+03</pdfrwt>
<totfact> 0.64262210E+00</totfact>
</mgrwt>
</event>
<event>
 4    1  0.1521315E-007  0.7170831E+03  0.7818608E-02  0.9932582E-01
          1   -1    0    0  501    0  0.00000000000E+00  0.00000000000E+00  0.91686597165E+03  0.91686597167E+03  0.50400000000E-02 0. -1.
         -1   -1    0    0    0  501 -0.00000000000E+00 -0.00000000000E+00 -0.40807349430E+03  0.40807349433E+03  0.50400000000E-02 0.  1.
    8880023    1    1    2    0    0 -0.28322820252E+03 -0.13407648834E+02  0.65495318227E+03  0.97117035425E+03  0.65864270000E+03 0.  0.
    8880022    1    1    2    0    0  0.28322820252E+03  0.13407648834E+02 -0.14616070491E+03  0.35376911175E+03  0.15294330000E+03 0.  0.
<mgrwt>
<rscale>  0 0.58707876E+03</rscale>
<asrwt>0</asrwt>
<pdfrwt beam="1">  1        1 0.14105630E+00 0.71708311E+03</pdfrwt>
<pdfrwt beam="2">  1       -1 0.62780537E-01 0.71708311E+03</pdfrwt>
<totfact> 0.46603473E+01</totfact>
</mgrwt>
</event>
<event>
 4    1  0.1521315E-007  0.6990745E+03  0.7818608E-02  0.1000106E+00
          1   -1    0    0  501    0  0.00000000000E+00  0.00000000000E+00  0.43038502522E+03  0.43038502525E+03  0.50400000000E-02 0. -1.
         -1   -1    0    0    0  501 -0.00000000000E+00 -0.00000000000E+00 -0.10847991508E+04  0.10847991508E+04  0.50400000000E-02 0.  1.
    8880023    1    1    2    0    0  0.23127191448E+03 -0.37526662210E+02  0.10403302650E+03  0.70677296614E+03  0.65864270000E+03 0. -1.
    8880022    1    1    2    0    0 -0.23127191448E+03  0.37526662210E+02 -0.75844715209E+03  0.80841120993E+03  0.15294330000E+03 0.  0.
<mgrwt>
<rscale>  0 0.55603679E+03</rscale>
<asrwt>0</asrwt>
<pdfrwt beam="1">  1        1 0.66213081E-01 0.69907450E+03</pdfrwt>
<pdfrwt beam="2">  1       -1 0.16689218E+00 0.69907450E+03</pdfrwt>
<totfact> 0.14591885E+01</totfact>
</mgrwt>
</event>
<event>
 4    1  0.1521315E-007  0.7401755E+03  0.7818608E-02  0.9859436E-01
          1   -1    0    0  501    0  0.00000000000E+00  0.00000000000E+00  0.16829190671E+04  0.16829190671E+04  0.50400000000E-02 0. -1.
         -1   -1    0    0    0  501 -0.00000000000E+00 -0.00000000000E+00 -0.24565825227E+03  0.24565825232E+03  0.50400000000E-02 0.  1.
    8880023    1    1    2    0    0  0.22766201102E+03 -0.24943839638E+03  0.13622270913E+04  0.15503297583E+04  0.65864270000E+03 0. -1.
    8880022    1    1    2    0    0 -0.22766201102E+03  0.24943839638E+03  0.75033723561E+02  0.37824756118E+03  0.15294330000E+03 0.  0.
<mgrwt>
<rscale>  0 0.62268100E+03</rscale>
<asrwt>0</asrwt>
<pdfrwt beam="1">  1        1 0.25891064E+00 0.74017546E+03</pdfrwt>
<pdfrwt beam="2">  1       -1 0.37793576E-01 0.74017546E+03</pdfrwt>
<totfact> 0.34198588E+01</totfact>
</mgrwt>
</event>
<event>
 4    1  0.1521315E-007  0.7312785E+03  0.7818608E-02  0.9886121E-01
         -1   -1    0    0    0  501 -0.00000000000E+00  0.00000000000E+00  0.27489977889E+03  0.27489977894E+03  0.50400000000E-02 0.  1.
          1   -1    0    0  501    0  0.00000000000E+00 -0.00000000000E+00 -0.26133305035E+04  0.26133305035E+04  0.50400000000E-02 0. -1.
    8880023    1    1    2    0    0  0.22634168774E+02 -0.31693180874E+03 -0.24184842705E+04  0.25266251107E+04  0.65864270000E+03 0.  0.
    8880022    1    1    2    0    0 -0.22634168774E+02  0.31693180874E+03  0.80053545930E+02  0.36160517173E+03  0.15294330000E+03 0.  1.
<mgrwt>
<rscale>  0 0.60938635E+03</rscale>
<asrwt>0</asrwt>
<pdfrwt beam="1">  1        1 0.40205083E+00 0.73127853E+03</pdfrwt>
<pdfrwt beam="2">  1       -1 0.42292275E-01 0.73127853E+03</pdfrwt>
<totfact> 0.65934385E+00</totfact>
</mgrwt>
</event>
<event>
 4    1  0.1521315E-007  0.8017802E+03  0.7818608E-02  0.9706960E-01
          1   -1    0    0  501    0  0.00000000000E+00  0.00000000000E+00  0.51110431300E+03  0.51110431302E+03  0.50400000000E-02 0. -1.
         -1   -1    0    0    0  501 -0.00000000000E+00 -0.00000000000E+00 -0.98076246335E+03  0.98076246336E+03  0.50400000000E-02 0.  1.
    8880023    1    1    2    0    0  0.11988528782E+02  0.45705305167E+03  0.23603816242E+02  0.80212752307E+03  0.65864270000E+03 0.  0.
    8880022    1    1    2    0    0 -0.11988528782E+02 -0.45705305167E+03 -0.49326196659E+03  0.68973925331E+03  0.15294330000E+03 0.  0.
<mgrwt>
<rscale>  0 0.70603897E+03</rscale>
<asrwt>0</asrwt>
<pdfrwt beam="1">  1        1 0.78631433E-01 0.80178016E+03</pdfrwt>
<pdfrwt beam="2">  1       -1 0.15088653E+00 0.80178016E+03</pdfrwt>
<totfact> 0.15086213E+01</totfact>
</mgrwt>
</event>
<event>
 4    1  0.1521315E-007  0.6761342E+03  0.7818608E-02  0.1011601E+00
         -1   -1    0    0    0  501 -0.00000000000E+00  0.00000000000E+00  0.75283248453E+02  0.75283248622E+02  0.50400000000E-02 0.  1.
          1   -1    0    0  501    0  0.00000000000E+00 -0.00000000000E+00 -0.28065204109E+04  0.28065204109E+04  0.50400000000E-02 0. -1.
    8880023    1    1    2    0    0  0.25509477248E+02 -0.15065344849E+03 -0.23288669650E+04  0.24250316992E+04  0.65864270000E+03 0.  0.
    8880022    1    1    2    0    0 -0.25509477248E+02  0.15065344849E+03 -0.40237019744E+03  0.45677196036E+03  0.15294330000E+03 0.  0.
<mgrwt>
<rscale>  0 0.50843379E+03</rscale>
<asrwt>0</asrwt>
<pdfrwt beam="1">  1        1 0.43177229E+00 0.67613416E+03</pdfrwt>
<pdfrwt beam="2">  1       -1 0.11582040E-01 0.67613416E+03</pdfrwt>
<totfact> 0.43741126E+01</totfact>
</mgrwt>
</event>
<event>
 4    1  0.1521315E-007  0.8404790E+03  0.7818608E-02  0.9629278E-01
          1   -1    0    0  501    0  0.00000000000E+00  0.00000000000E+00  0.14898432737E+04  0.14898432737E+04  0.50400000000E-02 0. -1.
         -1   -1    0    0    0  501 -0.00000000000E+00 -0.00000000000E+00 -0.34174279932E+03  0.34174279935E+03  0.50400000000E-02 0.  1.
    8880023    1    1    2    0    0 -0.45072503105E+03  0.26351788434E+03  0.90687981942E+03  0.12364610556E+04  0.65864270000E+03 0.  0.
    8880022    1    1    2    0    0  0.45072503105E+03 -0.26351788434E+03  0.24122065499E+03  0.59512501745E+03  0.15294330000E+03 0.  0.
<mgrwt>
<rscale>  0 0.75388328E+03</rscale>
<asrwt>0</asrwt>
<pdfrwt beam="1">  1        1 0.22920666E+00 0.84047899E+03</pdfrwt>
<pdfrwt beam="2">  1       -1 0.52575815E-01 0.84047899E+03</pdfrwt>
<totfact> 0.24771050E+01</totfact>
</mgrwt>
</event>
<event>
 4    1  0.1521315E-007  0.6734323E+03  0.7818608E-02  0.1013313E+00
         -1   -1    0    0    0  501 -0.00000000000E+00  0.00000000000E+00  0.16711642568E+03  0.16711642575E+03  0.50400000000E-02 0.  1.
          1   -1    0    0  501    0  0.00000000000E+00 -0.00000000000E+00 -0.49044963590E+04  0.49044963590E+04  0.50400000000E-02 0. -1.
    8880023    1    1    2    0    0  0.63544005153E+02  0.12515204309E+03 -0.48060194957E+04  0.48529717158E+04  0.65864270000E+03 0. -1.
    8880022    1    1    2    0    0 -0.63544005153E+02 -0.12515204309E+03  0.68639562450E+02  0.21864106894E+03  0.15294330000E+03 0.  0.
<mgrwt>
<rscale>  0 0.50178851E+03</rscale>
<asrwt>0</asrwt>
<pdfrwt beam="1">  1        1 0.75453779E+00 0.67343231E+03</pdfrwt>
<pdfrwt beam="2">  1       -1 0.25710223E-01 0.67343231E+03</pdfrwt>
<totfact> 0.17980007E-01</totfact>
</mgrwt>
</event>
<event>
 4    1  0.1521315E-007  0.7432710E+03  0.7818608E-02  0.9850519E-01
          1   -1    0    0  501    0  0.00000000000E+00  0.00000000000E+00  0.45576307990E+03  0.45576307992E+03  0.50400000000E-02 0. -1.
         -1   -1    0    0    0  501 -0.00000000000E+00 -0.00000000000E+00 -0.23989124142E+04  0.23989124142E+04  0.50400000000E-02 0.  1.
    8880023    1    1    2    0    0 -0.34316304063E+03 -0.29677705248E+02  0.12392039962E+03  0.75353043094E+03  0.65864270000E+03 0. -1.
    8880022    1    1    2    0    0  0.34316304063E+03  0.29677705248E+02 -0.20670697339E+04  0.21011450632E+04  0.15294330000E+03 0.  0.
<mgrwt>
<rscale>  0 0.62720452E+03</rscale>
<asrwt>0</asrwt>
<pdfrwt beam="1">  1        1 0.70117399E-01 0.74327104E+03</pdfrwt>
<pdfrwt beam="2">  1       -1 0.36906344E+00 0.74327104E+03</pdfrwt>
<totfact> 0.62359243E-01</totfact>
</mgrwt>
</event>
<event>
 4    1  0.1521315E-007  0.7068440E+03  0.7818608E-02  0.9969913E-01
          1   -1    0    0  501    0  0.00000000000E+00  0.00000000000E+00  0.28141044196E+04  0.28141044196E+04  0.50400000000E-02 0. -1.
         -1   -1    0    0    0  501 -0.00000000000E+00 -0.00000000000E+00 -0.70071697422E+03  0.70071697424E+03  0.50400000000E-02 0.  1.
    8880023    1    1    2    0    0 -0.19003856261E+03 -0.17234723555E+03  0.27351666906E+04  0.28250248240E+04  0.65864270000E+03 0. -1.
    8880022    1    1    2    0    0  0.19003856261E+03  0.17234723555E+03 -0.62177924523E+03  0.68979656979E+03  0.15294330000E+03 0.  0.
<mgrwt>
<rscale>  0 0.56989428E+03</rscale>
<asrwt>0</asrwt>
<pdfrwt beam="1">  1        1 0.43293914E+00 0.70684399E+03</pdfrwt>
<pdfrwt beam="2">  1       -1 0.10780261E+00 0.70684399E+03</pdfrwt>
<totfact> 0.70873903E-01</totfact>
</mgrwt>
</event>
<event>
 4    1  0.1521315E-007  0.7476687E+03  0.7818608E-02  0.9838146E-01
         -1   -1    0    0    0  501 -0.00000000000E+00  0.00000000000E+00  0.41078049902E+03  0.41078049905E+03  0.50400000000E-02 0.  1.
          1   -1    0    0  501    0  0.00000000000E+00 -0.00000000000E+00 -0.13392919195E+04  0.13392919195E+04  0.50400000000E-02 0. -1.
    8880023    1    1    2    0    0 -0.34603168995E+03 -0.73894558870E+02 -0.10984844816E+04  0.13287876802E+04  0.65864270000E+03 0. -1.
    8880022    1    1    2    0    0  0.34603168995E+03  0.73894558870E+02  0.16997306116E+03  0.42128473841E+03  0.15294330000E+03 0.  0.
<mgrwt>
<rscale>  0 0.63354958E+03</rscale>
<asrwt>0</asrwt>
<pdfrwt beam="1">  1        1 0.20604491E+00 0.74766874E+03</pdfrwt>
<pdfrwt beam="2">  1       -1 0.63197000E-01 0.74766874E+03</pdfrwt>
<totfact> 0.22233625E+01</totfact>
</mgrwt>
</event>
<event>
 4    1  0.1521315E-007  0.1271762E+04  0.7818608E-02  0.9090337E-01
          1   -1    0    0  501    0  0.00000000000E+00  0.00000000000E+00  0.22351882035E+04  0.22351882035E+04  0.50400000000E-02 0. -1.
         -1   -1    0    0    0  501 -0.00000000000E+00 -0.00000000000E+00 -0.13552936001E+04  0.13552936002E+04  0.50400000000E-02 0.  1.
    8880023    1    1    2    0    0 -0.79247796089E+03 -0.74534972615E+03  0.17679329773E+04  0.21778348770E+04  0.65864270000E+03 0.  0.
    8880022    1    1    2    0    0  0.79247796089E+03  0.74534972615E+03 -0.88803837399E+03  0.14126469267E+04  0.15294330000E+03 0.  0.
<mgrwt>
<rscale>  0 0.12260717E+04</rscale>
<asrwt>0</asrwt>
<pdfrwt beam="1">  1        1 0.34387510E+00 0.12717617E+04</pdfrwt>
<pdfrwt beam="2">  1       -1 0.20850671E+00 0.12717617E+04</pdfrwt>
<totfact> 0.26394313E-01</totfact>
</mgrwt>
</event>
<event>
 4    1  0.1521315E-007  0.7990048E+03  0.7818608E-02  0.9712952E-01
          1   -1    0    0  501    0  0.00000000000E+00  0.00000000000E+00  0.15182685154E+04  0.15182685154E+04  0.50400000000E-02 0. -1.
         -1   -1    0    0    0  501 -0.00000000000E+00 -0.00000000000E+00 -0.32609943583E+03  0.32609943587E+03  0.50400000000E-02 0.  1.
    8880023    1    1    2    0    0 -0.42092195689E+03  0.16559936714E+03  0.10975821356E+04  0.13576064212E+04  0.65864270000E+03 0.  1.
    8880022    1    1    2    0    0  0.42092195689E+03 -0.16559936714E+03  0.94586943970E+02  0.48676153009E+03  0.15294330000E+03 0.  0.
<mgrwt>
<rscale>  0 0.70250842E+03</rscale>
<asrwt>0</asrwt>
<pdfrwt beam="1">  1        1 0.23357978E+00 0.79900479E+03</pdfrwt>
<pdfrwt beam="2">  1       -1 0.50169143E-01 0.79900479E+03</pdfrwt>
<totfact> 0.26021470E+01</totfact>
</mgrwt>
</event>
<event>
 4    1  0.1521315E-007  0.7088476E+03  0.7818608E-02  0.9962305E-01
          1   -1    0    0  501    0  0.00000000000E+00  0.00000000000E+00  0.11168759414E+04  0.11168759414E+04  0.50400000000E-02 0. -1.
         -1   -1    0    0    0  501 -0.00000000000E+00 -0.00000000000E+00 -0.10131738144E+04  0.10131738144E+04  0.50400000000E-02 0.  1.
    8880023    1    1    2    0    0  0.63143367547E+02 -0.25429839661E+03  0.97614030701E+03  0.12063643167E+04  0.65864270000E+03 0.  0.
    8880022    1    1    2    0    0 -0.63143367547E+02  0.25429839661E+03 -0.87243817999E+03  0.92368543905E+03  0.15294330000E+03 0.  0.
<mgrwt>
<rscale>  0 0.57334434E+03</rscale>
<asrwt>0</asrwt>
<pdfrwt beam="1">  1        1 0.17182707E+00 0.70884763E+03</pdfrwt>
<pdfrwt beam="2">  1       -1 0.15587289E+00 0.70884763E+03</pdfrwt>
<totfact> 0.40476174E+00</totfact>
</mgrwt>
</event>
<event>
 4    1  0.1521315E-007  0.8294165E+03  0.7818608E-02  0.9650469E-01
          1   -1    0    0  501    0  0.00000000000E+00  0.00000000000E+00  0.66685447478E+03  0.66685447480E+03  0.50400000000E-02 0. -1.
         -1   -1    0    0    0  501 -0.00000000000E+00 -0.00000000000E+00 -0.75155797772E+03  0.75155797773E+03  0.50400000000E-02 0.  1.
    8880023    1    1    2    0    0 -0.39508110591E+03 -0.31310141462E+03  0.14798624638E+03  0.84251511053E+03  0.65864270000E+03 0.  0.
    8880022    1    1    2    0    0  0.39508110591E+03  0.31310141462E+03 -0.23268974932E+03  0.57589734201E+03  0.15294330000E+03 0. -1.
<mgrwt>
<rscale>  0 0.74044018E+03</rscale>
<asrwt>0</asrwt>
<pdfrwt beam="1">  1        1 0.10259300E+00 0.82941653E+03</pdfrwt>
<pdfrwt beam="2">  1       -1 0.11562430E+00 0.82941653E+03</pdfrwt>
<totfact> 0.20220683E+01</totfact>
</mgrwt>
</event>
<event>
 4    1  0.1521315E-007  0.6942774E+03  0.7818608E-02  0.1002182E+00
         -1   -1    0    0    0  501 -0.00000000000E+00  0.00000000000E+00  0.21723694361E+03  0.21723694367E+03  0.50400000000E-02 0.  1.
          1   -1    0    0  501    0  0.00000000000E+00 -0.00000000000E+00 -0.12349085251E+04  0.12349085251E+04  0.50400000000E-02 0. -1.
    8880023    1    1    2    0    0  0.32587017389E+02  0.21713824828E+03 -0.45783320017E+03  0.83164438194E+03  0.65864270000E+03 0.  0.
    8880022    1    1    2    0    0 -0.32587017389E+02 -0.21713824828E+03 -0.55983838133E+03  0.62050108686E+03  0.15294330000E+03 0.  0.
<mgrwt>
<rscale>  0 0.54703595E+03</rscale>
<asrwt>0</asrwt>
<pdfrwt beam="1">  1        1 0.18998592E+00 0.69427742E+03</pdfrwt>
<pdfrwt beam="2">  1       -1 0.33421069E-01 0.69427742E+03</pdfrwt>
<totfact> 0.87206381E+01</totfact>
</mgrwt>
</event>
<event>
 4    1  0.1521315E-007  0.7605739E+03  0.7818608E-02  0.9803624E-01
          1   -1    0    0  501    0  0.00000000000E+00  0.00000000000E+00  0.17510770836E+04  0.17510770836E+04  0.50400000000E-02 0. -1.
         -1   -1    0    0    0  501 -0.00000000000E+00 -0.00000000000E+00 -0.51883674320E+03  0.51883674323E+03  0.50400000000E-02 0.  1.
    8880023    1    1    2    0    0  0.79890948642E+02  0.37186012604E+03  0.15662327035E+04  0.17411368713E+04  0.65864270000E+03 0.  0.
    8880022    1    1    2    0    0 -0.79890948642E+02 -0.37186012604E+03 -0.33399236311E+03  0.52877695548E+03  0.15294330000E+03 0.  0.
<mgrwt>
<rscale>  0 0.65168428E+03</rscale>
<asrwt>0</asrwt>
<pdfrwt beam="1">  1        1 0.26939648E+00 0.76057394E+03</pdfrwt>
<pdfrwt beam="2">  1       -1 0.79821037E-01 0.76057394E+03</pdfrwt>
<totfact> 0.71845916E+00</totfact>
</mgrwt>
</event>
<event>
 4    1  0.1521315E-007  0.8976738E+03  0.7818608E-02  0.9529776E-01
          1   -1    0    0  501    0  0.00000000000E+00  0.00000000000E+00  0.99215876178E+03  0.99215876179E+03  0.50400000000E-02 0. -1.
         -1   -1    0    0    0  501 -0.00000000000E+00 -0.00000000000E+00 -0.10470136238E+04  0.10470136238E+04  0.50400000000E-02 0.  1.
    8880023    1    1    2    0    0  0.22404555498E+03  0.56728448202E+03  0.63967978036E+03  0.11022742499E+04  0.65864270000E+03 0.  0.
    8880022    1    1    2    0    0 -0.22404555498E+03 -0.56728448202E+03 -0.69453464236E+03  0.93689813571E+03  0.15294330000E+03 0.  0.
<mgrwt>
<rscale>  0 0.82123693E+03</rscale>
<asrwt>0</asrwt>
<pdfrwt beam="1">  1        1 0.15263981E+00 0.89767383E+03</pdfrwt>
<pdfrwt beam="2">  1       -1 0.16107902E+00 0.89767383E+03</pdfrwt>
<totfact> 0.44694863E+00</totfact>
</mgrwt>
</event>
<event>
 4    1  0.1521315E-007  0.7096800E+03  0.7818608E-02  0.9959191E-01
          1   -1    0    0  501    0  0.00000000000E+00  0.00000000000E+00  0.82977720463E+03  0.82977720464E+03  0.50400000000E-02 0. -1.
         -1   -1    0    0    0  501 -0.00000000000E+00 -0.00000000000E+00 -0.13553916721E+04  0.13553916721E+04  0.50400000000E-02 0.  1.
    8880023    1    1    2    0    0  0.22466065086E+03 -0.13915154379E+03  0.65497697857E+03  0.96573319758E+03  0.65864270000E+03 0.  0.
    8880022    1    1    2    0    0 -0.22466065086E+03  0.13915154379E+03 -0.11805914461E+04  0.12194356792E+04  0.15294330000E+03 0.  1.
<mgrwt>
<rscale>  0 0.57476430E+03</rscale>
<asrwt>0</asrwt>
<pdfrwt beam="1">  1        1 0.12765803E+00 0.70968005E+03</pdfrwt>
<pdfrwt beam="2">  1       -1 0.20852179E+00 0.70968005E+03</pdfrwt>
<totfact> 0.28733431E+00</totfact>
</mgrwt>
</event>
<event>
 4    1  0.1521315E-007  0.7498952E+03  0.7818608E-02  0.9832007E-01
         -1   -1    0    0    0  501 -0.00000000000E+00  0.00000000000E+00  0.87772548706E+03  0.87772548707E+03  0.50400000000E-02 0.  1.
          1   -1    0    0  501    0  0.00000000000E+00 -0.00000000000E+00 -0.44102427793E+03  0.44102427796E+03  0.50400000000E-02 0. -1.
    8880023    1    1    2    0    0  0.19357671164E+02  0.35799138026E+03  0.22846624271E+02  0.75024310879E+03  0.65864270000E+03 0. -1.
    8880022    1    1    2    0    0 -0.19357671164E+02 -0.35799138026E+03  0.41385458486E+03  0.56850665625E+03  0.15294330000E+03 0.  1.
<mgrwt>
<rscale>  0 0.63672776E+03</rscale>
<asrwt>0</asrwt>
<pdfrwt beam="1">  1        1 0.67849889E-01 0.74989516E+03</pdfrwt>
<pdfrwt beam="2">  1       -1 0.13503469E+00 0.74989516E+03</pdfrwt>
<totfact> 0.24820387E+01</totfact>
</mgrwt>
</event>
<event>
 4    1  0.1521315E-007  0.7110031E+03  0.7818608E-02  0.9954295E-01
         -1   -1    0    0    0  501 -0.00000000000E+00  0.00000000000E+00  0.27292019444E+03  0.27292019449E+03  0.50400000000E-02 0.  1.
          1   -1    0    0  501    0  0.00000000000E+00 -0.00000000000E+00 -0.14920359509E+04  0.14920359509E+04  0.50400000000E-02 0. -1.
    8880023    1    1    2    0    0  0.54477301654E+02  0.26219722155E+03 -0.12670026137E+04  0.14528664731E+04  0.65864270000E+03 0. -1.
    8880022    1    1    2    0    0 -0.54477301654E+02 -0.26219722155E+03  0.47886857295E+02  0.31208967221E+03  0.15294330000E+03 0.  0.
<mgrwt>
<rscale>  0 0.57700564E+03</rscale>
<asrwt>0</asrwt>
<pdfrwt beam="1">  1        1 0.22954399E+00 0.71100307E+03</pdfrwt>
<pdfrwt beam="2">  1       -1 0.41987723E-01 0.71100307E+03</pdfrwt>
<totfact> 0.38193963E+01</totfact>
</mgrwt>
</event>
<event>
 4    1  0.1521315E-007  0.6972380E+03  0.7818608E-02  0.1000886E+00
         -1   -1    0    0    0  501 -0.00000000000E+00  0.00000000000E+00  0.35883780807E+03  0.35883780810E+03  0.50400000000E-02 0.  1.
          1   -1    0    0  501    0  0.00000000000E+00 -0.00000000000E+00 -0.84716633881E+03  0.84716633883E+03  0.50400000000E-02 0. -1.
    8880023    1    1    2    0    0  0.21747442513E+03 -0.70961022292E+02 -0.58927119862E+03  0.91289722535E+03  0.65864270000E+03 0. -1.
    8880022    1    1    2    0    0 -0.21747442513E+03  0.70961022292E+02  0.10094266787E+03  0.29310692158E+03  0.15294330000E+03 0.  0.
<mgrwt>
<rscale>  0 0.55263541E+03</rscale>
<asrwt>0</asrwt>
<pdfrwt beam="1">  1        1 0.13033328E+00 0.69723798E+03</pdfrwt>
<pdfrwt beam="2">  1       -1 0.55205817E-01 0.69723798E+03</pdfrwt>
<totfact> 0.68540104E+01</totfact>
</mgrwt>
</event>
<event>
 4    1  0.1521315E-007  0.6816823E+03  0.7818608E-02  0.1008388E+00
          1   -1    0    0  501    0  0.00000000000E+00  0.00000000000E+00  0.65677274763E+03  0.65677274765E+03  0.50400000000E-02 0. -1.
         -1   -1    0    0    0  501 -0.00000000000E+00 -0.00000000000E+00 -0.53023739680E+03  0.53023739683E+03  0.50400000000E-02 0.  1.
    8880023    1    1    2    0    0 -0.16985433619E+03  0.45056008949E+02  0.42884137601E+03  0.80535437635E+03  0.65864270000E+03 0. -1.
    8880022    1    1    2    0    0  0.16985433619E+03 -0.45056008949E+02 -0.30230602518E+03  0.38165576812E+03  0.15294330000E+03 0.  0.
<mgrwt>
<rscale>  0 0.52120513E+03</rscale>
<asrwt>0</asrwt>
<pdfrwt beam="1">  1        1 0.10104196E+00 0.68168229E+03</pdfrwt>
<pdfrwt beam="2">  1       -1 0.81574984E-01 0.68168229E+03</pdfrwt>
<totfact> 0.46182529E+01</totfact>
</mgrwt>
</event>
<event>
 4    1  0.1521315E-007  0.6860116E+03  0.7818608E-02  0.1006109E+00
          1   -1    0    0  501    0  0.00000000000E+00  0.00000000000E+00  0.28364013412E+03  0.28364013416E+03  0.50400000000E-02 0. -1.
         -1   -1    0    0    0  501 -0.00000000000E+00 -0.00000000000E+00 -0.91506377683E+03  0.91506377684E+03  0.50400000000E-02 0.  1.
    8880023    1    1    2    0    0  0.96386782066E+02 -0.16586542572E+03 -0.22134659165E+03  0.72083720153E+03  0.65864270000E+03 0. -1.
    8880022    1    1    2    0    0 -0.96386782066E+02  0.16586542572E+03 -0.41007705106E+03  0.47786670948E+03  0.15294330000E+03 0.  0.
<mgrwt>
<rscale>  0 0.53050835E+03</rscale>
<asrwt>0</asrwt>
<pdfrwt beam="1">  1        1 0.43636944E-01 0.68601163E+03</pdfrwt>
<pdfrwt beam="2">  1       -1 0.14077904E+00 0.68601163E+03</pdfrwt>
<totfact> 0.40017125E+01</totfact>
</mgrwt>
</event>
<event>
 4    1  0.2606942E-007  0.1006717E+04  0.7818608E-02  0.9372822E-01
         -1   -1    0    0    0  501 -0.00000000000E+00  0.00000000000E+00  0.21079331078E+04  0.21079331078E+04  0.50400000000E-02 0.  1.
          1   -1    0    0  501    0  0.00000000000E+00 -0.00000000000E+00 -0.39864714929E+04  0.39864714929E+04  0.50400000000E-02 0. -1.
    8880023    1    1    2    0    0 -0.33470603953E+03 -0.68384302000E+03 -0.38479257981E+04  0.39774379396E+04  0.65864270000E+03 0. -1.
    8880022    1    1    2    0    0  0.33470603953E+03  0.68384302000E+03  0.19693874130E+04  0.21169666612E+04  0.15294330000E+03 0.  0.
<mgrwt>
<rscale>  0 0.94346500E+03</rscale>
<asrwt>0</asrwt>
<pdfrwt beam="1">  1        1 0.61330331E+00 0.10067172E+04</pdfrwt>
<pdfrwt beam="2">  1       -1 0.32429740E+00 0.10067172E+04</pdfrwt>
<totfact> 0.24146783E-03</totfact>
</mgrwt>
</event>
<event>
 4    1  0.1521315E-007  0.6825016E+03  0.7818608E-02  0.1007943E+00
         -1   -1    0    0    0  501 -0.00000000000E+00  0.00000000000E+00  0.31383586571E+03  0.31383586575E+03  0.50400000000E-02 0.  1.
          1   -1    0    0  501    0  0.00000000000E+00 -0.00000000000E+00 -0.92603492986E+03  0.92603492987E+03  0.50400000000E-02 0. -1.
    8880023    1    1    2    0    0  0.13477212071E+03 -0.11762089940E+03 -0.11818336797E+03  0.69265844052E+03  0.65864270000E+03 0.  1.
    8880022    1    1    2    0    0 -0.13477212071E+03  0.11762089940E+03 -0.49401569618E+03  0.54721235511E+03  0.15294330000E+03 0.  0.
<mgrwt>
<rscale>  0 0.52300582E+03</rscale>
<asrwt>0</asrwt>
<pdfrwt beam="1">  1        1 0.14246691E+00 0.68250158E+03</pdfrwt>
<pdfrwt beam="2">  1       -1 0.48282441E-01 0.68250158E+03</pdfrwt>
<totfact> 0.76345185E+01</totfact>
</mgrwt>
</event>
<event>
 4    1  0.1521315E-007  0.8413309E+03  0.7818608E-02  0.9627676E-01
         -1   -1    0    0    0  501 -0.00000000000E+00  0.00000000000E+00  0.32917850686E+03  0.32917850689E+03  0.50400000000E-02 0.  1.
          1   -1    0    0  501    0  0.00000000000E+00 -0.00000000000E+00 -0.30487180014E+04  0.30487180014E+04  0.50400000000E-02 0. -1.
    8880023    1    1    2    0    0  0.23017553283E+03 -0.47015610516E+03 -0.27044851363E+04  0.28323272406E+04  0.65864270000E+03 0.  0.
    8880022    1    1    2    0    0 -0.23017553283E+03  0.47015610516E+03 -0.15054358236E+02  0.54556926769E+03  0.15294330000E+03 0.  0.
<mgrwt>
<rscale>  0 0.75491189E+03</rscale>
<asrwt>0</asrwt>
<pdfrwt beam="1">  1        1 0.46903352E+00 0.84133094E+03</pdfrwt>
<pdfrwt beam="2">  1       -1 0.50642849E-01 0.84133094E+03</pdfrwt>
<totfact> 0.22775810E+00</totfact>
</mgrwt>
</event>
<event>
 4    1  0.1521315E-007  0.8493305E+03  0.7818608E-02  0.9612832E-01
          1   -1    0    0  501    0  0.00000000000E+00  0.00000000000E+00  0.24974088501E+04  0.24974088501E+04  0.50400000000E-02 0. -1.
         -1   -1    0    0    0  501 -0.00000000000E+00 -0.00000000000E+00 -0.34046676610E+03  0.34046676613E+03  0.50400000000E-02 0.  1.
    8880023    1    1    2    0    0  0.76415077416E+02 -0.53076627253E+03  0.21144292288E+04  0.22786340799E+04  0.65864270000E+03 0. -1.
    8880022    1    1    2    0    0 -0.76415077416E+02  0.53076627253E+03  0.42512855185E+02  0.55924153635E+03  0.15294330000E+03 0.  0.
<mgrwt>
<rscale>  0 0.76452690E+03</rscale>
<asrwt>0</asrwt>
<pdfrwt beam="1">  1        1 0.38421675E+00 0.84933050E+03</pdfrwt>
<pdfrwt beam="2">  1       -1 0.52379502E-01 0.84933050E+03</pdfrwt>
<totfact> 0.51988065E+00</totfact>
</mgrwt>
</event>
<event>
 4    1  0.1521315E-007  0.6755599E+03  0.7818608E-02  0.1011956E+00
         -1   -1    0    0    0  501 -0.00000000000E+00  0.00000000000E+00  0.31573402131E+03  0.31573402135E+03  0.50400000000E-02 0.  1.
          1   -1    0    0  501    0  0.00000000000E+00 -0.00000000000E+00 -0.93184990294E+03  0.93184990295E+03  0.50400000000E-02 0. -1.
    8880023    1    1    2    0    0 -0.45968988663E+02  0.14303098325E+03 -0.73837125702E+03  0.10007863556E+04  0.65864270000E+03 0. -1.
    8880022    1    1    2    0    0  0.45968988663E+02 -0.14303098325E+03  0.12225537539E+03  0.24679756870E+03  0.15294330000E+03 0.  0.
<mgrwt>
<rscale>  0 0.50704740E+03</rscale>
<asrwt>0</asrwt>
<pdfrwt beam="1">  1        1 0.14336152E+00 0.67555993E+03</pdfrwt>
<pdfrwt beam="2">  1       -1 0.48574465E-01 0.67555993E+03</pdfrwt>
<totfact> 0.74730736E+01</totfact>
</mgrwt>
</event>
<event>
 4    1  0.1521315E-007  0.7409534E+03  0.7818608E-02  0.9857178E-01
         -1   -1    0    0    0  501 -0.00000000000E+00  0.00000000000E+00  0.13993808418E+03  0.13993808427E+03  0.50400000000E-02 0.  1.
          1   -1    0    0  501    0  0.00000000000E+00 -0.00000000000E+00 -0.23537678399E+04  0.23537678399E+04  0.50400000000E-02 0. -1.
    8880023    1    1    2    0    0 -0.27437321083E+03 -0.19980268724E+03 -0.17394620752E+04  0.18906983604E+04  0.65864270000E+03 0.  1.
    8880022    1    1    2    0    0  0.27437321083E+03  0.19980268724E+03 -0.47436768051E+03  0.60300756378E+03  0.15294330000E+03 0. -1.
<mgrwt>
<rscale>  0 0.62382247E+03</rscale>
<asrwt>0</asrwt>
<pdfrwt beam="1">  1        1 0.36211810E+00 0.74095343E+03</pdfrwt>
<pdfrwt beam="2">  1       -1 0.21528938E-01 0.74095343E+03</pdfrwt>
<totfact> 0.32220285E+01</totfact>
</mgrwt>
</event>
<event>
 4    1  0.1521315E-007  0.7905595E+03  0.7818608E-02  0.9731593E-01
          1   -1    0    0  501    0  0.00000000000E+00  0.00000000000E+00  0.17011839578E+04  0.17011839578E+04  0.50400000000E-02 0. -1.
         -1   -1    0    0    0  501 -0.00000000000E+00 -0.00000000000E+00 -0.33982022575E+03  0.33982022579E+03  0.50400000000E-02 0.  1.
    8880023    1    1    2    0    0  0.34684231405E+03 -0.26622269722E+03  0.13654253049E+04  0.15777739334E+04  0.65864270000E+03 0.  0.
    8880022    1    1    2    0    0 -0.34684231405E+03  0.26622269722E+03 -0.40615728508E+01  0.46323025022E+03  0.15294330000E+03 0.  0.
<mgrwt>
<rscale>  0 0.69166528E+03</rscale>
<asrwt>0</asrwt>
<pdfrwt beam="1">  1        1 0.26172061E+00 0.79055950E+03</pdfrwt>
<pdfrwt beam="2">  1       -1 0.52280035E-01 0.79055950E+03</pdfrwt>
<totfact> 0.18094399E+01</totfact>
</mgrwt>
</event>
<event>
 4    1  0.1521315E-007  0.8311115E+03  0.7818608E-02  0.9647174E-01
          1   -1    0    0  501    0  0.00000000000E+00  0.00000000000E+00  0.72238178120E+03  0.72238178122E+03  0.50400000000E-02 0. -1.
         -1   -1    0    0    0  501 -0.00000000000E+00 -0.00000000000E+00 -0.96770895619E+03  0.96770895621E+03  0.50400000000E-02 0.  1.
    8880023    1    1    2    0    0 -0.43704491946E+03  0.25676429027E+03  0.34254865285E+03  0.89893600897E+03  0.65864270000E+03 0.  0.
    8880022    1    1    2    0    0  0.43704491946E+03 -0.25676429027E+03 -0.58787582784E+03  0.79115472846E+03  0.15294330000E+03 0.  0.
<mgrwt>
<rscale>  0 0.74251076E+03</rscale>
<asrwt>0</asrwt>
<pdfrwt beam="1">  1        1 0.11113566E+00 0.83111153E+03</pdfrwt>
<pdfrwt beam="2">  1       -1 0.14887830E+00 0.83111153E+03</pdfrwt>
<totfact> 0.94346963E+00</totfact>
</mgrwt>
</event>
<event>
 4    1  0.1521315E-007  0.1178955E+04  0.7818608E-02  0.9177856E-01
         -1   -1    0    0    0  501 -0.00000000000E+00  0.00000000000E+00  0.63266826739E+03  0.63266826741E+03  0.50400000000E-02 0.  1.
          1   -1    0    0  501    0  0.00000000000E+00 -0.00000000000E+00 -0.22648154855E+04  0.22648154855E+04  0.50400000000E-02 0. -1.
    8880023    1    1    2    0    0 -0.22712628384E+03 -0.95107199539E+03 -0.14862705981E+04  0.18970858668E+04  0.65864270000E+03 0. -1.
    8880022    1    1    2    0    0  0.22712628384E+03  0.95107199539E+03 -0.14587662009E+03  0.10003978861E+04  0.15294330000E+03 0.  0.
<mgrwt>
<rscale>  0 0.11284942E+04</rscale>
<asrwt>0</asrwt>
<pdfrwt beam="1">  1        1 0.34843315E+00 0.11789548E+04</pdfrwt>
<pdfrwt beam="2">  1       -1 0.97333581E-01 0.11789548E+04</pdfrwt>
<totfact> 0.19759608E+00</totfact>
</mgrwt>
</event>
<event>
 4    1  0.1521315E-007  0.6652907E+03  0.7818608E-02  0.1019291E+00
         -1   -1    0    0    0  501 -0.00000000000E+00  0.00000000000E+00  0.52086357118E+03  0.52086357121E+03  0.50400000000E-02 0.  1.
          1   -1    0    0  501    0  0.00000000000E+00 -0.00000000000E+00 -0.85881471465E+03  0.85881471466E+03  0.50400000000E-02 0. -1.
    8880023    1    1    2    0    0 -0.89226015600E+02 -0.28987189942E+02 -0.70609063131E+03  0.97014211584E+03  0.65864270000E+03 0. -1.
    8880022    1    1    2    0    0  0.89226015600E+02  0.28987189942E+02  0.36813948784E+03  0.40953617003E+03  0.15294330000E+03 0.  0.
<mgrwt>
<rscale>  0 0.47943430E+03</rscale>
<asrwt>0</asrwt>
<pdfrwt beam="1">  1        1 0.13212534E+00 0.66529072E+03</pdfrwt>
<pdfrwt beam="2">  1       -1 0.80132857E-01 0.66529072E+03</pdfrwt>
<totfact> 0.31690588E+01</totfact>
</mgrwt>
</event>
<event>
 4    1  0.1521315E-007  0.9089514E+03  0.7818608E-02  0.9511812E-01
         -1   -1    0    0    0  501 -0.00000000000E+00  0.00000000000E+00  0.25912169185E+04  0.25912169185E+04  0.50400000000E-02 0.  1.
          1   -1    0    0  501    0  0.00000000000E+00 -0.00000000000E+00 -0.48519412797E+03  0.48519412799E+03  0.50400000000E-02 0. -1.
    8880023    1    1    2    0    0  0.61177920678E+03  0.13456845471E+03  0.37507749778E+02  0.90972496086E+03  0.65864270000E+03 0.  0.
    8880022    1    1    2    0    0 -0.61177920678E+03 -0.13456845471E+03  0.20685150408E+04  0.21666860857E+04  0.15294330000E+03 0.  0.
<mgrwt>
<rscale>  0 0.83418559E+03</rscale>
<asrwt>0</asrwt>
<pdfrwt beam="1">  1        1 0.74645250E-01 0.90895141E+03</pdfrwt>
<pdfrwt beam="2">  1       -1 0.39864876E+00 0.90895141E+03</pdfrwt>
<totfact> 0.35151774E-01</totfact>
</mgrwt>
</event>
<event>
 4    1  0.1521315E-007  0.8491303E+03  0.7818608E-02  0.9613199E-01
          1   -1    0    0  501    0  0.00000000000E+00  0.00000000000E+00  0.19397571305E+04  0.19397571306E+04  0.50400000000E-02 0. -1.
         -1   -1    0    0    0  501 -0.00000000000E+00 -0.00000000000E+00 -0.33895055169E+03  0.33895055173E+03  0.50400000000E-02 0.  1.
    8880023    1    1    2    0    0  0.24973005323E+03 -0.47418024911E+03  0.14832761617E+04  0.17091314713E+04  0.65864270000E+03 0.  0.
    8880022    1    1    2    0    0 -0.24973005323E+03  0.47418024911E+03  0.11753041716E+03  0.56957621097E+03  0.15294330000E+03 0.  0.
<mgrwt>
<rscale>  0 0.76428716E+03</rscale>
<asrwt>0</asrwt>
<pdfrwt beam="1">  1        1 0.29842416E+00 0.84913027E+03</pdfrwt>
<pdfrwt beam="2">  1       -1 0.52146241E-01 0.84913027E+03</pdfrwt>
<totfact> 0.12476717E+01</totfact>
</mgrwt>
</event>
<event>
 4    1  0.1521315E-007  0.1010623E+04  0.7818608E-02  0.9367790E-01
          1   -1    0    0  501    0  0.00000000000E+00  0.00000000000E+00  0.11803582321E+04  0.11803582321E+04  0.50400000000E-02 0. -1.
         -1   -1    0    0    0  501 -0.00000000000E+00 -0.00000000000E+00 -0.18440477967E+04  0.18440477967E+04  0.50400000000E-02 0.  1.
    8880023    1    1    2    0    0 -0.73728705170E+03 -0.20965705672E+03 -0.15451517422E+04  0.18463077725E+04  0.65864270000E+03 0.  1.
    8880022    1    1    2    0    0  0.73728705170E+03  0.20965705672E+03  0.88146217757E+03  0.11780982563E+04  0.15294330000E+03 0.  0.
<mgrwt>
<rscale>  0 0.94774530E+03</rscale>
<asrwt>0</asrwt>
<pdfrwt beam="1">  1        1 0.18159357E+00 0.10106228E+04</pdfrwt>
<pdfrwt beam="2">  1       -1 0.28369966E+00 0.10106228E+04</pdfrwt>
<totfact> 0.47038811E-01</totfact>
</mgrwt>
</event>
<event>
 4    1  0.1521315E-007  0.6718591E+03  0.7818608E-02  0.1014364E+00
         -1   -1    0    0    0  501 -0.00000000000E+00  0.00000000000E+00  0.60970139949E+03  0.60970139951E+03  0.50400000000E-02 0.  1.
          1   -1    0    0  501    0  0.00000000000E+00 -0.00000000000E+00 -0.73544216839E+03  0.73544216841E+03  0.50400000000E-02 0. -1.
    8880023    1    1    2    0    0 -0.89568731607E+02 -0.97785019510E+02 -0.55441762074E+03  0.87107610011E+03  0.65864270000E+03 0. -1.
    8880022    1    1    2    0    0  0.89568731607E+02  0.97785019510E+02  0.42867685184E+03  0.47406746782E+03  0.15294330000E+03 0.  0.
<mgrwt>
<rscale>  0 0.49776576E+03</rscale>
<asrwt>0</asrwt>
<pdfrwt beam="1">  1        1 0.11314495E+00 0.67185912E+03</pdfrwt>
<pdfrwt beam="2">  1       -1 0.93800215E-01 0.67185912E+03</pdfrwt>
<totfact> 0.28775190E+01</totfact>
</mgrwt>
</event>
<event>
 4    1  0.1521315E-007  0.6601400E+03  0.7818608E-02  0.1024013E+00
         -1   -1    0    0    0  501 -0.00000000000E+00  0.00000000000E+00  0.48936652241E+03  0.48936652244E+03  0.50400000000E-02 0.  1.
          1   -1    0    0  501    0  0.00000000000E+00 -0.00000000000E+00 -0.45381935902E+03  0.45381935904E+03  0.50400000000E-02 0. -1.
    8880023    1    1    2    0    0  0.37439303030E+02 -0.23936559403E+02 -0.17141789252E+03  0.68203296139E+03  0.65864270000E+03 0. -1.
    8880022    1    1    2    0    0 -0.37439303030E+02  0.23936559403E+02  0.20696505591E+03  0.26115292009E+03  0.15294330000E+03 0.  0.
<mgrwt>
<rscale>  0 0.46265709E+03</rscale>
<asrwt>0</asrwt>
<pdfrwt beam="1">  1        1 0.69818363E-01 0.66014004E+03</pdfrwt>
<pdfrwt beam="2">  1       -1 0.75287157E-01 0.66014004E+03</pdfrwt>
<totfact> 0.91997551E+01</totfact>
</mgrwt>
</event>
<event>
 4    1  0.1521315E-007  0.7031810E+03  0.7818608E-02  0.9984252E-01
          1   -1    0    0  501    0  0.00000000000E+00  0.00000000000E+00  0.53366829547E+03  0.53366829549E+03  0.50400000000E-02 0. -1.
         -1   -1    0    0    0  501 -0.00000000000E+00 -0.00000000000E+00 -0.10993619786E+04  0.10993619786E+04  0.50400000000E-02 0.  1.
    8880023    1    1    2    0    0 -0.24175483292E+03  0.46988446615E+02  0.26634462313E+03  0.75193282804E+03  0.65864270000E+03 0. -1.
    8880022    1    1    2    0    0  0.24175483292E+03 -0.46988446615E+02 -0.83203830630E+03  0.88109744610E+03  0.15294330000E+03 0.  0.
<mgrwt>
<rscale>  0 0.56346158E+03</rscale>
<asrwt>0</asrwt>
<pdfrwt beam="1">  1        1 0.82102815E-01 0.70318100E+03</pdfrwt>
<pdfrwt beam="2">  1       -1 0.16913261E+00 0.70318100E+03</pdfrwt>
<totfact> 0.10476219E+01</totfact>
</mgrwt>
</event>
<event>
 4    1  0.1521315E-007  0.9243130E+03  0.7818608E-02  0.9488077E-01
         -1   -1    0    0    0  501 -0.00000000000E+00  0.00000000000E+00  0.32976075127E+03  0.32976075131E+03  0.50400000000E-02 0.  1.
          1   -1    0    0  501    0  0.00000000000E+00 -0.00000000000E+00 -0.29243590724E+04  0.29243590724E+04  0.50400000000E-02 0. -1.
    8880023    1    1    2    0    0  0.64630443566E+03  0.53244384548E+02 -0.23815047109E+04  0.25545878890E+04  0.65864270000E+03 0.  0.
    8880022    1    1    2    0    0 -0.64630443566E+03 -0.53244384548E+02 -0.21309361024E+03  0.69953193478E+03  0.15294330000E+03 0.  0.
<mgrwt>
<rscale>  0 0.85168571E+03</rscale>
<asrwt>0</asrwt>
<pdfrwt beam="1">  1        1 0.44990138E+00 0.92431304E+03</pdfrwt>
<pdfrwt beam="2">  1       -1 0.50732425E-01 0.92431304E+03</pdfrwt>
<totfact> 0.27496852E+00</totfact>
</mgrwt>
</event>
<event>
 4    1  0.1521315E-007  0.7520859E+03  0.7818608E-02  0.9826044E-01
         -1   -1    0    0    0  501 -0.00000000000E+00  0.00000000000E+00  0.60823779541E+03  0.60823779543E+03  0.50400000000E-02 0.  1.
          1   -1    0    0  501    0  0.00000000000E+00 -0.00000000000E+00 -0.14008246465E+04  0.14008246465E+04  0.50400000000E-02 0. -1.
    8880023    1    1    2    0    0  0.33390124612E+03  0.14259389188E+03 -0.12165824562E+04  0.14302818390E+04  0.65864270000E+03 0. -1.
    8880022    1    1    2    0    0 -0.33390124612E+03 -0.14259389188E+03  0.42399560507E+03  0.57878060290E+03  0.15294330000E+03 0.  0.
<mgrwt>
<rscale>  0 0.63983385E+03</rscale>
<asrwt>0</asrwt>
<pdfrwt beam="1">  1        1 0.21551148E+00 0.75208594E+03</pdfrwt>
<pdfrwt beam="2">  1       -1 0.93575046E-01 0.75208594E+03</pdfrwt>
<totfact> 0.88168235E+00</totfact>
</mgrwt>
</event>
<event>
 4    1  0.1521315E-007  0.6681313E+03  0.7818608E-02  0.1017039E+00
         -1   -1    0    0    0  501 -0.00000000000E+00  0.00000000000E+00  0.16980506305E+03  0.16980506312E+03  0.50400000000E-02 0.  1.
          1   -1    0    0  501    0  0.00000000000E+00 -0.00000000000E+00 -0.22023252836E+04  0.22023252836E+04  0.50400000000E-02 0. -1.
    8880023    1    1    2    0    0  0.49720538419E+02 -0.10058406509E+03 -0.20731400108E+04  0.21781434748E+04  0.65864270000E+03 0. -1.
    8880022    1    1    2    0    0 -0.49720538419E+02  0.10058406509E+03  0.40619790293E+02  0.19398687190E+03  0.15294330000E+03 0.  0.
<mgrwt>
<rscale>  0 0.48770302E+03</rscale>
<asrwt>0</asrwt>
<pdfrwt beam="1">  1        1 0.33881926E+00 0.66813134E+03</pdfrwt>
<pdfrwt beam="2">  1       -1 0.26123857E-01 0.66813134E+03</pdfrwt>
<totfact> 0.29662507E+01</totfact>
</mgrwt>
</event>
<event>
 4    1  0.1521315E-007  0.7056958E+03  0.7818608E-02  0.9974346E-01
          1   -1    0    0  501    0  0.00000000000E+00  0.00000000000E+00  0.28978800111E+04  0.28978800111E+04  0.50400000000E-02 0. -1.
         -1   -1    0    0    0  501 -0.00000000000E+00 -0.00000000000E+00 -0.50559281220E+03  0.50559281223E+03  0.50400000000E-02 0.  1.
    8880023    1    1    2    0    0  0.25304044086E+03 -0.12918091254E+02  0.28067977183E+04  0.28941527222E+04  0.65864270000E+03 0. -1.
    8880022    1    1    2    0    0 -0.25304044086E+03  0.12918091254E+02 -0.41451051935E+03  0.50932010117E+03  0.15294330000E+03 0.  0.
<mgrwt>
<rscale>  0 0.56789588E+03</rscale>
<asrwt>0</asrwt>
<pdfrwt beam="1">  1        1 0.44582770E+00 0.70569579E+03</pdfrwt>
<pdfrwt beam="2">  1       -1 0.77783509E-01 0.70569579E+03</pdfrwt>
<totfact> 0.12747664E+00</totfact>
</mgrwt>
</event>
<event>
 4    1  0.1521315E-007  0.6727822E+03  0.7818608E-02  0.1013742E+00
          1   -1    0    0  501    0  0.00000000000E+00  0.00000000000E+00  0.15793501406E+04  0.15793501406E+04  0.50400000000E-02 0. -1.
         -1   -1    0    0    0  501 -0.00000000000E+00 -0.00000000000E+00 -0.63048486905E+03  0.63048486907E+03  0.50400000000E-02 0.  1.
    8880023    1    1    2    0    0 -0.13690804296E+03 -0.90485282772E+01  0.14879168437E+04  0.16329520593E+04  0.65864270000E+03 0. -1.
    8880022    1    1    2    0    0  0.13690804296E+03  0.90485282772E+01 -0.53905157208E+03  0.57688295040E+03  0.15294330000E+03 0.  0.
<mgrwt>
<rscale>  0 0.50014074E+03</rscale>
<asrwt>0</asrwt>
<pdfrwt beam="1">  1        1 0.24297694E+00 0.67278220E+03</pdfrwt>
<pdfrwt beam="2">  1       -1 0.96997673E-01 0.67278220E+03</pdfrwt>
<totfact> 0.62203807E+00</totfact>
</mgrwt>
</event>
<event>
 4    1  0.1521315E-007  0.6753850E+03  0.7818608E-02  0.1012065E+00
          1   -1    0    0  501    0  0.00000000000E+00  0.00000000000E+00  0.15484984766E+04  0.15484984766E+04  0.50400000000E-02 0. -1.
         -1   -1    0    0    0  501 -0.00000000000E+00 -0.00000000000E+00 -0.73435665370E+03  0.73435665371E+03  0.50400000000E-02 0.  1.
    8880023    1    1    2    0    0  0.13162097734E+03  0.70785315816E+02  0.14566984825E+04  0.16056510573E+04  0.65864270000E+03 0. -1.
    8880022    1    1    2    0    0 -0.13162097734E+03 -0.70785315816E+02 -0.64255665964E+03  0.67720407299E+03  0.15294330000E+03 0.  0.
<mgrwt>
<rscale>  0 0.50662229E+03</rscale>
<asrwt>0</asrwt>
<pdfrwt beam="1">  1        1 0.23823053E+00 0.67538496E+03</pdfrwt>
<pdfrwt beam="2">  1       -1 0.11297795E+00 0.67538496E+03</pdfrwt>
<totfact> 0.45848415E+00</totfact>
</mgrwt>
</event>
<event>
 4    1  0.1521315E-007  0.8471449E+03  0.7818608E-02  0.9616852E-01
         -1   -1    0    0    0  501 -0.00000000000E+00  0.00000000000E+00  0.14993727877E+04  0.14993727877E+04  0.50400000000E-02 0.  1.
          1   -1    0    0  501    0  0.00000000000E+00 -0.00000000000E+00 -0.64593504542E+03  0.64593504544E+03  0.50400000000E-02 0. -1.
    8880023    1    1    2    0    0 -0.53212712383E+03  0.26171972777E+02 -0.27286176341E+03  0.89000449227E+03  0.65864270000E+03 0. -1.
    8880022    1    1    2    0    0  0.53212712383E+03 -0.26171972777E+02  0.11262995057E+04  0.12553033408E+04  0.15294330000E+03 0.  0.
<mgrwt>
<rscale>  0 0.76190753E+03</rscale>
<asrwt>0</asrwt>
<pdfrwt beam="1">  1        1 0.99374624E-01 0.84714488E+03</pdfrwt>
<pdfrwt beam="2">  1       -1 0.23067273E+00 0.84714488E+03</pdfrwt>
<totfact> 0.29480160E+00</totfact>
</mgrwt>
</event>
<event>
 4    1  0.1521315E-007  0.8773393E+03  0.7818608E-02  0.9563435E-01
          1   -1    0    0  501    0  0.00000000000E+00  0.00000000000E+00  0.18531496897E+04  0.18531496897E+04  0.50400000000E-02 0. -1.
         -1   -1    0    0    0  501 -0.00000000000E+00 -0.00000000000E+00 -0.62605978659E+03  0.62605978661E+03  0.50400000000E-02 0.  1.
    8880023    1    1    2    0    0 -0.61716631759E+02  0.57628561268E+03  0.15627687622E+04  0.17921971042E+04  0.65864270000E+03 0.  0.
    8880022    1    1    2    0    0  0.61716631759E+02 -0.57628561268E+03 -0.33567885906E+03  0.68701237213E+03  0.15294330000E+03 0.  0.
<mgrwt>
<rscale>  0 0.79764327E+03</rscale>
<asrwt>0</asrwt>
<pdfrwt beam="1">  1        1 0.28509995E+00 0.87733931E+03</pdfrwt>
<pdfrwt beam="2">  1       -1 0.96316891E-01 0.87733931E+03</pdfrwt>
<totfact> 0.39957535E+00</totfact>
</mgrwt>
</event>
<event>
 4    1  0.1521315E-007  0.1396925E+04  0.7818608E-02  0.8986076E-01
          1   -1    0    0  501    0  0.00000000000E+00  0.00000000000E+00  0.16958453979E+04  0.16958453979E+04  0.50400000000E-02 0. -1.
         -1   -1    0    0    0  501 -0.00000000000E+00 -0.00000000000E+00 -0.13064308170E+04  0.13064308170E+04  0.50400000000E-02 0.  1.
    8880023    1    1    2    0    0 -0.12049914776E+04  0.25609303110E+03  0.89811609873E+03  0.16607259963E+04  0.65864270000E+03 0. -1.
    8880022    1    1    2    0    0  0.12049914776E+04 -0.25609303110E+03 -0.50870151784E+03  0.13415502186E+04  0.15294330000E+03 0.  1.
<mgrwt>
<rscale>  0 0.13562956E+04</rscale>
<asrwt>0</asrwt>
<pdfrwt beam="1">  1        1 0.26089929E+00 0.13969246E+04</pdfrwt>
<pdfrwt beam="2">  1       -1 0.20098936E+00 0.13969246E+04</pdfrwt>
<totfact> 0.68026910E-01</totfact>
</mgrwt>
</event>
<event>
 4    1  0.1521315E-007  0.7038865E+03  0.7818608E-02  0.9981445E-01
          1   -1    0    0  501    0  0.00000000000E+00  0.00000000000E+00  0.32462704371E+03  0.32462704375E+03  0.50400000000E-02 0. -1.
         -1   -1    0    0    0  501 -0.00000000000E+00 -0.00000000000E+00 -0.12362441612E+04  0.12362441613E+04  0.50400000000E-02 0.  1.
    8880023    1    1    2    0    0  0.11276360044E+03 -0.22120217512E+03 -0.11585134692E+03  0.71335669389E+03  0.65864270000E+03 0. -1.
    8880022    1    1    2    0    0 -0.11276360044E+03  0.22120217512E+03 -0.79576577061E+03  0.84751451112E+03  0.15294330000E+03 0.  0.
<mgrwt>
<rscale>  0 0.56471382E+03</rscale>
<asrwt>0</asrwt>
<pdfrwt beam="1">  1        1 0.49942623E-01 0.70388652E+03</pdfrwt>
<pdfrwt beam="2">  1       -1 0.19019141E+00 0.70388652E+03</pdfrwt>
<totfact> 0.14401206E+01</totfact>
</mgrwt>
</event>
<event>
 4    1  0.1521315E-007  0.7704434E+03  0.7818608E-02  0.9778784E-01
          1   -1    0    0  501    0  0.00000000000E+00  0.00000000000E+00  0.23244330779E+04  0.23244330779E+04  0.50400000000E-02 0. -1.
         -1   -1    0    0    0  501 -0.00000000000E+00 -0.00000000000E+00 -0.54563377164E+03  0.54563377166E+03  0.50400000000E-02 0.  1.
    8880023    1    1    2    0    0  0.19824667635E+03 -0.34708947218E+03  0.21622669224E+04  0.22954261687E+04  0.65864270000E+03 0.  0.
    8880022    1    1    2    0    0 -0.19824667635E+03  0.34708947218E+03 -0.38346761613E+03  0.57464068079E+03  0.15294330000E+03 0.  0.
<mgrwt>
<rscale>  0 0.66513641E+03</rscale>
<asrwt>0</asrwt>
<pdfrwt beam="1">  1        1 0.35760510E+00 0.77044341E+03</pdfrwt>
<pdfrwt beam="2">  1       -1 0.83943655E-01 0.77044341E+03</pdfrwt>
<totfact> 0.26574478E+00</totfact>
</mgrwt>
</event>
<event>
 4    1  0.1521315E-007  0.6601154E+03  0.7818608E-02  0.1024038E+00
          1   -1    0    0  501    0  0.00000000000E+00  0.00000000000E+00  0.27741351129E+03  0.27741351133E+03  0.50400000000E-02 0. -1.
         -1   -1    0    0    0  501 -0.00000000000E+00 -0.00000000000E+00 -0.88457873177E+03  0.88457873178E+03  0.50400000000E-02 0.  1.
    8880023    1    1    2    0    0 -0.10996167104E+02 -0.42676030449E+02 -0.14866221769E+03  0.67664822508E+03  0.65864270000E+03 0. -1.
    8880022    1    1    2    0    0  0.10996167104E+02  0.42676030449E+02 -0.45850300279E+03  0.48534401804E+03  0.15294330000E+03 0.  0.
<mgrwt>
<rscale>  0 0.46257001E+03</rscale>
<asrwt>0</asrwt>
<pdfrwt beam="1">  1        1 0.42679002E-01 0.66011542E+03</pdfrwt>
<pdfrwt beam="2">  1       -1 0.13608903E+00 0.66011542E+03</pdfrwt>
<totfact> 0.45056347E+01</totfact>
</mgrwt>
</event>
<event>
 4    1  0.1521315E-007  0.7792245E+03  0.7818608E-02  0.9757662E-01
          1   -1    0    0  501    0  0.00000000000E+00  0.00000000000E+00  0.13985630007E+04  0.13985630007E+04  0.50400000000E-02 0. -1.
         -1   -1    0    0    0  501 -0.00000000000E+00 -0.00000000000E+00 -0.29205784334E+03  0.29205784339E+03  0.50400000000E-02 0.  1.
    8880023    1    1    2    0    0 -0.16879202362E+03 -0.38064398182E+03  0.92976564707E+03  0.12131178644E+04  0.65864270000E+03 0. -1.
    8880022    1    1    2    0    0  0.16879202362E+03  0.38064398182E+03  0.17673951029E+03  0.47750297972E+03  0.15294330000E+03 0.  0.
<mgrwt>
<rscale>  0 0.67684998E+03</rscale>
<asrwt>0</asrwt>
<pdfrwt beam="1">  1        1 0.21516354E+00 0.77922448E+03</pdfrwt>
<pdfrwt beam="2">  1       -1 0.44931976E-01 0.77922448E+03</pdfrwt>
<totfact> 0.38791970E+01</totfact>
</mgrwt>
</event>
<event>
 4    1  0.1521315E-007  0.1136814E+04  0.7818608E-02  0.9221134E-01
          1   -1    0    0  501    0  0.00000000000E+00  0.00000000000E+00  0.24145836371E+04  0.24145836371E+04  0.50400000000E-02 0. -1.
         -1   -1    0    0    0  501 -0.00000000000E+00 -0.00000000000E+00 -0.75503811575E+03  0.75503811577E+03  0.50400000000E-02 0.  1.
    8880023    1    1    2    0    0  0.91530591732E+03  0.14405493040E+03 -0.13440281038E+03  0.11447318756E+04  0.65864270000E+03 0.  0.
    8880022    1    1    2    0    0 -0.91530591732E+03 -0.14405493040E+03  0.17939483317E+04  0.20248898773E+04  0.15294330000E+03 0.  0.
<mgrwt>
<rscale>  0 0.10837930E+04</rscale>
<asrwt>0</asrwt>
<pdfrwt beam="1">  1        1 0.37147441E+00 0.11368144E+04</pdfrwt>
<pdfrwt beam="2">  1       -1 0.11615971E+00 0.11368144E+04</pdfrwt>
<totfact> 0.10365345E+00</totfact>
</mgrwt>
</event>
<event>
 4    1  0.1521315E-007  0.9097570E+03  0.7818608E-02  0.9510547E-01
          1   -1    0    0  501    0  0.00000000000E+00  0.00000000000E+00  0.70985669419E+03  0.70985669420E+03  0.50400000000E-02 0. -1.
         -1   -1    0    0    0  501 -0.00000000000E+00 -0.00000000000E+00 -0.92326965985E+03  0.92326965987E+03  0.50400000000E-02 0.  1.
    8880023    1    1    2    0    0  0.61647406812E+03 -0.11750423667E+03  0.99871184265E+02  0.91522236752E+03  0.65864270000E+03 0. -1.
    8880022    1    1    2    0    0 -0.61647406812E+03  0.11750423667E+03 -0.31328414993E+03  0.71790398655E+03  0.15294330000E+03 0.  1.
<mgrwt>
<rscale>  0 0.83510710E+03</rscale>
<asrwt>0</asrwt>
<pdfrwt beam="1">  1        1 0.10920872E+00 0.90975696E+03</pdfrwt>
<pdfrwt beam="2">  1       -1 0.14204149E+00 0.90975696E+03</pdfrwt>
<totfact> 0.10883302E+01</totfact>
</mgrwt>
</event>
<event>
 4    1  0.1521315E-007  0.7675366E+03  0.7818608E-02  0.9785973E-01
         -1   -1    0    0    0  501 -0.00000000000E+00  0.00000000000E+00  0.34799273322E+03  0.34799273326E+03  0.50400000000E-02 0.  1.
          1   -1    0    0  501    0  0.00000000000E+00 -0.00000000000E+00 -0.11324375587E+04  0.11324375587E+04  0.50400000000E-02 0. -1.
    8880023    1    1    2    0    0 -0.19002413702E+03  0.34524341152E+03 -0.72082313681E+03  0.10529474757E+04  0.65864270000E+03 0. -1.
    8880022    1    1    2    0    0  0.19002413702E+03 -0.34524341152E+03 -0.63621688624E+02  0.42748281618E+03  0.15294330000E+03 0.  1.
<mgrwt>
<rscale>  0 0.66120786E+03</rscale>
<asrwt>0</asrwt>
<pdfrwt beam="1">  1        1 0.17422116E+00 0.76753657E+03</pdfrwt>
<pdfrwt beam="2">  1       -1 0.53537344E-01 0.76753657E+03</pdfrwt>
<totfact> 0.43218154E+01</totfact>
</mgrwt>
</event>
<event>
 4    1  0.1521315E-007  0.8806528E+03  0.7818608E-02  0.9557832E-01
          1   -1    0    0  501    0  0.00000000000E+00  0.00000000000E+00  0.93422485356E+03  0.93422485357E+03  0.50400000000E-02 0. -1.
         -1   -1    0    0    0  501 -0.00000000000E+00 -0.00000000000E+00 -0.73531953654E+03  0.73531953656E+03  0.50400000000E-02 0.  1.
    8880023    1    1    2    0    0 -0.30378836100E+03 -0.49945151771E+03  0.48014659914E+03  0.10030404527E+04  0.65864270000E+03 0. -1.
    8880022    1    1    2    0    0  0.30378836100E+03  0.49945151771E+03 -0.28124128213E+03  0.66650393743E+03  0.15294330000E+03 0.  1.
<mgrwt>
<rscale>  0 0.80151123E+03</rscale>
<asrwt>0</asrwt>
<pdfrwt beam="1">  1        1 0.14372690E+00 0.88065282E+03</pdfrwt>
<pdfrwt beam="2">  1       -1 0.11312608E+00 0.88065282E+03</pdfrwt>
<totfact> 0.12365106E+01</totfact>
</mgrwt>
</event>
<event>
 4    1  0.1521315E-007  0.1306890E+04  0.7818608E-02  0.9059632E-01
         -1   -1    0    0    0  501 -0.00000000000E+00  0.00000000000E+00  0.13260192776E+04  0.13260192776E+04  0.50400000000E-02 0.  1.
          1   -1    0    0  501    0  0.00000000000E+00 -0.00000000000E+00 -0.18872522314E+04  0.18872522314E+04  0.50400000000E-02 0. -1.
    8880023    1    1    2    0    0 -0.11161393332E+04 -0.16847887046E+03 -0.13097555668E+04  0.18502491702E+04  0.65864270000E+03 0.  0.
    8880022    1    1    2    0    0  0.11161393332E+04  0.16847887046E+03  0.74852261303E+03  0.13630223388E+04  0.15294330000E+03 0.  0.
<mgrwt>
<rscale>  0 0.12627565E+04</rscale>
<asrwt>0</asrwt>
<pdfrwt beam="1">  1        1 0.29034650E+00 0.13068903E+04</pdfrwt>
<pdfrwt beam="2">  1       -1 0.20400297E+00 0.13068903E+04</pdfrwt>
<totfact> 0.48561044E-01</totfact>
</mgrwt>
</event>
<event>
 4    1  0.1521315E-007  0.6779624E+03  0.7818608E-02  0.1010500E+00
         -1   -1    0    0    0  501 -0.00000000000E+00  0.00000000000E+00  0.29564755656E+03  0.29564755660E+03  0.50400000000E-02 0.  1.
          1   -1    0    0  501    0  0.00000000000E+00 -0.00000000000E+00 -0.72036792798E+03  0.72036792800E+03  0.50400000000E-02 0. -1.
    8880023    1    1    2    0    0 -0.13799672768E+03  0.82339218659E+02 -0.41302144783E+03  0.79386382108E+03  0.65864270000E+03 0.  0.
    8880022    1    1    2    0    0  0.13799672768E+03 -0.82339218659E+02 -0.11698923592E+02  0.22215166353E+03  0.15294330000E+03 0.  0.
<mgrwt>
<rscale>  0 0.51276202E+03</rscale>
<asrwt>0</asrwt>
<pdfrwt beam="1">  1        1 0.11082583E+00 0.67796243E+03</pdfrwt>
<pdfrwt beam="2">  1       -1 0.45484240E-01 0.67796243E+03</pdfrwt>
<totfact> 0.12789258E+02</totfact>
</mgrwt>
</event>
<event>
 4    1  0.1521315E-007  0.7723243E+03  0.7818608E-02  0.9774186E-01
          1   -1    0    0  501    0  0.00000000000E+00  0.00000000000E+00  0.76945098438E+03  0.76945098439E+03  0.50400000000E-02 0. -1.
         -1   -1    0    0    0  501 -0.00000000000E+00 -0.00000000000E+00 -0.11930813489E+04  0.11930813489E+04  0.50400000000E-02 0.  1.
    8880023    1    1    2    0    0  0.19934739464E+03 -0.35062118107E+03  0.51585190771E+03  0.92875615385E+03  0.65864270000E+03 0.  0.
    8880022    1    1    2    0    0 -0.19934739464E+03  0.35062118107E+03 -0.93948227218E+03  0.10337761794E+04  0.15294330000E+03 0.  0.
<mgrwt>
<rscale>  0 0.66766440E+03</rscale>
<asrwt>0</asrwt>
<pdfrwt beam="1">  1        1 0.11837707E+00 0.77232429E+03</pdfrwt>
<pdfrwt beam="2">  1       -1 0.18355098E+00 0.77232429E+03</pdfrwt>
<totfact> 0.47690941E+00</totfact>
</mgrwt>
</event>
<event>
 4    1  0.1521315E-007  0.9368865E+03  0.7818608E-02  0.9469238E-01
          1   -1    0    0  501    0  0.00000000000E+00  0.00000000000E+00  0.21670995977E+04  0.21670995977E+04  0.50400000000E-02 0. -1.
         -1   -1    0    0    0  501 -0.00000000000E+00 -0.00000000000E+00 -0.54946995090E+03  0.54946995093E+03  0.50400000000E-02 0.  1.
    8880023    1    1    2    0    0  0.66386400616E+03 -0.56839825749E+02  0.17821692194E+04  0.20134258162E+04  0.65864270000E+03 0. -1.
    8880022    1    1    2    0    0 -0.66386400616E+03  0.56839825749E+02 -0.16453957262E+03  0.70314373242E+03  0.15294330000E+03 0.  0.
<mgrwt>
<rscale>  0 0.86590275E+03</rscale>
<asrwt>0</asrwt>
<pdfrwt beam="1">  1        1 0.33339994E+00 0.93688654E+03</pdfrwt>
<pdfrwt beam="2">  1       -1 0.84533839E-01 0.93688654E+03</pdfrwt>
<totfact> 0.32508811E+00</totfact>
</mgrwt>
</event>
<event>
 4    1  0.1521315E-007  0.6781471E+03  0.7818608E-02  0.1010392E+00
          1   -1    0    0  501    0  0.00000000000E+00  0.00000000000E+00  0.94980189795E+03  0.94980189796E+03  0.50400000000E-02 0. -1.
         -1   -1    0    0    0  501 -0.00000000000E+00 -0.00000000000E+00 -0.27090040229E+03  0.27090040233E+03  0.50400000000E-02 0.  1.
    8880023    1    1    2    0    0 -0.92128446070E+02  0.13261063086E+03  0.72589835978E+03  0.99338404708E+03  0.65864270000E+03 0.  0.
    8880022    1    1    2    0    0  0.92128446070E+02 -0.13261063086E+03 -0.46996864118E+02  0.22731825322E+03  0.15294330000E+03 0.  0.
<mgrwt>
<rscale>  0 0.51319219E+03</rscale>
<asrwt>0</asrwt>
<pdfrwt beam="1">  1        1 0.14612337E+00 0.67814706E+03</pdfrwt>
<pdfrwt beam="2">  1       -1 0.41676984E-01 0.67814706E+03</pdfrwt>
<totfact> 0.96034350E+01</totfact>
</mgrwt>
</event>
<event>
 4    1  0.1521315E-007  0.7617295E+03  0.7818608E-02  0.9800650E-01
         -1   -1    0    0    0  501 -0.00000000000E+00  0.00000000000E+00  0.75049634247E+03  0.75049634249E+03  0.50400000000E-02 0.  1.
          1   -1    0    0  501    0  0.00000000000E+00 -0.00000000000E+00 -0.62341890901E+03  0.62341890903E+03  0.50400000000E-02 0. -1.
    8880023    1    1    2    0    0 -0.21503143525E+03  0.31651708485E+03 -0.26362493670E+03  0.80605824645E+03  0.65864270000E+03 0. -1.
    8880022    1    1    2    0    0  0.21503143525E+03 -0.31651708485E+03  0.39070237017E+03  0.56785700508E+03  0.15294330000E+03 0.  0.
<mgrwt>
<rscale>  0 0.65327646E+03</rscale>
<asrwt>0</asrwt>
<pdfrwt beam="1">  1        1 0.95910601E-01 0.76172947E+03</pdfrwt>
<pdfrwt beam="2">  1       -1 0.11546098E+00 0.76172947E+03</pdfrwt>
<totfact> 0.22562113E+01</totfact>
</mgrwt>
</event>
<event>
 4    1  0.1521315E-007  0.7766886E+03  0.7818608E-02  0.9763674E-01
          1   -1    0    0  501    0  0.00000000000E+00  0.00000000000E+00  0.25599804610E+04  0.25599804610E+04  0.50400000000E-02 0. -1.
         -1   -1    0    0    0  501 -0.00000000000E+00 -0.00000000000E+00 -0.18338850043E+03  0.18338850050E+03  0.50400000000E-02 0.  1.
    8880023    1    1    2    0    0 -0.24760556468E+02  0.41087936416E+03  0.20613258920E+04  0.22027958544E+04  0.65864270000E+03 0. -1.
    8880022    1    1    2    0    0  0.24760556468E+02 -0.41087936416E+03  0.31526606852E+03  0.54057310702E+03  0.15294330000E+03 0.  0.
<mgrwt>
<rscale>  0 0.67348985E+03</rscale>
<asrwt>0</asrwt>
<pdfrwt beam="1">  1        1 0.39384313E+00 0.77668858E+03</pdfrwt>
<pdfrwt beam="2">  1       -1 0.28213616E-01 0.77668858E+03</pdfrwt>
<totfact> 0.14638003E+01</totfact>
</mgrwt>
</event>
<event>
 4    1  0.1521315E-007  0.6769199E+03  0.7818608E-02  0.1011122E+00
         -1   -1    0    0    0  501 -0.00000000000E+00  0.00000000000E+00  0.10258349476E+04  0.10258349476E+04  0.50400000000E-02 0.  1.
          1   -1    0    0  501    0  0.00000000000E+00 -0.00000000000E+00 -0.53966141089E+03  0.53966141092E+03  0.50400000000E-02 0. -1.
    8880023    1    1    2    0    0  0.70670781806E+02 -0.13934128684E+03 -0.30660642414E+03  0.74312048768E+03  0.65864270000E+03 0. -1.
    8880022    1    1    2    0    0 -0.70670781806E+02  0.13934128684E+03  0.79277996080E+03  0.82237587080E+03  0.15294330000E+03 0.  0.
<mgrwt>
<rscale>  0 0.51030959E+03</rscale>
<asrwt>0</asrwt>
<pdfrwt beam="1">  1        1 0.83024833E-01 0.67691991E+03</pdfrwt>
<pdfrwt beam="2">  1       -1 0.15782076E+00 0.67691991E+03</pdfrwt>
<totfact> 0.12564424E+01</totfact>
</mgrwt>
</event>
<event>
 4    1  0.1521315E-007  0.7474193E+03  0.7818608E-02  0.9838839E-01
         -1   -1    0    0    0  501 -0.00000000000E+00  0.00000000000E+00  0.90180158057E+03  0.90180158058E+03  0.50400000000E-02 0.  1.
          1   -1    0    0  501    0  0.00000000000E+00 -0.00000000000E+00 -0.53646748681E+03  0.53646748684E+03  0.50400000000E-02 0. -1.
    8880023    1    1    2    0    0  0.28686268851E+03 -0.20624067220E+03 -0.18184592333E+03  0.76922270054E+03  0.65864270000E+03 0. -1.
    8880022    1    1    2    0    0 -0.28686268851E+03  0.20624067220E+03  0.54718001709E+03  0.66904636688E+03  0.15294330000E+03 0.  0.
<mgrwt>
<rscale>  0 0.63319214E+03</rscale>
<asrwt>0</asrwt>
<pdfrwt beam="1">  1        1 0.82533460E-01 0.74741931E+03</pdfrwt>
<pdfrwt beam="2">  1       -1 0.13873870E+00 0.74741931E+03</pdfrwt>
<totfact> 0.17712074E+01</totfact>
</mgrwt>
</event>
<event>
 4    1  0.1521315E-007  0.7976829E+03  0.7818608E-02  0.9715829E-01
         -1   -1    0    0    0  501 -0.00000000000E+00  0.00000000000E+00  0.33816288431E+03  0.33816288435E+03  0.50400000000E-02 0.  1.
          1   -1    0    0  501    0  0.00000000000E+00 -0.00000000000E+00 -0.19316368964E+04  0.19316368964E+04  0.50400000000E-02 0. -1.
    8880023    1    1    2    0    0 -0.43418808904E+03 -0.11818812154E+03 -0.16072736638E+04  0.17943317880E+04  0.65864270000E+03 0.  0.
    8880022    1    1    2    0    0  0.43418808904E+03  0.11818812154E+03  0.13799651743E+02  0.47546799276E+03  0.15294330000E+03 0.  0.
<mgrwt>
<rscale>  0 0.70082126E+03</rscale>
<asrwt>0</asrwt>
<pdfrwt beam="1">  1        1 0.29717490E+00 0.79768285E+03</pdfrwt>
<pdfrwt beam="2">  1       -1 0.52025061E-01 0.79768285E+03</pdfrwt>
<totfact> 0.12780228E+01</totfact>
</mgrwt>
</event>
<event>
 4    1  0.1521315E-007  0.7201647E+03  0.7818608E-02  0.9922029E-01
         -1   -1    0    0    0  501 -0.00000000000E+00  0.00000000000E+00  0.10965327142E+04  0.10965327142E+04  0.50400000000E-02 0.  1.
          1   -1    0    0  501    0  0.00000000000E+00 -0.00000000000E+00 -0.47715176260E+03  0.47715176263E+03  0.50400000000E-02 0. -1.
    8880023    1    1    2    0    0 -0.15101288377E+03  0.24904245950E+03 -0.15116085898E+03  0.73585790017E+03  0.65864270000E+03 0. -1.
    8880022    1    1    2    0    0  0.15101288377E+03 -0.24904245950E+03  0.77054181058E+03  0.83782657667E+03  0.15294330000E+03 0.  0.
<mgrwt>
<rscale>  0 0.59205448E+03</rscale>
<asrwt>0</asrwt>
<pdfrwt beam="1">  1        1 0.73407965E-01 0.72016473E+03</pdfrwt>
<pdfrwt beam="2">  1       -1 0.16869734E+00 0.72016473E+03</pdfrwt>
<totfact> 0.12283499E+01</totfact>
</mgrwt>
</event>
<event>
 4    1  0.1521315E-007  0.9020168E+03  0.7818608E-02  0.9522802E-01
         -1   -1    0    0    0  501 -0.00000000000E+00  0.00000000000E+00  0.65797843273E+03  0.65797843275E+03  0.50400000000E-02 0.  1.
          1   -1    0    0  501    0  0.00000000000E+00 -0.00000000000E+00 -0.16320975459E+04  0.16320975459E+04  0.50400000000E-02 0. -1.
    8880023    1    1    2    0    0  0.46387172918E+03 -0.40576735542E+03 -0.12953382454E+04  0.15784598519E+04  0.65864270000E+03 0. -1.
    8880022    1    1    2    0    0 -0.46387172918E+03  0.40576735542E+03  0.32121913226E+03  0.71161612672E+03  0.15294330000E+03 0.  0.
<mgrwt>
<rscale>  0 0.82623420E+03</rscale>
<asrwt>0</asrwt>
<pdfrwt beam="1">  1        1 0.25109193E+00 0.90201681E+03</pdfrwt>
<pdfrwt beam="2">  1       -1 0.10122745E+00 0.90201681E+03</pdfrwt>
<totfact> 0.50130914E+00</totfact>
</mgrwt>
</event>
<event>
 4    1  0.1521315E-007  0.8905299E+03  0.7818608E-02  0.9541408E-01
          1   -1    0    0  501    0  0.00000000000E+00  0.00000000000E+00  0.71494687320E+03  0.71494687322E+03  0.50400000000E-02 0. -1.
         -1   -1    0    0    0  501 -0.00000000000E+00 -0.00000000000E+00 -0.92163445001E+03  0.92163445002E+03  0.50400000000E-02 0.  1.
    8880023    1    1    2    0    0  0.14381811879E+03 -0.58185020033E+03 -0.41688156902E+03  0.98327704935E+03  0.65864270000E+03 0.  0.
    8880022    1    1    2    0    0 -0.14381811879E+03  0.58185020033E+03  0.21019399222E+03  0.65330427390E+03  0.15294330000E+03 0.  0.
<mgrwt>
<rscale>  0 0.81298596E+03</rscale>
<asrwt>0</asrwt>
<pdfrwt beam="1">  1        1 0.10999183E+00 0.89052991E+03</pdfrwt>
<pdfrwt beam="2">  1       -1 0.14178992E+00 0.89052991E+03</pdfrwt>
<totfact> 0.10837154E+01</totfact>
</mgrwt>
</event>
<event>
 4    1  0.1521315E-007  0.9745665E+03  0.7818608E-02  0.9415616E-01
          1   -1    0    0  501    0  0.00000000000E+00  0.00000000000E+00  0.66335928878E+03  0.66335928880E+03  0.50400000000E-02 0. -1.
         -1   -1    0    0    0  501 -0.00000000000E+00 -0.00000000000E+00 -0.18579217795E+04  0.18579217795E+04  0.50400000000E-02 0.  1.
    8880023    1    1    2    0    0 -0.56667396541E+03  0.44141846019E+03  0.15308094412E+03  0.98651590042E+03  0.65864270000E+03 0.  0.
    8880022    1    1    2    0    0  0.56667396541E+03 -0.44141846019E+03 -0.13476434349E+04  0.15347651679E+04  0.15294330000E+03 0.  1.
<mgrwt>
<rscale>  0 0.90801616E+03</rscale>
<asrwt>0</asrwt>
<pdfrwt beam="1">  1        1 0.10205528E+00 0.97456649E+03</pdfrwt>
<pdfrwt beam="2">  1       -1 0.28583412E+00 0.97456649E+03</pdfrwt>
<totfact> 0.12244961E+00</totfact>
</mgrwt>
</event>
<event>
 4    1  0.1521315E-007  0.6854865E+03  0.7818608E-02  0.1006376E+00
         -1   -1    0    0    0  501 -0.00000000000E+00  0.00000000000E+00  0.77227452528E+03  0.77227452530E+03  0.50400000000E-02 0.  1.
          1   -1    0    0  501    0  0.00000000000E+00 -0.00000000000E+00 -0.47998867301E+03  0.47998867304E+03  0.50400000000E-02 0. -1.
    8880023    1    1    2    0    0 -0.86315992423E+01 -0.18975513824E+03 -0.19042645888E+03  0.71144497995E+03  0.65864270000E+03 0. -1.
    8880022    1    1    2    0    0  0.86315992423E+01  0.18975513824E+03  0.48271231114E+03  0.54081821839E+03  0.15294330000E+03 0.  0.
<mgrwt>
<rscale>  0 0.52940655E+03</rscale>
<asrwt>0</asrwt>
<pdfrwt beam="1">  1        1 0.73844412E-01 0.68548649E+03</pdfrwt>
<pdfrwt beam="2">  1       -1 0.11881146E+00 0.68548649E+03</pdfrwt>
<totfact> 0.30646356E+01</totfact>
</mgrwt>
</event>
<event>
 4    1  0.1521315E-007  0.8207055E+03  0.7818608E-02  0.9667695E-01
         -1   -1    0    0    0  501 -0.00000000000E+00  0.00000000000E+00  0.40616217101E+03  0.40616217104E+03  0.50400000000E-02 0.  1.
          1   -1    0    0  501    0  0.00000000000E+00 -0.00000000000E+00 -0.15889592872E+04  0.15889592872E+04  0.50400000000E-02 0. -1.
    8880023    1    1    2    0    0  0.30810290962E+03 -0.38055218133E+03 -0.12314227213E+04  0.14798511717E+04  0.65864270000E+03 0.  0.
    8880022    1    1    2    0    0 -0.30810290962E+03  0.38055218133E+03  0.48625605180E+02  0.51527028648E+03  0.15294330000E+03 0.  0.
<mgrwt>
<rscale>  0 0.72973248E+03</rscale>
<asrwt>0</asrwt>
<pdfrwt beam="1">  1        1 0.24445527E+00 0.82070553E+03</pdfrwt>
<pdfrwt beam="2">  1       -1 0.62486489E-01 0.82070553E+03</pdfrwt>
<totfact> 0.15157958E+01</totfact>
</mgrwt>
</event>
<event>
 4    1  0.1521315E-007  0.8518834E+03  0.7818608E-02  0.9608168E-01
         -1   -1    0    0    0  501 -0.00000000000E+00  0.00000000000E+00  0.97538170214E+03  0.97538170215E+03  0.50400000000E-02 0.  1.
          1   -1    0    0  501    0  0.00000000000E+00 -0.00000000000E+00 -0.74504548601E+03  0.74504548603E+03  0.50400000000E-02 0. -1.
    8880023    1    1    2    0    0  0.36703561453E+03  0.39645928548E+03 -0.34262037717E+03  0.91820152281E+03  0.65864270000E+03 0. -1.
    8880022    1    1    2    0    0 -0.36703561453E+03 -0.39645928548E+03  0.57295659329E+03  0.80222566537E+03  0.15294330000E+03 0.  0.
<mgrwt>
<rscale>  0 0.76757943E+03</rscale>
<asrwt>0</asrwt>
<pdfrwt beam="1">  1        1 0.11462238E+00 0.85188339E+03</pdfrwt>
<pdfrwt beam="2">  1       -1 0.15005872E+00 0.85188339E+03</pdfrwt>
<totfact> 0.87849162E+00</totfact>
</mgrwt>
</event>
<event>
 4    1  0.1521315E-007  0.1080418E+04  0.7818608E-02  0.9283178E-01
          1   -1    0    0  501    0  0.00000000000E+00  0.00000000000E+00  0.29195272869E+04  0.29195272869E+04  0.50400000000E-02 0. -1.
         -1   -1    0    0    0  501 -0.00000000000E+00 -0.00000000000E+00 -0.12301422003E+04  0.12301422003E+04  0.50400000000E-02 0.  1.
    8880023    1    1    2    0    0 -0.85568997761E+03  0.35877207665E+02 -0.90746955741E+03  0.14109584387E+04  0.65864270000E+03 0.  0.
    8880022    1    1    2    0    0  0.85568997761E+03 -0.35877207665E+02  0.25968546440E+04  0.27387110485E+04  0.15294330000E+03 0.  0.
<mgrwt>
<rscale>  0 0.10234638E+04</rscale>
<asrwt>0</asrwt>
<pdfrwt beam="1">  1        1 0.44915805E+00 0.10804178E+04</pdfrwt>
<pdfrwt beam="2">  1       -1 0.18925265E+00 0.10804178E+04</pdfrwt>
<totfact> 0.12372441E-01</totfact>
</mgrwt>
</event>
<event>
 4    1  0.1521315E-007  0.8608832E+03  0.7818608E-02  0.9591994E-01
          1   -1    0    0  501    0  0.00000000000E+00  0.00000000000E+00  0.22081651868E+04  0.22081651868E+04  0.50400000000E-02 0. -1.
         -1   -1    0    0    0  501 -0.00000000000E+00 -0.00000000000E+00 -0.72390193663E+03  0.72390193664E+03  0.50400000000E-02 0.  1.
    8880023    1    1    2    0    0 -0.34626584424E+03  0.43290838775E+03  0.19887472084E+04  0.21670799182E+04  0.65864270000E+03 0.  0.
    8880022    1    1    2    0    0  0.34626584424E+03 -0.43290838775E+03 -0.50448395817E+03  0.76498720521E+03  0.15294330000E+03 0.  0.
<mgrwt>
<rscale>  0 0.77828324E+03</rscale>
<asrwt>0</asrwt>
<pdfrwt beam="1">  1        1 0.33971772E+00 0.86088322E+03</pdfrwt>
<pdfrwt beam="2">  1       -1 0.11136953E+00 0.86088322E+03</pdfrwt>
<totfact> 0.16530399E+00</totfact>
</mgrwt>
</event>
<event>
 4    1  0.1521315E-007  0.7610972E+03  0.7818608E-02  0.9802275E-01
          1   -1    0    0  501    0  0.00000000000E+00  0.00000000000E+00  0.42206068030E+04  0.42206068030E+04  0.50400000000E-02 0. -1.
         -1   -1    0    0    0  501 -0.00000000000E+00 -0.00000000000E+00 -0.83905542263E+02  0.83905542415E+02  0.50400000000E-02 0.  1.
    8880023    1    1    2    0    0  0.21096132622E+03 -0.31773272785E+03  0.30256733445E+04  0.31199307944E+04  0.65864270000E+03 0.  0.
    8880022    1    1    2    0    0 -0.21096132622E+03  0.31773272785E+03  0.11110279162E+04  0.11845815510E+04  0.15294330000E+03 0. -1.
<mgrwt>
<rscale>  0 0.65240588E+03</rscale>
<asrwt>0</asrwt>
<pdfrwt beam="1">  1        1 0.64932409E+00 0.76109722E+03</pdfrwt>
<pdfrwt beam="2">  1       -1 0.12908546E-01 0.76109722E+03</pdfrwt>
<totfact> 0.28059738E+00</totfact>
</mgrwt>
</event>
<event>
 4    1  0.1521315E-007  0.7746571E+03  0.7818608E-02  0.9768541E-01
          1   -1    0    0  501    0  0.00000000000E+00  0.00000000000E+00  0.17835637588E+04  0.17835637588E+04  0.50400000000E-02 0. -1.
         -1   -1    0    0    0  501 -0.00000000000E+00 -0.00000000000E+00 -0.35309577417E+03  0.35309577421E+03  0.50400000000E-02 0.  1.
    8880023    1    1    2    0    0  0.39360713358E+03  0.10656847131E+03  0.15070231987E+04  0.16944652674E+04  0.65864270000E+03 0. -1.
    8880022    1    1    2    0    0 -0.39360713358E+03 -0.10656847131E+03 -0.76555214135E+02  0.44219426558E+03  0.15294330000E+03 0.  0.
<mgrwt>
<rscale>  0 0.67078510E+03</rscale>
<asrwt>0</asrwt>
<pdfrwt beam="1">  1        1 0.27439443E+00 0.77465710E+03</pdfrwt>
<pdfrwt beam="2">  1       -1 0.54322426E-01 0.77465710E+03</pdfrwt>
<totfact> 0.14829360E+01</totfact>
</mgrwt>
</event>
<event>
 4    1  0.1521315E-007  0.1056189E+04  0.7818608E-02  0.9311479E-01
          1   -1    0    0  501    0  0.00000000000E+00  0.00000000000E+00  0.15857548246E+04  0.15857548246E+04  0.50400000000E-02 0. -1.
         -1   -1    0    0    0  501 -0.00000000000E+00 -0.00000000000E+00 -0.11964187675E+04  0.11964187675E+04  0.50400000000E-02 0.  1.
    8880023    1    1    2    0    0  0.82353773080E+03  0.59242869604E+02  0.12113143411E+04  0.16071144174E+04  0.65864270000E+03 0.  0.
    8880022    1    1    2    0    0 -0.82353773080E+03 -0.59242869604E+02 -0.82197828396E+03  0.11750591747E+04  0.15294330000E+03 0.  0.
<mgrwt>
<rscale>  0 0.99732947E+03</rscale>
<asrwt>0</asrwt>
<pdfrwt beam="1">  1        1 0.24396228E+00 0.10561886E+04</pdfrwt>
<pdfrwt beam="2">  1       -1 0.18406443E+00 0.10561886E+04</pdfrwt>
<totfact> 0.11096639E+00</totfact>
</mgrwt>
</event>
<event>
 4    1  0.1521315E-007  0.7279613E+03  0.7818608E-02  0.9896514E-01
         -1   -1    0    0    0  501 -0.00000000000E+00  0.00000000000E+00  0.21937513666E+04  0.21937513666E+04  0.50400000000E-02 0.  1.
          1   -1    0    0  501    0  0.00000000000E+00 -0.00000000000E+00 -0.55751838807E+03  0.55751838809E+03  0.50400000000E-02 0. -1.
    8880023    1    1    2    0    0 -0.49563409896E+02  0.30604068815E+03 -0.29784705366E+03  0.78653703539E+03  0.65864270000E+03 0. -1.
    8880022    1    1    2    0    0  0.49563409896E+02 -0.30604068815E+03  0.19340800322E+04  0.19647327194E+04  0.15294330000E+03 0.  0.
<mgrwt>
<rscale>  0 0.60430520E+03</rscale>
<asrwt>0</asrwt>
<pdfrwt beam="1">  1        1 0.85772059E-01 0.72796129E+03</pdfrwt>
<pdfrwt beam="2">  1       -1 0.33750021E+00 0.72796129E+03</pdfrwt>
<totfact> 0.76333417E-01</totfact>
</mgrwt>
</event>
<event>
 4    1  0.1521315E-007  0.6739185E+03  0.7818608E-02  0.1012997E+00
          1   -1    0    0  501    0  0.00000000000E+00  0.00000000000E+00  0.94787481863E+03  0.94787481864E+03  0.50400000000E-02 0. -1.
         -1   -1    0    0    0  501 -0.00000000000E+00 -0.00000000000E+00 -0.67667795170E+03  0.67667795172E+03  0.50400000000E-02 0.  1.
    8880023    1    1    2    0    0 -0.80195118062E+02  0.11800277478E+03  0.80581386229E+03  0.10504770815E+04  0.65864270000E+03 0. -1.
    8880022    1    1    2    0    0  0.80195118062E+02 -0.11800277478E+03 -0.53461699536E+03  0.57407568888E+03  0.15294330000E+03 0.  0.
<mgrwt>
<rscale>  0 0.50300785E+03</rscale>
<asrwt>0</asrwt>
<pdfrwt beam="1">  1        1 0.14582690E+00 0.67391848E+03</pdfrwt>
<pdfrwt beam="2">  1       -1 0.10410430E+00 0.67391848E+03</pdfrwt>
<totfact> 0.15040462E+01</totfact>
</mgrwt>
</event>
<event>
 4    1  0.1521315E-007  0.7752537E+03  0.7818608E-02  0.9767106E-01
          1   -1    0    0  501    0  0.00000000000E+00  0.00000000000E+00  0.33750875066E+04  0.33750875066E+04  0.50400000000E-02 0. -1.
         -1   -1    0    0    0  501 -0.00000000000E+00 -0.00000000000E+00 -0.13085768621E+03  0.13085768631E+03  0.50400000000E-02 0.  1.
    8880023    1    1    2    0    0 -0.12386293275E+02 -0.40872329599E+03  0.26952660795E+04  0.28045458810E+04  0.65864270000E+03 0. -1.
    8880022    1    1    2    0    0  0.12386293275E+02  0.40872329599E+03  0.54896374085E+03  0.70139931190E+03  0.15294330000E+03 0.  1.
<mgrwt>
<rscale>  0 0.67158070E+03</rscale>
<asrwt>0</asrwt>
<pdfrwt beam="1">  1        1 0.51924421E+00 0.77525374E+03</pdfrwt>
<pdfrwt beam="2">  1       -1 0.20131953E-01 0.77525374E+03</pdfrwt>
<totfact> 0.67597859E+00</totfact>
</mgrwt>
</event>
<event>
 4    1  0.1521315E-007  0.9784674E+03  0.7818608E-02  0.9410287E-01
         -1   -1    0    0    0  501 -0.00000000000E+00  0.00000000000E+00  0.23412337058E+04  0.23412337058E+04  0.50400000000E-02 0.  1.
          1   -1    0    0  501    0  0.00000000000E+00 -0.00000000000E+00 -0.10318868384E+04  0.10318868384E+04  0.50400000000E-02 0. -1.
    8880023    1    1    2    0    0  0.69050872235E+03  0.21630075449E+03 -0.71894382072E+03  0.12141988040E+04  0.65864270000E+03 0. -1.
    8880022    1    1    2    0    0 -0.69050872235E+03 -0.21630075449E+03  0.20282906881E+04  0.21589217403E+04  0.15294330000E+03 0.  0.
<mgrwt>
<rscale>  0 0.91233893E+03</rscale>
<asrwt>0</asrwt>
<pdfrwt beam="1">  1        1 0.15875182E+00 0.97846743E+03</pdfrwt>
<pdfrwt beam="2">  1       -1 0.36018980E+00 0.97846743E+03</pdfrwt>
<totfact> 0.19488733E-01</totfact>
</mgrwt>
</event>
<event>
 4    1  0.1521315E-007  0.8756664E+03  0.7818608E-02  0.9566281E-01
         -1   -1    0    0    0  501 -0.00000000000E+00  0.00000000000E+00  0.13455239882E+04  0.13455239883E+04  0.50400000000E-02 0.  1.
          1   -1    0    0  501    0  0.00000000000E+00 -0.00000000000E+00 -0.47436687441E+03  0.47436687443E+03  0.50400000000E-02 0. -1.
    8880023    1    1    2    0    0  0.56177529042E+03 -0.13187108548E+03  0.15791727776E+03  0.88979184813E+03  0.65864270000E+03 0. -1.
    8880022    1    1    2    0    0 -0.56177529042E+03  0.13187108548E+03  0.71323983607E+03  0.93009901456E+03  0.15294330000E+03 0.  0.
<mgrwt>
<rscale>  0 0.79568677E+03</rscale>
<asrwt>0</asrwt>
<pdfrwt beam="1">  1        1 0.72979519E-01 0.87566641E+03</pdfrwt>
<pdfrwt beam="2">  1       -1 0.20700369E+00 0.87566641E+03</pdfrwt>
<totfact> 0.65391984E+00</totfact>
</mgrwt>
</event>
<event>
 4    1  0.1521315E-007  0.6820788E+03  0.7818608E-02  0.1008171E+00
         -1   -1    0    0    0  501 -0.00000000000E+00  0.00000000000E+00  0.48529305617E+03  0.48529305620E+03  0.50400000000E-02 0.  1.
          1   -1    0    0  501    0  0.00000000000E+00 -0.00000000000E+00 -0.69166062442E+03  0.69166062443E+03  0.50400000000E-02 0. -1.
    8880023    1    1    2    0    0  0.16527528784E+03 -0.64072893882E+02 -0.46698157852E+03  0.82662159265E+03  0.65864270000E+03 0. -1.
    8880022    1    1    2    0    0 -0.16527528784E+03  0.64072893882E+02  0.26061401027E+03  0.35033208798E+03  0.15294330000E+03 0.  0.
<mgrwt>
<rscale>  0 0.52207904E+03</rscale>
<asrwt>0</asrwt>
<pdfrwt beam="1">  1        1 0.10640933E+00 0.68207878E+03</pdfrwt>
<pdfrwt beam="2">  1       -1 0.74660470E-01 0.68207878E+03</pdfrwt>
<totfact> 0.51514773E+01</totfact>
</mgrwt>
</event>
<event>
 4    1  0.1521315E-007  0.7753693E+03  0.7818608E-02  0.9766829E-01
         -1   -1    0    0    0  501 -0.00000000000E+00  0.00000000000E+00  0.30264480318E+03  0.30264480322E+03  0.50400000000E-02 0.  1.
          1   -1    0    0  501    0  0.00000000000E+00 -0.00000000000E+00 -0.16220814697E+04  0.16220814697E+04  0.50400000000E-02 0. -1.
    8880023    1    1    2    0    0 -0.33912416126E+03 -0.22887132787E+03 -0.12661576849E+04  0.14847062911E+04  0.65864270000E+03 0. -1.
    8880022    1    1    2    0    0  0.33912416126E+03  0.22887132787E+03 -0.53278981546E+02  0.44001998178E+03  0.15294330000E+03 0.  0.
<mgrwt>
<rscale>  0 0.67173463E+03</rscale>
<asrwt>0</asrwt>
<pdfrwt beam="1">  1        1 0.24955099E+00 0.77536926E+03</pdfrwt>
<pdfrwt beam="2">  1       -1 0.46560740E-01 0.77536926E+03</pdfrwt>
<totfact> 0.25525023E+01</totfact>
</mgrwt>
</event>
<event>
 4    1  0.1521315E-007  0.1253940E+04  0.7818608E-02  0.9106392E-01
         -1   -1    0    0    0  501 -0.00000000000E+00  0.00000000000E+00  0.50286294281E+03  0.50286294284E+03  0.50400000000E-02 0.  1.
          1   -1    0    0  501    0  0.00000000000E+00 -0.00000000000E+00 -0.32067364766E+04  0.32067364766E+04  0.50400000000E-02 0. -1.
    8880023    1    1    2    0    0  0.10666841505E+04  0.27212512414E+02 -0.70484281608E+03  0.14384607048E+04  0.65864270000E+03 0.  1.
    8880022    1    1    2    0    0 -0.10666841505E+04 -0.27212512414E+02 -0.19990307177E+04  0.22711387146E+04  0.15294330000E+03 0.  0.
<mgrwt>
<rscale>  0 0.12074131E+04</rscale>
<asrwt>0</asrwt>
<pdfrwt beam="1">  1        1 0.49334406E+00 0.12539401E+04</pdfrwt>
<pdfrwt beam="2">  1       -1 0.77363532E-01 0.12539401E+04</pdfrwt>
<totfact> 0.69936247E-01</totfact>
</mgrwt>
</event>
<event>
 4    1  0.1521315E-007  0.7004297E+03  0.7818608E-02  0.9995423E-01
          1   -1    0    0  501    0  0.00000000000E+00  0.00000000000E+00  0.13019750790E+04  0.13019750790E+04  0.50400000000E-02 0. -1.
         -1   -1    0    0    0  501 -0.00000000000E+00 -0.00000000000E+00 -0.13770841456E+04  0.13770841456E+04  0.50400000000E-02 0.  1.
    8880023    1    1    2    0    0 -0.12804287988E+03  0.20098883368E+03  0.11909868091E+04  0.13816842172E+04  0.65864270000E+03 0.  0.
    8880022    1    1    2    0    0  0.12804287988E+03 -0.20098883368E+03 -0.12660958757E+04  0.12973750074E+04  0.15294330000E+03 0.  0.
<mgrwt>
<rscale>  0 0.55851363E+03</rscale>
<asrwt>0</asrwt>
<pdfrwt beam="1">  1        1 0.20030386E+00 0.70042965E+03</pdfrwt>
<pdfrwt beam="2">  1       -1 0.21185910E+00 0.70042965E+03</pdfrwt>
<totfact> 0.11948122E+00</totfact>
</mgrwt>
</event>
<event>
 4    1  0.1521315E-007  0.6809935E+03  0.7818608E-02  0.1008767E+00
         -1   -1    0    0    0  501 -0.00000000000E+00  0.00000000000E+00  0.23849677343E+03  0.23849677348E+03  0.50400000000E-02 0.  1.
          1   -1    0    0  501    0  0.00000000000E+00 -0.00000000000E+00 -0.12422806724E+04  0.12422806725E+04  0.50400000000E-02 0. -1.
    8880023    1    1    2    0    0  0.15900432091E+02 -0.17230524870E+03 -0.10438920326E+04  0.12463798396E+04  0.65864270000E+03 0. -1.
    8880022    1    1    2    0    0 -0.15900432091E+02  0.17230524870E+03  0.40108133605E+02  0.23439760636E+03  0.15294330000E+03 0.  0.
<mgrwt>
<rscale>  0 0.51967558E+03</rscale>
<asrwt>0</asrwt>
<pdfrwt beam="1">  1        1 0.19112010E+00 0.68099349E+03</pdfrwt>
<pdfrwt beam="2">  1       -1 0.36691812E-01 0.68099349E+03</pdfrwt>
<totfact> 0.73070883E+01</totfact>
</mgrwt>
</event>
<event>
 4    1  0.1521315E-007  0.1141043E+04  0.7818608E-02  0.9216679E-01
         -1   -1    0    0    0  501 -0.00000000000E+00  0.00000000000E+00  0.16181346104E+04  0.16181346104E+04  0.50400000000E-02 0.  1.
          1   -1    0    0  501    0  0.00000000000E+00 -0.00000000000E+00 -0.11949304952E+04  0.11949304952E+04  0.50400000000E-02 0. -1.
    8880023    1    1    2    0    0 -0.81874132298E+03  0.44478363556E+03 -0.70546657489E+03  0.13415152369E+04  0.65864270000E+03 0.  0.
    8880022    1    1    2    0    0  0.81874132298E+03 -0.44478363556E+03  0.11286706901E+04  0.14715498687E+04  0.15294330000E+03 0.  0.
<mgrwt>
<rscale>  0 0.10882922E+04</rscale>
<asrwt>0</asrwt>
<pdfrwt beam="1">  1        1 0.18383546E+00 0.11410434E+04</pdfrwt>
<pdfrwt beam="2">  1       -1 0.24894379E+00 0.11410434E+04</pdfrwt>
<totfact> 0.75491690E-01</totfact>
</mgrwt>
</event>
<event>
 4    1  0.1521315E-007  0.1037100E+04  0.7818608E-02  0.9334552E-01
          1   -1    0    0  501    0  0.00000000000E+00  0.00000000000E+00  0.14017980996E+04  0.14017980996E+04  0.50400000000E-02 0. -1.
         -1   -1    0    0    0  501 -0.00000000000E+00 -0.00000000000E+00 -0.10521638284E+04  0.10521638284E+04  0.50400000000E-02 0.  1.
    8880023    1    1    2    0    0  0.36923632723E+03 -0.71093659190E+03  0.97714706341E+03  0.14249185566E+04  0.65864270000E+03 0.  0.
    8880022    1    1    2    0    0 -0.36923632723E+03  0.71093659190E+03 -0.62751279220E+03  0.10290433715E+04  0.15294330000E+03 0.  0.
<mgrwt>
<rscale>  0 0.97663231E+03</rscale>
<asrwt>0</asrwt>
<pdfrwt beam="1">  1        1 0.21566125E+00 0.10371000E+04</pdfrwt>
<pdfrwt beam="2">  1       -1 0.16187136E+00 0.10371000E+04</pdfrwt>
<totfact> 0.21668380E+00</totfact>
</mgrwt>
</event>
<event>
 4    1  0.1521315E-007  0.7016593E+03  0.7818608E-02  0.9990386E-01
         -1   -1    0    0    0  501 -0.00000000000E+00  0.00000000000E+00  0.15814121141E+04  0.15814121141E+04  0.50400000000E-02 0.  1.
          1   -1    0    0  501    0  0.00000000000E+00 -0.00000000000E+00 -0.38426302104E+03  0.38426302107E+03  0.50400000000E-02 0. -1.
    8880023    1    1    2    0    0  0.24121400502E+03 -0.18204111448E+02 -0.33233309700E+02  0.70244590185E+03  0.65864270000E+03 0. -1.
    8880022    1    1    2    0    0 -0.24121400502E+03  0.18204111448E+02  0.12303824028E+04  0.12632292334E+04  0.15294330000E+03 0.  0.
<mgrwt>
<rscale>  0 0.56073802E+03</rscale>
<asrwt>0</asrwt>
<pdfrwt beam="1">  1        1 0.59117388E-01 0.70165931E+03</pdfrwt>
<pdfrwt beam="2">  1       -1 0.24329417E+00 0.70165931E+03</pdfrwt>
<totfact> 0.51077342E+00</totfact>
</mgrwt>
</event>
<event>
 4    1  0.1521315E-007  0.7151405E+03  0.7818608E-02  0.9939385E-01
          1   -1    0    0  501    0  0.00000000000E+00  0.00000000000E+00  0.12926914139E+04  0.12926914139E+04  0.50400000000E-02 0. -1.
         -1   -1    0    0    0  501 -0.00000000000E+00 -0.00000000000E+00 -0.47713474831E+03  0.47713474833E+03  0.50400000000E-02 0.  1.
    8880023    1    1    2    0    0  0.14789183417E+03 -0.23610122550E+03  0.11205709711E+04  0.13293251261E+04  0.65864270000E+03 0. -1.
    8880022    1    1    2    0    0 -0.14789183417E+03  0.23610122550E+03 -0.30501430549E+03  0.44050103617E+03  0.15294330000E+03 0.  0.
<mgrwt>
<rscale>  0 0.58389898E+03</rscale>
<asrwt>0</asrwt>
<pdfrwt beam="1">  1        1 0.19887561E+00 0.71514054E+03</pdfrwt>
<pdfrwt beam="2">  1       -1 0.73405345E-01 0.71514054E+03</pdfrwt>
<totfact> 0.17764742E+01</totfact>
</mgrwt>
</event>
<event>
 4    1  0.1521315E-007  0.7754407E+03  0.7818608E-02  0.9766658E-01
         -1   -1    0    0    0  501 -0.00000000000E+00  0.00000000000E+00  0.11607019419E+04  0.11607019420E+04  0.50400000000E-02 0.  1.
          1   -1    0    0  501    0  0.00000000000E+00 -0.00000000000E+00 -0.50628705927E+03  0.50628705929E+03  0.50400000000E-02 0. -1.
    8880023    1    1    2    0    0 -0.13818786800E+03 -0.38523006942E+03 -0.11328281270E+03  0.78367167562E+03  0.65864270000E+03 0.  0.
    8880022    1    1    2    0    0  0.13818786800E+03  0.38523006942E+03  0.76769769538E+03  0.88331732563E+03  0.15294330000E+03 0.  0.
<mgrwt>
<rscale>  0 0.67182982E+03</rscale>
<asrwt>0</asrwt>
<pdfrwt beam="1">  1        1 0.77890318E-01 0.77544071E+03</pdfrwt>
<pdfrwt beam="2">  1       -1 0.17856953E+00 0.77544071E+03</pdfrwt>
<totfact> 0.95413746E+00</totfact>
</mgrwt>
</event>
<event>
 4    1  0.1521315E-007  0.9842435E+03  0.7818608E-02  0.9402469E-01
          1   -1    0    0  501    0  0.00000000000E+00  0.00000000000E+00  0.22866019854E+04  0.22866019854E+04  0.50400000000E-02 0. -1.
         -1   -1    0    0    0  501 -0.00000000000E+00 -0.00000000000E+00 -0.42017923948E+03  0.42017923951E+03  0.50400000000E-02 0.  1.
    8880023    1    1    2    0    0  0.36064512901E+03  0.63628621191E+03  0.16629080506E+04  0.19323556722E+04  0.65864270000E+03 0.  0.
    8880022    1    1    2    0    0 -0.36064512901E+03 -0.63628621191E+03  0.20351469527E+03  0.77442555275E+03  0.15294330000E+03 0.  0.
<mgrwt>
<rscale>  0 0.91872809E+03</rscale>
<asrwt>0</asrwt>
<pdfrwt beam="1">  1        1 0.35178492E+00 0.98424350E+03</pdfrwt>
<pdfrwt beam="2">  1       -1 0.64642961E-01 0.98424350E+03</pdfrwt>
<totfact> 0.46937168E+00</totfact>
</mgrwt>
</event>
<event>
 4    1  0.1521315E-007  0.7207466E+03  0.7818608E-02  0.9920068E-01
          1   -1    0    0  501    0  0.00000000000E+00  0.00000000000E+00  0.13624231660E+04  0.13624231660E+04  0.50400000000E-02 0. -1.
         -1   -1    0    0    0  501 -0.00000000000E+00 -0.00000000000E+00 -0.87073423917E+03  0.87073423919E+03  0.50400000000E-02 0.  1.
    8880023    1    1    2    0    0  0.15484531973E+03 -0.24837135027E+03  0.12292911976E+04  0.14250026159E+04  0.65864270000E+03 0. -1.
    8880022    1    1    2    0    0 -0.15484531973E+03  0.24837135027E+03 -0.73760227072E+03  0.80815478930E+03  0.15294330000E+03 0.  0.
<mgrwt>
<rscale>  0 0.59298493E+03</rscale>
<asrwt>0</asrwt>
<pdfrwt beam="1">  1        1 0.20960356E+00 0.72074656E+03</pdfrwt>
<pdfrwt beam="2">  1       -1 0.13395911E+00 0.72074656E+03</pdfrwt>
<totfact> 0.40157933E+00</totfact>
</mgrwt>
</event>
<event>
 4    1  0.1521315E-007  0.9078988E+03  0.7818608E-02  0.9513469E-01
          1   -1    0    0  501    0  0.00000000000E+00  0.00000000000E+00  0.20832852668E+04  0.20832852668E+04  0.50400000000E-02 0. -1.
         -1   -1    0    0    0  501 -0.00000000000E+00 -0.00000000000E+00 -0.44516092598E+03  0.44516092601E+03  0.50400000000E-02 0.  1.
    8880023    1    1    2    0    0 -0.62484992144E+03  0.57156291423E+01  0.16743597479E+03  0.92320913376E+03  0.65864270000E+03 0.  0.
    8880022    1    1    2    0    0  0.62484992144E+03 -0.57156291423E+01  0.14706883660E+04  0.16052370591E+04  0.15294330000E+03 0.  0.
<mgrwt>
<rscale>  0 0.83298083E+03</rscale>
<asrwt>0</asrwt>
<pdfrwt beam="1">  1        1 0.32050543E+00 0.90789884E+03</pdfrwt>
<pdfrwt beam="2">  1       -1 0.68486296E-01 0.90789884E+03</pdfrwt>
<totfact> 0.57862000E+00</totfact>
</mgrwt>
</event>
<event>
 4    1  0.1521315E-007  0.6703550E+03  0.7818608E-02  0.1015410E+00
          1   -1    0    0  501    0  0.00000000000E+00  0.00000000000E+00  0.16858471492E+04  0.16858471492E+04  0.50400000000E-02 0. -1.
         -1   -1    0    0    0  501 -0.00000000000E+00 -0.00000000000E+00 -0.18361620849E+03  0.18361620856E+03  0.50400000000E-02 0.  1.
    8880023    1    1    2    0    0 -0.86631171519E+02  0.89781152434E+02  0.15297455682E+04  0.16701788302E+04  0.65864270000E+03 0. -1.
    8880022    1    1    2    0    0  0.86631171519E+02 -0.89781152434E+02 -0.27514627419E+02  0.19928452762E+03  0.15294330000E+03 0.  0.
<mgrwt>
<rscale>  0 0.49380127E+03</rscale>
<asrwt>0</asrwt>
<pdfrwt beam="1">  1        1 0.25936110E+00 0.67035500E+03</pdfrwt>
<pdfrwt beam="2">  1       -1 0.28248648E-01 0.67035500E+03</pdfrwt>
<totfact> 0.57358421E+01</totfact>
</mgrwt>
</event>
<event>
 4    1  0.1521315E-007  0.8049864E+03  0.7818608E-02  0.9700116E-01
         -1   -1    0    0    0  501 -0.00000000000E+00  0.00000000000E+00  0.67136875623E+03  0.67136875625E+03  0.50400000000E-02 0.  1.
          1   -1    0    0  501    0  0.00000000000E+00 -0.00000000000E+00 -0.78173085953E+03  0.78173085954E+03  0.50400000000E-02 0. -1.
    8880023    1    1    2    0    0  0.34633961663E+03  0.30698816528E+03 -0.38641790944E+03  0.89292881613E+03  0.65864270000E+03 0. -1.
    8880022    1    1    2    0    0 -0.34633961663E+03 -0.30698816528E+03  0.27605580614E+03  0.56017079966E+03  0.15294330000E+03 0.  0.
<mgrwt>
<rscale>  0 0.71009861E+03</rscale>
<asrwt>0</asrwt>
<pdfrwt beam="1">  1        1 0.12026629E+00 0.80498638E+03</pdfrwt>
<pdfrwt beam="2">  1       -1 0.10328750E+00 0.80498638E+03</pdfrwt>
<totfact> 0.20720938E+01</totfact>
</mgrwt>
</event>
<event>
 4    1  0.1521315E-007  0.7551714E+03  0.7818608E-02  0.9817772E-01
         -1   -1    0    0    0  501 -0.00000000000E+00  0.00000000000E+00  0.22159223431E+03  0.22159223437E+03  0.50400000000E-02 0.  1.
          1   -1    0    0  501    0  0.00000000000E+00 -0.00000000000E+00 -0.16112969038E+04  0.16112969038E+04  0.50400000000E-02 0. -1.
    8880023    1    1    2    0    0 -0.10131392179E+03 -0.35525920484E+03 -0.11192135914E+04  0.13501566142E+04  0.65864270000E+03 0.  0.
    8880022    1    1    2    0    0  0.10131392179E+03  0.35525920484E+03 -0.27049107803E+03  0.48273252395E+03  0.15294330000E+03 0.  0.
<mgrwt>
<rscale>  0 0.64417432E+03</rscale>
<asrwt>0</asrwt>
<pdfrwt beam="1">  1        1 0.24789182E+00 0.75517138E+03</pdfrwt>
<pdfrwt beam="2">  1       -1 0.34091114E-01 0.75517138E+03</pdfrwt>
<totfact> 0.45884527E+01</totfact>
</mgrwt>
</event>
<event>
 4    1  0.1521315E-007  0.8722963E+03  0.7818608E-02  0.9572054E-01
          1   -1    0    0  501    0  0.00000000000E+00  0.00000000000E+00  0.18223048083E+04  0.18223048083E+04  0.50400000000E-02 0. -1.
         -1   -1    0    0    0  501 -0.00000000000E+00 -0.00000000000E+00 -0.34869871846E+03  0.34869871849E+03  0.50400000000E-02 0.  1.
    8880023    1    1    2    0    0 -0.32204810050E+03  0.47262625871E+03  0.43317118897E+03  0.97392917847E+03  0.65864270000E+03 0.  1.
    8880022    1    1    2    0    0  0.32204810050E+03 -0.47262625871E+03  0.10404349009E+04  0.11970743483E+04  0.15294330000E+03 0. -1.
<mgrwt>
<rscale>  0 0.79173757E+03</rscale>
<asrwt>0</asrwt>
<pdfrwt beam="1">  1        1 0.28035458E+00 0.87229626E+03</pdfrwt>
<pdfrwt beam="2">  1       -1 0.53645958E-01 0.87229626E+03</pdfrwt>
<totfact> 0.14124924E+01</totfact>
</mgrwt>
</event>
<event>
 4    1  0.1521315E-007  0.7517328E+03  0.7818608E-02  0.9827001E-01
          1   -1    0    0  501    0  0.00000000000E+00  0.00000000000E+00  0.50375751249E+03  0.50375751251E+03  0.50400000000E-02 0. -1.
         -1   -1    0    0    0  501 -0.00000000000E+00 -0.00000000000E+00 -0.15516144624E+04  0.15516144624E+04  0.50400000000E-02 0.  1.
    8880023    1    1    2    0    0 -0.28098799950E+03 -0.22877433513E+03  0.17414329013E+03  0.77163984088E+03  0.65864270000E+03 0. -1.
    8880022    1    1    2    0    0  0.28098799950E+03  0.22877433513E+03 -0.12220002400E+04  0.12837321340E+04  0.15294330000E+03 0.  0.
<mgrwt>
<rscale>  0 0.63933451E+03</rscale>
<asrwt>0</asrwt>
<pdfrwt beam="1">  1        1 0.77501157E-01 0.75173277E+03</pdfrwt>
<pdfrwt beam="2">  1       -1 0.23870991E+00 0.75173277E+03</pdfrwt>
<totfact> 0.37726715E+00</totfact>
</mgrwt>
</event>
<event>
 4    1  0.1521315E-007  0.7611649E+03  0.7818608E-02  0.9802101E-01
         -1   -1    0    0    0  501 -0.00000000000E+00  0.00000000000E+00  0.29935921262E+03  0.29935921267E+03  0.50400000000E-02 0.  1.
          1   -1    0    0  501    0  0.00000000000E+00 -0.00000000000E+00 -0.27666905998E+04  0.27666905998E+04  0.50400000000E-02 0. -1.
    8880023    1    1    2    0    0 -0.21932423452E+01 -0.38151933318E+03 -0.25373763329E+04  0.26490848746E+04  0.65864270000E+03 0.  0.
    8880022    1    1    2    0    0  0.21932423452E+01  0.38151933318E+03  0.70044945788E+02  0.41696493779E+03  0.15294330000E+03 0.  0.
<mgrwt>
<rscale>  0 0.65249916E+03</rscale>
<asrwt>0</asrwt>
<pdfrwt beam="1">  1        1 0.42564469E+00 0.76116491E+03</pdfrwt>
<pdfrwt beam="2">  1       -1 0.46055265E-01 0.76116491E+03</pdfrwt>
<totfact> 0.43845322E+00</totfact>
</mgrwt>
</event>
<event>
 4    1  0.1521315E-007  0.1007472E+04  0.7818608E-02  0.9371846E-01
          1   -1    0    0  501    0  0.00000000000E+00  0.00000000000E+00  0.14497919241E+04  0.14497919241E+04  0.50400000000E-02 0. -1.
         -1   -1    0    0    0  501 -0.00000000000E+00 -0.00000000000E+00 -0.70044813052E+03  0.70044813054E+03  0.50400000000E-02 0.  1.
    8880023    1    1    2    0    0 -0.74076500915E+02  0.75875097636E+03  0.90846118816E+03  0.13565774245E+04  0.65864270000E+03 0.  0.
    8880022    1    1    2    0    0  0.74076500915E+02 -0.75875097636E+03 -0.15911739460E+03  0.79366263008E+03  0.15294330000E+03 0.  0.
<mgrwt>
<rscale>  0 0.94429298E+03</rscale>
<asrwt>0</asrwt>
<pdfrwt beam="1">  1        1 0.22304491E+00 0.10074724E+04</pdfrwt>
<pdfrwt beam="2">  1       -1 0.10776125E+00 0.10074724E+04</pdfrwt>
<totfact> 0.57039621E+00</totfact>
</mgrwt>
</event>
<event>
 4    1  0.1521315E-007  0.8510565E+03  0.7818608E-02  0.9609675E-01
          1   -1    0    0  501    0  0.00000000000E+00  0.00000000000E+00  0.19538919768E+04  0.19538919768E+04  0.50400000000E-02 0. -1.
         -1   -1    0    0    0  501 -0.00000000000E+00 -0.00000000000E+00 -0.51950698229E+03  0.51950698231E+03  0.50400000000E-02 0.  1.
    8880023    1    1    2    0    0  0.21815102088E+03  0.49284588127E+03  0.16631441269E+04  0.18682466442E+04  0.65864270000E+03 0.  0.
    8880022    1    1    2    0    0 -0.21815102088E+03 -0.49284588127E+03 -0.22875913235E+03  0.60515231492E+03  0.15294330000E+03 0.  0.
<mgrwt>
<rscale>  0 0.76659150E+03</rscale>
<asrwt>0</asrwt>
<pdfrwt beam="1">  1        1 0.30059877E+00 0.85105648E+03</pdfrwt>
<pdfrwt beam="2">  1       -1 0.79924151E-01 0.85105648E+03</pdfrwt>
<totfact> 0.51652345E+00</totfact>
</mgrwt>
</event>
<event>
 4    1  0.1521315E-007  0.9718091E+03  0.7818608E-02  0.9419406E-01
          1   -1    0    0  501    0  0.00000000000E+00  0.00000000000E+00  0.15087382820E+04  0.15087382820E+04  0.50400000000E-02 0. -1.
         -1   -1    0    0    0  501 -0.00000000000E+00 -0.00000000000E+00 -0.50415188742E+03  0.50415188744E+03  0.50400000000E-02 0.  1.
    8880023    1    1    2    0    0 -0.64895427718E+03 -0.29910056271E+03  0.78677321023E+03  0.12503699817E+04  0.65864270000E+03 0. -1.
    8880022    1    1    2    0    0  0.64895427718E+03  0.29910056271E+03  0.21781318435E+03  0.76252018778E+03  0.15294330000E+03 0.  0.
<mgrwt>
<rscale>  0 0.90495676E+03</rscale>
<asrwt>0</asrwt>
<pdfrwt beam="1">  1        1 0.23211358E+00 0.97180914E+03</pdfrwt>
<pdfrwt beam="2">  1       -1 0.77561829E-01 0.97180914E+03</pdfrwt>
<totfact> 0.10844057E+01</totfact>
</mgrwt>
</event>
<event>
 4    1  0.1521315E-007  0.6731509E+03  0.7818608E-02  0.1013498E+00
          1   -1    0    0  501    0  0.00000000000E+00  0.00000000000E+00  0.85598076647E+03  0.85598076649E+03  0.50400000000E-02 0. -1.
         -1   -1    0    0    0  501 -0.00000000000E+00 -0.00000000000E+00 -0.80674153240E+03  0.80674153241E+03  0.50400000000E-02 0.  1.
    8880023    1    1    2    0    0  0.13698016738E+03 -0.23630239476E+02  0.70524113378E+03  0.97493446832E+03  0.65864270000E+03 0. -1.
    8880022    1    1    2    0    0 -0.13698016738E+03  0.23630239476E+02 -0.65600189970E+03  0.68778783059E+03  0.15294330000E+03 0.  0.
<mgrwt>
<rscale>  0 0.50107774E+03</rscale>
<asrwt>0</asrwt>
<pdfrwt beam="1">  1        1 0.13168935E+00 0.67315092E+03</pdfrwt>
<pdfrwt beam="2">  1       -1 0.12411408E+00 0.67315092E+03</pdfrwt>
<totfact> 0.11746536E+01</totfact>
</mgrwt>
</event>
<event>
 4    1  0.1521315E-007  0.7022859E+03  0.7818608E-02  0.9987847E-01
         -1   -1    0    0    0  501 -0.00000000000E+00  0.00000000000E+00  0.43627252571E+03  0.43627252574E+03  0.50400000000E-02 0.  1.
          1   -1    0    0  501    0  0.00000000000E+00 -0.00000000000E+00 -0.93132380716E+03  0.93132380717E+03  0.50400000000E-02 0. -1.
    8880023    1    1    2    0    0 -0.69856230690E+02  0.23348520803E+03 -0.71743108912E+03  0.10039486089E+04  0.65864270000E+03 0. -1.
    8880022    1    1    2    0    0  0.69856230690E+02 -0.23348520803E+03  0.22237980767E+03  0.36364772405E+03  0.15294330000E+03 0.  1.
<mgrwt>
<rscale>  0 0.56186327E+03</rscale>
<asrwt>0</asrwt>
<pdfrwt beam="1">  1        1 0.14328059E+00 0.70228587E+03</pdfrwt>
<pdfrwt beam="2">  1       -1 0.67118850E-01 0.70228587E+03</pdfrwt>
<totfact> 0.39745009E+01</totfact>
</mgrwt>
</event>
<event>
 4    1  0.1521315E-007  0.9227962E+03  0.7818608E-02  0.9490385E-01
          1   -1    0    0  501    0  0.00000000000E+00  0.00000000000E+00  0.87943015950E+03  0.87943015951E+03  0.50400000000E-02 0. -1.
         -1   -1    0    0    0  501 -0.00000000000E+00 -0.00000000000E+00 -0.71766578995E+03  0.71766578997E+03  0.50400000000E-02 0.  1.
    8880023    1    1    2    0    0 -0.61740894052E+03 -0.19117754251E+03  0.13262126807E+03  0.93227745848E+03  0.65864270000E+03 0.  1.
    8880022    1    1    2    0    0  0.61740894052E+03  0.19117754251E+03  0.29143101480E+02  0.66481849099E+03  0.15294330000E+03 0. -1.
<mgrwt>
<rscale>  0 0.84996435E+03</rscale>
<asrwt>0</asrwt>
<pdfrwt beam="1">  1        1 0.13529695E+00 0.92279622E+03</pdfrwt>
<pdfrwt beam="2">  1       -1 0.11041012E+00 0.92279622E+03</pdfrwt>
<totfact> 0.14456059E+01</totfact>
</mgrwt>
</event>
<event>
 4    1  0.1521315E-007  0.7173038E+03  0.7818608E-02  0.9931817E-01
         -1   -1    0    0    0  501 -0.00000000000E+00  0.00000000000E+00  0.39502588950E+03  0.39502588953E+03  0.50400000000E-02 0.  1.
          1   -1    0    0  501    0  0.00000000000E+00 -0.00000000000E+00 -0.21300885338E+04  0.21300885338E+04  0.50400000000E-02 0. -1.
    8880023    1    1    2    0    0  0.27382078333E+03  0.75740625674E+02 -0.19890813188E+04  0.21144666379E+04  0.65864270000E+03 0. -1.
    8880022    1    1    2    0    0 -0.27382078333E+03 -0.75740625674E+02  0.25401867443E+03  0.41064778550E+03  0.15294330000E+03 0.  0.
<mgrwt>
<rscale>  0 0.58743776E+03</rscale>
<asrwt>0</asrwt>
<pdfrwt beam="1">  1        1 0.32770592E+00 0.71730375E+03</pdfrwt>
<pdfrwt beam="2">  1       -1 0.60773215E-01 0.71730375E+03</pdfrwt>
<totfact> 0.70495652E+00</totfact>
</mgrwt>
</event>
<event>
 4    1  0.1521315E-007  0.6744033E+03  0.7818608E-02  0.1012685E+00
          1   -1    0    0  501    0  0.00000000000E+00  0.00000000000E+00  0.16931657147E+04  0.16931657147E+04  0.50400000000E-02 0. -1.
         -1   -1    0    0    0  501 -0.00000000000E+00 -0.00000000000E+00 -0.57280423030E+03  0.57280423033E+03  0.50400000000E-02 0.  1.
    8880023    1    1    2    0    0 -0.79287368257E+02 -0.12133868589E+03  0.16031357613E+04  0.17392136266E+04  0.65864270000E+03 0. -1.
    8880022    1    1    2    0    0  0.79287368257E+02  0.12133868589E+03 -0.48277427696E+03  0.52675631840E+03  0.15294330000E+03 0.  0.
<mgrwt>
<rscale>  0 0.50421308E+03</rscale>
<asrwt>0</asrwt>
<pdfrwt beam="1">  1        1 0.26048704E+00 0.67440327E+03</pdfrwt>
<pdfrwt beam="2">  1       -1 0.88123726E-01 0.67440327E+03</pdfrwt>
<totfact> 0.64455105E+00</totfact>
</mgrwt>
</event>
<event>
 4    1  0.1521315E-007  0.7299687E+03  0.7818608E-02  0.9890194E-01
          1   -1    0    0  501    0  0.00000000000E+00  0.00000000000E+00  0.55473517866E+03  0.55473517869E+03  0.50400000000E-02 0. -1.
         -1   -1    0    0    0  501 -0.00000000000E+00 -0.00000000000E+00 -0.93017214220E+03  0.93017214221E+03  0.50400000000E-02 0.  1.
    8880023    1    1    2    0    0  0.22070228291E+03 -0.22435369091E+03  0.24719691651E+03  0.77068839235E+03  0.65864270000E+03 0.  0.
    8880022    1    1    2    0    0 -0.22070228291E+03  0.22435369091E+03 -0.62263388004E+03  0.71421892855E+03  0.15294330000E+03 0.  0.
<mgrwt>
<rscale>  0 0.60738868E+03</rscale>
<asrwt>0</asrwt>
<pdfrwt beam="1">  1        1 0.85343874E-01 0.72996869E+03</pdfrwt>
<pdfrwt beam="2">  1       -1 0.14310341E+00 0.72996869E+03</pdfrwt>
<totfact> 0.15617909E+01</totfact>
</mgrwt>
</event>
<event>
 4    1  0.1521315E-007  0.6667280E+03  0.7818608E-02  0.1018126E+00
         -1   -1    0    0    0  501 -0.00000000000E+00  0.00000000000E+00  0.76224785553E+03  0.76224785555E+03  0.50400000000E-02 0.  1.
          1   -1    0    0  501    0  0.00000000000E+00 -0.00000000000E+00 -0.37960705734E+03  0.37960705737E+03  0.50400000000E-02 0. -1.
    8880023    1    1    2    0    0 -0.40677974366E+02  0.95190882970E+02 -0.52852905929E+02  0.66881958533E+03  0.65864270000E+03 0. -1.
    8880022    1    1    2    0    0  0.40677974366E+02 -0.95190882970E+02  0.43549370412E+03  0.47303532759E+03  0.15294330000E+03 0.  0.
<mgrwt>
<rscale>  0 0.48369099E+03</rscale>
<asrwt>0</asrwt>
<pdfrwt beam="1">  1        1 0.58401086E-01 0.66672799E+03</pdfrwt>
<pdfrwt beam="2">  1       -1 0.11726890E+00 0.66672799E+03</pdfrwt>
<totfact> 0.43342717E+01</totfact>
</mgrwt>
</event>
<event>
 4    1  0.1521315E-007  0.1286590E+04  0.7818608E-02  0.9077227E-01
         -1   -1    0    0    0  501 -0.00000000000E+00  0.00000000000E+00  0.22711702817E+04  0.22711702817E+04  0.50400000000E-02 0.  1.
          1   -1    0    0  501    0  0.00000000000E+00 -0.00000000000E+00 -0.78620368871E+03  0.78620368873E+03  0.50400000000E-02 0. -1.
    8880023    1    1    2    0    0 -0.88403710661E+03  0.66331216305E+03  0.11672199769E+03  0.12918741667E+04  0.65864270000E+03 0.  0.
    8880022    1    1    2    0    0  0.88403710661E+03 -0.66331216305E+03  0.13682445953E+04  0.17654998037E+04  0.15294330000E+03 0.  0.
<mgrwt>
<rscale>  0 0.12415719E+04</rscale>
<asrwt>0</asrwt>
<pdfrwt beam="1">  1        1 0.12095442E+00 0.12865904E+04</pdfrwt>
<pdfrwt beam="2">  1       -1 0.34941081E+00 0.12865904E+04</pdfrwt>
<totfact> 0.34927318E-01</totfact>
</mgrwt>
</event>
<event>
 4    1  0.1521315E-007  0.1479405E+04  0.7818608E-02  0.8924317E-01
         -1   -1    0    0    0  501 -0.00000000000E+00  0.00000000000E+00  0.80550671782E+03  0.80550671784E+03  0.50400000000E-02 0.  1.
          1   -1    0    0  501    0  0.00000000000E+00 -0.00000000000E+00 -0.28584228604E+04  0.28584228604E+04  0.50400000000E-02 0. -1.
    8880023    1    1    2    0    0  0.10942486317E+04 -0.74662584624E+03 -0.17590103830E+04  0.22984251034E+04  0.65864270000E+03 0.  0.
    8880022    1    1    2    0    0 -0.10942486317E+04  0.74662584624E+03 -0.29390575961E+03  0.13655044748E+04  0.15294330000E+03 0.  0.
<mgrwt>
<rscale>  0 0.14414967E+04</rscale>
<asrwt>0</asrwt>
<pdfrwt beam="1">  1        1 0.43975736E+00 0.14794054E+04</pdfrwt>
<pdfrwt beam="2">  1       -1 0.12392411E+00 0.14794054E+04</pdfrwt>
<totfact> 0.41411046E-01</totfact>
</mgrwt>
</event>
<event>
 4    1  0.1521315E-007  0.7057182E+03  0.7818608E-02  0.9974259E-01
          1   -1    0    0  501    0  0.00000000000E+00  0.00000000000E+00  0.14214210052E+04  0.14214210052E+04  0.50400000000E-02 0. -1.
         -1   -1    0    0    0  501 -0.00000000000E+00 -0.00000000000E+00 -0.23593063083E+03  0.23593063088E+03  0.50400000000E-02 0.  1.
    8880023    1    1    2    0    0  0.40106940612E+02  0.25023869485E+03  0.11631566600E+04  0.13605041687E+04  0.65864270000E+03 0. -1.
    8880022    1    1    2    0    0 -0.40106940612E+02 -0.25023869485E+03  0.22333714370E+02  0.29684746740E+03  0.15294330000E+03 0.  0.
<mgrwt>
<rscale>  0 0.56793504E+03</rscale>
<asrwt>0</asrwt>
<pdfrwt beam="1">  1        1 0.21868016E+00 0.70571820E+03</pdfrwt>
<pdfrwt beam="2">  1       -1 0.36297019E-01 0.70571820E+03</pdfrwt>
<totfact> 0.55629552E+01</totfact>
</mgrwt>
</event>
<event>
 4    1  0.1521315E-007  0.6635779E+03  0.7818608E-02  0.1020757E+00
         -1   -1    0    0    0  501 -0.00000000000E+00  0.00000000000E+00  0.87273305576E+03  0.87273305578E+03  0.50400000000E-02 0.  1.
          1   -1    0    0  501    0  0.00000000000E+00 -0.00000000000E+00 -0.90312211555E+03  0.90312211556E+03  0.50400000000E-02 0. -1.
    8880023    1    1    2    0    0  0.66275413878E+02  0.46184653948E+02 -0.76988825827E+03  0.10163973579E+04  0.65864270000E+03 0. -1.
    8880022    1    1    2    0    0 -0.66275413878E+02 -0.46184653948E+02  0.73949919849E+03  0.75945781340E+03  0.15294330000E+03 0.  0.
<mgrwt>
<rscale>  0 0.47414251E+03</rscale>
<asrwt>0</asrwt>
<pdfrwt beam="1">  1        1 0.13894186E+00 0.66357792E+03</pdfrwt>
<pdfrwt beam="2">  1       -1 0.13426662E+00 0.66357792E+03</pdfrwt>
<totfact> 0.88376535E+00</totfact>
</mgrwt>
</event>
<event>
 4    1  0.1521315E-007  0.9685123E+03  0.7818608E-02  0.9423965E-01
         -1   -1    0    0    0  501 -0.00000000000E+00  0.00000000000E+00  0.61556862673E+03  0.61556862675E+03  0.50400000000E-02 0.  1.
          1   -1    0    0  501    0  0.00000000000E+00 -0.00000000000E+00 -0.16554648462E+04  0.16554648462E+04  0.50400000000E-02 0. -1.
    8880023    1    1    2    0    0  0.51939106480E+03  0.48418880495E+03 -0.11848808087E+04  0.15303459132E+04  0.65864270000E+03 0.  0.
    8880022    1    1    2    0    0 -0.51939106480E+03 -0.48418880495E+03  0.14498458921E+03  0.74068755974E+03  0.15294330000E+03 0.  0.
<mgrwt>
<rscale>  0 0.90129446E+03</rscale>
<asrwt>0</asrwt>
<pdfrwt beam="1">  1        1 0.25468690E+00 0.96851230E+03</pdfrwt>
<pdfrwt beam="2">  1       -1 0.94702866E-01 0.96851230E+03</pdfrwt>
<totfact> 0.55738887E+00</totfact>
</mgrwt>
</event>
<event>
 4    1  0.1521315E-007  0.8510119E+03  0.7818608E-02  0.9609756E-01
          1   -1    0    0  501    0  0.00000000000E+00  0.00000000000E+00  0.28583201194E+04  0.28583201194E+04  0.50400000000E-02 0. -1.
         -1   -1    0    0    0  501 -0.00000000000E+00 -0.00000000000E+00 -0.35719171696E+03  0.35719171700E+03  0.50400000000E-02 0.  1.
    8880023    1    1    2    0    0  0.44116112673E+02  0.53708928393E+03  0.25150820308E+04  0.26551570496E+04  0.65864270000E+03 0. -1.
    8880022    1    1    2    0    0 -0.44116112673E+02 -0.53708928393E+03 -0.13953628346E+02  0.56035478678E+03  0.15294330000E+03 0.  0.
<mgrwt>
<rscale>  0 0.76653827E+03</rscale>
<asrwt>0</asrwt>
<pdfrwt beam="1">  1        1 0.43974155E+00 0.85101195E+03</pdfrwt>
<pdfrwt beam="2">  1       -1 0.54952573E-01 0.85101195E+03</pdfrwt>
<totfact> 0.26594916E+00</totfact>
</mgrwt>
</event>
<event>
 4    1  0.1521315E-007  0.6994135E+03  0.7818608E-02  0.9999643E-01
         -1   -1    0    0    0  501 -0.00000000000E+00  0.00000000000E+00  0.46162473282E+03  0.46162473284E+03  0.50400000000E-02 0.  1.
          1   -1    0    0  501    0  0.00000000000E+00 -0.00000000000E+00 -0.12292371389E+04  0.12292371389E+04  0.50400000000E-02 0. -1.
    8880023    1    1    2    0    0  0.23240924796E+03 -0.36809864388E+02 -0.10699993953E+04  0.12783105792E+04  0.65864270000E+03 0. -1.
    8880022    1    1    2    0    0 -0.23240924796E+03  0.36809864388E+02  0.30238698928E+03  0.41255129251E+03  0.15294330000E+03 0.  0.
<mgrwt>
<rscale>  0 0.55665893E+03</rscale>
<asrwt>0</asrwt>
<pdfrwt beam="1">  1        1 0.18911341E+00 0.69941349E+03</pdfrwt>
<pdfrwt beam="2">  1       -1 0.71019190E-01 0.69941349E+03</pdfrwt>
<totfact> 0.21147435E+01</totfact>
</mgrwt>
</event>
<event>
 4    1  0.1521315E-007  0.9461634E+03  0.7818608E-02  0.9455656E-01
          1   -1    0    0  501    0  0.00000000000E+00  0.00000000000E+00  0.20156808592E+04  0.20156808592E+04  0.50400000000E-02 0. -1.
         -1   -1    0    0    0  501 -0.00000000000E+00 -0.00000000000E+00 -0.69303409678E+03  0.69303409680E+03  0.50400000000E-02 0.  1.
    8880023    1    1    2    0    0 -0.67147217435E+03 -0.10266452514E+03  0.16784716117E+04  0.19267828221E+04  0.65864270000E+03 0. -1.
    8880022    1    1    2    0    0  0.67147217435E+03  0.10266452514E+03 -0.35582484936E+03  0.78193213393E+03  0.15294330000E+03 0.  0.
<mgrwt>
<rscale>  0 0.87633600E+03</rscale>
<asrwt>0</asrwt>
<pdfrwt beam="1">  1        1 0.31010475E+00 0.94616335E+03</pdfrwt>
<pdfrwt beam="2">  1       -1 0.10662063E+00 0.94616335E+03</pdfrwt>
<totfact> 0.24345399E+00</totfact>
</mgrwt>
</event>
<event>
 4    1  0.1521315E-007  0.8854781E+03  0.7818608E-02  0.9549758E-01
         -1   -1    0    0    0  501 -0.00000000000E+00  0.00000000000E+00  0.16084702370E+04  0.16084702370E+04  0.50400000000E-02 0.  1.
          1   -1    0    0  501    0  0.00000000000E+00 -0.00000000000E+00 -0.81387435248E+03  0.81387435250E+03  0.50400000000E-02 0. -1.
    8880023    1    1    2    0    0 -0.26520016818E+03  0.52908427441E+03 -0.48111766092E+03  0.10077428782E+04  0.65864270000E+03 0.  0.
    8880022    1    1    2    0    0  0.26520016818E+03 -0.52908427441E+03  0.12757135455E+04  0.14146017113E+04  0.15294330000E+03 0.  0.
<mgrwt>
<rscale>  0 0.80712710E+03</rscale>
<asrwt>0</asrwt>
<pdfrwt beam="1">  1        1 0.12521144E+00 0.88547812E+03</pdfrwt>
<pdfrwt beam="2">  1       -1 0.24745696E+00 0.88547812E+03</pdfrwt>
<totfact> 0.15956072E+00</totfact>
</mgrwt>
</event>
<event>
 4    1  0.1521315E-007  0.6970527E+03  0.7818608E-02  0.1000965E+00
         -1   -1    0    0    0  501 -0.00000000000E+00  0.00000000000E+00  0.54350452851E+03  0.54350452853E+03  0.50400000000E-02 0.  1.
          1   -1    0    0  501    0  0.00000000000E+00 -0.00000000000E+00 -0.18751196860E+04  0.18751196860E+04  0.50400000000E-02 0. -1.
    8880023    1    1    2    0    0 -0.15956602471E+03 -0.16312840955E+03 -0.17694206759E+04  0.19017707351E+04  0.65864270000E+03 0. -1.
    8880022    1    1    2    0    0  0.15956602471E+03  0.16312840955E+03  0.43780551842E+03  0.51685347945E+03  0.15294330000E+03 0.  0.
<mgrwt>
<rscale>  0 0.55228921E+03</rscale>
<asrwt>0</asrwt>
<pdfrwt beam="1">  1        1 0.28847995E+00 0.69705265E+03</pdfrwt>
<pdfrwt beam="2">  1       -1 0.83616082E-01 0.69705265E+03</pdfrwt>
<totfact> 0.54331077E+00</totfact>
</mgrwt>
</event>
<event>
 4    1  0.1521315E-007  0.7615913E+03  0.7818608E-02  0.9801005E-01
         -1   -1    0    0    0  501 -0.00000000000E+00  0.00000000000E+00  0.64076848983E+03  0.64076848985E+03  0.50400000000E-02 0.  1.
          1   -1    0    0  501    0  0.00000000000E+00 -0.00000000000E+00 -0.68442577186E+03  0.68442577187E+03  0.50400000000E-02 0. -1.
    8880023    1    1    2    0    0 -0.42436399377E+02  0.38001351468E+03 -0.32332563234E+03  0.82738188893E+03  0.65864270000E+03 0.  0.
    8880022    1    1    2    0    0  0.42436399377E+02 -0.38001351468E+03  0.27966835032E+03  0.49781237280E+03  0.15294330000E+03 0.  0.
<mgrwt>
<rscale>  0 0.65308635E+03</rscale>
<asrwt>0</asrwt>
<pdfrwt beam="1">  1        1 0.10529627E+00 0.76159131E+03</pdfrwt>
<pdfrwt beam="2">  1       -1 0.98579768E-01 0.76159131E+03</pdfrwt>
<totfact> 0.28423231E+01</totfact>
</mgrwt>
</event>
<event>
 4    1  0.1521315E-007  0.6813400E+03  0.7818608E-02  0.1008576E+00
         -1   -1    0    0    0  501 -0.00000000000E+00  0.00000000000E+00  0.22601038405E+03  0.22601038411E+03  0.50400000000E-02 0.  1.
          1   -1    0    0  501    0  0.00000000000E+00 -0.00000000000E+00 -0.15732047404E+04  0.15732047404E+04  0.50400000000E-02 0. -1.
    8880023    1    1    2    0    0  0.90975075486E+02  0.14878689540E+03 -0.14038334149E+04  0.15604398314E+04  0.65864270000E+03 0. -1.
    8880022    1    1    2    0    0 -0.90975075486E+02 -0.14878689540E+03  0.56639058540E+02  0.23877529305E+03  0.15294330000E+03 0.  0.
<mgrwt>
<rscale>  0 0.52044688E+03</rscale>
<asrwt>0</asrwt>
<pdfrwt beam="1">  1        1 0.24203149E+00 0.68134001E+03</pdfrwt>
<pdfrwt beam="2">  1       -1 0.34770829E-01 0.68134001E+03</pdfrwt>
<totfact> 0.47427087E+01</totfact>
</mgrwt>
</event>
<event>
 4    1  0.1521315E-007  0.8561114E+03  0.7818608E-02  0.9600518E-01
         -1   -1    0    0    0  501 -0.00000000000E+00  0.00000000000E+00  0.77027872330E+03  0.77027872332E+03  0.50400000000E-02 0.  1.
          1   -1    0    0  501    0  0.00000000000E+00 -0.00000000000E+00 -0.68995310327E+03  0.68995310329E+03  0.50400000000E-02 0. -1.
    8880023    1    1    2    0    0 -0.17129566574E+03 -0.51939796211E+03  0.20160304314E+03  0.87952853360E+03  0.65864270000E+03 0.  1.
    8880022    1    1    2    0    0  0.17129566574E+03  0.51939796211E+03 -0.12127742311E+03  0.58070329301E+03  0.15294330000E+03 0. -1.
<mgrwt>
<rscale>  0 0.77261880E+03</rscale>
<asrwt>0</asrwt>
<pdfrwt beam="1">  1        1 0.10614663E+00 0.85611136E+03</pdfrwt>
<pdfrwt beam="2">  1       -1 0.11850442E+00 0.85611136E+03</pdfrwt>
<totfact> 0.18057668E+01</totfact>
</mgrwt>
</event>
<event>
 4    1  0.1521315E-007  0.8388873E+03  0.7818608E-02  0.9632282E-01
          1   -1    0    0  501    0  0.00000000000E+00  0.00000000000E+00  0.69973854277E+03  0.69973854279E+03  0.50400000000E-02 0. -1.
         -1   -1    0    0    0  501 -0.00000000000E+00 -0.00000000000E+00 -0.12358709731E+04  0.12358709731E+04  0.50400000000E-02 0.  1.
    8880023    1    1    2    0    0 -0.19664547722E+03  0.48088699918E+03  0.34035023031E+03  0.90530118481E+03  0.65864270000E+03 0.  0.
    8880022    1    1    2    0    0  0.19664547722E+03 -0.48088699918E+03 -0.87648266066E+03  0.10303083311E+04  0.15294330000E+03 0.  0.
<mgrwt>
<rscale>  0 0.75195909E+03</rscale>
<asrwt>0</asrwt>
<pdfrwt beam="1">  1        1 0.10765208E+00 0.83888733E+03</pdfrwt>
<pdfrwt beam="2">  1       -1 0.19013400E+00 0.83888733E+03</pdfrwt>
<totfact> 0.49177009E+00</totfact>
</mgrwt>
</event>
<event>
 4    1  0.1521315E-007  0.9399847E+03  0.7818608E-02  0.9464673E-01
         -1   -1    0    0    0  501 -0.00000000000E+00  0.00000000000E+00  0.13143791742E+04  0.13143791743E+04  0.50400000000E-02 0.  1.
          1   -1    0    0  501    0  0.00000000000E+00 -0.00000000000E+00 -0.53803241664E+03  0.53803241666E+03  0.50400000000E-02 0. -1.
    8880023    1    1    2    0    0 -0.51014728415E+03 -0.43532845204E+03  0.21424280714E+03  0.96409091862E+03  0.65864270000E+03 0. -1.
    8880022    1    1    2    0    0  0.51014728415E+03  0.43532845204E+03  0.56210395047E+03  0.88832067230E+03  0.15294330000E+03 0.  0.
<mgrwt>
<rscale>  0 0.86939227E+03</rscale>
<asrwt>0</asrwt>
<pdfrwt beam="1">  1        1 0.82774218E-01 0.93998474E+03</pdfrwt>
<pdfrwt beam="2">  1       -1 0.20221218E+00 0.93998474E+03</pdfrwt>
<totfact> 0.58786253E+00</totfact>
</mgrwt>
</event>
<event>
 4    1  0.1521315E-007  0.8223471E+03  0.7818608E-02  0.9664410E-01
          1   -1    0    0  501    0  0.00000000000E+00  0.00000000000E+00  0.56907249679E+03  0.56907249681E+03  0.50400000000E-02 0. -1.
         -1   -1    0    0    0  501 -0.00000000000E+00 -0.00000000000E+00 -0.11057603303E+04  0.11057603304E+04  0.50400000000E-02 0.  1.
    8880023    1    1    2    0    0 -0.45001299850E+02  0.49032578862E+03  0.12944598475E+03  0.83247280148E+03  0.65864270000E+03 0. -1.
    8880022    1    1    2    0    0  0.45001299850E+02 -0.49032578862E+03 -0.66613381830E+03  0.84236002568E+03  0.15294330000E+03 0.  0.
<mgrwt>
<rscale>  0 0.73175907E+03</rscale>
<asrwt>0</asrwt>
<pdfrwt beam="1">  1        1 0.87549615E-01 0.82234707E+03</pdfrwt>
<pdfrwt beam="2">  1       -1 0.17011697E+00 0.82234707E+03</pdfrwt>
<totfact> 0.92752168E+00</totfact>
</mgrwt>
</event>
<event>
 4    1  0.1521315E-007  0.6923230E+03  0.7818608E-02  0.1003067E+00
         -1   -1    0    0    0  501 -0.00000000000E+00  0.00000000000E+00  0.10977291106E+03  0.10977291117E+03  0.50400000000E-02 0.  1.
          1   -1    0    0  501    0  0.00000000000E+00 -0.00000000000E+00 -0.22846451256E+04  0.22846451256E+04  0.50400000000E-02 0. -1.
    8880023    1    1    2    0    0 -0.20917782338E+03  0.41779325535E+02 -0.18589663392E+04  0.19837003126E+04  0.65864270000E+03 0.  0.
    8880022    1    1    2    0    0  0.20917782338E+03 -0.41779325535E+02 -0.31590587540E+03  0.41071772419E+03  0.15294330000E+03 0.  0.
<mgrwt>
<rscale>  0 0.54325417E+03</rscale>
<asrwt>0</asrwt>
<pdfrwt beam="1">  1        1 0.35148383E+00 0.69232296E+03</pdfrwt>
<pdfrwt beam="2">  1       -1 0.16888142E-01 0.69232296E+03</pdfrwt>
<totfact> 0.53997297E+01</totfact>
</mgrwt>
</event>
<event>
 4    1  0.1521315E-007  0.7655818E+03  0.7818608E-02  0.9790865E-01
         -1   -1    0    0    0  501 -0.00000000000E+00  0.00000000000E+00  0.78845659747E+03  0.78845659748E+03  0.50400000000E-02 0.  1.
          1   -1    0    0  501    0  0.00000000000E+00 -0.00000000000E+00 -0.10360290758E+04  0.10360290758E+04  0.50400000000E-02 0. -1.
    8880023    1    1    2    0    0  0.30917695495E+03 -0.23814882744E+03 -0.81554876317E+03  0.11185862706E+04  0.65864270000E+03 0.  0.
    8880022    1    1    2    0    0 -0.30917695495E+03  0.23814882744E+03  0.56797628485E+03  0.70589940264E+03  0.15294330000E+03 0.  0.
<mgrwt>
<rscale>  0 0.65855068E+03</rscale>
<asrwt>0</asrwt>
<pdfrwt beam="1">  1        1 0.15938909E+00 0.76558178E+03</pdfrwt>
<pdfrwt beam="2">  1       -1 0.12130102E+00 0.76558178E+03</pdfrwt>
<totfact> 0.88202978E+00</totfact>
</mgrwt>
</event>
<event>
 4    1  0.1521315E-007  0.7591316E+03  0.7818608E-02  0.9807361E-01
         -1   -1    0    0    0  501 -0.00000000000E+00  0.00000000000E+00  0.28464003435E+03  0.28464003439E+03  0.50400000000E-02 0.  1.
          1   -1    0    0  501    0  0.00000000000E+00 -0.00000000000E+00 -0.12813498956E+04  0.12813498957E+04  0.50400000000E-02 0. -1.
    8880023    1    1    2    0    0  0.34503936576E+03  0.15303054277E+03 -0.83310330057E+03  0.11270944178E+04  0.65864270000E+03 0.  0.
    8880022    1    1    2    0    0 -0.34503936576E+03 -0.15303054277E+03 -0.16360656073E+03  0.43889551225E+03  0.15294330000E+03 0. -1.
<mgrwt>
<rscale>  0 0.64969003E+03</rscale>
<asrwt>0</asrwt>
<pdfrwt beam="1">  1        1 0.19713075E+00 0.75913155E+03</pdfrwt>
<pdfrwt beam="2">  1       -1 0.43790775E-01 0.75913155E+03</pdfrwt>
<totfact> 0.49282237E+01</totfact>
</mgrwt>
</event>
<event>
 4    1  0.1521315E-007  0.6848214E+03  0.7818608E-02  0.1006718E+00
          1   -1    0    0  501    0  0.00000000000E+00  0.00000000000E+00  0.77061178587E+03  0.77061178588E+03  0.50400000000E-02 0. -1.
         -1   -1    0    0    0  501 -0.00000000000E+00 -0.00000000000E+00 -0.33896527052E+03  0.33896527056E+03  0.50400000000E-02 0.  1.
    8880023    1    1    2    0    0 -0.50172608412E+02  0.18070103804E+03  0.51148698916E+03  0.85475101762E+03  0.65864270000E+03 0.  0.
    8880022    1    1    2    0    0  0.50172608412E+02 -0.18070103804E+03 -0.79840473821E+02  0.25482603882E+03  0.15294330000E+03 0.  0.
<mgrwt>
<rscale>  0 0.52800108E+03</rscale>
<asrwt>0</asrwt>
<pdfrwt beam="1">  1        1 0.11855566E+00 0.68482141E+03</pdfrwt>
<pdfrwt beam="2">  1       -1 0.52148504E-01 0.68482141E+03</pdfrwt>
<totfact> 0.89059929E+01</totfact>
</mgrwt>
</event>
<event>
 4    1  0.2379900E-007  0.1050442E+04  0.7818608E-02  0.9318351E-01
          1   -1    0    0  501    0  0.00000000000E+00  0.00000000000E+00  0.19770969978E+04  0.19770969978E+04  0.50400000000E-02 0. -1.
         -1   -1    0    0    0  501 -0.00000000000E+00 -0.00000000000E+00 -0.16401623144E+04  0.16401623144E+04  0.50400000000E-02 0.  1.
    8880023    1    1    2    0    0 -0.57347623684E+03  0.58373132023E+03  0.17127379384E+04  0.20092034990E+04  0.65864270000E+03 0.  0.
    8880022    1    1    2    0    0  0.57347623684E+03 -0.58373132023E+03 -0.13758032550E+04  0.16080558131E+04  0.15294330000E+03 0.  0.
<mgrwt>
<rscale>  0 0.99110866E+03</rscale>
<asrwt>0</asrwt>
<pdfrwt beam="1">  1        1 0.30416877E+00 0.10504416E+04</pdfrwt>
<pdfrwt beam="2">  1       -1 0.25233267E+00 0.10504416E+04</pdfrwt>
<totfact> 0.20942616E-01</totfact>
</mgrwt>
</event>
<event>
 4    1  0.1521315E-007  0.8485318E+03  0.7818608E-02  0.9614298E-01
         -1   -1    0    0    0  501 -0.00000000000E+00  0.00000000000E+00  0.21614704908E+04  0.21614704908E+04  0.50400000000E-02 0.  1.
          1   -1    0    0  501    0  0.00000000000E+00 -0.00000000000E+00 -0.91384481991E+03  0.91384481993E+03  0.50400000000E-02 0. -1.
    8880023    1    1    2    0    0  0.27505352195E+03  0.45884810923E+03 -0.66837893368E+03  0.10801558371E+04  0.65864270000E+03 0.  0.
    8880022    1    1    2    0    0 -0.27505352195E+03 -0.45884810923E+03  0.19160046046E+04  0.19951594736E+04  0.15294330000E+03 0.  0.
<mgrwt>
<rscale>  0 0.76357035E+03</rscale>
<asrwt>0</asrwt>
<pdfrwt beam="1">  1        1 0.14059151E+00 0.84853181E+03</pdfrwt>
<pdfrwt beam="2">  1       -1 0.33253392E+00 0.84853181E+03</pdfrwt>
<totfact> 0.37575127E-01</totfact>
</mgrwt>
</event>
<event>
 4    1  0.1521315E-007  0.1051848E+04  0.7818608E-02  0.9316663E-01
         -1   -1    0    0    0  501 -0.00000000000E+00  0.00000000000E+00  0.77644851384E+03  0.77644851386E+03  0.50400000000E-02 0.  1.
          1   -1    0    0  501    0  0.00000000000E+00 -0.00000000000E+00 -0.20045691189E+04  0.20045691189E+04  0.50400000000E-02 0. -1.
    8880023    1    1    2    0    0  0.63514582873E+02  0.81764282590E+03 -0.15614147432E+04  0.18826577224E+04  0.65864270000E+03 0. -1.
    8880022    1    1    2    0    0 -0.63514582873E+02 -0.81764282590E+03  0.33329413820E+03  0.89835991036E+03  0.15294330000E+03 0.  0.
<mgrwt>
<rscale>  0 0.99263181E+03</rscale>
<asrwt>0</asrwt>
<pdfrwt beam="1">  1        1 0.30839525E+00 0.10518479E+04</pdfrwt>
<pdfrwt beam="2">  1       -1 0.11945362E+00 0.10518479E+04</pdfrwt>
<totfact> 0.18589309E+00</totfact>
</mgrwt>
</event>
<event>
 4    1  0.1521315E-007  0.6725453E+03  0.7818608E-02  0.1013900E+00
          1   -1    0    0  501    0  0.00000000000E+00  0.00000000000E+00  0.38732013675E+03  0.38732013678E+03  0.50400000000E-02 0. -1.
         -1   -1    0    0    0  501 -0.00000000000E+00 -0.00000000000E+00 -0.18052313446E+04  0.18052313447E+04  0.50400000000E-02 0.  1.
    8880023    1    1    2    0    0  0.30425175636E+02 -0.13259452173E+03  0.83089176264E+02  0.67765848034E+03  0.65864270000E+03 0. -1.
    8880022    1    1    2    0    0 -0.30425175636E+02  0.13259452173E+03 -0.15010003842E+04  0.15148930011E+04  0.15294330000E+03 0.  0.
<mgrwt>
<rscale>  0 0.49953529E+03</rscale>
<asrwt>0</asrwt>
<pdfrwt beam="1">  1        1 0.59587714E-01 0.67254532E+03</pdfrwt>
<pdfrwt beam="2">  1       -1 0.27772789E+00 0.67254532E+03</pdfrwt>
<totfact> 0.30547659E+00</totfact>
</mgrwt>
</event>
<event>
 4    1  0.1521315E-007  0.6830059E+03  0.7818608E-02  0.1007672E+00
         -1   -1    0    0    0  501 -0.00000000000E+00  0.00000000000E+00  0.15120255887E+03  0.15120255895E+03  0.50400000000E-02 0.  1.
          1   -1    0    0  501    0  0.00000000000E+00 -0.00000000000E+00 -0.21949101427E+04  0.21949101427E+04  0.50400000000E-02 0. -1.
    8880023    1    1    2    0    0  0.95864093361E+02  0.15328729560E+03 -0.19890891364E+04  0.21030864742E+04  0.65864270000E+03 0. -1.
    8880022    1    1    2    0    0 -0.95864093361E+02 -0.15328729560E+03 -0.54618447427E+02  0.24302622740E+03  0.15294330000E+03 0.  0.
<mgrwt>
<rscale>  0 0.52410461E+03</rscale>
<asrwt>0</asrwt>
<pdfrwt beam="1">  1        1 0.33767846E+00 0.68300595E+03</pdfrwt>
<pdfrwt beam="2">  1       -1 0.23261934E-01 0.68300595E+03</pdfrwt>
<totfact> 0.36463245E+01</totfact>
</mgrwt>
</event>
<event>
 4    1  0.1521315E-007  0.6745722E+03  0.7818608E-02  0.1012577E+00
          1   -1    0    0  501    0  0.00000000000E+00  0.00000000000E+00  0.36844091547E+03  0.36844091550E+03  0.50400000000E-02 0. -1.
         -1   -1    0    0    0  501 -0.00000000000E+00 -0.00000000000E+00 -0.93546818422E+03  0.93546818424E+03  0.50400000000E-02 0.  1.
    8880023    1    1    2    0    0 -0.67922938121E+02 -0.12893370835E+03  0.25289890074E+02  0.67504608100E+03  0.65864270000E+03 0.  0.
    8880022    1    1    2    0    0  0.67922938121E+02  0.12893370835E+03 -0.59231715883E+03  0.62886301873E+03  0.15294330000E+03 0.  0.
<mgrwt>
<rscale>  0 0.50463058E+03</rscale>
<asrwt>0</asrwt>
<pdfrwt beam="1">  1        1 0.56683218E-01 0.67457219E+03</pdfrwt>
<pdfrwt beam="2">  1       -1 0.14391818E+00 0.67457219E+03</pdfrwt>
<totfact> 0.26912122E+01</totfact>
</mgrwt>
</event>
<event>
 4    1  0.1521315E-007  0.7138908E+03  0.7818608E-02  0.9943827E-01
          1   -1    0    0  501    0  0.00000000000E+00  0.00000000000E+00  0.13955865897E+04  0.13955865897E+04  0.50400000000E-02 0. -1.
         -1   -1    0    0    0  501 -0.00000000000E+00 -0.00000000000E+00 -0.31355999664E+03  0.31355999669E+03  0.50400000000E-02 0.  1.
    8880023    1    1    2    0    0  0.27362830346E+03 -0.30941649849E+02  0.11801064629E+04  0.13792357681E+04  0.65864270000E+03 0. -1.
    8880022    1    1    2    0    0 -0.27362830346E+03  0.30941649849E+02 -0.98079869786E+02  0.32991081828E+03  0.15294330000E+03 0.  0.
<mgrwt>
<rscale>  0 0.58183460E+03</rscale>
<asrwt>0</asrwt>
<pdfrwt beam="1">  1        1 0.21470562E+00 0.71389078E+03</pdfrwt>
<pdfrwt beam="2">  1       -1 0.48240001E-01 0.71389078E+03</pdfrwt>
<totfact> 0.34389181E+01</totfact>
</mgrwt>
</event>
<event>
 4    1  0.1521315E-007  0.7731327E+03  0.7818608E-02  0.9772223E-01
          1   -1    0    0  501    0  0.00000000000E+00  0.00000000000E+00  0.11809742204E+04  0.11809742204E+04  0.50400000000E-02 0. -1.
         -1   -1    0    0    0  501 -0.00000000000E+00 -0.00000000000E+00 -0.30843467965E+03  0.30843467969E+03  0.50400000000E-02 0.  1.
    8880023    1    1    2    0    0  0.55057787005E+02  0.40111421262E+03  0.52817309184E+03  0.93632312408E+03  0.65864270000E+03 0.  1.
    8880022    1    1    2    0    0 -0.55057787005E+02 -0.40111421262E+03  0.34436644887E+03  0.55308577599E+03  0.15294330000E+03 0. -1.
<mgrwt>
<rscale>  0 0.66874767E+03</rscale>
<asrwt>0</asrwt>
<pdfrwt beam="1">  1        1 0.18168834E+00 0.77313270E+03</pdfrwt>
<pdfrwt beam="2">  1       -1 0.47451489E-01 0.77313270E+03</pdfrwt>
<totfact> 0.50038997E+01</totfact>
</mgrwt>
</event>
<event>
 4    1  0.1521315E-007  0.7111983E+03  0.7818608E-02  0.9953578E-01
         -1   -1    0    0    0  501 -0.00000000000E+00  0.00000000000E+00  0.59332272287E+03  0.59332272289E+03  0.50400000000E-02 0.  1.
          1   -1    0    0  501    0  0.00000000000E+00 -0.00000000000E+00 -0.26091375100E+04  0.26091375100E+04  0.50400000000E-02 0. -1.
    8880023    1    1    2    0    0 -0.15091319274E+03 -0.22185128121E+03 -0.25160125000E+04  0.26145978446E+04  0.65864270000E+03 0. -1.
    8880022    1    1    2    0    0  0.15091319274E+03  0.22185128121E+03  0.50019771279E+03  0.58786238833E+03  0.15294330000E+03 0.  0.
<mgrwt>
<rscale>  0 0.57733477E+03</rscale>
<asrwt>0</asrwt>
<pdfrwt beam="1">  1        1 0.40140576E+00 0.71119828E+03</pdfrwt>
<pdfrwt beam="2">  1       -1 0.91280420E-01 0.71119828E+03</pdfrwt>
<totfact> 0.14337853E+00</totfact>
</mgrwt>
</event>
<event>
 4    1  0.1521315E-007  0.1170064E+04  0.7818608E-02  0.9186786E-01
          1   -1    0    0  501    0  0.00000000000E+00  0.00000000000E+00  0.18576806309E+04  0.18576806309E+04  0.50400000000E-02 0. -1.
         -1   -1    0    0    0  501 -0.00000000000E+00 -0.00000000000E+00 -0.11624174016E+04  0.11624174016E+04  0.50400000000E-02 0.  1.
    8880023    1    1    2    0    0 -0.86798506419E+03 -0.42642861860E+03  0.13919739183E+04  0.18184171782E+04  0.65864270000E+03 0.  0.
    8880022    1    1    2    0    0  0.86798506419E+03  0.42642861860E+03 -0.69671068906E+03  0.12016808543E+04  0.15294330000E+03 0.  0.
<mgrwt>
<rscale>  0 0.11190865E+04</rscale>
<asrwt>0</asrwt>
<pdfrwt beam="1">  1        1 0.28579702E+00 0.11700639E+04</pdfrwt>
<pdfrwt beam="2">  1       -1 0.17883345E+00 0.11700639E+04</pdfrwt>
<totfact> 0.77802245E-01</totfact>
</mgrwt>
</event>
<event>
 4    1  0.1521315E-007  0.6818240E+03  0.7818608E-02  0.1008310E+00
          1   -1    0    0  501    0  0.00000000000E+00  0.00000000000E+00  0.52737957522E+03  0.52737957525E+03  0.50400000000E-02 0. -1.
         -1   -1    0    0    0  501 -0.00000000000E+00 -0.00000000000E+00 -0.66274307409E+03  0.66274307411E+03  0.50400000000E-02 0.  1.
    8880023    1    1    2    0    0 -0.17549129917E+03  0.16631527142E+02  0.26106881372E+03  0.73009652481E+03  0.65864270000E+03 0. -1.
    8880022    1    1    2    0    0  0.17549129917E+03 -0.16631527142E+02 -0.39643231260E+03  0.46002612455E+03  0.15294330000E+03 0.  0.
<mgrwt>
<rscale>  0 0.52151808E+03</rscale>
<asrwt>0</asrwt>
<pdfrwt beam="1">  1        1 0.81135319E-01 0.68182403E+03</pdfrwt>
<pdfrwt beam="2">  1       -1 0.10196047E+00 0.68182403E+03</pdfrwt>
<totfact> 0.38614517E+01</totfact>
</mgrwt>
</event>
<event>
 4    1  0.1521315E-007  0.7780277E+03  0.7818608E-02  0.9760491E-01
         -1   -1    0    0    0  501 -0.00000000000E+00  0.00000000000E+00  0.36718759314E+03  0.36718759317E+03  0.50400000000E-02 0.  1.
          1   -1    0    0  501    0  0.00000000000E+00 -0.00000000000E+00 -0.20976063757E+04  0.20976063757E+04  0.50400000000E-02 0. -1.
    8880023    1    1    2    0    0 -0.37870291496E+03  0.16763332029E+03 -0.18503856681E+04  0.20073002154E+04  0.65864270000E+03 0.  0.
    8880022    1    1    2    0    0  0.37870291496E+03 -0.16763332029E+03  0.11996688548E+03  0.45749375351E+03  0.15294330000E+03 0.  0.
<mgrwt>
<rscale>  0 0.67526637E+03</rscale>
<asrwt>0</asrwt>
<pdfrwt beam="1">  1        1 0.32270866E+00 0.77802766E+03</pdfrwt>
<pdfrwt beam="2">  1       -1 0.56490400E-01 0.77802766E+03</pdfrwt>
<totfact> 0.84677313E+00</totfact>
</mgrwt>
</event>
<event>
 4    1  0.1521315E-007  0.9046339E+03  0.7818608E-02  0.9518633E-01
         -1   -1    0    0    0  501 -0.00000000000E+00  0.00000000000E+00  0.46299795747E+03  0.46299795750E+03  0.50400000000E-02 0.  1.
          1   -1    0    0  501    0  0.00000000000E+00 -0.00000000000E+00 -0.14200332895E+04  0.14200332895E+04  0.50400000000E-02 0. -1.
    8880023    1    1    2    0    0 -0.59787530412E+03 -0.16461298784E+03 -0.83840254793E+03  0.12334023487E+04  0.65864270000E+03 0.  0.
    8880022    1    1    2    0    0  0.59787530412E+03  0.16461298784E+03 -0.11863278407E+03  0.64962889831E+03  0.15294330000E+03 0.  0.
<mgrwt>
<rscale>  0 0.82923899E+03</rscale>
<asrwt>0</asrwt>
<pdfrwt beam="1">  1        1 0.21846666E+00 0.90463392E+03</pdfrwt>
<pdfrwt beam="2">  1       -1 0.71230456E-01 0.90463392E+03</pdfrwt>
<totfact> 0.15034013E+01</totfact>
</mgrwt>
</event>
<event>
 4    1  0.1521315E-007  0.6776753E+03  0.7818608E-02  0.1010670E+00
         -1   -1    0    0    0  501 -0.00000000000E+00  0.00000000000E+00  0.54347881986E+03  0.54347881989E+03  0.50400000000E-02 0.  1.
          1   -1    0    0  501    0  0.00000000000E+00 -0.00000000000E+00 -0.62637281519E+03  0.62637281521E+03  0.50400000000E-02 0. -1.
    8880023    1    1    2    0    0 -0.13837211268E+03  0.79289169585E+02 -0.39731003881E+03  0.78555654614E+03  0.65864270000E+03 0. -1.
    8880022    1    1    2    0    0  0.13837211268E+03 -0.79289169585E+02  0.31441604349E+03  0.38429508896E+03  0.15294330000E+03 0.  0.
<mgrwt>
<rscale>  0 0.51209062E+03</rscale>
<asrwt>0</asrwt>
<pdfrwt beam="1">  1        1 0.96365049E-01 0.67767531E+03</pdfrwt>
<pdfrwt beam="2">  1       -1 0.83612126E-01 0.67767531E+03</pdfrwt>
<totfact> 0.46975463E+01</totfact>
</mgrwt>
</event>
<event>
 4    1  0.1521315E-007  0.8033078E+03  0.7818608E-02  0.9703689E-01
          1   -1    0    0  501    0  0.00000000000E+00  0.00000000000E+00  0.15235931485E+04  0.15235931486E+04  0.50400000000E-02 0. -1.
         -1   -1    0    0    0  501 -0.00000000000E+00 -0.00000000000E+00 -0.37803331983E+03  0.37803331986E+03  0.50400000000E-02 0.  1.
    8880023    1    1    2    0    0 -0.38610115432E+03  0.24983832745E+03  0.11667106280E+04  0.14165158619E+04  0.65864270000E+03 0.  0.
    8880022    1    1    2    0    0  0.38610115432E+03 -0.24983832745E+03 -0.21150799289E+02  0.48511060652E+03  0.15294330000E+03 0.  0.
<mgrwt>
<rscale>  0 0.70797579E+03</rscale>
<asrwt>0</asrwt>
<pdfrwt beam="1">  1        1 0.23439894E+00 0.80330785E+03</pdfrwt>
<pdfrwt beam="2">  1       -1 0.58158973E-01 0.80330785E+03</pdfrwt>
<totfact> 0.19398900E+01</totfact>
</mgrwt>
</event>
<event>
 4    1  0.1521315E-007  0.9263286E+03  0.7818608E-02  0.9485023E-01
         -1   -1    0    0    0  501 -0.00000000000E+00  0.00000000000E+00  0.43619611040E+03  0.43619611043E+03  0.50400000000E-02 0.  1.
          1   -1    0    0  501    0  0.00000000000E+00 -0.00000000000E+00 -0.20866552156E+04  0.20866552156E+04  0.50400000000E-02 0. -1.
    8880023    1    1    2    0    0  0.41529147729E+03  0.50180425587E+03 -0.16038651589E+04  0.18521523092E+04  0.65864270000E+03 0. -1.
    8880022    1    1    2    0    0 -0.41529147729E+03 -0.50180425587E+03 -0.46593946292E+02  0.67069901682E+03  0.15294330000E+03 0.  0.
<mgrwt>
<rscale>  0 0.85397096E+03</rscale>
<asrwt>0</asrwt>
<pdfrwt beam="1">  1        1 0.32102387E+00 0.92632863E+03</pdfrwt>
<pdfrwt beam="2">  1       -1 0.67107095E-01 0.92632863E+03</pdfrwt>
<totfact> 0.59844990E+00</totfact>
</mgrwt>
</event>
<event>
 4    1  0.1521315E-007  0.8063765E+03  0.7818608E-02  0.9697175E-01
         -1   -1    0    0    0  501 -0.00000000000E+00  0.00000000000E+00  0.32314872394E+03  0.32314872398E+03  0.50400000000E-02 0.  1.
          1   -1    0    0  501    0  0.00000000000E+00 -0.00000000000E+00 -0.17216106231E+04  0.17216106231E+04  0.50400000000E-02 0. -1.
    8880023    1    1    2    0    0 -0.44856499741E+03  0.12337842163E+03 -0.13228328053E+04  0.15492351755E+04  0.65864270000E+03 0. -1.
    8880022    1    1    2    0    0  0.44856499741E+03 -0.12337842163E+03 -0.75629093868E+02  0.49552417164E+03  0.15294330000E+03 0.  0.
<mgrwt>
<rscale>  0 0.71185258E+03</rscale>
<asrwt>0</asrwt>
<pdfrwt beam="1">  1        1 0.26486317E+00 0.80637646E+03</pdfrwt>
<pdfrwt beam="2">  1       -1 0.49715189E-01 0.80637646E+03</pdfrwt>
<totfact> 0.19252606E+01</totfact>
</mgrwt>
</event>
<event>
 4    1  0.1521315E-007  0.8853178E+03  0.7818608E-02  0.9550025E-01
         -1   -1    0    0    0  501 -0.00000000000E+00  0.00000000000E+00  0.91792044017E+03  0.91792044019E+03  0.50400000000E-02 0.  1.
          1   -1    0    0  501    0  0.00000000000E+00 -0.00000000000E+00 -0.13158963497E+04  0.13158963497E+04  0.50400000000E-02 0. -1.
    8880023    1    1    2    0    0  0.52728868961E+03 -0.26822389028E+03 -0.10276428613E+04  0.13564060875E+04  0.65864270000E+03 0. -1.
    8880022    1    1    2    0    0 -0.52728868961E+03  0.26822389028E+03  0.62966695179E+03  0.87741070241E+03  0.15294330000E+03 0.  0.
<mgrwt>
<rscale>  0 0.80694083E+03</rscale>
<asrwt>0</asrwt>
<pdfrwt beam="1">  1        1 0.20244559E+00 0.88531781E+03</pdfrwt>
<pdfrwt beam="2">  1       -1 0.14121853E+00 0.88531781E+03</pdfrwt>
<totfact> 0.36809534E+00</totfact>
</mgrwt>
</event>
<event>
 4    1  0.1521315E-007  0.1040810E+04  0.7818608E-02  0.9330012E-01
         -1   -1    0    0    0  501 -0.00000000000E+00  0.00000000000E+00  0.45473335822E+03  0.45473335825E+03  0.50400000000E-02 0.  1.
          1   -1    0    0  501    0  0.00000000000E+00 -0.00000000000E+00 -0.22007754323E+04  0.22007754323E+04  0.50400000000E-02 0. -1.
    8880023    1    1    2    0    0 -0.77354849370E+03  0.22604741356E+03 -0.14469460952E+04  0.17823966770E+04  0.65864270000E+03 0. -1.
    8880022    1    1    2    0    0  0.77354849370E+03 -0.22604741356E+03 -0.29909597881E+03  0.87311211356E+03  0.15294330000E+03 0.  0.
<mgrwt>
<rscale>  0 0.98066260E+03</rscale>
<asrwt>0</asrwt>
<pdfrwt beam="1">  1        1 0.33858083E+00 0.10408097E+04</pdfrwt>
<pdfrwt beam="2">  1       -1 0.69958979E-01 0.10408097E+04</pdfrwt>
<totfact> 0.45344071E+00</totfact>
</mgrwt>
</event>
<event>
 4    1  0.1521315E-007  0.7747077E+03  0.7818608E-02  0.9768419E-01
         -1   -1    0    0    0  501 -0.00000000000E+00  0.00000000000E+00  0.11434011733E+04  0.11434011733E+04  0.50400000000E-02 0.  1.
          1   -1    0    0  501    0  0.00000000000E+00 -0.00000000000E+00 -0.45183928960E+03  0.45183928963E+03  0.50400000000E-02 0. -1.
    8880023    1    1    2    0    0  0.12563380553E+01 -0.40787290175E+03 -0.37835310225E+01  0.77471698299E+03  0.65864270000E+03 0.  0.
    8880022    1    1    2    0    0 -0.12563380553E+01  0.40787290175E+03  0.69534541474E+03  0.82052347997E+03  0.15294330000E+03 0.  0.
<mgrwt>
<rscale>  0 0.67085268E+03</rscale>
<asrwt>0</asrwt>
<pdfrwt beam="1">  1        1 0.69513739E-01 0.77470774E+03</pdfrwt>
<pdfrwt beam="2">  1       -1 0.17590787E+00 0.77470774E+03</pdfrwt>
<totfact> 0.11646484E+01</totfact>
</mgrwt>
</event>
<event>
 4    1  0.1521315E-007  0.6856798E+03  0.7818608E-02  0.1006277E+00
         -1   -1    0    0    0  501 -0.00000000000E+00  0.00000000000E+00  0.41232098508E+03  0.41232098511E+03  0.50400000000E-02 0.  1.
          1   -1    0    0  501    0  0.00000000000E+00 -0.00000000000E+00 -0.16586480127E+04  0.16586480127E+04  0.50400000000E-02 0. -1.
    8880023    1    1    2    0    0  0.49629437571E+02 -0.18407480369E+03 -0.15418665468E+04  0.16874564494E+04  0.65864270000E+03 0. -1.
    8880022    1    1    2    0    0 -0.49629437571E+02  0.18407480369E+03  0.29553951911E+03  0.38351254842E+03  0.15294330000E+03 0.  0.
<mgrwt>
<rscale>  0 0.52981299E+03</rscale>
<asrwt>0</asrwt>
<pdfrwt beam="1">  1        1 0.25517661E+00 0.68567982E+03</pdfrwt>
<pdfrwt beam="2">  1       -1 0.63433998E-01 0.68567982E+03</pdfrwt>
<totfact> 0.13452744E+01</totfact>
</mgrwt>
</event>
<event>
 4    1  0.1521315E-007  0.7609102E+03  0.7818608E-02  0.9802757E-01
         -1   -1    0    0    0  501 -0.00000000000E+00  0.00000000000E+00  0.25140831661E+03  0.25140831666E+03  0.50400000000E-02 0.  1.
          1   -1    0    0  501    0  0.00000000000E+00 -0.00000000000E+00 -0.14785041697E+04  0.14785041697E+04  0.50400000000E-02 0. -1.
    8880023    1    1    2    0    0  0.20227957040E+03  0.32288864956E+03 -0.10127909189E+04  0.12667792847E+04  0.65864270000E+03 0.  0.
    8880022    1    1    2    0    0 -0.20227957040E+03 -0.32288864956E+03 -0.21430493422E+03  0.46313320164E+03  0.15294330000E+03 0.  0.
<mgrwt>
<rscale>  0 0.65214808E+03</rscale>
<asrwt>0</asrwt>
<pdfrwt beam="1">  1        1 0.22746218E+00 0.76091019E+03</pdfrwt>
<pdfrwt beam="2">  1       -1 0.38678203E-01 0.76091019E+03</pdfrwt>
<totfact> 0.45051418E+01</totfact>
</mgrwt>
</event>
<event>
 4    1  0.1521315E-007  0.7094085E+03  0.7818608E-02  0.9960204E-01
         -1   -1    0    0    0  501 -0.00000000000E+00  0.00000000000E+00  0.52010016927E+03  0.52010016929E+03  0.50400000000E-02 0.  1.
          1   -1    0    0  501    0  0.00000000000E+00 -0.00000000000E+00 -0.27257871136E+04  0.27257871136E+04  0.50400000000E-02 0. -1.
    8880023    1    1    2    0    0 -0.16926117560E+03 -0.20199236167E+03 -0.26297230235E+04  0.27237297308E+04  0.65864270000E+03 0. -1.
    8880022    1    1    2    0    0  0.16926117560E+03  0.20199236167E+03  0.42403607919E+03  0.52215755209E+03  0.15294330000E+03 0.  0.
<mgrwt>
<rscale>  0 0.57430198E+03</rscale>
<asrwt>0</asrwt>
<pdfrwt beam="1">  1        1 0.41935186E+00 0.70940853E+03</pdfrwt>
<pdfrwt beam="2">  1       -1 0.80015412E-01 0.70940853E+03</pdfrwt>
<totfact> 0.15840172E+00</totfact>
</mgrwt>
</event>
<event>
 4    1  0.1521315E-007  0.1264014E+04  0.7818608E-02  0.9097276E-01
          1   -1    0    0  501    0  0.00000000000E+00  0.00000000000E+00  0.28019799887E+04  0.28019799887E+04  0.50400000000E-02 0. -1.
         -1   -1    0    0    0  501 -0.00000000000E+00 -0.00000000000E+00 -0.55511091367E+03  0.55511091369E+03  0.50400000000E-02 0.  1.
    8880023    1    1    2    0    0 -0.10782868822E+04 -0.34923299546E+02  0.64318069544E+03  0.14182432268E+04  0.65864270000E+03 0.  1.
    8880022    1    1    2    0    0  0.10782868822E+04  0.34923299546E+02  0.16036883796E+04  0.19388476756E+04  0.15294330000E+03 0.  0.
<mgrwt>
<rscale>  0 0.12179647E+04</rscale>
<asrwt>0</asrwt>
<pdfrwt beam="1">  1        1 0.43107385E+00 0.12640144E+04</pdfrwt>
<pdfrwt beam="2">  1       -1 0.85401678E-01 0.12640144E+04</pdfrwt>
<totfact> 0.11106219E+00</totfact>
</mgrwt>
</event>
<event>
 4    1  0.1521315E-007  0.9397604E+03  0.7818608E-02  0.9465002E-01
          1   -1    0    0  501    0  0.00000000000E+00  0.00000000000E+00  0.78815712399E+03  0.78815712401E+03  0.50400000000E-02 0. -1.
         -1   -1    0    0    0  501 -0.00000000000E+00 -0.00000000000E+00 -0.92755839808E+03  0.92755839809E+03  0.50400000000E-02 0.  1.
    8880023    1    1    2    0    0  0.51396882985E+03  0.43032008447E+03  0.18122893799E+03  0.95707547632E+03  0.65864270000E+03 0.  0.
    8880022    1    1    2    0    0 -0.51396882985E+03 -0.43032008447E+03 -0.32063021207E+03  0.75864004578E+03  0.15294330000E+03 0.  0.
<mgrwt>
<rscale>  0 0.86913973E+03</rscale>
<asrwt>0</asrwt>
<pdfrwt beam="1">  1        1 0.12125494E+00 0.93976036E+03</pdfrwt>
<pdfrwt beam="2">  1       -1 0.14270129E+00 0.93976036E+03</pdfrwt>
<totfact> 0.91030745E+00</totfact>
</mgrwt>
</event>
<event>
 4    1  0.1521315E-007  0.7618587E+03  0.7818608E-02  0.9800319E-01
         -1   -1    0    0    0  501 -0.00000000000E+00  0.00000000000E+00  0.77070266986E+03  0.77070266988E+03  0.50400000000E-02 0.  1.
          1   -1    0    0  501    0  0.00000000000E+00 -0.00000000000E+00 -0.68188089471E+03  0.68188089473E+03  0.50400000000E-02 0. -1.
    8880023    1    1    2    0    0 -0.43589089928E+01 -0.38288302558E+03 -0.36041560277E+03  0.84280960148E+03  0.65864270000E+03 0. -1.
    8880022    1    1    2    0    0  0.43589089928E+01  0.38288302558E+03  0.44923737792E+03  0.60977396312E+03  0.15294330000E+03 0.  1.
<mgrwt>
<rscale>  0 0.65345417E+03</rscale>
<asrwt>0</asrwt>
<pdfrwt beam="1">  1        1 0.10490475E+00 0.76185866E+03</pdfrwt>
<pdfrwt beam="2">  1       -1 0.11856964E+00 0.76185866E+03</pdfrwt>
<totfact> 0.18539913E+01</totfact>
</mgrwt>
</event>
<event>
 4    1  0.1521315E-007  0.9063052E+03  0.7818608E-02  0.9515985E-01
         -1   -1    0    0    0  501 -0.00000000000E+00  0.00000000000E+00  0.10529145532E+04  0.10529145532E+04  0.50400000000E-02 0.  1.
          1   -1    0    0  501    0  0.00000000000E+00 -0.00000000000E+00 -0.74697556746E+03  0.74697556748E+03  0.50400000000E-02 0. -1.
    8880023    1    1    2    0    0 -0.54439813007E+03 -0.30200914898E+03 -0.26201449084E+03  0.94341965729E+03  0.65864270000E+03 0.  0.
    8880022    1    1    2    0    0  0.54439813007E+03  0.30200914898E+03  0.56795347654E+03  0.85647046337E+03  0.15294330000E+03 0.  0.
<mgrwt>
<rscale>  0 0.83115529E+03</rscale>
<asrwt>0</asrwt>
<pdfrwt beam="1">  1        1 0.11491932E+00 0.90630517E+03</pdfrwt>
<pdfrwt beam="2">  1       -1 0.16198685E+00 0.90630517E+03</pdfrwt>
<totfact> 0.70476043E+00</totfact>
</mgrwt>
</event>
<event>
 4    1  0.1521315E-007  0.7159358E+03  0.7818608E-02  0.9936586E-01
         -1   -1    0    0    0  501 -0.00000000000E+00  0.00000000000E+00  0.81486384633E+02  0.81486384789E+02  0.50400000000E-02 0.  1.
          1   -1    0    0  501    0  0.00000000000E+00 -0.00000000000E+00 -0.32938982108E+04  0.32938982108E+04  0.50400000000E-02 0. -1.
    8880023    1    1    2    0    0  0.27860372616E+03 -0.33671932499E+02 -0.21661024835E+04  0.22813513562E+04  0.65864270000E+03 0.  1.
    8880022    1    1    2    0    0 -0.27860372616E+03  0.33671932499E+02 -0.10463093427E+04  0.10940332394E+04  0.15294330000E+03 0.  1.
<mgrwt>
<rscale>  0 0.58520489E+03</rscale>
<asrwt>0</asrwt>
<pdfrwt beam="1">  1        1 0.50675347E+00 0.71593578E+03</pdfrwt>
<pdfrwt beam="2">  1       -1 0.12536369E-01 0.71593578E+03</pdfrwt>
<totfact> 0.17044373E+01</totfact>
</mgrwt>
</event>
<event>
 4    1  0.1521315E-007  0.7063074E+03  0.7818608E-02  0.9971978E-01
         -1   -1    0    0    0  501 -0.00000000000E+00  0.00000000000E+00  0.38367708200E+03  0.38367708203E+03  0.50400000000E-02 0.  1.
          1   -1    0    0  501    0  0.00000000000E+00 -0.00000000000E+00 -0.10567671472E+04  0.10567671472E+04  0.50400000000E-02 0. -1.
    8880023    1    1    2    0    0  0.23999331885E+03  0.86389264538E+02 -0.84152570377E+03  0.10986517257E+04  0.65864270000E+03 0. -1.
    8880022    1    1    2    0    0 -0.23999331885E+03 -0.86389264538E+02  0.16843563854E+03  0.34179250352E+03  0.15294330000E+03 0.  0.
<mgrwt>
<rscale>  0 0.56896229E+03</rscale>
<asrwt>0</asrwt>
<pdfrwt beam="1">  1        1 0.16257956E+00 0.70630737E+03</pdfrwt>
<pdfrwt beam="2">  1       -1 0.59027244E-01 0.70630737E+03</pdfrwt>
<totfact> 0.40998426E+01</totfact>
</mgrwt>
</event>
<event>
 4    1  0.1521315E-007  0.6717426E+03  0.7818608E-02  0.1014443E+00
         -1   -1    0    0    0  501 -0.00000000000E+00  0.00000000000E+00  0.85824506073E+03  0.85824506074E+03  0.50400000000E-02 0.  1.
          1   -1    0    0  501    0  0.00000000000E+00 -0.00000000000E+00 -0.13356737921E+04  0.13356737921E+04  0.50400000000E-02 0. -1.
    8880023    1    1    2    0    0 -0.44246259717E+02 -0.12437932745E+03 -0.12371690559E+04  0.14077732160E+04  0.65864270000E+03 0. -1.
    8880022    1    1    2    0    0  0.44246259717E+02  0.12437932745E+03  0.75974032453E+03  0.78614563684E+03  0.15294330000E+03 0.  0.
<mgrwt>
<rscale>  0 0.49746299E+03</rscale>
<asrwt>0</asrwt>
<pdfrwt beam="1">  1        1 0.20548827E+00 0.67174263E+03</pdfrwt>
<pdfrwt beam="2">  1       -1 0.13203770E+00 0.67174263E+03</pdfrwt>
<totfact> 0.43880629E+00</totfact>
</mgrwt>
</event>
<event>
 4    1  0.1521315E-007  0.7982004E+03  0.7818608E-02  0.9714701E-01
         -1   -1    0    0    0  501 -0.00000000000E+00  0.00000000000E+00  0.51179619463E+03  0.51179619466E+03  0.50400000000E-02 0.  1.
          1   -1    0    0  501    0  0.00000000000E+00 -0.00000000000E+00 -0.13289467896E+04  0.13289467896E+04  0.50400000000E-02 0. -1.
    8880023    1    1    2    0    0 -0.38706231628E+03  0.23129303831E+03 -0.10433071394E+04  0.13136261643E+04  0.65864270000E+03 0. -1.
    8880022    1    1    2    0    0  0.38706231628E+03 -0.23129303831E+03  0.22615654442E+03  0.52711681993E+03  0.15294330000E+03 0.  1.
<mgrwt>
<rscale>  0 0.70148225E+03</rscale>
<asrwt>0</asrwt>
<pdfrwt beam="1">  1        1 0.20445335E+00 0.79820042E+03</pdfrwt>
<pdfrwt beam="2">  1       -1 0.78737877E-01 0.79820042E+03</pdfrwt>
<totfact> 0.14304618E+01</totfact>
</mgrwt>
</event>
<event>
 4    1  0.1521315E-007  0.9523594E+03  0.7818608E-02  0.9446727E-01
         -1   -1    0    0    0  501 -0.00000000000E+00  0.00000000000E+00  0.74188904806E+03  0.74188904807E+03  0.50400000000E-02 0.  1.
          1   -1    0    0  501    0  0.00000000000E+00 -0.00000000000E+00 -0.14128274035E+04  0.14128274035E+04  0.50400000000E-02 0. -1.
    8880023    1    1    2    0    0 -0.16667923819E+01 -0.68787753591E+03 -0.99655577735E+03  0.13784454673E+04  0.65864270000E+03 0.  0.
    8880022    1    1    2    0    0  0.16667923819E+01  0.68787753591E+03  0.32561742191E+03  0.77627098430E+03  0.15294330000E+03 0.  0.
<mgrwt>
<rscale>  0 0.88327964E+03</rscale>
<asrwt>0</asrwt>
<pdfrwt beam="1">  1        1 0.21735806E+00 0.95235943E+03</pdfrwt>
<pdfrwt beam="2">  1       -1 0.11413678E+00 0.95235943E+03</pdfrwt>
<totfact> 0.53156956E+00</totfact>
</mgrwt>
</event>
<event>
 4    1  0.1521315E-007  0.7630074E+03  0.7818608E-02  0.9797383E-01
         -1   -1    0    0    0  501 -0.00000000000E+00  0.00000000000E+00  0.29969135399E+03  0.29969135404E+03  0.50400000000E-02 0.  1.
          1   -1    0    0  501    0  0.00000000000E+00 -0.00000000000E+00 -0.15513040518E+04  0.15513040518E+04  0.50400000000E-02 0. -1.
    8880023    1    1    2    0    0 -0.37732973370E+03  0.77410768421E+02 -0.31254264975E+03  0.82453821572E+03  0.65864270000E+03 0.  1.
    8880022    1    1    2    0    0  0.37732973370E+03 -0.77410768421E+02 -0.93907004804E+03  0.10264571901E+04  0.15294330000E+03 0.  0.
<mgrwt>
<rscale>  0 0.65503183E+03</rscale>
<asrwt>0</asrwt>
<pdfrwt beam="1">  1        1 0.23866216E+00 0.76300745E+03</pdfrwt>
<pdfrwt beam="2">  1       -1 0.46106363E-01 0.76300745E+03</pdfrwt>
<totfact> 0.29083437E+01</totfact>
</mgrwt>
</event>
<event>
 4    1  0.1521315E-007  0.6809132E+03  0.7818608E-02  0.1008812E+00
          1   -1    0    0  501    0  0.00000000000E+00  0.00000000000E+00  0.17168216796E+04  0.17168216796E+04  0.50400000000E-02 0. -1.
         -1   -1    0    0    0  501 -0.00000000000E+00 -0.00000000000E+00 -0.23679148288E+03  0.23679148293E+03  0.50400000000E-02 0.  1.
    8880023    1    1    2    0    0  0.17040123957E+03  0.28214010629E+02  0.15658280210E+04  0.17074718769E+04  0.65864270000E+03 0. -1.
    8880022    1    1    2    0    0 -0.17040123957E+03 -0.28214010629E+02 -0.85797824247E+02  0.24614128566E+03  0.15294330000E+03 0.  0.
<mgrwt>
<rscale>  0 0.51949639E+03</rscale>
<asrwt>0</asrwt>
<pdfrwt beam="1">  1        1 0.26412640E+00 0.68091322E+03</pdfrwt>
<pdfrwt beam="2">  1       -1 0.36429460E-01 0.68091322E+03</pdfrwt>
<totfact> 0.34930652E+01</totfact>
</mgrwt>
</event>
<event>
 4    1  0.1521315E-007  0.6637171E+03  0.7818608E-02  0.1020635E+00
         -1   -1    0    0    0  501 -0.00000000000E+00  0.00000000000E+00  0.13256122339E+03  0.13256122349E+03  0.50400000000E-02 0.  1.
          1   -1    0    0  501    0  0.00000000000E+00 -0.00000000000E+00 -0.13648105777E+04  0.13648105777E+04  0.50400000000E-02 0. -1.
    8880023    1    1    2    0    0 -0.75841260572E+02  0.30956743638E+02 -0.10740392662E+04  0.12625691143E+04  0.65864270000E+03 0.  0.
    8880022    1    1    2    0    0  0.75841260572E+02 -0.30956743638E+02 -0.15821008811E+03  0.23480268690E+03  0.15294330000E+03 0. -1.
<mgrwt>
<rscale>  0 0.47458221E+03</rscale>
<asrwt>0</asrwt>
<pdfrwt beam="1">  1        1 0.20997085E+00 0.66371713E+03</pdfrwt>
<pdfrwt beam="2">  1       -1 0.20394035E-01 0.66371713E+03</pdfrwt>
<totfact> 0.16500859E+02</totfact>
</mgrwt>
</event>
<event>
 4    1  0.1521315E-007  0.7191270E+03  0.7818608E-02  0.9925551E-01
          1   -1    0    0  501    0  0.00000000000E+00  0.00000000000E+00  0.13191187803E+04  0.13191187803E+04  0.50400000000E-02 0. -1.
         -1   -1    0    0    0  501 -0.00000000000E+00 -0.00000000000E+00 -0.28149964083E+03  0.28149964088E+03  0.50400000000E-02 0.  1.
    8880023    1    1    2    0    0 -0.25674198541E+03  0.13197349447E+03  0.10512065991E+04  0.12736478990E+04  0.65864270000E+03 0. -1.
    8880022    1    1    2    0    0  0.25674198541E+03 -0.13197349447E+03 -0.13587459638E+02  0.32697052220E+03  0.15294330000E+03 0.  0.
<mgrwt>
<rscale>  0 0.59038800E+03</rscale>
<asrwt>0</asrwt>
<pdfrwt beam="1">  1        1 0.20294135E+00 0.71912701E+03</pdfrwt>
<pdfrwt beam="2">  1       -1 0.43307637E-01 0.71912701E+03</pdfrwt>
<totfact> 0.47505099E+01</totfact>
</mgrwt>
</event>
<event>
 4    1  0.1521315E-007  0.9182358E+03  0.7818608E-02  0.9497369E-01
          1   -1    0    0  501    0  0.00000000000E+00  0.00000000000E+00  0.66402520341E+03  0.66402520343E+03  0.50400000000E-02 0. -1.
         -1   -1    0    0    0  501 -0.00000000000E+00 -0.00000000000E+00 -0.12615970555E+04  0.12615970555E+04  0.50400000000E-02 0.  1.
    8880023    1    1    2    0    0  0.55763255119E+03  0.31367626611E+03  0.14936705173E+03  0.93030510290E+03  0.65864270000E+03 0.  0.
    8880022    1    1    2    0    0 -0.55763255119E+03 -0.31367626611E+03 -0.74693890385E+03  0.99531715607E+03  0.15294330000E+03 0.  0.
<mgrwt>
<rscale>  0 0.84478049E+03</rscale>
<asrwt>0</asrwt>
<pdfrwt beam="1">  1        1 0.10215772E+00 0.91823585E+03</pdfrwt>
<pdfrwt beam="2">  1       -1 0.19409185E+00 0.91823585E+03</pdfrwt>
<totfact> 0.49446030E+00</totfact>
</mgrwt>
</event>
<event>
 4    1  0.1521315E-007  0.6730139E+03  0.7818608E-02  0.1013588E+00
          1   -1    0    0  501    0  0.00000000000E+00  0.00000000000E+00  0.41162558678E+03  0.41162558681E+03  0.50400000000E-02 0. -1.
         -1   -1    0    0    0  501 -0.00000000000E+00 -0.00000000000E+00 -0.74805650700E+03  0.74805650702E+03  0.50400000000E-02 0.  1.
    8880023    1    1    2    0    0 -0.23345626302E+02  0.13635413997E+03  0.96734859813E+02  0.67993037079E+03  0.65864270000E+03 0. -1.
    8880022    1    1    2    0    0  0.23345626302E+02 -0.13635413997E+03 -0.43316578003E+03  0.47975172304E+03  0.15294330000E+03 0.  0.
<mgrwt>
<rscale>  0 0.50073024E+03</rscale>
<asrwt>0</asrwt>
<pdfrwt beam="1">  1        1 0.63327013E-01 0.67301388E+03</pdfrwt>
<pdfrwt beam="2">  1       -1 0.11508562E+00 0.67301388E+03</pdfrwt>
<totfact> 0.40715900E+01</totfact>
</mgrwt>
</event>
<event>
 4    1  0.1521315E-007  0.6661503E+03  0.7818608E-02  0.1018587E+00
          1   -1    0    0  501    0  0.00000000000E+00  0.00000000000E+00  0.25688508916E+03  0.25688508921E+03  0.50400000000E-02 0. -1.
         -1   -1    0    0    0  501 -0.00000000000E+00 -0.00000000000E+00 -0.14734392707E+04  0.14734392707E+04  0.50400000000E-02 0.  1.
    8880023    1    1    2    0    0 -0.94937967392E+02 -0.30542168548E+02 -0.19717001067E+03  0.69471739656E+03  0.65864270000E+03 0. -1.
    8880022    1    1    2    0    0  0.94937967392E+02  0.30542168548E+02 -0.10193841709E+04  0.10356069634E+04  0.15294330000E+03 0.  0.
<mgrwt>
<rscale>  0 0.48199899E+03</rscale>
<asrwt>0</asrwt>
<pdfrwt beam="1">  1        1 0.39520784E-01 0.66615032E+03</pdfrwt>
<pdfrwt beam="2">  1       -1 0.22668296E+00 0.66615032E+03</pdfrwt>
<totfact> 0.11116172E+01</totfact>
</mgrwt>
</event>
<event>
 4    1  0.1521315E-007  0.7294556E+03  0.7818608E-02  0.9891801E-01
         -1   -1    0    0    0  501 -0.00000000000E+00  0.00000000000E+00  0.32199799490E+03  0.32199799494E+03  0.50400000000E-02 0.  1.
          1   -1    0    0  501    0  0.00000000000E+00 -0.00000000000E+00 -0.10765371494E+04  0.10765371494E+04  0.50400000000E-02 0. -1.
    8880023    1    1    2    0    0  0.29707174103E+03 -0.10021816564E+03 -0.22305382050E+03  0.76279650834E+03  0.65864270000E+03 0.  1.
    8880022    1    1    2    0    0 -0.29707174103E+03  0.10021816564E+03 -0.53148533397E+03  0.63573863598E+03  0.15294330000E+03 0.  0.
<mgrwt>
<rscale>  0 0.60660315E+03</rscale>
<asrwt>0</asrwt>
<pdfrwt beam="1">  1        1 0.16562110E+00 0.72945562E+03</pdfrwt>
<pdfrwt beam="2">  1       -1 0.49538154E-01 0.72945562E+03</pdfrwt>
<totfact> 0.55364623E+01</totfact>
</mgrwt>
</event>
<event>
 4    1  0.1521315E-007  0.8846030E+03  0.7818608E-02  0.9551215E-01
         -1   -1    0    0    0  501 -0.00000000000E+00  0.00000000000E+00  0.51550174448E+03  0.51550174450E+03  0.50400000000E-02 0.  1.
          1   -1    0    0  501    0  0.00000000000E+00 -0.00000000000E+00 -0.12221701607E+04  0.12221701607E+04  0.50400000000E-02 0. -1.
    8880023    1    1    2    0    0 -0.31511341594E+03  0.49941547968E+03 -0.69929511296E+03  0.11276241162E+04  0.65864270000E+03 0. -1.
    8880022    1    1    2    0    0  0.31511341594E+03 -0.49941547968E+03 -0.73733032903E+01  0.61004778900E+03  0.15294330000E+03 0.  0.
<mgrwt>
<rscale>  0 0.80611007E+03</rscale>
<asrwt>0</asrwt>
<pdfrwt beam="1">  1        1 0.18802618E+00 0.88460301E+03</pdfrwt>
<pdfrwt beam="2">  1       -1 0.79307961E-01 0.88460301E+03</pdfrwt>
<totfact> 0.16617022E+01</totfact>
</mgrwt>
</event>
<event>
 4    1  0.1521315E-007  0.7742902E+03  0.7818608E-02  0.9769424E-01
          1   -1    0    0  501    0  0.00000000000E+00  0.00000000000E+00  0.51112503810E+03  0.51112503813E+03  0.50400000000E-02 0. -1.
         -1   -1    0    0    0  501 -0.00000000000E+00 -0.00000000000E+00 -0.16331433984E+04  0.16331433984E+04  0.50400000000E-02 0.  1.
    8880023    1    1    2    0    0 -0.36021904720E+03 -0.18962409341E+03  0.15987426810E+03  0.79062320143E+03  0.65864270000E+03 0. -1.
    8880022    1    1    2    0    0  0.36021904720E+03  0.18962409341E+03 -0.12818926284E+04  0.13536452351E+04  0.15294330000E+03 0.  0.
<mgrwt>
<rscale>  0 0.67029530E+03</rscale>
<asrwt>0</asrwt>
<pdfrwt beam="1">  1        1 0.78634622E-01 0.77429017E+03</pdfrwt>
<pdfrwt beam="2">  1       -1 0.25125283E+00 0.77429017E+03</pdfrwt>
<totfact> 0.30566462E+00</totfact>
</mgrwt>
</event>
<event>
 4    1  0.1521315E-007  0.1582438E+04  0.7818608E-02  0.8853515E-01
         -1   -1    0    0    0  501 -0.00000000000E+00  0.00000000000E+00  0.10538585541E+04  0.10538585542E+04  0.50400000000E-02 0.  1.
          1   -1    0    0  501    0  0.00000000000E+00 -0.00000000000E+00 -0.35353458685E+04  0.35353458685E+04  0.50400000000E-02 0. -1.
    8880023    1    1    2    0    0  0.87029355308E+03 -0.11458133912E+04 -0.26963239992E+04  0.31263832955E+04  0.65864270000E+03 0.  0.
    8880022    1    1    2    0    0 -0.87029355308E+03  0.11458133912E+04  0.21483668478E+03  0.14628211271E+04  0.15294330000E+03 0.  0.
<mgrwt>
<rscale>  0 0.15474230E+04</rscale>
<asrwt>0</asrwt>
<pdfrwt beam="1">  1        1 0.54389936E+00 0.15824378E+04</pdfrwt>
<pdfrwt beam="2">  1       -1 0.16213209E+00 0.15824378E+04</pdfrwt>
<totfact> 0.62327283E-02</totfact>
</mgrwt>
</event>
<event>
 4    1  0.1521315E-007  0.7531329E+03  0.7818608E-02  0.9823221E-01
          1   -1    0    0  501    0  0.00000000000E+00  0.00000000000E+00  0.10926826267E+04  0.10926826267E+04  0.50400000000E-02 0. -1.
         -1   -1    0    0    0  501 -0.00000000000E+00 -0.00000000000E+00 -0.42848983752E+03  0.42848983755E+03  0.50400000000E-02 0.  1.
    8880023    1    1    2    0    0 -0.71259516506E+02  0.35821923533E+03  0.80362469973E+03  0.11013726906E+04  0.65864270000E+03 0. -1.
    8880022    1    1    2    0    0  0.71259516506E+02 -0.35821923533E+03 -0.13943191059E+03  0.41979977366E+03  0.15294330000E+03 0.  0.
<mgrwt>
<rscale>  0 0.64131103E+03</rscale>
<asrwt>0</asrwt>
<pdfrwt beam="1">  1        1 0.16810502E+00 0.75313289E+03</pdfrwt>
<pdfrwt beam="2">  1       -1 0.65921513E-01 0.75313289E+03</pdfrwt>
<totfact> 0.30768319E+01</totfact>
</mgrwt>
</event>
<event>
 4    1  0.1521315E-007  0.7062799E+03  0.7818608E-02  0.9972084E-01
          1   -1    0    0  501    0  0.00000000000E+00  0.00000000000E+00  0.11197059267E+04  0.11197059267E+04  0.50400000000E-02 0. -1.
         -1   -1    0    0    0  501 -0.00000000000E+00 -0.00000000000E+00 -0.36842557817E+03  0.36842557820E+03  0.50400000000E-02 0.  1.
    8880023    1    1    2    0    0 -0.85273093767E+02 -0.24031133226E+03  0.90932829185E+03  0.11513944526E+04  0.65864270000E+03 0. -1.
    8880022    1    1    2    0    0  0.85273093767E+02  0.24031133226E+03 -0.15804794336E+03  0.33673705224E+03  0.15294330000E+03 0.  0.
<mgrwt>
<rscale>  0 0.56891442E+03</rscale>
<asrwt>0</asrwt>
<pdfrwt beam="1">  1        1 0.17226245E+00 0.70627986E+03</pdfrwt>
<pdfrwt beam="2">  1       -1 0.56680858E-01 0.70627986E+03</pdfrwt>
<totfact> 0.39817534E+01</totfact>
</mgrwt>
</event>
<event>
 4    1  0.1521315E-007  0.1143901E+04  0.7818608E-02  0.9213683E-01
         -1   -1    0    0    0  501 -0.00000000000E+00  0.00000000000E+00  0.13792718685E+04  0.13792718686E+04  0.50400000000E-02 0.  1.
          1   -1    0    0  501    0  0.00000000000E+00 -0.00000000000E+00 -0.86187632521E+03  0.86187632522E+03  0.50400000000E-02 0. -1.
    8880023    1    1    2    0    0 -0.12278528310E+03  0.92715804934E+03 -0.34613307580E+02  0.11444241179E+04  0.65864270000E+03 0. -1.
    8880022    1    1    2    0    0  0.12278528310E+03 -0.92715804934E+03  0.55200885091E+03  0.10967240759E+04  0.15294330000E+03 0.  0.
<mgrwt>
<rscale>  0 0.10913302E+04</rscale>
<asrwt>0</asrwt>
<pdfrwt beam="1">  1        1 0.13259636E+00 0.11439006E+04</pdfrwt>
<pdfrwt beam="2">  1       -1 0.21219567E+00 0.11439006E+04</pdfrwt>
<totfact> 0.24022769E+00</totfact>
</mgrwt>
</event>
<event>
 4    1  0.1521315E-007  0.9206826E+03  0.7818608E-02  0.9493613E-01
         -1   -1    0    0    0  501 -0.00000000000E+00  0.00000000000E+00  0.40712686268E+03  0.40712686271E+03  0.50400000000E-02 0.  1.
          1   -1    0    0  501    0  0.00000000000E+00 -0.00000000000E+00 -0.18699766467E+04  0.18699766467E+04  0.50400000000E-02 0. -1.
    8880023    1    1    2    0    0  0.17510093708E+03 -0.61902018813E+03 -0.13053395364E+04  0.15973627775E+04  0.65864270000E+03 0.  0.
    8880022    1    1    2    0    0 -0.17510093708E+03  0.61902018813E+03 -0.15751024763E+03  0.67974073190E+03  0.15294330000E+03 0.  0.
<mgrwt>
<rscale>  0 0.84756342E+03</rscale>
<asrwt>0</asrwt>
<pdfrwt beam="1">  1        1 0.28768871E+00 0.92068265E+03</pdfrwt>
<pdfrwt beam="2">  1       -1 0.62634903E-01 0.92068265E+03</pdfrwt>
<totfact> 0.96236486E+00</totfact>
</mgrwt>
</event>
<event>
 4    1  0.1521315E-007  0.6951654E+03  0.7818608E-02  0.1001788E+00
         -1   -1    0    0    0  501 -0.00000000000E+00  0.00000000000E+00  0.59743920817E+03  0.59743920819E+03  0.50400000000E-02 0.  1.
          1   -1    0    0  501    0  0.00000000000E+00 -0.00000000000E+00 -0.10918995774E+04  0.10918995774E+04  0.50400000000E-02 0. -1.
    8880023    1    1    2    0    0  0.19066897546E+03  0.11441160316E+03 -0.93958305632E+03  0.11687904856E+04  0.65864270000E+03 0. -1.
    8880022    1    1    2    0    0 -0.19066897546E+03 -0.11441160316E+03  0.44512268707E+03  0.52054830007E+03  0.15294330000E+03 0.  0.
<mgrwt>
<rscale>  0 0.54873113E+03</rscale>
<asrwt>0</asrwt>
<pdfrwt beam="1">  1        1 0.16798455E+00 0.69516536E+03</pdfrwt>
<pdfrwt beam="2">  1       -1 0.91913724E-01 0.69516536E+03</pdfrwt>
<totfact> 0.15402689E+01</totfact>
</mgrwt>
</event>
<event>
 4    1  0.1521315E-007  0.6732753E+03  0.7818608E-02  0.1013416E+00
         -1   -1    0    0    0  501 -0.00000000000E+00  0.00000000000E+00  0.12518203178E+03  0.12518203188E+03  0.50400000000E-02 0.  1.
          1   -1    0    0  501    0  0.00000000000E+00 -0.00000000000E+00 -0.18511987330E+04  0.18511987330E+04  0.50400000000E-02 0. -1.
    8880023    1    1    2    0    0 -0.47817640801E+02  0.13115999971E+03 -0.15951513577E+04  0.17314177811E+04  0.65864270000E+03 0. -1.
    8880022    1    1    2    0    0  0.47817640801E+02 -0.13115999971E+03 -0.13086534347E+03  0.24496298380E+03  0.15294330000E+03 0.  0.
<mgrwt>
<rscale>  0 0.50139246E+03</rscale>
<asrwt>0</asrwt>
<pdfrwt beam="1">  1        1 0.28479978E+00 0.67327534E+03</pdfrwt>
<pdfrwt beam="2">  1       -1 0.19258776E-01 0.67327534E+03</pdfrwt>
<totfact> 0.84914334E+01</totfact>
</mgrwt>
</event>
<event>
 4    1  0.1521315E-007  0.1471883E+04  0.7818608E-02  0.8929750E-01
          1   -1    0    0  501    0  0.00000000000E+00  0.00000000000E+00  0.18323481784E+04  0.18323481784E+04  0.50400000000E-02 0. -1.
         -1   -1    0    0    0  501 -0.00000000000E+00 -0.00000000000E+00 -0.11854317725E+04  0.11854317725E+04  0.50400000000E-02 0.  1.
    8880023    1    1    2    0    0  0.23632504211E+03 -0.12949056220E+04 -0.13679496819E+03  0.14782263578E+04  0.65864270000E+03 0.  0.
    8880022    1    1    2    0    0 -0.23632504211E+03  0.12949056220E+04  0.78371137411E+03  0.15395535932E+04  0.15294330000E+03 0.  0.
<mgrwt>
<rscale>  0 0.14337428E+04</rscale>
<asrwt>0</asrwt>
<pdfrwt beam="1">  1        1 0.28189972E+00 0.14718832E+04</pdfrwt>
<pdfrwt beam="2">  1       -1 0.18237412E+00 0.14718832E+04</pdfrwt>
<totfact> 0.73627073E-01</totfact>
</mgrwt>
</event>
<event>
 4    1  0.1521315E-007  0.6621201E+03  0.7818608E-02  0.1022082E+00
          1   -1    0    0  501    0  0.00000000000E+00  0.00000000000E+00  0.32674987571E+04  0.32674987572E+04  0.50400000000E-02 0. -1.
         -1   -1    0    0    0  501 -0.00000000000E+00 -0.00000000000E+00 -0.61482449425E+02  0.61482449632E+02  0.50400000000E-02 0.  1.
    8880023    1    1    2    0    0  0.94030604458E+01 -0.67115330223E+02  0.29482839754E+04  0.30217183010E+04  0.65864270000E+03 0. -1.
    8880022    1    1    2    0    0 -0.94030604458E+01  0.67115330223E+02  0.25773233235E+03  0.30726290575E+03  0.15294330000E+03 0.  0.
<mgrwt>
<rscale>  0 0.46942625E+03</rscale>
<asrwt>0</asrwt>
<pdfrwt beam="1">  1        1 0.50269218E+00 0.66212015E+03</pdfrwt>
<pdfrwt beam="2">  1       -1 0.94588372E-02 0.66212015E+03</pdfrwt>
<totfact> 0.28158104E+01</totfact>
</mgrwt>
</event>
<event>
 4    1  0.1521315E-007  0.7614611E+03  0.7818608E-02  0.9801339E-01
         -1   -1    0    0    0  501 -0.00000000000E+00  0.00000000000E+00  0.42843625029E+03  0.42843625032E+03  0.50400000000E-02 0.  1.
          1   -1    0    0  501    0  0.00000000000E+00 -0.00000000000E+00 -0.11999701708E+04  0.11999701708E+04  0.50400000000E-02 0. -1.
    8880023    1    1    2    0    0  0.66998576174E+02 -0.37619682577E+03 -0.85752781340E+01  0.76150942383E+03  0.65864270000E+03 0.  1.
    8880022    1    1    2    0    0 -0.66998576174E+02  0.37619682577E+03 -0.76295864238E+03  0.86689699730E+03  0.15294330000E+03 0.  0.
<mgrwt>
<rscale>  0 0.65290716E+03</rscale>
<asrwt>0</asrwt>
<pdfrwt beam="1">  1        1 0.18461079E+00 0.76146114E+03</pdfrwt>
<pdfrwt beam="2">  1       -1 0.65913270E-01 0.76146114E+03</pdfrwt>
<totfact> 0.25636967E+01</totfact>
</mgrwt>
</event>
<event>
 4    1  0.1521315E-007  0.9540877E+03  0.7818608E-02  0.9444257E-01
          1   -1    0    0  501    0  0.00000000000E+00  0.00000000000E+00  0.59862698131E+03  0.59862698133E+03  0.50400000000E-02 0. -1.
         -1   -1    0    0    0  501 -0.00000000000E+00 -0.00000000000E+00 -0.24977908767E+04  0.24977908767E+04  0.50400000000E-02 0.  1.
    8880023    1    1    2    0    0 -0.65105919473E+03 -0.22933609188E+03  0.11573025613E+03  0.96108106658E+03  0.65864270000E+03 0. -1.
    8880022    1    1    2    0    0  0.65105919473E+03  0.22933609188E+03 -0.20148941515E+04  0.21353367915E+04  0.15294330000E+03 0.  0.
<mgrwt>
<rscale>  0 0.88521301E+03</rscale>
<asrwt>0</asrwt>
<pdfrwt beam="1">  1        1 0.92096460E-01 0.95408769E+03</pdfrwt>
<pdfrwt beam="2">  1       -1 0.38427551E+00 0.95408769E+03</pdfrwt>
<totfact> 0.32465052E-01</totfact>
</mgrwt>
</event>
<event>
 4    1  0.1521315E-007  0.9614494E+03  0.7818608E-02  0.9433829E-01
         -1   -1    0    0    0  501 -0.00000000000E+00  0.00000000000E+00  0.22365160746E+03  0.22365160752E+03  0.50400000000E-02 0.  1.
          1   -1    0    0  501    0  0.00000000000E+00 -0.00000000000E+00 -0.35552125242E+04  0.35552125242E+04  0.50400000000E-02 0. -1.
    8880023    1    1    2    0    0  0.48613060916E+03  0.50423388410E+03 -0.25135538092E+04  0.26911591809E+04  0.65864270000E+03 0. -1.
    8880022    1    1    2    0    0 -0.48613060916E+03 -0.50423388410E+03 -0.81800710759E+03  0.10877049509E+04  0.15294330000E+03 0.  1.
<mgrwt>
<rscale>  0 0.89343235E+03</rscale>
<asrwt>0</asrwt>
<pdfrwt beam="1">  1        1 0.54695573E+00 0.96144942E+03</pdfrwt>
<pdfrwt beam="2">  1       -1 0.34407942E-01 0.96144942E+03</pdfrwt>
<totfact> 0.18905005E+00</totfact>
</mgrwt>
</event>
<event>
 4    1  0.1521315E-007  0.6973716E+03  0.7818608E-02  0.1000828E+00
          1   -1    0    0  501    0  0.00000000000E+00  0.00000000000E+00  0.18627676774E+04  0.18627676775E+04  0.50400000000E-02 0. -1.
         -1   -1    0    0    0  501 -0.00000000000E+00 -0.00000000000E+00 -0.21473384234E+03  0.21473384240E+03  0.50400000000E-02 0.  1.
    8880023    1    1    2    0    0 -0.21742309403E+03  0.72416448854E+02  0.16612312679E+04  0.18016704681E+04  0.65864270000E+03 0.  0.
    8880022    1    1    2    0    0  0.21742309403E+03 -0.72416448854E+02 -0.13197432769E+02  0.27583105178E+03  0.15294330000E+03 0.  0.
<mgrwt>
<rscale>  0 0.55288469E+03</rscale>
<asrwt>0</asrwt>
<pdfrwt beam="1">  1        1 0.28657963E+00 0.69737160E+03</pdfrwt>
<pdfrwt beam="2">  1       -1 0.33035977E-01 0.69737160E+03</pdfrwt>
<totfact> 0.33115406E+01</totfact>
</mgrwt>
</event>
<event>
 4    1  0.1521315E-007  0.6619799E+03  0.7818608E-02  0.1022214E+00
         -1   -1    0    0    0  501 -0.00000000000E+00  0.00000000000E+00  0.23585303182E+04  0.23585303182E+04  0.50400000000E-02 0.  1.
          1   -1    0    0  501    0  0.00000000000E+00 -0.00000000000E+00 -0.83031212543E+02  0.83031212696E+02  0.50400000000E-02 0. -1.
    8880023    1    1    2    0    0  0.18514168906E+02 -0.63752636077E+02  0.13786258398E+04  0.15293222635E+04  0.65864270000E+03 0. -1.
    8880022    1    1    2    0    0 -0.18514168906E+02  0.63752636077E+02  0.89687326581E+03  0.91223926741E+03  0.15294330000E+03 0.  0.
<mgrwt>
<rscale>  0 0.46896119E+03</rscale>
<asrwt>0</asrwt>
<pdfrwt beam="1">  1        1 0.12774033E-01 0.66197989E+03</pdfrwt>
<pdfrwt beam="2">  1       -1 0.36285080E+00 0.66197989E+03</pdfrwt>
<totfact> 0.65368260E+00</totfact>
</mgrwt>
</event>
<event>
 4    1  0.1521315E-007  0.6704387E+03  0.7818608E-02  0.1015350E+00
         -1   -1    0    0    0  501 -0.00000000000E+00  0.00000000000E+00  0.36661008119E+03  0.36661008122E+03  0.50400000000E-02 0.  1.
          1   -1    0    0  501    0  0.00000000000E+00 -0.00000000000E+00 -0.12546551695E+04  0.12546551695E+04  0.50400000000E-02 0. -1.
    8880023    1    1    2    0    0  0.99750180004E+02  0.75682141633E+02 -0.11268848298E+04  0.13112427353E+04  0.65864270000E+03 0. -1.
    8880022    1    1    2    0    0 -0.99750180004E+02 -0.75682141633E+02  0.23883974147E+03  0.31002251546E+03  0.15294330000E+03 0.  0.
<mgrwt>
<rscale>  0 0.49402520E+03</rscale>
<asrwt>0</asrwt>
<pdfrwt beam="1">  1        1 0.19302387E+00 0.67043873E+03</pdfrwt>
<pdfrwt beam="2">  1       -1 0.56401551E-01 0.67043873E+03</pdfrwt>
<totfact> 0.32230587E+01</totfact>
</mgrwt>
</event>
<event>
 4    1  0.1521315E-007  0.7102076E+03  0.7818608E-02  0.9957231E-01
         -1   -1    0    0    0  501 -0.00000000000E+00  0.00000000000E+00  0.44637257489E+03  0.44637257492E+03  0.50400000000E-02 0.  1.
          1   -1    0    0  501    0  0.00000000000E+00 -0.00000000000E+00 -0.15204753971E+04  0.15204753971E+04  0.50400000000E-02 0. -1.
    8880023    1    1    2    0    0 -0.33798796634E+02 -0.26351905944E+03 -0.13685065381E+04  0.15418187327E+04  0.65864270000E+03 0. -1.
    8880022    1    1    2    0    0  0.33798796634E+02  0.26351905944E+03  0.29440371591E+03  0.42502923934E+03  0.15294330000E+03 0.  0.
<mgrwt>
<rscale>  0 0.57566031E+03</rscale>
<asrwt>0</asrwt>
<pdfrwt beam="1">  1        1 0.23391929E+00 0.71020762E+03</pdfrwt>
<pdfrwt beam="2">  1       -1 0.68672704E-01 0.71020762E+03</pdfrwt>
<totfact> 0.14169072E+01</totfact>
</mgrwt>
</event>
<event>
 4    1  0.1521315E-007  0.7599587E+03  0.7818608E-02  0.9805214E-01
          1   -1    0    0  501    0  0.00000000000E+00  0.00000000000E+00  0.12725606638E+04  0.12725606638E+04  0.50400000000E-02 0. -1.
         -1   -1    0    0    0  501 -0.00000000000E+00 -0.00000000000E+00 -0.83615185588E+03  0.83615185590E+03  0.50400000000E-02 0.  1.
    8880023    1    1    2    0    0  0.34648804660E+03 -0.15386073240E+03  0.10954085247E+04  0.13332130864E+04  0.65864270000E+03 0.  0.
    8880022    1    1    2    0    0 -0.34648804660E+03  0.15386073240E+03 -0.65899971678E+03  0.77549943336E+03  0.15294330000E+03 0.  0.
<mgrwt>
<rscale>  0 0.65083464E+03</rscale>
<asrwt>0</asrwt>
<pdfrwt beam="1">  1        1 0.19577856E+00 0.75995875E+03</pdfrwt>
<pdfrwt beam="2">  1       -1 0.12863875E+00 0.75995875E+03</pdfrwt>
<totfact> 0.51132551E+00</totfact>
</mgrwt>
</event>
<event>
 4    1  0.1521315E-007  0.7076002E+03  0.7818608E-02  0.9967023E-01
         -1   -1    0    0    0  501 -0.00000000000E+00  0.00000000000E+00  0.23361822076E+03  0.23361822082E+03  0.50400000000E-02 0.  1.
          1   -1    0    0  501    0  0.00000000000E+00 -0.00000000000E+00 -0.11405177935E+04  0.11405177935E+04  0.50400000000E-02 0. -1.
    8880023    1    1    2    0    0  0.20086863439E+03 -0.16290977003E+03 -0.76425579125E+03  0.10415300870E+04  0.65864270000E+03 0.  0.
    8880022    1    1    2    0    0 -0.20086863439E+03  0.16290977003E+03 -0.14264378144E+03  0.33260592726E+03  0.15294330000E+03 0.  0.
<mgrwt>
<rscale>  0 0.57120180E+03</rscale>
<asrwt>0</asrwt>
<pdfrwt beam="1">  1        1 0.17546427E+00 0.70760018E+03</pdfrwt>
<pdfrwt beam="2">  1       -1 0.35941265E-01 0.70760018E+03</pdfrwt>
<totfact> 0.89613328E+01</totfact>
</mgrwt>
</event>
<event>
 4    1  0.1521315E-007  0.1361573E+04  0.7818608E-02  0.9014132E-01
          1   -1    0    0  501    0  0.00000000000E+00  0.00000000000E+00  0.16015684810E+04  0.16015684810E+04  0.50400000000E-02 0. -1.
         -1   -1    0    0    0  501 -0.00000000000E+00 -0.00000000000E+00 -0.11060331015E+04  0.11060331015E+04  0.50400000000E-02 0.  1.
    8880023    1    1    2    0    0  0.11638199266E+04  0.25611396520E+03 -0.10273365054E+03  0.13654433690E+04  0.65864270000E+03 0.  0.
    8880022    1    1    2    0    0 -0.11638199266E+04 -0.25611396520E+03  0.59826902998E+03  0.13421582135E+04  0.15294330000E+03 0.  0.
<mgrwt>
<rscale>  0 0.13196429E+04</rscale>
<asrwt>0</asrwt>
<pdfrwt beam="1">  1        1 0.24639515E+00 0.13615731E+04</pdfrwt>
<pdfrwt beam="2">  1       -1 0.17015894E+00 0.13615731E+04</pdfrwt>
<totfact> 0.13150761E+00</totfact>
</mgrwt>
</event>
<event>
 4    1  0.1521315E-007  0.9181741E+03  0.7818608E-02  0.9497464E-01
         -1   -1    0    0    0  501 -0.00000000000E+00  0.00000000000E+00  0.87054418778E+03  0.87054418779E+03  0.50400000000E-02 0.  1.
          1   -1    0    0  501    0  0.00000000000E+00 -0.00000000000E+00 -0.84299492315E+03  0.84299492316E+03  0.50400000000E-02 0. -1.
    8880023    1    1    2    0    0  0.24672102829E+03  0.59022214117E+03 -0.31657057306E+03  0.97121602938E+03  0.65864270000E+03 0.  0.
    8880022    1    1    2    0    0 -0.24672102829E+03 -0.59022214117E+03  0.34411983769E+03  0.74232308158E+03  0.15294330000E+03 0.  0.
<mgrwt>
<rscale>  0 0.84471020E+03</rscale>
<asrwt>0</asrwt>
<pdfrwt beam="1">  1        1 0.12969153E+00 0.91817408E+03</pdfrwt>
<pdfrwt beam="2">  1       -1 0.13392987E+00 0.91817408E+03</pdfrwt>
<totfact> 0.96482827E+00</totfact>
</mgrwt>
</event>
<event>
 4    1  0.1521315E-007  0.1035007E+04  0.7818608E-02  0.9337126E-01
         -1   -1    0    0    0  501 -0.00000000000E+00  0.00000000000E+00  0.65241734128E+03  0.65241734130E+03  0.50400000000E-02 0.  1.
          1   -1    0    0  501    0  0.00000000000E+00 -0.00000000000E+00 -0.15342070344E+04  0.15342070344E+04  0.50400000000E-02 0. -1.
    8880023    1    1    2    0    0 -0.56872100576E+03  0.56034349694E+03 -0.90283375341E+03  0.13734436317E+04  0.65864270000E+03 0.  0.
    8880022    1    1    2    0    0  0.56872100576E+03 -0.56034349694E+03  0.21044060259E+02  0.81318074402E+03  0.15294330000E+03 0.  0.
<mgrwt>
<rscale>  0 0.97435616E+03</rscale>
<asrwt>0</asrwt>
<pdfrwt beam="1">  1        1 0.23603185E+00 0.10350066E+04</pdfrwt>
<pdfrwt beam="2">  1       -1 0.10037190E+00 0.10350066E+04</pdfrwt>
<totfact> 0.58642439E+00</totfact>
</mgrwt>
</event>
<event>
 4    1  0.1521315E-007  0.7054483E+03  0.7818608E-02  0.9975308E-01
          1   -1    0    0  501    0  0.00000000000E+00  0.00000000000E+00  0.92323690330E+03  0.92323690331E+03  0.50400000000E-02 0. -1.
         -1   -1    0    0    0  501 -0.00000000000E+00 -0.00000000000E+00 -0.34052628898E+03  0.34052628902E+03  0.50400000000E-02 0.  1.
    8880023    1    1    2    0    0 -0.41215916938E+02 -0.24929583380E+03  0.65175495488E+03  0.96043838534E+03  0.65864270000E+03 0.  0.
    8880022    1    1    2    0    0  0.41215916938E+02  0.24929583380E+03 -0.69044340557E+02  0.30332480699E+03  0.15294330000E+03 0.  0.
<mgrwt>
<rscale>  0 0.56746311E+03</rscale>
<asrwt>0</asrwt>
<pdfrwt beam="1">  1        1 0.14203645E+00 0.70544835E+03</pdfrwt>
<pdfrwt beam="2">  1       -1 0.52388659E-01 0.70544835E+03</pdfrwt>
<totfact> 0.65606917E+01</totfact>
</mgrwt>
</event>
<event>
 4    1  0.1521315E-007  0.7619392E+03  0.7818608E-02  0.9800113E-01
         -1   -1    0    0    0  501 -0.00000000000E+00  0.00000000000E+00  0.28451569665E+03  0.28451569670E+03  0.50400000000E-02 0.  1.
          1   -1    0    0  501    0  0.00000000000E+00 -0.00000000000E+00 -0.17672696951E+04  0.17672696951E+04  0.50400000000E-02 0. -1.
    8880023    1    1    2    0    0  0.11262077189E+03  0.36613888539E+03 -0.14500163403E+04  0.16380167017E+04  0.65864270000E+03 0. -1.
    8880022    1    1    2    0    0 -0.11262077189E+03 -0.36613888539E+03 -0.32737658178E+02  0.41376869013E+03  0.15294330000E+03 0.  0.
<mgrwt>
<rscale>  0 0.65356492E+03</rscale>
<asrwt>0</asrwt>
<pdfrwt beam="1">  1        1 0.27188764E+00 0.76193919E+03</pdfrwt>
<pdfrwt beam="2">  1       -1 0.43771647E-01 0.76193919E+03</pdfrwt>
<totfact> 0.22894989E+01</totfact>
</mgrwt>
</event>
<event>
 4    1  0.1521315E-007  0.7917194E+03  0.7818608E-02  0.9728995E-01
         -1   -1    0    0    0  501 -0.00000000000E+00  0.00000000000E+00  0.14352107806E+04  0.14352107806E+04  0.50400000000E-02 0.  1.
          1   -1    0    0  501    0  0.00000000000E+00 -0.00000000000E+00 -0.42113096733E+03  0.42113096736E+03  0.50400000000E-02 0. -1.
    8880023    1    1    2    0    0  0.39137336156E+03  0.19959020211E+03  0.58901421898E+02  0.79390738798E+03  0.65864270000E+03 0.  0.
    8880022    1    1    2    0    0 -0.39137336156E+03 -0.19959020211E+03  0.95517839137E+03  0.10624343600E+04  0.15294330000E+03 0.  0.
<mgrwt>
<rscale>  0 0.69316378E+03</rscale>
<asrwt>0</asrwt>
<pdfrwt beam="1">  1        1 0.64789380E-01 0.79171937E+03</pdfrwt>
<pdfrwt beam="2">  1       -1 0.22080166E+00 0.79171937E+03</pdfrwt>
<totfact> 0.62700229E+00</totfact>
</mgrwt>
</event>
<event>
 4    1  0.1521315E-007  0.6775717E+03  0.7818608E-02  0.1010732E+00
          1   -1    0    0  501    0  0.00000000000E+00  0.00000000000E+00  0.13786709277E+04  0.13786709277E+04  0.50400000000E-02 0. -1.
         -1   -1    0    0    0  501 -0.00000000000E+00 -0.00000000000E+00 -0.29087877799E+03  0.29087877803E+03  0.50400000000E-02 0.  1.
    8880023    1    1    2    0    0 -0.15254048496E+03 -0.44995323771E+02  0.12319474582E+04  0.14059864596E+04  0.65864270000E+03 0. -1.
    8880022    1    1    2    0    0  0.15254048496E+03  0.44995323771E+02 -0.14415530848E+03  0.26356324609E+03  0.15294330000E+03 0.  0.
<mgrwt>
<rscale>  0 0.51184757E+03</rscale>
<asrwt>0</asrwt>
<pdfrwt beam="1">  1        1 0.21210323E+00 0.67757168E+03</pdfrwt>
<pdfrwt beam="2">  1       -1 0.44750580E-01 0.67757168E+03</pdfrwt>
<totfact> 0.40827249E+01</totfact>
</mgrwt>
</event>
<event>
 4    1  0.1521315E-007  0.7069456E+03  0.7818608E-02  0.9969523E-01
          1   -1    0    0  501    0  0.00000000000E+00  0.00000000000E+00  0.63684325509E+03  0.63684325511E+03  0.50400000000E-02 0. -1.
         -1   -1    0    0    0  501 -0.00000000000E+00 -0.00000000000E+00 -0.71964064169E+03  0.71964064171E+03  0.50400000000E-02 0.  1.
    8880023    1    1    2    0    0  0.11451248290E+03 -0.22988862381E+03  0.38223587208E+03  0.80366433059E+03  0.65864270000E+03 0. -1.
    8880022    1    1    2    0    0 -0.11451248290E+03  0.22988862381E+03 -0.46503325868E+03  0.55281956622E+03  0.15294330000E+03 0.  0.
<mgrwt>
<rscale>  0 0.57007037E+03</rscale>
<asrwt>0</asrwt>
<pdfrwt beam="1">  1        1 0.97975886E-01 0.70694561E+03</pdfrwt>
<pdfrwt beam="2">  1       -1 0.11071394E+00 0.70694561E+03</pdfrwt>
<totfact> 0.24311773E+01</totfact>
</mgrwt>
</event>
<event>
 4    1  0.1521315E-007  0.7037780E+03  0.7818608E-02  0.9981875E-01
          1   -1    0    0  501    0  0.00000000000E+00  0.00000000000E+00  0.88685561629E+03  0.88685561630E+03  0.50400000000E-02 0. -1.
         -1   -1    0    0    0  501 -0.00000000000E+00 -0.00000000000E+00 -0.53557286821E+03  0.53557286823E+03  0.50400000000E-02 0.  1.
    8880023    1    1    2    0    0 -0.22959553822E+03 -0.93697312542E+02  0.68315151181E+03  0.98081572780E+03  0.65864270000E+03 0.  0.
    8880022    1    1    2    0    0  0.22959553822E+03  0.93697312542E+02 -0.33186876374E+03  0.44161275673E+03  0.15294330000E+03 0.  0.
<mgrwt>
<rscale>  0 0.56452166E+03</rscale>
<asrwt>0</asrwt>
<pdfrwt beam="1">  1        1 0.13643932E+00 0.70377802E+03</pdfrwt>
<pdfrwt beam="2">  1       -1 0.82395826E-01 0.70377802E+03</pdfrwt>
<totfact> 0.28189795E+01</totfact>
</mgrwt>
</event>
<event>
 4    1  0.1521315E-007  0.7082359E+03  0.7818608E-02  0.9964611E-01
         -1   -1    0    0    0  501 -0.00000000000E+00  0.00000000000E+00  0.13841176281E+04  0.13841176281E+04  0.50400000000E-02 0.  1.
          1   -1    0    0  501    0  0.00000000000E+00 -0.00000000000E+00 -0.57597628450E+03  0.57597628452E+03  0.50400000000E-02 0. -1.
    8880023    1    1    2    0    0  0.24778992352E+03  0.79925126932E+02 -0.33088785757E+03  0.78171916483E+03  0.65864270000E+03 0. -1.
    8880022    1    1    2    0    0 -0.24778992352E+03 -0.79925126932E+02  0.11390292011E+04  0.11783747478E+04  0.15294330000E+03 0.  0.
<mgrwt>
<rscale>  0 0.57229587E+03</rscale>
<asrwt>0</asrwt>
<pdfrwt beam="1">  1        1 0.88611738E-01 0.70823589E+03</pdfrwt>
<pdfrwt beam="2">  1       -1 0.21294117E+00 0.70823589E+03</pdfrwt>
<totfact> 0.46560070E+00</totfact>
</mgrwt>
</event>
<event>
 4    1  0.1521315E-007  0.1296525E+04  0.7818608E-02  0.9068567E-01
         -1   -1    0    0    0  501 -0.00000000000E+00  0.00000000000E+00  0.13472751133E+04  0.13472751133E+04  0.50400000000E-02 0.  1.
          1   -1    0    0  501    0  0.00000000000E+00 -0.00000000000E+00 -0.16161293040E+04  0.16161293040E+04  0.50400000000E-02 0. -1.
    8880023    1    1    2    0    0  0.10244098568E+04  0.44469106356E+03 -0.98474168595E+03  0.16280946198E+04  0.65864270000E+03 0.  0.
    8880022    1    1    2    0    0 -0.10244098568E+04 -0.44469106356E+03  0.71588749525E+03  0.13353097976E+04  0.15294330000E+03 0.  0.
<mgrwt>
<rscale>  0 0.12519438E+04</rscale>
<asrwt>0</asrwt>
<pdfrwt beam="1">  1        1 0.24863528E+00 0.12965245E+04</pdfrwt>
<pdfrwt beam="2">  1       -1 0.20727309E+00 0.12965245E+04</pdfrwt>
<totfact> 0.70665311E-01</totfact>
</mgrwt>
</event>
<event>
 4    1  0.1521315E-007  0.9823425E+03  0.7818608E-02  0.9405032E-01
         -1   -1    0    0    0  501 -0.00000000000E+00  0.00000000000E+00  0.53191461589E+03  0.53191461592E+03  0.50400000000E-02 0.  1.
          1   -1    0    0  501    0  0.00000000000E+00 -0.00000000000E+00 -0.18469912199E+04  0.18469912199E+04  0.50400000000E-02 0. -1.
    8880023    1    1    2    0    0 -0.61117005221E+02  0.72625842949E+03 -0.13059279872E+04  0.16341495368E+04  0.65864270000E+03 0. -1.
    8880022    1    1    2    0    0  0.61117005221E+02 -0.72625842949E+03 -0.91486168550E+01  0.74475629903E+03  0.15294330000E+03 0.  0.
<mgrwt>
<rscale>  0 0.91662681E+03</rscale>
<asrwt>0</asrwt>
<pdfrwt beam="1">  1        1 0.28415249E+00 0.98234251E+03</pdfrwt>
<pdfrwt beam="2">  1       -1 0.81833019E-01 0.98234251E+03</pdfrwt>
<totfact> 0.56907596E+00</totfact>
</mgrwt>
</event>
<event>
 4    1  0.1521315E-007  0.7805901E+03  0.7818608E-02  0.9754453E-01
          1   -1    0    0  501    0  0.00000000000E+00  0.00000000000E+00  0.12671914191E+04  0.12671914191E+04  0.50400000000E-02 0. -1.
         -1   -1    0    0    0  501 -0.00000000000E+00 -0.00000000000E+00 -0.54758160566E+03  0.54758160568E+03  0.50400000000E-02 0.  1.
    8880023    1    1    2    0    0 -0.41877162031E+03 -0.11878553579E+02  0.10145450271E+04  0.12800869456E+04  0.65864270000E+03 0.  0.
    8880022    1    1    2    0    0  0.41877162031E+03  0.11878553579E+02 -0.29493521365E+03  0.53468607919E+03  0.15294330000E+03 0.  0.
<mgrwt>
<rscale>  0 0.67865227E+03</rscale>
<asrwt>0</asrwt>
<pdfrwt beam="1">  1        1 0.19495252E+00 0.78059015E+03</pdfrwt>
<pdfrwt beam="2">  1       -1 0.84243325E-01 0.78059015E+03</pdfrwt>
<totfact> 0.13725630E+01</totfact>
</mgrwt>
</event>
<event>
 4    1  0.1521315E-007  0.1115464E+04  0.7818608E-02  0.9244031E-01
         -1   -1    0    0    0  501 -0.00000000000E+00  0.00000000000E+00  0.10389003312E+04  0.10389003312E+04  0.50400000000E-02 0.  1.
          1   -1    0    0  501    0  0.00000000000E+00 -0.00000000000E+00 -0.15687333970E+04  0.15687333970E+04  0.50400000000E-02 0. -1.
    8880023    1    1    2    0    0 -0.61729583067E+03 -0.65528334191E+03  0.50763335617E+03  0.12255416073E+04  0.65864270000E+03 0.  0.
    8880022    1    1    2    0    0  0.61729583067E+03  0.65528334191E+03 -0.10374664220E+04  0.13820921209E+04  0.15294330000E+03 0.  0.
<mgrwt>
<rscale>  0 0.10610289E+04</rscale>
<asrwt>0</asrwt>
<pdfrwt beam="1">  1        1 0.24134360E+00 0.11154643E+04</pdfrwt>
<pdfrwt beam="2">  1       -1 0.15983082E+00 0.11154643E+04</pdfrwt>
<totfact> 0.17029665E+00</totfact>
</mgrwt>
</event>
<event>
 4    1  0.1521315E-007  0.7163871E+03  0.7818608E-02  0.9935006E-01
          1   -1    0    0  501    0  0.00000000000E+00  0.00000000000E+00  0.11893692784E+04  0.11893692784E+04  0.50400000000E-02 0. -1.
         -1   -1    0    0    0  501 -0.00000000000E+00 -0.00000000000E+00 -0.34338031030E+03  0.34338031034E+03  0.50400000000E-02 0.  1.
    8880023    1    1    2    0    0  0.27743158938E+03 -0.49314910714E+02  0.95524942362E+03  0.11940317897E+04  0.65864270000E+03 0.  0.
    8880022    1    1    2    0    0 -0.27743158938E+03  0.49314910714E+02 -0.10926045556E+03  0.33871779901E+03  0.15294330000E+03 0.  0.
<mgrwt>
<rscale>  0 0.58594341E+03</rscale>
<asrwt>0</asrwt>
<pdfrwt beam="1">  1        1 0.18297989E+00 0.71638708E+03</pdfrwt>
<pdfrwt beam="2">  1       -1 0.52827740E-01 0.71638708E+03</pdfrwt>
<totfact> 0.40503029E+01</totfact>
</mgrwt>
</event>
<event>
 4    1  0.1521315E-007  0.8118180E+03  0.7818608E-02  0.9685803E-01
          1   -1    0    0  501    0  0.00000000000E+00  0.00000000000E+00  0.21558518148E+04  0.21558518148E+04  0.50400000000E-02 0. -1.
         -1   -1    0    0    0  501 -0.00000000000E+00 -0.00000000000E+00 -0.41342715667E+03  0.41342715670E+03  0.50400000000E-02 0.  1.
    8880023    1    1    2    0    0 -0.15729367503E+03  0.44776879312E+03  0.18835616097E+04  0.20510613682E+04  0.65864270000E+03 0. -1.
    8880022    1    1    2    0    0  0.15729367503E+03 -0.44776879312E+03 -0.14113695156E+03  0.51821760333E+03  0.15294330000E+03 0.  0.
<mgrwt>
<rscale>  0 0.71868428E+03</rscale>
<asrwt>0</asrwt>
<pdfrwt beam="1">  1        1 0.33166951E+00 0.81181796E+03</pdfrwt>
<pdfrwt beam="2">  1       -1 0.63604177E-01 0.81181796E+03</pdfrwt>
<totfact> 0.60921052E+00</totfact>
</mgrwt>
</event>
<event>
 4    1  0.1521315E-007  0.7592122E+03  0.7818608E-02  0.9807151E-01
         -1   -1    0    0    0  501 -0.00000000000E+00  0.00000000000E+00  0.49172092110E+03  0.49172092113E+03  0.50400000000E-02 0.  1.
          1   -1    0    0  501    0  0.00000000000E+00 -0.00000000000E+00 -0.16431485044E+04  0.16431485044E+04  0.50400000000E-02 0. -1.
    8880023    1    1    2    0    0 -0.12111447001E+03  0.35766498176E+03 -0.14452701405E+04  0.16325467648E+04  0.65864270000E+03 0. -1.
    8880022    1    1    2    0    0  0.12111447001E+03 -0.35766498176E+03  0.29384255721E+03  0.50232266071E+03  0.15294330000E+03 0.  0.
<mgrwt>
<rscale>  0 0.64980172E+03</rscale>
<asrwt>0</asrwt>
<pdfrwt beam="1">  1        1 0.25279208E+00 0.75921220E+03</pdfrwt>
<pdfrwt beam="2">  1       -1 0.75649373E-01 0.75921220E+03</pdfrwt>
<totfact> 0.95119197E+00</totfact>
</mgrwt>
</event>
<event>
 4    1  0.1521315E-007  0.1063088E+04  0.7818608E-02  0.9303311E-01
         -1   -1    0    0    0  501 -0.00000000000E+00  0.00000000000E+00  0.76425114396E+03  0.76425114398E+03  0.50400000000E-02 0.  1.
          1   -1    0    0  501    0  0.00000000000E+00 -0.00000000000E+00 -0.13944568811E+04  0.13944568811E+04  0.50400000000E-02 0. -1.
    8880023    1    1    2    0    0  0.18209061087E+03 -0.81436441785E+03 -0.75125031985E+03  0.13017425417E+04  0.65864270000E+03 0.  0.
    8880022    1    1    2    0    0 -0.18209061087E+03  0.81436441785E+03  0.12104458272E+03  0.85696548334E+03  0.15294330000E+03 0. -1.
<mgrwt>
<rscale>  0 0.10047865E+04</rscale>
<asrwt>0</asrwt>
<pdfrwt beam="1">  1        1 0.21453183E+00 0.10630882E+04</pdfrwt>
<pdfrwt beam="2">  1       -1 0.11757710E+00 0.10630882E+04</pdfrwt>
<totfact> 0.50300937E+00</totfact>
</mgrwt>
</event>
<event>
 4    1  0.1521315E-007  0.1100274E+04  0.7818608E-02  0.9260751E-01
          1   -1    0    0  501    0  0.00000000000E+00  0.00000000000E+00  0.13943315235E+04  0.13943315235E+04  0.50400000000E-02 0. -1.
         -1   -1    0    0    0  501 -0.00000000000E+00 -0.00000000000E+00 -0.98557269185E+03  0.98557269186E+03  0.50400000000E-02 0.  1.
    8880023    1    1    2    0    0  0.83550268065E+02  0.87738985517E+03  0.84247552498E+03  0.13857737267E+04  0.65864270000E+03 0.  0.
    8880022    1    1    2    0    0 -0.83550268065E+02 -0.87738985517E+03 -0.43371669336E+03  0.99413048860E+03  0.15294330000E+03 0.  0.
<mgrwt>
<rscale>  0 0.10447794E+04</rscale>
<asrwt>0</asrwt>
<pdfrwt beam="1">  1        1 0.21451254E+00 0.11002744E+04</pdfrwt>
<pdfrwt beam="2">  1       -1 0.15162657E+00 0.11002744E+04</pdfrwt>
<totfact> 0.26067952E+00</totfact>
</mgrwt>
</event>
<event>
 4    1  0.1521315E-007  0.7154433E+03  0.7818608E-02  0.9938317E-01
         -1   -1    0    0    0  501 -0.00000000000E+00  0.00000000000E+00  0.18947097524E+03  0.18947097531E+03  0.50400000000E-02 0.  1.
          1   -1    0    0  501    0  0.00000000000E+00 -0.00000000000E+00 -0.14885795233E+04  0.14885795233E+04  0.50400000000E-02 0. -1.
    8880023    1    1    2    0    0 -0.18773309246E+03 -0.20689402061E+03 -0.10640339084E+04  0.12821962464E+04  0.65864270000E+03 0.  0.
    8880022    1    1    2    0    0  0.18773309246E+03  0.20689402061E+03 -0.23507463962E+03  0.39585425219E+03  0.15294330000E+03 0.  0.
<mgrwt>
<rscale>  0 0.58439679E+03</rscale>
<asrwt>0</asrwt>
<pdfrwt beam="1">  1        1 0.22901223E+00 0.71544326E+03</pdfrwt>
<pdfrwt beam="2">  1       -1 0.29149382E-01 0.71544326E+03</pdfrwt>
<totfact> 0.73521509E+01</totfact>
</mgrwt>
</event>
<event>
 4    1  0.1521315E-007  0.7581664E+03  0.7818608E-02  0.9809878E-01
          1   -1    0    0  501    0  0.00000000000E+00  0.00000000000E+00  0.12555629003E+04  0.12555629003E+04  0.50400000000E-02 0. -1.
         -1   -1    0    0    0  501 -0.00000000000E+00 -0.00000000000E+00 -0.36506879623E+03  0.36506879627E+03  0.50400000000E-02 0.  1.
    8880023    1    1    2    0    0  0.37053830697E+03 -0.60888239348E+02  0.94497776595E+03  0.12115276303E+04  0.65864270000E+03 0. -1.
    8880022    1    1    2    0    0 -0.37053830697E+03  0.60888239348E+02 -0.54483661857E+02  0.40910406628E+03  0.15294330000E+03 0. -1.
<mgrwt>
<rscale>  0 0.64835123E+03</rscale>
<asrwt>0</asrwt>
<pdfrwt beam="1">  1        1 0.19316352E+00 0.75816635E+03</pdfrwt>
<pdfrwt beam="2">  1       -1 0.56164430E-01 0.75816635E+03</pdfrwt>
<totfact> 0.32103376E+01</totfact>
</mgrwt>
</event>
<event>
 4    1  0.1521315E-007  0.8224725E+03  0.7818608E-02  0.9664160E-01
         -1   -1    0    0    0  501 -0.00000000000E+00  0.00000000000E+00  0.12832109589E+04  0.12832109589E+04  0.50400000000E-02 0.  1.
          1   -1    0    0  501    0  0.00000000000E+00 -0.00000000000E+00 -0.60088707015E+03  0.60088707017E+03  0.50400000000E-02 0. -1.
    8880023    1    1    2    0    0  0.42919849919E+03  0.24174258134E+03 -0.21409308670E+03  0.84988051123E+03  0.65864270000E+03 0.  0.
    8880022    1    1    2    0    0 -0.42919849919E+03 -0.24174258134E+03  0.89641697546E+03  0.10342175179E+04  0.15294330000E+03 0.  0.
<mgrwt>
<rscale>  0 0.73191377E+03</rscale>
<asrwt>0</asrwt>
<pdfrwt beam="1">  1        1 0.92444166E-01 0.82247251E+03</pdfrwt>
<pdfrwt beam="2">  1       -1 0.19741707E+00 0.82247251E+03</pdfrwt>
<totfact> 0.54947350E+00</totfact>
</mgrwt>
</event>
<event>
 4    1  0.1521315E-007  0.8431236E+03  0.7818608E-02  0.9624318E-01
          1   -1    0    0  501    0  0.00000000000E+00  0.00000000000E+00  0.16391798498E+04  0.16391798498E+04  0.50400000000E-02 0. -1.
         -1   -1    0    0    0  501 -0.00000000000E+00 -0.00000000000E+00 -0.36880746583E+03  0.36880746587E+03  0.50400000000E-02 0.  1.
    8880023    1    1    2    0    0 -0.52041520299E+03  0.78836205965E+02  0.11833669820E+04  0.14530019791E+04  0.65864270000E+03 0. -1.
    8880022    1    1    2    0    0  0.52041520299E+03 -0.78836205965E+02  0.87005402003E+02  0.55498533662E+03  0.15294330000E+03 0.  1.
<mgrwt>
<rscale>  0 0.75707328E+03</rscale>
<asrwt>0</asrwt>
<pdfrwt beam="1">  1        1 0.25218151E+00 0.84312356E+03</pdfrwt>
<pdfrwt beam="2">  1       -1 0.56739611E-01 0.84312356E+03</pdfrwt>
<totfact> 0.16901218E+01</totfact>
</mgrwt>
</event>
<event>
 4    1  0.1521315E-007  0.6737812E+03  0.7818608E-02  0.1013086E+00
         -1   -1    0    0    0  501 -0.00000000000E+00  0.00000000000E+00  0.24785487386E+04  0.24785487386E+04  0.50400000000E-02 0.  1.
          1   -1    0    0  501    0  0.00000000000E+00 -0.00000000000E+00 -0.72906872548E+03  0.72906872549E+03  0.50400000000E-02 0. -1.
    8880023    1    1    2    0    0 -0.13186819170E+03 -0.52741355182E+02 -0.56769870560E+03  0.88105782849E+03  0.65864270000E+03 0. -1.
    8880022    1    1    2    0    0  0.13186819170E+03  0.52741355182E+02  0.23171787187E+04  0.23265596356E+04  0.15294330000E+03 0.  0.
<mgrwt>
<rscale>  0 0.50266458E+03</rscale>
<asrwt>0</asrwt>
<pdfrwt beam="1">  1        1 0.11216442E+00 0.67378118E+03</pdfrwt>
<pdfrwt beam="2">  1       -1 0.38131519E+00 0.67378118E+03</pdfrwt>
<totfact> 0.26853881E-01</totfact>
</mgrwt>
</event>
<event>
 4    1  0.1521315E-007  0.7578234E+03  0.7818608E-02  0.9810775E-01
         -1   -1    0    0    0  501 -0.00000000000E+00  0.00000000000E+00  0.36118846009E+03  0.36118846013E+03  0.50400000000E-02 0.  1.
          1   -1    0    0  501    0  0.00000000000E+00 -0.00000000000E+00 -0.97155583974E+03  0.97155583975E+03  0.50400000000E-02 0. -1.
    8880023    1    1    2    0    0 -0.36378485279E+03  0.90258764845E+02 -0.27207328471E+03  0.80518329731E+03  0.65864270000E+03 0. -1.
    8880022    1    1    2    0    0  0.36378485279E+03 -0.90258764845E+02 -0.33829409494E+03  0.52756100257E+03  0.15294330000E+03 0.  0.
<mgrwt>
<rscale>  0 0.64787465E+03</rscale>
<asrwt>0</asrwt>
<pdfrwt beam="1">  1        1 0.14947013E+00 0.75782338E+03</pdfrwt>
<pdfrwt beam="2">  1       -1 0.55567456E-01 0.75782338E+03</pdfrwt>
<totfact> 0.53363842E+01</totfact>
</mgrwt>
</event>
<event>
 4    1  0.1521315E-007  0.9462287E+03  0.7818608E-02  0.9455561E-01
          1   -1    0    0  501    0  0.00000000000E+00  0.00000000000E+00  0.23424125650E+04  0.23424125650E+04  0.50400000000E-02 0. -1.
         -1   -1    0    0    0  501 -0.00000000000E+00 -0.00000000000E+00 -0.33276229772E+03  0.33276229776E+03  0.50400000000E-02 0.  1.
    8880023    1    1    2    0    0 -0.26328220575E+03  0.62627556555E+03  0.16229315446E+04  0.18786313126E+04  0.65864270000E+03 0.  0.
    8880022    1    1    2    0    0  0.26328220575E+03 -0.62627556555E+03  0.38671872267E+03  0.79654355019E+03  0.15294330000E+03 0.  0.
<mgrwt>
<rscale>  0 0.87640936E+03</rscale>
<asrwt>0</asrwt>
<pdfrwt beam="1">  1        1 0.36037116E+00 0.94622873E+03</pdfrwt>
<pdfrwt beam="2">  1       -1 0.51194200E-01 0.94622873E+03</pdfrwt>
<totfact> 0.68320846E+00</totfact>
</mgrwt>
</event>
<event>
 4    1  0.1521315E-007  0.7886828E+03  0.7818608E-02  0.9735823E-01
         -1   -1    0    0    0  501 -0.00000000000E+00  0.00000000000E+00  0.43282140557E+03  0.43282140560E+03  0.50400000000E-02 0.  1.
          1   -1    0    0  501    0  0.00000000000E+00 -0.00000000000E+00 -0.14638891030E+04  0.14638891030E+04  0.50400000000E-02 0. -1.
    8880023    1    1    2    0    0  0.18352689701E+03  0.39310080606E+03 -0.11746168263E+04  0.14148304706E+04  0.65864270000E+03 0. -1.
    8880022    1    1    2    0    0 -0.18352689701E+03 -0.39310080606E+03  0.14354912884E+03  0.48188003804E+03  0.15294330000E+03 0.  0.
<mgrwt>
<rscale>  0 0.68923410E+03</rscale>
<asrwt>0</asrwt>
<pdfrwt beam="1">  1        1 0.22521371E+00 0.78868281E+03</pdfrwt>
<pdfrwt beam="2">  1       -1 0.66587909E-01 0.78868281E+03</pdfrwt>
<totfact> 0.16314404E+01</totfact>
</mgrwt>
</event>
<event>
 4    1  0.1521315E-007  0.7266689E+03  0.7818608E-02  0.9900634E-01
         -1   -1    0    0    0  501 -0.00000000000E+00  0.00000000000E+00  0.26476342411E+03  0.26476342415E+03  0.50400000000E-02 0.  1.
          1   -1    0    0  501    0  0.00000000000E+00 -0.00000000000E+00 -0.24030635310E+04  0.24030635310E+04  0.50400000000E-02 0. -1.
    8880023    1    1    2    0    0  0.27805206722E+03 -0.13009445255E+03 -0.22021647663E+04  0.23189604099E+04  0.65864270000E+03 0. -1.
    8880022    1    1    2    0    0 -0.27805206722E+03  0.13009445255E+03  0.63864659366E+02  0.34886654526E+03  0.15294330000E+03 0.  0.
<mgrwt>
<rscale>  0 0.60230549E+03</rscale>
<asrwt>0</asrwt>
<pdfrwt beam="1">  1        1 0.36970207E+00 0.72666892E+03</pdfrwt>
<pdfrwt beam="2">  1       -1 0.40732836E-01 0.72666892E+03</pdfrwt>
<totfact> 0.98374346E+00</totfact>
</mgrwt>
</event>
<event>
 4    1  0.1521315E-007  0.1334940E+04  0.7818608E-02  0.9035959E-01
          1   -1    0    0  501    0  0.00000000000E+00  0.00000000000E+00  0.14467997200E+04  0.14467997200E+04  0.50400000000E-02 0. -1.
         -1   -1    0    0    0  501 -0.00000000000E+00 -0.00000000000E+00 -0.18989481613E+04  0.18989481613E+04  0.50400000000E-02 0.  1.
    8880023    1    1    2    0    0  0.17720048105E+03 -0.11475427803E+04  0.85920164306E+03  0.15875427909E+04  0.65864270000E+03 0.  0.
    8880022    1    1    2    0    0 -0.17720048105E+03  0.11475427803E+04 -0.13113500844E+04  0.17582050904E+04  0.15294330000E+03 0.  0.
<mgrwt>
<rscale>  0 0.12919674E+04</rscale>
<asrwt>0</asrwt>
<pdfrwt beam="1">  1        1 0.22258457E+00 0.13349399E+04</pdfrwt>
<pdfrwt beam="2">  1       -1 0.29214587E+00 0.13349399E+04</pdfrwt>
<totfact> 0.25536944E-01</totfact>
</mgrwt>
</event>
<event>
 4    1  0.1521315E-007  0.7489131E+03  0.7818608E-02  0.9834705E-01
         -1   -1    0    0    0  501 -0.00000000000E+00  0.00000000000E+00  0.28759872762E+03  0.28759872767E+03  0.50400000000E-02 0.  1.
          1   -1    0    0  501    0  0.00000000000E+00 -0.00000000000E+00 -0.20798705740E+04  0.20798705740E+04  0.50400000000E-02 0. -1.
    8880023    1    1    2    0    0  0.29744999931E+03 -0.19642823875E+03 -0.18304331376E+04  0.19777149018E+04  0.65864270000E+03 0. -1.
    8880022    1    1    2    0    0 -0.29744999931E+03  0.19642823875E+03  0.38161291265E+02  0.38975439989E+03  0.15294330000E+03 0.  0.
<mgrwt>
<rscale>  0 0.63532855E+03</rscale>
<asrwt>0</asrwt>
<pdfrwt beam="1">  1        1 0.31998008E+00 0.74891305E+03</pdfrwt>
<pdfrwt beam="2">  1       -1 0.44245959E-01 0.74891305E+03</pdfrwt>
<totfact> 0.13890590E+01</totfact>
</mgrwt>
</event>
<event>
 4    1  0.1521315E-007  0.6936642E+03  0.7818608E-02  0.1002457E+00
          1   -1    0    0  501    0  0.00000000000E+00  0.00000000000E+00  0.11905625091E+04  0.11905625091E+04  0.50400000000E-02 0. -1.
         -1   -1    0    0    0  501 -0.00000000000E+00 -0.00000000000E+00 -0.23551128204E+03  0.23551128209E+03  0.50400000000E-02 0.  1.
    8880023    1    1    2    0    0  0.20600748869E+03 -0.70147640408E+02  0.92815763417E+03  0.11587262735E+04  0.65864270000E+03 0. -1.
    8880022    1    1    2    0    0 -0.20600748869E+03  0.70147640408E+02  0.26893592901E+02  0.26734751767E+03  0.15294330000E+03 0.  0.
<mgrwt>
<rscale>  0 0.54585696E+03</rscale>
<asrwt>0</asrwt>
<pdfrwt beam="1">  1        1 0.18316346E+00 0.69366417E+03</pdfrwt>
<pdfrwt beam="2">  1       -1 0.36232505E-01 0.69366417E+03</pdfrwt>
<totfact> 0.81314919E+01</totfact>
</mgrwt>
</event>
<event>
 4    1  0.1521315E-007  0.2093019E+04  0.7818608E-02  0.8575723E-01
          1   -1    0    0  501    0  0.00000000000E+00  0.00000000000E+00  0.26132333829E+04  0.26132333829E+04  0.50400000000E-02 0. -1.
         -1   -1    0    0    0  501 -0.00000000000E+00 -0.00000000000E+00 -0.18976270500E+04  0.18976270500E+04  0.50400000000E-02 0.  1.
    8880023    1    1    2    0    0  0.37793156745E+02  0.19863262454E+04 -0.53247071055E+03  0.21596887600E+04  0.65864270000E+03 0.  0.
    8880022    1    1    2    0    0 -0.37793156745E+02 -0.19863262454E+04  0.12480770435E+04  0.23511716729E+04  0.15294330000E+03 0.  0.
<mgrwt>
<rscale>  0 0.20674405E+04</rscale>
<asrwt>0</asrwt>
<pdfrwt beam="1">  1        1 0.40203590E+00 0.20930195E+04</pdfrwt>
<pdfrwt beam="2">  1       -1 0.29194262E+00 0.20930195E+04</pdfrwt>
<totfact> 0.36992451E-02</totfact>
</mgrwt>
</event>
<event>
 4    1  0.1521315E-007  0.7976196E+03  0.7818608E-02  0.9715967E-01
         -1   -1    0    0    0  501 -0.00000000000E+00  0.00000000000E+00  0.10691234250E+04  0.10691234250E+04  0.50400000000E-02 0.  1.
          1   -1    0    0  501    0  0.00000000000E+00 -0.00000000000E+00 -0.86915378013E+03  0.86915378014E+03  0.50400000000E-02 0. -1.
    8880023    1    1    2    0    0 -0.16609837340E+03  0.41808876712E+03 -0.60664933548E+03  0.10021080328E+04  0.65864270000E+03 0. -1.
    8880022    1    1    2    0    0  0.16609837340E+03 -0.41808876712E+03  0.80661898032E+03  0.93616917235E+03  0.15294330000E+03 0.  0.
<mgrwt>
<rscale>  0 0.70074049E+03</rscale>
<asrwt>0</asrwt>
<pdfrwt beam="1">  1        1 0.13371597E+00 0.79761964E+03</pdfrwt>
<pdfrwt beam="2">  1       -1 0.16448053E+00 0.79761964E+03</pdfrwt>
<totfact> 0.53660412E+00</totfact>
</mgrwt>
</event>
<event>
 4    1  0.1521315E-007  0.9036473E+03  0.7818608E-02  0.9520202E-01
         -1   -1    0    0    0  501 -0.00000000000E+00  0.00000000000E+00  0.29318429357E+04  0.29318429357E+04  0.50400000000E-02 0.  1.
          1   -1    0    0  501    0  0.00000000000E+00 -0.00000000000E+00 -0.32928001153E+03  0.32928001157E+03  0.50400000000E-02 0. -1.
    8880023    1    1    2    0    0  0.48577317003E+03  0.38313537957E+03  0.43706987945E+03  0.10037970799E+04  0.65864270000E+03 0.  0.
    8880022    1    1    2    0    0 -0.48577317003E+03 -0.38313537957E+03  0.21654930447E+04  0.22573258674E+04  0.15294330000E+03 0.  0.
<mgrwt>
<rscale>  0 0.82810682E+03</rscale>
<asrwt>0</asrwt>
<pdfrwt beam="1">  1        1 0.50658463E-01 0.90364733E+03</pdfrwt>
<pdfrwt beam="2">  1       -1 0.45105276E+00 0.90364733E+03</pdfrwt>
<totfact> 0.25754605E-01</totfact>
</mgrwt>
</event>
<event>
 4    1  0.1521315E-007  0.6894560E+03  0.7818608E-02  0.1004412E+00
          1   -1    0    0  501    0  0.00000000000E+00  0.00000000000E+00  0.80329477494E+03  0.80329477496E+03  0.50400000000E-02 0. -1.
         -1   -1    0    0    0  501 -0.00000000000E+00 -0.00000000000E+00 -0.60549811668E+03  0.60549811671E+03  0.50400000000E-02 0.  1.
    8880023    1    1    2    0    0 -0.39815123519E+02 -0.19988529408E+03  0.61238804239E+03  0.92215437730E+03  0.65864270000E+03 0. -1.
    8880022    1    1    2    0    0  0.39815123519E+02  0.19988529408E+03 -0.41459138413E+03  0.48663851436E+03  0.15294330000E+03 0.  0.
<mgrwt>
<rscale>  0 0.53757177E+03</rscale>
<asrwt>0</asrwt>
<pdfrwt beam="1">  1        1 0.12358381E+00 0.68945600E+03</pdfrwt>
<pdfrwt beam="2">  1       -1 0.93153557E-01 0.68945600E+03</pdfrwt>
<totfact> 0.25400505E+01</totfact>
</mgrwt>
</event>
<event>
 4    1  0.1521315E-007  0.9483328E+03  0.7818608E-02  0.9452517E-01
          1   -1    0    0  501    0  0.00000000000E+00  0.00000000000E+00  0.14323054412E+04  0.14323054412E+04  0.50400000000E-02 0. -1.
         -1   -1    0    0    0  501 -0.00000000000E+00 -0.00000000000E+00 -0.54311647480E+03  0.54311647482E+03  0.50400000000E-02 0.  1.
    8880023    1    1    2    0    0  0.20730890786E+03 -0.65003686527E+03  0.85258351659E+03  0.12752387104E+04  0.65864270000E+03 0. -1.
    8880022    1    1    2    0    0 -0.20730890786E+03  0.65003686527E+03  0.36605449828E+02  0.70018320564E+03  0.15294330000E+03 0.  1.
<mgrwt>
<rscale>  0 0.87876940E+03</rscale>
<asrwt>0</asrwt>
<pdfrwt beam="1">  1        1 0.22035468E+00 0.94833281E+03</pdfrwt>
<pdfrwt beam="2">  1       -1 0.83556381E-01 0.94833281E+03</pdfrwt>
<totfact> 0.10475447E+01</totfact>
</mgrwt>
</event>
<event>
 4    1  0.1521315E-007  0.6692421E+03  0.7818608E-02  0.1016212E+00
         -1   -1    0    0    0  501 -0.00000000000E+00  0.00000000000E+00  0.93346480149E+02  0.93346480285E+02  0.50400000000E-02 0.  1.
          1   -1    0    0  501    0  0.00000000000E+00 -0.00000000000E+00 -0.20594547643E+04  0.20594547643E+04  0.50400000000E-02 0. -1.
    8880023    1    1    2    0    0  0.29032039536E+02  0.11503038004E+03 -0.16692718375E+04  0.17984308498E+04  0.65864270000E+03 0. -1.
    8880022    1    1    2    0    0 -0.29032039536E+02 -0.11503038004E+03 -0.29683644662E+03  0.35437039479E+03  0.15294330000E+03 0.  0.
<mgrwt>
<rscale>  0 0.49078678E+03</rscale>
<asrwt>0</asrwt>
<pdfrwt beam="1">  1        1 0.31683916E+00 0.66924215E+03</pdfrwt>
<pdfrwt beam="2">  1       -1 0.14360999E-01 0.66924215E+03</pdfrwt>
<totfact> 0.99761647E+01</totfact>
</mgrwt>
</event>
<event>
 4    1  0.1521315E-007  0.8044913E+03  0.7818608E-02  0.9701168E-01
         -1   -1    0    0    0  501 -0.00000000000E+00  0.00000000000E+00  0.10998101081E+04  0.10998101081E+04  0.50400000000E-02 0.  1.
          1   -1    0    0  501    0  0.00000000000E+00 -0.00000000000E+00 -0.14749609581E+04  0.14749609581E+04  0.50400000000E-02 0. -1.
    8880023    1    1    2    0    0 -0.45529380669E+03  0.78124998042E+02 -0.13005340071E+04  0.15292465059E+04  0.65864270000E+03 0. -1.
    8880022    1    1    2    0    0  0.45529380669E+03 -0.78124998042E+02  0.92538315718E+03  0.10455245604E+04  0.15294330000E+03 0.  0.
<mgrwt>
<rscale>  0 0.70947299E+03</rscale>
<asrwt>0</asrwt>
<pdfrwt beam="1">  1        1 0.22691707E+00 0.80449125E+03</pdfrwt>
<pdfrwt beam="2">  1       -1 0.16920155E+00 0.80449125E+03</pdfrwt>
<totfact> 0.17618012E+00</totfact>
</mgrwt>
</event>
<event>
 4    1  0.1521315E-007  0.8249900E+03  0.7818608E-02  0.9659160E-01
          1   -1    0    0  501    0  0.00000000000E+00  0.00000000000E+00  0.21143251311E+04  0.21143251311E+04  0.50400000000E-02 0. -1.
         -1   -1    0    0    0  501 -0.00000000000E+00 -0.00000000000E+00 -0.32826660598E+03  0.32826660602E+03  0.50400000000E-02 0.  1.
    8880023    1    1    2    0    0  0.31890482948E+03  0.38091728432E+03  0.17339281232E+04  0.19201862437E+04  0.65864270000E+03 0.  0.
    8880022    1    1    2    0    0 -0.31890482948E+03 -0.38091728432E+03  0.52130401937E+02  0.52240549344E+03  0.15294330000E+03 0.  0.
<mgrwt>
<rscale>  0 0.73501322E+03</rscale>
<asrwt>0</asrwt>
<pdfrwt beam="1">  1        1 0.32528078E+00 0.82498998E+03</pdfrwt>
<pdfrwt beam="2">  1       -1 0.50502556E-01 0.82498998E+03</pdfrwt>
<totfact> 0.10163334E+01</totfact>
</mgrwt>
</event>
<event>
 4    1  0.1521315E-007  0.6899779E+03  0.7818608E-02  0.1004163E+00
          1   -1    0    0  501    0  0.00000000000E+00  0.00000000000E+00  0.17577019606E+04  0.17577019606E+04  0.50400000000E-02 0. -1.
         -1   -1    0    0    0  501 -0.00000000000E+00 -0.00000000000E+00 -0.65443828376E+03  0.65443828378E+03  0.50400000000E-02 0.  1.
    8880023    1    1    2    0    0 -0.25059211510E+02  0.20403746739E+03  0.16608671186E+04  0.17984852082E+04  0.65864270000E+03 0. -1.
    8880022    1    1    2    0    0  0.25059211510E+02 -0.20403746739E+03 -0.55760344175E+03  0.61365503620E+03  0.15294330000E+03 0.  0.
<mgrwt>
<rscale>  0 0.53861874E+03</rscale>
<asrwt>0</asrwt>
<pdfrwt beam="1">  1        1 0.27041569E+00 0.68997787E+03</pdfrwt>
<pdfrwt beam="2">  1       -1 0.10068281E+00 0.68997787E+03</pdfrwt>
<totfact> 0.43223533E+00</totfact>
</mgrwt>
</event>
<event>
 4    1  0.1521315E-007  0.8023227E+03  0.7818608E-02  0.9705796E-01
          1   -1    0    0  501    0  0.00000000000E+00  0.00000000000E+00  0.11640915733E+04  0.11640915733E+04  0.50400000000E-02 0. -1.
         -1   -1    0    0    0  501 -0.00000000000E+00 -0.00000000000E+00 -0.94605520921E+03  0.94605520923E+03  0.50400000000E-02 0.  1.
    8880023    1    1    2    0    0 -0.48566241188E+02  0.45557962169E+03  0.94355225206E+03  0.12385525948E+04  0.65864270000E+03 0. -1.
    8880022    1    1    2    0    0  0.48566241188E+02 -0.45557962169E+03 -0.72551588794E+03  0.87159418777E+03  0.15294330000E+03 0.  0.
<mgrwt>
<rscale>  0 0.70672730E+03</rscale>
<asrwt>0</asrwt>
<pdfrwt beam="1">  1        1 0.17909101E+00 0.80232268E+03</pdfrwt>
<pdfrwt beam="2">  1       -1 0.14554696E+00 0.80232268E+03</pdfrwt>
<totfact> 0.44251702E+00</totfact>
</mgrwt>
</event>
<event>
 4    1  0.1521315E-007  0.7849326E+03  0.7818608E-02  0.9744375E-01
         -1   -1    0    0    0  501 -0.00000000000E+00  0.00000000000E+00  0.58043363907E+03  0.58043363909E+03  0.50400000000E-02 0.  1.
          1   -1    0    0  501    0  0.00000000000E+00 -0.00000000000E+00 -0.16183201406E+04  0.16183201407E+04  0.50400000000E-02 0. -1.
    8880023    1    1    2    0    0 -0.38361134667E+03  0.18748682487E+03 -0.14088955645E+04  0.16127944360E+04  0.65864270000E+03 0.  0.
    8880022    1    1    2    0    0  0.38361134667E+03 -0.18748682487E+03  0.37100906291E+03  0.58595934379E+03  0.15294330000E+03 0.  0.
<mgrwt>
<rscale>  0 0.68435072E+03</rscale>
<asrwt>0</asrwt>
<pdfrwt beam="1">  1        1 0.24897233E+00 0.78493260E+03</pdfrwt>
<pdfrwt beam="2">  1       -1 0.89297484E-01 0.78493260E+03</pdfrwt>
<totfact> 0.69043886E+00</totfact>
</mgrwt>
</event>
<event>
 4    1  0.1521315E-007  0.9870817E+03  0.7818608E-02  0.9398657E-01
          1   -1    0    0  501    0  0.00000000000E+00  0.00000000000E+00  0.11196648407E+04  0.11196648407E+04  0.50400000000E-02 0. -1.
         -1   -1    0    0    0  501 -0.00000000000E+00 -0.00000000000E+00 -0.70090517077E+03  0.70090517079E+03  0.50400000000E-02 0.  1.
    8880023    1    1    2    0    0  0.53536713016E+03  0.50388703231E+03  0.41195988466E+03  0.10695986435E+04  0.65864270000E+03 0.  0.
    8880022    1    1    2    0    0 -0.53536713016E+03 -0.50388703231E+03  0.67997852458E+01  0.75097136795E+03  0.15294330000E+03 0.  0.
<mgrwt>
<rscale>  0 0.92186266E+03</rscale>
<asrwt>0</asrwt>
<pdfrwt beam="1">  1        1 0.17225613E+00 0.98708171E+03</pdfrwt>
<pdfrwt beam="2">  1       -1 0.10783156E+00 0.98708171E+03</pdfrwt>
<totfact> 0.98455722E+00</totfact>
</mgrwt>
</event>
<event>
 4    1  0.1521315E-007  0.1172992E+04  0.7818608E-02  0.9183834E-01
          1   -1    0    0  501    0  0.00000000000E+00  0.00000000000E+00  0.17148695825E+04  0.17148695825E+04  0.50400000000E-02 0. -1.
         -1   -1    0    0    0  501 -0.00000000000E+00 -0.00000000000E+00 -0.19701701532E+04  0.19701701532E+04  0.50400000000E-02 0.  1.
    8880023    1    1    2    0    0 -0.55797139618E+03  0.79420901448E+03  0.13589976122E+04  0.17952116181E+04  0.65864270000E+03 0. -1.
    8880022    1    1    2    0    0  0.55797139618E+03 -0.79420901448E+03 -0.16142981829E+04  0.18898281176E+04  0.15294330000E+03 0.  0.
<mgrwt>
<rscale>  0 0.11221860E+04</rscale>
<asrwt>0</asrwt>
<pdfrwt beam="1">  1        1 0.26382609E+00 0.11729920E+04</pdfrwt>
<pdfrwt beam="2">  1       -1 0.30310310E+00 0.11729920E+04</pdfrwt>
<totfact> 0.14519043E-01</totfact>
</mgrwt>
</event>
<event>
 4    1  0.1521315E-007  0.1548146E+04  0.7818608E-02  0.8876366E-01
          1   -1    0    0  501    0  0.00000000000E+00  0.00000000000E+00  0.30620205658E+04  0.30620205659E+04  0.50400000000E-02 0. -1.
         -1   -1    0    0    0  501 -0.00000000000E+00 -0.00000000000E+00 -0.85452578849E+03  0.85452578851E+03  0.50400000000E-02 0.  1.
    8880023    1    1    2    0    0  0.29982910949E+03 -0.13685933494E+04  0.35404938746E+03  0.15881141099E+04  0.65864270000E+03 0.  1.
    8880022    1    1    2    0    0 -0.29982910949E+03  0.13685933494E+04  0.18534453899E+04  0.23284322445E+04  0.15294330000E+03 0. -1.
<mgrwt>
<rscale>  0 0.15122219E+04</rscale>
<asrwt>0</asrwt>
<pdfrwt beam="1">  1        1 0.47108007E+00 0.15481458E+04</pdfrwt>
<pdfrwt beam="2">  1       -1 0.13146551E+00 0.15481458E+04</pdfrwt>
<totfact> 0.25187800E-01</totfact>
</mgrwt>
</event>
<event>
 4    1  0.1521315E-007  0.7759546E+03  0.7818608E-02  0.9765427E-01
          1   -1    0    0  501    0  0.00000000000E+00  0.00000000000E+00  0.95161506345E+03  0.95161506346E+03  0.50400000000E-02 0. -1.
         -1   -1    0    0    0  501 -0.00000000000E+00 -0.00000000000E+00 -0.88890761603E+03  0.88890761604E+03  0.50400000000E-02 0.  1.
    8880023    1    1    2    0    0 -0.28980233177E+03  0.29036170655E+03  0.71485051623E+03  0.10550434962E+04  0.65864270000E+03 0. -1.
    8880022    1    1    2    0    0  0.28980233177E+03 -0.29036170655E+03 -0.65214306881E+03  0.78547918327E+03  0.15294330000E+03 0.  0.
<mgrwt>
<rscale>  0 0.67251395E+03</rscale>
<asrwt>0</asrwt>
<pdfrwt beam="1">  1        1 0.14640232E+00 0.77595459E+03</pdfrwt>
<pdfrwt beam="2">  1       -1 0.13675502E+00 0.77595459E+03</pdfrwt>
<totfact> 0.75835765E+00</totfact>
</mgrwt>
</event>
<event>
 4    1  0.1521315E-007  0.8699535E+03  0.7818608E-02  0.9576098E-01
         -1   -1    0    0    0  501 -0.00000000000E+00  0.00000000000E+00  0.88866279428E+03  0.88866279429E+03  0.50400000000E-02 0.  1.
          1   -1    0    0  501    0  0.00000000000E+00 -0.00000000000E+00 -0.17560755815E+04  0.17560755815E+04  0.50400000000E-02 0. -1.
    8880023    1    1    2    0    0 -0.50467165284E+03 -0.26137219525E+03 -0.15290498526E+04  0.17592079353E+04  0.65864270000E+03 0. -1.
    8880022    1    1    2    0    0  0.50467165284E+03  0.26137219525E+03  0.66163706541E+03  0.88553044046E+03  0.15294330000E+03 0.  0.
<mgrwt>
<rscale>  0 0.78898611E+03</rscale>
<asrwt>0</asrwt>
<pdfrwt beam="1">  1        1 0.27016547E+00 0.86995351E+03</pdfrwt>
<pdfrwt beam="2">  1       -1 0.13671735E+00 0.86995351E+03</pdfrwt>
<totfact> 0.20008320E+00</totfact>
</mgrwt>
</event>
<event>
 4    1  0.1521315E-007  0.7717733E+03  0.7818608E-02  0.9775529E-01
          1   -1    0    0  501    0  0.00000000000E+00  0.00000000000E+00  0.91677538448E+03  0.91677538450E+03  0.50400000000E-02 0. -1.
         -1   -1    0    0    0  501 -0.00000000000E+00 -0.00000000000E+00 -0.90857039173E+03  0.90857039175E+03  0.50400000000E-02 0.  1.
    8880023    1    1    2    0    0  0.17711567988E+03 -0.36118387445E+03  0.67927700777E+03  0.10281299601E+04  0.65864270000E+03 0. -1.
    8880022    1    1    2    0    0 -0.17711567988E+03  0.36118387445E+03 -0.67107201502E+03  0.79721581618E+03  0.15294330000E+03 0.  0.
<mgrwt>
<rscale>  0 0.66692490E+03</rscale>
<asrwt>0</asrwt>
<pdfrwt beam="1">  1        1 0.14104237E+00 0.77177326E+03</pdfrwt>
<pdfrwt beam="2">  1       -1 0.13978006E+00 0.77177326E+03</pdfrwt>
<totfact> 0.76451004E+00</totfact>
</mgrwt>
</event>
<event>
 4    1  0.1521315E-007  0.9185183E+03  0.7818608E-02  0.9496935E-01
         -1   -1    0    0    0  501 -0.00000000000E+00  0.00000000000E+00  0.52789137211E+03  0.52789137214E+03  0.50400000000E-02 0.  1.
          1   -1    0    0  501    0  0.00000000000E+00 -0.00000000000E+00 -0.12656760441E+04  0.12656760441E+04  0.50400000000E-02 0. -1.
    8880023    1    1    2    0    0 -0.59050819984E+03  0.24731711449E+03 -0.65938487479E+03  0.11306919601E+04  0.65864270000E+03 0.  0.
    8880022    1    1    2    0    0  0.59050819984E+03 -0.24731711449E+03 -0.78399797199E+02  0.66287545618E+03  0.15294330000E+03 0.  0.
<mgrwt>
<rscale>  0 0.84510196E+03</rscale>
<asrwt>0</asrwt>
<pdfrwt beam="1">  1        1 0.19471939E+00 0.91851832E+03</pdfrwt>
<pdfrwt beam="2">  1       -1 0.81214058E-01 0.91851832E+03</pdfrwt>
<totfact> 0.14643707E+01</totfact>
</mgrwt>
</event>
<event>
 4    1  0.1521315E-007  0.9705996E+03  0.7818608E-02  0.9421075E-01
         -1   -1    0    0    0  501 -0.00000000000E+00  0.00000000000E+00  0.13401612776E+04  0.13401612777E+04  0.50400000000E-02 0.  1.
          1   -1    0    0  501    0  0.00000000000E+00 -0.00000000000E+00 -0.12656128665E+04  0.12656128665E+04  0.50400000000E-02 0. -1.
    8880023    1    1    2    0    0  0.28581194571E+03  0.65311940647E+03 -0.94346066093E+03  0.13535810476E+04  0.65864270000E+03 0. -1.
    8880022    1    1    2    0    0 -0.28581194571E+03 -0.65311940647E+03  0.10180090720E+04  0.12521930966E+04  0.15294330000E+03 0.  0.
<mgrwt>
<rscale>  0 0.90361372E+03</rscale>
<asrwt>0</asrwt>
<pdfrwt beam="1">  1        1 0.19470967E+00 0.97059963E+03</pdfrwt>
<pdfrwt beam="2">  1       -1 0.20617866E+00 0.97059963E+03</pdfrwt>
<totfact> 0.13202690E+00</totfact>
</mgrwt>
</event>
<event>
 4    1  0.1521315E-007  0.7430746E+03  0.7818608E-02  0.9851080E-01
         -1   -1    0    0    0  501 -0.00000000000E+00  0.00000000000E+00  0.71920626783E+03  0.71920626784E+03  0.50400000000E-02 0.  1.
          1   -1    0    0  501    0  0.00000000000E+00 -0.00000000000E+00 -0.12573415288E+04  0.12573415288E+04  0.50400000000E-02 0. -1.
    8880023    1    1    2    0    0 -0.41438497587E+02 -0.34151509894E+03 -0.10835180603E+04  0.13138383862E+04  0.65864270000E+03 0.  0.
    8880022    1    1    2    0    0  0.41438497587E+02  0.34151509894E+03  0.54538279931E+03  0.66270941044E+03  0.15294330000E+03 0.  0.
<mgrwt>
<rscale>  0 0.62691896E+03</rscale>
<asrwt>0</asrwt>
<pdfrwt beam="1">  1        1 0.19343716E+00 0.74307464E+03</pdfrwt>
<pdfrwt beam="2">  1       -1 0.11064712E+00 0.74307464E+03</pdfrwt>
<totfact> 0.75823488E+00</totfact>
</mgrwt>
</event>
<event>
 4    1  0.1521315E-007  0.9149447E+03  0.7818608E-02  0.9502454E-01
          1   -1    0    0  501    0  0.00000000000E+00  0.00000000000E+00  0.16197589708E+04  0.16197589708E+04  0.50400000000E-02 0. -1.
         -1   -1    0    0    0  501 -0.00000000000E+00 -0.00000000000E+00 -0.93609819061E+03  0.93609819063E+03  0.50400000000E-02 0.  1.
    8880023    1    1    2    0    0 -0.14027914536E+03 -0.61938299125E+03  0.13447414039E+04  0.16264849148E+04  0.65864270000E+03 0. -1.
    8880022    1    1    2    0    0  0.14027914536E+03  0.61938299125E+03 -0.66108062380E+03  0.92937224655E+03  0.15294330000E+03 0.  0.
<mgrwt>
<rscale>  0 0.84103121E+03</rscale>
<asrwt>0</asrwt>
<pdfrwt beam="1">  1        1 0.24919369E+00 0.91494466E+03</pdfrwt>
<pdfrwt beam="2">  1       -1 0.14401511E+00 0.91494466E+03</pdfrwt>
<totfact> 0.21445356E+00</totfact>
</mgrwt>
</event>
<event>
 4    1  0.1521315E-007  0.8777290E+03  0.7818608E-02  0.9562773E-01
          1   -1    0    0  501    0  0.00000000000E+00  0.00000000000E+00  0.62068045806E+03  0.62068045809E+03  0.50400000000E-02 0. -1.
         -1   -1    0    0    0  501 -0.00000000000E+00 -0.00000000000E+00 -0.12270652160E+04  0.12270652160E+04  0.50400000000E-02 0.  1.
    8880023    1    1    2    0    0 -0.41844440181E+03  0.40187341803E+03  0.14136340953E+03  0.88903980864E+03  0.65864270000E+03 0. -1.
    8880022    1    1    2    0    0  0.41844440181E+03 -0.40187341803E+03 -0.74774816749E+03  0.95870586548E+03  0.15294330000E+03 0.  1.
<mgrwt>
<rscale>  0 0.79809865E+03</rscale>
<asrwt>0</asrwt>
<pdfrwt beam="1">  1        1 0.95489302E-01 0.87772898E+03</pdfrwt>
<pdfrwt beam="2">  1       -1 0.18877926E+00 0.87772898E+03</pdfrwt>
<totfact> 0.59778493E+00</totfact>
</mgrwt>
</event>
<event>
 4    1  0.1521315E-007  0.7423179E+03  0.7818608E-02  0.9853246E-01
          1   -1    0    0  501    0  0.00000000000E+00  0.00000000000E+00  0.11979405200E+04  0.11979405200E+04  0.50400000000E-02 0. -1.
         -1   -1    0    0    0  501 -0.00000000000E+00 -0.00000000000E+00 -0.41515253588E+03  0.41515253591E+03  0.50400000000E-02 0.  1.
    8880023    1    1    2    0    0 -0.23209007902E+03 -0.25171380198E+03  0.94738694165E+03  0.12035688042E+04  0.65864270000E+03 0.  0.
    8880022    1    1    2    0    0  0.23209007902E+03  0.25171380198E+03 -0.16459895758E+03  0.40952425171E+03  0.15294330000E+03 0.  0.
<mgrwt>
<rscale>  0 0.62581690E+03</rscale>
<asrwt>0</asrwt>
<pdfrwt beam="1">  1        1 0.18429854E+00 0.74231789E+03</pdfrwt>
<pdfrwt beam="2">  1       -1 0.63869621E-01 0.74231789E+03</pdfrwt>
<totfact> 0.27465076E+01</totfact>
</mgrwt>
</event>
<event>
 4    1  0.1521315E-007  0.8848588E+03  0.7818608E-02  0.9550789E-01
         -1   -1    0    0    0  501 -0.00000000000E+00  0.00000000000E+00  0.11126632344E+04  0.11126632344E+04  0.50400000000E-02 0.  1.
          1   -1    0    0  501    0  0.00000000000E+00 -0.00000000000E+00 -0.11127451909E+04  0.11127451909E+04  0.50400000000E-02 0. -1.
    8880023    1    1    2    0    0  0.56295202095E+03  0.17958270029E+03 -0.81787556475E+03  0.12049462933E+04  0.65864270000E+03 0. -1.
    8880022    1    1    2    0    0 -0.56295202095E+03 -0.17958270029E+03  0.81779360822E+03  0.10204621320E+04  0.15294330000E+03 0.  0.
<mgrwt>
<rscale>  0 0.80640742E+03</rscale>
<asrwt>0</asrwt>
<pdfrwt beam="1">  1        1 0.17119157E+00 0.88485882E+03</pdfrwt>
<pdfrwt beam="2">  1       -1 0.17117896E+00 0.88485882E+03</pdfrwt>
<totfact> 0.30482199E+00</totfact>
</mgrwt>
</event>
<event>
 4    1  0.1521315E-007  0.7181845E+03  0.7818608E-02  0.9928778E-01
          1   -1    0    0  501    0  0.00000000000E+00  0.00000000000E+00  0.63644025986E+03  0.63644025988E+03  0.50400000000E-02 0. -1.
         -1   -1    0    0    0  501 -0.00000000000E+00 -0.00000000000E+00 -0.11188852463E+04  0.11188852463E+04  0.50400000000E-02 0.  1.
    8880023    1    1    2    0    0  0.19042664183E+03  0.21381410009E+03  0.39508369994E+03  0.81968293354E+03  0.65864270000E+03 0. -1.
    8880022    1    1    2    0    0 -0.19042664183E+03 -0.21381410009E+03 -0.87752868634E+03  0.93564257261E+03  0.15294330000E+03 0.  1.
<mgrwt>
<rscale>  0 0.58886652E+03</rscale>
<asrwt>0</asrwt>
<pdfrwt beam="1">  1        1 0.97913886E-01 0.71818450E+03</pdfrwt>
<pdfrwt beam="2">  1       -1 0.17213619E+00 0.71818450E+03</pdfrwt>
<totfact> 0.77334511E+00</totfact>
</mgrwt>
</event>
<event>
 4    1  0.1521315E-007  0.7027999E+03  0.7818608E-02  0.9985778E-01
          1   -1    0    0  501    0  0.00000000000E+00  0.00000000000E+00  0.10554642279E+04  0.10554642280E+04  0.50400000000E-02 0. -1.
         -1   -1    0    0    0  501 -0.00000000000E+00 -0.00000000000E+00 -0.29714907670E+03  0.29714907675E+03  0.50400000000E-02 0.  1.
    8880023    1    1    2    0    0 -0.33062825392E+02 -0.24294938716E+03  0.79523446867E+03  0.10612848918E+04  0.65864270000E+03 0. -1.
    8880022    1    1    2    0    0  0.33062825392E+02  0.24294938716E+03 -0.36919317431E+02  0.29132841290E+03  0.15294330000E+03 0.  0.
<mgrwt>
<rscale>  0 0.56278250E+03</rscale>
<asrwt>0</asrwt>
<pdfrwt beam="1">  1        1 0.16237911E+00 0.70279994E+03</pdfrwt>
<pdfrwt beam="2">  1       -1 0.45715243E-01 0.70279994E+03</pdfrwt>
<totfact> 0.66937209E+01</totfact>
</mgrwt>
</event>
<event>
 4    1  0.1521315E-007  0.6586908E+03  0.7818608E-02  0.1025540E+00
         -1   -1    0    0    0  501 -0.00000000000E+00  0.00000000000E+00  0.23965117478E+03  0.23965117483E+03  0.50400000000E-02 0.  1.
          1   -1    0    0  501    0  0.00000000000E+00 -0.00000000000E+00 -0.80648980621E+03  0.80648980623E+03  0.50400000000E-02 0. -1.
    8880023    1    1    2    0    0  0.22588756236E-01  0.79634506018E+01 -0.59823176861E+03  0.88980608690E+03  0.65864270000E+03 0. -1.
    8880022    1    1    2    0    0 -0.22588756236E-01 -0.79634506018E+01  0.31393137172E+02  0.15633489416E+03  0.15294330000E+03 0.  0.
<mgrwt>
<rscale>  0 0.45739437E+03</rscale>
<asrwt>0</asrwt>
<pdfrwt beam="1">  1        1 0.12407535E+00 0.65869084E+03</pdfrwt>
<pdfrwt beam="2">  1       -1 0.36869412E-01 0.65869084E+03</pdfrwt>
<totfact> 0.15750392E+02</totfact>
</mgrwt>
</event>
<event>
 4    1  0.1521315E-007  0.9159250E+03  0.7818608E-02  0.9500936E-01
          1   -1    0    0  501    0  0.00000000000E+00  0.00000000000E+00  0.73135530652E+03  0.73135530654E+03  0.50400000000E-02 0. -1.
         -1   -1    0    0    0  501 -0.00000000000E+00 -0.00000000000E+00 -0.29647162173E+04  0.29647162173E+04  0.50400000000E-02 0.  1.
    8880023    1    1    2    0    0  0.62814153580E+03 -0.10269665668E+03  0.38763005873E+03  0.99457310490E+03  0.65864270000E+03 0. -1.
    8880022    1    1    2    0    0 -0.62814153580E+03  0.10269665668E+03 -0.26209909696E+04  0.27014984190E+04  0.15294330000E+03 0.  0.
<mgrwt>
<rscale>  0 0.84214872E+03</rscale>
<asrwt>0</asrwt>
<pdfrwt beam="1">  1        1 0.11251620E+00 0.91592500E+03</pdfrwt>
<pdfrwt beam="2">  1       -1 0.45611018E+00 0.91592500E+03</pdfrwt>
<totfact> 0.77974116E-02</totfact>
</mgrwt>
</event>
<event>
 4    1  0.1521315E-007  0.7294917E+03  0.7818608E-02  0.9891688E-01
         -1   -1    0    0    0  501 -0.00000000000E+00  0.00000000000E+00  0.36720580558E+03  0.36720580561E+03  0.50400000000E-02 0.  1.
          1   -1    0    0  501    0  0.00000000000E+00 -0.00000000000E+00 -0.11988028092E+04  0.11988028092E+04  0.50400000000E-02 0. -1.
    8880023    1    1    2    0    0 -0.14753197591E+03  0.27673488891E+03 -0.94980422342E+03  0.11976168635E+04  0.65864270000E+03 0.  0.
    8880022    1    1    2    0    0  0.14753197591E+03 -0.27673488891E+03  0.11820721976E+03  0.36839175136E+03  0.15294330000E+03 0.  0.
<mgrwt>
<rscale>  0 0.60665839E+03</rscale>
<asrwt>0</asrwt>
<pdfrwt beam="1">  1        1 0.18443120E+00 0.72949166E+03</pdfrwt>
<pdfrwt beam="2">  1       -1 0.56493201E-01 0.72949166E+03</pdfrwt>
<totfact> 0.34982443E+01</totfact>
</mgrwt>
</event>
<event>
 4    1  0.1521315E-007  0.8916294E+03  0.7818608E-02  0.9539605E-01
         -1   -1    0    0    0  501 -0.00000000000E+00  0.00000000000E+00  0.22617059355E+03  0.22617059360E+03  0.50400000000E-02 0.  1.
          1   -1    0    0  501    0  0.00000000000E+00 -0.00000000000E+00 -0.27319778266E+04  0.27319778266E+04  0.50400000000E-02 0. -1.
    8880023    1    1    2    0    0 -0.39616092881E+03  0.45193957255E+03 -0.10611935581E+04  0.13860500831E+04  0.65864270000E+03 0.  0.
    8880022    1    1    2    0    0  0.39616092881E+03 -0.45193957255E+03 -0.14446136749E+04  0.15720983371E+04  0.15294330000E+03 0.  0.
<mgrwt>
<rscale>  0 0.81425845E+03</rscale>
<asrwt>0</asrwt>
<pdfrwt beam="1">  1        1 0.42030426E+00 0.89162944E+03</pdfrwt>
<pdfrwt beam="2">  1       -1 0.34795478E-01 0.89162944E+03</pdfrwt>
<totfact> 0.75687659E+00</totfact>
</mgrwt>
</event>
<event>
 4    1  0.1521315E-007  0.6680879E+03  0.7818608E-02  0.1017072E+00
         -1   -1    0    0    0  501 -0.00000000000E+00  0.00000000000E+00  0.14034089830E+03  0.14034089839E+03  0.50400000000E-02 0.  1.
          1   -1    0    0  501    0  0.00000000000E+00 -0.00000000000E+00 -0.20175006777E+04  0.20175006777E+04  0.50400000000E-02 0. -1.
    8880023    1    1    2    0    0  0.60840975196E+02 -0.93966143892E+02 -0.18492909778E+04  0.19662702224E+04  0.65864270000E+03 0.  0.
    8880022    1    1    2    0    0 -0.60840975196E+02  0.93966143892E+02 -0.27868801603E+02  0.19157135375E+03  0.15294330000E+03 0.  0.
<mgrwt>
<rscale>  0 0.48758087E+03</rscale>
<asrwt>0</asrwt>
<pdfrwt beam="1">  1        1 0.31038470E+00 0.66808792E+03</pdfrwt>
<pdfrwt beam="2">  1       -1 0.21590909E-01 0.66808792E+03</pdfrwt>
<totfact> 0.54409937E+01</totfact>
</mgrwt>
</event>
<event>
 4    1  0.1521315E-007  0.6662124E+03  0.7818608E-02  0.1018537E+00
         -1   -1    0    0    0  501 -0.00000000000E+00  0.00000000000E+00  0.23818056655E+03  0.23818056660E+03  0.50400000000E-02 0.  1.
          1   -1    0    0  501    0  0.00000000000E+00 -0.00000000000E+00 -0.91674984358E+03  0.91674984359E+03  0.50400000000E-02 0. -1.
    8880023    1    1    2    0    0 -0.41653000587E+02  0.91070545945E+02 -0.70527049837E+03  0.97017807589E+03  0.65864270000E+03 0. -1.
    8880022    1    1    2    0    0  0.41653000587E+02 -0.91070545945E+02  0.26701221340E+02  0.18475233431E+03  0.15294330000E+03 0.  0.
<mgrwt>
<rscale>  0 0.48218215E+03</rscale>
<asrwt>0</asrwt>
<pdfrwt beam="1">  1        1 0.14103844E+00 0.66621245E+03</pdfrwt>
<pdfrwt beam="2">  1       -1 0.36643164E-01 0.66621245E+03</pdfrwt>
<totfact> 0.12892147E+02</totfact>
</mgrwt>
</event>
<event>
 4    1  0.1521315E-007  0.7550634E+03  0.7818608E-02  0.9818060E-01
          1   -1    0    0  501    0  0.00000000000E+00  0.00000000000E+00  0.75654071093E+03  0.75654071095E+03  0.50400000000E-02 0. -1.
         -1   -1    0    0    0  501 -0.00000000000E+00 -0.00000000000E+00 -0.76721767837E+03  0.76721767838E+03  0.50400000000E-02 0.  1.
    8880023    1    1    2    0    0  0.33175603310E+03  0.16201388065E+03  0.47711115926E+03  0.89317177943E+03  0.65864270000E+03 0. -1.
    8880022    1    1    2    0    0 -0.33175603310E+03 -0.16201388065E+03 -0.48778812670E+03  0.63058660990E+03  0.15294330000E+03 0.  0.
<mgrwt>
<rscale>  0 0.64402309E+03</rscale>
<asrwt>0</asrwt>
<pdfrwt beam="1">  1        1 0.11639088E+00 0.75506342E+03</pdfrwt>
<pdfrwt beam="2">  1       -1 0.11803349E+00 0.75506342E+03</pdfrwt>
<totfact> 0.16006382E+01</totfact>
</mgrwt>
</event>
<event>
 4    1  0.1521315E-007  0.7352716E+03  0.7818608E-02  0.9873941E-01
         -1   -1    0    0    0  501 -0.00000000000E+00  0.00000000000E+00  0.20630972060E+03  0.20630972067E+03  0.50400000000E-02 0.  1.
          1   -1    0    0  501    0  0.00000000000E+00 -0.00000000000E+00 -0.16244079308E+04  0.16244079308E+04  0.50400000000E-02 0. -1.
    8880023    1    1    2    0    0 -0.15895078955E+02  0.32643744892E+03 -0.64715376975E+03  0.97950613554E+03  0.65864270000E+03 0.  1.
    8880022    1    1    2    0    0  0.15895078955E+02 -0.32643744892E+03 -0.77094444047E+03  0.85121151596E+03  0.15294330000E+03 0.  0.
<mgrwt>
<rscale>  0 0.61541005E+03</rscale>
<asrwt>0</asrwt>
<pdfrwt beam="1">  1        1 0.24990890E+00 0.73527156E+03</pdfrwt>
<pdfrwt beam="2">  1       -1 0.31739958E-01 0.73527156E+03</pdfrwt>
<totfact> 0.51114651E+01</totfact>
</mgrwt>
</event>
<event>
 4    1  0.1521315E-007  0.8009094E+03  0.7818608E-02  0.9708833E-01
         -1   -1    0    0    0  501 -0.00000000000E+00  0.00000000000E+00  0.67863905520E+03  0.67863905522E+03  0.50400000000E-02 0.  1.
          1   -1    0    0  501    0  0.00000000000E+00 -0.00000000000E+00 -0.27247698805E+04  0.27247698805E+04  0.50400000000E-02 0. -1.
    8880023    1    1    2    0    0 -0.45201257512E+03  0.57709140027E+02 -0.25703161136E+04  0.26922074295E+04  0.65864270000E+03 0.  0.
    8880022    1    1    2    0    0  0.45201257512E+03 -0.57709140027E+02  0.52418528837E+03  0.71120150623E+03  0.15294330000E+03 0.  0.
<mgrwt>
<rscale>  0 0.70493299E+03</rscale>
<asrwt>0</asrwt>
<pdfrwt beam="1">  1        1 0.41919536E+00 0.80090943E+03</pdfrwt>
<pdfrwt beam="2">  1       -1 0.10440601E+00 0.80090943E+03</pdfrwt>
<totfact> 0.86300745E-01</totfact>
</mgrwt>
</event>
<event>
 4    1  0.1521315E-007  0.1061271E+04  0.7818608E-02  0.9305453E-01
          1   -1    0    0  501    0  0.00000000000E+00  0.00000000000E+00  0.13492312212E+04  0.13492312212E+04  0.50400000000E-02 0. -1.
         -1   -1    0    0    0  501 -0.00000000000E+00 -0.00000000000E+00 -0.15008788872E+04  0.15008788872E+04  0.50400000000E-02 0.  1.
    8880023    1    1    2    0    0 -0.24239480738E+03  0.79607268857E+03  0.97498710212E+03  0.14411443452E+04  0.65864270000E+03 0. -1.
    8880022    1    1    2    0    0  0.24239480738E+03 -0.79607268857E+03 -0.11266347681E+04  0.14089657632E+04  0.15294330000E+03 0.  0.
<mgrwt>
<rscale>  0 0.10028242E+04</rscale>
<asrwt>0</asrwt>
<pdfrwt beam="1">  1        1 0.20757403E+00 0.10612715E+04</pdfrwt>
<pdfrwt beam="2">  1       -1 0.23090444E+00 0.10612715E+04</pdfrwt>
<totfact> 0.77597211E-01</totfact>
</mgrwt>
</event>
<event>
 4    1  0.1521315E-007  0.6634449E+03  0.7818608E-02  0.1020875E+00
         -1   -1    0    0    0  501 -0.00000000000E+00  0.00000000000E+00  0.36741840747E+03  0.36741840750E+03  0.50400000000E-02 0.  1.
          1   -1    0    0  501    0  0.00000000000E+00 -0.00000000000E+00 -0.92044950015E+03  0.92044950016E+03  0.50400000000E-02 0. -1.
    8880023    1    1    2    0    0  0.12614198503E+02  0.78675364761E+02 -0.76630168336E+03  0.10135962743E+04  0.65864270000E+03 0. -1.
    8880022    1    1    2    0    0 -0.12614198503E+02 -0.78675364761E+02  0.21327059068E+03  0.27427163340E+03  0.15294330000E+03 0.  0.
<mgrwt>
<rscale>  0 0.47372067E+03</rscale>
<asrwt>0</asrwt>
<pdfrwt beam="1">  1        1 0.14160761E+00 0.66344490E+03</pdfrwt>
<pdfrwt beam="2">  1       -1 0.56525909E-01 0.66344490E+03</pdfrwt>
<totfact> 0.57213949E+01</totfact>
</mgrwt>
</event>
<event>
 4    1  0.1521315E-007  0.1264320E+04  0.7818608E-02  0.9097001E-01
          1   -1    0    0  501    0  0.00000000000E+00  0.00000000000E+00  0.15885235257E+04  0.15885235257E+04  0.50400000000E-02 0. -1.
         -1   -1    0    0    0  501 -0.00000000000E+00 -0.00000000000E+00 -0.13987603077E+04  0.13987603078E+04  0.50400000000E-02 0.  1.
    8880023    1    1    2    0    0  0.10531088976E+04  0.23591764675E+03  0.10140208323E+04  0.16207232771E+04  0.65864270000E+03 0.  0.
    8880022    1    1    2    0    0 -0.10531088976E+04 -0.23591764675E+03 -0.82425761435E+03  0.13665605564E+04  0.15294330000E+03 0.  0.
<mgrwt>
<rscale>  0 0.12182849E+04</rscale>
<asrwt>0</asrwt>
<pdfrwt beam="1">  1        1 0.24438823E+00 0.12643202E+04</pdfrwt>
<pdfrwt beam="2">  1       -1 0.21519390E+00 0.12643202E+04</pdfrwt>
<totfact> 0.65480925E-01</totfact>
</mgrwt>
</event>
<event>
 4    1  0.1521315E-007  0.9545994E+03  0.7818608E-02  0.9443527E-01
          1   -1    0    0  501    0  0.00000000000E+00  0.00000000000E+00  0.18288746443E+04  0.18288746443E+04  0.50400000000E-02 0. -1.
         -1   -1    0    0    0  501 -0.00000000000E+00 -0.00000000000E+00 -0.38848746506E+03  0.38848746509E+03  0.50400000000E-02 0.  1.
    8880023    1    1    2    0    0 -0.25273607380E+03  0.64309741167E+03  0.10067447394E+04  0.13873698067E+04  0.65864270000E+03 0. -1.
    8880022    1    1    2    0    0  0.25273607380E+03 -0.64309741167E+03  0.43364243977E+03  0.82999230267E+03  0.15294330000E+03 0.  0.
<mgrwt>
<rscale>  0 0.88578516E+03</rscale>
<asrwt>0</asrwt>
<pdfrwt beam="1">  1        1 0.28136533E+00 0.95459940E+03</pdfrwt>
<pdfrwt beam="2">  1       -1 0.59767302E-01 0.95459940E+03</pdfrwt>
<totfact> 0.11212025E+01</totfact>
</mgrwt>
</event>
<event>
 4    1  0.1521315E-007  0.7847232E+03  0.7818608E-02  0.9744857E-01
          1   -1    0    0  501    0  0.00000000000E+00  0.00000000000E+00  0.67443503221E+03  0.67443503223E+03  0.50400000000E-02 0. -1.
         -1   -1    0    0    0  501 -0.00000000000E+00 -0.00000000000E+00 -0.15243576790E+04  0.15243576790E+04  0.50400000000E-02 0.  1.
    8880023    1    1    2    0    0 -0.40933060186E+03 -0.12012001384E+03  0.39170022826E+03  0.87705167147E+03  0.65864270000E+03 0. -1.
    8880022    1    1    2    0    0  0.40933060186E+03  0.12012001384E+03 -0.12416228750E+04  0.13217410397E+04  0.15294330000E+03 0.  0.
<mgrwt>
<rscale>  0 0.68407709E+03</rscale>
<asrwt>0</asrwt>
<pdfrwt beam="1">  1        1 0.10375924E+00 0.78472324E+03</pdfrwt>
<pdfrwt beam="2">  1       -1 0.23451657E+00 0.78472324E+03</pdfrwt>
<totfact> 0.26334875E+00</totfact>
</mgrwt>
</event>
<event>
 4    1  0.1521315E-007  0.6629737E+03  0.7818608E-02  0.1021297E+00
         -1   -1    0    0    0  501 -0.00000000000E+00  0.00000000000E+00  0.32102124627E+03  0.32102124631E+03  0.50400000000E-02 0.  1.
          1   -1    0    0  501    0  0.00000000000E+00 -0.00000000000E+00 -0.19324115978E+04  0.19324115979E+04  0.50400000000E-02 0. -1.
    8880023    1    1    2    0    0 -0.31245553872E+02  0.68903217672E+02 -0.18470815341E+04  0.19624587481E+04  0.65864270000E+03 0. -1.
    8880022    1    1    2    0    0  0.31245553872E+02 -0.68903217672E+02  0.23569118254E+03  0.29097409607E+03  0.15294330000E+03 0.  0.
<mgrwt>
<rscale>  0 0.47221299E+03</rscale>
<asrwt>0</asrwt>
<pdfrwt beam="1">  1        1 0.29729408E+00 0.66297371E+03</pdfrwt>
<pdfrwt beam="2">  1       -1 0.49387885E-01 0.66297371E+03</pdfrwt>
<totfact> 0.14384693E+01</totfact>
</mgrwt>
</event>
<event>
 4    1  0.1521315E-007  0.9045473E+03  0.7818608E-02  0.9518771E-01
          1   -1    0    0  501    0  0.00000000000E+00  0.00000000000E+00  0.94935356652E+03  0.94935356654E+03  0.50400000000E-02 0. -1.
         -1   -1    0    0    0  501 -0.00000000000E+00 -0.00000000000E+00 -0.10751662318E+04  0.10751662318E+04  0.50400000000E-02 0.  1.
    8880023    1    1    2    0    0  0.97261310325E+02  0.61232008772E+03  0.57857496187E+03  0.10737573493E+04  0.65864270000E+03 0.  0.
    8880022    1    1    2    0    0 -0.97261310325E+02 -0.61232008772E+03 -0.70438762713E+03  0.95076244908E+03  0.15294330000E+03 0.  0.
<mgrwt>
<rscale>  0 0.82913965E+03</rscale>
<asrwt>0</asrwt>
<pdfrwt beam="1">  1        1 0.14605439E+00 0.90454732E+03</pdfrwt>
<pdfrwt beam="2">  1       -1 0.16541019E+00 0.90454732E+03</pdfrwt>
<totfact> 0.44799061E+00</totfact>
</mgrwt>
</event>
<event>
 4    1  0.1521315E-007  0.7345286E+03  0.7818608E-02  0.9876181E-01
         -1   -1    0    0    0  501 -0.00000000000E+00  0.00000000000E+00  0.13023971819E+03  0.13023971828E+03  0.50400000000E-02 0.  1.
          1   -1    0    0  501    0  0.00000000000E+00 -0.00000000000E+00 -0.29438867805E+04  0.29438867805E+04  0.50400000000E-02 0. -1.
    8880023    1    1    2    0    0 -0.32180019571E+03  0.46547628843E+02 -0.24700887138E+04  0.25769886512E+04  0.65864270000E+03 0. -1.
    8880022    1    1    2    0    0  0.32180019571E+03 -0.46547628843E+02 -0.34355834843E+03  0.49713784759E+03  0.15294330000E+03 0.  0.
<mgrwt>
<rscale>  0 0.61429654E+03</rscale>
<asrwt>0</asrwt>
<pdfrwt beam="1">  1        1 0.45290561E+00 0.73452859E+03</pdfrwt>
<pdfrwt beam="2">  1       -1 0.20036882E-01 0.73452859E+03</pdfrwt>
<totfact> 0.14206113E+01</totfact>
</mgrwt>
</event>
<event>
 4    1  0.1521315E-007  0.8258819E+03  0.7818608E-02  0.9657399E-01
          1   -1    0    0  501    0  0.00000000000E+00  0.00000000000E+00  0.13999693981E+04  0.13999693981E+04  0.50400000000E-02 0. -1.
         -1   -1    0    0    0  501 -0.00000000000E+00 -0.00000000000E+00 -0.44764596392E+03  0.44764596395E+03  0.50400000000E-02 0.  1.
    8880023    1    1    2    0    0  0.22864916495E+03 -0.44270779465E+03  0.10304598129E+04  0.13205787611E+04  0.65864270000E+03 0. -1.
    8880022    1    1    2    0    0 -0.22864916495E+03  0.44270779465E+03 -0.78136378670E+02  0.52703660097E+03  0.15294330000E+03 0.  0.
<mgrwt>
<rscale>  0 0.73610897E+03</rscale>
<asrwt>0</asrwt>
<pdfrwt beam="1">  1        1 0.21537991E+00 0.82588185E+03</pdfrwt>
<pdfrwt beam="2">  1       -1 0.68868610E-01 0.82588185E+03</pdfrwt>
<totfact> 0.16791356E+01</totfact>
</mgrwt>
</event>
<event>
 4    1  0.1521315E-007  0.7752684E+03  0.7818608E-02  0.9767071E-01
         -1   -1    0    0    0  501 -0.00000000000E+00  0.00000000000E+00  0.16010868078E+04  0.16010868079E+04  0.50400000000E-02 0.  1.
          1   -1    0    0  501    0  0.00000000000E+00 -0.00000000000E+00 -0.29675458095E+03  0.29675458099E+03  0.50400000000E-02 0. -1.
    8880023    1    1    2    0    0  0.37160667180E+02 -0.40724676841E+03  0.35450972736E+03  0.85247768219E+03  0.65864270000E+03 0.  0.
    8880022    1    1    2    0    0 -0.37160667180E+02  0.40724676841E+03  0.94982249953E+03  0.10453637067E+04  0.15294330000E+03 0.  0.
<mgrwt>
<rscale>  0 0.67160021E+03</rscale>
<asrwt>0</asrwt>
<pdfrwt beam="1">  1        1 0.45654551E-01 0.77526837E+03</pdfrwt>
<pdfrwt beam="2">  1       -1 0.24632105E+00 0.77526837E+03</pdfrwt>
<totfact> 0.67743424E+00</totfact>
</mgrwt>
</event>
<event>
 4    1  0.1521315E-007  0.6673035E+03  0.7818608E-02  0.1017674E+00
          1   -1    0    0  501    0  0.00000000000E+00  0.00000000000E+00  0.10201947826E+04  0.10201947826E+04  0.50400000000E-02 0. -1.
         -1   -1    0    0    0  501 -0.00000000000E+00 -0.00000000000E+00 -0.18006621954E+03  0.18006621961E+03  0.50400000000E-02 0.  1.
    8880023    1    1    2    0    0 -0.96457424115E+02 -0.46687091560E+02  0.69730337281E+03  0.96515590408E+03  0.65864270000E+03 0.  0.
    8880022    1    1    2    0    0  0.96457424115E+02  0.46687091560E+02  0.14282519026E+03  0.23510509814E+03  0.15294330000E+03 0. -1.
<mgrwt>
<rscale>  0 0.48535264E+03</rscale>
<asrwt>0</asrwt>
<pdfrwt beam="1">  1        1 0.15695304E+00 0.66730347E+03</pdfrwt>
<pdfrwt beam="2">  1       -1 0.27702496E-01 0.66730347E+03</pdfrwt>
<totfact> 0.17470489E+02</totfact>
</mgrwt>
</event>
<event>
 4    1  0.1521315E-007  0.8469083E+03  0.7818608E-02  0.9617289E-01
          1   -1    0    0  501    0  0.00000000000E+00  0.00000000000E+00  0.58352226073E+03  0.58352226075E+03  0.50400000000E-02 0. -1.
         -1   -1    0    0    0  501 -0.00000000000E+00 -0.00000000000E+00 -0.15977332125E+04  0.15977332125E+04  0.50400000000E-02 0.  1.
    8880023    1    1    2    0    0 -0.37945456482E+03 -0.37344026700E+03  0.17910727621E+03  0.86564023846E+03  0.65864270000E+03 0. -1.
    8880022    1    1    2    0    0  0.37945456482E+03  0.37344026700E+03 -0.11933182280E+04  0.13156152348E+04  0.15294330000E+03 0.  0.
<mgrwt>
<rscale>  0 0.76162361E+03</rscale>
<asrwt>0</asrwt>
<pdfrwt beam="1">  1        1 0.89772656E-01 0.84690826E+03</pdfrwt>
<pdfrwt beam="2">  1       -1 0.24580511E+00 0.84690826E+03</pdfrwt>
<totfact> 0.27223192E+00</totfact>
</mgrwt>
</event>
<event>
 4    1  0.1521315E-007  0.8182266E+03  0.7818608E-02  0.9672689E-01
         -1   -1    0    0    0  501 -0.00000000000E+00  0.00000000000E+00  0.37629224002E+03  0.37629224005E+03  0.50400000000E-02 0.  1.
          1   -1    0    0  501    0  0.00000000000E+00 -0.00000000000E+00 -0.17218393397E+04  0.17218393397E+04  0.50400000000E-02 0. -1.
    8880023    1    1    2    0    0  0.47772261429E+03 -0.86404135803E+02 -0.13619895481E+04  0.15888707645E+04  0.65864270000E+03 0.  0.
    8880022    1    1    2    0    0 -0.47772261429E+03  0.86404135803E+02  0.16442448364E+02  0.50926081531E+03  0.15294330000E+03 0.  0.
<mgrwt>
<rscale>  0 0.72666400E+03</rscale>
<asrwt>0</asrwt>
<pdfrwt beam="1">  1        1 0.26489836E+00 0.81822661E+03</pdfrwt>
<pdfrwt beam="2">  1       -1 0.57891115E-01 0.81822661E+03</pdfrwt>
<totfact> 0.14334830E+01</totfact>
</mgrwt>
</event>
<event>
 4    1  0.1521315E-007  0.6738749E+03  0.7818608E-02  0.1013025E+00
          1   -1    0    0  501    0  0.00000000000E+00  0.00000000000E+00  0.19066495822E+04  0.19066495822E+04  0.50400000000E-02 0. -1.
         -1   -1    0    0    0  501 -0.00000000000E+00 -0.00000000000E+00 -0.17720973256E+03  0.17720973264E+03  0.50400000000E-02 0.  1.
    8880023    1    1    2    0    0  0.82076623325E+01 -0.14223151295E+03  0.17486085218E+04  0.18739634836E+04  0.65864270000E+03 0. -1.
    8880022    1    1    2    0    0 -0.82076623325E+01  0.14223151295E+03 -0.19168672116E+02  0.20989583131E+03  0.15294330000E+03 0.  0.
<mgrwt>
<rscale>  0 0.50289897E+03</rscale>
<asrwt>0</asrwt>
<pdfrwt beam="1">  1        1 0.29333072E+00 0.67387490E+03</pdfrwt>
<pdfrwt beam="2">  1       -1 0.27263035E-01 0.67387490E+03</pdfrwt>
<totfact> 0.43388611E+01</totfact>
</mgrwt>
</event>
<event>
 4    1  0.1521315E-007  0.7040074E+03  0.7818608E-02  0.9980966E-01
          1   -1    0    0  501    0  0.00000000000E+00  0.00000000000E+00  0.15622503757E+04  0.15622503757E+04  0.50400000000E-02 0. -1.
         -1   -1    0    0    0  501 -0.00000000000E+00 -0.00000000000E+00 -0.33850762422E+03  0.33850762426E+03  0.50400000000E-02 0.  1.
    8880023    1    1    2    0    0 -0.23084777564E+03 -0.92333561796E+02  0.13948188011E+04  0.15624166782E+04  0.65864270000E+03 0. -1.
    8880022    1    1    2    0    0  0.23084777564E+03  0.92333561796E+02 -0.17107604971E+03  0.33834132168E+03  0.15294330000E+03 0.  0.
<mgrwt>
<rscale>  0 0.56492767E+03</rscale>
<asrwt>0</asrwt>
<pdfrwt beam="1">  1        1 0.24034621E+00 0.70400738E+03</pdfrwt>
<pdfrwt beam="2">  1       -1 0.52078096E-01 0.70400738E+03</pdfrwt>
<totfact> 0.22895109E+01</totfact>
</mgrwt>
</event>
<event>
 4    1  0.1521315E-007  0.7091522E+03  0.7818608E-02  0.9961163E-01
         -1   -1    0    0    0  501 -0.00000000000E+00  0.00000000000E+00  0.13606384704E+03  0.13606384713E+03  0.50400000000E-02 0.  1.
          1   -1    0    0  501    0  0.00000000000E+00 -0.00000000000E+00 -0.38619734914E+04  0.38619734914E+04  0.50400000000E-02 0. -1.
    8880023    1    1    2    0    0 -0.25894541487E+03 -0.45099106082E+02 -0.35995279366E+04  0.36687188812E+04  0.65864270000E+03 0.  0.
    8880022    1    1    2    0    0  0.25894541487E+03  0.45099106082E+02 -0.12638170785E+03  0.32931845734E+03  0.15294330000E+03 0.  0.
<mgrwt>
<rscale>  0 0.57386480E+03</rscale>
<asrwt>0</asrwt>
<pdfrwt beam="1">  1        1 0.59414968E+00 0.70915221E+03</pdfrwt>
<pdfrwt beam="2">  1       -1 0.20932903E-01 0.70915221E+03</pdfrwt>
<totfact> 0.26390390E+00</totfact>
</mgrwt>
</event>
<event>
 4    1  0.1521315E-007  0.1090258E+04  0.7818608E-02  0.9271981E-01
         -1   -1    0    0    0  501 -0.00000000000E+00  0.00000000000E+00  0.12969147205E+04  0.12969147205E+04  0.50400000000E-02 0.  1.
          1   -1    0    0  501    0  0.00000000000E+00 -0.00000000000E+00 -0.15267378994E+04  0.15267378994E+04  0.50400000000E-02 0. -1.
    8880023    1    1    2    0    0 -0.80665279327E+03  0.32274428878E+03  0.88342150198E+03  0.14032449399E+04  0.65864270000E+03 0.  1.
    8880022    1    1    2    0    0  0.80665279327E+03 -0.32274428878E+03 -0.11132446809E+04  0.14204076800E+04  0.15294330000E+03 0.  0.
<mgrwt>
<rscale>  0 0.10340380E+04</rscale>
<asrwt>0</asrwt>
<pdfrwt beam="1">  1        1 0.23488275E+00 0.10902581E+04</pdfrwt>
<pdfrwt beam="2">  1       -1 0.19952534E+00 0.10902581E+04</pdfrwt>
<totfact> 0.94510067E-01</totfact>
</mgrwt>
</event>
<event>
 4    1  0.1521315E-007  0.9736455E+03  0.7818608E-02  0.9416880E-01
         -1   -1    0    0    0  501 -0.00000000000E+00  0.00000000000E+00  0.12984274160E+04  0.12984274160E+04  0.50400000000E-02 0.  1.
          1   -1    0    0  501    0  0.00000000000E+00 -0.00000000000E+00 -0.14740739319E+04  0.14740739319E+04  0.50400000000E-02 0. -1.
    8880023    1    1    2    0    0  0.48668066209E+03 -0.52660921763E+03 -0.11794738096E+04  0.15294260390E+04  0.65864270000E+03 0. -1.
    8880022    1    1    2    0    0 -0.48668066209E+03  0.52660921763E+03  0.10038272938E+04  0.12430753089E+04  0.15294330000E+03 0.  0.
<mgrwt>
<rscale>  0 0.90699463E+03</rscale>
<asrwt>0</asrwt>
<pdfrwt beam="1">  1        1 0.22678061E+00 0.97364549E+03</pdfrwt>
<pdfrwt beam="2">  1       -1 0.19975806E+00 0.97364549E+03</pdfrwt>
<totfact> 0.10416285E+00</totfact>
</mgrwt>
</event>
<event>
 4    1  0.1521315E-007  0.1143169E+04  0.7818608E-02  0.9214450E-01
          1   -1    0    0  501    0  0.00000000000E+00  0.00000000000E+00  0.11693404422E+04  0.11693404422E+04  0.50400000000E-02 0. -1.
         -1   -1    0    0    0  501 -0.00000000000E+00 -0.00000000000E+00 -0.11128280326E+04  0.11128280326E+04  0.50400000000E-02 0.  1.
    8880023    1    1    2    0    0 -0.59209258080E+03  0.72280765476E+03  0.48640866750E+03  0.12423478290E+04  0.65864270000E+03 0.  0.
    8880022    1    1    2    0    0  0.59209258080E+03 -0.72280765476E+03 -0.42989625793E+03  0.10398206459E+04  0.15294330000E+03 0.  0.
<mgrwt>
<rscale>  0 0.10905522E+04</rscale>
<asrwt>0</asrwt>
<pdfrwt beam="1">  1        1 0.17989853E+00 0.11431687E+04</pdfrwt>
<pdfrwt beam="2">  1       -1 0.17120431E+00 0.11431687E+04</pdfrwt>
<totfact> 0.26775760E+00</totfact>
</mgrwt>
</event>
<event>
 4    1  0.1521315E-007  0.1272589E+04  0.7818608E-02  0.9089600E-01
         -1   -1    0    0    0  501 -0.00000000000E+00  0.00000000000E+00  0.61412525321E+03  0.61412525323E+03  0.50400000000E-02 0.  1.
          1   -1    0    0  501    0  0.00000000000E+00 -0.00000000000E+00 -0.24282672667E+04  0.24282672667E+04  0.50400000000E-02 0. -1.
    8880023    1    1    2    0    0  0.98135271071E+03 -0.47182443186E+03 -0.13306172005E+04  0.18412017211E+04  0.65864270000E+03 0. -1.
    8880022    1    1    2    0    0 -0.98135271071E+03  0.47182443186E+03 -0.48352481295E+03  0.12011907988E+04  0.15294330000E+03 0.  1.
<mgrwt>
<rscale>  0 0.12269366E+04</rscale>
<asrwt>0</asrwt>
<pdfrwt beam="1">  1        1 0.37357958E+00 0.12725886E+04</pdfrwt>
<pdfrwt beam="2">  1       -1 0.94480809E-01 0.12725886E+04</pdfrwt>
<totfact> 0.16157162E+00</totfact>
</mgrwt>
</event>
<event>
 4    1  0.1521315E-007  0.9682521E+03  0.7818608E-02  0.9424326E-01
          1   -1    0    0  501    0  0.00000000000E+00  0.00000000000E+00  0.28779438764E+04  0.28779438764E+04  0.50400000000E-02 0. -1.
         -1   -1    0    0    0  501 -0.00000000000E+00 -0.00000000000E+00 -0.49971229534E+03  0.49971229536E+03  0.50400000000E-02 0.  1.
    8880023    1    1    2    0    0 -0.56002466793E+03  0.43597506647E+03  0.24632172737E+04  0.26466868782E+04  0.65864270000E+03 0. -1.
    8880022    1    1    2    0    0  0.56002466793E+03 -0.43597506647E+03 -0.84985692615E+02  0.73096929364E+03  0.15294330000E+03 0.  0.
<mgrwt>
<rscale>  0 0.90100519E+03</rscale>
<asrwt>0</asrwt>
<pdfrwt beam="1">  1        1 0.44276060E+00 0.96825208E+03</pdfrwt>
<pdfrwt beam="2">  1       -1 0.76878814E-01 0.96825208E+03</pdfrwt>
<totfact> 0.12824456E+00</totfact>
</mgrwt>
</event>
<event>
 4    1  0.1521315E-007  0.7067221E+03  0.7818608E-02  0.9970380E-01
         -1   -1    0    0    0  501 -0.00000000000E+00  0.00000000000E+00  0.51066144457E+03  0.51066144459E+03  0.50400000000E-02 0.  1.
          1   -1    0    0  501    0  0.00000000000E+00 -0.00000000000E+00 -0.93299829070E+03  0.93299829072E+03  0.50400000000E-02 0. -1.
    8880023    1    1    2    0    0 -0.59911355720E+02  0.24911165993E+03 -0.72931377336E+03  0.10155563874E+04  0.65864270000E+03 0.  0.
    8880022    1    1    2    0    0  0.59911355720E+02 -0.24911165993E+03  0.30697692722E+03  0.42810334794E+03  0.15294330000E+03 0.  0.
<mgrwt>
<rscale>  0 0.56968297E+03</rscale>
<asrwt>0</asrwt>
<pdfrwt beam="1">  1        1 0.14353820E+00 0.70672215E+03</pdfrwt>
<pdfrwt beam="2">  1       -1 0.78563299E-01 0.70672215E+03</pdfrwt>
<totfact> 0.28613216E+01</totfact>
</mgrwt>
</event>
<event>
 4    1  0.1521315E-007  0.6692468E+03  0.7818608E-02  0.1016209E+00
          1   -1    0    0  501    0  0.00000000000E+00  0.00000000000E+00  0.12130953243E+04  0.12130953243E+04  0.50400000000E-02 0. -1.
         -1   -1    0    0    0  501 -0.00000000000E+00 -0.00000000000E+00 -0.19016201795E+03  0.19016201802E+03  0.50400000000E-02 0.  1.
    8880023    1    1    2    0    0 -0.11004835754E+03  0.44389428861E+02  0.10068891361E+04  0.12090148887E+04  0.65864270000E+03 0. -1.
    8880022    1    1    2    0    0  0.11004835754E+03 -0.44389428861E+02  0.16044170265E+02  0.19424245367E+03  0.15294330000E+03 0.  0.
<mgrwt>
<rscale>  0 0.49079951E+03</rscale>
<asrwt>0</asrwt>
<pdfrwt beam="1">  1        1 0.18663005E+00 0.66924679E+03</pdfrwt>
<pdfrwt beam="2">  1       -1 0.29255696E-01 0.66924679E+03</pdfrwt>
<totfact> 0.11439728E+02</totfact>
</mgrwt>
</event>
<event>
 4    1  0.1521315E-007  0.7178883E+03  0.7818608E-02  0.9929797E-01
         -1   -1    0    0    0  501 -0.00000000000E+00  0.00000000000E+00  0.77170600811E+03  0.77170600813E+03  0.50400000000E-02 0.  1.
          1   -1    0    0  501    0  0.00000000000E+00 -0.00000000000E+00 -0.58315690265E+03  0.58315690267E+03  0.50400000000E-02 0. -1.
    8880023    1    1    2    0    0 -0.16257777955E+02 -0.28511229252E+03 -0.29226219404E+03  0.77510046511E+03  0.65864270000E+03 0.  0.
    8880022    1    1    2    0    0  0.16257777955E+02  0.28511229252E+03  0.48081129950E+03  0.57976244569E+03  0.15294330000E+03 0.  0.
<mgrwt>
<rscale>  0 0.58838670E+03</rscale>
<asrwt>0</asrwt>
<pdfrwt beam="1">  1        1 0.89716447E-01 0.71788825E+03</pdfrwt>
<pdfrwt beam="2">  1       -1 0.11872400E+00 0.71788825E+03</pdfrwt>
<totfact> 0.23336927E+01</totfact>
</mgrwt>
</event>
<event>
 4    1  0.1521315E-007  0.7926004E+03  0.7818608E-02  0.9727030E-01
         -1   -1    0    0    0  501 -0.00000000000E+00  0.00000000000E+00  0.95059331085E+03  0.95059331087E+03  0.50400000000E-02 0.  1.
          1   -1    0    0  501    0  0.00000000000E+00 -0.00000000000E+00 -0.49887335289E+03  0.49887335292E+03  0.50400000000E-02 0. -1.
    8880023    1    1    2    0    0 -0.32169440305E+03  0.30152604295E+03 -0.10433839726E+02  0.79266910802E+03  0.65864270000E+03 0.  0.
    8880022    1    1    2    0    0  0.32169440305E+03 -0.30152604295E+03  0.46215379769E+03  0.65679755577E+03  0.15294330000E+03 0.  0.
<mgrwt>
<rscale>  0 0.69430004E+03</rscale>
<asrwt>0</asrwt>
<pdfrwt beam="1">  1        1 0.76749748E-01 0.79260044E+03</pdfrwt>
<pdfrwt beam="2">  1       -1 0.14624512E+00 0.79260044E+03</pdfrwt>
<totfact> 0.16975229E+01</totfact>
</mgrwt>
</event>
<event>
 4    1  0.1521315E-007  0.1099018E+04  0.7818608E-02  0.9262150E-01
         -1   -1    0    0    0  501 -0.00000000000E+00  0.00000000000E+00  0.12412687865E+04  0.12412687865E+04  0.50400000000E-02 0.  1.
          1   -1    0    0  501    0  0.00000000000E+00 -0.00000000000E+00 -0.14799816997E+04  0.14799816997E+04  0.50400000000E-02 0. -1.
    8880023    1    1    2    0    0 -0.42421099245E+03  0.77076276517E+03 -0.10461695333E+04  0.15173368462E+04  0.65864270000E+03 0. -1.
    8880022    1    1    2    0    0  0.42421099245E+03 -0.77076276517E+03  0.80745662006E+03  0.12039136400E+04  0.15294330000E+03 0.  0.
<mgrwt>
<rscale>  0 0.10434331E+04</rscale>
<asrwt>0</asrwt>
<pdfrwt beam="1">  1        1 0.22768949E+00 0.10990179E+04</pdfrwt>
<pdfrwt beam="2">  1       -1 0.19096443E+00 0.10990179E+04</pdfrwt>
<totfact> 0.11663978E+00</totfact>
</mgrwt>
</event>
<event>
 4    1  0.1521315E-007  0.8478316E+03  0.7818608E-02  0.9615586E-01
         -1   -1    0    0    0  501 -0.00000000000E+00  0.00000000000E+00  0.82966742204E+03  0.82966742205E+03  0.50400000000E-02 0.  1.
          1   -1    0    0  501    0  0.00000000000E+00 -0.00000000000E+00 -0.84398665788E+03  0.84398665790E+03  0.50400000000E-02 0. -1.
    8880023    1    1    2    0    0  0.33539881087E+03 -0.41535037891E+03 -0.45728382797E+03  0.96328967875E+03  0.65864270000E+03 0.  0.
    8880022    1    1    2    0    0 -0.33539881087E+03  0.41535037891E+03  0.44296459213E+03  0.71036440120E+03  0.15294330000E+03 0.  0.
<mgrwt>
<rscale>  0 0.76273119E+03</rscale>
<asrwt>0</asrwt>
<pdfrwt beam="1">  1        1 0.12984410E+00 0.84783165E+03</pdfrwt>
<pdfrwt beam="2">  1       -1 0.12764114E+00 0.84783165E+03</pdfrwt>
<totfact> 0.10961337E+01</totfact>
</mgrwt>
</event>
<event>
 4    1  0.1521315E-007  0.7320089E+03  0.7818608E-02  0.9883868E-01
         -1   -1    0    0    0  501 -0.00000000000E+00  0.00000000000E+00  0.14482960868E+04  0.14482960868E+04  0.50400000000E-02 0.  1.
          1   -1    0    0  501    0  0.00000000000E+00 -0.00000000000E+00 -0.84641311933E+03  0.84641311934E+03  0.50400000000E-02 0. -1.
    8880023    1    1    2    0    0 -0.34489569588E+01 -0.31939764642E+03 -0.65905527623E+03  0.98498264717E+03  0.65864270000E+03 0. -1.
    8880022    1    1    2    0    0  0.34489569588E+01  0.31939764642E+03  0.12609382437E+04  0.13097265590E+04  0.15294330000E+03 0.  0.
<mgrwt>
<rscale>  0 0.61049542E+03</rscale>
<asrwt>0</asrwt>
<pdfrwt beam="1">  1        1 0.13021741E+00 0.73200885E+03</pdfrwt>
<pdfrwt beam="2">  1       -1 0.22281478E+00 0.73200885E+03</pdfrwt>
<totfact> 0.22249281E+00</totfact>
</mgrwt>
</event>
<event>
 4    1  0.1521315E-007  0.8381080E+03  0.7818608E-02  0.9633758E-01
         -1   -1    0    0    0  501 -0.00000000000E+00  0.00000000000E+00  0.70818490728E+03  0.70818490730E+03  0.50400000000E-02 0.  1.
          1   -1    0    0  501    0  0.00000000000E+00 -0.00000000000E+00 -0.93883494060E+03  0.93883494061E+03  0.50400000000E-02 0. -1.
    8880023    1    1    2    0    0  0.43547495120E+03  0.28102747061E+03 -0.56573952804E+03  0.10111806427E+04  0.65864270000E+03 0.  0.
    8880022    1    1    2    0    0 -0.43547495120E+03 -0.28102747061E+03  0.33508949472E+03  0.63583920519E+03  0.15294330000E+03 0.  0.
<mgrwt>
<rscale>  0 0.75101580E+03</rscale>
<asrwt>0</asrwt>
<pdfrwt beam="1">  1        1 0.14443614E+00 0.83810804E+03</pdfrwt>
<pdfrwt beam="2">  1       -1 0.10895152E+00 0.83810804E+03</pdfrwt>
<totfact> 0.13467373E+01</totfact>
</mgrwt>
</event>
<event>
 4    1  0.1521315E-007  0.7646600E+03  0.7818608E-02  0.9793189E-01
         -1   -1    0    0    0  501 -0.00000000000E+00  0.00000000000E+00  0.10127333316E+04  0.10127333316E+04  0.50400000000E-02 0.  1.
          1   -1    0    0  501    0  0.00000000000E+00 -0.00000000000E+00 -0.61774517360E+03  0.61774517362E+03  0.50400000000E-02 0. -1.
    8880023    1    1    2    0    0 -0.33875572150E+03 -0.19010314259E+03 -0.29863865406E+03  0.82090797026E+03  0.65864270000E+03 0. -1.
    8880022    1    1    2    0    0  0.33875572150E+03  0.19010314259E+03  0.69362681210E+03  0.80957053500E+03  0.15294330000E+03 0.  0.
<mgrwt>
<rscale>  0 0.65729324E+03</rscale>
<asrwt>0</asrwt>
<pdfrwt beam="1">  1        1 0.95037720E-01 0.76465996E+03</pdfrwt>
<pdfrwt beam="2">  1       -1 0.15580513E+00 0.76465996E+03</pdfrwt>
<totfact> 0.10619650E+01</totfact>
</mgrwt>
</event>
<event>
 4    1  0.1521315E-007  0.8195732E+03  0.7818608E-02  0.9669971E-01
          1   -1    0    0  501    0  0.00000000000E+00  0.00000000000E+00  0.42260824985E+03  0.42260824988E+03  0.50400000000E-02 0. -1.
         -1   -1    0    0    0  501 -0.00000000000E+00 -0.00000000000E+00 -0.12322616150E+04  0.12322616150E+04  0.50400000000E-02 0.  1.
    8880023    1    1    2    0    0 -0.16793923114E+03  0.45791535193E+03 -0.17165002260E+03  0.83735535552E+03  0.65864270000E+03 0. -1.
    8880022    1    1    2    0    0  0.16793923114E+03 -0.45791535193E+03 -0.63800334252E+03  0.81751450933E+03  0.15294330000E+03 0.  0.
<mgrwt>
<rscale>  0 0.72833209E+03</rscale>
<asrwt>0</asrwt>
<pdfrwt beam="1">  1        1 0.65016654E-01 0.81957322E+03</pdfrwt>
<pdfrwt beam="2">  1       -1 0.18957871E+00 0.81957322E+03</pdfrwt>
<totfact> 0.10139633E+01</totfact>
</mgrwt>
</event>
<event>
 4    1  0.1521315E-007  0.7292475E+03  0.7818608E-02  0.9892454E-01
          1   -1    0    0  501    0  0.00000000000E+00  0.00000000000E+00  0.20371133768E+04  0.20371133768E+04  0.50400000000E-02 0. -1.
         -1   -1    0    0    0  501 -0.00000000000E+00 -0.00000000000E+00 -0.21383296970E+03  0.21383296976E+03  0.50400000000E-02 0.  1.
    8880023    1    1    2    0    0  0.29146550631E+03 -0.11419072675E+03  0.17486826984E+04  0.18946485293E+04  0.65864270000E+03 0.  0.
    8880022    1    1    2    0    0 -0.29146550631E+03  0.11419072675E+03  0.74597708664E+02  0.35629781728E+03  0.15294330000E+03 0.  0.
<mgrwt>
<rscale>  0 0.60628395E+03</rscale>
<asrwt>0</asrwt>
<pdfrwt beam="1">  1        1 0.31340207E+00 0.72924747E+03</pdfrwt>
<pdfrwt beam="2">  1       -1 0.32897379E-01 0.72924747E+03</pdfrwt>
<totfact> 0.25406597E+01</totfact>
</mgrwt>
</event>
<event>
 4    1  0.1521315E-007  0.8572296E+03  0.7818608E-02  0.9598511E-01
          1   -1    0    0  501    0  0.00000000000E+00  0.00000000000E+00  0.11934416118E+04  0.11934416118E+04  0.50400000000E-02 0. -1.
         -1   -1    0    0    0  501 -0.00000000000E+00 -0.00000000000E+00 -0.10796423761E+04  0.10796423761E+04  0.50400000000E-02 0.  1.
    8880023    1    1    2    0    0  0.23843311977E+03  0.49414772014E+03  0.93833128731E+03  0.12709477302E+04  0.65864270000E+03 0. -1.
    8880022    1    1    2    0    0 -0.23843311977E+03 -0.49414772014E+03 -0.82453205158E+03  0.10021362577E+04  0.15294330000E+03 0.  0.
<mgrwt>
<rscale>  0 0.77394834E+03</rscale>
<asrwt>0</asrwt>
<pdfrwt beam="1">  1        1 0.18360640E+00 0.85722957E+03</pdfrwt>
<pdfrwt beam="2">  1       -1 0.16609883E+00 0.85722957E+03</pdfrwt>
<totfact> 0.29087254E+00</totfact>
</mgrwt>
</event>
<event>
 4    1  0.1521315E-007  0.6987303E+03  0.7818608E-02  0.1000251E+00
          1   -1    0    0  501    0  0.00000000000E+00  0.00000000000E+00  0.33148436250E+04  0.33148436250E+04  0.50400000000E-02 0. -1.
         -1   -1    0    0    0  501 -0.00000000000E+00 -0.00000000000E+00 -0.10362188869E+03  0.10362188881E+03  0.50400000000E-02 0.  1.
    8880023    1    1    2    0    0  0.11536147066E+03  0.20274493832E+03  0.29655900904E+04  0.30467931616E+04  0.65864270000E+03 0.  0.
    8880022    1    1    2    0    0 -0.11536147066E+03 -0.20274493832E+03  0.24563164592E+03  0.37167235224E+03  0.15294330000E+03 0. -1.
<mgrwt>
<rscale>  0 0.55540324E+03</rscale>
<asrwt>0</asrwt>
<pdfrwt beam="1">  1        1 0.50997592E+00 0.69873027E+03</pdfrwt>
<pdfrwt beam="2">  1       -1 0.15941830E-01 0.69873027E+03</pdfrwt>
<totfact> 0.11177400E+01</totfact>
</mgrwt>
</event>
<event>
 4    1  0.1521315E-007  0.8174327E+03  0.7818608E-02  0.9674298E-01
          1   -1    0    0  501    0  0.00000000000E+00  0.00000000000E+00  0.10670165539E+04  0.10670165539E+04  0.50400000000E-02 0. -1.
         -1   -1    0    0    0  501 -0.00000000000E+00 -0.00000000000E+00 -0.65009775512E+03  0.65009775514E+03  0.50400000000E-02 0.  1.
    8880023    1    1    2    0    0 -0.34778048202E+03 -0.33680078137E+03  0.75042695362E+03  0.11096561850E+04  0.65864270000E+03 0.  1.
    8880022    1    1    2    0    0  0.34778048202E+03  0.33680078137E+03 -0.33350815488E+03  0.60745812398E+03  0.15294330000E+03 0.  1.
<mgrwt>
<rscale>  0 0.72567920E+03</rscale>
<asrwt>0</asrwt>
<pdfrwt beam="1">  1        1 0.16415639E+00 0.81743271E+03</pdfrwt>
<pdfrwt beam="2">  1       -1 0.10001504E+00 0.81743271E+03</pdfrwt>
<totfact> 0.13091559E+01</totfact>
</mgrwt>
</event>
<event>
 4    1  0.1521315E-007  0.8144956E+03  0.7818608E-02  0.9680288E-01
          1   -1    0    0  501    0  0.00000000000E+00  0.00000000000E+00  0.12160090868E+04  0.12160090868E+04  0.50400000000E-02 0. -1.
         -1   -1    0    0    0  501 -0.00000000000E+00 -0.00000000000E+00 -0.84977517229E+03  0.84977517231E+03  0.50400000000E-02 0.  1.
    8880023    1    1    2    0    0 -0.37195413757E+03 -0.30206447407E+03  0.97868142818E+03  0.12732715229E+04  0.65864270000E+03 0. -1.
    8880022    1    1    2    0    0  0.37195413757E+03  0.30206447407E+03 -0.61244751370E+03  0.79251273617E+03  0.15294330000E+03 0.  0.
<mgrwt>
<rscale>  0 0.72202674E+03</rscale>
<asrwt>0</asrwt>
<pdfrwt beam="1">  1        1 0.18707832E+00 0.81449557E+03</pdfrwt>
<pdfrwt beam="2">  1       -1 0.13073464E+00 0.81449557E+03</pdfrwt>
<totfact> 0.53455195E+00</totfact>
</mgrwt>
</event>
<event>
 4    1  0.1521315E-007  0.7431086E+03  0.7818608E-02  0.9850983E-01
          1   -1    0    0  501    0  0.00000000000E+00  0.00000000000E+00  0.14982270832E+04  0.14982270832E+04  0.50400000000E-02 0. -1.
         -1   -1    0    0    0  501 -0.00000000000E+00 -0.00000000000E+00 -0.30209413649E+03  0.30209413653E+03  0.50400000000E-02 0.  1.
    8880023    1    1    2    0    0 -0.31795167042E+03 -0.13155602116E+03  0.12139626505E+04  0.14233466811E+04  0.65864270000E+03 0. -1.
    8880022    1    1    2    0    0  0.31795167042E+03  0.13155602116E+03 -0.17829703825E+02  0.37697453864E+03  0.15294330000E+03 0.  0.
<mgrwt>
<rscale>  0 0.62696842E+03</rscale>
<asrwt>0</asrwt>
<pdfrwt beam="1">  1        1 0.23049648E+00 0.74310864E+03</pdfrwt>
<pdfrwt beam="2">  1       -1 0.46476020E-01 0.74310864E+03</pdfrwt>
<totfact> 0.31222274E+01</totfact>
</mgrwt>
</event>
<event>
 4    1  0.1521315E-007  0.6964336E+03  0.7818608E-02  0.1001233E+00
         -1   -1    0    0    0  501 -0.00000000000E+00  0.00000000000E+00  0.35723136000E+03  0.35723136004E+03  0.50400000000E-02 0.  1.
          1   -1    0    0  501    0  0.00000000000E+00 -0.00000000000E+00 -0.11827376887E+04  0.11827376887E+04  0.50400000000E-02 0. -1.
    8880023    1    1    2    0    0 -0.20047241556E+03  0.10497792816E+03 -0.99796689965E+03  0.12169460522E+04  0.65864270000E+03 0. -1.
    8880022    1    1    2    0    0  0.20047241556E+03 -0.10497792816E+03  0.17246057093E+03  0.32302299661E+03  0.15294330000E+03 0.  0.
<mgrwt>
<rscale>  0 0.55112869E+03</rscale>
<asrwt>0</asrwt>
<pdfrwt beam="1">  1        1 0.18195964E+00 0.69643360E+03</pdfrwt>
<pdfrwt beam="2">  1       -1 0.54958671E-01 0.69643360E+03</pdfrwt>
<totfact> 0.38046388E+01</totfact>
</mgrwt>
</event>
<event>
 4    1  0.1521315E-007  0.7500059E+03  0.7818608E-02  0.9831704E-01
          1   -1    0    0  501    0  0.00000000000E+00  0.00000000000E+00  0.20488928188E+04  0.20488928188E+04  0.50400000000E-02 0. -1.
         -1   -1    0    0    0  501 -0.00000000000E+00 -0.00000000000E+00 -0.58371531829E+03  0.58371531832E+03  0.50400000000E-02 0.  1.
    8880023    1    1    2    0    0  0.35700503107E+03 -0.35300191105E+02  0.19034881557E+04  0.20459169243E+04  0.65864270000E+03 0. -1.
    8880022    1    1    2    0    0 -0.35700503107E+03  0.35300191105E+02 -0.43831065525E+03  0.58669121284E+03  0.15294330000E+03 0.  0.
<mgrwt>
<rscale>  0 0.63688531E+03</rscale>
<asrwt>0</asrwt>
<pdfrwt beam="1">  1        1 0.31521428E+00 0.75000593E+03</pdfrwt>
<pdfrwt beam="2">  1       -1 0.89802357E-01 0.75000593E+03</pdfrwt>
<totfact> 0.35269826E+00</totfact>
</mgrwt>
</event>
<event>
 4    1  0.1521315E-007  0.8773371E+03  0.7818608E-02  0.9563438E-01
         -1   -1    0    0    0  501 -0.00000000000E+00  0.00000000000E+00  0.49372943849E+03  0.49372943852E+03  0.50400000000E-02 0.  1.
          1   -1    0    0  501    0  0.00000000000E+00 -0.00000000000E+00 -0.21746729363E+04  0.21746729363E+04  0.50400000000E-02 0. -1.
    8880023    1    1    2    0    0 -0.29685154430E+03 -0.49778444631E+03 -0.18483892538E+04  0.20460359807E+04  0.65864270000E+03 0. -1.
    8880022    1    1    2    0    0  0.29685154430E+03  0.49778444631E+03  0.16744575601E+03  0.62236639415E+03  0.15294330000E+03 0.  0.
<mgrwt>
<rscale>  0 0.79764070E+03</rscale>
<asrwt>0</asrwt>
<pdfrwt beam="1">  1        1 0.33456506E+00 0.87733711E+03</pdfrwt>
<pdfrwt beam="2">  1       -1 0.75958377E-01 0.87733711E+03</pdfrwt>
<totfact> 0.40716426E+00</totfact>
</mgrwt>
</event>
<event>
 4    1  0.1521315E-007  0.8892278E+03  0.7818608E-02  0.9543550E-01
         -1   -1    0    0    0  501 -0.00000000000E+00  0.00000000000E+00  0.33965407350E+03  0.33965407354E+03  0.50400000000E-02 0.  1.
          1   -1    0    0  501    0  0.00000000000E+00 -0.00000000000E+00 -0.21102201160E+04  0.21102201160E+04  0.50400000000E-02 0. -1.
    8880023    1    1    2    0    0  0.40449789843E+03  0.43965599738E+03 -0.45932240140E+03  0.10008512480E+04  0.65864270000E+03 0.  1.
    8880022    1    1    2    0    0 -0.40449789843E+03 -0.43965599738E+03 -0.13112436411E+04  0.14490229416E+04  0.15294330000E+03 0.  0.
<mgrwt>
<rscale>  0 0.81147784E+03</rscale>
<asrwt>0</asrwt>
<pdfrwt beam="1">  1        1 0.32464924E+00 0.88922784E+03</pdfrwt>
<pdfrwt beam="2">  1       -1 0.52254474E-01 0.88922784E+03</pdfrwt>
<totfact> 0.94984243E+00</totfact>
</mgrwt>
</event>
<event>
 4    1  0.1521315E-007  0.9778207E+03  0.7818608E-02  0.9411168E-01
         -1   -1    0    0    0  501 -0.00000000000E+00  0.00000000000E+00  0.14750742983E+04  0.14750742983E+04  0.50400000000E-02 0.  1.
          1   -1    0    0  501    0  0.00000000000E+00 -0.00000000000E+00 -0.67172016460E+03  0.67172016462E+03  0.50400000000E-02 0. -1.
    8880023    1    1    2    0    0  0.70741612420E+03 -0.14793739171E+03 -0.96482464052E+02  0.98256914096E+03  0.65864270000E+03 0.  0.
    8880022    1    1    2    0    0 -0.70741612420E+03  0.14793739171E+03  0.89983659774E+03  0.11642253220E+04  0.15294330000E+03 0.  0.
<mgrwt>
<rscale>  0 0.91162267E+03</rscale>
<asrwt>0</asrwt>
<pdfrwt beam="1">  1        1 0.10334156E+00 0.97782066E+03</pdfrwt>
<pdfrwt beam="2">  1       -1 0.22693451E+00 0.97782066E+03</pdfrwt>
<totfact> 0.28935129E+00</totfact>
</mgrwt>
</event>
<event>
 4    1  0.1521315E-007  0.8613794E+03  0.7818608E-02  0.9591114E-01
          1   -1    0    0  501    0  0.00000000000E+00  0.00000000000E+00  0.86599292696E+03  0.86599292697E+03  0.50400000000E-02 0. -1.
         -1   -1    0    0    0  501 -0.00000000000E+00 -0.00000000000E+00 -0.17188922021E+04  0.17188922021E+04  0.50400000000E-02 0.  1.
    8880023    1    1    2    0    0 -0.17108351634E+01 -0.55512277206E+03  0.58146033404E+03  0.10392644251E+04  0.65864270000E+03 0. -1.
    8880022    1    1    2    0    0  0.17108351634E+01  0.55512277206E+03 -0.14343596092E+04  0.15456207040E+04  0.15294330000E+03 0.  0.
<mgrwt>
<rscale>  0 0.77887083E+03</rscale>
<asrwt>0</asrwt>
<pdfrwt beam="1">  1        1 0.13322968E+00 0.86137937E+03</pdfrwt>
<pdfrwt beam="2">  1       -1 0.26444495E+00 0.86137937E+03</pdfrwt>
<totfact> 0.11240811E+00</totfact>
</mgrwt>
</event>
<event>
 4    1  0.1521315E-007  0.6721686E+03  0.7818608E-02  0.1014154E+00
          1   -1    0    0  501    0  0.00000000000E+00  0.00000000000E+00  0.73103220221E+03  0.73103220223E+03  0.50400000000E-02 0. -1.
         -1   -1    0    0    0  501 -0.00000000000E+00 -0.00000000000E+00 -0.57964315985E+03  0.57964315987E+03  0.50400000000E-02 0.  1.
    8880023    1    1    2    0    0  0.13324798759E+03  0.15663458749E+02  0.54647500813E+03  0.86628258144E+03  0.65864270000E+03 0.  0.
    8880022    1    1    2    0    0 -0.13324798759E+03 -0.15663458749E+02 -0.39508596577E+03  0.44439278066E+03  0.15294330000E+03 0.  0.
<mgrwt>
<rscale>  0 0.49856666E+03</rscale>
<asrwt>0</asrwt>
<pdfrwt beam="1">  1        1 0.11246649E+00 0.67216856E+03</pdfrwt>
<pdfrwt beam="2">  1       -1 0.89175872E-01 0.67216856E+03</pdfrwt>
<totfact> 0.32468128E+01</totfact>
</mgrwt>
</event>
<event>
 4    1  0.1521315E-007  0.7183855E+03  0.7818608E-02  0.9928087E-01
         -1   -1    0    0    0  501 -0.00000000000E+00  0.00000000000E+00  0.21062212171E+03  0.21062212177E+03  0.50400000000E-02 0.  1.
          1   -1    0    0  501    0  0.00000000000E+00 -0.00000000000E+00 -0.37794810779E+04  0.37794810779E+04  0.50400000000E-02 0. -1.
    8880023    1    1    2    0    0  0.32345824356E+01  0.28680485433E+03 -0.35930399173E+04  0.36641524996E+04  0.65864270000E+03 0. -1.
    8880022    1    1    2    0    0 -0.32345824356E+01 -0.28680485433E+03  0.24180961068E+02  0.32595070008E+03  0.15294330000E+03 0.  0.
<mgrwt>
<rscale>  0 0.58919159E+03</rscale>
<asrwt>0</asrwt>
<pdfrwt beam="1">  1        1 0.58145858E+00 0.71838548E+03</pdfrwt>
<pdfrwt beam="2">  1       -1 0.32403406E-01 0.71838548E+03</pdfrwt>
<totfact> 0.14569429E+00</totfact>
</mgrwt>
</event>
<event>
 4    1  0.1521315E-007  0.7080802E+03  0.7818608E-02  0.9965200E-01
          1   -1    0    0  501    0  0.00000000000E+00  0.00000000000E+00  0.85216506811E+03  0.85216506812E+03  0.50400000000E-02 0. -1.
         -1   -1    0    0    0  501 -0.00000000000E+00 -0.00000000000E+00 -0.59755461419E+03  0.59755461421E+03  0.50400000000E-02 0.  1.
    8880023    1    1    2    0    0 -0.20543128305E+03 -0.15926495080E+03  0.64403697382E+03  0.95716308251E+03  0.65864270000E+03 0. -1.
    8880022    1    1    2    0    0  0.20543128305E+03  0.15926495080E+03 -0.38942651990E+03  0.49255659982E+03  0.15294330000E+03 0.  0.
<mgrwt>
<rscale>  0 0.57202832E+03</rscale>
<asrwt>0</asrwt>
<pdfrwt beam="1">  1        1 0.13110232E+00 0.70808018E+03</pdfrwt>
<pdfrwt beam="2">  1       -1 0.91931480E-01 0.70808018E+03</pdfrwt>
<totfact> 0.23720119E+01</totfact>
</mgrwt>
</event>
<event>
 4    1  0.1521315E-007  0.9170483E+03  0.7818608E-02  0.9499200E-01
          1   -1    0    0  501    0  0.00000000000E+00  0.00000000000E+00  0.65451106438E+03  0.65451106440E+03  0.50400000000E-02 0. -1.
         -1   -1    0    0    0  501 -0.00000000000E+00 -0.00000000000E+00 -0.11289648344E+04  0.11289648344E+04  0.50400000000E-02 0.  1.
    8880023    1    1    2    0    0 -0.20886796837E+03  0.60294413583E+03 -0.62561130069E+03  0.11101203381E+04  0.65864270000E+03 0. -1.
    8880022    1    1    2    0    0  0.20886796837E+03 -0.60294413583E+03  0.15115753065E+03  0.67335556078E+03  0.15294330000E+03 0.  0.
<mgrwt>
<rscale>  0 0.84342850E+03</rscale>
<asrwt>0</asrwt>
<pdfrwt beam="1">  1        1 0.10069401E+00 0.91704834E+03</pdfrwt>
<pdfrwt beam="2">  1       -1 0.17368690E+00 0.91704834E+03</pdfrwt>
<totfact> 0.70534314E+00</totfact>
</mgrwt>
</event>
<event>
 4    1  0.1521315E-007  0.9638597E+03  0.7818608E-02  0.9430447E-01
          1   -1    0    0  501    0  0.00000000000E+00  0.00000000000E+00  0.55578803149E+03  0.55578803151E+03  0.50400000000E-02 0. -1.
         -1   -1    0    0    0  501 -0.00000000000E+00 -0.00000000000E+00 -0.15230598094E+04  0.15230598094E+04  0.50400000000E-02 0.  1.
    8880023    1    1    2    0    0 -0.69567709393E+03  0.10605971012E+03 -0.12698078287E+03  0.97218805105E+03  0.65864270000E+03 0. -1.
    8880022    1    1    2    0    0  0.69567709393E+03 -0.10605971012E+03 -0.84029099505E+03  0.11066597899E+04  0.15294330000E+03 0.  0.
<mgrwt>
<rscale>  0 0.89611790E+03</rscale>
<asrwt>0</asrwt>
<pdfrwt beam="1">  1        1 0.85505852E-01 0.96385968E+03</pdfrwt>
<pdfrwt beam="2">  1       -1 0.23431689E+00 0.96385968E+03</pdfrwt>
<totfact> 0.34153973E+00</totfact>
</mgrwt>
</event>
<event>
 4    1  0.1521315E-007  0.6821830E+03  0.7818608E-02  0.1008115E+00
         -1   -1    0    0    0  501 -0.00000000000E+00  0.00000000000E+00  0.17498184263E+03  0.17498184270E+03  0.50400000000E-02 0.  1.
          1   -1    0    0  501    0  0.00000000000E+00 -0.00000000000E+00 -0.22152636589E+04  0.22152636590E+04  0.50400000000E-02 0. -1.
    8880023    1    1    2    0    0  0.17762021621E+03  0.38146568564E+01 -0.20449899538E+04  0.21557730888E+04  0.65864270000E+03 0.  0.
    8880022    1    1    2    0    0 -0.17762021621E+03 -0.38146568564E+01  0.47081375279E+01  0.23447241285E+03  0.15294330000E+03 0.  0.
<mgrwt>
<rscale>  0 0.52230807E+03</rscale>
<asrwt>0</asrwt>
<pdfrwt beam="1">  1        1 0.34080977E+00 0.68218304E+03</pdfrwt>
<pdfrwt beam="2">  1       -1 0.26920285E-01 0.68218304E+03</pdfrwt>
<totfact> 0.27559981E+01</totfact>
</mgrwt>
</event>
<event>
 4    1  0.1521315E-007  0.7989186E+03  0.7818608E-02  0.9713139E-01
          1   -1    0    0  501    0  0.00000000000E+00  0.00000000000E+00  0.26333212806E+04  0.26333212806E+04  0.50400000000E-02 0. -1.
         -1   -1    0    0    0  501 -0.00000000000E+00 -0.00000000000E+00 -0.75154349104E+03  0.75154349106E+03  0.50400000000E-02 0.  1.
    8880023    1    1    2    0    0 -0.42537309501E+03 -0.15335749116E+03  0.24880844921E+04  0.26132040556E+04  0.65864270000E+03 0. -1.
    8880022    1    1    2    0    0  0.42537309501E+03  0.15335749116E+03 -0.60630670258E+03  0.77166071603E+03  0.15294330000E+03 0.  0.
<mgrwt>
<rscale>  0 0.70239858E+03</rscale>
<asrwt>0</asrwt>
<pdfrwt beam="1">  1        1 0.40512636E+00 0.79891864E+03</pdfrwt>
<pdfrwt beam="2">  1       -1 0.11562207E+00 0.79891864E+03</pdfrwt>
<totfact> 0.78544270E-01</totfact>
</mgrwt>
</event>
<event>
 4    1  0.1521315E-007  0.9684972E+03  0.7818608E-02  0.9423986E-01
         -1   -1    0    0    0  501 -0.00000000000E+00  0.00000000000E+00  0.37740769226E+03  0.37740769229E+03  0.50400000000E-02 0.  1.
          1   -1    0    0  501    0  0.00000000000E+00 -0.00000000000E+00 -0.23142916379E+04  0.23142916379E+04  0.50400000000E-02 0. -1.
    8880023    1    1    2    0    0 -0.59965965979E+03 -0.38024319612E+03 -0.16449531355E+04  0.19088891063E+04  0.65864270000E+03 0.  0.
    8880022    1    1    2    0    0  0.59965965979E+03  0.38024319612E+03 -0.29193081016E+03  0.78281022395E+03  0.15294330000E+03 0.  0.
<mgrwt>
<rscale>  0 0.90127766E+03</rscale>
<asrwt>0</asrwt>
<pdfrwt beam="1">  1        1 0.35604486E+00 0.96849719E+03</pdfrwt>
<pdfrwt beam="2">  1       -1 0.58062723E-01 0.96849719E+03</pdfrwt>
<totfact> 0.55775835E+00</totfact>
</mgrwt>
</event>
<event>
 4    1  0.1521315E-007  0.8130307E+03  0.7818608E-02  0.9683298E-01
          1   -1    0    0  501    0  0.00000000000E+00  0.00000000000E+00  0.10217576163E+04  0.10217576163E+04  0.50400000000E-02 0. -1.
         -1   -1    0    0    0  501 -0.00000000000E+00 -0.00000000000E+00 -0.63084473006E+03  0.63084473008E+03  0.50400000000E-02 0.  1.
    8880023    1    1    2    0    0  0.44720389316E+02 -0.47456175509E+03  0.69266995131E+03  0.10680873749E+04  0.65864270000E+03 0.  0.
    8880022    1    1    2    0    0 -0.44720389316E+02  0.47456175509E+03 -0.30175706507E+03  0.58451497153E+03  0.15294330000E+03 0.  0.
<mgrwt>
<rscale>  0 0.72019972E+03</rscale>
<asrwt>0</asrwt>
<pdfrwt beam="1">  1        1 0.15719348E+00 0.81303074E+03</pdfrwt>
<pdfrwt beam="2">  1       -1 0.97053035E-01 0.81303074E+03</pdfrwt>
<totfact> 0.15184656E+01</totfact>
</mgrwt>
</event>
<event>
 4    1  0.1521315E-007  0.7229233E+03  0.7818608E-02  0.9912816E-01
         -1   -1    0    0    0  501 -0.00000000000E+00  0.00000000000E+00  0.11612212571E+04  0.11612212571E+04  0.50400000000E-02 0.  1.
          1   -1    0    0  501    0  0.00000000000E+00 -0.00000000000E+00 -0.85762912156E+03  0.85762912158E+03  0.50400000000E-02 0. -1.
    8880023    1    1    2    0    0 -0.26090529097E+03 -0.14400086601E+03 -0.67220890858E+03  0.98715897570E+03  0.65864270000E+03 0. -1.
    8880022    1    1    2    0    0  0.26090529097E+03  0.14400086601E+03  0.97580104408E+03  0.10316914029E+04  0.15294330000E+03 0.  0.
<mgrwt>
<rscale>  0 0.59644170E+03</rscale>
<asrwt>0</asrwt>
<pdfrwt beam="1">  1        1 0.13194294E+00 0.72292325E+03</pdfrwt>
<pdfrwt beam="2">  1       -1 0.17864942E+00 0.72292325E+03</pdfrwt>
<totfact> 0.43738827E+00</totfact>
</mgrwt>
</event>
<event>
 4    1  0.1521315E-007  0.6714218E+03  0.7818608E-02  0.1014663E+00
          1   -1    0    0  501    0  0.00000000000E+00  0.00000000000E+00  0.75204054232E+03  0.75204054234E+03  0.50400000000E-02 0. -1.
         -1   -1    0    0    0  501 -0.00000000000E+00 -0.00000000000E+00 -0.78262516391E+03  0.78262516393E+03  0.50400000000E-02 0.  1.
    8880023    1    1    2    0    0  0.53309025498E+01  0.13026377759E+03  0.58287311401E+03  0.88912785558E+03  0.65864270000E+03 0. -1.
    8880022    1    1    2    0    0 -0.53309025498E+01 -0.13026377759E+03 -0.61345773561E+03  0.64553785068E+03  0.15294330000E+03 0.  0.
<mgrwt>
<rscale>  0 0.49662561E+03</rscale>
<asrwt>0</asrwt>
<pdfrwt beam="1">  1        1 0.11569855E+00 0.67142183E+03</pdfrwt>
<pdfrwt beam="2">  1       -1 0.12040387E+00 0.67142183E+03</pdfrwt>
<totfact> 0.15557182E+01</totfact>
</mgrwt>
</event>
<event>
 4    1  0.1521315E-007  0.7882849E+03  0.7818608E-02  0.9736724E-01
         -1   -1    0    0    0  501 -0.00000000000E+00  0.00000000000E+00  0.27070966709E+04  0.27070966709E+04  0.50400000000E-02 0.  1.
          1   -1    0    0  501    0  0.00000000000E+00 -0.00000000000E+00 -0.41943571144E+03  0.41943571147E+03  0.50400000000E-02 0. -1.
    8880023    1    1    2    0    0  0.49762672950E+02  0.43024006156E+03 -0.50126758237E+01  0.78830081020E+03  0.65864270000E+03 0. -1.
    8880022    1    1    2    0    0 -0.49762672950E+02 -0.43024006156E+03  0.22926736353E+04  0.23382315722E+04  0.15294330000E+03 0.  0.
<mgrwt>
<rscale>  0 0.68871753E+03</rscale>
<asrwt>0</asrwt>
<pdfrwt beam="1">  1        1 0.64528570E-01 0.78828487E+03</pdfrwt>
<pdfrwt beam="2">  1       -1 0.41647642E+00 0.78828487E+03</pdfrwt>
<totfact> 0.33078169E-01</totfact>
</mgrwt>
</event>
<event>
 4    1  0.1521315E-007  0.6954860E+03  0.7818608E-02  0.1001647E+00
          1   -1    0    0  501    0  0.00000000000E+00  0.00000000000E+00  0.14284639197E+04  0.14284639197E+04  0.50400000000E-02 0. -1.
         -1   -1    0    0    0  501 -0.00000000000E+00 -0.00000000000E+00 -0.63348521142E+03  0.63348521144E+03  0.50400000000E-02 0.  1.
    8880023    1    1    2    0    0  0.10855427237E+03  0.19520908648E+03  0.13082714302E+04  0.14816460302E+04  0.65864270000E+03 0. -1.
    8880022    1    1    2    0    0 -0.10855427237E+03 -0.19520908648E+03 -0.51329272196E+03  0.58030310091E+03  0.15294330000E+03 0.  0.
<mgrwt>
<rscale>  0 0.54933994E+03</rscale>
<asrwt>0</asrwt>
<pdfrwt beam="1">  1        1 0.21976368E+00 0.69548603E+03</pdfrwt>
<pdfrwt beam="2">  1       -1 0.97459265E-01 0.69548603E+03</pdfrwt>
<totfact> 0.77711818E+00</totfact>
</mgrwt>
</event>
<event>
 4    1  0.1521315E-007  0.9306228E+03  0.7818608E-02  0.9478560E-01
          1   -1    0    0  501    0  0.00000000000E+00  0.00000000000E+00  0.85949469281E+03  0.85949469283E+03  0.50400000000E-02 0. -1.
         -1   -1    0    0    0  501 -0.00000000000E+00 -0.00000000000E+00 -0.13776415064E+04  0.13776415064E+04  0.50400000000E-02 0.  1.
    8880023    1    1    2    0    0 -0.15488615942E+03 -0.63895132717E+03 -0.10313765025E+04  0.13891710539E+04  0.65864270000E+03 0.  0.
    8880022    1    1    2    0    0  0.15488615942E+03  0.63895132717E+03  0.51322968899E+03  0.84796514525E+03  0.15294330000E+03 0.  0.
<mgrwt>
<rscale>  0 0.85883158E+03</rscale>
<asrwt>0</asrwt>
<pdfrwt beam="1">  1        1 0.13222995E+00 0.93062276E+03</pdfrwt>
<pdfrwt beam="2">  1       -1 0.21194485E+00 0.93062276E+03</pdfrwt>
<totfact> 0.24861780E+00</totfact>
</mgrwt>
</event>
<event>
 4    1  0.1521315E-007  0.7240421E+03  0.7818608E-02  0.9909139E-01
         -1   -1    0    0    0  501 -0.00000000000E+00  0.00000000000E+00  0.30977238037E+03  0.30977238041E+03  0.50400000000E-02 0.  1.
          1   -1    0    0  501    0  0.00000000000E+00 -0.00000000000E+00 -0.11894918323E+04  0.11894918323E+04  0.50400000000E-02 0. -1.
    8880023    1    1    2    0    0  0.13475013648E+03 -0.26882929652E+03 -0.90727702784E+03  0.11607706929E+04  0.65864270000E+03 0. -1.
    8880022    1    1    2    0    0 -0.13475013648E+03  0.26882929652E+03  0.27557575935E+02  0.33849351981E+03  0.15294330000E+03 0.  0.
<mgrwt>
<rscale>  0 0.59820420E+03</rscale>
<asrwt>0</asrwt>
<pdfrwt beam="1">  1        1 0.18299874E+00 0.72404212E+03</pdfrwt>
<pdfrwt beam="2">  1       -1 0.47657290E-01 0.72404212E+03</pdfrwt>
<totfact> 0.49178066E+01</totfact>
</mgrwt>
</event>
<event>
 4    1  0.1521315E-007  0.7367903E+03  0.7818608E-02  0.9869397E-01
         -1   -1    0    0    0  501 -0.00000000000E+00  0.00000000000E+00  0.11345096726E+04  0.11345096726E+04  0.50400000000E-02 0.  1.
          1   -1    0    0  501    0  0.00000000000E+00 -0.00000000000E+00 -0.41921276764E+03  0.41921276767E+03  0.50400000000E-02 0. -1.
    8880023    1    1    2    0    0  0.21873854508E+03  0.24739281179E+03 -0.15905033218E+02  0.73696196020E+03  0.65864270000E+03 0.  0.
    8880022    1    1    2    0    0 -0.21873854508E+03 -0.24739281179E+03  0.73120193821E+03  0.81676048012E+03  0.15294330000E+03 0.  0.
<mgrwt>
<rscale>  0 0.61767625E+03</rscale>
<asrwt>0</asrwt>
<pdfrwt beam="1">  1        1 0.64494273E-01 0.73679031E+03</pdfrwt>
<pdfrwt beam="2">  1       -1 0.17453995E+00 0.73679031E+03</pdfrwt>
<totfact> 0.13232805E+01</totfact>
</mgrwt>
</event>
<event>
 4    1  0.1521315E-007  0.1014710E+04  0.7818608E-02  0.9362561E-01
         -1   -1    0    0    0  501 -0.00000000000E+00  0.00000000000E+00  0.15887700540E+04  0.15887700540E+04  0.50400000000E-02 0.  1.
          1   -1    0    0  501    0  0.00000000000E+00 -0.00000000000E+00 -0.58481147008E+03  0.58481147010E+03  0.50400000000E-02 0. -1.
    8880023    1    1    2    0    0  0.77184040146E+03 -0.93655082315E+01  0.94147649311E+03  0.13842013984E+04  0.65864270000E+03 0.  0.
    8880022    1    1    2    0    0 -0.77184040146E+03  0.93655082315E+01  0.62482090769E+02  0.78938012564E+03  0.15294330000E+03 0.  0.
<mgrwt>
<rscale>  0 0.95221863E+03</rscale>
<asrwt>0</asrwt>
<pdfrwt beam="1">  1        1 0.89970996E-01 0.10147096E+04</pdfrwt>
<pdfrwt beam="2">  1       -1 0.24442616E+00 0.10147096E+04</pdfrwt>
<totfact> 0.27110206E+00</totfact>
</mgrwt>
</event>
<event>
 4    1  0.1521315E-007  0.9427152E+03  0.7818608E-02  0.9460674E-01
          1   -1    0    0  501    0  0.00000000000E+00  0.00000000000E+00  0.29785687889E+04  0.29785687889E+04  0.50400000000E-02 0. -1.
         -1   -1    0    0    0  501 -0.00000000000E+00 -0.00000000000E+00 -0.57591692580E+03  0.57591692582E+03  0.50400000000E-02 0.  1.
    8880023    1    1    2    0    0  0.10048387237E+03  0.66693681233E+03  0.26556990101E+04  0.28180576926E+04  0.65864270000E+03 0.  0.
    8880022    1    1    2    0    0 -0.10048387237E+03 -0.66693681233E+03 -0.25304714696E+03  0.73642802218E+03  0.15294330000E+03 0.  0.
<mgrwt>
<rscale>  0 0.87246331E+03</rscale>
<asrwt>0</asrwt>
<pdfrwt beam="1">  1        1 0.45824134E+00 0.94271519E+03</pdfrwt>
<pdfrwt beam="2">  1       -1 0.88602605E-01 0.94271519E+03</pdfrwt>
<totfact> 0.80420161E-01</totfact>
</mgrwt>
</event>
<event>
 4    1  0.1521315E-007  0.6646445E+03  0.7818608E-02  0.1019834E+00
         -1   -1    0    0    0  501 -0.00000000000E+00  0.00000000000E+00  0.12910072441E+04  0.12910072441E+04  0.50400000000E-02 0.  1.
          1   -1    0    0  501    0  0.00000000000E+00 -0.00000000000E+00 -0.46471220078E+03  0.46471220081E+03  0.50400000000E-02 0. -1.
    8880023    1    1    2    0    0  0.80240535822E+02 -0.38775713921E+02 -0.21572038717E+03  0.69877578041E+03  0.65864270000E+03 0. -1.
    8880022    1    1    2    0    0 -0.80240535822E+02  0.38775713921E+02  0.10420154305E+04  0.10569436645E+04  0.15294330000E+03 0.  0.
<mgrwt>
<rscale>  0 0.47746727E+03</rscale>
<asrwt>0</asrwt>
<pdfrwt beam="1">  1        1 0.71494186E-01 0.66464450E+03</pdfrwt>
<pdfrwt beam="2">  1       -1 0.19861650E+00 0.66464450E+03</pdfrwt>
<totfact> 0.78828409E+00</totfact>
</mgrwt>
</event>
<event>
 4    1  0.1521315E-007  0.9757180E+03  0.7818608E-02  0.9414039E-01
         -1   -1    0    0    0  501 -0.00000000000E+00  0.00000000000E+00  0.16176477971E+04  0.16176477971E+04  0.50400000000E-02 0.  1.
          1   -1    0    0  501    0  0.00000000000E+00 -0.00000000000E+00 -0.51052110496E+03  0.51052110499E+03  0.50400000000E-02 0. -1.
    8880023    1    1    2    0    0 -0.51255286221E+02 -0.71804482869E+03  0.26761667394E+03  0.10117531175E+04  0.65864270000E+03 0.  0.
    8880022    1    1    2    0    0  0.51255286221E+02  0.71804482869E+03  0.83951001816E+03  0.11164157845E+04  0.15294330000E+03 0.  0.
<mgrwt>
<rscale>  0 0.90929289E+03</rscale>
<asrwt>0</asrwt>
<pdfrwt beam="1">  1        1 0.78541711E-01 0.97571804E+03</pdfrwt>
<pdfrwt beam="2">  1       -1 0.24886889E+00 0.97571804E+03</pdfrwt>
<totfact> 0.30880841E+00</totfact>
</mgrwt>
</event>
<event>
 4    1  0.1521315E-007  0.7608693E+03  0.7818608E-02  0.9802862E-01
         -1   -1    0    0    0  501 -0.00000000000E+00  0.00000000000E+00  0.14418803024E+04  0.14418803024E+04  0.50400000000E-02 0.  1.
          1   -1    0    0  501    0  0.00000000000E+00 -0.00000000000E+00 -0.29387413020E+03  0.29387413024E+03  0.50400000000E-02 0. -1.
    8880023    1    1    2    0    0  0.21661781861E+03 -0.31335054546E+03  0.34820030874E+03  0.83675892881E+03  0.65864270000E+03 0. -1.
    8880022    1    1    2    0    0 -0.21661781861E+03  0.31335054546E+03  0.79980586344E+03  0.89899550381E+03  0.15294330000E+03 0.  0.
<mgrwt>
<rscale>  0 0.65209166E+03</rscale>
<asrwt>0</asrwt>
<pdfrwt beam="1">  1        1 0.45211406E-01 0.76086927E+03</pdfrwt>
<pdfrwt beam="2">  1       -1 0.22182773E+00 0.76086927E+03</pdfrwt>
<totfact> 0.99371773E+00</totfact>
</mgrwt>
</event>
<event>
 4    1  0.1521315E-007  0.6690722E+03  0.7818608E-02  0.1016337E+00
          1   -1    0    0  501    0  0.00000000000E+00  0.00000000000E+00  0.13717583839E+04  0.13717583839E+04  0.50400000000E-02 0. -1.
         -1   -1    0    0    0  501 -0.00000000000E+00 -0.00000000000E+00 -0.13681928481E+03  0.13681928490E+03  0.50400000000E-02 0.  1.
    8880023    1    1    2    0    0 -0.11177080646E+03 -0.36806894190E+02  0.89159389809E+03  0.11147185053E+04  0.65864270000E+03 0.  0.
    8880022    1    1    2    0    0  0.11177080646E+03  0.36806894190E+02  0.34334520104E+03  0.39385916357E+03  0.15294330000E+03 0.  1.
<mgrwt>
<rscale>  0 0.49032008E+03</rscale>
<asrwt>0</asrwt>
<pdfrwt beam="1">  1        1 0.21103975E+00 0.66907224E+03</pdfrwt>
<pdfrwt beam="2">  1       -1 0.21049121E-01 0.66907224E+03</pdfrwt>
<totfact> 0.15472422E+02</totfact>
</mgrwt>
</event>
<event>
 4    1  0.1521315E-007  0.7230381E+03  0.7818608E-02  0.9912437E-01
          1   -1    0    0  501    0  0.00000000000E+00  0.00000000000E+00  0.10763852224E+04  0.10763852225E+04  0.50400000000E-02 0. -1.
         -1   -1    0    0    0  501 -0.00000000000E+00 -0.00000000000E+00 -0.34632628641E+03  0.34632628645E+03  0.50400000000E-02 0.  1.
    8880023    1    1    2    0    0  0.24961568561E+03  0.16329683997E+03  0.80206265107E+03  0.10798558010E+04  0.65864270000E+03 0.  0.
    8880022    1    1    2    0    0 -0.24961568561E+03 -0.16329683997E+03 -0.72003715037E+02  0.34285570790E+03  0.15294330000E+03 0.  0.
<mgrwt>
<rscale>  0 0.59662301E+03</rscale>
<asrwt>0</asrwt>
<pdfrwt beam="1">  1        1 0.16559773E+00 0.72303807E+03</pdfrwt>
<pdfrwt beam="2">  1       -1 0.53280967E-01 0.72303807E+03</pdfrwt>
<totfact> 0.48241356E+01</totfact>
</mgrwt>
</event>
<event>
 4    1  0.1521315E-007  0.7044840E+03  0.7818608E-02  0.9979085E-01
         -1   -1    0    0    0  501 -0.00000000000E+00  0.00000000000E+00  0.57820252165E+03  0.57820252167E+03  0.50400000000E-02 0.  1.
          1   -1    0    0  501    0  0.00000000000E+00 -0.00000000000E+00 -0.17877439354E+04  0.17877439354E+04  0.50400000000E-02 0. -1.
    8880023    1    1    2    0    0 -0.11552132076E+03  0.22168060345E+03 -0.16743206993E+04  0.18164931808E+04  0.65864270000E+03 0. -1.
    8880022    1    1    2    0    0  0.11552132076E+03 -0.22168060345E+03  0.46477928556E+03  0.54945327626E+03  0.15294330000E+03 0.  0.
<mgrwt>
<rscale>  0 0.56576918E+03</rscale>
<asrwt>0</asrwt>
<pdfrwt beam="1">  1        1 0.27503753E+00 0.70448398E+03</pdfrwt>
<pdfrwt beam="2">  1       -1 0.88954235E-01 0.70448398E+03</pdfrwt>
<totfact> 0.54271258E+00</totfact>
</mgrwt>
</event>
<event>
 4    1  0.1521315E-007  0.6927673E+03  0.7818608E-02  0.1002864E+00
         -1   -1    0    0    0  501 -0.00000000000E+00  0.00000000000E+00  0.15567892905E+03  0.15567892913E+03  0.50400000000E-02 0.  1.
          1   -1    0    0  501    0  0.00000000000E+00 -0.00000000000E+00 -0.28215184836E+04  0.28215184836E+04  0.50400000000E-02 0. -1.
    8880023    1    1    2    0    0  0.76602388524E+01 -0.21461058774E+03 -0.26194417110E+04  0.27095020700E+04  0.65864270000E+03 0. -1.
    8880022    1    1    2    0    0 -0.76602388524E+01  0.21461058774E+03 -0.46397843537E+02  0.26769534275E+03  0.15294330000E+03 0.  0.
<mgrwt>
<rscale>  0 0.54412030E+03</rscale>
<asrwt>0</asrwt>
<pdfrwt beam="1">  1        1 0.43407973E+00 0.69276734E+03</pdfrwt>
<pdfrwt beam="2">  1       -1 0.23950607E-01 0.69276734E+03</pdfrwt>
<totfact> 0.12935850E+01</totfact>
</mgrwt>
</event>
<event>
 4    1  0.1521315E-007  0.7047639E+03  0.7818608E-02  0.9977984E-01
         -1   -1    0    0    0  501 -0.00000000000E+00  0.00000000000E+00  0.29767185741E+03  0.29767185745E+03  0.50400000000E-02 0.  1.
          1   -1    0    0  501    0  0.00000000000E+00 -0.00000000000E+00 -0.11268480747E+04  0.11268480747E+04  0.50400000000E-02 0. -1.
    8880023    1    1    2    0    0  0.17072542758E+03  0.18367018260E+03 -0.87895111081E+03  0.11266087027E+04  0.65864270000E+03 0. -1.
    8880022    1    1    2    0    0 -0.17072542758E+03 -0.18367018260E+03  0.49774893503E+02  0.29791122946E+03  0.15294330000E+03 0.  0.
<mgrwt>
<rscale>  0 0.56626203E+03</rscale>
<asrwt>0</asrwt>
<pdfrwt beam="1">  1        1 0.17336124E+00 0.70476387E+03</pdfrwt>
<pdfrwt beam="2">  1       -1 0.45795671E-01 0.70476387E+03</pdfrwt>
<totfact> 0.58995430E+01</totfact>
</mgrwt>
</event>
<event>
 4    1  0.1521315E-007  0.6736689E+03  0.7818608E-02  0.1013159E+00
         -1   -1    0    0    0  501 -0.00000000000E+00  0.00000000000E+00  0.37470510140E+03  0.37470510143E+03  0.50400000000E-02 0.  1.
          1   -1    0    0  501    0  0.00000000000E+00 -0.00000000000E+00 -0.61655843805E+03  0.61655843807E+03  0.50400000000E-02 0. -1.
    8880023    1    1    2    0    0 -0.13930667934E+03 -0.24762787438E+02 -0.34710609569E+03  0.75783401512E+03  0.65864270000E+03 0.  0.
    8880022    1    1    2    0    0  0.13930667934E+03  0.24762787438E+02  0.10525275904E+03  0.23342952438E+03  0.15294330000E+03 0.  0.
<mgrwt>
<rscale>  0 0.50238317E+03</rscale>
<asrwt>0</asrwt>
<pdfrwt beam="1">  1        1 0.94855144E-01 0.67366887E+03</pdfrwt>
<pdfrwt beam="2">  1       -1 0.57646939E-01 0.67366887E+03</pdfrwt>
<totfact> 0.10271169E+02</totfact>
</mgrwt>
</event>
<event>
 4    1  0.1521315E-007  0.7923129E+03  0.7818608E-02  0.9727670E-01
          1   -1    0    0  501    0  0.00000000000E+00  0.00000000000E+00  0.10667978065E+04  0.10667978065E+04  0.50400000000E-02 0. -1.
         -1   -1    0    0    0  501 -0.00000000000E+00 -0.00000000000E+00 -0.96902590566E+03  0.96902590568E+03  0.50400000000E-02 0.  1.
    8880023    1    1    2    0    0  0.43084104091E+03 -0.91243961586E+02  0.84293059159E+03  0.11568455608E+04  0.65864270000E+03 0. -1.
    8880022    1    1    2    0    0 -0.43084104091E+03  0.91243961586E+02 -0.74515869079E+03  0.87897815134E+03  0.15294330000E+03 0.  0.
<mgrwt>
<rscale>  0 0.69392936E+03</rscale>
<asrwt>0</asrwt>
<pdfrwt beam="1">  1        1 0.16412274E+00 0.79231286E+03</pdfrwt>
<pdfrwt beam="2">  1       -1 0.14908091E+00 0.79231286E+03</pdfrwt>
<totfact> 0.49113201E+00</totfact>
</mgrwt>
</event>
<event>
 4    1  0.1521315E-007  0.7164251E+03  0.7818608E-02  0.9934873E-01
         -1   -1    0    0    0  501 -0.00000000000E+00  0.00000000000E+00  0.27220882124E+03  0.27220882129E+03  0.50400000000E-02 0.  1.
          1   -1    0    0  501    0  0.00000000000E+00 -0.00000000000E+00 -0.14672912718E+04  0.14672912718E+04  0.50400000000E-02 0. -1.
    8880023    1    1    2    0    0  0.24985206307E+03 -0.13049412853E+03 -0.12232111863E+04  0.14175720735E+04  0.65864270000E+03 0. -1.
    8880022    1    1    2    0    0 -0.24985206307E+03  0.13049412853E+03  0.28128735759E+02  0.32192801958E+03  0.15294330000E+03 0.  0.
<mgrwt>
<rscale>  0 0.58600559E+03</rscale>
<asrwt>0</asrwt>
<pdfrwt beam="1">  1        1 0.22573711E+00 0.71642514E+03</pdfrwt>
<pdfrwt beam="2">  1       -1 0.41878281E-01 0.71642514E+03</pdfrwt>
<totfact> 0.39879394E+01</totfact>
</mgrwt>
</event>
<event>
 4    1  0.1521315E-007  0.8061111E+03  0.7818608E-02  0.9697735E-01
          1   -1    0    0  501    0  0.00000000000E+00  0.00000000000E+00  0.13646791240E+04  0.13646791240E+04  0.50400000000E-02 0. -1.
         -1   -1    0    0    0  501 -0.00000000000E+00 -0.00000000000E+00 -0.31594406317E+03  0.31594406321E+03  0.50400000000E-02 0.  1.
    8880023    1    1    2    0    0  0.42364299504E+03 -0.19113229273E+03  0.51509478996E+03  0.95662834449E+03  0.65864270000E+03 0.  0.
    8880022    1    1    2    0    0 -0.42364299504E+03  0.19113229273E+03  0.53364027083E+03  0.72399484268E+03  0.15294330000E+03 0.  0.
<mgrwt>
<rscale>  0 0.71151807E+03</rscale>
<asrwt>0</asrwt>
<pdfrwt beam="1">  1        1 0.20995063E+00 0.80611113E+03</pdfrwt>
<pdfrwt beam="2">  1       -1 0.48606779E-01 0.80611113E+03</pdfrwt>
<totfact> 0.35253861E+01</totfact>
</mgrwt>
</event>
<event>
 4    1  0.1521315E-007  0.1025245E+04  0.7818608E-02  0.9349250E-01
          1   -1    0    0  501    0  0.00000000000E+00  0.00000000000E+00  0.25913732156E+04  0.25913732156E+04  0.50400000000E-02 0. -1.
         -1   -1    0    0    0  501 -0.00000000000E+00 -0.00000000000E+00 -0.61777287896E+03  0.61777287898E+03  0.50400000000E-02 0.  1.
    8880023    1    1    2    0    0  0.77131882688E+03 -0.14961333991E+03  0.21567368817E+04  0.23880203239E+04  0.65864270000E+03 0.  0.
    8880022    1    1    2    0    0 -0.77131882688E+03  0.14961333991E+03 -0.18313654504E+03  0.82112577071E+03  0.15294330000E+03 0.  0.
<mgrwt>
<rscale>  0 0.96372533E+03</rscale>
<asrwt>0</asrwt>
<pdfrwt beam="1">  1        1 0.39867280E+00 0.10252449E+04</pdfrwt>
<pdfrwt beam="2">  1       -1 0.95041982E-01 0.10252449E+04</pdfrwt>
<totfact> 0.12718214E+00</totfact>
</mgrwt>
</event>
<event>
 4    1  0.1521315E-007  0.7202106E+03  0.7818608E-02  0.9921874E-01
         -1   -1    0    0    0  501 -0.00000000000E+00  0.00000000000E+00  0.15008072338E+03  0.15008072346E+03  0.50400000000E-02 0.  1.
          1   -1    0    0  501    0  0.00000000000E+00 -0.00000000000E+00 -0.44744713483E+04  0.44744713483E+04  0.50400000000E-02 0. -1.
    8880023    1    1    2    0    0  0.28981406225E+03  0.30015328438E+02 -0.42175117227E+04  0.42785638301E+04  0.65864270000E+03 0.  0.
    8880022    1    1    2    0    0 -0.28981406225E+03 -0.30015328438E+02 -0.10687890219E+03  0.34598824166E+03  0.15294330000E+03 0.  0.
<mgrwt>
<rscale>  0 0.59212794E+03</rscale>
<asrwt>0</asrwt>
<pdfrwt beam="1">  1        1 0.68838010E+00 0.72021061E+03</pdfrwt>
<pdfrwt beam="2">  1       -1 0.23089346E-01 0.72021061E+03</pdfrwt>
<totfact> 0.62264236E-01</totfact>
</mgrwt>
</event>
<event>
 4    1  0.1521315E-007  0.6864076E+03  0.7818608E-02  0.1005909E+00
          1   -1    0    0  501    0  0.00000000000E+00  0.00000000000E+00  0.15771129452E+04  0.15771129452E+04  0.50400000000E-02 0. -1.
         -1   -1    0    0    0  501 -0.00000000000E+00 -0.00000000000E+00 -0.17730366426E+03  0.17730366433E+03  0.50400000000E-02 0.  1.
    8880023    1    1    2    0    0 -0.13622885253E+03 -0.13706546083E+03  0.13325610494E+04  0.14989577704E+04  0.65864270000E+03 0. -1.
    8880022    1    1    2    0    0  0.13622885253E+03  0.13706546083E+03  0.67248231486E+02  0.25545883908E+03  0.15294330000E+03 0.  0.
<mgrwt>
<rscale>  0 0.53133467E+03</rscale>
<asrwt>0</asrwt>
<pdfrwt beam="1">  1        1 0.24263277E+00 0.68640764E+03</pdfrwt>
<pdfrwt beam="2">  1       -1 0.27277485E-01 0.68640764E+03</pdfrwt>
<totfact> 0.71993644E+01</totfact>
</mgrwt>
</event>
<event>
 4    1  0.1521315E-007  0.7436738E+03  0.7818608E-02  0.9849372E-01
         -1   -1    0    0    0  501 -0.00000000000E+00  0.00000000000E+00  0.23140468476E+03  0.23140468482E+03  0.50400000000E-02 0.  1.
          1   -1    0    0  501    0  0.00000000000E+00 -0.00000000000E+00 -0.38436140495E+04  0.38436140495E+04  0.50400000000E-02 0. -1.
    8880023    1    1    2    0    0 -0.18125746170E+02 -0.34483624517E+03 -0.36216687441E+04  0.36972334626E+04  0.65864270000E+03 0. -1.
    8880022    1    1    2    0    0  0.18125746170E+02  0.34483624517E+03  0.94593793683E+01  0.37778527172E+03  0.15294330000E+03 0.  0.
<mgrwt>
<rscale>  0 0.62778956E+03</rscale>
<asrwt>0</asrwt>
<pdfrwt beam="1">  1        1 0.59132519E+00 0.74367384E+03</pdfrwt>
<pdfrwt beam="2">  1       -1 0.35600724E-01 0.74367384E+03</pdfrwt>
<totfact> 0.10856816E+00</totfact>
</mgrwt>
</event>
<event>
 4    1  0.1521315E-007  0.1383322E+04  0.7818608E-02  0.8996752E-01
         -1   -1    0    0    0  501 -0.00000000000E+00  0.00000000000E+00  0.13767225930E+04  0.13767225930E+04  0.50400000000E-02 0.  1.
          1   -1    0    0  501    0  0.00000000000E+00 -0.00000000000E+00 -0.15151900250E+04  0.15151900250E+04  0.50400000000E-02 0. -1.
    8880023    1    1    2    0    0  0.92943687358E+03  0.78480353474E+03 -0.69195496796E+03  0.15467324830E+04  0.65864270000E+03 0.  0.
    8880022    1    1    2    0    0 -0.92943687358E+03 -0.78480353474E+03  0.55348753596E+03  0.13451801350E+04  0.15294330000E+03 0.  0.
<mgrwt>
<rscale>  0 0.13422028E+04</rscale>
<asrwt>0</asrwt>
<pdfrwt beam="1">  1        1 0.23310616E+00 0.13833220E+04</pdfrwt>
<pdfrwt beam="2">  1       -1 0.21180348E+00 0.13833220E+04</pdfrwt>
<totfact> 0.76515793E-01</totfact>
</mgrwt>
</event>
<event>
 4    1  0.1521315E-007  0.7471055E+03  0.7818608E-02  0.9839713E-01
         -1   -1    0    0    0  501 -0.00000000000E+00  0.00000000000E+00  0.15052333125E+04  0.15052333125E+04  0.50400000000E-02 0.  1.
          1   -1    0    0  501    0  0.00000000000E+00 -0.00000000000E+00 -0.65281908543E+03  0.65281908545E+03  0.50400000000E-02 0. -1.
    8880023    1    1    2    0    0  0.31333913739E+03 -0.16178688638E+03 -0.40037318085E+03  0.84762332544E+03  0.65864270000E+03 0. -1.
    8880022    1    1    2    0    0 -0.31333913739E+03  0.16178688638E+03  0.12527874079E+04  0.13104290725E+04  0.15294330000E+03 0.  0.
<mgrwt>
<rscale>  0 0.63274201E+03</rscale>
<asrwt>0</asrwt>
<pdfrwt beam="1">  1        1 0.10043371E+00 0.74710549E+03</pdfrwt>
<pdfrwt beam="2">  1       -1 0.23157436E+00 0.74710549E+03</pdfrwt>
<totfact> 0.29067161E+00</totfact>
</mgrwt>
</event>
<event>
 4    1  0.1521315E-007  0.8373463E+03  0.7818608E-02  0.9635205E-01
          1   -1    0    0  501    0  0.00000000000E+00  0.00000000000E+00  0.22129533444E+04  0.22129533444E+04  0.50400000000E-02 0. -1.
         -1   -1    0    0    0  501 -0.00000000000E+00 -0.00000000000E+00 -0.21584106310E+03  0.21584106316E+03  0.50400000000E-02 0.  1.
    8880023    1    1    2    0    0  0.48949685035E+03 -0.16652746291E+03  0.13206262456E+04  0.15637143119E+04  0.65864270000E+03 0.  0.
    8880022    1    1    2    0    0 -0.48949685035E+03  0.16652746291E+03  0.67648603569E+03  0.86508009566E+03  0.15294330000E+03 0.  1.
<mgrwt>
<rscale>  0 0.75009296E+03</rscale>
<asrwt>0</asrwt>
<pdfrwt beam="1">  1        1 0.34045436E+00 0.83734627E+03</pdfrwt>
<pdfrwt beam="2">  1       -1 0.33206318E-01 0.83734627E+03</pdfrwt>
<totfact> 0.18775735E+01</totfact>
</mgrwt>
</event>
<event>
 4    1  0.1521315E-007  0.7781362E+03  0.7818608E-02  0.9760233E-01
          1   -1    0    0  501    0  0.00000000000E+00  0.00000000000E+00  0.92296043078E+03  0.92296043080E+03  0.50400000000E-02 0. -1.
         -1   -1    0    0    0  501 -0.00000000000E+00 -0.00000000000E+00 -0.10758819071E+04  0.10758819071E+04  0.50400000000E-02 0.  1.
    8880023    1    1    2    0    0 -0.81479336268E+02  0.40625953728E+03  0.69465330721E+03  0.10430911357E+04  0.65864270000E+03 0. -1.
    8880022    1    1    2    0    0  0.81479336268E+02 -0.40625953728E+03 -0.84757478356E+03  0.95575120225E+03  0.15294330000E+03 0.  0.
<mgrwt>
<rscale>  0 0.67541011E+03</rscale>
<asrwt>0</asrwt>
<pdfrwt beam="1">  1        1 0.14199391E+00 0.77813617E+03</pdfrwt>
<pdfrwt beam="2">  1       -1 0.16552029E+00 0.77813617E+03</pdfrwt>
<totfact> 0.47774294E+00</totfact>
</mgrwt>
</event>
<event>
 4    1  0.1521315E-007  0.6771899E+03  0.7818608E-02  0.1010960E+00
         -1   -1    0    0    0  501 -0.00000000000E+00  0.00000000000E+00  0.48274434570E+03  0.48274434572E+03  0.50400000000E-02 0.  1.
          1   -1    0    0  501    0  0.00000000000E+00 -0.00000000000E+00 -0.85737483355E+03  0.85737483357E+03  0.50400000000E-02 0. -1.
    8880023    1    1    2    0    0  0.12252958618E+03  0.98805113535E+02 -0.68287848842E+03  0.96172199006E+03  0.65864270000E+03 0. -1.
    8880022    1    1    2    0    0 -0.12252958618E+03 -0.98805113535E+02  0.30824800057E+03  0.37839718923E+03  0.15294330000E+03 0.  0.
<mgrwt>
<rscale>  0 0.51094862E+03</rscale>
<asrwt>0</asrwt>
<pdfrwt beam="1">  1        1 0.13190382E+00 0.67718990E+03</pdfrwt>
<pdfrwt beam="2">  1       -1 0.74268361E-01 0.67718990E+03</pdfrwt>
<totfact> 0.37215281E+01</totfact>
</mgrwt>
</event>
<event>
 4    1  0.1521315E-007  0.8810562E+03  0.7818608E-02  0.9557153E-01
         -1   -1    0    0    0  501 -0.00000000000E+00  0.00000000000E+00  0.58027985468E+03  0.58027985471E+03  0.50400000000E-02 0.  1.
          1   -1    0    0  501    0  0.00000000000E+00 -0.00000000000E+00 -0.17095876692E+04  0.17095876693E+04  0.50400000000E-02 0. -1.
    8880023    1    1    2    0    0 -0.58127682729E+03 -0.67579872657E+02 -0.13782463149E+04  0.16357942719E+04  0.65864270000E+03 0. -1.
    8880022    1    1    2    0    0  0.58127682729E+03  0.67579872657E+02  0.24893850033E+03  0.65407325208E+03  0.15294330000E+03 0.  0.
<mgrwt>
<rscale>  0 0.80198143E+03</rscale>
<asrwt>0</asrwt>
<pdfrwt beam="1">  1        1 0.26301348E+00 0.88105618E+03</pdfrwt>
<pdfrwt beam="2">  1       -1 0.89273825E-01 0.88105618E+03</pdfrwt>
<totfact> 0.59090273E+00</totfact>
</mgrwt>
</event>
<event>
 4    1  0.1521315E-007  0.1051015E+04  0.7818608E-02  0.9317662E-01
         -1   -1    0    0    0  501 -0.00000000000E+00  0.00000000000E+00  0.10092621358E+04  0.10092621358E+04  0.50400000000E-02 0.  1.
          1   -1    0    0  501    0  0.00000000000E+00 -0.00000000000E+00 -0.20055946852E+04  0.20055946852E+04  0.50400000000E-02 0. -1.
    8880023    1    1    2    0    0  0.47234239153E+03  0.66911480104E+03 -0.16496881952E+04  0.19560427653E+04  0.65864270000E+03 0.  0.
    8880022    1    1    2    0    0 -0.47234239153E+03 -0.66911480104E+03  0.65335564581E+03  0.10588140558E+04  0.15294330000E+03 0.  0.
<mgrwt>
<rscale>  0 0.99172959E+03</rscale>
<asrwt>0</asrwt>
<pdfrwt beam="1">  1        1 0.30855303E+00 0.10510148E+04</pdfrwt>
<pdfrwt beam="2">  1       -1 0.15527110E+00 0.10510148E+04</pdfrwt>
<totfact> 0.94122398E-01</totfact>
</mgrwt>
</event>
<event>
 4    1  0.1521315E-007  0.6956153E+03  0.7818608E-02  0.1001590E+00
         -1   -1    0    0    0  501 -0.00000000000E+00  0.00000000000E+00  0.44835636141E+03  0.44835636144E+03  0.50400000000E-02 0.  1.
          1   -1    0    0  501    0  0.00000000000E+00 -0.00000000000E+00 -0.77689872418E+03  0.77689872419E+03  0.50400000000E-02 0. -1.
    8880023    1    1    2    0    0 -0.22351084614E+03 -0.10645743703E+02 -0.54071047874E+03  0.88104963441E+03  0.65864270000E+03 0. -1.
    8880022    1    1    2    0    0  0.22351084614E+03  0.10645743703E+02  0.21216811597E+03  0.34420545122E+03  0.15294330000E+03 0.  0.
<mgrwt>
<rscale>  0 0.54958484E+03</rscale>
<asrwt>0</asrwt>
<pdfrwt beam="1">  1        1 0.11952288E+00 0.69561529E+03</pdfrwt>
<pdfrwt beam="2">  1       -1 0.68977902E-01 0.69561529E+03</pdfrwt>
<totfact> 0.50650422E+01</totfact>
</mgrwt>
</event>
<event>
 4    1  0.1521315E-007  0.7994972E+03  0.7818608E-02  0.9711884E-01
          1   -1    0    0  501    0  0.00000000000E+00  0.00000000000E+00  0.15733994604E+04  0.15733994604E+04  0.50400000000E-02 0. -1.
         -1   -1    0    0    0  501 -0.00000000000E+00 -0.00000000000E+00 -0.48629325418E+03  0.48629325421E+03  0.50400000000E-02 0.  1.
    8880023    1    1    2    0    0  0.45303966996E+03 -0.11857531357E+02  0.13078836298E+04  0.15328911700E+04  0.65864270000E+03 0. -1.
    8880022    1    1    2    0    0 -0.45303966996E+03  0.11857531357E+02 -0.22077742362E+03  0.52680154461E+03  0.15294330000E+03 0.  0.
<mgrwt>
<rscale>  0 0.70313594E+03</rscale>
<asrwt>0</asrwt>
<pdfrwt beam="1">  1        1 0.24206145E+00 0.79949719E+03</pdfrwt>
<pdfrwt beam="2">  1       -1 0.74814348E-01 0.79949719E+03</pdfrwt>
<totfact> 0.10791978E+01</totfact>
</mgrwt>
</event>
<event>
 4    1  0.1521315E-007  0.9185852E+03  0.7818608E-02  0.9496832E-01
          1   -1    0    0  501    0  0.00000000000E+00  0.00000000000E+00  0.32413168552E+04  0.32413168552E+04  0.50400000000E-02 0. -1.
         -1   -1    0    0    0  501 -0.00000000000E+00 -0.00000000000E+00 -0.52615187788E+03  0.52615187791E+03  0.50400000000E-02 0.  1.
    8880023    1    1    2    0    0 -0.15720959648E+03 -0.62070416488E+03  0.29334466371E+04  0.30739075940E+04  0.65864270000E+03 0.  0.
    8880022    1    1    2    0    0  0.15720959648E+03  0.62070416488E+03 -0.21828165986E+03  0.69356113903E+03  0.15294330000E+03 0.  0.
<mgrwt>
<rscale>  0 0.84517804E+03</rscale>
<asrwt>0</asrwt>
<pdfrwt beam="1">  1        1 0.49866413E+00 0.91858518E+03</pdfrwt>
<pdfrwt beam="2">  1       -1 0.80946443E-01 0.91858518E+03</pdfrwt>
<totfact> 0.63137717E-01</totfact>
</mgrwt>
</event>
<event>
 4    1  0.1521315E-007  0.7873371E+03  0.7818608E-02  0.9738876E-01
          1   -1    0    0  501    0  0.00000000000E+00  0.00000000000E+00  0.14769348656E+04  0.14769348656E+04  0.50400000000E-02 0. -1.
         -1   -1    0    0    0  501 -0.00000000000E+00 -0.00000000000E+00 -0.78573661602E+03  0.78573661604E+03  0.50400000000E-02 0.  1.
    8880023    1    1    2    0    0 -0.40981941408E+03 -0.13467595500E+03  0.12885999536E+04  0.15100958948E+04  0.65864270000E+03 0. -1.
    8880022    1    1    2    0    0  0.40981941408E+03  0.13467595500E+03 -0.59740170395E+03  0.75257558684E+03  0.15294330000E+03 0.  0.
<mgrwt>
<rscale>  0 0.68748573E+03</rscale>
<asrwt>0</asrwt>
<pdfrwt beam="1">  1        1 0.22722075E+00 0.78733714E+03</pdfrwt>
<pdfrwt beam="2">  1       -1 0.12088256E+00 0.78733714E+03</pdfrwt>
<totfact> 0.42756148E+00</totfact>
</mgrwt>
</event>
<event>
 4    1  0.1521315E-007  0.1191008E+04  0.7818608E-02  0.9165913E-01
         -1   -1    0    0    0  501 -0.00000000000E+00  0.00000000000E+00  0.25304528831E+04  0.25304528831E+04  0.50400000000E-02 0.  1.
          1   -1    0    0  501    0  0.00000000000E+00 -0.00000000000E+00 -0.78406069015E+03  0.78406069017E+03  0.50400000000E-02 0. -1.
    8880023    1    1    2    0    0  0.37195870894E+03  0.91996545416E+03 -0.11812187781E+03  0.11968511613E+04  0.65864270000E+03 0.  0.
    8880022    1    1    2    0    0 -0.37195870894E+03 -0.91996545416E+03  0.18645140707E+04  0.21176624119E+04  0.15294330000E+03 0.  0.
<mgrwt>
<rscale>  0 0.11412294E+04</rscale>
<asrwt>0</asrwt>
<pdfrwt beam="1">  1        1 0.12062472E+00 0.11910079E+04</pdfrwt>
<pdfrwt beam="2">  1       -1 0.38930044E+00 0.11910079E+04</pdfrwt>
<totfact> 0.19218858E-01</totfact>
</mgrwt>
</event>
<event>
 4    1  0.1521315E-007  0.6816528E+03  0.7818608E-02  0.1008404E+00
          1   -1    0    0  501    0  0.00000000000E+00  0.00000000000E+00  0.17006659338E+04  0.17006659338E+04  0.50400000000E-02 0. -1.
         -1   -1    0    0    0  501 -0.00000000000E+00 -0.00000000000E+00 -0.14224701002E+03  0.14224701011E+03  0.50400000000E-02 0.  1.
    8880023    1    1    2    0    0  0.17516118430E+03  0.12606657752E+02  0.14117373041E+04  0.15676902725E+04  0.65864270000E+03 0. -1.
    8880022    1    1    2    0    0 -0.17516118430E+03 -0.12606657752E+02  0.14668161963E+03  0.27522267141E+03  0.15294330000E+03 0.  0.
<mgrwt>
<rscale>  0 0.52113999E+03</rscale>
<asrwt>0</asrwt>
<pdfrwt beam="1">  1        1 0.26164092E+00 0.68165283E+03</pdfrwt>
<pdfrwt beam="2">  1       -1 0.21884155E-01 0.68165283E+03</pdfrwt>
<totfact> 0.86438036E+01</totfact>
</mgrwt>
</event>
<event>
 4    1  0.1521315E-007  0.8249345E+03  0.7818608E-02  0.9659270E-01
         -1   -1    0    0    0  501 -0.00000000000E+00  0.00000000000E+00  0.58510043500E+03  0.58510043502E+03  0.50400000000E-02 0.  1.
          1   -1    0    0  501    0  0.00000000000E+00 -0.00000000000E+00 -0.27462683955E+04  0.27462683955E+04  0.50400000000E-02 0. -1.
    8880023    1    1    2    0    0 -0.32256516201E+03  0.37770143588E+03 -0.25514093360E+04  0.26814560344E+04  0.65864270000E+03 0. -1.
    8880022    1    1    2    0    0  0.32256516201E+03 -0.37770143588E+03  0.39024137548E+03  0.64991279612E+03  0.15294330000E+03 0.  0.
<mgrwt>
<rscale>  0 0.73494496E+03</rscale>
<asrwt>0</asrwt>
<pdfrwt beam="1">  1        1 0.42250282E+00 0.82493446E+03</pdfrwt>
<pdfrwt beam="2">  1       -1 0.90015454E-01 0.82493446E+03</pdfrwt>
<totfact> 0.11598815E+00</totfact>
</mgrwt>
</event>
<event>
 4    1  0.1521315E-007  0.6889925E+03  0.7818608E-02  0.1004635E+00
          1   -1    0    0  501    0  0.00000000000E+00  0.00000000000E+00  0.65883747833E+03  0.65883747835E+03  0.50400000000E-02 0. -1.
         -1   -1    0    0    0  501 -0.00000000000E+00 -0.00000000000E+00 -0.70415129133E+03  0.70415129135E+03  0.50400000000E-02 0.  1.
    8880023    1    1    2    0    0  0.14678890041E+02 -0.20170531003E+03  0.43854338078E+03  0.81671966121E+03  0.65864270000E+03 0. -1.
    8880022    1    1    2    0    0 -0.14678890041E+02  0.20170531003E+03 -0.48385719378E+03  0.54626910850E+03  0.15294330000E+03 0.  0.
<mgrwt>
<rscale>  0 0.53663703E+03</rscale>
<asrwt>0</asrwt>
<pdfrwt beam="1">  1        1 0.10135961E+00 0.68899253E+03</pdfrwt>
<pdfrwt beam="2">  1       -1 0.10833097E+00 0.68899253E+03</pdfrwt>
<totfact> 0.24392222E+01</totfact>
</mgrwt>
</event>
<event>
 4    1  0.1521315E-007  0.1194739E+04  0.7818608E-02  0.9162253E-01
         -1   -1    0    0    0  501 -0.00000000000E+00  0.00000000000E+00  0.13526725139E+04  0.13526725139E+04  0.50400000000E-02 0.  1.
          1   -1    0    0  501    0  0.00000000000E+00 -0.00000000000E+00 -0.14992620428E+04  0.14992620428E+04  0.50400000000E-02 0. -1.
    8880023    1    1    2    0    0 -0.82004792587E+03  0.56666868154E+03 -0.97875526776E+03  0.15444623905E+04  0.65864270000E+03 0.  0.
    8880022    1    1    2    0    0  0.82004792587E+03 -0.56666868154E+03  0.83216573881E+03  0.13074721661E+04  0.15294330000E+03 0.  0.
<mgrwt>
<rscale>  0 0.11451678E+04</rscale>
<asrwt>0</asrwt>
<pdfrwt beam="1">  1        1 0.23065570E+00 0.11947394E+04</pdfrwt>
<pdfrwt beam="2">  1       -1 0.20810346E+00 0.11947394E+04</pdfrwt>
<totfact> 0.85049857E-01</totfact>
</mgrwt>
</event>
<event>
 4    1  0.1521315E-007  0.6618448E+03  0.7818608E-02  0.1022341E+00
          1   -1    0    0  501    0  0.00000000000E+00  0.00000000000E+00  0.46318427751E+03  0.46318427754E+03  0.50400000000E-02 0. -1.
         -1   -1    0    0    0  501 -0.00000000000E+00 -0.00000000000E+00 -0.41633768380E+03  0.41633768383E+03  0.50400000000E-02 0.  1.
    8880023    1    1    2    0    0 -0.61818189390E+02  0.20168780542E+02  0.15690719845E+03  0.68018993188E+03  0.65864270000E+03 0. -1.
    8880022    1    1    2    0    0  0.61818189390E+02 -0.20168780542E+02 -0.11006060474E+03  0.19933202948E+03  0.15294330000E+03 0.  0.
<mgrwt>
<rscale>  0 0.46851112E+03</rscale>
<asrwt>0</asrwt>
<pdfrwt beam="1">  1        1 0.71259120E-01 0.66184475E+03</pdfrwt>
<pdfrwt beam="2">  1       -1 0.64051951E-01 0.66184475E+03</pdfrwt>
<totfact> 0.12439692E+02</totfact>
</mgrwt>
</event>
<event>
 4    1  0.1521315E-007  0.7690010E+03  0.7818608E-02  0.9782338E-01
          1   -1    0    0  501    0  0.00000000000E+00  0.00000000000E+00  0.13932953185E+04  0.13932953185E+04  0.50400000000E-02 0. -1.
         -1   -1    0    0    0  501 -0.00000000000E+00 -0.00000000000E+00 -0.58070944624E+03  0.58070944627E+03  0.50400000000E-02 0.  1.
    8880023    1    1    2    0    0 -0.21913933617E+03 -0.33095357494E+03  0.11823182562E+04  0.14104038367E+04  0.65864270000E+03 0.  0.
    8880022    1    1    2    0    0  0.21913933617E+03  0.33095357494E+03 -0.36973238390E+03  0.56360092809E+03  0.15294330000E+03 0.  1.
<mgrwt>
<rscale>  0 0.66319034E+03</rscale>
<asrwt>0</asrwt>
<pdfrwt beam="1">  1        1 0.21435313E+00 0.76900099E+03</pdfrwt>
<pdfrwt beam="2">  1       -1 0.89339915E-01 0.76900099E+03</pdfrwt>
<totfact> 0.98618003E+00</totfact>
</mgrwt>
</event>
<event>
 4    1  0.1521315E-007  0.9159957E+03  0.7818608E-02  0.9500826E-01
         -1   -1    0    0    0  501 -0.00000000000E+00  0.00000000000E+00  0.34798722707E+03  0.34798722711E+03  0.50400000000E-02 0.  1.
          1   -1    0    0  501    0  0.00000000000E+00 -0.00000000000E+00 -0.27783683838E+04  0.27783683838E+04  0.50400000000E-02 0. -1.
    8880023    1    1    2    0    0  0.54448962042E+03  0.32980138400E+03 -0.22764168065E+04  0.24537973802E+04  0.65864270000E+03 0. -1.
    8880022    1    1    2    0    0 -0.54448962042E+03 -0.32980138400E+03 -0.15396435024E+03  0.67255823078E+03  0.15294330000E+03 0.  0.
<mgrwt>
<rscale>  0 0.84222928E+03</rscale>
<asrwt>0</asrwt>
<pdfrwt beam="1">  1        1 0.42744127E+00 0.91599569E+03</pdfrwt>
<pdfrwt beam="2">  1       -1 0.53536498E-01 0.91599569E+03</pdfrwt>
<totfact> 0.31508248E+00</totfact>
</mgrwt>
</event>
<event>
 4    1  0.1521315E-007  0.6669740E+03  0.7818608E-02  0.1017932E+00
         -1   -1    0    0    0  501 -0.00000000000E+00  0.00000000000E+00  0.50399531666E+03  0.50399531669E+03  0.50400000000E-02 0.  1.
          1   -1    0    0  501    0  0.00000000000E+00 -0.00000000000E+00 -0.73193128340E+03  0.73193128342E+03  0.50400000000E-02 0. -1.
    8880023    1    1    2    0    0  0.24721495847E+01 -0.10506215168E+03 -0.54982015071E+03  0.86438219072E+03  0.65864270000E+03 0. -1.
    8880022    1    1    2    0    0 -0.24721495847E+01  0.10506215168E+03  0.32188418397E+03  0.37154440939E+03  0.15294330000E+03 0.  0.
<mgrwt>
<rscale>  0 0.48440432E+03</rscale>
<asrwt>0</asrwt>
<pdfrwt beam="1">  1        1 0.11260481E+00 0.66697404E+03</pdfrwt>
<pdfrwt beam="2">  1       -1 0.77537741E-01 0.66697404E+03</pdfrwt>
<totfact> 0.43755352E+01</totfact>
</mgrwt>
</event>
<event>
 4    1  0.1521315E-007  0.6897899E+03  0.7818608E-02  0.1004253E+00
          1   -1    0    0  501    0  0.00000000000E+00  0.00000000000E+00  0.74978858233E+03  0.74978858235E+03  0.50400000000E-02 0. -1.
         -1   -1    0    0    0  501 -0.00000000000E+00 -0.00000000000E+00 -0.44510131979E+03  0.44510131982E+03  0.50400000000E-02 0.  1.
    8880023    1    1    2    0    0  0.11201561123E+03 -0.17161710573E+03 -0.11903342110E+03  0.69998506394E+03  0.65864270000E+03 0.  1.
    8880022    1    1    2    0    0 -0.11201561123E+03  0.17161710573E+03  0.42372068364E+03  0.49490483823E+03  0.15294330000E+03 0.  0.
<mgrwt>
<rscale>  0 0.53824235E+03</rscale>
<asrwt>0</asrwt>
<pdfrwt beam="1">  1        1 0.11535209E+00 0.68978992E+03</pdfrwt>
<pdfrwt beam="2">  1       -1 0.68477127E-01 0.68978992E+03</pdfrwt>
<totfact> 0.54365907E+01</totfact>
</mgrwt>
</event>
<event>
 4    1  0.1521315E-007  0.6654571E+03  0.7818608E-02  0.1019153E+00
          1   -1    0    0  501    0  0.00000000000E+00  0.00000000000E+00  0.32506239701E+04  0.32506239701E+04  0.50400000000E-02 0. -1.
         -1   -1    0    0    0  501 -0.00000000000E+00 -0.00000000000E+00 -0.15343495392E+03  0.15343495401E+03  0.50400000000E-02 0.  1.
    8880023    1    1    2    0    0 -0.87685571055E+02 -0.36525991686E+02  0.31475347210E+04  0.32171117379E+04  0.65864270000E+03 0. -1.
    8880022    1    1    2    0    0  0.87685571055E+02  0.36525991686E+02 -0.50345704855E+02  0.18694718626E+03  0.15294330000E+03 0.  0.
<mgrwt>
<rscale>  0 0.47993514E+03</rscale>
<asrwt>0</asrwt>
<pdfrwt beam="1">  1        1 0.50009601E+00 0.66545707E+03</pdfrwt>
<pdfrwt beam="2">  1       -1 0.23605377E-01 0.66545707E+03</pdfrwt>
<totfact> 0.65461275E+00</totfact>
</mgrwt>
</event>
<event>
 4    1  0.1521315E-007  0.9213000E+03  0.7818608E-02  0.9492669E-01
          1   -1    0    0  501    0  0.00000000000E+00  0.00000000000E+00  0.85384480187E+03  0.85384480188E+03  0.50400000000E-02 0. -1.
         -1   -1    0    0    0  501 -0.00000000000E+00 -0.00000000000E+00 -0.10882058556E+04  0.10882058556E+04  0.50400000000E-02 0.  1.
    8880023    1    1    2    0    0  0.55041508519E+03 -0.33470384756E+03 -0.67902176849E+03  0.11444929881E+04  0.65864270000E+03 0.  0.
    8880022    1    1    2    0    0 -0.55041508519E+03  0.33470384756E+03  0.44466071479E+03  0.79755766931E+03  0.15294330000E+03 0.  0.
<mgrwt>
<rscale>  0 0.84826496E+03</rscale>
<asrwt>0</asrwt>
<pdfrwt beam="1">  1        1 0.13136074E+00 0.92129997E+03</pdfrwt>
<pdfrwt beam="2">  1       -1 0.16741629E+00 0.92129997E+03</pdfrwt>
<totfact> 0.51720375E+00</totfact>
</mgrwt>
</event>
<event>
 4    1  0.1521315E-007  0.7483758E+03  0.7818608E-02  0.9836188E-01
         -1   -1    0    0    0  501 -0.00000000000E+00  0.00000000000E+00  0.46039684708E+03  0.46039684711E+03  0.50400000000E-02 0.  1.
          1   -1    0    0  501    0  0.00000000000E+00 -0.00000000000E+00 -0.17576444215E+04  0.17576444215E+04  0.50400000000E-02 0. -1.
    8880023    1    1    2    0    0  0.25962956587E+03  0.24258728641E+03 -0.15736902150E+04  0.17425748770E+04  0.65864270000E+03 0. -1.
    8880022    1    1    2    0    0 -0.25962956587E+03 -0.24258728641E+03  0.27644264056E+03  0.47546639160E+03  0.15294330000E+03 0.  0.
<mgrwt>
<rscale>  0 0.63456128E+03</rscale>
<asrwt>0</asrwt>
<pdfrwt beam="1">  1        1 0.27040683E+00 0.74837578E+03</pdfrwt>
<pdfrwt beam="2">  1       -1 0.70830285E-01 0.74837578E+03</pdfrwt>
<totfact> 0.91433778E+00</totfact>
</mgrwt>
</event>
<event>
 4    1  0.1521315E-007  0.7040606E+03  0.7818608E-02  0.9980756E-01
         -1   -1    0    0    0  501 -0.00000000000E+00  0.00000000000E+00  0.22648478112E+03  0.22648478117E+03  0.50400000000E-02 0.  1.
          1   -1    0    0  501    0  0.00000000000E+00 -0.00000000000E+00 -0.13892224131E+04  0.13892224131E+04  0.50400000000E-02 0. -1.
    8880023    1    1    2    0    0 -0.24419459848E+03  0.47540963967E+02 -0.11166234273E+04  0.13200565253E+04  0.65864270000E+03 0.  0.
    8880022    1    1    2    0    0  0.24419459848E+03 -0.47540963967E+02 -0.46114204616E+02  0.29565066897E+03  0.15294330000E+03 0.  0.
<mgrwt>
<rscale>  0 0.56502182E+03</rscale>
<asrwt>0</asrwt>
<pdfrwt beam="1">  1        1 0.21372652E+00 0.70406062E+03</pdfrwt>
<pdfrwt beam="2">  1       -1 0.34843813E-01 0.70406062E+03</pdfrwt>
<totfact> 0.62998177E+01</totfact>
</mgrwt>
</event>
<event>
 4    1  0.1870660E-007  0.1162496E+04  0.7818608E-02  0.9194470E-01
         -1   -1    0    0    0  501 -0.00000000000E+00  0.00000000000E+00  0.12926435106E+04  0.12926435106E+04  0.50400000000E-02 0.  1.
          1   -1    0    0  501    0  0.00000000000E+00 -0.00000000000E+00 -0.22110693555E+04  0.22110693555E+04  0.50400000000E-02 0. -1.
    8880023    1    1    2    0    0  0.45414170896E+03 -0.84341116168E+03 -0.18329753075E+04  0.21705289133E+04  0.65864270000E+03 0.  0.
    8880022    1    1    2    0    0 -0.45414170896E+03  0.84341116168E+03  0.91454946261E+03  0.13331839528E+04  0.15294330000E+03 0.  0.
<mgrwt>
<rscale>  0 0.11110692E+04</rscale>
<asrwt>0</asrwt>
<pdfrwt beam="1">  1        1 0.34016452E+00 0.11624961E+04</pdfrwt>
<pdfrwt beam="2">  1       -1 0.19886823E+00 0.11624961E+04</pdfrwt>
<totfact> 0.32437965E-01</totfact>
</mgrwt>
</event>
<event>
 4    1  0.1521315E-007  0.8669824E+03  0.7818608E-02  0.9581262E-01
          1   -1    0    0  501    0  0.00000000000E+00  0.00000000000E+00  0.95075213285E+03  0.95075213287E+03  0.50400000000E-02 0. -1.
         -1   -1    0    0    0  501 -0.00000000000E+00 -0.00000000000E+00 -0.90440234689E+03  0.90440234690E+03  0.50400000000E-02 0.  1.
    8880023    1    1    2    0    0  0.55665751985E+03  0.89334278073E+02  0.59678195027E+03  0.10525241613E+04  0.65864270000E+03 0. -1.
    8880022    1    1    2    0    0 -0.55665751985E+03 -0.89334278073E+02 -0.55043216430E+03  0.80263031849E+03  0.15294330000E+03 0.  0.
<mgrwt>
<rscale>  0 0.78548911E+03</rscale>
<asrwt>0</asrwt>
<pdfrwt beam="1">  1        1 0.14626956E+00 0.86698236E+03</pdfrwt>
<pdfrwt beam="2">  1       -1 0.13913882E+00 0.86698236E+03</pdfrwt>
<totfact> 0.71763451E+00</totfact>
</mgrwt>
</event>
<event>
 4    1  0.1521315E-007  0.6597106E+03  0.7818608E-02  0.1024455E+00
          1   -1    0    0  501    0  0.00000000000E+00  0.00000000000E+00  0.13234853910E+04  0.13234853910E+04  0.50400000000E-02 0. -1.
         -1   -1    0    0    0  501 -0.00000000000E+00 -0.00000000000E+00 -0.16624361001E+03  0.16624361009E+03  0.50400000000E-02 0.  1.
    8880023    1    1    2    0    0  0.14733963837E+02 -0.34507720126E+02  0.11574422565E+04  0.13322502227E+04  0.65864270000E+03 0.  0.
    8880022    1    1    2    0    0 -0.14733963837E+02  0.34507720126E+02 -0.20047554015E+00  0.15747877839E+03  0.15294330000E+03 0.  1.
<mgrwt>
<rscale>  0 0.46112697E+03</rscale>
<asrwt>0</asrwt>
<pdfrwt beam="1">  1        1 0.20361313E+00 0.65971060E+03</pdfrwt>
<pdfrwt beam="2">  1       -1 0.25575940E-01 0.65971060E+03</pdfrwt>
<totfact> 0.12046035E+02</totfact>
</mgrwt>
</event>
<event>
 4    1  0.1521315E-007  0.7804369E+03  0.7818608E-02  0.9754812E-01
         -1   -1    0    0    0  501 -0.00000000000E+00  0.00000000000E+00  0.45987226386E+03  0.45987226389E+03  0.50400000000E-02 0.  1.
          1   -1    0    0  501    0  0.00000000000E+00 -0.00000000000E+00 -0.92125576308E+03  0.92125576309E+03  0.50400000000E-02 0. -1.
    8880023    1    1    2    0    0 -0.19448960980E+03 -0.37073629413E+03 -0.51071386429E+03  0.93268990857E+03  0.65864270000E+03 0.  0.
    8880022    1    1    2    0    0  0.19448960980E+03  0.37073629413E+03  0.49330365077E+02  0.44843811841E+03  0.15294330000E+03 0.  0.
<mgrwt>
<rscale>  0 0.67845033E+03</rscale>
<asrwt>0</asrwt>
<pdfrwt beam="1">  1        1 0.14173166E+00 0.78043694E+03</pdfrwt>
<pdfrwt beam="2">  1       -1 0.70749579E-01 0.78043694E+03</pdfrwt>
<totfact> 0.36074806E+01</totfact>
</mgrwt>
</event>
<event>
 4    1  0.1521315E-007  0.8261736E+03  0.7818608E-02  0.9656824E-01
          1   -1    0    0  501    0  0.00000000000E+00  0.00000000000E+00  0.52076199590E+03  0.52076199592E+03  0.50400000000E-02 0. -1.
         -1   -1    0    0    0  501 -0.00000000000E+00 -0.00000000000E+00 -0.10345071530E+04  0.10345071531E+04  0.50400000000E-02 0.  1.
    8880023    1    1    2    0    0  0.48120486027E+03 -0.13112771243E+03 -0.44133419486E+01  0.82618537773E+03  0.65864270000E+03 0. -1.
    8880022    1    1    2    0    0 -0.48120486027E+03  0.13112771243E+03 -0.50933181519E+03  0.72908377125E+03  0.15294330000E+03 0.  0.
<mgrwt>
<rscale>  0 0.73646714E+03</rscale>
<asrwt>0</asrwt>
<pdfrwt beam="1">  1        1 0.80117230E-01 0.82617359E+03</pdfrwt>
<pdfrwt beam="2">  1       -1 0.15915495E+00 0.82617359E+03</pdfrwt>
<totfact> 0.12672088E+01</totfact>
</mgrwt>
</event>
<event>
 4    1  0.1521315E-007  0.6981968E+03  0.7818608E-02  0.1000477E+00
          1   -1    0    0  501    0  0.00000000000E+00  0.00000000000E+00  0.92552273111E+03  0.92552273113E+03  0.50400000000E-02 0. -1.
         -1   -1    0    0    0  501 -0.00000000000E+00 -0.00000000000E+00 -0.89031706355E+03  0.89031706356E+03  0.50400000000E-02 0.  1.
    8880023    1    1    2    0    0 -0.69042226496E+02 -0.22113728212E+03  0.76459265017E+03  0.10354132767E+04  0.65864270000E+03 0. -1.
    8880022    1    1    2    0    0  0.69042226496E+02  0.22113728212E+03 -0.72938698260E+03  0.78042651800E+03  0.15294330000E+03 0.  0.
<mgrwt>
<rscale>  0 0.55441775E+03</rscale>
<asrwt>0</asrwt>
<pdfrwt beam="1">  1        1 0.14238811E+00 0.69819677E+03</pdfrwt>
<pdfrwt beam="2">  1       -1 0.13697186E+00 0.69819677E+03</pdfrwt>
<totfact> 0.80132943E+00</totfact>
</mgrwt>
</event>
<event>
 4    1  0.1521315E-007  0.7688162E+03  0.7818608E-02  0.9782796E-01
         -1   -1    0    0    0  501 -0.00000000000E+00  0.00000000000E+00  0.30999091143E+03  0.30999091147E+03  0.50400000000E-02 0.  1.
          1   -1    0    0  501    0  0.00000000000E+00 -0.00000000000E+00 -0.28131595664E+04  0.28131595664E+04  0.50400000000E-02 0. -1.
    8880023    1    1    2    0    0 -0.28918536633E+03  0.27136688458E+03 -0.25792135640E+04  0.26913604324E+04  0.65864270000E+03 0.  0.
    8880022    1    1    2    0    0  0.28918536633E+03 -0.27136688458E+03  0.76044909047E+02  0.43179004545E+03  0.15294330000E+03 0.  0.
<mgrwt>
<rscale>  0 0.66294057E+03</rscale>
<asrwt>0</asrwt>
<pdfrwt beam="1">  1        1 0.43279376E+00 0.76881621E+03</pdfrwt>
<pdfrwt beam="2">  1       -1 0.47690911E-01 0.76881621E+03</pdfrwt>
<totfact> 0.38053203E+00</totfact>
</mgrwt>
</event>
<event>
 4    1  0.1521315E-007  0.6860193E+03  0.7818608E-02  0.1006105E+00
         -1   -1    0    0    0  501 -0.00000000000E+00  0.00000000000E+00  0.57495843245E+03  0.57495843247E+03  0.50400000000E-02 0.  1.
          1   -1    0    0  501    0  0.00000000000E+00 -0.00000000000E+00 -0.66673814553E+03  0.66673814555E+03  0.50400000000E-02 0. -1.
    8880023    1    1    2    0    0 -0.14518621114E+03  0.12543240960E+03 -0.44052681603E+03  0.81528302275E+03  0.65864270000E+03 0. -1.
    8880022    1    1    2    0    0  0.14518621114E+03 -0.12543240960E+03  0.34874710296E+03  0.42641355527E+03  0.15294330000E+03 0.  0.
<mgrwt>
<rscale>  0 0.53052447E+03</rscale>
<asrwt>0</asrwt>
<pdfrwt beam="1">  1        1 0.10257510E+00 0.68601934E+03</pdfrwt>
<pdfrwt beam="2">  1       -1 0.88455143E-01 0.68601934E+03</pdfrwt>
<totfact> 0.37909486E+01</totfact>
</mgrwt>
</event>
<event>
 4    1  0.1521315E-007  0.7978977E+03  0.7818608E-02  0.9715360E-01
          1   -1    0    0  501    0  0.00000000000E+00  0.00000000000E+00  0.12670469028E+04  0.12670469028E+04  0.50400000000E-02 0. -1.
         -1   -1    0    0    0  501 -0.00000000000E+00 -0.00000000000E+00 -0.36726442881E+03  0.36726442884E+03  0.50400000000E-02 0.  1.
    8880023    1    1    2    0    0  0.51770724316E+02  0.44738158573E+03  0.83391014753E+03  0.11541433323E+04  0.65864270000E+03 0. -1.
    8880022    1    1    2    0    0 -0.51770724316E+02 -0.44738158573E+03  0.65872326438E+02  0.48016799930E+03  0.15294330000E+03 0.  0.
<mgrwt>
<rscale>  0 0.70109568E+03</rscale>
<asrwt>0</asrwt>
<pdfrwt beam="1">  1        1 0.19493029E+00 0.79789767E+03</pdfrwt>
<pdfrwt beam="2">  1       -1 0.56502219E-01 0.79789767E+03</pdfrwt>
<totfact> 0.31001126E+01</totfact>
</mgrwt>
</event>
<event>
 4    1  0.1521315E-007  0.9987274E+03  0.7818608E-02  0.9383224E-01
         -1   -1    0    0    0  501 -0.00000000000E+00  0.00000000000E+00  0.10724018228E+04  0.10724018228E+04  0.50400000000E-02 0.  1.
          1   -1    0    0  501    0  0.00000000000E+00 -0.00000000000E+00 -0.82521652028E+03  0.82521652030E+03  0.50400000000E-02 0. -1.
    8880023    1    1    2    0    0  0.57227543798E+03  0.48594968426E+03  0.46414058746E+03  0.11013096584E+04  0.65864270000E+03 0.  0.
    8880022    1    1    2    0    0 -0.57227543798E+03 -0.48594968426E+03 -0.21695528498E+03  0.79630868465E+03  0.15294330000E+03 0.  0.
<mgrwt>
<rscale>  0 0.93469195E+03</rscale>
<asrwt>0</asrwt>
<pdfrwt beam="1">  1        1 0.12695639E+00 0.99872743E+03</pdfrwt>
<pdfrwt beam="2">  1       -1 0.16498490E+00 0.99872743E+03</pdfrwt>
<totfact> 0.56516034E+00</totfact>
</mgrwt>
</event>
<event>
 4    1  0.1521315E-007  0.8482661E+03  0.7818608E-02  0.9614786E-01
          1   -1    0    0  501    0  0.00000000000E+00  0.00000000000E+00  0.10669810346E+04  0.10669810346E+04  0.50400000000E-02 0. -1.
         -1   -1    0    0    0  501 -0.00000000000E+00 -0.00000000000E+00 -0.68423376037E+03  0.68423376039E+03  0.50400000000E-02 0.  1.
    8880023    1    1    2    0    0 -0.51605843784E+03 -0.13938751049E+03  0.70988284854E+03  0.11061143947E+04  0.65864270000E+03 0.  0.
    8880022    1    1    2    0    0  0.51605843784E+03  0.13938751049E+03 -0.32713557436E+03  0.64510040022E+03  0.15294330000E+03 0.  0.
<mgrwt>
<rscale>  0 0.76325197E+03</rscale>
<asrwt>0</asrwt>
<pdfrwt beam="1">  1        1 0.16415093E+00 0.84826611E+03</pdfrwt>
<pdfrwt beam="2">  1       -1 0.10526673E+00 0.84826611E+03</pdfrwt>
<totfact> 0.11590245E+01</totfact>
</mgrwt>
</event>
<event>
 4    1  0.1521315E-007  0.1101227E+04  0.7818608E-02  0.9259691E-01
         -1   -1    0    0    0  501 -0.00000000000E+00  0.00000000000E+00  0.65160872692E+03  0.65160872694E+03  0.50400000000E-02 0.  1.
          1   -1    0    0  501    0  0.00000000000E+00 -0.00000000000E+00 -0.15560922072E+04  0.15560922072E+04  0.50400000000E-02 0. -1.
    8880023    1    1    2    0    0 -0.87018956236E+03 -0.14717694863E+03 -0.35568926743E+03  0.11572449999E+04  0.65864270000E+03 0.  0.
    8880022    1    1    2    0    0  0.87018956236E+03  0.14717694863E+03 -0.54879421286E+03  0.10504559342E+04  0.15294330000E+03 0.  0.
<mgrwt>
<rscale>  0 0.10457999E+04</rscale>
<asrwt>0</asrwt>
<pdfrwt beam="1">  1        1 0.23939880E+00 0.11012271E+04</pdfrwt>
<pdfrwt beam="2">  1       -1 0.10024750E+00 0.11012271E+04</pdfrwt>
<totfact> 0.56389069E+00</totfact>
</mgrwt>
</event>
<event>
 4    1  0.1521315E-007  0.1066434E+04  0.7818608E-02  0.9299382E-01
         -1   -1    0    0    0  501 -0.00000000000E+00  0.00000000000E+00  0.82553842190E+03  0.82553842192E+03  0.50400000000E-02 0.  1.
          1   -1    0    0  501    0  0.00000000000E+00 -0.00000000000E+00 -0.20055857920E+04  0.20055857920E+04  0.50400000000E-02 0. -1.
    8880023    1    1    2    0    0 -0.76062372966E+03  0.35344334685E+03 -0.15665140547E+04  0.18950586132E+04  0.65864270000E+03 0.  0.
    8880022    1    1    2    0    0  0.76062372966E+03 -0.35344334685E+03  0.38646668461E+03  0.93606560074E+03  0.15294330000E+03 0.  0.
<mgrwt>
<rscale>  0 0.10083979E+04</rscale>
<asrwt>0</asrwt>
<pdfrwt beam="1">  1        1 0.30855166E+00 0.10664337E+04</pdfrwt>
<pdfrwt beam="2">  1       -1 0.12700591E+00 0.10664337E+04</pdfrwt>
<totfact> 0.15909027E+00</totfact>
</mgrwt>
</event>
<event>
 4    1  0.1521315E-007  0.1032892E+04  0.7818608E-02  0.9339736E-01
          1   -1    0    0  501    0  0.00000000000E+00  0.00000000000E+00  0.72058523600E+03  0.72058523602E+03  0.50400000000E-02 0. -1.
         -1   -1    0    0    0  501 -0.00000000000E+00 -0.00000000000E+00 -0.13436710511E+04  0.13436710511E+04  0.50400000000E-02 0.  1.
    8880023    1    1    2    0    0  0.31316884521E+03 -0.73142327869E+03  0.14914765713E+02  0.10329992230E+04  0.65864270000E+03 0. -1.
    8880022    1    1    2    0    0 -0.31316884521E+03  0.73142327869E+03 -0.63800058083E+03  0.10312570642E+04  0.15294330000E+03 0.  1.
<mgrwt>
<rscale>  0 0.97205525E+03</rscale>
<asrwt>0</asrwt>
<pdfrwt beam="1">  1        1 0.11085927E+00 0.10328915E+04</pdfrwt>
<pdfrwt beam="2">  1       -1 0.20671862E+00 0.10328915E+04</pdfrwt>
<totfact> 0.35296557E+00</totfact>
</mgrwt>
</event>
<event>
 4    1  0.1521315E-007  0.7306662E+03  0.7818608E-02  0.9888021E-01
         -1   -1    0    0    0  501 -0.00000000000E+00  0.00000000000E+00  0.90123935571E+02  0.90123935712E+02  0.50400000000E-02 0.  1.
          1   -1    0    0  501    0  0.00000000000E+00 -0.00000000000E+00 -0.34806882417E+04  0.34806882417E+04  0.50400000000E-02 0. -1.
    8880023    1    1    2    0    0 -0.25680711396E+03 -0.18469713098E+03 -0.18151506311E+04  0.19566923478E+04  0.65864270000E+03 0.  0.
    8880022    1    1    2    0    0  0.25680711396E+03  0.18469713098E+03 -0.15754136750E+04  0.16141198296E+04  0.15294330000E+03 0.  0.
<mgrwt>
<rscale>  0 0.60845389E+03</rscale>
<asrwt>0</asrwt>
<pdfrwt beam="1">  1        1 0.53549039E+00 0.73066622E+03</pdfrwt>
<pdfrwt beam="2">  1       -1 0.13865224E-01 0.73066622E+03</pdfrwt>
<totfact> 0.10433260E+01</totfact>
</mgrwt>
</event>
<event>
 4    1  0.1521315E-007  0.7128912E+03  0.7818608E-02  0.9947417E-01
         -1   -1    0    0    0  501 -0.00000000000E+00  0.00000000000E+00  0.34524161344E+03  0.34524161348E+03  0.50400000000E-02 0.  1.
          1   -1    0    0  501    0  0.00000000000E+00 -0.00000000000E+00 -0.19867397616E+04  0.19867397617E+04  0.50400000000E-02 0. -1.
    8880023    1    1    2    0    0 -0.22670871761E+03  0.15168012708E+03 -0.55059650439E+02  0.71501431801E+03  0.65864270000E+03 0.  1.
    8880022    1    1    2    0    0  0.22670871761E+03 -0.15168012708E+03 -0.15864384978E+04  0.16169670571E+04  0.15294330000E+03 0.  0.
<mgrwt>
<rscale>  0 0.58017263E+03</rscale>
<asrwt>0</asrwt>
<pdfrwt beam="1">  1        1 0.30565227E+00 0.71289123E+03</pdfrwt>
<pdfrwt beam="2">  1       -1 0.53114095E-01 0.71289123E+03</pdfrwt>
<totfact> 0.11429631E+01</totfact>
</mgrwt>
</event>
<event>
 4    1  0.2333026E-007  0.9398422E+03  0.7818608E-02  0.9464882E-01
          1   -1    0    0  501    0  0.00000000000E+00  0.00000000000E+00  0.19066299706E+04  0.19066299706E+04  0.50400000000E-02 0. -1.
         -1   -1    0    0    0  501 -0.00000000000E+00 -0.00000000000E+00 -0.15333785796E+04  0.15333785796E+04  0.50400000000E-02 0.  1.
    8880023    1    1    2    0    0  0.13752730768E+03 -0.65618552947E+03  0.17017794638E+04  0.19440567788E+04  0.65864270000E+03 0. -1.
    8880022    1    1    2    0    0 -0.13752730768E+03  0.65618552947E+03 -0.13285280727E+04  0.14959517715E+04  0.15294330000E+03 0.  0.
<mgrwt>
<rscale>  0 0.86923187E+03</rscale>
<asrwt>0</asrwt>
<pdfrwt beam="1">  1        1 0.29332769E+00 0.93984223E+03</pdfrwt>
<pdfrwt beam="2">  1       -1 0.23590440E+00 0.93984223E+03</pdfrwt>
<totfact> 0.30509829E-01</totfact>
</mgrwt>
</event>
<event>
 4    1  0.1521315E-007  0.7198365E+03  0.7818608E-02  0.9923140E-01
         -1   -1    0    0    0  501 -0.00000000000E+00  0.00000000000E+00  0.93977619281E+03  0.93977619282E+03  0.50400000000E-02 0.  1.
          1   -1    0    0  501    0  0.00000000000E+00 -0.00000000000E+00 -0.60076145892E+03  0.60076145894E+03  0.50400000000E-02 0. -1.
    8880023    1    1    2    0    0  0.25523202897E+03 -0.13860351562E+03 -0.33262963327E+03  0.79297351932E+03  0.65864270000E+03 0. -1.
    8880022    1    1    2    0    0 -0.25523202897E+03  0.13860351562E+03  0.67164436716E+03  0.74756413244E+03  0.15294330000E+03 0.  0.
<mgrwt>
<rscale>  0 0.59152828E+03</rscale>
<asrwt>0</asrwt>
<pdfrwt beam="1">  1        1 0.92424841E-01 0.71983646E+03</pdfrwt>
<pdfrwt beam="2">  1       -1 0.14458095E+00 0.71983646E+03</pdfrwt>
<totfact> 0.13588731E+01</totfact>
</mgrwt>
</event>
<event>
 4    1  0.1521315E-007  0.7434095E+03  0.7818608E-02  0.9850124E-01
          1   -1    0    0  501    0  0.00000000000E+00  0.00000000000E+00  0.98660561573E+03  0.98660561574E+03  0.50400000000E-02 0. -1.
         -1   -1    0    0    0  501 -0.00000000000E+00 -0.00000000000E+00 -0.52170839869E+03  0.52170839871E+03  0.50400000000E-02 0.  1.
    8880023    1    1    2    0    0  0.28700933716E+03  0.19097933662E+03  0.73423164060E+03  0.10448702192E+04  0.65864270000E+03 0. -1.
    8880022    1    1    2    0    0 -0.28700933716E+03 -0.19097933662E+03 -0.26933442356E+03  0.46344379526E+03  0.15294330000E+03 0.  0.
<mgrwt>
<rscale>  0 0.62740570E+03</rscale>
<asrwt>0</asrwt>
<pdfrwt beam="1">  1        1 0.15178548E+00 0.74340949E+03</pdfrwt>
<pdfrwt beam="2">  1       -1 0.80262831E-01 0.74340949E+03</pdfrwt>
<totfact> 0.24702749E+01</totfact>
</mgrwt>
</event>
<event>
 4    1  0.1521315E-007  0.8873375E+03  0.7818608E-02  0.9546672E-01
         -1   -1    0    0    0  501 -0.00000000000E+00  0.00000000000E+00  0.64535448971E+03  0.64535448973E+03  0.50400000000E-02 0.  1.
          1   -1    0    0  501    0  0.00000000000E+00 -0.00000000000E+00 -0.17109389777E+04  0.17109389777E+04  0.50400000000E-02 0. -1.
    8880023    1    1    2    0    0  0.58589036501E+03 -0.10144062955E+03 -0.13997313343E+04  0.16572916869E+04  0.65864270000E+03 0.  0.
    8880022    1    1    2    0    0 -0.58589036501E+03  0.10144062955E+03  0.33414684635E+03  0.69900178045E+03  0.15294330000E+03 0.  0.
<mgrwt>
<rscale>  0 0.80928599E+03</rscale>
<asrwt>0</asrwt>
<pdfrwt beam="1">  1        1 0.26322138E+00 0.88733755E+03</pdfrwt>
<pdfrwt beam="2">  1       -1 0.99285307E-01 0.88733755E+03</pdfrwt>
<totfact> 0.46436435E+00</totfact>
</mgrwt>
</event>
<event>
 4    1  0.1521315E-007  0.9803841E+03  0.7818608E-02  0.9407683E-01
         -1   -1    0    0    0  501 -0.00000000000E+00  0.00000000000E+00  0.50201371239E+03  0.50201371242E+03  0.50400000000E-02 0.  1.
          1   -1    0    0  501    0  0.00000000000E+00 -0.00000000000E+00 -0.15002996621E+04  0.15002996621E+04  0.50400000000E-02 0. -1.
    8880023    1    1    2    0    0  0.55348463931E+03 -0.47010372026E+03 -0.44502759571E+03  0.10766626774E+04  0.65864270000E+03 0.  1.
    8880022    1    1    2    0    0 -0.55348463931E+03  0.47010372026E+03 -0.55325835397E+03  0.92565069708E+03  0.15294330000E+03 0. -1.
<mgrwt>
<rscale>  0 0.91446053E+03</rscale>
<asrwt>0</asrwt>
<pdfrwt beam="1">  1        1 0.23081533E+00 0.98038409E+03</pdfrwt>
<pdfrwt beam="2">  1       -1 0.77232879E-01 0.98038409E+03</pdfrwt>
<totfact> 0.11078864E+01</totfact>
</mgrwt>
</event>
<event>
 4    1  0.1521315E-007  0.8585391E+03  0.7818608E-02  0.9596167E-01
         -1   -1    0    0    0  501 -0.00000000000E+00  0.00000000000E+00  0.68779903983E+03  0.68779903985E+03  0.50400000000E-02 0.  1.
          1   -1    0    0  501    0  0.00000000000E+00 -0.00000000000E+00 -0.16334963700E+04  0.16334963700E+04  0.50400000000E-02 0. -1.
    8880023    1    1    2    0    0 -0.30229884234E+03 -0.46032016486E+03 -0.13649194348E+04  0.16124808570E+04  0.65864270000E+03 0.  0.
    8880022    1    1    2    0    0  0.30229884234E+03  0.46032016486E+03  0.41922210469E+03  0.70881455285E+03  0.15294330000E+03 0.  0.
<mgrwt>
<rscale>  0 0.77550371E+03</rscale>
<asrwt>0</asrwt>
<pdfrwt beam="1">  1        1 0.25130713E+00 0.85853914E+03</pdfrwt>
<pdfrwt beam="2">  1       -1 0.10581524E+00 0.85853914E+03</pdfrwt>
<totfact> 0.45418670E+00</totfact>
</mgrwt>
</event>
<event>
 4    1  0.1521315E-007  0.9982099E+03  0.7818608E-02  0.9383903E-01
         -1   -1    0    0    0  501 -0.00000000000E+00  0.00000000000E+00  0.94498173254E+03  0.94498173255E+03  0.50400000000E-02 0.  1.
          1   -1    0    0  501    0  0.00000000000E+00 -0.00000000000E+00 -0.11389944913E+04  0.11389944913E+04  0.50400000000E-02 0. -1.
    8880023    1    1    2    0    0  0.66378328840E+03 -0.34929147952E+03  0.43915852708E+03  0.10905426217E+04  0.65864270000E+03 0.  0.
    8880022    1    1    2    0    0 -0.66378328840E+03  0.34929147952E+03 -0.63317128583E+03  0.99343360212E+03  0.15294330000E+03 0.  0.
<mgrwt>
<rscale>  0 0.93412290E+03</rscale>
<asrwt>0</asrwt>
<pdfrwt beam="1">  1        1 0.17522992E+00 0.99820990E+03</pdfrwt>
<pdfrwt beam="2">  1       -1 0.14538180E+00 0.99820990E+03</pdfrwt>
<totfact> 0.45122077E+00</totfact>
</mgrwt>
</event>
<event>
 4    1  0.1521315E-007  0.7270487E+03  0.7818608E-02  0.9899419E-01
         -1   -1    0    0    0  501 -0.00000000000E+00  0.00000000000E+00  0.89133436440E+03  0.89133436442E+03  0.50400000000E-02 0.  1.
          1   -1    0    0  501    0  0.00000000000E+00 -0.00000000000E+00 -0.70836208865E+03  0.70836208867E+03  0.50400000000E-02 0. -1.
    8880023    1    1    2    0    0  0.16736913043E+02 -0.30742387663E+03  0.67991646157E+03  0.99543265224E+03  0.65864270000E+03 0.  1.
    8880022    1    1    2    0    0 -0.16736913043E+02  0.30742387663E+03 -0.49694418581E+03  0.60426380084E+03  0.15294330000E+03 0.  0.
<mgrwt>
<rscale>  0 0.60289429E+03</rscale>
<asrwt>0</asrwt>
<pdfrwt beam="1">  1        1 0.10897878E+00 0.72704867E+03</pdfrwt>
<pdfrwt beam="2">  1       -1 0.13712836E+00 0.72704867E+03</pdfrwt>
<totfact> 0.12222772E+01</totfact>
</mgrwt>
</event>
<event>
 4    1  0.1521315E-007  0.8327995E+03  0.7818608E-02  0.9643910E-01
          1   -1    0    0  501    0  0.00000000000E+00  0.00000000000E+00  0.22649709551E+04  0.22649709551E+04  0.50400000000E-02 0. -1.
         -1   -1    0    0    0  501 -0.00000000000E+00 -0.00000000000E+00 -0.44997127348E+03  0.44997127350E+03  0.50400000000E-02 0.  1.
    8880023    1    1    2    0    0  0.22234674243E+03 -0.45859212811E+03  0.19880253556E+04  0.21554117552E+04  0.65864270000E+03 0. -1.
    8880022    1    1    2    0    0 -0.22234674243E+03  0.45859212811E+03 -0.17302567393E+03  0.55953047342E+03  0.15294330000E+03 0.  0.
<mgrwt>
<rscale>  0 0.74456878E+03</rscale>
<asrwt>0</asrwt>
<pdfrwt beam="1">  1        1 0.34845707E+00 0.83279951E+03</pdfrwt>
<pdfrwt beam="2">  1       -1 0.69226350E-01 0.83279951E+03</pdfrwt>
<totfact> 0.43195389E+00</totfact>
</mgrwt>
</event>
<event>
 4    1  0.1521315E-007  0.6716879E+03  0.7818608E-02  0.1014481E+00
          1   -1    0    0  501    0  0.00000000000E+00  0.00000000000E+00  0.15726091444E+04  0.15726091444E+04  0.50400000000E-02 0. -1.
         -1   -1    0    0    0  501 -0.00000000000E+00 -0.00000000000E+00 -0.22956948190E+03  0.22956948196E+03  0.50400000000E-02 0.  1.
    8880023    1    1    2    0    0 -0.95024089912E+02  0.91240682953E+02  0.14319114089E+04  0.15816241428E+04  0.65864270000E+03 0.  0.
    8880022    1    1    2    0    0  0.95024089912E+02 -0.91240682953E+02 -0.88871746416E+02  0.22055448355E+03  0.15294330000E+03 0.  0.
<mgrwt>
<rscale>  0 0.49732054E+03</rscale>
<asrwt>0</asrwt>
<pdfrwt beam="1">  1        1 0.24193987E+00 0.67168791E+03</pdfrwt>
<pdfrwt beam="2">  1       -1 0.35318382E-01 0.67168791E+03</pdfrwt>
<totfact> 0.46226380E+01</totfact>
</mgrwt>
</event>
<event>
 4    1  0.1521315E-007  0.7448298E+03  0.7818608E-02  0.9846095E-01
         -1   -1    0    0    0  501 -0.00000000000E+00  0.00000000000E+00  0.13176023700E+03  0.13176023709E+03  0.50400000000E-02 0.  1.
          1   -1    0    0  501    0  0.00000000000E+00 -0.00000000000E+00 -0.35447005756E+04  0.35447005756E+04  0.50400000000E-02 0. -1.
    8880023    1    1    2    0    0  0.33210895088E+03  0.10327093292E+03 -0.30878898780E+04  0.31764501170E+04  0.65864270000E+03 0.  0.
    8880022    1    1    2    0    0 -0.33210895088E+03 -0.10327093292E+03 -0.32505046053E+03  0.50001069563E+03  0.15294330000E+03 0.  0.
<mgrwt>
<rscale>  0 0.62946411E+03</rscale>
<asrwt>0</asrwt>
<pdfrwt beam="1">  1        1 0.54533848E+00 0.74482981E+03</pdfrwt>
<pdfrwt beam="2">  1       -1 0.20270808E-01 0.74482981E+03</pdfrwt>
<totfact> 0.49772914E+00</totfact>
</mgrwt>
</event>
<event>
 4    1  0.1521315E-007  0.7684857E+03  0.7818608E-02  0.9783614E-01
          1   -1    0    0  501    0  0.00000000000E+00  0.00000000000E+00  0.65856845590E+03  0.65856845592E+03  0.50400000000E-02 0. -1.
         -1   -1    0    0    0  501 -0.00000000000E+00 -0.00000000000E+00 -0.81459787123E+03  0.81459787125E+03  0.50400000000E-02 0.  1.
    8880023    1    1    2    0    0  0.17234610051E+03  0.35645047825E+03  0.32259821661E+03  0.83345062087E+03  0.65864270000E+03 0. -1.
    8880022    1    1    2    0    0 -0.17234610051E+03 -0.35645047825E+03 -0.47862763194E+03  0.63971570629E+03  0.15294330000E+03 0.  0.
<mgrwt>
<rscale>  0 0.66249358E+03</rscale>
<asrwt>0</asrwt>
<pdfrwt beam="1">  1        1 0.10131822E+00 0.76848574E+03</pdfrwt>
<pdfrwt beam="2">  1       -1 0.12532275E+00 0.76848574E+03</pdfrwt>
<totfact> 0.17029313E+01</totfact>
</mgrwt>
</event>
<event>
 4    1  0.1521315E-007  0.7518118E+03  0.7818608E-02  0.9826787E-01
         -1   -1    0    0    0  501 -0.00000000000E+00  0.00000000000E+00  0.21134040377E+03  0.21134040383E+03  0.50400000000E-02 0.  1.
          1   -1    0    0  501    0  0.00000000000E+00 -0.00000000000E+00 -0.44385024735E+04  0.44385024735E+04  0.50400000000E-02 0. -1.
    8880023    1    1    2    0    0  0.35800650557E+03  0.56938983560E+02 -0.41874386006E+04  0.42543933699E+04  0.65864270000E+03 0. -1.
    8880022    1    1    2    0    0 -0.35800650557E+03 -0.56938983560E+02 -0.39723469088E+02  0.39544950738E+03  0.15294330000E+03 0.  0.
<mgrwt>
<rscale>  0 0.63944623E+03</rscale>
<asrwt>0</asrwt>
<pdfrwt beam="1">  1        1 0.68284647E+00 0.75181175E+03</pdfrwt>
<pdfrwt beam="2">  1       -1 0.32513912E-01 0.75181175E+03</pdfrwt>
<totfact> 0.37155969E-01</totfact>
</mgrwt>
</event>
<event>
 4    1  0.1521315E-007  0.6606467E+03  0.7818608E-02  0.1023503E+00
         -1   -1    0    0    0  501 -0.00000000000E+00  0.00000000000E+00  0.10612861072E+04  0.10612861072E+04  0.50400000000E-02 0.  1.
          1   -1    0    0  501    0  0.00000000000E+00 -0.00000000000E+00 -0.41480405474E+03  0.41480405477E+03  0.50400000000E-02 0. -1.
    8880023    1    1    2    0    0 -0.48458275682E+02  0.17193370966E+02 -0.13823646794E+03  0.67495432721E+03  0.65864270000E+03 0. -1.
    8880022    1    1    2    0    0  0.48458275682E+02 -0.17193370966E+02  0.78471852041E+03  0.80113583479E+03  0.15294330000E+03 0.  0.
<mgrwt>
<rscale>  0 0.46443251E+03</rscale>
<asrwt>0</asrwt>
<pdfrwt beam="1">  1        1 0.63816009E-01 0.66064667E+03</pdfrwt>
<pdfrwt beam="2">  1       -1 0.16327478E+00 0.66064667E+03</pdfrwt>
<totfact> 0.16378696E+01</totfact>
</mgrwt>
</event>
<event>
 4    1  0.1521315E-007  0.7229348E+03  0.7818608E-02  0.9912778E-01
          1   -1    0    0  501    0  0.00000000000E+00  0.00000000000E+00  0.65270943673E+03  0.65270943675E+03  0.50400000000E-02 0. -1.
         -1   -1    0    0    0  501 -0.00000000000E+00 -0.00000000000E+00 -0.85197455316E+03  0.85197455318E+03  0.50400000000E-02 0.  1.
    8880023    1    1    2    0    0  0.22518661703E+03  0.19523178575E+03  0.39403534358E+03  0.82334593028E+03  0.65864270000E+03 0. -1.
    8880022    1    1    2    0    0 -0.22518661703E+03 -0.19523178575E+03 -0.59330046001E+03  0.68133805965E+03  0.15294330000E+03 0.  0.
<mgrwt>
<rscale>  0 0.59645988E+03</rscale>
<asrwt>0</asrwt>
<pdfrwt beam="1">  1        1 0.10041684E+00 0.72293476E+03</pdfrwt>
<pdfrwt beam="2">  1       -1 0.13107301E+00 0.72293476E+03</pdfrwt>
<totfact> 0.15505521E+01</totfact>
</mgrwt>
</event>
<event>
 4    1  0.1521315E-007  0.1393851E+04  0.7818608E-02  0.8988475E-01
          1   -1    0    0  501    0  0.00000000000E+00  0.00000000000E+00  0.30438551140E+04  0.30438551140E+04  0.50400000000E-02 0. -1.
         -1   -1    0    0    0  501 -0.00000000000E+00 -0.00000000000E+00 -0.57660951382E+03  0.57660951384E+03  0.50400000000E-02 0.  1.
    8880023    1    1    2    0    0 -0.31291835080E+03 -0.11878942999E+04  0.10962631004E+04  0.17733058827E+04  0.65864270000E+03 0.  1.
    8880022    1    1    2    0    0  0.31291835080E+03  0.11878942999E+04  0.13709824998E+04  0.18471587451E+04  0.15294330000E+03 0. -1.
<mgrwt>
<rscale>  0 0.13531125E+04</rscale>
<asrwt>0</asrwt>
<pdfrwt beam="1">  1        1 0.46828540E+00 0.13938511E+04</pdfrwt>
<pdfrwt beam="2">  1       -1 0.88709156E-01 0.13938511E+04</pdfrwt>
<totfact> 0.67366358E-01</totfact>
</mgrwt>
</event>
<event>
 4    1  0.1521315E-007  0.6625342E+03  0.7818608E-02  0.1021698E+00
          1   -1    0    0  501    0  0.00000000000E+00  0.00000000000E+00  0.61715457258E+03  0.61715457260E+03  0.50400000000E-02 0. -1.
         -1   -1    0    0    0  501 -0.00000000000E+00 -0.00000000000E+00 -0.13835346712E+04  0.13835346712E+04  0.50400000000E-02 0.  1.
    8880023    1    1    2    0    0  0.46685755512E+02 -0.54423023825E+02  0.43169370566E+03  0.79076613930E+03  0.65864270000E+03 0. -1.
    8880022    1    1    2    0    0 -0.46685755512E+02  0.54423023825E+02 -0.11980738043E+04  0.12099231045E+04  0.15294330000E+03 0.  0.
<mgrwt>
<rscale>  0 0.47078740E+03</rscale>
<asrwt>0</asrwt>
<pdfrwt beam="1">  1        1 0.94946858E-01 0.66253425E+03</pdfrwt>
<pdfrwt beam="2">  1       -1 0.21285149E+00 0.66253425E+03</pdfrwt>
<totfact> 0.42552741E+00</totfact>
</mgrwt>
</event>
<event>
 4    1  0.1521315E-007  0.7370312E+03  0.7818608E-02  0.9868681E-01
         -1   -1    0    0    0  501 -0.00000000000E+00  0.00000000000E+00  0.29986416450E+03  0.29986416454E+03  0.50400000000E-02 0.  1.
          1   -1    0    0  501    0  0.00000000000E+00 -0.00000000000E+00 -0.11491056059E+04  0.11491056059E+04  0.50400000000E-02 0. -1.
    8880023    1    1    2    0    0 -0.22251769621E+03  0.24472568033E+03 -0.78885733009E+03  0.10795882906E+04  0.65864270000E+03 0.  0.
    8880022    1    1    2    0    0  0.22251769621E+03 -0.24472568033E+03 -0.60384111316E+02  0.36938147984E+03  0.15294330000E+03 0.  0.
<mgrwt>
<rscale>  0 0.61803448E+03</rscale>
<asrwt>0</asrwt>
<pdfrwt beam="1">  1        1 0.17678548E+00 0.73703120E+03</pdfrwt>
<pdfrwt beam="2">  1       -1 0.46132949E-01 0.73703120E+03</pdfrwt>
<totfact> 0.55855615E+01</totfact>
</mgrwt>
</event>
<event>
 4    1  0.1521315E-007  0.8139044E+03  0.7818608E-02  0.9681501E-01
          1   -1    0    0  501    0  0.00000000000E+00  0.00000000000E+00  0.51549568494E+03  0.51549568497E+03  0.50400000000E-02 0. -1.
         -1   -1    0    0    0  501 -0.00000000000E+00 -0.00000000000E+00 -0.11988842919E+04  0.11988842919E+04  0.50400000000E-02 0.  1.
    8880023    1    1    2    0    0  0.94112324894E+02  0.46879950606E+03  0.61378342821E+02  0.81621542120E+03  0.65864270000E+03 0. -1.
    8880022    1    1    2    0    0 -0.94112324894E+02 -0.46879950606E+03 -0.74476694979E+03  0.89816455568E+03  0.15294330000E+03 0.  0.
<mgrwt>
<rscale>  0 0.72128979E+03</rscale>
<asrwt>0</asrwt>
<pdfrwt beam="1">  1        1 0.79307029E-01 0.81390436E+03</pdfrwt>
<pdfrwt beam="2">  1       -1 0.18444374E+00 0.81390436E+03</pdfrwt>
<totfact> 0.84134933E+00</totfact>
</mgrwt>
</event>
<event>
 4    1  0.1521315E-007  0.8683863E+03  0.7818608E-02  0.9578816E-01
          1   -1    0    0  501    0  0.00000000000E+00  0.00000000000E+00  0.13958510100E+04  0.13958510100E+04  0.50400000000E-02 0. -1.
         -1   -1    0    0    0  501 -0.00000000000E+00 -0.00000000000E+00 -0.45313286736E+03  0.45313286739E+03  0.50400000000E-02 0.  1.
    8880023    1    1    2    0    0  0.55328907935E+03  0.11897804947E+03  0.91590518293E+03  0.12621319630E+04  0.65864270000E+03 0.  0.
    8880022    1    1    2    0    0 -0.55328907935E+03 -0.11897804947E+03  0.26812959667E+02  0.58685191438E+03  0.15294330000E+03 0.  0.
<mgrwt>
<rscale>  0 0.78714260E+03</rscale>
<asrwt>0</asrwt>
<pdfrwt beam="1">  1        1 0.21474631E+00 0.86838631E+03</pdfrwt>
<pdfrwt beam="2">  1       -1 0.69712750E-01 0.86838631E+03</pdfrwt>
<totfact> 0.16403445E+01</totfact>
</mgrwt>
</event>
<event>
 4    1  0.1521315E-007  0.9858027E+03  0.7818608E-02  0.9400372E-01
          1   -1    0    0  501    0  0.00000000000E+00  0.00000000000E+00  0.29288039292E+04  0.29288039292E+04  0.50400000000E-02 0. -1.
         -1   -1    0    0    0  501 -0.00000000000E+00 -0.00000000000E+00 -0.30473157865E+03  0.30473157869E+03  0.50400000000E-02 0.  1.
    8880023    1    1    2    0    0 -0.68377685795E+02 -0.73028852722E+03  0.20979194750E+04  0.23179890359E+04  0.65864270000E+03 0. -1.
    8880022    1    1    2    0    0  0.68377685795E+02  0.73028852722E+03  0.52615287563E+03  0.91554647203E+03  0.15294330000E+03 0.  0.
<mgrwt>
<rscale>  0 0.92045054E+03</rscale>
<asrwt>0</asrwt>
<pdfrwt beam="1">  1        1 0.45058524E+00 0.98580274E+03</pdfrwt>
<pdfrwt beam="2">  1       -1 0.46881779E-01 0.98580274E+03</pdfrwt>
<totfact> 0.31402650E+00</totfact>
</mgrwt>
</event>
<event>
 4    1  0.1521315E-007  0.8561791E+03  0.7818608E-02  0.9600397E-01
         -1   -1    0    0    0  501 -0.00000000000E+00  0.00000000000E+00  0.10197115029E+04  0.10197115029E+04  0.50400000000E-02 0.  1.
          1   -1    0    0  501    0  0.00000000000E+00 -0.00000000000E+00 -0.67266322069E+03  0.67266322071E+03  0.50400000000E-02 0. -1.
    8880023    1    1    2    0    0  0.23431035322E+03  0.49429857470E+03 -0.22601975326E+03  0.88550977279E+03  0.65864270000E+03 0. -1.
    8880022    1    1    2    0    0 -0.23431035322E+03 -0.49429857470E+03  0.57306803547E+03  0.80686495083E+03  0.15294330000E+03 0.  0.
<mgrwt>
<rscale>  0 0.77269937E+03</rscale>
<asrwt>0</asrwt>
<pdfrwt beam="1">  1        1 0.10348665E+00 0.85617909E+03</pdfrwt>
<pdfrwt beam="2">  1       -1 0.15687869E+00 0.85617909E+03</pdfrwt>
<totfact> 0.90921409E+00</totfact>
</mgrwt>
</event>
<event>
 4    1  0.1521315E-007  0.2178591E+04  0.7818608E-02  0.8537779E-01
         -1   -1    0    0    0  501 -0.00000000000E+00  0.00000000000E+00  0.15750066617E+04  0.15750066617E+04  0.50400000000E-02 0.  1.
          1   -1    0    0  501    0  0.00000000000E+00 -0.00000000000E+00 -0.37963674571E+04  0.37963674571E+04  0.50400000000E-02 0. -1.
    8880023    1    1    2    0    0 -0.61108426951E+02 -0.20757444344E+04  0.18825467906E+03  0.21867096806E+04  0.65864270000E+03 0.  0.
    8880022    1    1    2    0    0  0.61108426951E+02  0.20757444344E+04 -0.24096154744E+04  0.31846644382E+04  0.15294330000E+03 0.  0.
<mgrwt>
<rscale>  0 0.21541005E+04</rscale>
<asrwt>0</asrwt>
<pdfrwt beam="1">  1        1 0.58405653E+00 0.21785912E+04</pdfrwt>
<pdfrwt beam="2">  1       -1 0.24230872E+00 0.21785912E+04</pdfrwt>
<totfact> 0.98034542E-03</totfact>
</mgrwt>
</event>
<event>
 4    1  0.1521315E-007  0.7115049E+03  0.7818608E-02  0.9952455E-01
         -1   -1    0    0    0  501 -0.00000000000E+00  0.00000000000E+00  0.13695610693E+03  0.13695610703E+03  0.50400000000E-02 0.  1.
          1   -1    0    0  501    0  0.00000000000E+00 -0.00000000000E+00 -0.25886298007E+04  0.25886298007E+04  0.50400000000E-02 0. -1.
    8880023    1    1    2    0    0 -0.26369486458E+03  0.53796303792E+02 -0.22407681835E+04  0.23510170740E+04  0.65864270000E+03 0.  0.
    8880022    1    1    2    0    0  0.26369486458E+03 -0.53796303792E+02 -0.21090551025E+03  0.37456883369E+03  0.15294330000E+03 0.  0.
<mgrwt>
<rscale>  0 0.57785095E+03</rscale>
<asrwt>0</asrwt>
<pdfrwt beam="1">  1        1 0.39825070E+00 0.71150491E+03</pdfrwt>
<pdfrwt beam="2">  1       -1 0.21070172E-01 0.71150491E+03</pdfrwt>
<totfact> 0.23210935E+01</totfact>
</mgrwt>
</event>
<event>
 4    1  0.1521315E-007  0.7751333E+03  0.7818608E-02  0.9767396E-01
          1   -1    0    0  501    0  0.00000000000E+00  0.00000000000E+00  0.10320270435E+04  0.10320270435E+04  0.50400000000E-02 0. -1.
         -1   -1    0    0    0  501 -0.00000000000E+00 -0.00000000000E+00 -0.52887296877E+03  0.52887296879E+03  0.50400000000E-02 0.  1.
    8880023    1    1    2    0    0 -0.20098126251E+03 -0.35584825595E+03  0.73375974622E+03  0.10673495306E+04  0.65864270000E+03 0. -1.
    8880022    1    1    2    0    0  0.20098126251E+03  0.35584825595E+03 -0.23060567153E+03  0.49355048161E+03  0.15294330000E+03 0.  0.
<mgrwt>
<rscale>  0 0.67142020E+03</rscale>
<asrwt>0</asrwt>
<pdfrwt beam="1">  1        1 0.15877339E+00 0.77513331E+03</pdfrwt>
<pdfrwt beam="2">  1       -1 0.81365071E-01 0.77513331E+03</pdfrwt>
<totfact> 0.22052167E+01</totfact>
</mgrwt>
</event>
<event>
 4    1  0.1521315E-007  0.7245083E+03  0.7818608E-02  0.9907617E-01
          1   -1    0    0  501    0  0.00000000000E+00  0.00000000000E+00  0.15243163900E+04  0.15243163900E+04  0.50400000000E-02 0. -1.
         -1   -1    0    0    0  501 -0.00000000000E+00 -0.00000000000E+00 -0.29026780808E+03  0.29026780812E+03  0.50400000000E-02 0.  1.
    8880023    1    1    2    0    0 -0.20711589666E+03 -0.21955645748E+03  0.12822700832E+04  0.14727962538E+04  0.65864270000E+03 0. -1.
    8880022    1    1    2    0    0  0.20711589666E+03  0.21955645748E+03 -0.48221501302E+02  0.34178794431E+03  0.15294330000E+03 0.  0.
<mgrwt>
<rscale>  0 0.59893571E+03</rscale>
<asrwt>0</asrwt>
<pdfrwt beam="1">  1        1 0.23451021E+00 0.72450827E+03</pdfrwt>
<pdfrwt beam="2">  1       -1 0.44656586E-01 0.72450827E+03</pdfrwt>
<totfact> 0.32351049E+01</totfact>
</mgrwt>
</event>
<event>
 4    1  0.1521315E-007  0.8695176E+03  0.7818608E-02  0.9576853E-01
          1   -1    0    0  501    0  0.00000000000E+00  0.00000000000E+00  0.12498781011E+04  0.12498781011E+04  0.50400000000E-02 0. -1.
         -1   -1    0    0    0  501 -0.00000000000E+00 -0.00000000000E+00 -0.57163424631E+03  0.57163424633E+03  0.50400000000E-02 0.  1.
    8880023    1    1    2    0    0  0.53262194307E+03  0.19637860284E+03  0.84286701024E+03  0.12109854223E+04  0.65864270000E+03 0. -1.
    8880022    1    1    2    0    0 -0.53262194307E+03 -0.19637860284E+03 -0.16462315549E+03  0.61052692507E+03  0.15294330000E+03 0.  0.
<mgrwt>
<rscale>  0 0.78847360E+03</rscale>
<asrwt>0</asrwt>
<pdfrwt beam="1">  1        1 0.19228894E+00 0.86951762E+03</pdfrwt>
<pdfrwt beam="2">  1       -1 0.87943731E-01 0.86951762E+03</pdfrwt>
<totfact> 0.12721412E+01</totfact>
</mgrwt>
</event>
<event>
 4    1  0.1521315E-007  0.6601024E+03  0.7818608E-02  0.1024052E+00
          1   -1    0    0  501    0  0.00000000000E+00  0.00000000000E+00  0.50177701505E+03  0.50177701507E+03  0.50400000000E-02 0. -1.
         -1   -1    0    0    0  501 -0.00000000000E+00 -0.00000000000E+00 -0.40362710958E+03  0.40362710962E+03  0.50400000000E-02 0.  1.
    8880023    1    1    2    0    0 -0.20675668753E+02 -0.38697663640E+02  0.22972813429E+03  0.69893505735E+03  0.65864270000E+03 0. -1.
    8880022    1    1    2    0    0  0.20675668753E+02  0.38697663640E+02 -0.13157822883E+03  0.20646906733E+03  0.15294330000E+03 0.  0.
<mgrwt>
<rscale>  0 0.46252399E+03</rscale>
<asrwt>0</asrwt>
<pdfrwt beam="1">  1        1 0.77196464E-01 0.66010242E+03</pdfrwt>
<pdfrwt beam="2">  1       -1 0.62096478E-01 0.66010242E+03</pdfrwt>
<totfact> 0.11867739E+02</totfact>
</mgrwt>
</event>
<event>
 4    1  0.1521315E-007  0.9570663E+03  0.7818608E-02  0.9440019E-01
          1   -1    0    0  501    0  0.00000000000E+00  0.00000000000E+00  0.16613905492E+04  0.16613905492E+04  0.50400000000E-02 0. -1.
         -1   -1    0    0    0  501 -0.00000000000E+00 -0.00000000000E+00 -0.62970990289E+03  0.62970990291E+03  0.50400000000E-02 0.  1.
    8880023    1    1    2    0    0  0.30788231917E+03 -0.62239383704E+03  0.12247342015E+04  0.15543325517E+04  0.65864270000E+03 0.  0.
    8880022    1    1    2    0    0 -0.30788231917E+03  0.62239383704E+03 -0.19305355518E+03  0.73676790038E+03  0.15294330000E+03 0.  0.
<mgrwt>
<rscale>  0 0.88854166E+03</rscale>
<asrwt>0</asrwt>
<pdfrwt beam="1">  1        1 0.25559855E+00 0.95706626E+03</pdfrwt>
<pdfrwt beam="2">  1       -1 0.96878447E-01 0.95706626E+03</pdfrwt>
<totfact> 0.52544193E+00</totfact>
</mgrwt>
</event>
<event>
 4    1  0.1521315E-007  0.1165549E+04  0.7818608E-02  0.9191361E-01
          1   -1    0    0  501    0  0.00000000000E+00  0.00000000000E+00  0.11851561427E+04  0.11851561427E+04  0.50400000000E-02 0. -1.
         -1   -1    0    0    0  501 -0.00000000000E+00 -0.00000000000E+00 -0.11069450553E+04  0.11069450553E+04  0.50400000000E-02 0.  1.
    8880023    1    1    2    0    0 -0.89168992542E+03 -0.35997748841E+03 -0.36627948679E+03  0.12217469394E+04  0.65864270000E+03 0.  0.
    8880022    1    1    2    0    0  0.89168992542E+03  0.35997748841E+03  0.44449057416E+03  0.10703542585E+04  0.15294330000E+03 0.  0.
<mgrwt>
<rscale>  0 0.11143047E+04</rscale>
<asrwt>0</asrwt>
<pdfrwt beam="1">  1        1 0.18233171E+00 0.11655492E+04</pdfrwt>
<pdfrwt beam="2">  1       -1 0.17029924E+00 0.11655492E+04</pdfrwt>
<totfact> 0.26403362E+00</totfact>
</mgrwt>
</event>
<event>
 4    1  0.1521315E-007  0.9066878E+03  0.7818608E-02  0.9515380E-01
         -1   -1    0    0    0  501 -0.00000000000E+00  0.00000000000E+00  0.33133866861E+04  0.33133866861E+04  0.50400000000E-02 0.  1.
          1   -1    0    0  501    0  0.00000000000E+00 -0.00000000000E+00 -0.84356911680E+03  0.84356911681E+03  0.50400000000E-02 0. -1.
    8880023    1    1    2    0    0 -0.49726827266E+02 -0.62112778427E+03 -0.55618203496E+03  0.10636828211E+04  0.65864270000E+03 0. -1.
    8880022    1    1    2    0    0  0.49726827266E+02  0.62112778427E+03  0.30259996042E+04  0.30932729817E+04  0.15294330000E+03 0.  0.
<mgrwt>
<rscale>  0 0.83159370E+03</rscale>
<asrwt>0</asrwt>
<pdfrwt beam="1">  1        1 0.12977986E+00 0.90668776E+03</pdfrwt>
<pdfrwt beam="2">  1       -1 0.50975181E+00 0.90668776E+03</pdfrwt>
<totfact> 0.27081045E-02</totfact>
</mgrwt>
</event>
<event>
 4    1  0.1521315E-007  0.6966902E+03  0.7818608E-02  0.1001122E+00
          1   -1    0    0  501    0  0.00000000000E+00  0.00000000000E+00  0.18234345269E+04  0.18234345269E+04  0.50400000000E-02 0. -1.
         -1   -1    0    0    0  501 -0.00000000000E+00 -0.00000000000E+00 -0.35554627728E+03  0.35554627732E+03  0.50400000000E-02 0.  1.
    8880023    1    1    2    0    0  0.16018808831E+03 -0.16095579738E+03  0.16890080890E+04  0.18270537823E+04  0.65864270000E+03 0. -1.
    8880022    1    1    2    0    0 -0.16018808831E+03  0.16095579738E+03 -0.22111983943E+03  0.35192702191E+03  0.15294330000E+03 0.  0.
<mgrwt>
<rscale>  0 0.55161044E+03</rscale>
<asrwt>0</asrwt>
<pdfrwt beam="1">  1        1 0.28052839E+00 0.69669017E+03</pdfrwt>
<pdfrwt beam="2">  1       -1 0.54699428E-01 0.69669017E+03</pdfrwt>
<totfact> 0.13920653E+01</totfact>
</mgrwt>
</event>
<event>
 4    1  0.1521315E-007  0.1055889E+04  0.7818608E-02  0.9311835E-01
          1   -1    0    0  501    0  0.00000000000E+00  0.00000000000E+00  0.10568117251E+04  0.10568117251E+04  0.50400000000E-02 0. -1.
         -1   -1    0    0    0  501 -0.00000000000E+00 -0.00000000000E+00 -0.21548165651E+04  0.21548165651E+04  0.50400000000E-02 0.  1.
    8880023    1    1    2    0    0  0.52274250011E+03  0.63861737366E+03 -0.18202452439E+04  0.21043276421E+04  0.65864270000E+03 0.  0.
    8880022    1    1    2    0    0 -0.52274250011E+03 -0.63861737366E+03  0.72224040386E+03  0.11073006481E+04  0.15294330000E+03 0.  0.
<mgrwt>
<rscale>  0 0.99700567E+03</rscale>
<asrwt>0</asrwt>
<pdfrwt beam="1">  1        1 0.16258642E+00 0.10558892E+04</pdfrwt>
<pdfrwt beam="2">  1       -1 0.33151024E+00 0.10558892E+04</pdfrwt>
<totfact> 0.28387922E-01</totfact>
</mgrwt>
</event>
<event>
 4    1  0.1521315E-007  0.7085458E+03  0.7818608E-02  0.9963441E-01
         -1   -1    0    0    0  501 -0.00000000000E+00  0.00000000000E+00  0.12704286919E+03  0.12704286929E+03  0.50400000000E-02 0.  1.
          1   -1    0    0  501    0  0.00000000000E+00 -0.00000000000E+00 -0.27026207927E+04  0.27026207927E+04  0.50400000000E-02 0. -1.
    8880023    1    1    2    0    0  0.21519000912E+03  0.14805460799E+03 -0.23434318665E+04  0.24482054706E+04  0.65864270000E+03 0.  0.
    8880022    1    1    2    0    0 -0.21519000912E+03 -0.14805460799E+03 -0.23214605693E+03  0.38145819134E+03  0.15294330000E+03 0.  0.
<mgrwt>
<rscale>  0 0.57282751E+03</rscale>
<asrwt>0</asrwt>
<pdfrwt beam="1">  1        1 0.41578777E+00 0.70854577E+03</pdfrwt>
<pdfrwt beam="2">  1       -1 0.19545059E-01 0.70854577E+03</pdfrwt>
<totfact> 0.21961475E+01</totfact>
</mgrwt>
</event>
<event>
 4    1  0.1521315E-007  0.6671624E+03  0.7818608E-02  0.1017784E+00
          1   -1    0    0  501    0  0.00000000000E+00  0.00000000000E+00  0.83587542600E+03  0.83587542601E+03  0.50400000000E-02 0. -1.
         -1   -1    0    0    0  501 -0.00000000000E+00 -0.00000000000E+00 -0.24861722395E+03  0.24861722401E+03  0.50400000000E-02 0.  1.
    8880023    1    1    2    0    0 -0.37898211948E+02  0.99293413394E+02  0.60072485193E+03  0.89776166682E+03  0.65864270000E+03 0. -1.
    8880022    1    1    2    0    0  0.37898211948E+02 -0.99293413394E+02 -0.13466649893E+02  0.18673098320E+03  0.15294330000E+03 0.  0.
<mgrwt>
<rscale>  0 0.48494745E+03</rscale>
<asrwt>0</asrwt>
<pdfrwt beam="1">  1        1 0.12859622E+00 0.66716240E+03</pdfrwt>
<pdfrwt beam="2">  1       -1 0.38248804E-01 0.66716240E+03</pdfrwt>
<totfact> 0.13911374E+02</totfact>
</mgrwt>
</event>
<event>
 4    1  0.1521315E-007  0.9554935E+03  0.7818608E-02  0.9442254E-01
          1   -1    0    0  501    0  0.00000000000E+00  0.00000000000E+00  0.84270597323E+03  0.84270597324E+03  0.50400000000E-02 0. -1.
         -1   -1    0    0    0  501 -0.00000000000E+00 -0.00000000000E+00 -0.10971739191E+04  0.10971739192E+04  0.50400000000E-02 0.  1.
    8880023    1    1    2    0    0  0.36856313252E+03  0.58593420423E+03  0.34053720006E+03  0.10143635764E+04  0.65864270000E+03 0.  0.
    8880022    1    1    2    0    0 -0.36856313252E+03 -0.58593420423E+03 -0.59500514597E+03  0.92551631595E+03  0.15294330000E+03 0.  0.
<mgrwt>
<rscale>  0 0.88678461E+03</rscale>
<asrwt>0</asrwt>
<pdfrwt beam="1">  1        1 0.12964707E+00 0.95549353E+03</pdfrwt>
<pdfrwt beam="2">  1       -1 0.16879599E+00 0.95549353E+03</pdfrwt>
<totfact> 0.51419194E+00</totfact>
</mgrwt>
</event>
<event>
 4    1  0.1521315E-007  0.7136577E+03  0.7818608E-02  0.9944661E-01
         -1   -1    0    0    0  501 -0.00000000000E+00  0.00000000000E+00  0.13672254001E+03  0.13672254011E+03  0.50400000000E-02 0.  1.
          1   -1    0    0  501    0  0.00000000000E+00 -0.00000000000E+00 -0.21540111279E+04  0.21540111279E+04  0.50400000000E-02 0. -1.
    8880023    1    1    2    0    0 -0.23817768007E+03 -0.13699827136E+03 -0.10187478189E+04  0.12438466378E+04  0.65864270000E+03 0.  0.
    8880022    1    1    2    0    0  0.23817768007E+03  0.13699827136E+03 -0.99854076895E+03  0.10468870302E+04  0.15294330000E+03 0.  0.
<mgrwt>
<rscale>  0 0.58144797E+03</rscale>
<asrwt>0</asrwt>
<pdfrwt beam="1">  1        1 0.33138630E+00 0.71365772E+03</pdfrwt>
<pdfrwt beam="2">  1       -1 0.21034239E-01 0.71365772E+03</pdfrwt>
<totfact> 0.45806694E+01</totfact>
</mgrwt>
</event>
<event>
 4    1  0.1521315E-007  0.6995124E+03  0.7818608E-02  0.9999230E-01
         -1   -1    0    0    0  501 -0.00000000000E+00  0.00000000000E+00  0.12760362082E+04  0.12760362082E+04  0.50400000000E-02 0.  1.
          1   -1    0    0  501    0  0.00000000000E+00 -0.00000000000E+00 -0.67470565380E+03  0.67470565382E+03  0.50400000000E-02 0. -1.
    8880023    1    1    2    0    0 -0.23088031557E+03  0.46921894453E+02 -0.47029916598E+03  0.84291096569E+03  0.65864270000E+03 0. -1.
    8880022    1    1    2    0    0  0.23088031557E+03 -0.46921894453E+02  0.10716297204E+04  0.11078308964E+04  0.15294330000E+03 0.  0.
<mgrwt>
<rscale>  0 0.55684013E+03</rscale>
<asrwt>0</asrwt>
<pdfrwt beam="1">  1        1 0.10380087E+00 0.69951239E+03</pdfrwt>
<pdfrwt beam="2">  1       -1 0.19631326E+00 0.69951239E+03</pdfrwt>
<totfact> 0.48026652E+00</totfact>
</mgrwt>
</event>
<event>
 4    1  0.1521315E-007  0.9221538E+03  0.7818608E-02  0.9491364E-01
         -1   -1    0    0    0  501 -0.00000000000E+00  0.00000000000E+00  0.12921847277E+04  0.12921847277E+04  0.50400000000E-02 0.  1.
          1   -1    0    0  501    0  0.00000000000E+00 -0.00000000000E+00 -0.13922912013E+04  0.13922912013E+04  0.50400000000E-02 0. -1.
    8880023    1    1    2    0    0 -0.57100014974E+03 -0.30085921790E+03 -0.11305932136E+04  0.14589752091E+04  0.65864270000E+03 0. -1.
    8880022    1    1    2    0    0  0.57100014974E+03  0.30085921790E+03  0.10304867400E+04  0.12255007198E+04  0.15294330000E+03 0.  0.
<mgrwt>
<rscale>  0 0.84923489E+03</rscale>
<asrwt>0</asrwt>
<pdfrwt beam="1">  1        1 0.21419865E+00 0.92215381E+03</pdfrwt>
<pdfrwt beam="2">  1       -1 0.19879765E+00 0.92215381E+03</pdfrwt>
<totfact> 0.12154008E+00</totfact>
</mgrwt>
</event>
<event>
 4    1  0.1665693E-007  0.8323416E+03  0.7818608E-02  0.9644793E-01
         -1   -1    0    0    0  501 -0.00000000000E+00  0.00000000000E+00  0.12686126794E+04  0.12686126794E+04  0.50400000000E-02 0.  1.
          1   -1    0    0  501    0  0.00000000000E+00 -0.00000000000E+00 -0.14922694560E+04  0.14922694560E+04  0.50400000000E-02 0. -1.
    8880023    1    1    2    0    0 -0.50060018624E+03 -0.91552498829E+02 -0.13096993797E+04  0.15518070363E+04  0.65864270000E+03 0.  0.
    8880022    1    1    2    0    0  0.50060018624E+03  0.91552498829E+02  0.10860426031E+04  0.12090750991E+04  0.15294330000E+03 0.  0.
<mgrwt>
<rscale>  0 0.74401093E+03</rscale>
<asrwt>0</asrwt>
<pdfrwt beam="1">  1        1 0.22957992E+00 0.83234164E+03</pdfrwt>
<pdfrwt beam="2">  1       -1 0.19517118E+00 0.83234164E+03</pdfrwt>
<totfact> 0.11146291E+00</totfact>
</mgrwt>
</event>
<event>
 4    1  0.1521315E-007  0.7548474E+03  0.7818608E-02  0.9818634E-01
          1   -1    0    0  501    0  0.00000000000E+00  0.00000000000E+00  0.90320436455E+03  0.90320436456E+03  0.50400000000E-02 0. -1.
         -1   -1    0    0    0  501 -0.00000000000E+00 -0.00000000000E+00 -0.10798731963E+04  0.10798731963E+04  0.50400000000E-02 0.  1.
    8880023    1    1    2    0    0  0.26444210963E+03  0.25701125338E+03  0.69390769295E+03  0.10253304376E+04  0.65864270000E+03 0.  0.
    8880022    1    1    2    0    0 -0.26444210963E+03 -0.25701125338E+03 -0.87057652470E+03  0.95774712325E+03  0.15294330000E+03 0.  0.
<mgrwt>
<rscale>  0 0.64372039E+03</rscale>
<asrwt>0</asrwt>
<pdfrwt beam="1">  1        1 0.13895452E+00 0.75484742E+03</pdfrwt>
<pdfrwt beam="2">  1       -1 0.16613434E+00 0.75484742E+03</pdfrwt>
<totfact> 0.49220876E+00</totfact>
</mgrwt>
</event>
<event>
 4    1  0.1521315E-007  0.7060285E+03  0.7818608E-02  0.9973055E-01
          1   -1    0    0  501    0  0.00000000000E+00  0.00000000000E+00  0.13833412577E+04  0.13833412577E+04  0.50400000000E-02 0. -1.
         -1   -1    0    0    0  501 -0.00000000000E+00 -0.00000000000E+00 -0.11282097260E+04  0.11282097260E+04  0.50400000000E-02 0.  1.
    8880023    1    1    2    0    0 -0.17186559332E+03  0.18742548144E+03  0.12706165939E+04  0.14535965149E+04  0.65864270000E+03 0. -1.
    8880022    1    1    2    0    0  0.17186559332E+03 -0.18742548144E+03 -0.10154850622E+04  0.10579544687E+04  0.15294330000E+03 0.  0.
<mgrwt>
<rscale>  0 0.56847666E+03</rscale>
<asrwt>0</asrwt>
<pdfrwt beam="1">  1        1 0.21282173E+00 0.70602854E+03</pdfrwt>
<pdfrwt beam="2">  1       -1 0.17357073E+00 0.70602854E+03</pdfrwt>
<totfact> 0.19300464E+00</totfact>
</mgrwt>
</event>
<event>
 4    1  0.1521315E-007  0.6913772E+03  0.7818608E-02  0.1003505E+00
         -1   -1    0    0    0  501 -0.00000000000E+00  0.00000000000E+00  0.14305783548E+03  0.14305783557E+03  0.50400000000E-02 0.  1.
          1   -1    0    0  501    0  0.00000000000E+00 -0.00000000000E+00 -0.19061016095E+04  0.19061016096E+04  0.50400000000E-02 0. -1.
    8880023    1    1    2    0    0  0.18331297534E+03  0.10290107856E+03 -0.15981949673E+04  0.17413298478E+04  0.65864270000E+03 0.  0.
    8880022    1    1    2    0    0 -0.18331297534E+03 -0.10290107856E+03 -0.16484880673E+03  0.30782959733E+03  0.15294330000E+03 0.  0.
<mgrwt>
<rscale>  0 0.54139812E+03</rscale>
<asrwt>0</asrwt>
<pdfrwt beam="1">  1        1 0.29324638E+00 0.69137724E+03</pdfrwt>
<pdfrwt beam="2">  1       -1 0.22008899E-01 0.69137724E+03</pdfrwt>
<totfact> 0.62331027E+01</totfact>
</mgrwt>
</event>
<event>
 4    1  0.1521315E-007  0.7876934E+03  0.7818608E-02  0.9738066E-01
          1   -1    0    0  501    0  0.00000000000E+00  0.00000000000E+00  0.15700747838E+04  0.15700747838E+04  0.50400000000E-02 0. -1.
         -1   -1    0    0    0  501 -0.00000000000E+00 -0.00000000000E+00 -0.26412202622E+03  0.26412202627E+03  0.50400000000E-02 0.  1.
    8880023    1    1    2    0    0 -0.42220875510E+03 -0.91599602087E+02  0.10389326759E+04  0.13037799014E+04  0.65864270000E+03 0.  0.
    8880022    1    1    2    0    0  0.42220875510E+03  0.91599602087E+02  0.26702008168E+03  0.53041690869E+03  0.15294330000E+03 0.  0.
<mgrwt>
<rscale>  0 0.68794905E+03</rscale>
<asrwt>0</asrwt>
<pdfrwt beam="1">  1        1 0.24154996E+00 0.78769342E+03</pdfrwt>
<pdfrwt beam="2">  1       -1 0.40634159E-01 0.78769342E+03</pdfrwt>
<totfact> 0.35553492E+01</totfact>
</mgrwt>
</event>
<event>
 4    1  0.1521315E-007  0.7833385E+03  0.7818608E-02  0.9748052E-01
          1   -1    0    0  501    0  0.00000000000E+00  0.00000000000E+00  0.73434249109E+03  0.73434249110E+03  0.50400000000E-02 0. -1.
         -1   -1    0    0    0  501 -0.00000000000E+00 -0.00000000000E+00 -0.64025511646E+03  0.64025511648E+03  0.50400000000E-02 0.  1.
    8880023    1    1    2    0    0  0.41923055420E+03  0.63676775949E+02  0.34807483895E+03  0.85719034592E+03  0.65864270000E+03 0. -1.
    8880022    1    1    2    0    0 -0.41923055420E+03 -0.63676775949E+02 -0.25398746432E+03  0.51740726166E+03  0.15294330000E+03 0.  1.
<mgrwt>
<rscale>  0 0.68226444E+03</rscale>
<asrwt>0</asrwt>
<pdfrwt beam="1">  1        1 0.11297577E+00 0.78333849E+03</pdfrwt>
<pdfrwt beam="2">  1       -1 0.98500787E-01 0.78333849E+03</pdfrwt>
<totfact> 0.25527621E+01</totfact>
</mgrwt>
</event>
<event>
 4    1  0.1521315E-007  0.7127562E+03  0.7818608E-02  0.9947905E-01
         -1   -1    0    0    0  501 -0.00000000000E+00  0.00000000000E+00  0.39474619541E+03  0.39474619545E+03  0.50400000000E-02 0.  1.
          1   -1    0    0  501    0  0.00000000000E+00 -0.00000000000E+00 -0.13808738377E+04  0.13808738377E+04  0.50400000000E-02 0. -1.
    8880023    1    1    2    0    0 -0.23582202262E+03 -0.13637876778E+03 -0.12009093762E+04  0.13964973078E+04  0.65864270000E+03 0.  0.
    8880022    1    1    2    0    0  0.23582202262E+03  0.13637876778E+03  0.21478173388E+03  0.37912272535E+03  0.15294330000E+03 0.  0.
<mgrwt>
<rscale>  0 0.57994734E+03</rscale>
<asrwt>0</asrwt>
<pdfrwt beam="1">  1        1 0.21244213E+00 0.71275620E+03</pdfrwt>
<pdfrwt beam="2">  1       -1 0.60730185E-01 0.71275620E+03</pdfrwt>
<totfact> 0.22607153E+01</totfact>
</mgrwt>
</event>
<event>
 4    1  0.1521315E-007  0.8218477E+03  0.7818608E-02  0.9665407E-01
          1   -1    0    0  501    0  0.00000000000E+00  0.00000000000E+00  0.29777883125E+04  0.29777883125E+04  0.50400000000E-02 0. -1.
         -1   -1    0    0    0  501 -0.00000000000E+00 -0.00000000000E+00 -0.18044910048E+03  0.18044910055E+03  0.50400000000E-02 0.  1.
    8880023    1    1    2    0    0  0.29551369979E+03  0.39280406276E+03  0.10314106227E+04  0.13188030396E+04  0.65864270000E+03 0.  0.
    8880022    1    1    2    0    0 -0.29551369979E+03 -0.39280406276E+03  0.17659285893E+04  0.18394343734E+04  0.15294330000E+03 0.  0.
<mgrwt>
<rscale>  0 0.73114297E+03</rscale>
<asrwt>0</asrwt>
<pdfrwt beam="1">  1        1 0.45812125E+00 0.82184767E+03</pdfrwt>
<pdfrwt beam="2">  1       -1 0.27761402E-01 0.82184767E+03</pdfrwt>
<totfact> 0.76209041E+00</totfact>
</mgrwt>
</event>
<event>
 4    1  0.1521315E-007  0.7345964E+03  0.7818608E-02  0.9875976E-01
         -1   -1    0    0    0  501 -0.00000000000E+00  0.00000000000E+00  0.17938018874E+03  0.17938018882E+03  0.50400000000E-02 0.  1.
          1   -1    0    0  501    0  0.00000000000E+00 -0.00000000000E+00 -0.22226752734E+04  0.22226752734E+04  0.50400000000E-02 0. -1.
    8880023    1    1    2    0    0  0.64622559624E+02  0.31881908103E+03 -0.18573575968E+04  0.19973505277E+04  0.65864270000E+03 0. -1.
    8880022    1    1    2    0    0 -0.64622559624E+02 -0.31881908103E+03 -0.18593748781E+03  0.40470493453E+03  0.15294330000E+03 0.  0.
<mgrwt>
<rscale>  0 0.61439832E+03</rscale>
<asrwt>0</asrwt>
<pdfrwt beam="1">  1        1 0.34195002E+00 0.73459641E+03</pdfrwt>
<pdfrwt beam="2">  1       -1 0.27596954E-01 0.73459641E+03</pdfrwt>
<totfact> 0.25909334E+01</totfact>
</mgrwt>
</event>
<event>
 4    1  0.1521315E-007  0.6955660E+03  0.7818608E-02  0.1001612E+00
          1   -1    0    0  501    0  0.00000000000E+00  0.00000000000E+00  0.25096524369E+04  0.25096524369E+04  0.50400000000E-02 0. -1.
         -1   -1    0    0    0  501 -0.00000000000E+00 -0.00000000000E+00 -0.36475298373E+03  0.36475298376E+03  0.50400000000E-02 0.  1.
    8880023    1    1    2    0    0 -0.43293800897E+02  0.21937972390E+03  0.24021413807E+04  0.25008189129E+04  0.65864270000E+03 0. -1.
    8880022    1    1    2    0    0  0.43293800897E+02 -0.21937972390E+03 -0.25724192750E+03  0.37358650770E+03  0.15294330000E+03 0.  0.
<mgrwt>
<rscale>  0 0.54949143E+03</rscale>
<asrwt>0</asrwt>
<pdfrwt beam="1">  1        1 0.38610037E+00 0.69556597E+03</pdfrwt>
<pdfrwt beam="2">  1       -1 0.56115844E-01 0.69556597E+03</pdfrwt>
<totfact> 0.45884600E+00</totfact>
</mgrwt>
</event>
<event>
 4    1  0.1521315E-007  0.6622428E+03  0.7818608E-02  0.1021968E+00
          1   -1    0    0  501    0  0.00000000000E+00  0.00000000000E+00  0.59761917147E+03  0.59761917149E+03  0.50400000000E-02 0. -1.
         -1   -1    0    0    0  501 -0.00000000000E+00 -0.00000000000E+00 -0.72855859940E+03  0.72855859942E+03  0.50400000000E-02 0.  1.
    8880023    1    1    2    0    0  0.18309046817E+02  0.66483985217E+02  0.39706717641E+03  0.77215794390E+03  0.65864270000E+03 0. -1.
    8880022    1    1    2    0    0 -0.18309046817E+02 -0.66483985217E+02 -0.52800660433E+03  0.55401982701E+03  0.15294330000E+03 0.  0.
<mgrwt>
<rscale>  0 0.46983130E+03</rscale>
<asrwt>0</asrwt>
<pdfrwt beam="1">  1        1 0.91941411E-01 0.66224282E+03</pdfrwt>
<pdfrwt beam="2">  1       -1 0.11208594E+00 0.66224282E+03</pdfrwt>
<totfact> 0.26022991E+01</totfact>
</mgrwt>
</event>
<event>
 4    1  0.1557386E-007  0.6894291E+03  0.7818608E-02  0.1004425E+00
          1   -1    0    0  501    0  0.00000000000E+00  0.00000000000E+00  0.23414131680E+04  0.23414131680E+04  0.50400000000E-02 0. -1.
         -1   -1    0    0    0  501 -0.00000000000E+00 -0.00000000000E+00 -0.74273143970E+03  0.74273143972E+03  0.50400000000E-02 0.  1.
    8880023    1    1    2    0    0 -0.44788608592E+02 -0.19873664984E+03  0.22666864642E+04  0.23692150617E+04  0.65864270000E+03 0. -1.
    8880022    1    1    2    0    0  0.44788608592E+02  0.19873664984E+03 -0.66800473593E+03  0.71492954596E+03  0.15294330000E+03 0.  0.
<mgrwt>
<rscale>  0 0.53751763E+03</rscale>
<asrwt>0</asrwt>
<pdfrwt beam="1">  1        1 0.36021741E+00 0.68942910E+03</pdfrwt>
<pdfrwt beam="2">  1       -1 0.11426638E+00 0.68942910E+03</pdfrwt>
<totfact> 0.13093583E+00</totfact>
</mgrwt>
</event>
<event>
 4    1  0.1521315E-007  0.6829807E+03  0.7818608E-02  0.1007685E+00
         -1   -1    0    0    0  501 -0.00000000000E+00  0.00000000000E+00  0.42016640529E+03  0.42016640532E+03  0.50400000000E-02 0.  1.
          1   -1    0    0  501    0  0.00000000000E+00 -0.00000000000E+00 -0.12679219599E+04  0.12679219599E+04  0.50400000000E-02 0. -1.
    8880023    1    1    2    0    0  0.66797153138E+02 -0.16790043343E+03 -0.11295935441E+04  0.13200167410E+04  0.65864270000E+03 0.  0.
    8880022    1    1    2    0    0 -0.66797153138E+02  0.16790043343E+03  0.28183798954E+03  0.36807162424E+03  0.15294330000E+03 0.  0.
<mgrwt>
<rscale>  0 0.52404976E+03</rscale>
<asrwt>0</asrwt>
<pdfrwt beam="1">  1        1 0.19506492E+00 0.68298069E+03</pdfrwt>
<pdfrwt beam="2">  1       -1 0.64640986E-01 0.68298069E+03</pdfrwt>
<totfact> 0.24068143E+01</totfact>
</mgrwt>
</event>
<event>
 4    1  0.1521315E-007  0.7286991E+03  0.7818608E-02  0.9894180E-01
          1   -1    0    0  501    0  0.00000000000E+00  0.00000000000E+00  0.12867367227E+04  0.12867367227E+04  0.50400000000E-02 0. -1.
         -1   -1    0    0    0  501 -0.00000000000E+00 -0.00000000000E+00 -0.13696713889E+04  0.13696713889E+04  0.50400000000E-02 0.  1.
    8880023    1    1    2    0    0 -0.10906666489E+03  0.29205589476E+03  0.11577816603E+04  0.13680134364E+04  0.65864270000E+03 0. -1.
    8880022    1    1    2    0    0  0.10906666489E+03 -0.29205589476E+03 -0.12407163265E+04  0.12883946752E+04  0.15294330000E+03 0.  0.
<mgrwt>
<rscale>  0 0.60544168E+03</rscale>
<asrwt>0</asrwt>
<pdfrwt beam="1">  1        1 0.19795949E+00 0.72869911E+03</pdfrwt>
<pdfrwt beam="2">  1       -1 0.21071868E+00 0.72869911E+03</pdfrwt>
<totfact> 0.12392001E+00</totfact>
</mgrwt>
</event>
<event>
 4    1  0.1521315E-007  0.6597520E+03  0.7818608E-02  0.1024412E+00
         -1   -1    0    0    0  501 -0.00000000000E+00  0.00000000000E+00  0.35773153118E+03  0.35773153121E+03  0.50400000000E-02 0.  1.
          1   -1    0    0  501    0  0.00000000000E+00 -0.00000000000E+00 -0.15635986970E+04  0.15635986970E+04  0.50400000000E-02 0. -1.
    8880023    1    1    2    0    0  0.31749584296E+02  0.21317665620E+02 -0.14713895432E+04  0.16125321309E+04  0.65864270000E+03 0. -1.
    8880022    1    1    2    0    0 -0.31749584296E+02 -0.21317665620E+02  0.26552237743E+03  0.30879809731E+03  0.15294330000E+03 0.  0.
<mgrwt>
<rscale>  0 0.46127547E+03</rscale>
<asrwt>0</asrwt>
<pdfrwt beam="1">  1        1 0.24055364E+00 0.65975199E+03</pdfrwt>
<pdfrwt beam="2">  1       -1 0.55035621E-01 0.65975199E+03</pdfrwt>
<totfact> 0.20684122E+01</totfact>
</mgrwt>
</event>
<event>
 4    1  0.1521315E-007  0.7597371E+03  0.7818608E-02  0.9805789E-01
          1   -1    0    0  501    0  0.00000000000E+00  0.00000000000E+00  0.25926896507E+04  0.25926896507E+04  0.50400000000E-02 0. -1.
         -1   -1    0    0    0  501 -0.00000000000E+00 -0.00000000000E+00 -0.58042360152E+03  0.58042360154E+03  0.50400000000E-02 0.  1.
    8880023    1    1    2    0    0  0.37649374366E+03  0.40530969218E+02  0.24555439415E+04  0.25703884051E+04  0.65864270000E+03 0. -1.
    8880022    1    1    2    0    0 -0.37649374366E+03 -0.40530969218E+02 -0.44327789230E+03  0.60272484709E+03  0.15294330000E+03 0.  0.
<mgrwt>
<rscale>  0 0.65052823E+03</rscale>
<asrwt>0</asrwt>
<pdfrwt beam="1">  1        1 0.39887533E+00 0.75973713E+03</pdfrwt>
<pdfrwt beam="2">  1       -1 0.89295939E-01 0.75973713E+03</pdfrwt>
<totfact> 0.15285199E+00</totfact>
</mgrwt>
</event>
<event>
 4    1  0.1521315E-007  0.7702863E+03  0.7818608E-02  0.9779170E-01
          1   -1    0    0  501    0  0.00000000000E+00  0.00000000000E+00  0.16835023748E+04  0.16835023748E+04  0.50400000000E-02 0. -1.
         -1   -1    0    0    0  501 -0.00000000000E+00 -0.00000000000E+00 -0.55983244686E+03  0.55983244688E+03  0.50400000000E-02 0.  1.
    8880023    1    1    2    0    0  0.31556198852E+03 -0.24484991012E+03  0.14918631087E+04  0.16789867744E+04  0.65864270000E+03 0. -1.
    8880022    1    1    2    0    0 -0.31556198852E+03  0.24484991012E+03 -0.36819318081E+03  0.56434804730E+03  0.15294330000E+03 0.  0.
<mgrwt>
<rscale>  0 0.66492481E+03</rscale>
<asrwt>0</asrwt>
<pdfrwt beam="1">  1        1 0.25900036E+00 0.77028635E+03</pdfrwt>
<pdfrwt beam="2">  1       -1 0.86128070E-01 0.77028635E+03</pdfrwt>
<totfact> 0.67659089E+00</totfact>
</mgrwt>
</event>
<event>
 4    1  0.1521315E-007  0.7827555E+03  0.7818608E-02  0.9749404E-01
          1   -1    0    0  501    0  0.00000000000E+00  0.00000000000E+00  0.31354581562E+04  0.31354581562E+04  0.50400000000E-02 0. -1.
         -1   -1    0    0    0  501 -0.00000000000E+00 -0.00000000000E+00 -0.22358377499E+03  0.22358377505E+03  0.50400000000E-02 0.  1.
    8880023    1    1    2    0    0 -0.19138107292E+03 -0.37718596445E+03  0.27832811817E+04  0.28912558361E+04  0.65864270000E+03 0.  0.
    8880022    1    1    2    0    0  0.19138107292E+03  0.37718596445E+03  0.12859319946E+03  0.46778609515E+03  0.15294330000E+03 0.  0.
<mgrwt>
<rscale>  0 0.68149984E+03</rscale>
<asrwt>0</asrwt>
<pdfrwt beam="1">  1        1 0.48237816E+00 0.78275550E+03</pdfrwt>
<pdfrwt beam="2">  1       -1 0.34397505E-01 0.78275550E+03</pdfrwt>
<totfact> 0.40516962E+00</totfact>
</mgrwt>
</event>
<event>
 4    1  0.1521315E-007  0.8679929E+03  0.7818608E-02  0.9579501E-01
         -1   -1    0    0    0  501 -0.00000000000E+00  0.00000000000E+00  0.35521415394E+03  0.35521415398E+03  0.50400000000E-02 0.  1.
          1   -1    0    0  501    0  0.00000000000E+00 -0.00000000000E+00 -0.16406987698E+04  0.16406987698E+04  0.50400000000E-02 0. -1.
    8880023    1    1    2    0    0  0.46242438358E+03 -0.32521543829E+03 -0.10558835484E+04  0.13668583196E+04  0.65864270000E+03 0. -1.
    8880022    1    1    2    0    0 -0.46242438358E+03  0.32521543829E+03 -0.22960106745E+03  0.62905460417E+03  0.15294330000E+03 0.  0.
<mgrwt>
<rscale>  0 0.78667940E+03</rscale>
<asrwt>0</asrwt>
<pdfrwt beam="1">  1        1 0.25241519E+00 0.86799286E+03</pdfrwt>
<pdfrwt beam="2">  1       -1 0.54648332E-01 0.86799286E+03</pdfrwt>
<totfact> 0.18081979E+01</totfact>
</mgrwt>
</event>
<event>
 4    1  0.1521315E-007  0.6748540E+03  0.7818608E-02  0.1012398E+00
          1   -1    0    0  501    0  0.00000000000E+00  0.00000000000E+00  0.32798772648E+03  0.32798772652E+03  0.50400000000E-02 0. -1.
         -1   -1    0    0    0  501 -0.00000000000E+00 -0.00000000000E+00 -0.61128389560E+03  0.61128389562E+03  0.50400000000E-02 0.  1.
    8880023    1    1    2    0    0  0.11783553777E+03 -0.87934382546E+02 -0.26947853100E+03  0.72666811856E+03  0.65864270000E+03 0.  1.
    8880022    1    1    2    0    0 -0.11783553777E+03  0.87934382546E+02 -0.13817638123E+02  0.21260350358E+03  0.15294330000E+03 0. -1.
<mgrwt>
<rscale>  0 0.50532428E+03</rscale>
<asrwt>0</asrwt>
<pdfrwt beam="1">  1        1 0.50459650E-01 0.67485397E+03</pdfrwt>
<pdfrwt beam="2">  1       -1 0.94043676E-01 0.67485397E+03</pdfrwt>
<totfact> 0.87393459E+01</totfact>
</mgrwt>
</event>
<event>
 4    1  0.1521315E-007  0.6979065E+03  0.7818608E-02  0.1000600E+00
         -1   -1    0    0    0  501 -0.00000000000E+00  0.00000000000E+00  0.38507015085E+03  0.38507015088E+03  0.50400000000E-02 0.  1.
          1   -1    0    0  501    0  0.00000000000E+00 -0.00000000000E+00 -0.11133293551E+04  0.11133293551E+04  0.50400000000E-02 0. -1.
    8880023    1    1    2    0    0 -0.23078734513E+03  0.73375545932E+00 -0.92500079198E+03  0.11587493294E+04  0.65864270000E+03 0. -1.
    8880022    1    1    2    0    0  0.23078734513E+03 -0.73375545932E+00  0.19674158773E+03  0.33965017654E+03  0.15294330000E+03 0.  0.
<mgrwt>
<rscale>  0 0.55387977E+03</rscale>
<asrwt>0</asrwt>
<pdfrwt beam="1">  1        1 0.17128144E+00 0.69790654E+03</pdfrwt>
<pdfrwt beam="2">  1       -1 0.59241562E-01 0.69790654E+03</pdfrwt>
<totfact> 0.36961144E+01</totfact>
</mgrwt>
</event>
<event>
 4    1  0.1521315E-007  0.6678288E+03  0.7818608E-02  0.1017270E+00
         -1   -1    0    0    0  501 -0.00000000000E+00  0.00000000000E+00  0.70759784088E+03  0.70759784089E+03  0.50400000000E-02 0.  1.
          1   -1    0    0  501    0  0.00000000000E+00 -0.00000000000E+00 -0.79147937900E+03  0.79147937902E+03  0.50400000000E-02 0. -1.
    8880023    1    1    2    0    0  0.83204527582E+02  0.72540420422E+02 -0.63196701460E+03  0.91944419070E+03  0.65864270000E+03 0. -1.
    8880022    1    1    2    0    0 -0.83204527582E+02 -0.72540420422E+02  0.54808547648E+03  0.57963302921E+03  0.15294330000E+03 0.  0.
<mgrwt>
<rscale>  0 0.48684942E+03</rscale>
<asrwt>0</asrwt>
<pdfrwt beam="1">  1        1 0.12176606E+00 0.66782880E+03</pdfrwt>
<pdfrwt beam="2">  1       -1 0.10886121E+00 0.66782880E+03</pdfrwt>
<totfact> 0.18272890E+01</totfact>
</mgrwt>
</event>
<event>
 4    1  0.1521315E-007  0.6804629E+03  0.7818608E-02  0.1009063E+00
          1   -1    0    0  501    0  0.00000000000E+00  0.00000000000E+00  0.33913146033E+03  0.33913146037E+03  0.50400000000E-02 0. -1.
         -1   -1    0    0    0  501 -0.00000000000E+00 -0.00000000000E+00 -0.63346909154E+03  0.63346909156E+03  0.50400000000E-02 0.  1.
    8880023    1    1    2    0    0 -0.17085413892E+03 -0.53357502218E+01 -0.13609432901E+03  0.69393910372E+03  0.65864270000E+03 0. -1.
    8880022    1    1    2    0    0  0.17085413892E+03  0.53357502218E+01 -0.15824330220E+03  0.27866144821E+03  0.15294330000E+03 0.  1.
<mgrwt>
<rscale>  0 0.51848739E+03</rscale>
<asrwt>0</asrwt>
<pdfrwt beam="1">  1        1 0.52174071E-01 0.68046294E+03</pdfrwt>
<pdfrwt beam="2">  1       -1 0.97456783E-01 0.68046294E+03</pdfrwt>
<totfact> 0.77219695E+01</totfact>
</mgrwt>
</event>
<event>
 4    1  0.1521315E-007  0.7440594E+03  0.7818608E-02  0.9848276E-01
          1   -1    0    0  501    0  0.00000000000E+00  0.00000000000E+00  0.22584824745E+04  0.22584824745E+04  0.50400000000E-02 0. -1.
         -1   -1    0    0    0  501 -0.00000000000E+00 -0.00000000000E+00 -0.61032180373E+03  0.61032180375E+03  0.50400000000E-02 0.  1.
    8880023    1    1    2    0    0  0.34546709665E+03  0.21604169770E+02  0.21299460447E+04  0.22561681264E+04  0.65864270000E+03 0. -1.
    8880022    1    1    2    0    0 -0.34546709665E+03 -0.21604169770E+02 -0.48178537392E+03  0.61263615186E+03  0.15294330000E+03 0.  0.
<mgrwt>
<rscale>  0 0.62834888E+03</rscale>
<asrwt>0</asrwt>
<pdfrwt beam="1">  1        1 0.34745885E+00 0.74405945E+03</pdfrwt>
<pdfrwt beam="2">  1       -1 0.93895660E-01 0.74405945E+03</pdfrwt>
<totfact> 0.23148299E+00</totfact>
</mgrwt>
</event>
<event>
 4    1  0.1521315E-007  0.9615460E+03  0.7818608E-02  0.9433693E-01
          1   -1    0    0  501    0  0.00000000000E+00  0.00000000000E+00  0.23864427562E+04  0.23864427562E+04  0.50400000000E-02 0. -1.
         -1   -1    0    0    0  501 -0.00000000000E+00 -0.00000000000E+00 -0.10910990326E+04  0.10910990326E+04  0.50400000000E-02 0.  1.
    8880023    1    1    2    0    0  0.10490871788E+03  0.69264320840E+03  0.21539933148E+04  0.23588679191E+04  0.65864270000E+03 0.  0.
    8880022    1    1    2    0    0 -0.10490871788E+03 -0.69264320840E+03 -0.85864959124E+03  0.11186738697E+04  0.15294330000E+03 0.  0.
<mgrwt>
<rscale>  0 0.89353999E+03</rscale>
<asrwt>0</asrwt>
<pdfrwt beam="1">  1        1 0.36714504E+00 0.96154597E+03</pdfrwt>
<pdfrwt beam="2">  1       -1 0.16786139E+00 0.96154597E+03</pdfrwt>
<totfact> 0.42420888E-01</totfact>
</mgrwt>
</event>
<event>
 4    1  0.1521315E-007  0.6673108E+03  0.7818608E-02  0.1017669E+00
         -1   -1    0    0    0  501 -0.00000000000E+00  0.00000000000E+00  0.30063625196E+03  0.30063625200E+03  0.50400000000E-02 0.  1.
          1   -1    0    0  501    0  0.00000000000E+00 -0.00000000000E+00 -0.99962278076E+03  0.99962278078E+03  0.50400000000E-02 0. -1.
    8880023    1    1    2    0    0 -0.82723279202E+02  0.68193677301E+02 -0.83523068697E+03  0.10690715716E+04  0.65864270000E+03 0. -1.
    8880022    1    1    2    0    0  0.82723279202E+02 -0.68193677301E+02  0.13624415817E+03  0.23118746115E+03  0.15294330000E+03 0.  0.
<mgrwt>
<rscale>  0 0.48537369E+03</rscale>
<asrwt>0</asrwt>
<pdfrwt beam="1">  1        1 0.15378812E+00 0.66731082E+03</pdfrwt>
<pdfrwt beam="2">  1       -1 0.46251731E-01 0.66731082E+03</pdfrwt>
<totfact> 0.72521294E+01</totfact>
</mgrwt>
</event>
<event>
 4    1  0.1521315E-007  0.7102507E+03  0.7818608E-02  0.9957071E-01
         -1   -1    0    0    0  501 -0.00000000000E+00  0.00000000000E+00  0.26329732445E+03  0.26329732450E+03  0.50400000000E-02 0.  1.
          1   -1    0    0  501    0  0.00000000000E+00 -0.00000000000E+00 -0.10575223540E+04  0.10575223541E+04  0.50400000000E-02 0. -1.
    8880023    1    1    2    0    0  0.22457278139E+03 -0.14217213133E+03 -0.70665273379E+03  0.10019052558E+04  0.65864270000E+03 0.  0.
    8880022    1    1    2    0    0 -0.22457278139E+03  0.14217213133E+03 -0.87572295796E+02  0.31891442280E+03  0.15294330000E+03 0.  0.
<mgrwt>
<rscale>  0 0.57573335E+03</rscale>
<asrwt>0</asrwt>
<pdfrwt beam="1">  1        1 0.16269574E+00 0.71025070E+03</pdfrwt>
<pdfrwt beam="2">  1       -1 0.40507281E-01 0.71025070E+03</pdfrwt>
<totfact> 0.83268435E+01</totfact>
</mgrwt>
</event>
<event>
 4    1  0.1521315E-007  0.8285522E+03  0.7818608E-02  0.9652156E-01
         -1   -1    0    0    0  501 -0.00000000000E+00  0.00000000000E+00  0.39954379784E+03  0.39954379787E+03  0.50400000000E-02 0.  1.
          1   -1    0    0  501    0  0.00000000000E+00 -0.00000000000E+00 -0.16571817585E+04  0.16571817585E+04  0.50400000000E-02 0. -1.
    8880023    1    1    2    0    0  0.49603003295E+03  0.81503427505E+02 -0.12868097546E+04  0.15304829803E+04  0.65864270000E+03 0.  0.
    8880022    1    1    2    0    0 -0.49603003295E+03 -0.81503427505E+02  0.29171793918E+02  0.52624257606E+03  0.15294330000E+03 0.  0.
<mgrwt>
<rscale>  0 0.73938279E+03</rscale>
<asrwt>0</asrwt>
<pdfrwt beam="1">  1        1 0.25495104E+00 0.82855224E+03</pdfrwt>
<pdfrwt beam="2">  1       -1 0.61468278E-01 0.82855224E+03</pdfrwt>
<totfact> 0.14064268E+01</totfact>
</mgrwt>
</event>
<event>
 4    1  0.1521315E-007  0.7267475E+03  0.7818608E-02  0.9900383E-01
          1   -1    0    0  501    0  0.00000000000E+00  0.00000000000E+00  0.44850176871E+03  0.44850176874E+03  0.50400000000E-02 0. -1.
         -1   -1    0    0    0  501 -0.00000000000E+00 -0.00000000000E+00 -0.15639992399E+04  0.15639992399E+04  0.50400000000E-02 0.  1.
    8880023    1    1    2    0    0 -0.97523958273E+02 -0.29127441869E+03  0.11434354136E+03  0.73568767907E+03  0.65864270000E+03 0.  0.
    8880022    1    1    2    0    0  0.97523958273E+02  0.29127441869E+03 -0.12298410125E+04  0.12768133296E+04  0.15294330000E+03 0.  0.
<mgrwt>
<rscale>  0 0.60242739E+03</rscale>
<asrwt>0</asrwt>
<pdfrwt beam="1">  1        1 0.69000273E-01 0.72674749E+03</pdfrwt>
<pdfrwt beam="2">  1       -1 0.24061527E+00 0.72674749E+03</pdfrwt>
<totfact> 0.43109120E+00</totfact>
</mgrwt>
</event>
<event>
 4    1  0.1521315E-007  0.7144921E+03  0.7818608E-02  0.9941683E-01
         -1   -1    0    0    0  501 -0.00000000000E+00  0.00000000000E+00  0.17085170005E+03  0.17085170012E+03  0.50400000000E-02 0.  1.
          1   -1    0    0  501    0  0.00000000000E+00 -0.00000000000E+00 -0.23644876441E+04  0.23644876441E+04  0.50400000000E-02 0. -1.
    8880023    1    1    2    0    0  0.26683656124E+03  0.74074533540E+02 -0.20798338587E+04  0.21991379841E+04  0.65864270000E+03 0. -1.
    8880022    1    1    2    0    0 -0.26683656124E+03 -0.74074533540E+02 -0.11380208536E+03  0.33620136017E+03  0.15294330000E+03 0.  0.
<mgrwt>
<rscale>  0 0.58282978E+03</rscale>
<asrwt>0</asrwt>
<pdfrwt beam="1">  1        1 0.36376731E+00 0.71449212E+03</pdfrwt>
<pdfrwt beam="2">  1       -1 0.26284879E-01 0.71449212E+03</pdfrwt>
<totfact> 0.22674848E+01</totfact>
</mgrwt>
</event>
<event>
 4    1  0.1521315E-007  0.7884964E+03  0.7818608E-02  0.9736244E-01
          1   -1    0    0  501    0  0.00000000000E+00  0.00000000000E+00  0.11977847224E+04  0.11977847224E+04  0.50400000000E-02 0. -1.
         -1   -1    0    0    0  501 -0.00000000000E+00 -0.00000000000E+00 -0.58388679096E+03  0.58388679098E+03  0.50400000000E-02 0.  1.
    8880023    1    1    2    0    0  0.16373607288E+03 -0.40138119211E+03  0.93339334533E+03  0.12218632110E+04  0.65864270000E+03 0.  0.
    8880022    1    1    2    0    0 -0.16373607288E+03  0.40138119211E+03 -0.31949541389E+03  0.55980830242E+03  0.15294330000E+03 0.  0.
<mgrwt>
<rscale>  0 0.68899216E+03</rscale>
<asrwt>0</asrwt>
<pdfrwt beam="1">  1        1 0.18427457E+00 0.78849640E+03</pdfrwt>
<pdfrwt beam="2">  1       -1 0.89828737E-01 0.78849640E+03</pdfrwt>
<totfact> 0.13373957E+01</totfact>
</mgrwt>
</event>
<event>
 4    1  0.1521315E-007  0.6997751E+03  0.7818608E-02  0.9998135E-01
         -1   -1    0    0    0  501 -0.00000000000E+00  0.00000000000E+00  0.17924702310E+03  0.17924702317E+03  0.50400000000E-02 0.  1.
          1   -1    0    0  501    0  0.00000000000E+00 -0.00000000000E+00 -0.18305445479E+04  0.18305445479E+04  0.50400000000E-02 0. -1.
    8880023    1    1    2    0    0  0.21503580100E+03  0.98156171114E+02 -0.15665974417E+04  0.17157834305E+04  0.65864270000E+03 0.  0.
    8880022    1    1    2    0    0 -0.21503580100E+03 -0.98156171114E+02 -0.84700083067E+02  0.29400814058E+03  0.15294330000E+03 0.  0.
<mgrwt>
<rscale>  0 0.55732075E+03</rscale>
<asrwt>0</asrwt>
<pdfrwt beam="1">  1        1 0.28162223E+00 0.69977513E+03</pdfrwt>
<pdfrwt beam="2">  1       -1 0.27576466E-01 0.69977513E+03</pdfrwt>
<totfact> 0.47660608E+01</totfact>
</mgrwt>
</event>
<event>
 4    1  0.1521315E-007  0.6842768E+03  0.7818608E-02  0.1007001E+00
          1   -1    0    0  501    0  0.00000000000E+00  0.00000000000E+00  0.26038919744E+03  0.26038919749E+03  0.50400000000E-02 0. -1.
         -1   -1    0    0    0  501 -0.00000000000E+00 -0.00000000000E+00 -0.16744489134E+04  0.16744489134E+04  0.50400000000E-02 0.  1.
    8880023    1    1    2    0    0 -0.56941169077E+02  0.17658488059E+03 -0.22292107876E+03  0.71967251609E+03  0.65864270000E+03 0.  0.
    8880022    1    1    2    0    0  0.56941169077E+02 -0.17658488059E+03 -0.11911386372E+04  0.12151655948E+04  0.15294330000E+03 0.  1.
<mgrwt>
<rscale>  0 0.52684155E+03</rscale>
<asrwt>0</asrwt>
<pdfrwt beam="1">  1        1 0.40059878E-01 0.68427679E+03</pdfrwt>
<pdfrwt beam="2">  1       -1 0.25760752E+00 0.68427679E+03</pdfrwt>
<totfact> 0.68695632E+00</totfact>
</mgrwt>
</event>
<event>
 4    1  0.1521315E-007  0.9079874E+03  0.7818608E-02  0.9513329E-01
          1   -1    0    0  501    0  0.00000000000E+00  0.00000000000E+00  0.24778113802E+04  0.24778113802E+04  0.50400000000E-02 0. -1.
         -1   -1    0    0    0  501 -0.00000000000E+00 -0.00000000000E+00 -0.67100106299E+03  0.67100106301E+03  0.50400000000E-02 0.  1.
    8880023    1    1    2    0    0  0.50775971390E+03  0.36443252002E+03  0.22101548210E+04  0.23893985703E+04  0.65864270000E+03 0. -1.
    8880022    1    1    2    0    0 -0.50775971390E+03 -0.36443252002E+03 -0.40334450375E+03  0.75941387295E+03  0.15294330000E+03 0.  0.
<mgrwt>
<rscale>  0 0.83308227E+03</rscale>
<asrwt>0</asrwt>
<pdfrwt beam="1">  1        1 0.38120175E+00 0.90798744E+03</pdfrwt>
<pdfrwt beam="2">  1       -1 0.10323093E+00 0.90798744E+03</pdfrwt>
<totfact> 0.12851941E+00</totfact>
</mgrwt>
</event>
<event>
 4    1  0.1521315E-007  0.7106287E+03  0.7818608E-02  0.9955674E-01
         -1   -1    0    0    0  501 -0.00000000000E+00  0.00000000000E+00  0.15173504752E+04  0.15173504752E+04  0.50400000000E-02 0.  1.
          1   -1    0    0  501    0  0.00000000000E+00 -0.00000000000E+00 -0.21231958626E+03  0.21231958632E+03  0.50400000000E-02 0. -1.
    8880023    1    1    2    0    0  0.20127937412E+03  0.17512707552E+03  0.12178557864E+04  0.14100233338E+04  0.65864270000E+03 0.  1.
    8880022    1    1    2    0    0 -0.20127937412E+03 -0.17512707552E+03  0.87175102474E+02  0.31964672770E+03  0.15294330000E+03 0.  0.
<mgrwt>
<rscale>  0 0.57637324E+03</rscale>
<asrwt>0</asrwt>
<pdfrwt beam="1">  1        1 0.32664551E-01 0.71062865E+03</pdfrwt>
<pdfrwt beam="2">  1       -1 0.23343854E+00 0.71062865E+03</pdfrwt>
<totfact> 0.12771647E+01</totfact>
</mgrwt>
</event>
<event>
 4    1  0.1521315E-007  0.6992189E+03  0.7818608E-02  0.1000046E+00
          1   -1    0    0  501    0  0.00000000000E+00  0.00000000000E+00  0.57018874786E+03  0.57018874789E+03  0.50400000000E-02 0. -1.
         -1   -1    0    0    0  501 -0.00000000000E+00 -0.00000000000E+00 -0.63185027521E+03  0.63185027523E+03  0.50400000000E-02 0.  1.
    8880023    1    1    2    0    0  0.19970067617E+03  0.12335516318E+03  0.28608289455E+03  0.75548030098E+03  0.65864270000E+03 0. -1.
    8880022    1    1    2    0    0 -0.19970067617E+03 -0.12335516318E+03 -0.34774442189E+03  0.44655872214E+03  0.15294330000E+03 0.  0.
<mgrwt>
<rscale>  0 0.55630201E+03</rscale>
<asrwt>0</asrwt>
<pdfrwt beam="1">  1        1 0.87721346E-01 0.69921889E+03</pdfrwt>
<pdfrwt beam="2">  1       -1 0.97207734E-01 0.69921889E+03</pdfrwt>
<totfact> 0.38514306E+01</totfact>
</mgrwt>
</event>
<event>
 4    1  0.1521315E-007  0.8635407E+03  0.7818608E-02  0.9587296E-01
         -1   -1    0    0    0  501 -0.00000000000E+00  0.00000000000E+00  0.51894140666E+03  0.51894140669E+03  0.50400000000E-02 0.  1.
          1   -1    0    0  501    0  0.00000000000E+00 -0.00000000000E+00 -0.12969891274E+04  0.12969891274E+04  0.50400000000E-02 0. -1.
    8880023    1    1    2    0    0  0.50226063100E+03 -0.24418564446E+03 -0.87439761386E+03  0.12289319606E+04  0.65864270000E+03 0. -1.
    8880022    1    1    2    0    0 -0.50226063100E+03  0.24418564446E+03  0.96349893077E+02  0.58699857353E+03  0.15294330000E+03 0.  0.
<mgrwt>
<rscale>  0 0.78142756E+03</rscale>
<asrwt>0</asrwt>
<pdfrwt beam="1">  1        1 0.19953679E+00 0.86354072E+03</pdfrwt>
<pdfrwt beam="2">  1       -1 0.79837140E-01 0.86354072E+03</pdfrwt>
<totfact> 0.14515257E+01</totfact>
</mgrwt>
</event>
<event>
 4    1  0.1521315E-007  0.7032663E+03  0.7818608E-02  0.9983912E-01
         -1   -1    0    0    0  501 -0.00000000000E+00  0.00000000000E+00  0.41113644210E+03  0.41113644213E+03  0.50400000000E-02 0.  1.
          1   -1    0    0  501    0  0.00000000000E+00 -0.00000000000E+00 -0.13131136058E+04  0.13131136058E+04  0.50400000000E-02 0. -1.
    8880023    1    1    2    0    0  0.24479048632E+03  0.29170590807E+02 -0.11463840810E+04  0.13449089088E+04  0.65864270000E+03 0. -1.
    8880022    1    1    2    0    0 -0.24479048632E+03 -0.29170590807E+02  0.24440691734E+03  0.37934113911E+03  0.15294330000E+03 0.  0.
<mgrwt>
<rscale>  0 0.56361336E+03</rscale>
<asrwt>0</asrwt>
<pdfrwt beam="1">  1        1 0.20201748E+00 0.70326632E+03</pdfrwt>
<pdfrwt beam="2">  1       -1 0.63251761E-01 0.70326632E+03</pdfrwt>
<totfact> 0.23289180E+01</totfact>
</mgrwt>
</event>
<event>
 4    1  0.1521315E-007  0.8331899E+03  0.7818608E-02  0.9643157E-01
         -1   -1    0    0    0  501 -0.00000000000E+00  0.00000000000E+00  0.32405471556E+03  0.32405471560E+03  0.50400000000E-02 0.  1.
          1   -1    0    0  501    0  0.00000000000E+00 -0.00000000000E+00 -0.22945473378E+04  0.22945473378E+04  0.50400000000E-02 0. -1.
    8880023    1    1    2    0    0  0.27726960715E+03  0.42838864036E+03 -0.19083069759E+04  0.20822682303E+04  0.65864270000E+03 0. -1.
    8880022    1    1    2    0    0 -0.27726960715E+03 -0.42838864036E+03 -0.62185646356E+02  0.53633382316E+03  0.15294330000E+03 0.  0.
<mgrwt>
<rscale>  0 0.74504423E+03</rscale>
<asrwt>0</asrwt>
<pdfrwt beam="1">  1        1 0.35300727E+00 0.83318994E+03</pdfrwt>
<pdfrwt beam="2">  1       -1 0.49854573E-01 0.83318994E+03</pdfrwt>
<totfact> 0.78672778E+00</totfact>
</mgrwt>
</event>
<event>
 4    1  0.1521315E-007  0.6658391E+03  0.7818608E-02  0.1018840E+00
         -1   -1    0    0    0  501 -0.00000000000E+00  0.00000000000E+00  0.45030933289E+03  0.45030933292E+03  0.50400000000E-02 0.  1.
          1   -1    0    0  501    0  0.00000000000E+00 -0.00000000000E+00 -0.49713526285E+03  0.49713526288E+03  0.50400000000E-02 0. -1.
    8880023    1    1    2    0    0 -0.70127537624E+02  0.67923778782E+02 -0.21536077645E+03  0.69980138722E+03  0.65864270000E+03 0. -1.
    8880022    1    1    2    0    0  0.70127537624E+02 -0.67923778782E+02  0.16853484649E+03  0.24764320858E+03  0.15294330000E+03 0.  0.
<mgrwt>
<rscale>  0 0.48107709E+03</rscale>
<asrwt>0</asrwt>
<pdfrwt beam="1">  1        1 0.76482348E-01 0.66583911E+03</pdfrwt>
<pdfrwt beam="2">  1       -1 0.69278359E-01 0.66583911E+03</pdfrwt>
<totfact> 0.96435552E+01</totfact>
</mgrwt>
</event>
<event>
 4    1  0.1521315E-007  0.7588923E+03  0.7818608E-02  0.9807984E-01
          1   -1    0    0  501    0  0.00000000000E+00  0.00000000000E+00  0.25463851630E+04  0.25463851630E+04  0.50400000000E-02 0. -1.
         -1   -1    0    0    0  501 -0.00000000000E+00 -0.00000000000E+00 -0.33377250449E+03  0.33377250453E+03  0.50400000000E-02 0.  1.
    8880023    1    1    2    0    0  0.17584547345E+03  0.33344513692E+03  0.23350835404E+04  0.24553070352E+04  0.65864270000E+03 0. -1.
    8880022    1    1    2    0    0 -0.17584547345E+03 -0.33344513692E+03 -0.12247088195E+03  0.42485063234E+03  0.15294330000E+03 0.  0.
<mgrwt>
<rscale>  0 0.64935846E+03</rscale>
<asrwt>0</asrwt>
<pdfrwt beam="1">  1        1 0.39175155E+00 0.75889228E+03</pdfrwt>
<pdfrwt beam="2">  1       -1 0.51349618E-01 0.75889228E+03</pdfrwt>
<totfact> 0.50749047E+00</totfact>
</mgrwt>
</event>
<event>
 4    1  0.1521315E-007  0.7008624E+03  0.7818608E-02  0.9993642E-01
         -1   -1    0    0    0  501 -0.00000000000E+00  0.00000000000E+00  0.78895100191E+03  0.78895100193E+03  0.50400000000E-02 0.  1.
          1   -1    0    0  501    0  0.00000000000E+00 -0.00000000000E+00 -0.55887488724E+03  0.55887488727E+03  0.50400000000E-02 0. -1.
    8880023    1    1    2    0    0 -0.35659153675E+02 -0.23690998489E+03 -0.28734137082E+03  0.75747817515E+03  0.65864270000E+03 0. -1.
    8880022    1    1    2    0    0  0.35659153675E+02  0.23690998489E+03  0.51741748548E+03  0.59034771405E+03  0.15294330000E+03 0.  1.
<mgrwt>
<rscale>  0 0.55929893E+03</rscale>
<asrwt>0</asrwt>
<pdfrwt beam="1">  1        1 0.85980752E-01 0.70086241E+03</pdfrwt>
<pdfrwt beam="2">  1       -1 0.12137708E+00 0.70086241E+03</pdfrwt>
<totfact> 0.23530391E+01</totfact>
</mgrwt>
</event>
<event>
 4    1  0.1569652E-007  0.7581089E+03  0.7818608E-02  0.9810028E-01
          1   -1    0    0  501    0  0.00000000000E+00  0.00000000000E+00  0.13757894374E+04  0.13757894374E+04  0.50400000000E-02 0. -1.
         -1   -1    0    0    0  501 -0.00000000000E+00 -0.00000000000E+00 -0.13157542081E+04  0.13157542081E+04  0.50400000000E-02 0.  1.
    8880023    1    1    2    0    0 -0.14841511470E+03  0.34480689873E+03  0.12347222776E+04  0.14488851413E+04  0.65864270000E+03 0. -1.
    8880022    1    1    2    0    0  0.14841511470E+03 -0.34480689873E+03 -0.11746870483E+04  0.12426585042E+04  0.15294330000E+03 0.  0.
<mgrwt>
<rscale>  0 0.64827137E+03</rscale>
<asrwt>0</asrwt>
<pdfrwt beam="1">  1        1 0.21165991E+00 0.75810886E+03</pdfrwt>
<pdfrwt beam="2">  1       -1 0.20242373E+00 0.75810886E+03</pdfrwt>
<totfact> 0.12136304E+00</totfact>
</mgrwt>
</event>
<event>
 4    1  0.1521315E-007  0.6995817E+03  0.7818608E-02  0.9998941E-01
          1   -1    0    0  501    0  0.00000000000E+00  0.00000000000E+00  0.16987099373E+04  0.16987099373E+04  0.50400000000E-02 0. -1.
         -1   -1    0    0    0  501 -0.00000000000E+00 -0.00000000000E+00 -0.48400083801E+03  0.48400083804E+03  0.50400000000E-02 0.  1.
    8880023    1    1    2    0    0 -0.23410537537E+03  0.28266795046E+02  0.15763963965E+04  0.17246565292E+04  0.65864270000E+03 0. -1.
    8880022    1    1    2    0    0  0.23410537537E+03 -0.28266795046E+02 -0.36168729719E+03  0.45805424618E+03  0.15294330000E+03 0.  0.
<mgrwt>
<rscale>  0 0.55696699E+03</rscale>
<asrwt>0</asrwt>
<pdfrwt beam="1">  1        1 0.26133999E+00 0.69958169E+03</pdfrwt>
<pdfrwt beam="2">  1       -1 0.74461667E-01 0.69958169E+03</pdfrwt>
<totfact> 0.91045873E+00</totfact>
</mgrwt>
</event>
<event>
 4    1  0.1521315E-007  0.7865190E+03  0.7818608E-02  0.9740741E-01
         -1   -1    0    0    0  501 -0.00000000000E+00  0.00000000000E+00  0.62040394958E+03  0.62040394960E+03  0.50400000000E-02 0.  1.
          1   -1    0    0  501    0  0.00000000000E+00 -0.00000000000E+00 -0.83239410583E+03  0.83239410584E+03  0.50400000000E-02 0. -1.
    8880023    1    1    2    0    0  0.42887262715E+03 -0.29499076618E+02 -0.48214386177E+03  0.92253717299E+03  0.65864270000E+03 0. -1.
    8880022    1    1    2    0    0 -0.42887262715E+03  0.29499076618E+02  0.27015370552E+03  0.53026088245E+03  0.15294330000E+03 0.  0.
<mgrwt>
<rscale>  0 0.68642063E+03</rscale>
<asrwt>0</asrwt>
<pdfrwt beam="1">  1        1 0.12806063E+00 0.78651900E+03</pdfrwt>
<pdfrwt beam="2">  1       -1 0.95446762E-01 0.78651900E+03</pdfrwt>
<totfact> 0.22469423E+01</totfact>
</mgrwt>
</event>
<event>
 4    1  0.1521315E-007  0.7117152E+03  0.7818608E-02  0.9951686E-01
         -1   -1    0    0    0  501 -0.00000000000E+00  0.00000000000E+00  0.14613691195E+04  0.14613691195E+04  0.50400000000E-02 0.  1.
          1   -1    0    0  501    0  0.00000000000E+00 -0.00000000000E+00 -0.41751038817E+03  0.41751038820E+03  0.50400000000E-02 0. -1.
    8880023    1    1    2    0    0  0.24146531852E+03  0.12009488370E+03 -0.77060485890E+02  0.71587485351E+03  0.65864270000E+03 0. -1.
    8880022    1    1    2    0    0 -0.24146531852E+03 -0.12009488370E+03  0.11209192172E+04  0.11630046542E+04  0.15294330000E+03 0.  0.
<mgrwt>
<rscale>  0 0.57820435E+03</rscale>
<asrwt>0</asrwt>
<pdfrwt beam="1">  1        1 0.64232367E-01 0.71171517E+03</pdfrwt>
<pdfrwt beam="2">  1       -1 0.22482602E+00 0.71171517E+03</pdfrwt>
<totfact> 0.60307523E+00</totfact>
</mgrwt>
</event>
<event>
 4    1  0.1521315E-007  0.7106291E+03  0.7818608E-02  0.9955672E-01
          1   -1    0    0  501    0  0.00000000000E+00  0.00000000000E+00  0.10741548534E+04  0.10741548534E+04  0.50400000000E-02 0. -1.
         -1   -1    0    0    0  501 -0.00000000000E+00 -0.00000000000E+00 -0.48242078060E+03  0.48242078062E+03  0.50400000000E-02 0.  1.
    8880023    1    1    2    0    0 -0.52353034137E+02 -0.26161540475E+03  0.88270534820E+03  0.11332088943E+04  0.65864270000E+03 0. -1.
    8880022    1    1    2    0    0  0.52353034137E+02  0.26161540475E+03 -0.29097127538E+03  0.42336673972E+03  0.15294330000E+03 0.  0.
<mgrwt>
<rscale>  0 0.57637394E+03</rscale>
<asrwt>0</asrwt>
<pdfrwt beam="1">  1        1 0.16525459E+00 0.71062906E+03</pdfrwt>
<pdfrwt beam="2">  1       -1 0.74218583E-01 0.71062906E+03</pdfrwt>
<totfact> 0.25052598E+01</totfact>
</mgrwt>
</event>
<event>
 4    1  0.1521315E-007  0.7715620E+03  0.7818608E-02  0.9776045E-01
         -1   -1    0    0    0  501 -0.00000000000E+00  0.00000000000E+00  0.12069955809E+03  0.12069955819E+03  0.50400000000E-02 0.  1.
          1   -1    0    0  501    0  0.00000000000E+00 -0.00000000000E+00 -0.31502100170E+04  0.31502100170E+04  0.50400000000E-02 0. -1.
    8880023    1    1    2    0    0  0.24338394492E+03  0.31978413929E+03 -0.15694748973E+04  0.17488737233E+04  0.65864270000E+03 0.  1.
    8880022    1    1    2    0    0 -0.24338394492E+03 -0.31978413929E+03 -0.14600355616E+04  0.15220358519E+04  0.15294330000E+03 0.  0.
<mgrwt>
<rscale>  0 0.66664108E+03</rscale>
<asrwt>0</asrwt>
<pdfrwt beam="1">  1        1 0.48464763E+00 0.77156195E+03</pdfrwt>
<pdfrwt beam="2">  1       -1 0.18569165E-01 0.77156195E+03</pdfrwt>
<totfact> 0.11374102E+01</totfact>
</mgrwt>
</event>
<event>
 4    1  0.1521315E-007  0.8761952E+03  0.7818608E-02  0.9565380E-01
          1   -1    0    0  501    0  0.00000000000E+00  0.00000000000E+00  0.52039632975E+03  0.52039632977E+03  0.50400000000E-02 0. -1.
         -1   -1    0    0    0  501 -0.00000000000E+00 -0.00000000000E+00 -0.10639904573E+04  0.10639904573E+04  0.50400000000E-02 0.  1.
    8880023    1    1    2    0    0  0.15350969381E+03 -0.55708408111E+03 -0.21463446414E+03  0.90210091396E+03  0.65864270000E+03 0.  0.
    8880022    1    1    2    0    0 -0.15350969381E+03  0.55708408111E+03 -0.32895966344E+03  0.68228587315E+03  0.15294330000E+03 0.  0.
<mgrwt>
<rscale>  0 0.79630552E+03</rscale>
<asrwt>0</asrwt>
<pdfrwt beam="1">  1        1 0.80060974E-01 0.87619524E+03</pdfrwt>
<pdfrwt beam="2">  1       -1 0.16369084E+00 0.87619524E+03</pdfrwt>
<totfact> 0.11664868E+01</totfact>
</mgrwt>
</event>
<event>
 4    1  0.1521315E-007  0.8959363E+03  0.7818608E-02  0.9532587E-01
          1   -1    0    0  501    0  0.00000000000E+00  0.00000000000E+00  0.26027130009E+04  0.26027130009E+04  0.50400000000E-02 0. -1.
         -1   -1    0    0    0  501 -0.00000000000E+00 -0.00000000000E+00 -0.32783638169E+03  0.32783638173E+03  0.50400000000E-02 0.  1.
    8880023    1    1    2    0    0 -0.60718471259E+03  0.14778907556E+02  0.20955746586E+04  0.22790645115E+04  0.65864270000E+03 0.  0.
    8880022    1    1    2    0    0  0.60718471259E+03 -0.14778907556E+02  0.17930196063E+03  0.65148487120E+03  0.15294330000E+03 0.  0.
<mgrwt>
<rscale>  0 0.81923376E+03</rscale>
<asrwt>0</asrwt>
<pdfrwt beam="1">  1        1 0.40041739E+00 0.89593632E+03</pdfrwt>
<pdfrwt beam="2">  1       -1 0.50436365E-01 0.89593632E+03</pdfrwt>
<totfact> 0.46960707E+00</totfact>
</mgrwt>
</event>
<event>
 4    1  0.1521315E-007  0.6955144E+03  0.7818608E-02  0.1001634E+00
          1   -1    0    0  501    0  0.00000000000E+00  0.00000000000E+00  0.29259231956E+04  0.29259231956E+04  0.50400000000E-02 0. -1.
         -1   -1    0    0    0  501 -0.00000000000E+00 -0.00000000000E+00 -0.13403490867E+03  0.13403490877E+03  0.50400000000E-02 0.  1.
    8880023    1    1    2    0    0 -0.20827317181E+03 -0.80946783722E+02  0.26768918819E+04  0.27657712214E+04  0.65864270000E+03 0. -1.
    8880022    1    1    2    0    0  0.20827317181E+03  0.80946783722E+02  0.11499640504E+03  0.29418688291E+03  0.15294330000E+03 0.  0.
<mgrwt>
<rscale>  0 0.54939374E+03</rscale>
<asrwt>0</asrwt>
<pdfrwt beam="1">  1        1 0.45014198E+00 0.69551442E+03</pdfrwt>
<pdfrwt beam="2">  1       -1 0.20620757E-01 0.69551442E+03</pdfrwt>
<totfact> 0.14036871E+01</totfact>
</mgrwt>
</event>
<event>
 4    1  0.1521315E-007  0.7015555E+03  0.7818608E-02  0.9990808E-01
         -1   -1    0    0    0  501 -0.00000000000E+00  0.00000000000E+00  0.13069421102E+04  0.13069421102E+04  0.50400000000E-02 0.  1.
          1   -1    0    0  501    0  0.00000000000E+00 -0.00000000000E+00 -0.10374649155E+04  0.10374649156E+04  0.50400000000E-02 0. -1.
    8880023    1    1    2    0    0 -0.22964383220E+03 -0.75057823286E+02 -0.89963047614E+03  0.11408396760E+04  0.65864270000E+03 0. -1.
    8880022    1    1    2    0    0  0.22964383220E+03  0.75057823286E+02  0.11691076708E+04  0.12035673497E+04  0.15294330000E+03 0.  0.
<mgrwt>
<rscale>  0 0.56055113E+03</rscale>
<asrwt>0</asrwt>
<pdfrwt beam="1">  1        1 0.15960999E+00 0.70155554E+03</pdfrwt>
<pdfrwt beam="2">  1       -1 0.20106802E+00 0.70155554E+03</pdfrwt>
<totfact> 0.22043679E+00</totfact>
</mgrwt>
</event>
<event>
 4    1  0.1521315E-007  0.9183636E+03  0.7818608E-02  0.9497173E-01
          1   -1    0    0  501    0  0.00000000000E+00  0.00000000000E+00  0.15667515465E+04  0.15667515465E+04  0.50400000000E-02 0. -1.
         -1   -1    0    0    0  501 -0.00000000000E+00 -0.00000000000E+00 -0.42170965758E+03  0.42170965761E+03  0.50400000000E-02 0.  1.
    8880023    1    1    2    0    0 -0.43395739340E+03 -0.47038548029E+03  0.90132229973E+03  0.12867686714E+04  0.65864270000E+03 0.  1.
    8880022    1    1    2    0    0  0.43395739340E+03  0.47038548029E+03  0.24371958918E+03  0.70169253275E+03  0.15294330000E+03 0. -1.
<mgrwt>
<rscale>  0 0.84492590E+03</rscale>
<asrwt>0</asrwt>
<pdfrwt beam="1">  1        1 0.24103870E+00 0.91836361E+03</pdfrwt>
<pdfrwt beam="2">  1       -1 0.64878407E-01 0.91836361E+03</pdfrwt>
<totfact> 0.14387341E+01</totfact>
</mgrwt>
</event>
<event>
 4    1  0.1521315E-007  0.6963328E+03  0.7818608E-02  0.1001277E+00
         -1   -1    0    0    0  501 -0.00000000000E+00  0.00000000000E+00  0.10399588709E+04  0.10399588709E+04  0.50400000000E-02 0.  1.
          1   -1    0    0  501    0  0.00000000000E+00 -0.00000000000E+00 -0.95245813280E+03  0.95245813281E+03  0.50400000000E-02 0. -1.
    8880023    1    1    2    0    0  0.32665667696E+02  0.22361155557E+03 -0.80193520964E+03  0.10620637741E+04  0.65864270000E+03 0.  0.
    8880022    1    1    2    0    0 -0.32665667696E+02 -0.22361155557E+03  0.88943594776E+03  0.93035322959E+03  0.15294330000E+03 0.  0.
<mgrwt>
<rscale>  0 0.55093914E+03</rscale>
<asrwt>0</asrwt>
<pdfrwt beam="1">  1        1 0.14653202E+00 0.69633281E+03</pdfrwt>
<pdfrwt beam="2">  1       -1 0.15999367E+00 0.69633281E+03</pdfrwt>
<totfact> 0.50409158E+00</totfact>
</mgrwt>
</event>
<event>
 4    1  0.1521315E-007  0.7942028E+03  0.7818608E-02  0.9723474E-01
          1   -1    0    0  501    0  0.00000000000E+00  0.00000000000E+00  0.17668010469E+04  0.17668010469E+04  0.50400000000E-02 0. -1.
         -1   -1    0    0    0  501 -0.00000000000E+00 -0.00000000000E+00 -0.45960965331E+03  0.45960965333E+03  0.50400000000E-02 0.  1.
    8880023    1    1    2    0    0 -0.26191007369E+03 -0.35826111492E+03  0.15169457554E+04  0.17122740856E+04  0.65864270000E+03 0.  0.
    8880022    1    1    2    0    0  0.26191007369E+03  0.35826111492E+03 -0.20975436182E+03  0.51413661461E+03  0.15294330000E+03 0.  0.
<mgrwt>
<rscale>  0 0.69636211E+03</rscale>
<asrwt>0</asrwt>
<pdfrwt beam="1">  1        1 0.27181554E+00 0.79420282E+03</pdfrwt>
<pdfrwt beam="2">  1       -1 0.70709178E-01 0.79420282E+03</pdfrwt>
<totfact> 0.89840976E+00</totfact>
</mgrwt>
</event>
<event>
 4    1  0.1521315E-007  0.9956600E+03  0.7818608E-02  0.9387258E-01
         -1   -1    0    0    0  501 -0.00000000000E+00  0.00000000000E+00  0.63076932988E+03  0.63076932990E+03  0.50400000000E-02 0.  1.
          1   -1    0    0  501    0  0.00000000000E+00 -0.00000000000E+00 -0.16705537968E+04  0.16705537968E+04  0.50400000000E-02 0. -1.
    8880023    1    1    2    0    0 -0.42047441649E+03 -0.61703309629E+03 -0.11611083559E+04  0.15295461409E+04  0.65864270000E+03 0.  0.
    8880022    1    1    2    0    0  0.42047441649E+03  0.61703309629E+03  0.12132388891E+03  0.77177698584E+03  0.15294330000E+03 0.  0.
<mgrwt>
<rscale>  0 0.93131768E+03</rscale>
<asrwt>0</asrwt>
<pdfrwt beam="1">  1        1 0.25700827E+00 0.99565997E+03</pdfrwt>
<pdfrwt beam="2">  1       -1 0.97041436E-01 0.99565997E+03</pdfrwt>
<totfact> 0.51347204E+00</totfact>
</mgrwt>
</event>
<event>
 4    1  0.1521315E-007  0.9220872E+03  0.7818608E-02  0.9491466E-01
          1   -1    0    0  501    0  0.00000000000E+00  0.00000000000E+00  0.17346494748E+04  0.17346494748E+04  0.50400000000E-02 0. -1.
         -1   -1    0    0    0  501 -0.00000000000E+00 -0.00000000000E+00 -0.37838779456E+03  0.37838779459E+03  0.50400000000E-02 0.  1.
    8880023    1    1    2    0    0 -0.39768754149E+03 -0.50821171384E+03  0.99989768597E+03  0.13601617975E+04  0.65864270000E+03 0. -1.
    8880022    1    1    2    0    0  0.39768754149E+03  0.50821171384E+03  0.35636399427E+03  0.75287547188E+03  0.15294330000E+03 0.  0.
<mgrwt>
<rscale>  0 0.84915919E+03</rscale>
<asrwt>0</asrwt>
<pdfrwt beam="1">  1        1 0.26686915E+00 0.92208716E+03</pdfrwt>
<pdfrwt beam="2">  1       -1 0.58213507E-01 0.92208716E+03</pdfrwt>
<totfact> 0.13722705E+01</totfact>
</mgrwt>
</event>
<event>
 4    1  0.1521315E-007  0.7467773E+03  0.7818608E-02  0.9840628E-01
          1   -1    0    0  501    0  0.00000000000E+00  0.00000000000E+00  0.71635746353E+03  0.71635746355E+03  0.50400000000E-02 0. -1.
         -1   -1    0    0    0  501 -0.00000000000E+00 -0.00000000000E+00 -0.93850567126E+03  0.93850567128E+03  0.50400000000E-02 0.  1.
    8880023    1    1    2    0    0  0.33051873938E+03 -0.12092754003E+03  0.45648624518E+03  0.87524625410E+03  0.65864270000E+03 0.  0.
    8880022    1    1    2    0    0 -0.33051873938E+03  0.12092754003E+03 -0.67863445291E+03  0.77961688072E+03  0.15294330000E+03 0.  0.
<mgrwt>
<rscale>  0 0.63227076E+03</rscale>
<asrwt>0</asrwt>
<pdfrwt beam="1">  1        1 0.11020884E+00 0.74677728E+03</pdfrwt>
<pdfrwt beam="2">  1       -1 0.14438549E+00 0.74677728E+03</pdfrwt>
<totfact> 0.10476580E+01</totfact>
</mgrwt>
</event>
<event>
 4    1  0.1521315E-007  0.8649509E+03  0.7818608E-02  0.9584817E-01
         -1   -1    0    0    0  501 -0.00000000000E+00  0.00000000000E+00  0.63107380797E+03  0.63107380799E+03  0.50400000000E-02 0.  1.
          1   -1    0    0  501    0  0.00000000000E+00 -0.00000000000E+00 -0.86133952147E+03  0.86133952149E+03  0.50400000000E-02 0. -1.
    8880023    1    1    2    0    0 -0.54037861385E+03  0.14940128654E+03 -0.28002174089E+03  0.90914914748E+03  0.65864270000E+03 0.  0.
    8880022    1    1    2    0    0  0.54037861385E+03 -0.14940128654E+03  0.49756027386E+02  0.58326418200E+03  0.15294330000E+03 0.  0.
<mgrwt>
<rscale>  0 0.78309312E+03</rscale>
<asrwt>0</asrwt>
<pdfrwt beam="1">  1        1 0.13251377E+00 0.86495086E+03</pdfrwt>
<pdfrwt beam="2">  1       -1 0.97088279E-01 0.86495086E+03</pdfrwt>
<totfact> 0.20276018E+01</totfact>
</mgrwt>
</event>
<event>
 4    1  0.1521315E-007  0.7301010E+03  0.7818608E-02  0.9889781E-01
         -1   -1    0    0    0  501 -0.00000000000E+00  0.00000000000E+00  0.91099674569E+03  0.91099674571E+03  0.50400000000E-02 0.  1.
          1   -1    0    0  501    0  0.00000000000E+00 -0.00000000000E+00 -0.10113722913E+04  0.10113722913E+04  0.50400000000E-02 0. -1.
    8880023    1    1    2    0    0  0.17620620847E+03 -0.26112959007E+03 -0.83462131472E+03  0.11088914446E+04  0.65864270000E+03 0. -1.
    8880022    1    1    2    0    0 -0.17620620847E+03  0.26112959007E+03  0.73424576916E+03  0.81347759235E+03  0.15294330000E+03 0.  0.
<mgrwt>
<rscale>  0 0.60759101E+03</rscale>
<asrwt>0</asrwt>
<pdfrwt beam="1">  1        1 0.15559574E+00 0.73010102E+03</pdfrwt>
<pdfrwt beam="2">  1       -1 0.14015334E+00 0.73010102E+03</pdfrwt>
<totfact> 0.64329811E+00</totfact>
</mgrwt>
</event>
<event>
 4    1  0.1521315E-007  0.6898289E+03  0.7818608E-02  0.1004234E+00
          1   -1    0    0  501    0  0.00000000000E+00  0.00000000000E+00  0.58736684057E+03  0.58736684059E+03  0.50400000000E-02 0. -1.
         -1   -1    0    0    0  501 -0.00000000000E+00 -0.00000000000E+00 -0.38956950627E+03  0.38956950630E+03  0.50400000000E-02 0.  1.
    8880023    1    1    2    0    0  0.20505743375E+03  0.22639517313E+01  0.20922050852E+03  0.72085858812E+03  0.65864270000E+03 0. -1.
    8880022    1    1    2    0    0 -0.20505743375E+03 -0.22639517313E+01 -0.11423174227E+02  0.25607775877E+03  0.15294330000E+03 0.  1.
<mgrwt>
<rscale>  0 0.53832043E+03</rscale>
<asrwt>0</asrwt>
<pdfrwt beam="1">  1        1 0.90364129E-01 0.68982888E+03</pdfrwt>
<pdfrwt beam="2">  1       -1 0.59933770E-01 0.68982888E+03</pdfrwt>
<totfact> 0.10191707E+02</totfact>
</mgrwt>
</event>
<event>
 4    1  0.1521315E-007  0.6941698E+03  0.7818608E-02  0.1002230E+00
          1   -1    0    0  501    0  0.00000000000E+00  0.00000000000E+00  0.48954524625E+04  0.48954524625E+04  0.50400000000E-02 0. -1.
         -1   -1    0    0    0  501 -0.00000000000E+00 -0.00000000000E+00 -0.47463953930E+02  0.47463954198E+02  0.50400000000E-02 0.  1.
    8880023    1    1    2    0    0 -0.20011385044E+03 -0.89531641428E+02  0.33319758377E+04  0.34035179825E+04  0.65864270000E+03 0. -1.
    8880022    1    1    2    0    0  0.20011385044E+03  0.89531641428E+02  0.15160126709E+04  0.15393984342E+04  0.15294330000E+03 0.  1.
<mgrwt>
<rscale>  0 0.54682949E+03</rscale>
<asrwt>0</asrwt>
<pdfrwt beam="1">  1        1 0.75314660E+00 0.69416977E+03</pdfrwt>
<pdfrwt beam="2">  1       -1 0.73021462E-02 0.69416977E+03</pdfrwt>
<totfact> 0.14069777E+00</totfact>
</mgrwt>
</event>
<event>
 4    1  0.1521315E-007  0.6690935E+03  0.7818608E-02  0.1016321E+00
         -1   -1    0    0    0  501 -0.00000000000E+00  0.00000000000E+00  0.69275959073E+03  0.69275959074E+03  0.50400000000E-02 0.  1.
          1   -1    0    0  501    0  0.00000000000E+00 -0.00000000000E+00 -0.31573112542E+04  0.31573112542E+04  0.50400000000E-02 0. -1.
    8880023    1    1    2    0    0  0.30239911127E+02  0.11384835754E+03 -0.31075253002E+04  0.31787418263E+04  0.65864270000E+03 0. -1.
    8880022    1    1    2    0    0 -0.30239911127E+02 -0.11384835754E+03  0.64297363672E+03  0.67132901864E+03  0.15294330000E+03 0.  0.
<mgrwt>
<rscale>  0 0.49037855E+03</rscale>
<asrwt>0</asrwt>
<pdfrwt beam="1">  1        1 0.48574018E+00 0.66909350E+03</pdfrwt>
<pdfrwt beam="2">  1       -1 0.10657840E+00 0.66909350E+03</pdfrwt>
<totfact> 0.41788882E-01</totfact>
</mgrwt>
</event>
<event>
 4    1  0.1521315E-007  0.8950503E+03  0.7818608E-02  0.9534025E-01
         -1   -1    0    0    0  501 -0.00000000000E+00  0.00000000000E+00  0.64549952625E+03  0.64549952627E+03  0.50400000000E-02 0.  1.
          1   -1    0    0  501    0  0.00000000000E+00 -0.00000000000E+00 -0.97306802707E+03  0.97306802708E+03  0.50400000000E-02 0. -1.
    8880023    1    1    2    0    0 -0.56136604677E+03  0.22841409988E+03 -0.41650658932E+03  0.98721465989E+03  0.65864270000E+03 0. -1.
    8880022    1    1    2    0    0  0.56136604677E+03 -0.22841409988E+03  0.88938088497E+02  0.63135289346E+03  0.15294330000E+03 0. -1.
<mgrwt>
<rscale>  0 0.81821139E+03</rscale>
<asrwt>0</asrwt>
<pdfrwt beam="1">  1        1 0.14970277E+00 0.89505030E+03</pdfrwt>
<pdfrwt beam="2">  1       -1 0.99307619E-01 0.89505030E+03</pdfrwt>
<totfact> 0.15586909E+01</totfact>
</mgrwt>
</event>
<event>
 4    1  0.1521315E-007  0.9062342E+03  0.7818608E-02  0.9516097E-01
         -1   -1    0    0    0  501 -0.00000000000E+00  0.00000000000E+00  0.56808022182E+03  0.56808022185E+03  0.50400000000E-02 0.  1.
          1   -1    0    0  501    0  0.00000000000E+00 -0.00000000000E+00 -0.27423177679E+04  0.27423177679E+04  0.50400000000E-02 0. -1.
    8880023    1    1    2    0    0 -0.62082115067E+03  0.45069705933E+02 -0.24502943397E+04  0.26125088970E+04  0.65864270000E+03 0.  0.
    8880022    1    1    2    0    0  0.62082115067E+03 -0.45069705933E+02  0.27605679359E+03  0.69788909278E+03  0.15294330000E+03 0.  0.
<mgrwt>
<rscale>  0 0.83107393E+03</rscale>
<asrwt>0</asrwt>
<pdfrwt beam="1">  1        1 0.42189503E+00 0.90623418E+03</pdfrwt>
<pdfrwt beam="2">  1       -1 0.87396959E-01 0.90623418E+03</pdfrwt>
<totfact> 0.12266269E+00</totfact>
</mgrwt>
</event>
