<event>
 4    1  0.3032637E-007  0.8071011E+03  0.7818608E-02  0.9695647E-01
         -2   -1    0    0    0  501 -0.00000000000E+00  0.00000000000E+00  0.98501817467E+03  0.98501817467E+03  0.25500000000E-02 0.  1.
          2   -1    0    0  501    0  0.00000000000E+00 -0.00000000000E+00 -0.70217653905E+03  0.70217653906E+03  0.25500000000E-02 0. -1.
    8880023    1    1    2    0    0 -0.43748425165E+02  0.46442225494E+03  0.68029233727E+03  0.10555613796E+04  0.65864270000E+03 0.  1.
    8880022    1    1    2    0    0  0.43748425165E+02 -0.46442225494E+03 -0.39745070165E+03  0.63163333418E+03  0.15294330000E+03 0.  0.
<mgrwt>
<rscale>  0 0.71276545E+03</rscale>
<asrwt>0</asrwt>
<pdfrwt beam="1">  1        2 0.10802716E+00 0.80710109E+03</pdfrwt>
<pdfrwt beam="2">  1       -2 0.15154126E+00 0.80710109E+03</pdfrwt>
<totfact> 0.12013357E+01</totfact>
</mgrwt>
</event>
<event>
 4    1  0.3032637E-007  0.7146011E+03  0.7818608E-02  0.9941296E-01
         -2   -1    0    0    0  501 -0.00000000000E+00  0.00000000000E+00  0.45086316515E+03  0.45086316516E+03  0.25500000000E-02 0.  1.
          2   -1    0    0  501    0  0.00000000000E+00 -0.00000000000E+00 -0.16201703600E+04  0.16201703600E+04  0.25500000000E-02 0. -1.
    8880023    1    1    2    0    0  0.25222256362E+03  0.11501421119E+03  0.13638992671E+03  0.72750045275E+03  0.65864270000E+03 0.  1.
    8880022    1    1    2    0    0 -0.25222256362E+03 -0.11501421119E+03 -0.13056971216E+04  0.13435330725E+04  0.15294330000E+03 0.  0.
<mgrwt>
<rscale>  0 0.58300972E+03</rscale>
<asrwt>0</asrwt>
<pdfrwt beam="1">  1        2 0.24925698E+00 0.71460108E+03</pdfrwt>
<pdfrwt beam="2">  1       -2 0.69363565E-01 0.71460108E+03</pdfrwt>
<totfact> 0.21239467E+01</totfact>
</mgrwt>
</event>
<event>
 4    1  0.3032637E-007  0.9919296E+03  0.7818608E-02  0.9392193E-01
          2   -1    0    0  501    0  0.00000000000E+00  0.00000000000E+00  0.15626011693E+04  0.15626011693E+04  0.25500000000E-02 0. -1.
         -2   -1    0    0    0  501 -0.00000000000E+00 -0.00000000000E+00 -0.53853503783E+03  0.53853503783E+03  0.25500000000E-02 0.  1.
    8880023    1    1    2    0    0 -0.82283808500E+02  0.73711843854E+03  0.26018089019E+03  0.10254845291E+04  0.65864270000E+03 0.  0.
    8880022    1    1    2    0    0  0.82283808500E+02 -0.73711843854E+03  0.76388524131E+03  0.10756516780E+04  0.15294330000E+03 0.  0.
<mgrwt>
<rscale>  0 0.92720953E+03</rscale>
<asrwt>0</asrwt>
<pdfrwt beam="1">  1        2 0.24040017E+00 0.99192965E+03</pdfrwt>
<pdfrwt beam="2">  1       -2 0.82851547E-01 0.99192965E+03</pdfrwt>
<totfact> 0.14918622E+01</totfact>
</mgrwt>
</event>
<event>
 4    1  0.3032637E-007  0.8354708E+03  0.7818608E-02  0.9638780E-01
         -2   -1    0    0    0  501 -0.00000000000E+00  0.00000000000E+00  0.41714607404E+03  0.41714607404E+03  0.25500000000E-02 0.  1.
          2   -1    0    0  501    0  0.00000000000E+00 -0.00000000000E+00 -0.19583818696E+04  0.19583818696E+04  0.25500000000E-02 0. -1.
    8880023    1    1    2    0    0  0.18292764635E+03 -0.48035270334E+03 -0.10451438535E+03  0.84198260458E+03  0.65864270000E+03 0.  1.
    8880022    1    1    2    0    0 -0.18292764635E+03  0.48035270334E+03 -0.14367214102E+04  0.15335453391E+04  0.15294330000E+03 0. -1.
<mgrwt>
<rscale>  0 0.74781767E+03</rscale>
<asrwt>0</asrwt>
<pdfrwt beam="1">  1        2 0.30128951E+00 0.83547080E+03</pdfrwt>
<pdfrwt beam="2">  1       -2 0.64176320E-01 0.83547080E+03</pdfrwt>
<totfact> 0.16158737E+01</totfact>
</mgrwt>
</event>
<event>
 4    1  0.3032637E-007  0.8869021E+03  0.7818608E-02  0.9547394E-01
          2   -1    0    0  501    0  0.00000000000E+00  0.00000000000E+00  0.11340508668E+04  0.11340508668E+04  0.25500000000E-02 0. -1.
         -2   -1    0    0    0  501 -0.00000000000E+00 -0.00000000000E+00 -0.14581552935E+04  0.14581552935E+04  0.25500000000E-02 0.  1.
    8880023    1    1    2    0    0 -0.24471889051E+03 -0.54120027214E+03 -0.12188794075E+04  0.15074024964E+04  0.65864270000E+03 0.  0.
    8880022    1    1    2    0    0  0.24471889051E+03  0.54120027214E+03  0.89477498082E+03  0.10848036639E+04  0.15294330000E+03 0.  0.
<mgrwt>
<rscale>  0 0.80878063E+03</rscale>
<asrwt>0</asrwt>
<pdfrwt beam="1">  1        2 0.17446936E+00 0.88690207E+03</pdfrwt>
<pdfrwt beam="2">  1       -2 0.22433159E+00 0.88690207E+03</pdfrwt>
<totfact> 0.19439149E+00</totfact>
</mgrwt>
</event>
<event>
 4    1  0.3032637E-007  0.6947316E+03  0.7818608E-02  0.1001980E+00
         -2   -1    0    0    0  501 -0.00000000000E+00  0.00000000000E+00  0.51989996622E+03  0.51989996622E+03  0.25500000000E-02 0.  1.
          2   -1    0    0  501    0  0.00000000000E+00 -0.00000000000E+00 -0.12009870900E+04  0.12009870900E+04  0.25500000000E-02 0. -1.
    8880023    1    1    2    0    0 -0.20618849784E+03  0.79549728789E+02  0.26029310103E+03  0.74189255334E+03  0.65864270000E+03 0.  1.
    8880022    1    1    2    0    0  0.20618849784E+03 -0.79549728789E+02 -0.94138022486E+03  0.97899450293E+03  0.15294330000E+03 0.  0.
<mgrwt>
<rscale>  0 0.54790486E+03</rscale>
<asrwt>0</asrwt>
<pdfrwt beam="1">  1        2 0.18476724E+00 0.69473165E+03</pdfrwt>
<pdfrwt beam="2">  1       -2 0.79984610E-01 0.69473165E+03</pdfrwt>
<totfact> 0.26813389E+01</totfact>
</mgrwt>
</event>
<event>
 4    1  0.3032637E-007  0.9204591E+03  0.7818608E-02  0.9493955E-01
          2   -1    0    0  501    0  0.00000000000E+00  0.00000000000E+00  0.84610996196E+03  0.84610996197E+03  0.25500000000E-02 0. -1.
         -2   -1    0    0    0  501 -0.00000000000E+00 -0.00000000000E+00 -0.82739007449E+03  0.82739007450E+03  0.25500000000E-02 0.  1.
    8880023    1    1    2    0    0  0.51619053771E+03  0.38338242777E+03 -0.25959149894E+03  0.95636431851E+03  0.65864270000E+03 0.  0.
    8880022    1    1    2    0    0 -0.51619053771E+03 -0.38338242777E+03  0.27831138641E+03  0.71713571795E+03  0.15294330000E+03 0.  0.
<mgrwt>
<rscale>  0 0.84730932E+03</rscale>
<asrwt>0</asrwt>
<pdfrwt beam="1">  1        2 0.13017076E+00 0.92045910E+03</pdfrwt>
<pdfrwt beam="2">  1       -2 0.12729078E+00 0.92045910E+03</pdfrwt>
<totfact> 0.14616797E+01</totfact>
</mgrwt>
</event>
<event>
 4    1  0.3032637E-007  0.1533682E+04  0.7818608E-02  0.8886211E-01
         -2   -1    0    0    0  501 -0.00000000000E+00  0.00000000000E+00  0.83048946189E+03  0.83048946189E+03  0.25500000000E-02 0.  1.
          2   -1    0    0  501    0  0.00000000000E+00 -0.00000000000E+00 -0.27079951415E+04  0.27079951415E+04  0.25500000000E-02 0. -1.
    8880023    1    1    2    0    0 -0.10304651652E+04  0.92547865468E+03 -0.59626088932E+03  0.16455110001E+04  0.65864270000E+03 0.  0.
    8880022    1    1    2    0    0  0.10304651652E+04 -0.92547865468E+03 -0.12812447903E+04  0.18929736033E+04  0.15294330000E+03 0.  0.
<mgrwt>
<rscale>  0 0.14973588E+04</rscale>
<asrwt>0</asrwt>
<pdfrwt beam="1">  1        2 0.41661463E+00 0.15336816E+04</pdfrwt>
<pdfrwt beam="2">  1       -2 0.12776761E+00 0.15336816E+04</pdfrwt>
<totfact> 0.11274585E+00</totfact>
</mgrwt>
</event>
<event>
 4    1  0.3032637E-007  0.7663972E+03  0.7818608E-02  0.9788819E-01
         -2   -1    0    0    0  501 -0.00000000000E+00  0.00000000000E+00  0.27036316992E+03  0.27036316993E+03  0.25500000000E-02 0.  1.
          2   -1    0    0  501    0  0.00000000000E+00 -0.00000000000E+00 -0.14435736879E+04  0.14435736879E+04  0.25500000000E-02 0. -1.
    8880023    1    1    2    0    0  0.39182097580E+03  0.55431755159E+01 -0.48379579593E+03  0.90632388377E+03  0.65864270000E+03 0.  1.
    8880022    1    1    2    0    0 -0.39182097580E+03 -0.55431755159E+01 -0.68941472203E+03  0.80761297404E+03  0.15294330000E+03 0.  0.
<mgrwt>
<rscale>  0 0.65966057E+03</rscale>
<asrwt>0</asrwt>
<pdfrwt beam="1">  1        2 0.22208826E+00 0.76639716E+03</pdfrwt>
<pdfrwt beam="2">  1       -2 0.41594335E-01 0.76639716E+03</pdfrwt>
<totfact> 0.76144834E+01</totfact>
</mgrwt>
</event>
<event>
 4    1  0.3032637E-007  0.2112573E+04  0.7818608E-02  0.8566880E-01
         -2   -1    0    0    0  501 -0.00000000000E+00  0.00000000000E+00  0.26508264532E+04  0.26508264532E+04  0.25500000000E-02 0.  1.
          2   -1    0    0  501    0  0.00000000000E+00 -0.00000000000E+00 -0.17364680416E+04  0.17364680416E+04  0.25500000000E-02 0. -1.
    8880023    1    1    2    0    0  0.99239083947E+03  0.17447967365E+04 -0.13544860913E+03  0.21169109008E+04  0.65864270000E+03 0.  0.
    8880022    1    1    2    0    0 -0.99239083947E+03 -0.17447967365E+04  0.10498070208E+04  0.22703835940E+04  0.15294330000E+03 0.  0.
<mgrwt>
<rscale>  0 0.20872517E+04</rscale>
<asrwt>0</asrwt>
<pdfrwt beam="1">  1        2 0.26714893E+00 0.21125732E+04</pdfrwt>
<pdfrwt beam="2">  1       -2 0.40781945E+00 0.21125732E+04</pdfrwt>
<totfact> 0.54323453E-02</totfact>
</mgrwt>
</event>
<event>
 4    1  0.3032637E-007  0.7907007E+03  0.7818608E-02  0.9731276E-01
         -2   -1    0    0    0  501 -0.00000000000E+00  0.00000000000E+00  0.23453902935E+03  0.23453902936E+03  0.25500000000E-02 0.  1.
          2   -1    0    0  501    0  0.00000000000E+00 -0.00000000000E+00 -0.30480311876E+04  0.30480311876E+04  0.25500000000E-02 0. -1.
    8880023    1    1    2    0    0 -0.34342364386E+03  0.27103070275E+03 -0.52852530332E+03  0.95107657079E+03  0.65864270000E+03 0.  0.
    8880022    1    1    2    0    0  0.34342364386E+03 -0.27103070275E+03 -0.22849668549E+04  0.23314936462E+04  0.15294330000E+03 0.  0.
<mgrwt>
<rscale>  0 0.69184791E+03</rscale>
<asrwt>0</asrwt>
<pdfrwt beam="1">  1        2 0.46892785E+00 0.79070073E+03</pdfrwt>
<pdfrwt beam="2">  1       -2 0.36082930E-01 0.79070073E+03</pdfrwt>
<totfact> 0.12390881E+01</totfact>
</mgrwt>
</event>
<event>
 4    1  0.3032637E-007  0.8155273E+03  0.7818608E-02  0.9678177E-01
          2   -1    0    0  501    0  0.00000000000E+00  0.00000000000E+00  0.89127856668E+03  0.89127856668E+03  0.25500000000E-02 0. -1.
         -2   -1    0    0    0  501 -0.00000000000E+00 -0.00000000000E+00 -0.18260745459E+04  0.18260745459E+04  0.25500000000E-02 0.  1.
    8880023    1    1    2    0    0 -0.44582061327E+03 -0.18032906006E+03 -0.16508723631E+04  0.18413213611E+04  0.65864270000E+03 0.  1.
    8880022    1    1    2    0    0  0.44582061327E+03  0.18032906006E+03  0.71607638389E+03  0.87603175153E+03  0.15294330000E+03 0.  0.
<mgrwt>
<rscale>  0 0.72331139E+03</rscale>
<asrwt>0</asrwt>
<pdfrwt beam="1">  1        2 0.13711978E+00 0.81552731E+03</pdfrwt>
<pdfrwt beam="2">  1       -2 0.28093454E+00 0.81552731E+03</pdfrwt>
<totfact> 0.12708573E+00</totfact>
</mgrwt>
</event>
<event>
 4    1  0.3110350E-007  0.8248933E+03  0.7818608E-02  0.9659351E-01
          2   -1    0    0  501    0  0.00000000000E+00  0.00000000000E+00  0.34095164440E+04  0.34095164440E+04  0.25500000000E-02 0. -1.
         -2   -1    0    0    0  501 -0.00000000000E+00 -0.00000000000E+00 -0.62516142023E+03  0.62516142023E+03  0.25500000000E-02 0.  1.
    8880023    1    1    2    0    0 -0.63795904586E+02  0.49251281158E+03 -0.32173751449E+03  0.88541742783E+03  0.65864270000E+03 0.  1.
    8880022    1    1    2    0    0  0.63795904586E+02 -0.49251281158E+03  0.31060925382E+04  0.31492604364E+04  0.15294330000E+03 0.  0.
<mgrwt>
<rscale>  0 0.73489439E+03</rscale>
<asrwt>0</asrwt>
<pdfrwt beam="1">  1        2 0.52454100E+00 0.82489332E+03</pdfrwt>
<pdfrwt beam="2">  1       -2 0.96178678E-01 0.82489332E+03</pdfrwt>
<totfact> 0.90696105E-01</totfact>
</mgrwt>
</event>
<event>
 4    1  0.3032637E-007  0.7678017E+03  0.7818608E-02  0.9785313E-01
          2   -1    0    0  501    0  0.00000000000E+00  0.00000000000E+00  0.15125379197E+04  0.15125379197E+04  0.25500000000E-02 0. -1.
         -2   -1    0    0    0  501 -0.00000000000E+00 -0.00000000000E+00 -0.93392570474E+03  0.93392570474E+03  0.25500000000E-02 0.  1.
    8880023    1    1    2    0    0  0.21378133891E+03  0.33167276206E+03 -0.73710990539E+03  0.10643544996E+04  0.65864270000E+03 0.  1.
    8880022    1    1    2    0    0 -0.21378133891E+03 -0.33167276206E+03  0.13157221204E+04  0.13821091248E+04  0.15294330000E+03 0.  0.
<mgrwt>
<rscale>  0 0.66156732E+03</rscale>
<asrwt>0</asrwt>
<pdfrwt beam="1">  1        2 0.23269814E+00 0.76780172E+03</pdfrwt>
<pdfrwt beam="2">  1       -2 0.14368088E+00 0.76780172E+03</pdfrwt>
<totfact> 0.42906453E+00</totfact>
</mgrwt>
</event>
<event>
 4    1  0.3032637E-007  0.1559513E+04  0.7818608E-02  0.8868716E-01
          2   -1    0    0  501    0  0.00000000000E+00  0.00000000000E+00  0.25317400960E+04  0.25317400960E+04  0.25500000000E-02 0. -1.
         -2   -1    0    0    0  501 -0.00000000000E+00 -0.00000000000E+00 -0.15755216240E+04  0.15755216240E+04  0.25500000000E-02 0.  1.
    8880023    1    1    2    0    0  0.66519893677E+03  0.12473092334E+04 -0.87549976727E+03  0.17884574353E+04  0.65864270000E+03 0.  0.
    8880022    1    1    2    0    0 -0.66519893677E+03 -0.12473092334E+04  0.18317182393E+04  0.23188042846E+04  0.15294330000E+03 0.  0.
<mgrwt>
<rscale>  0 0.15238958E+04</rscale>
<asrwt>0</asrwt>
<pdfrwt beam="1">  1        2 0.38949848E+00 0.15595128E+04</pdfrwt>
<pdfrwt beam="2">  1       -2 0.24238794E+00 0.15595128E+04</pdfrwt>
<totfact> 0.22248855E-01</totfact>
</mgrwt>
</event>
<event>
 4    1  0.3032637E-007  0.7937350E+03  0.7818608E-02  0.9724510E-01
          2   -1    0    0  501    0  0.00000000000E+00  0.00000000000E+00  0.15909413709E+04  0.15909413709E+04  0.25500000000E-02 0. -1.
         -2   -1    0    0    0  501 -0.00000000000E+00 -0.00000000000E+00 -0.39458555247E+03  0.39458555248E+03  0.25500000000E-02 0.  1.
    8880023    1    1    2    0    0 -0.41224352531E+03 -0.16205011959E+03  0.12832871562E+04  0.15089205072E+04  0.65864270000E+03 0.  0.
    8880022    1    1    2    0    0  0.41224352531E+03  0.16205011959E+03 -0.86931337812E+02  0.47660641617E+03  0.15294330000E+03 0.  0.
<mgrwt>
<rscale>  0 0.69576060E+03</rscale>
<asrwt>0</asrwt>
<pdfrwt beam="1">  1        2 0.24476021E+00 0.79373495E+03</pdfrwt>
<pdfrwt beam="2">  1       -2 0.60705470E-01 0.79373495E+03</pdfrwt>
<totfact> 0.29070729E+01</totfact>
</mgrwt>
</event>
<event>
 4    1  0.3032637E-007  0.7658768E+03  0.7818608E-02  0.9790124E-01
          2   -1    0    0  501    0  0.00000000000E+00  0.00000000000E+00  0.17567867206E+04  0.17567867206E+04  0.25500000000E-02 0. -1.
         -2   -1    0    0    0  501 -0.00000000000E+00 -0.00000000000E+00 -0.34690735774E+03  0.34690735775E+03  0.25500000000E-02 0.  1.
    8880023    1    1    2    0    0 -0.32974192209E+03 -0.20982672964E+03  0.15622086814E+03  0.78164707993E+03  0.65864270000E+03 0.  1.
    8880022    1    1    2    0    0  0.32974192209E+03  0.20982672964E+03  0.12536584947E+04  0.13220469984E+04  0.15294330000E+03 0.  0.
<mgrwt>
<rscale>  0 0.65895245E+03</rscale>
<asrwt>0</asrwt>
<pdfrwt beam="1">  1        2 0.27027489E+00 0.76587675E+03</pdfrwt>
<pdfrwt beam="2">  1       -2 0.53370361E-01 0.76587675E+03</pdfrwt>
<totfact> 0.30954000E+01</totfact>
</mgrwt>
</event>
<event>
 4    1  0.3032637E-007  0.7954769E+03  0.7818608E-02  0.9720663E-01
          2   -1    0    0  501    0  0.00000000000E+00  0.00000000000E+00  0.14843597577E+04  0.14843597577E+04  0.25500000000E-02 0. -1.
         -2   -1    0    0    0  501 -0.00000000000E+00 -0.00000000000E+00 -0.28488052953E+03  0.28488052954E+03  0.25500000000E-02 0.  1.
    8880023    1    1    2    0    0  0.44490757967E+03  0.32102052998E+02  0.93854399844E+03  0.12303041654E+04  0.65864270000E+03 0.  0.
    8880022    1    1    2    0    0 -0.44490757967E+03 -0.32102052998E+02  0.26093522975E+03  0.53893612181E+03  0.15294330000E+03 0.  0.
<mgrwt>
<rscale>  0 0.69799767E+03</rscale>
<asrwt>0</asrwt>
<pdfrwt beam="1">  1        2 0.22836304E+00 0.79547690E+03</pdfrwt>
<pdfrwt beam="2">  1       -2 0.43827773E-01 0.79547690E+03</pdfrwt>
<totfact> 0.64974433E+01</totfact>
</mgrwt>
</event>
<event>
 4    1  0.3032637E-007  0.1365336E+04  0.7818608E-02  0.9011096E-01
         -2   -1    0    0    0  501 -0.00000000000E+00  0.00000000000E+00  0.96857160301E+03  0.96857160301E+03  0.25500000000E-02 0.  1.
          2   -1    0    0  501    0  0.00000000000E+00 -0.00000000000E+00 -0.39680302261E+04  0.39680302261E+04  0.25500000000E-02 0. -1.
    8880023    1    1    2    0    0  0.14533623625E+03  0.11871014365E+04  0.32224162377E+03  0.14028479292E+04  0.65864270000E+03 0.  0.
    8880022    1    1    2    0    0 -0.14533623625E+03 -0.11871014365E+04 -0.33217002469E+04  0.35337538999E+04  0.15294330000E+03 0.  0.
<mgrwt>
<rscale>  0 0.13235487E+04</rscale>
<asrwt>0</asrwt>
<pdfrwt beam="1">  1        2 0.61046618E+00 0.13653361E+04</pdfrwt>
<pdfrwt beam="2">  1       -2 0.14901102E+00 0.13653361E+04</pdfrwt>
<totfact> 0.10847149E-01</totfact>
</mgrwt>
</event>
<event>
 4    1  0.3175605E-007  0.8041506E+03  0.7818608E-02  0.9701892E-01
          2   -1    0    0  501    0  0.00000000000E+00  0.00000000000E+00  0.22940403752E+04  0.22940403752E+04  0.25500000000E-02 0. -1.
         -2   -1    0    0    0  501 -0.00000000000E+00 -0.00000000000E+00 -0.16154316474E+04  0.16154316474E+04  0.25500000000E-02 0.  1.
    8880023    1    1    2    0    0  0.40798816093E+03 -0.21539183991E+03 -0.14867191835E+04  0.16902639205E+04  0.65864270000E+03 0.  1.
    8880022    1    1    2    0    0 -0.40798816093E+03  0.21539183991E+03  0.21653279113E+04  0.22192081021E+04  0.15294330000E+03 0.  0.
<mgrwt>
<rscale>  0 0.70904229E+03</rscale>
<asrwt>0</asrwt>
<pdfrwt beam="1">  1        2 0.35292929E+00 0.80415060E+03</pdfrwt>
<pdfrwt beam="2">  1       -2 0.24852795E+00 0.80415060E+03</pdfrwt>
<totfact> 0.31428524E-01</totfact>
</mgrwt>
</event>
<event>
 4    1  0.3032637E-007  0.7544175E+03  0.7818608E-02  0.9819780E-01
         -2   -1    0    0    0  501 -0.00000000000E+00  0.00000000000E+00  0.44086635710E+03  0.44086635711E+03  0.25500000000E-02 0.  1.
          2   -1    0    0  501    0  0.00000000000E+00 -0.00000000000E+00 -0.13689692600E+04  0.13689692600E+04  0.25500000000E-02 0. -1.
    8880023    1    1    2    0    0 -0.27621585661E+03 -0.24298227755E+03  0.47609406337E+02  0.75591828162E+03  0.65864270000E+03 0.  1.
    8880022    1    1    2    0    0  0.27621585661E+03  0.24298227755E+03 -0.97571230921E+03  0.10539173355E+04  0.15294330000E+03 0.  0.
<mgrwt>
<rscale>  0 0.64311740E+03</rscale>
<asrwt>0</asrwt>
<pdfrwt beam="1">  1        2 0.21061065E+00 0.75441752E+03</pdfrwt>
<pdfrwt beam="2">  1       -2 0.67825594E-01 0.75441752E+03</pdfrwt>
<totfact> 0.30641376E+01</totfact>
</mgrwt>
</event>
<event>
 4    1  0.3032637E-007  0.1357473E+04  0.7818608E-02  0.9017452E-01
          2   -1    0    0  501    0  0.00000000000E+00  0.00000000000E+00  0.25511656570E+04  0.25511656570E+04  0.25500000000E-02 0. -1.
         -2   -1    0    0    0  501 -0.00000000000E+00 -0.00000000000E+00 -0.10468630231E+04  0.10468630231E+04  0.25500000000E-02 0.  1.
    8880023    1    1    2    0    0  0.11593538689E+04  0.25459882142E+03 -0.34003862118E+03  0.13994135998E+04  0.65864270000E+03 0.  0.
    8880022    1    1    2    0    0 -0.11593538689E+04 -0.25459882142E+03  0.18443412550E+04  0.21986150803E+04  0.15294330000E+03 0.  0.
<mgrwt>
<rscale>  0 0.13153856E+04</rscale>
<asrwt>0</asrwt>
<pdfrwt beam="1">  1        2 0.39248702E+00 0.13574727E+04</pdfrwt>
<pdfrwt beam="2">  1       -2 0.16105585E+00 0.13574727E+04</pdfrwt>
<totfact> 0.77093088E-01</totfact>
</mgrwt>
</event>
<event>
 4    1  0.3032637E-007  0.7684290E+03  0.7818608E-02  0.9783755E-01
          2   -1    0    0  501    0  0.00000000000E+00  0.00000000000E+00  0.17159018858E+04  0.17159018858E+04  0.25500000000E-02 0. -1.
         -2   -1    0    0    0  501 -0.00000000000E+00 -0.00000000000E+00 -0.43546811328E+03  0.43546811328E+03  0.25500000000E-02 0.  1.
    8880023    1    1    2    0    0 -0.21039333389E+03 -0.33527235851E+03 -0.34960966411E+02  0.76922388468E+03  0.65864270000E+03 0.  1.
    8880022    1    1    2    0    0  0.21039333389E+03  0.33527235851E+03  0.13153947389E+04  0.13821461144E+04  0.15294330000E+03 0.  0.
<mgrwt>
<rscale>  0 0.66241680E+03</rscale>
<asrwt>0</asrwt>
<pdfrwt beam="1">  1        2 0.26398491E+00 0.76842899E+03</pdfrwt>
<pdfrwt beam="2">  1       -2 0.66995094E-01 0.76842899E+03</pdfrwt>
<totfact> 0.20156121E+01</totfact>
</mgrwt>
</event>
<event>
 4    1  0.3032637E-007  0.8475684E+03  0.7818608E-02  0.9616071E-01
          2   -1    0    0  501    0  0.00000000000E+00  0.00000000000E+00  0.12006324879E+04  0.12006324879E+04  0.25500000000E-02 0. -1.
         -2   -1    0    0    0  501 -0.00000000000E+00 -0.00000000000E+00 -0.51210493275E+03  0.51210493276E+03  0.25500000000E-02 0.  1.
    8880023    1    1    2    0    0 -0.50563083185E+03 -0.16999838384E+03  0.25268698743E+02  0.84794498762E+03  0.65864270000E+03 0.  0.
    8880022    1    1    2    0    0  0.50563083185E+03  0.16999838384E+03  0.66325885636E+03  0.86479243300E+03  0.15294330000E+03 0.  0.
<mgrwt>
<rscale>  0 0.76241553E+03</rscale>
<asrwt>0</asrwt>
<pdfrwt beam="1">  1        2 0.18471269E+00 0.84756840E+03</pdfrwt>
<pdfrwt beam="2">  1       -2 0.78785375E-01 0.84756840E+03</pdfrwt>
<totfact> 0.27316789E+01</totfact>
</mgrwt>
</event>
<event>
 4    1  0.3032637E-007  0.1928986E+04  0.7818608E-02  0.8654353E-01
         -2   -1    0    0    0  501 -0.00000000000E+00  0.00000000000E+00  0.23907006798E+04  0.23907006798E+04  0.25500000000E-02 0.  1.
          2   -1    0    0  501    0  0.00000000000E+00 -0.00000000000E+00 -0.24858146919E+04  0.24858146919E+04  0.25500000000E-02 0. -1.
    8880023    1    1    2    0    0  0.95325171117E+03  0.15422342678E+04  0.15103901482E+04  0.24499518297E+04  0.65864270000E+03 0.  0.
    8880022    1    1    2    0    0 -0.95325171117E+03 -0.15422342678E+04 -0.16055041603E+04  0.24265635420E+04  0.15294330000E+03 0.  0.
<mgrwt>
<rscale>  0 0.19010106E+04</rscale>
<asrwt>0</asrwt>
<pdfrwt beam="1">  1        2 0.38243303E+00 0.19289856E+04</pdfrwt>
<pdfrwt beam="2">  1       -2 0.36780010E+00 0.19289856E+04</pdfrwt>
<totfact> 0.37876812E-02</totfact>
</mgrwt>
</event>
<event>
 4    1  0.3032637E-007  0.9725888E+03  0.7818608E-02  0.9418333E-01
         -2   -1    0    0    0  501 -0.00000000000E+00  0.00000000000E+00  0.55192398151E+03  0.55192398152E+03  0.25500000000E-02 0.  1.
          2   -1    0    0  501    0  0.00000000000E+00 -0.00000000000E+00 -0.15159959248E+04  0.15159959248E+04  0.25500000000E-02 0. -1.
    8880023    1    1    2    0    0 -0.65093916392E+03  0.29731637447E+03 -0.16868342705E+03  0.98710846743E+03  0.65864270000E+03 0.  1.
    8880022    1    1    2    0    0  0.65093916392E+03 -0.29731637447E+03 -0.79538851626E+03  0.10808114389E+04  0.15294330000E+03 0.  0.
<mgrwt>
<rscale>  0 0.90582219E+03</rscale>
<asrwt>0</asrwt>
<pdfrwt beam="1">  1        2 0.23323014E+00 0.97258883E+03</pdfrwt>
<pdfrwt beam="2">  1       -2 0.84911382E-01 0.97258883E+03</pdfrwt>
<totfact> 0.15007632E+01</totfact>
</mgrwt>
</event>
<event>
 4    1  0.3032637E-007  0.1575036E+04  0.7818608E-02  0.8858391E-01
         -2   -1    0    0    0  501 -0.00000000000E+00  0.00000000000E+00  0.11222000196E+04  0.11222000196E+04  0.25500000000E-02 0.  1.
          2   -1    0    0  501    0  0.00000000000E+00 -0.00000000000E+00 -0.31184247287E+04  0.31184247287E+04  0.25500000000E-02 0. -1.
    8880023    1    1    2    0    0 -0.13822683269E+04  0.36913539668E+03  0.22811905742E+03  0.15914695031E+04  0.65864270000E+03 0.  0.
    8880022    1    1    2    0    0  0.13822683269E+04 -0.36913539668E+03 -0.22243437665E+04  0.26491552452E+04  0.15294330000E+03 0.  0.
<mgrwt>
<rscale>  0 0.15398287E+04</rscale>
<asrwt>0</asrwt>
<pdfrwt beam="1">  1        2 0.47975765E+00 0.15750355E+04</pdfrwt>
<pdfrwt beam="2">  1       -2 0.17264616E+00 0.15750355E+04</pdfrwt>
<totfact> 0.28030083E-01</totfact>
</mgrwt>
</event>
<event>
 4    1  0.3032637E-007  0.1457898E+04  0.7818608E-02  0.8939953E-01
          2   -1    0    0  501    0  0.00000000000E+00  0.00000000000E+00  0.24556157818E+04  0.24556157818E+04  0.25500000000E-02 0. -1.
         -2   -1    0    0    0  501 -0.00000000000E+00 -0.00000000000E+00 -0.12347743042E+04  0.12347743042E+04  0.25500000000E-02 0.  1.
    8880023    1    1    2    0    0  0.60317354339E+03 -0.11523180473E+04 -0.48803455687E+03  0.15374144336E+04  0.65864270000E+03 0.  1.
    8880022    1    1    2    0    0 -0.60317354339E+03  0.11523180473E+04  0.17088760345E+04  0.21529756524E+04  0.15294330000E+03 0.  0.
<mgrwt>
<rscale>  0 0.14193182E+04</rscale>
<asrwt>0</asrwt>
<pdfrwt beam="1">  1        2 0.37778704E+00 0.14578976E+04</pdfrwt>
<pdfrwt beam="2">  1       -2 0.18996528E+00 0.14578976E+04</pdfrwt>
<totfact> 0.54107540E-01</totfact>
</mgrwt>
</event>
<event>
 4    1  0.3032637E-007  0.7912214E+03  0.7818608E-02  0.9730109E-01
          2   -1    0    0  501    0  0.00000000000E+00  0.00000000000E+00  0.14598114979E+04  0.14598114979E+04  0.25500000000E-02 0. -1.
         -2   -1    0    0    0  501 -0.00000000000E+00 -0.00000000000E+00 -0.31613384621E+03  0.31613384622E+03  0.25500000000E-02 0.  1.
    8880023    1    1    2    0    0  0.39471740974E+03 -0.19083850687E+03  0.10283235086E+04  0.12974901209E+04  0.65864270000E+03 0.  0.
    8880022    1    1    2    0    0 -0.39471740974E+03  0.19083850687E+03  0.11535414305E+03  0.47845522319E+03  0.15294330000E+03 0.  0.
<mgrwt>
<rscale>  0 0.69252086E+03</rscale>
<asrwt>0</asrwt>
<pdfrwt beam="1">  1        2 0.22458639E+00 0.79122145E+03</pdfrwt>
<pdfrwt beam="2">  1       -2 0.48635976E-01 0.79122145E+03</pdfrwt>
<totfact> 0.54449710E+01</totfact>
</mgrwt>
</event>
<event>
 4    1  0.3032637E-007  0.1203204E+04  0.7818608E-02  0.9154014E-01
         -2   -1    0    0    0  501 -0.00000000000E+00  0.00000000000E+00  0.10954336094E+04  0.10954336094E+04  0.25500000000E-02 0.  1.
          2   -1    0    0  501    0  0.00000000000E+00 -0.00000000000E+00 -0.11673596458E+04  0.11673596458E+04  0.25500000000E-02 0. -1.
    8880023    1    1    2    0    0  0.93122669250E+03  0.38302203288E+03 -0.24992384841E+03  0.12288861488E+04  0.65864270000E+03 0. -1.
    8880022    1    1    2    0    0 -0.93122669250E+03 -0.38302203288E+03  0.17799781209E+03  0.10339071064E+04  0.15294330000E+03 0.  0.
<mgrwt>
<rscale>  0 0.11540946E+04</rscale>
<asrwt>0</asrwt>
<pdfrwt beam="1">  1        2 0.17959379E+00 0.12032037E+04</pdfrwt>
<pdfrwt beam="2">  1       -2 0.16852825E+00 0.12032037E+04</pdfrwt>
<totfact> 0.42049532E+00</totfact>
</mgrwt>
</event>
<event>
 4    1  0.3032637E-007  0.7989109E+03  0.7818608E-02  0.9713156E-01
         -2   -1    0    0    0  501 -0.00000000000E+00  0.00000000000E+00  0.60432022696E+03  0.60432022696E+03  0.25500000000E-02 0.  1.
          2   -1    0    0  501    0  0.00000000000E+00 -0.00000000000E+00 -0.17036120053E+04  0.17036120053E+04  0.25500000000E-02 0. -1.
    8880023    1    1    2    0    0  0.34238497527E+03 -0.29533186413E+03  0.28142997035E+03  0.84703094143E+03  0.65864270000E+03 0.  0.
    8880022    1    1    2    0    0 -0.34238497527E+03  0.29533186413E+03 -0.13807217487E+04  0.14609012909E+04  0.15294330000E+03 0.  0.
<mgrwt>
<rscale>  0 0.70238868E+03</rscale>
<asrwt>0</asrwt>
<pdfrwt beam="1">  1        2 0.26209415E+00 0.79891088E+03</pdfrwt>
<pdfrwt beam="2">  1       -2 0.92972343E-01 0.79891088E+03</pdfrwt>
<totfact> 0.97761012E+00</totfact>
</mgrwt>
</event>
<event>
 4    1  0.3032637E-007  0.8533799E+03  0.7818608E-02  0.9605450E-01
         -2   -1    0    0    0  501 -0.00000000000E+00  0.00000000000E+00  0.45836473828E+03  0.45836473828E+03  0.25500000000E-02 0.  1.
          2   -1    0    0  501    0  0.00000000000E+00 -0.00000000000E+00 -0.16934024928E+04  0.16934024928E+04  0.25500000000E-02 0. -1.
    8880023    1    1    2    0    0  0.51530655802E+03 -0.17001814465E+03 -0.68480898449E+02  0.85612315584E+03  0.65864270000E+03 0.  0.
    8880022    1    1    2    0    0 -0.51530655802E+03  0.17001814465E+03 -0.11665568561E+04  0.12956440753E+04  0.15294330000E+03 0.  0.
<mgrwt>
<rscale>  0 0.76936538E+03</rscale>
<asrwt>0</asrwt>
<pdfrwt beam="1">  1        2 0.26052346E+00 0.85337988E+03</pdfrwt>
<pdfrwt beam="2">  1       -2 0.70517653E-01 0.85337988E+03</pdfrwt>
<totfact> 0.18360368E+01</totfact>
</mgrwt>
</event>
<event>
 4    1  0.3032637E-007  0.9636079E+03  0.7818608E-02  0.9430800E-01
         -2   -1    0    0    0  501 -0.00000000000E+00  0.00000000000E+00  0.90998452683E+03  0.90998452683E+03  0.25500000000E-02 0.  1.
          2   -1    0    0  501    0  0.00000000000E+00 -0.00000000000E+00 -0.12117347516E+04  0.12117347516E+04  0.25500000000E-02 0. -1.
    8880023    1    1    2    0    0 -0.64247664877E+03  0.28627563399E+03  0.46508922603E+03  0.10699757835E+04  0.65864270000E+03 0.  0.
    8880022    1    1    2    0    0  0.64247664877E+03 -0.28627563399E+03 -0.76683945080E+03  0.10517434949E+04  0.15294330000E+03 0.  0.
<mgrwt>
<rscale>  0 0.89583748E+03</rscale>
<asrwt>0</asrwt>
<pdfrwt beam="1">  1        2 0.18642073E+00 0.96360790E+03</pdfrwt>
<pdfrwt beam="2">  1       -2 0.13999762E+00 0.96360790E+03</pdfrwt>
<totfact> 0.66633342E+00</totfact>
</mgrwt>
</event>
<event>
 4    1  0.3032637E-007  0.1044812E+04  0.7818608E-02  0.9325144E-01
         -2   -1    0    0    0  501 -0.00000000000E+00  0.00000000000E+00  0.11135670841E+04  0.11135670841E+04  0.25500000000E-02 0.  1.
          2   -1    0    0  501    0  0.00000000000E+00 -0.00000000000E+00 -0.18477516503E+04  0.18477516503E+04  0.25500000000E-02 0. -1.
    8880023    1    1    2    0    0  0.59799650145E+03 -0.54792508042E+03  0.73412317187E+03  0.12769372527E+04  0.65864270000E+03 0.  0.
    8880022    1    1    2    0    0 -0.59799650145E+03  0.54792508042E+03 -0.14683077381E+04  0.16843814818E+04  0.15294330000E+03 0.  0.
<mgrwt>
<rscale>  0 0.98500623E+03</rscale>
<asrwt>0</asrwt>
<pdfrwt beam="1">  1        2 0.28426948E+00 0.10448119E+04</pdfrwt>
<pdfrwt beam="2">  1       -2 0.17131801E+00 0.10448119E+04</pdfrwt>
<totfact> 0.16759123E+00</totfact>
</mgrwt>
</event>
<event>
 4    1  0.3032637E-007  0.1129336E+04  0.7818608E-02  0.9229077E-01
          2   -1    0    0  501    0  0.00000000000E+00  0.00000000000E+00  0.41961195871E+04  0.41961195871E+04  0.25500000000E-02 0. -1.
         -2   -1    0    0    0  501 -0.00000000000E+00 -0.00000000000E+00 -0.44211332199E+03  0.44211332200E+03  0.25500000000E-02 0.  1.
    8880023    1    1    2    0    0 -0.18323208254E+03  0.89889640417E+03  0.46682678478E+03  0.12220172645E+04  0.65864270000E+03 0.  0.
    8880022    1    1    2    0    0  0.18323208254E+03 -0.89889640417E+03  0.32871794803E+04  0.34162156446E+04  0.15294330000E+03 0.  0.
<mgrwt>
<rscale>  0 0.10758285E+04</rscale>
<asrwt>0</asrwt>
<pdfrwt beam="1">  1        2 0.64555687E+00 0.11293356E+04</pdfrwt>
<pdfrwt beam="2">  1       -2 0.68017433E-01 0.11293356E+04</pdfrwt>
<totfact> 0.48081552E-01</totfact>
</mgrwt>
</event>
<event>
 4    1  0.3032637E-007  0.6594732E+03  0.7818608E-02  0.1024703E+00
          2   -1    0    0  501    0  0.00000000000E+00  0.00000000000E+00  0.32462271108E+04  0.32462271108E+04  0.25500000000E-02 0. -1.
         -2   -1    0    0    0  501 -0.00000000000E+00 -0.00000000000E+00 -0.34931426054E+03  0.34931426055E+03  0.25500000000E-02 0.  1.
    8880023    1    1    2    0    0 -0.14548495179E+02  0.29715899698E+02 -0.34100142302E+02  0.66035423780E+03  0.65864270000E+03 0.  1.
    8880022    1    1    2    0    0  0.14548495179E+02 -0.29715899698E+02  0.29310129926E+04  0.29351871336E+04  0.15294330000E+03 0.  0.
<mgrwt>
<rscale>  0 0.46027073E+03</rscale>
<asrwt>0</asrwt>
<pdfrwt beam="1">  1        2 0.49941957E+00 0.65947320E+03</pdfrwt>
<pdfrwt beam="2">  1       -2 0.53740654E-01 0.65947320E+03</pdfrwt>
<totfact> 0.43260887E+00</totfact>
</mgrwt>
</event>
<event>
 4    1  0.3032637E-007  0.6925108E+03  0.7818608E-02  0.1002981E+00
         -2   -1    0    0    0  501 -0.00000000000E+00  0.00000000000E+00  0.24787530952E+03  0.24787530954E+03  0.25500000000E-02 0.  1.
          2   -1    0    0  501    0  0.00000000000E+00 -0.00000000000E+00 -0.17614566041E+04  0.17614566041E+04  0.25500000000E-02 0. -1.
    8880023    1    1    2    0    0  0.17587623316E+03  0.12177235165E+03 -0.27824874060E+03  0.74631998695E+03  0.65864270000E+03 0.  1.
    8880022    1    1    2    0    0 -0.17587623316E+03 -0.12177235165E+03 -0.12353325540E+04  0.12630119267E+04  0.15294330000E+03 0.  0.
<mgrwt>
<rscale>  0 0.54362068E+03</rscale>
<asrwt>0</asrwt>
<pdfrwt beam="1">  1        2 0.27099332E+00 0.69251077E+03</pdfrwt>
<pdfrwt beam="2">  1       -2 0.38134664E-01 0.69251077E+03</pdfrwt>
<totfact> 0.60701024E+01</totfact>
</mgrwt>
</event>
<event>
 4    1  0.3032637E-007  0.8730894E+03  0.7818608E-02  0.9570691E-01
         -2   -1    0    0    0  501 -0.00000000000E+00  0.00000000000E+00  0.51327229114E+03  0.51327229115E+03  0.25500000000E-02 0.  1.
          2   -1    0    0  501    0  0.00000000000E+00 -0.00000000000E+00 -0.21988629943E+04  0.21988629943E+04  0.25500000000E-02 0. -1.
    8880023    1    1    2    0    0  0.45034598745E+03 -0.35449038944E+03  0.53436797057E+02  0.87472318030E+03  0.65864270000E+03 0.  1.
    8880022    1    1    2    0    0 -0.45034598745E+03  0.35449038944E+03 -0.17390275002E+04  0.18374121052E+04  0.15294330000E+03 0.  0.
<mgrwt>
<rscale>  0 0.79266796E+03</rscale>
<asrwt>0</asrwt>
<pdfrwt beam="1">  1        2 0.33828661E+00 0.87308943E+03</pdfrwt>
<pdfrwt beam="2">  1       -2 0.78964969E-01 0.87308943E+03</pdfrwt>
<totfact> 0.75202910E+00</totfact>
</mgrwt>
</event>
<event>
 4    1  0.3032637E-007  0.1845079E+04  0.7818608E-02  0.8698002E-01
         -2   -1    0    0    0  501 -0.00000000000E+00  0.00000000000E+00  0.13293829647E+04  0.13293829647E+04  0.25500000000E-02 0.  1.
          2   -1    0    0  501    0  0.00000000000E+00 -0.00000000000E+00 -0.36452094491E+04  0.36452094491E+04  0.25500000000E-02 0. -1.
    8880023    1    1    2    0    0 -0.25503832990E+03  0.17045418367E+04  0.26849168662E+03  0.18645121117E+04  0.65864270000E+03 0.  0.
    8880022    1    1    2    0    0  0.25503832990E+03 -0.17045418367E+04 -0.25843181711E+04  0.31100803021E+04  0.15294330000E+03 0.  0.
<mgrwt>
<rscale>  0 0.18156867E+04</rscale>
<asrwt>0</asrwt>
<pdfrwt beam="1">  1        2 0.56080145E+00 0.18450793E+04</pdfrwt>
<pdfrwt beam="2">  1       -2 0.20452046E+00 0.18450793E+04</pdfrwt>
<totfact> 0.72311127E-02</totfact>
</mgrwt>
</event>
<event>
 4    1  0.3032637E-007  0.8485148E+03  0.7818608E-02  0.9614329E-01
         -2   -1    0    0    0  501 -0.00000000000E+00  0.00000000000E+00  0.22020086153E+04  0.22020086153E+04  0.25500000000E-02 0.  1.
          2   -1    0    0  501    0  0.00000000000E+00 -0.00000000000E+00 -0.10508723771E+04  0.10508723771E+04  0.25500000000E-02 0. -1.
    8880023    1    1    2    0    0  0.49953452190E+03 -0.19139617369E+03  0.20370717688E+04  0.22067258170E+04  0.65864270000E+03 0.  1.
    8880022    1    1    2    0    0 -0.49953452190E+03  0.19139617369E+03 -0.88593553056E+03  0.10461551755E+04  0.15294330000E+03 0.  0.
<mgrwt>
<rscale>  0 0.76355002E+03</rscale>
<asrwt>0</asrwt>
<pdfrwt beam="1">  1        2 0.16167268E+00 0.84851484E+03</pdfrwt>
<pdfrwt beam="2">  1       -2 0.33877055E+00 0.84851484E+03</pdfrwt>
<totfact> 0.44342646E-01</totfact>
</mgrwt>
</event>
<event>
 4    1  0.3032637E-007  0.7151470E+03  0.7818608E-02  0.9939362E-01
          2   -1    0    0  501    0  0.00000000000E+00  0.00000000000E+00  0.66504299401E+03  0.66504299401E+03  0.25500000000E-02 0. -1.
         -2   -1    0    0    0  501 -0.00000000000E+00 -0.00000000000E+00 -0.12572325045E+04  0.12572325045E+04  0.25500000000E-02 0.  1.
    8880023    1    1    2    0    0 -0.18149401087E+02 -0.27802098538E+03 -0.11066147387E+04  0.13175854642E+04  0.65864270000E+03 0.  0.
    8880022    1    1    2    0    0  0.18149401087E+02  0.27802098538E+03  0.51442522830E+03  0.60469003432E+03  0.15294330000E+03 0.  0.
<mgrwt>
<rscale>  0 0.58390966E+03</rscale>
<asrwt>0</asrwt>
<pdfrwt beam="1">  1        2 0.10231431E+00 0.71514703E+03</pdfrwt>
<pdfrwt beam="2">  1       -2 0.19342038E+00 0.71514703E+03</pdfrwt>
<totfact> 0.65804680E+00</totfact>
</mgrwt>
</event>
<event>
 4    1  0.3032637E-007  0.1050421E+04  0.7818608E-02  0.9318376E-01
         -2   -1    0    0    0  501 -0.00000000000E+00  0.00000000000E+00  0.11661293559E+04  0.11661293559E+04  0.25500000000E-02 0.  1.
          2   -1    0    0  501    0  0.00000000000E+00 -0.00000000000E+00 -0.25566396738E+04  0.25566396738E+04  0.25500000000E-02 0. -1.
    8880023    1    1    2    0    0  0.48021925472E+02 -0.81686459234E+03  0.83807697582E+03  0.13437846149E+04  0.65864270000E+03 0.  0.
    8880022    1    1    2    0    0 -0.48021925472E+02  0.81686459234E+03 -0.22285872937E+04  0.23789844149E+04  0.15294330000E+03 0.  0.
<mgrwt>
<rscale>  0 0.99108629E+03</rscale>
<asrwt>0</asrwt>
<pdfrwt beam="1">  1        2 0.39332918E+00 0.10504209E+04</pdfrwt>
<pdfrwt beam="2">  1       -2 0.17940452E+00 0.10504209E+04</pdfrwt>
<totfact> 0.58982696E-01</totfact>
</mgrwt>
</event>
<event>
 4    1  0.3032637E-007  0.1177159E+04  0.7818608E-02  0.9179652E-01
          2   -1    0    0  501    0  0.00000000000E+00  0.00000000000E+00  0.18732025336E+04  0.18732025336E+04  0.25500000000E-02 0. -1.
         -2   -1    0    0    0  501 -0.00000000000E+00 -0.00000000000E+00 -0.97030011165E+03  0.97030011165E+03  0.25500000000E-02 0.  1.
    8880023    1    1    2    0    0  0.64456724236E+03  0.73241113413E+03 -0.36861261590E+03  0.12335227871E+04  0.65864270000E+03 0.  0.
    8880022    1    1    2    0    0 -0.64456724236E+03 -0.73241113413E+03  0.12715150378E+04  0.16099798582E+04  0.15294330000E+03 0.  0.
<mgrwt>
<rscale>  0 0.11265948E+04</rscale>
<asrwt>0</asrwt>
<pdfrwt beam="1">  1        2 0.28818500E+00 0.11771590E+04</pdfrwt>
<pdfrwt beam="2">  1       -2 0.14927694E+00 0.11771590E+04</pdfrwt>
<totfact> 0.23256440E+00</totfact>
</mgrwt>
</event>
<event>
 4    1  0.3032637E-007  0.1839675E+04  0.7818608E-02  0.8700902E-01
          2   -1    0    0  501    0  0.00000000000E+00  0.00000000000E+00  0.26985041611E+04  0.26985041611E+04  0.25500000000E-02 0. -1.
         -2   -1    0    0    0  501 -0.00000000000E+00 -0.00000000000E+00 -0.19524359014E+04  0.19524359014E+04  0.25500000000E-02 0.  1.
    8880023    1    1    2    0    0 -0.44402724694E+03  0.16593470595E+04 -0.10848632910E+04  0.21357273764E+04  0.65864270000E+03 0.  0.
    8880022    1    1    2    0    0  0.44402724694E+03 -0.16593470595E+04  0.18309315507E+04  0.25152126861E+04  0.15294330000E+03 0.  0.
<mgrwt>
<rscale>  0 0.18101857E+04</rscale>
<asrwt>0</asrwt>
<pdfrwt beam="1">  1        2 0.41515449E+00 0.18396747E+04</pdfrwt>
<pdfrwt beam="2">  1       -2 0.30037475E+00 0.18396747E+04</pdfrwt>
<totfact> 0.75761822E-02</totfact>
</mgrwt>
</event>
<event>
 4    1  0.3032637E-007  0.6727846E+03  0.7818608E-02  0.1013741E+00
         -2   -1    0    0    0  501 -0.00000000000E+00  0.00000000000E+00  0.14159153009E+03  0.14159153011E+03  0.25500000000E-02 0.  1.
          2   -1    0    0  501    0  0.00000000000E+00 -0.00000000000E+00 -0.19345310803E+04  0.19345310803E+04  0.25500000000E-02 0. -1.
    8880023    1    1    2    0    0 -0.14567006950E+02  0.13644311776E+03 -0.72691940039E+03  0.99048015780E+03  0.65864270000E+03 0.  1.
    8880022    1    1    2    0    0  0.14567006950E+02 -0.13644311776E+03 -0.10660201498E+04  0.10856424526E+04  0.15294330000E+03 0.  0.
<mgrwt>
<rscale>  0 0.50014687E+03</rscale>
<asrwt>0</asrwt>
<pdfrwt beam="1">  1        2 0.29762015E+00 0.67278461E+03</pdfrwt>
<pdfrwt beam="2">  1       -2 0.21783314E-01 0.67278461E+03</pdfrwt>
<totfact> 0.13756607E+02</totfact>
</mgrwt>
</event>
<event>
 4    1  0.3032637E-007  0.7457075E+03  0.7818608E-02  0.9843623E-01
          2   -1    0    0  501    0  0.00000000000E+00  0.00000000000E+00  0.77337911710E+03  0.77337911711E+03  0.25500000000E-02 0. -1.
         -2   -1    0    0    0  501 -0.00000000000E+00 -0.00000000000E+00 -0.14610272952E+04  0.14610272952E+04  0.25500000000E-02 0.  1.
    8880023    1    1    2    0    0 -0.14455648203E+03 -0.31839105394E+03 -0.13082421053E+04  0.15058476191E+04  0.65864270000E+03 0.  1.
    8880022    1    1    2    0    0  0.14455648203E+03  0.31839105394E+03  0.62059392716E+03  0.72855879321E+03  0.15294330000E+03 0.  0.
<mgrwt>
<rscale>  0 0.63073121E+03</rscale>
<asrwt>0</asrwt>
<pdfrwt beam="1">  1        2 0.11898140E+00 0.74570748E+03</pdfrwt>
<pdfrwt beam="2">  1       -2 0.22477343E+00 0.74570748E+03</pdfrwt>
<totfact> 0.34103868E+00</totfact>
</mgrwt>
</event>
<event>
 4    1  0.3032637E-007  0.9470154E+03  0.7818608E-02  0.9454421E-01
          2   -1    0    0  501    0  0.00000000000E+00  0.00000000000E+00  0.15979691137E+04  0.15979691137E+04  0.25500000000E-02 0. -1.
         -2   -1    0    0    0  501 -0.00000000000E+00 -0.00000000000E+00 -0.60724426745E+03  0.60724426746E+03  0.25500000000E-02 0.  1.
    8880023    1    1    2    0    0 -0.66414768033E+03  0.14810732531E+03 -0.54592670440E+02  0.94858762749E+03  0.65864270000E+03 0.  1.
    8880022    1    1    2    0    0  0.66414768033E+03 -0.14810732531E+03  0.10453175167E+04  0.12566257537E+04  0.15294330000E+03 0.  0.
<mgrwt>
<rscale>  0 0.87729197E+03</rscale>
<asrwt>0</asrwt>
<pdfrwt beam="1">  1        2 0.24584140E+00 0.94701538E+03</pdfrwt>
<pdfrwt beam="2">  1       -2 0.93422194E-01 0.94701538E+03</pdfrwt>
<totfact> 0.10861074E+01</totfact>
</mgrwt>
</event>
<event>
 4    1  0.3032637E-007  0.1225734E+04  0.7818608E-02  0.9132504E-01
          2   -1    0    0  501    0  0.00000000000E+00  0.00000000000E+00  0.18686270479E+04  0.18686270479E+04  0.25500000000E-02 0. -1.
         -2   -1    0    0    0  501 -0.00000000000E+00 -0.00000000000E+00 -0.94881220160E+03  0.94881220161E+03  0.25500000000E-02 0.  1.
    8880023    1    1    2    0    0  0.95809270656E+03 -0.38816563179E+03 -0.24775580797E+03  0.12505228261E+04  0.65864270000E+03 0.  1.
    8880022    1    1    2    0    0 -0.95809270656E+03  0.38816563179E+03  0.11675706543E+04  0.15669164234E+04  0.15294330000E+03 0.  0.
<mgrwt>
<rscale>  0 0.11778103E+04</rscale>
<asrwt>0</asrwt>
<pdfrwt beam="1">  1        2 0.28748108E+00 0.12257342E+04</pdfrwt>
<pdfrwt beam="2">  1       -2 0.14597111E+00 0.12257342E+04</pdfrwt>
<totfact> 0.24694621E+00</totfact>
</mgrwt>
</event>
<event>
 4    1  0.3032637E-007  0.8362607E+03  0.7818608E-02  0.9637272E-01
          2   -1    0    0  501    0  0.00000000000E+00  0.00000000000E+00  0.15376956638E+04  0.15376956638E+04  0.25500000000E-02 0. -1.
         -2   -1    0    0    0  501 -0.00000000000E+00 -0.00000000000E+00 -0.60368431105E+03  0.60368431105E+03  0.25500000000E-02 0.  1.
    8880023    1    1    2    0    0 -0.24569741511E+03  0.45293980297E+03 -0.22310915453E+03  0.86551117035E+03  0.65864270000E+03 0.  1.
    8880022    1    1    2    0    0  0.24569741511E+03 -0.45293980297E+03  0.11571205073E+04  0.12758688045E+04  0.15294330000E+03 0.  0.
<mgrwt>
<rscale>  0 0.74877649E+03</rscale>
<asrwt>0</asrwt>
<pdfrwt beam="1">  1        2 0.23656856E+00 0.83626066E+03</pdfrwt>
<pdfrwt beam="2">  1       -2 0.92874511E-01 0.83626066E+03</pdfrwt>
<totfact> 0.12043879E+01</totfact>
</mgrwt>
</event>
<event>
 4    1  0.3032637E-007  0.6748435E+03  0.7818608E-02  0.1012405E+00
          2   -1    0    0  501    0  0.00000000000E+00  0.00000000000E+00  0.91896214486E+03  0.91896214487E+03  0.25500000000E-02 0. -1.
         -2   -1    0    0    0  501 -0.00000000000E+00 -0.00000000000E+00 -0.23949243025E+03  0.23949243027E+03  0.25500000000E-02 0.  1.
    8880023    1    1    2    0    0 -0.12166282007E+03  0.82472567183E+02  0.33378884652E+03  0.75288031349E+03  0.65864270000E+03 0.  0.
    8880022    1    1    2    0    0  0.12166282007E+03 -0.82472567183E+02  0.34568086809E+03  0.40557426164E+03  0.15294330000E+03 0.  0.
<mgrwt>
<rscale>  0 0.50529861E+03</rscale>
<asrwt>0</asrwt>
<pdfrwt beam="1">  1        2 0.14137879E+00 0.67484352E+03</pdfrwt>
<pdfrwt beam="2">  1       -2 0.36844989E-01 0.67484352E+03</pdfrwt>
<totfact> 0.20040372E+02</totfact>
</mgrwt>
</event>
<event>
 4    1  0.3032637E-007  0.1278565E+04  0.7818608E-02  0.9084294E-01
         -2   -1    0    0    0  501 -0.00000000000E+00  0.00000000000E+00  0.15522573161E+04  0.15522573161E+04  0.25500000000E-02 0.  1.
          2   -1    0    0  501    0  0.00000000000E+00 -0.00000000000E+00 -0.11621343990E+04  0.11621343990E+04  0.25500000000E-02 0. -1.
    8880023    1    1    2    0    0  0.10508297889E+04 -0.31092803834E+03 -0.41695487696E+03  0.13448349587E+04  0.65864270000E+03 0.  0.
    8880022    1    1    2    0    0 -0.10508297889E+04  0.31092803834E+03  0.80707779407E+03  0.13695567564E+04  0.15294330000E+03 0.  0.
<mgrwt>
<rscale>  0 0.12331863E+04</rscale>
<asrwt>0</asrwt>
<pdfrwt beam="1">  1        2 0.17878991E+00 0.12785655E+04</pdfrwt>
<pdfrwt beam="2">  1       -2 0.23880882E+00 0.12785655E+04</pdfrwt>
<totfact> 0.14503932E+00</totfact>
</mgrwt>
</event>
<event>
 4    1  0.3032637E-007  0.8603544E+03  0.7818608E-02  0.9592933E-01
         -2   -1    0    0    0  501 -0.00000000000E+00  0.00000000000E+00  0.75348990480E+03  0.75348990481E+03  0.25500000000E-02 0.  1.
          2   -1    0    0  501    0  0.00000000000E+00 -0.00000000000E+00 -0.12734614833E+04  0.12734614833E+04  0.25500000000E-02 0. -1.
    8880023    1    1    2    0    0 -0.19021025610E+03  0.51982646596E+03  0.39499486825E+03  0.94669459090E+03  0.65864270000E+03 0.  1.
    8880022    1    1    2    0    0  0.19021025610E+03 -0.51982646596E+03 -0.91496644678E+03  0.10802567972E+04  0.15294330000E+03 0.  0.
<mgrwt>
<rscale>  0 0.77765669E+03</rscale>
<asrwt>0</asrwt>
<pdfrwt beam="1">  1        2 0.19591715E+00 0.86035441E+03</pdfrwt>
<pdfrwt beam="2">  1       -2 0.11592152E+00 0.86035441E+03</pdfrwt>
<totfact> 0.99818802E+00</totfact>
</mgrwt>
</event>
<event>
 4    1  0.3032637E-007  0.8470863E+03  0.7818608E-02  0.9616960E-01
         -2   -1    0    0    0  501 -0.00000000000E+00  0.00000000000E+00  0.52246009102E+03  0.52246009102E+03  0.25500000000E-02 0.  1.
          2   -1    0    0  501    0  0.00000000000E+00 -0.00000000000E+00 -0.16487318012E+04  0.16487318012E+04  0.25500000000E-02 0. -1.
    8880023    1    1    2    0    0 -0.38214663637E+03 -0.37109165463E+03  0.72832948370E+02  0.85021168685E+03  0.65864270000E+03 0.  0.
    8880022    1    1    2    0    0  0.38214663637E+03  0.37109165463E+03 -0.11991046586E+04  0.13209802054E+04  0.15294330000E+03 0. -1.
<mgrwt>
<rscale>  0 0.76183729E+03</rscale>
<asrwt>0</asrwt>
<pdfrwt beam="1">  1        2 0.25365104E+00 0.84708634E+03</pdfrwt>
<pdfrwt beam="2">  1       -2 0.80378476E-01 0.84708634E+03</pdfrwt>
<totfact> 0.14536585E+01</totfact>
</mgrwt>
</event>
<event>
 4    1  0.4055172E-007  0.9462794E+03  0.7818608E-02  0.9455487E-01
         -2   -1    0    0    0  501 -0.00000000000E+00  0.00000000000E+00  0.14053461302E+04  0.14053461302E+04  0.25500000000E-02 0.  1.
          2   -1    0    0  501    0  0.00000000000E+00 -0.00000000000E+00 -0.19876662360E+04  0.19876662360E+04  0.25500000000E-02 0. -1.
    8880023    1    1    2    0    0  0.43268726136E+02 -0.67805781193E+03  0.11715199771E+04  0.15059561222E+04  0.65864270000E+03 0.  1.
    8880022    1    1    2    0    0 -0.43268726136E+02  0.67805781193E+03 -0.17538400828E+04  0.18870562440E+04  0.15294330000E+03 0.  0.
<mgrwt>
<rscale>  0 0.87646627E+03</rscale>
<asrwt>0</asrwt>
<pdfrwt beam="1">  1        2 0.30579481E+00 0.94627944E+03</pdfrwt>
<pdfrwt beam="2">  1       -2 0.21620709E+00 0.94627944E+03</pdfrwt>
<totfact> 0.71511297E-01</totfact>
</mgrwt>
</event>
<event>
 4    1  0.3032637E-007  0.7163907E+03  0.7818608E-02  0.9934993E-01
         -2   -1    0    0    0  501 -0.00000000000E+00  0.00000000000E+00  0.26715793240E+03  0.26715793241E+03  0.25500000000E-02 0.  1.
          2   -1    0    0  501    0  0.00000000000E+00 -0.00000000000E+00 -0.26457370851E+04  0.26457370851E+04  0.25500000000E-02 0. -1.
    8880023    1    1    2    0    0  0.12463718081E+03  0.25272701655E+03 -0.24766144318E+03  0.75799193165E+03  0.65864270000E+03 0.  1.
    8880022    1    1    2    0    0 -0.12463718081E+03 -0.25272701655E+03 -0.21309177096E+04  0.21549030859E+04  0.15294330000E+03 0.  0.
<mgrwt>
<rscale>  0 0.58594925E+03</rscale>
<asrwt>0</asrwt>
<pdfrwt beam="1">  1        2 0.40703646E+00 0.71639066E+03</pdfrwt>
<pdfrwt beam="2">  1       -2 0.41101222E-01 0.71639066E+03</pdfrwt>
<totfact> 0.16935826E+01</totfact>
</mgrwt>
</event>
<event>
 4    1  0.4250853E-007  0.8005504E+03  0.7818608E-02  0.9709607E-01
         -2   -1    0    0    0  501 -0.00000000000E+00  0.00000000000E+00  0.10486845546E+04  0.10486845546E+04  0.25500000000E-02 0.  1.
          2   -1    0    0  501    0  0.00000000000E+00 -0.00000000000E+00 -0.20286428013E+04  0.20286428013E+04  0.25500000000E-02 0. -1.
    8880023    1    1    2    0    0  0.25437829964E+03 -0.37730950552E+03  0.86049087963E+03  0.11752980654E+04  0.65864270000E+03 0.  1.
    8880022    1    1    2    0    0 -0.25437829964E+03  0.37730950552E+03 -0.18404491263E+04  0.19020292905E+04  0.15294330000E+03 0.  0.
<mgrwt>
<rscale>  0 0.70447655E+03</rscale>
<asrwt>0</asrwt>
<pdfrwt beam="1">  1        2 0.31209889E+00 0.80055043E+03</pdfrwt>
<pdfrwt beam="2">  1       -2 0.16133609E+00 0.80055043E+03</pdfrwt>
<totfact> 0.16334559E+00</totfact>
</mgrwt>
</event>
<event>
 4    1  0.3032637E-007  0.8267945E+03  0.7818608E-02  0.9655602E-01
         -2   -1    0    0    0  501 -0.00000000000E+00  0.00000000000E+00  0.65088137042E+03  0.65088137043E+03  0.25500000000E-02 0.  1.
          2   -1    0    0  501    0  0.00000000000E+00 -0.00000000000E+00 -0.13884514208E+04  0.13884514208E+04  0.25500000000E-02 0. -1.
    8880023    1    1    2    0    0 -0.28010085166E+03  0.41391122448E+03  0.29839293752E+03  0.87899234370E+03  0.65864270000E+03 0.  1.
    8880022    1    1    2    0    0  0.28010085166E+03 -0.41391122448E+03 -0.10359629879E+04  0.11603404475E+04  0.15294330000E+03 0.  0.
<mgrwt>
<rscale>  0 0.73722907E+03</rscale>
<asrwt>0</asrwt>
<pdfrwt beam="1">  1        2 0.21360791E+00 0.82679453E+03</pdfrwt>
<pdfrwt beam="2">  1       -2 0.10013560E+00 0.82679453E+03</pdfrwt>
<totfact> 0.12254976E+01</totfact>
</mgrwt>
</event>
<event>
 4    1  0.3032637E-007  0.1900941E+04  0.7818608E-02  0.8668663E-01
          2   -1    0    0  501    0  0.00000000000E+00  0.00000000000E+00  0.26098499876E+04  0.26098499876E+04  0.25500000000E-02 0. -1.
         -2   -1    0    0    0  501 -0.00000000000E+00 -0.00000000000E+00 -0.21038786217E+04  0.21038786217E+04  0.25500000000E-02 0.  1.
    8880023    1    1    2    0    0  0.32358255773E+03 -0.17535846315E+04 -0.11944076985E+04  0.22450355650E+04  0.65864270000E+03 0.  0.
    8880022    1    1    2    0    0 -0.32358255773E+03  0.17535846315E+04  0.17003790645E+04  0.24686930444E+04  0.15294330000E+03 0.  0.
<mgrwt>
<rscale>  0 0.18725079E+04</rscale>
<asrwt>0</asrwt>
<pdfrwt beam="1">  1        2 0.40151538E+00 0.19009405E+04</pdfrwt>
<pdfrwt beam="2">  1       -2 0.32367364E+00 0.19009405E+04</pdfrwt>
<totfact> 0.61003287E-02</totfact>
</mgrwt>
</event>
<event>
 4    1  0.3032637E-007  0.7047666E+03  0.7818608E-02  0.9977974E-01
          2   -1    0    0  501    0  0.00000000000E+00  0.00000000000E+00  0.23254251338E+04  0.23254251339E+04  0.25500000000E-02 0. -1.
         -2   -1    0    0    0  501 -0.00000000000E+00 -0.00000000000E+00 -0.16169853253E+03  0.16169853255E+03  0.25500000000E-02 0.  1.
    8880023    1    1    2    0    0  0.49523631912E+02 -0.24583145862E+03  0.69678083280E+03  0.99105975167E+03  0.65864270000E+03 0.  1.
    8880022    1    1    2    0    0 -0.49523631912E+02  0.24583145862E+03  0.14669457685E+04  0.14960639147E+04  0.15294330000E+03 0.  0.
<mgrwt>
<rscale>  0 0.56626676E+03</rscale>
<asrwt>0</asrwt>
<pdfrwt beam="1">  1        2 0.35775768E+00 0.70476656E+03</pdfrwt>
<pdfrwt beam="2">  1       -2 0.24876700E-01 0.70476656E+03</pdfrwt>
<totfact> 0.66033755E+01</totfact>
</mgrwt>
</event>
<event>
 4    1  0.3465773E-007  0.1233005E+04  0.7818608E-02  0.9125688E-01
          2   -1    0    0  501    0  0.00000000000E+00  0.00000000000E+00  0.23535682392E+04  0.23535682392E+04  0.25500000000E-02 0. -1.
         -2   -1    0    0    0  501 -0.00000000000E+00 -0.00000000000E+00 -0.20635679004E+04  0.20635679004E+04  0.25500000000E-02 0.  1.
    8880023    1    1    2    0    0  0.82251356273E+03 -0.64028385365E+03 -0.17385111902E+04  0.21313665426E+04  0.65864270000E+03 0.  1.
    8880022    1    1    2    0    0 -0.82251356273E+03  0.64028385365E+03  0.20285115290E+04  0.22857695970E+04  0.15294330000E+03 0.  0.
<mgrwt>
<rscale>  0 0.11854504E+04</rscale>
<asrwt>0</asrwt>
<pdfrwt beam="1">  1        2 0.36208742E+00 0.12330053E+04</pdfrwt>
<pdfrwt beam="2">  1       -2 0.31747199E+00 0.12330053E+04</pdfrwt>
<totfact> 0.10237677E-01</totfact>
</mgrwt>
</event>
<event>
 4    1  0.3032637E-007  0.9212669E+03  0.7818608E-02  0.9492719E-01
         -2   -1    0    0    0  501 -0.00000000000E+00  0.00000000000E+00  0.50931022956E+03  0.50931022957E+03  0.25500000000E-02 0.  1.
          2   -1    0    0  501    0  0.00000000000E+00 -0.00000000000E+00 -0.17714782253E+04  0.17714782253E+04  0.25500000000E-02 0. -1.
    8880023    1    1    2    0    0  0.11255204845E+03 -0.63423535355E+03 -0.78570753152E+02  0.92461127876E+03  0.65864270000E+03 0.  1.
    8880022    1    1    2    0    0 -0.11255204845E+03  0.63423535355E+03 -0.11835972426E+04  0.13561771761E+04  0.15294330000E+03 0.  0.
<mgrwt>
<rscale>  0 0.84822735E+03</rscale>
<asrwt>0</asrwt>
<pdfrwt beam="1">  1        2 0.27253511E+00 0.92126687E+03</pdfrwt>
<pdfrwt beam="2">  1       -2 0.78355421E-01 0.92126687E+03</pdfrwt>
<totfact> 0.13066189E+01</totfact>
</mgrwt>
</event>
<event>
 4    1  0.3032637E-007  0.8524978E+03  0.7818608E-02  0.9607050E-01
         -2   -1    0    0    0  501 -0.00000000000E+00  0.00000000000E+00  0.10288875284E+04  0.10288875284E+04  0.25500000000E-02 0.  1.
          2   -1    0    0  501    0  0.00000000000E+00 -0.00000000000E+00 -0.15266369306E+04  0.15266369306E+04  0.25500000000E-02 0. -1.
    8880023    1    1    2    0    0  0.34839169026E+03  0.41420473337E+03  0.78250064817E+03  0.11571775152E+04  0.65864270000E+03 0.  1.
    8880022    1    1    2    0    0 -0.34839169026E+03 -0.41420473337E+03 -0.12802500503E+04  0.13983469438E+04  0.15294330000E+03 0.  0.
<mgrwt>
<rscale>  0 0.76831302E+03</rscale>
<asrwt>0</asrwt>
<pdfrwt beam="1">  1        2 0.23486722E+00 0.85249782E+03</pdfrwt>
<pdfrwt beam="2">  1       -2 0.15829039E+00 0.85249782E+03</pdfrwt>
<totfact> 0.32183169E+00</totfact>
</mgrwt>
</event>
<event>
 4    1  0.3032637E-007  0.6793979E+03  0.7818608E-02  0.1009666E+00
          2   -1    0    0  501    0  0.00000000000E+00  0.00000000000E+00  0.95296699162E+03  0.95296699162E+03  0.25500000000E-02 0. -1.
         -2   -1    0    0    0  501 -0.00000000000E+00 -0.00000000000E+00 -0.33658905936E+03  0.33658905937E+03  0.25500000000E-02 0.  1.
    8880023    1    1    2    0    0 -0.15651887181E+03  0.57211897144E+02  0.51820004345E+02  0.68137132132E+03  0.65864270000E+03 0.  0.
    8880022    1    1    2    0    0  0.15651887181E+03 -0.57211897144E+02  0.56455792792E+03  0.60818472966E+03  0.15294330000E+03 0.  0.
<mgrwt>
<rscale>  0 0.51607484E+03</rscale>
<asrwt>0</asrwt>
<pdfrwt beam="1">  1        2 0.14661031E+00 0.67939794E+03</pdfrwt>
<pdfrwt beam="2">  1       -2 0.51782933E-01 0.67939794E+03</pdfrwt>
<totfact> 0.96980067E+01</totfact>
</mgrwt>
</event>
<event>
 4    1  0.3032637E-007  0.7008774E+03  0.7818608E-02  0.9993581E-01
          2   -1    0    0  501    0  0.00000000000E+00  0.00000000000E+00  0.42369335888E+03  0.42369335889E+03  0.25500000000E-02 0. -1.
         -2   -1    0    0    0  501 -0.00000000000E+00 -0.00000000000E+00 -0.21002639715E+04  0.21002639715E+04  0.25500000000E-02 0.  1.
    8880023    1    1    2    0    0  0.20465124893E+02  0.23874700655E+03 -0.19846449543E+04  0.21047671499E+04  0.65864270000E+03 0.  1.
    8880022    1    1    2    0    0 -0.20465124893E+02 -0.23874700655E+03  0.30807434162E+03  0.41919018053E+03  0.15294330000E+03 0.  0.
<mgrwt>
<rscale>  0 0.55932612E+03</rscale>
<asrwt>0</asrwt>
<pdfrwt beam="1">  1        2 0.65183595E-01 0.70087742E+03</pdfrwt>
<pdfrwt beam="2">  1       -2 0.32311753E+00 0.70087742E+03</pdfrwt>
<totfact> 0.18007639E+00</totfact>
</mgrwt>
</event>
<event>
 4    1  0.3032637E-007  0.1021186E+04  0.7818608E-02  0.9354350E-01
         -2   -1    0    0    0  501 -0.00000000000E+00  0.00000000000E+00  0.51431752163E+03  0.51431752164E+03  0.25500000000E-02 0.  1.
          2   -1    0    0  501    0  0.00000000000E+00 -0.00000000000E+00 -0.21830570344E+04  0.21830570344E+04  0.25500000000E-02 0. -1.
    8880023    1    1    2    0    0  0.55076711262E+03 -0.55287044681E+03 -0.21983357979E+03  0.10445798928E+04  0.65864270000E+03 0.  1.
    8880022    1    1    2    0    0 -0.55076711262E+03  0.55287044681E+03 -0.14489059330E+04  0.16527946633E+04  0.15294330000E+03 0.  0.
<mgrwt>
<rscale>  0 0.95929614E+03</rscale>
<asrwt>0</asrwt>
<pdfrwt beam="1">  1        2 0.33585492E+00 0.10211858E+04</pdfrwt>
<pdfrwt beam="2">  1       -2 0.79125774E-01 0.10211858E+04</pdfrwt>
<totfact> 0.74961706E+00</totfact>
</mgrwt>
</event>
<event>
 4    1  0.3032637E-007  0.8009074E+03  0.7818608E-02  0.9708837E-01
          2   -1    0    0  501    0  0.00000000000E+00  0.00000000000E+00  0.43018022932E+04  0.43018022932E+04  0.25500000000E-02 0. -1.
         -2   -1    0    0    0  501 -0.00000000000E+00 -0.00000000000E+00 -0.95699083555E+02  0.95699083589E+02  0.25500000000E-02 0.  1.
    8880023    1    1    2    0    0 -0.45515006400E+03 -0.21930214590E+02  0.25184196075E+04  0.26427050613E+04  0.65864270000E+03 0. -1.
    8880022    1    1    2    0    0  0.45515006400E+03  0.21930214590E+02  0.16876836021E+04  0.17547963155E+04  0.15294330000E+03 0.  1.
<mgrwt>
<rscale>  0 0.70493045E+03</rscale>
<asrwt>0</asrwt>
<pdfrwt beam="1">  1        2 0.66181568E+00 0.80090744E+03</pdfrwt>
<pdfrwt beam="2">  1       -2 0.14722937E-01 0.80090744E+03</pdfrwt>
<totfact> 0.75642248E+00</totfact>
</mgrwt>
</event>
<event>
 4    1  0.3032637E-007  0.1052382E+04  0.7818608E-02  0.9316024E-01
          2   -1    0    0  501    0  0.00000000000E+00  0.00000000000E+00  0.20520960147E+04  0.20520960147E+04  0.25500000000E-02 0. -1.
         -2   -1    0    0    0  501 -0.00000000000E+00 -0.00000000000E+00 -0.55113196202E+03  0.55113196202E+03  0.25500000000E-02 0.  1.
    8880023    1    1    2    0    0  0.72639872712E+03 -0.38215423742E+03  0.22148874252E+03  0.10754368607E+04  0.65864270000E+03 0.  1.
    8880022    1    1    2    0    0 -0.72639872712E+03  0.38215423742E+03  0.12794753101E+04  0.15277911160E+04  0.15294330000E+03 0.  0.
<mgrwt>
<rscale>  0 0.99320971E+03</rscale>
<asrwt>0</asrwt>
<pdfrwt beam="1">  1        2 0.31570708E+00 0.10523817E+04</pdfrwt>
<pdfrwt beam="2">  1       -2 0.84789533E-01 0.10523817E+04</pdfrwt>
<totfact> 0.75456883E+00</totfact>
</mgrwt>
</event>
<event>
 4    1  0.5865347E-007  0.9173439E+03  0.7818608E-02  0.9498744E-01
          2   -1    0    0  501    0  0.00000000000E+00  0.00000000000E+00  0.25770362044E+04  0.25770362044E+04  0.25500000000E-02 0. -1.
         -2   -1    0    0    0  501 -0.00000000000E+00 -0.00000000000E+00 -0.16439069730E+04  0.16439069730E+04  0.25500000000E-02 0.  1.
    8880023    1    1    2    0    0  0.63186293793E+03  0.91971678807E+02 -0.14683358616E+04  0.17313376247E+04  0.65864270000E+03 0.  0.
    8880022    1    1    2    0    0 -0.63186293793E+03 -0.91971678807E+02  0.24014650930E+04  0.24896055527E+04  0.15294330000E+03 0.  0.
<mgrwt>
<rscale>  0 0.84376504E+03</rscale>
<asrwt>0</asrwt>
<pdfrwt beam="1">  1        2 0.39646711E+00 0.91734387E+03</pdfrwt>
<pdfrwt beam="2">  1       -2 0.25290877E+00 0.91734387E+03</pdfrwt>
<totfact> 0.19946411E-01</totfact>
</mgrwt>
</event>
<event>
 4    1  0.3032637E-007  0.1023281E+04  0.7818608E-02  0.9351714E-01
          2   -1    0    0  501    0  0.00000000000E+00  0.00000000000E+00  0.27430693316E+04  0.27430693316E+04  0.25500000000E-02 0. -1.
         -2   -1    0    0    0  501 -0.00000000000E+00 -0.00000000000E+00 -0.43274997994E+03  0.43274997995E+03  0.25500000000E-02 0.  1.
    8880023    1    1    2    0    0 -0.73812452298E+03  0.26165881022E+03  0.38781782563E+03  0.10943061804E+04  0.65864270000E+03 0.  0.
    8880022    1    1    2    0    0  0.73812452298E+03 -0.26165881022E+03  0.19225015260E+04  0.20815131311E+04  0.15294330000E+03 0.  0.
<mgrwt>
<rscale>  0 0.96158270E+03</rscale>
<asrwt>0</asrwt>
<pdfrwt beam="1">  1        2 0.42201066E+00 0.10232807E+04</pdfrwt>
<pdfrwt beam="2">  1       -2 0.66576921E-01 0.10232807E+04</pdfrwt>
<totfact> 0.52560764E+00</totfact>
</mgrwt>
</event>
<event>
 4    1  0.3032637E-007  0.7728372E+03  0.7818608E-02  0.9772940E-01
          2   -1    0    0  501    0  0.00000000000E+00  0.00000000000E+00  0.10606053066E+04  0.10606053066E+04  0.25500000000E-02 0. -1.
         -2   -1    0    0    0  501 -0.00000000000E+00 -0.00000000000E+00 -0.91629511801E+03  0.91629511801E+03  0.25500000000E-02 0.  1.
    8880023    1    1    2    0    0 -0.84406365255E+02 -0.39540199459E+03 -0.69078263547E+03  0.10365606724E+04  0.65864270000E+03 0.  0.
    8880022    1    1    2    0    0  0.84406365255E+02  0.39540199459E+03  0.83509282407E+03  0.94033975224E+03  0.15294330000E+03 0.  0.
<mgrwt>
<rscale>  0 0.66835196E+03</rscale>
<asrwt>0</asrwt>
<pdfrwt beam="1">  1        2 0.16317005E+00 0.77283723E+03</pdfrwt>
<pdfrwt beam="2">  1       -2 0.14096848E+00 0.77283723E+03</pdfrwt>
<totfact> 0.82604563E+00</totfact>
</mgrwt>
</event>
<event>
 4    1  0.3032637E-007  0.6708710E+03  0.7818608E-02  0.1015046E+00
         -2   -1    0    0    0  501 -0.00000000000E+00  0.00000000000E+00  0.46281008538E+03  0.46281008539E+03  0.25500000000E-02 0.  1.
          2   -1    0    0  501    0  0.00000000000E+00 -0.00000000000E+00 -0.16797953205E+04  0.16797953205E+04  0.25500000000E-02 0. -1.
    8880023    1    1    2    0    0  0.75768107042E+02  0.10255216051E+03  0.20908704492E+03  0.70269861981E+03  0.65864270000E+03 0.  1.
    8880022    1    1    2    0    0 -0.75768107042E+02 -0.10255216051E+03 -0.14260722800E+04  0.14399067861E+04  0.15294330000E+03 0.  0.
<mgrwt>
<rscale>  0 0.49517518E+03</rscale>
<asrwt>0</asrwt>
<pdfrwt beam="1">  1        2 0.25843005E+00 0.67087104E+03</pdfrwt>
<pdfrwt beam="2">  1       -2 0.71201553E-01 0.67087104E+03</pdfrwt>
<totfact> 0.18722031E+01</totfact>
</mgrwt>
</event>
<event>
 4    1  0.3032637E-007  0.7524287E+03  0.7818608E-02  0.9825118E-01
         -2   -1    0    0    0  501 -0.00000000000E+00  0.00000000000E+00  0.37119029261E+03  0.37119029261E+03  0.25500000000E-02 0.  1.
          2   -1    0    0  501    0  0.00000000000E+00 -0.00000000000E+00 -0.23103444351E+04  0.23103444351E+04  0.25500000000E-02 0. -1.
    8880023    1    1    2    0    0  0.27641303806E+03 -0.23650488033E+03 -0.52727948742E+02  0.75427393490E+03  0.65864270000E+03 0.  1.
    8880022    1    1    2    0    0 -0.27641303806E+03  0.23650488033E+03 -0.18864261937E+04  0.19272607928E+04  0.15294330000E+03 0.  0.
<mgrwt>
<rscale>  0 0.64031795E+03</rscale>
<asrwt>0</asrwt>
<pdfrwt beam="1">  1        2 0.35543760E+00 0.75242869E+03</pdfrwt>
<pdfrwt beam="2">  1       -2 0.57106200E-01 0.75242869E+03</pdfrwt>
<totfact> 0.13397927E+01</totfact>
</mgrwt>
</event>
<event>
 4    1  0.3032637E-007  0.9709338E+03  0.7818608E-02  0.9420614E-01
         -2   -1    0    0    0  501 -0.00000000000E+00  0.00000000000E+00  0.17728387034E+04  0.17728387034E+04  0.25500000000E-02 0.  1.
          2   -1    0    0  501    0  0.00000000000E+00 -0.00000000000E+00 -0.91109020505E+03  0.91109020506E+03  0.25500000000E-02 0. -1.
    8880023    1    1    2    0    0 -0.56369991703E+03  0.43720095742E+03  0.14511518115E+04  0.17460108991E+04  0.65864270000E+03 0.  0.
    8880022    1    1    2    0    0  0.56369991703E+03 -0.43720095742E+03 -0.58940331316E+03  0.93791800932E+03  0.15294330000E+03 0.  0.
<mgrwt>
<rscale>  0 0.90398487E+03</rscale>
<asrwt>0</asrwt>
<pdfrwt beam="1">  1        2 0.14016772E+00 0.97093382E+03</pdfrwt>
<pdfrwt beam="2">  1       -2 0.27274441E+00 0.97093382E+03</pdfrwt>
<totfact> 0.13491873E+00</totfact>
</mgrwt>
</event>
<event>
 4    1  0.3032637E-007  0.1111563E+04  0.7818608E-02  0.9248290E-01
          2   -1    0    0  501    0  0.00000000000E+00  0.00000000000E+00  0.11587653156E+04  0.11587653156E+04  0.25500000000E-02 0. -1.
         -2   -1    0    0    0  501 -0.00000000000E+00 -0.00000000000E+00 -0.11758720233E+04  0.11758720233E+04  0.25500000000E-02 0.  1.
    8880023    1    1    2    0    0  0.87313459555E+03 -0.19849167690E+03 -0.59224160590E+03  0.12594932686E+04  0.65864270000E+03 0.  0.
    8880022    1    1    2    0    0 -0.87313459555E+03  0.19849167690E+03  0.57513489812E+03  0.10751440703E+04  0.15294330000E+03 0.  0.
<mgrwt>
<rscale>  0 0.10568603E+04</rscale>
<asrwt>0</asrwt>
<pdfrwt beam="1">  1        2 0.17827159E+00 0.11115634E+04</pdfrwt>
<pdfrwt beam="2">  1       -2 0.18090339E+00 0.11115634E+04</pdfrwt>
<totfact> 0.35125414E+00</totfact>
</mgrwt>
</event>
<event>
 4    1  0.3032637E-007  0.1397946E+04  0.7818608E-02  0.8985280E-01
          2   -1    0    0  501    0  0.00000000000E+00  0.00000000000E+00  0.25799295175E+04  0.25799295175E+04  0.25500000000E-02 0. -1.
         -2   -1    0    0    0  501 -0.00000000000E+00 -0.00000000000E+00 -0.10320714730E+04  0.10320714730E+04  0.25500000000E-02 0.  1.
    8880023    1    1    2    0    0 -0.11511430092E+04  0.44194213090E+03 -0.25643234772E+03  0.14212708503E+04  0.65864270000E+03 0.  0.
    8880022    1    1    2    0    0  0.11511430092E+04 -0.44194213090E+03  0.18042903922E+04  0.21907301402E+04  0.15294330000E+03 0.  0.
<mgrwt>
<rscale>  0 0.13573534E+04</rscale>
<asrwt>0</asrwt>
<pdfrwt beam="1">  1        2 0.39691223E+00 0.13979461E+04</pdfrwt>
<pdfrwt beam="2">  1       -2 0.15878023E+00 0.13979461E+04</pdfrwt>
<totfact> 0.76773332E-01</totfact>
</mgrwt>
</event>
<event>
 4    1  0.3454575E-007  0.9565221E+03  0.7818608E-02  0.9440792E-01
         -2   -1    0    0    0  501 -0.00000000000E+00  0.00000000000E+00  0.18621360839E+04  0.18621360839E+04  0.25500000000E-02 0.  1.
          2   -1    0    0  501    0  0.00000000000E+00 -0.00000000000E+00 -0.12384836725E+04  0.12384836725E+04  0.25500000000E-02 0. -1.
    8880023    1    1    2    0    0  0.17809547714E+03 -0.67037776978E+03  0.16174305386E+04  0.18790998129E+04  0.65864270000E+03 0.  1.
    8880022    1    1    2    0    0 -0.17809547714E+03  0.67037776978E+03 -0.99377812726E+03  0.12215199435E+04  0.15294330000E+03 0.  0.
<mgrwt>
<rscale>  0 0.88793389E+03</rscale>
<asrwt>0</asrwt>
<pdfrwt beam="1">  1        2 0.19053595E+00 0.95652212E+03</pdfrwt>
<pdfrwt beam="2">  1       -2 0.28648247E+00 0.95652212E+03</pdfrwt>
<totfact> 0.69680447E-01</totfact>
</mgrwt>
</event>
<event>
 4    1  0.3032637E-007  0.7137349E+03  0.7818608E-02  0.9944385E-01
          2   -1    0    0  501    0  0.00000000000E+00  0.00000000000E+00  0.16550475931E+04  0.16550475931E+04  0.25500000000E-02 0. -1.
         -2   -1    0    0    0  501 -0.00000000000E+00 -0.00000000000E+00 -0.17942234185E+03  0.17942234187E+03  0.25500000000E-02 0.  1.
    8880023    1    1    2    0    0  0.71060750665E+02 -0.26562682445E+03  0.71010315523E+03  0.10068087889E+04  0.65864270000E+03 0.  1.
    8880022    1    1    2    0    0 -0.71060750665E+02  0.26562682445E+03  0.76552209602E+03  0.82766114604E+03  0.15294330000E+03 0. -1.
<mgrwt>
<rscale>  0 0.58157600E+03</rscale>
<asrwt>0</asrwt>
<pdfrwt beam="1">  1        2 0.25462270E+00 0.71373486E+03</pdfrwt>
<pdfrwt beam="2">  1       -2 0.27603438E-01 0.71373486E+03</pdfrwt>
<totfact> 0.12707166E+02</totfact>
</mgrwt>
</event>
<event>
 4    1  0.3032637E-007  0.6823591E+03  0.7818608E-02  0.1008019E+00
         -2   -1    0    0    0  501 -0.00000000000E+00  0.00000000000E+00  0.59535517390E+03  0.59535517390E+03  0.25500000000E-02 0.  1.
          2   -1    0    0  501    0  0.00000000000E+00 -0.00000000000E+00 -0.19121625727E+04  0.19121625727E+04  0.25500000000E-02 0. -1.
    8880023    1    1    2    0    0 -0.17775074558E+03  0.14438651169E+02  0.38910468565E+03  0.78550395598E+03  0.65864270000E+03 0.  1.
    8880022    1    1    2    0    0  0.17775074558E+03 -0.14438651169E+02 -0.17059120845E+04  0.17220137906E+04  0.15294330000E+03 0.  0.
<mgrwt>
<rscale>  0 0.52269420E+03</rscale>
<asrwt>0</asrwt>
<pdfrwt beam="1">  1        2 0.29417885E+00 0.68235915E+03</pdfrwt>
<pdfrwt beam="2">  1       -2 0.91593105E-01 0.68235915E+03</pdfrwt>
<totfact> 0.79273180E+00</totfact>
</mgrwt>
</event>
<event>
 4    1  0.3032637E-007  0.8000759E+03  0.7818608E-02  0.9710632E-01
         -2   -1    0    0    0  501 -0.00000000000E+00  0.00000000000E+00  0.45573404581E+03  0.45573404582E+03  0.25500000000E-02 0.  1.
          2   -1    0    0  501    0  0.00000000000E+00 -0.00000000000E+00 -0.18865375379E+04  0.18865375379E+04  0.25500000000E-02 0. -1.
    8880023    1    1    2    0    0 -0.23141731219E+03  0.39084166220E+03 -0.16358148432E+04  0.18209919233E+04  0.65864270000E+03 0. -1.
    8880022    1    1    2    0    0  0.23141731219E+03 -0.39084166220E+03  0.20501135108E+03  0.52127966043E+03  0.15294330000E+03 0.  0.
<mgrwt>
<rscale>  0 0.70387278E+03</rscale>
<asrwt>0</asrwt>
<pdfrwt beam="1">  1        2 0.29023654E+00 0.80007586E+03</pdfrwt>
<pdfrwt beam="2">  1       -2 0.70112931E-01 0.80007586E+03</pdfrwt>
<totfact> 0.14670887E+01</totfact>
</mgrwt>
</event>
<event>
 4    1  0.3032637E-007  0.6694658E+03  0.7818608E-02  0.1016049E+00
         -2   -1    0    0    0  501 -0.00000000000E+00  0.00000000000E+00  0.31808965189E+03  0.31808965191E+03  0.25500000000E-02 0.  1.
          2   -1    0    0  501    0  0.00000000000E+00 -0.00000000000E+00 -0.13066936818E+04  0.13066936818E+04  0.25500000000E-02 0. -1.
    8880023    1    1    2    0    0  0.76647298476E+02  0.92192444409E+02 -0.55617137395E+02  0.67177207995E+03  0.65864270000E+03 0.  1.
    8880022    1    1    2    0    0 -0.76647298476E+02 -0.92192444409E+02 -0.93298689247E+03  0.95301125372E+03  0.15294330000E+03 0.  0.
<mgrwt>
<rscale>  0 0.49139846E+03</rscale>
<asrwt>0</asrwt>
<pdfrwt beam="1">  1        2 0.20102979E+00 0.66946580E+03</pdfrwt>
<pdfrwt beam="2">  1       -2 0.48936870E-01 0.66946580E+03</pdfrwt>
<totfact> 0.66469715E+01</totfact>
</mgrwt>
</event>
<event>
 4    1  0.3032637E-007  0.8929423E+03  0.7818608E-02  0.9537458E-01
         -2   -1    0    0    0  501 -0.00000000000E+00  0.00000000000E+00  0.63457245694E+03  0.63457245695E+03  0.25500000000E-02 0.  1.
          2   -1    0    0  501    0  0.00000000000E+00 -0.00000000000E+00 -0.24982969268E+04  0.24982969268E+04  0.25500000000E-02 0. -1.
    8880023    1    1    2    0    0 -0.19722899761E+03  0.56976882805E+03  0.25182043338E+03  0.92777127130E+03  0.65864270000E+03 0.  0.
    8880022    1    1    2    0    0  0.19722899761E+03 -0.56976882805E+03 -0.21155449033E+04  0.22050981125E+04  0.15294330000E+03 0.  0.
<mgrwt>
<rscale>  0 0.81577661E+03</rscale>
<asrwt>0</asrwt>
<pdfrwt beam="1">  1        2 0.38435337E+00 0.89294233E+03</pdfrwt>
<pdfrwt beam="2">  1       -2 0.97626533E-01 0.89294233E+03</pdfrwt>
<totfact> 0.31258165E+00</totfact>
</mgrwt>
</event>
<event>
 4    1  0.3032637E-007  0.1165967E+04  0.7818608E-02  0.9190936E-01
         -2   -1    0    0    0  501 -0.00000000000E+00  0.00000000000E+00  0.77919033348E+03  0.77919033349E+03  0.25500000000E-02 0.  1.
          2   -1    0    0  501    0  0.00000000000E+00 -0.00000000000E+00 -0.21162225478E+04  0.21162225478E+04  0.25500000000E-02 0. -1.
    8880023    1    1    2    0    0 -0.57852230631E+03  0.76875297404E+03  0.87918231059E+02  0.11692771338E+04  0.65864270000E+03 0.  1.
    8880022    1    1    2    0    0  0.57852230631E+03 -0.76875297404E+03 -0.14249504454E+04  0.17261357475E+04  0.15294330000E+03 0.  0.
<mgrwt>
<rscale>  0 0.11147475E+04</rscale>
<asrwt>0</asrwt>
<pdfrwt beam="1">  1        2 0.32557270E+00 0.11659672E+04</pdfrwt>
<pdfrwt beam="2">  1       -2 0.11987544E+00 0.11659672E+04</pdfrwt>
<totfact> 0.30045782E+00</totfact>
</mgrwt>
</event>
<event>
 4    1  0.3032637E-007  0.1450366E+04  0.7818608E-02  0.8945504E-01
         -2   -1    0    0    0  501 -0.00000000000E+00  0.00000000000E+00  0.10713352873E+04  0.10713352873E+04  0.25500000000E-02 0.  1.
          2   -1    0    0  501    0  0.00000000000E+00 -0.00000000000E+00 -0.32626844044E+04  0.32626844044E+04  0.25500000000E-02 0. -1.
    8880023    1    1    2    0    0  0.12041091277E+04 -0.46890459356E+03  0.33832787225E+03  0.14893039531E+04  0.65864270000E+03 0. -1.
    8880022    1    1    2    0    0 -0.12041091277E+04  0.46890459356E+03 -0.25296769894E+04  0.28447157386E+04  0.15294330000E+03 0.  0.
<mgrwt>
<rscale>  0 0.14115452E+04</rscale>
<asrwt>0</asrwt>
<pdfrwt beam="1">  1        2 0.50195144E+00 0.14503656E+04</pdfrwt>
<pdfrwt beam="2">  1       -2 0.16482082E+00 0.14503656E+04</pdfrwt>
<totfact> 0.26135149E-01</totfact>
</mgrwt>
</event>
<event>
 4    1  0.3032637E-007  0.9001476E+03  0.7818608E-02  0.9525795E-01
          2   -1    0    0  501    0  0.00000000000E+00  0.00000000000E+00  0.19740310213E+04  0.19740310213E+04  0.25500000000E-02 0. -1.
         -2   -1    0    0    0  501 -0.00000000000E+00 -0.00000000000E+00 -0.44089381472E+03  0.44089381473E+03  0.25500000000E-02 0.  1.
    8880023    1    1    2    0    0  0.59459380627E+03 -0.15137256337E+03  0.17528344571E+03  0.91705503651E+03  0.65864270000E+03 0.  1.
    8880022    1    1    2    0    0 -0.59459380627E+03  0.15137256337E+03  0.13578537609E+04  0.14978697995E+04  0.15294330000E+03 0.  0.
<mgrwt>
<rscale>  0 0.82408504E+03</rscale>
<asrwt>0</asrwt>
<pdfrwt beam="1">  1        2 0.30369708E+00 0.90014757E+03</pdfrwt>
<pdfrwt beam="2">  1       -2 0.67829818E-01 0.90014757E+03</pdfrwt>
<totfact> 0.13946402E+01</totfact>
</mgrwt>
</event>
<event>
 4    1  0.3032637E-007  0.7084766E+03  0.7818608E-02  0.9963702E-01
         -2   -1    0    0    0  501 -0.00000000000E+00  0.00000000000E+00  0.28906021077E+03  0.28906021078E+03  0.25500000000E-02 0.  1.
          2   -1    0    0  501    0  0.00000000000E+00 -0.00000000000E+00 -0.28119375858E+04  0.28119375858E+04  0.25500000000E-02 0. -1.
    8880023    1    1    2    0    0 -0.26033223723E+03  0.18866627876E+02 -0.16978315845E+03  0.72853644421E+03  0.65864270000E+03 0.  1.
    8880022    1    1    2    0    0  0.26033223723E+03 -0.18866627876E+02 -0.23530942166E+04  0.23724613524E+04  0.15294330000E+03 0.  0.
<mgrwt>
<rscale>  0 0.57270885E+03</rscale>
<asrwt>0</asrwt>
<pdfrwt beam="1">  1        2 0.43260576E+00 0.70847656E+03</pdfrwt>
<pdfrwt beam="2">  1       -2 0.44470803E-01 0.70847656E+03</pdfrwt>
<totfact> 0.11610791E+01</totfact>
</mgrwt>
</event>
<event>
 4    1  0.3032637E-007  0.6946332E+03  0.7818608E-02  0.1002024E+00
          2   -1    0    0  501    0  0.00000000000E+00  0.00000000000E+00  0.15232437926E+04  0.15232437926E+04  0.25500000000E-02 0. -1.
         -2   -1    0    0    0  501 -0.00000000000E+00 -0.00000000000E+00 -0.29071242577E+03  0.29071242578E+03  0.25500000000E-02 0.  1.
    8880023    1    1    2    0    0 -0.88191938498E+02  0.20230502259E+03  0.16606558625E+03  0.71420804069E+03  0.65864270000E+03 0.  1.
    8880022    1    1    2    0    0  0.88191938498E+02 -0.20230502259E+03  0.10664657806E+04  0.10997481777E+04  0.15294330000E+03 0.  0.
<mgrwt>
<rscale>  0 0.54771693E+03</rscale>
<asrwt>0</asrwt>
<pdfrwt beam="1">  1        2 0.23434521E+00 0.69463325E+03</pdfrwt>
<pdfrwt beam="2">  1       -2 0.44724987E-01 0.69463325E+03</pdfrwt>
<totfact> 0.59983439E+01</totfact>
</mgrwt>
</event>
<event>
 4    1  0.3032637E-007  0.1174928E+04  0.7818608E-02  0.9181888E-01
         -2   -1    0    0    0  501 -0.00000000000E+00  0.00000000000E+00  0.75447391570E+03  0.75447391570E+03  0.25500000000E-02 0.  1.
          2   -1    0    0  501    0  0.00000000000E+00 -0.00000000000E+00 -0.22091787004E+04  0.22091787004E+04  0.25500000000E-02 0. -1.
    8880023    1    1    2    0    0  0.89652447364E+03  0.37800736569E+03  0.37720434041E+02  0.11755333844E+04  0.65864270000E+03 0.  1.
    8880022    1    1    2    0    0 -0.89652447364E+03 -0.37800736569E+03 -0.14924252187E+04  0.17881192317E+04  0.15294330000E+03 0.  0.
<mgrwt>
<rscale>  0 0.11242348E+04</rscale>
<asrwt>0</asrwt>
<pdfrwt beam="1">  1        2 0.33987364E+00 0.11749280E+04</pdfrwt>
<pdfrwt beam="2">  1       -2 0.11607291E+00 0.11749280E+04</pdfrwt>
<totfact> 0.28854972E+00</totfact>
</mgrwt>
</event>
<event>
 4    1  0.3032637E-007  0.7512290E+03  0.7818608E-02  0.9828368E-01
          2   -1    0    0  501    0  0.00000000000E+00  0.00000000000E+00  0.48977360461E+04  0.48977360461E+04  0.25500000000E-02 0. -1.
         -2   -1    0    0    0  501 -0.00000000000E+00 -0.00000000000E+00 -0.16295907238E+03  0.16295907240E+03  0.25500000000E-02 0.  1.
    8880023    1    1    2    0    0 -0.22389134774E+03 -0.28356203690E+03  0.76714127233E+03  0.10737088536E+04  0.65864270000E+03 0.  1.
    8880022    1    1    2    0    0  0.22389134774E+03  0.28356203690E+03  0.39676357013E+04  0.39869862648E+04  0.15294330000E+03 0.  0.
<mgrwt>
<rscale>  0 0.63862129E+03</rscale>
<asrwt>0</asrwt>
<pdfrwt beam="1">  1        2 0.75349786E+00 0.75122897E+03</pdfrwt>
<pdfrwt beam="2">  1       -2 0.25070626E-01 0.75122897E+03</pdfrwt>
<totfact> 0.76156421E-01</totfact>
</mgrwt>
</event>
<event>
 4    1  0.3032637E-007  0.1263399E+04  0.7818608E-02  0.9097830E-01
         -2   -1    0    0    0  501 -0.00000000000E+00  0.00000000000E+00  0.37369599542E+04  0.37369599542E+04  0.25500000000E-02 0.  1.
          2   -1    0    0  501    0  0.00000000000E+00 -0.00000000000E+00 -0.11429656546E+04  0.11429656546E+04  0.25500000000E-02 0. -1.
    8880023    1    1    2    0    0  0.56804724771E+03 -0.91634523370E+03  0.33326639786E+04  0.35641023643E+04  0.65864270000E+03 0.  1.
    8880022    1    1    2    0    0 -0.56804724771E+03  0.91634523370E+03 -0.73866967899E+03  0.13158232445E+04  0.15294330000E+03 0.  0.
<mgrwt>
<rscale>  0 0.12173202E+04</rscale>
<asrwt>0</asrwt>
<pdfrwt beam="1">  1        2 0.17584087E+00 0.12633988E+04</pdfrwt>
<pdfrwt beam="2">  1       -2 0.57491693E+00 0.12633988E+04</pdfrwt>
<totfact> 0.12552021E-02</totfact>
</mgrwt>
</event>
<event>
 4    1  0.3032637E-007  0.8868173E+03  0.7818608E-02  0.9547534E-01
          2   -1    0    0  501    0  0.00000000000E+00  0.00000000000E+00  0.36278531567E+04  0.36278531567E+04  0.25500000000E-02 0. -1.
         -2   -1    0    0    0  501 -0.00000000000E+00 -0.00000000000E+00 -0.45013073003E+03  0.45013073004E+03  0.25500000000E-02 0.  1.
    8880023    1    1    2    0    0  0.21336669680E+03 -0.55417443817E+03  0.47311811710E+02  0.88807841378E+03  0.65864270000E+03 0.  0.
    8880022    1    1    2    0    0 -0.21336669680E+03  0.55417443817E+03  0.31304106150E+04  0.31899054730E+04  0.15294330000E+03 0.  0.
<mgrwt>
<rscale>  0 0.80868220E+03</rscale>
<asrwt>0</asrwt>
<pdfrwt beam="1">  1        2 0.55813129E+00 0.88681726E+03</pdfrwt>
<pdfrwt beam="2">  1       -2 0.69250878E-01 0.88681726E+03</pdfrwt>
<totfact> 0.13323514E+00</totfact>
</mgrwt>
</event>
<event>
 4    1  0.3032637E-007  0.1309917E+04  0.7818608E-02  0.9057043E-01
          2   -1    0    0  501    0  0.00000000000E+00  0.00000000000E+00  0.25577853780E+04  0.25577853780E+04  0.25500000000E-02 0. -1.
         -2   -1    0    0    0  501 -0.00000000000E+00 -0.00000000000E+00 -0.61657352237E+03  0.61657352238E+03  0.25500000000E-02 0.  1.
    8880023    1    1    2    0    0  0.64102221184E+03 -0.93336112787E+03  0.69212426936E+03  0.14815257951E+04  0.65864270000E+03 0.  0.
    8880022    1    1    2    0    0 -0.64102221184E+03  0.93336112787E+03  0.12490875862E+04  0.16928331052E+04  0.15294330000E+03 0.  0.
<mgrwt>
<rscale>  0 0.12659118E+04</rscale>
<asrwt>0</asrwt>
<pdfrwt beam="1">  1        2 0.39350544E+00 0.13099170E+04</pdfrwt>
<pdfrwt beam="2">  1       -2 0.94857465E-01 0.13099170E+04</pdfrwt>
<totfact> 0.29315121E+00</totfact>
</mgrwt>
</event>
<event>
 4    1  0.3032637E-007  0.7290149E+03  0.7818608E-02  0.9893185E-01
         -2   -1    0    0    0  501 -0.00000000000E+00  0.00000000000E+00  0.16813124909E+03  0.16813124911E+03  0.25500000000E-02 0.  1.
          2   -1    0    0  501    0  0.00000000000E+00 -0.00000000000E+00 -0.22319384983E+04  0.22319384983E+04  0.25500000000E-02 0. -1.
    8880023    1    1    2    0    0 -0.22521957206E+03  0.21663008882E+03 -0.77024662658E+03  0.10605387890E+04  0.65864270000E+03 0.  1.
    8880022    1    1    2    0    0  0.22521957206E+03 -0.21663008882E+03 -0.12935606226E+04  0.13395309583E+04  0.15294330000E+03 0.  0.
<mgrwt>
<rscale>  0 0.60592691E+03</rscale>
<asrwt>0</asrwt>
<pdfrwt beam="1">  1        2 0.34337513E+00 0.72901485E+03</pdfrwt>
<pdfrwt beam="2">  1       -2 0.25866348E-01 0.72901485E+03</pdfrwt>
<totfact> 0.69117396E+01</totfact>
</mgrwt>
</event>
<event>
 4    1  0.3032637E-007  0.8919426E+03  0.7818608E-02  0.9539092E-01
          2   -1    0    0  501    0  0.00000000000E+00  0.00000000000E+00  0.78095339665E+03  0.78095339665E+03  0.25500000000E-02 0. -1.
         -2   -1    0    0    0  501 -0.00000000000E+00 -0.00000000000E+00 -0.10451627370E+04  0.10451627370E+04  0.25500000000E-02 0.  1.
    8880023    1    1    2    0    0 -0.51981669398E+03 -0.30255897228E+03 -0.64254742933E+03  0.10992855554E+04  0.65864270000E+03 0.  1.
    8880022    1    1    2    0    0  0.51981669398E+03  0.30255897228E+03  0.37833808893E+03  0.72683057833E+03  0.15294330000E+03 0.  0.
<mgrwt>
<rscale>  0 0.81462065E+03</rscale>
<asrwt>0</asrwt>
<pdfrwt beam="1">  1        2 0.12014668E+00 0.89194256E+03</pdfrwt>
<pdfrwt beam="2">  1       -2 0.16079427E+00 0.89194256E+03</pdfrwt>
<totfact> 0.88537703E+00</totfact>
</mgrwt>
</event>
<event>
 4    1  0.3032637E-007  0.8019204E+03  0.7818608E-02  0.9706659E-01
          2   -1    0    0  501    0  0.00000000000E+00  0.00000000000E+00  0.18957903344E+04  0.18957903344E+04  0.25500000000E-02 0. -1.
         -2   -1    0    0    0  501 -0.00000000000E+00 -0.00000000000E+00 -0.35201349997E+03  0.35201349998E+03  0.25500000000E-02 0.  1.
    8880023    1    1    2    0    0 -0.37839865993E+03  0.25706130430E+03  0.20923268128E+03  0.82876690401E+03  0.65864270000E+03 0.  1.
    8880022    1    1    2    0    0  0.37839865993E+03 -0.25706130430E+03  0.13345441531E+04  0.14190369303E+04  0.15294330000E+03 0.  0.
<mgrwt>
<rscale>  0 0.70621691E+03</rscale>
<asrwt>0</asrwt>
<pdfrwt beam="1">  1        2 0.29166006E+00 0.80192036E+03</pdfrwt>
<pdfrwt beam="2">  1       -2 0.54155921E-01 0.80192036E+03</pdfrwt>
<totfact> 0.25107988E+01</totfact>
</mgrwt>
</event>
<event>
 4    1  0.3032637E-007  0.1443222E+04  0.7818608E-02  0.8950806E-01
          2   -1    0    0  501    0  0.00000000000E+00  0.00000000000E+00  0.25636595208E+04  0.25636595208E+04  0.25500000000E-02 0. -1.
         -2   -1    0    0    0  501 -0.00000000000E+00 -0.00000000000E+00 -0.32055851420E+04  0.32055851420E+04  0.25500000000E-02 0.  1.
    8880023    1    1    2    0    0 -0.11548074437E+04 -0.56169231706E+03  0.22090239551E+04  0.26386882217E+04  0.65864270000E+03 0.  0.
    8880022    1    1    2    0    0  0.11548074437E+04  0.56169231706E+03 -0.28509495763E+04  0.31305564411E+04  0.15294330000E+03 0.  0.
<mgrwt>
<rscale>  0 0.14041696E+04</rscale>
<asrwt>0</asrwt>
<pdfrwt beam="1">  1        2 0.39440915E+00 0.14432216E+04</pdfrwt>
<pdfrwt beam="2">  1       -2 0.49316695E+00 0.14432216E+04</pdfrwt>
<totfact> 0.54746115E-03</totfact>
</mgrwt>
</event>
<event>
 4    1  0.3032637E-007  0.7200362E+03  0.7818608E-02  0.9922464E-01
         -2   -1    0    0    0  501 -0.00000000000E+00  0.00000000000E+00  0.11352420821E+04  0.11352420821E+04  0.25500000000E-02 0.  1.
          2   -1    0    0  501    0  0.00000000000E+00 -0.00000000000E+00 -0.95920830047E+03  0.95920830047E+03  0.25500000000E-02 0. -1.
    8880023    1    1    2    0    0 -0.28909797473E+03  0.32622497990E+02  0.98566172050E+03  0.12206478198E+04  0.65864270000E+03 0.  1.
    8880022    1    1    2    0    0  0.28909797473E+03 -0.32622497990E+02 -0.80962793887E+03  0.87380256281E+03  0.15294330000E+03 0.  0.
<mgrwt>
<rscale>  0 0.59184849E+03</rscale>
<asrwt>0</asrwt>
<pdfrwt beam="1">  1        2 0.14757051E+00 0.72003616E+03</pdfrwt>
<pdfrwt beam="2">  1       -2 0.17465263E+00 0.72003616E+03</pdfrwt>
<totfact> 0.54191405E+00</totfact>
</mgrwt>
</event>
<event>
 4    1  0.3032637E-007  0.6926653E+03  0.7818608E-02  0.1002911E+00
         -2   -1    0    0    0  501 -0.00000000000E+00  0.00000000000E+00  0.92892168001E+03  0.92892168001E+03  0.25500000000E-02 0.  1.
          2   -1    0    0  501    0  0.00000000000E+00 -0.00000000000E+00 -0.12917286209E+04  0.12917286209E+04  0.25500000000E-02 0. -1.
    8880023    1    1    2    0    0  0.14414136456E+03 -0.15873961028E+03  0.78274293615E+03  0.10452137137E+04  0.65864270000E+03 0.  1.
    8880022    1    1    2    0    0 -0.14414136456E+03  0.15873961028E+03 -0.11455498771E+04  0.11754365873E+04  0.15294330000E+03 0.  0.
<mgrwt>
<rscale>  0 0.54392173E+03</rscale>
<asrwt>0</asrwt>
<pdfrwt beam="1">  1        2 0.19872748E+00 0.69266529E+03</pdfrwt>
<pdfrwt beam="2">  1       -2 0.14291103E+00 0.69266529E+03</pdfrwt>
<totfact> 0.58663199E+00</totfact>
</mgrwt>
</event>
<event>
 4    1  0.3032637E-007  0.1031068E+04  0.7818608E-02  0.9341994E-01
         -2   -1    0    0    0  501 -0.00000000000E+00  0.00000000000E+00  0.53020853933E+03  0.53020853934E+03  0.25500000000E-02 0.  1.
          2   -1    0    0  501    0  0.00000000000E+00 -0.00000000000E+00 -0.30755261851E+04  0.30755261851E+04  0.25500000000E-02 0. -1.
    8880023    1    1    2    0    0 -0.12903020739E+03  0.78271441392E+03 -0.10645896694E+03  0.10365492589E+04  0.65864270000E+03 0.  1.
    8880022    1    1    2    0    0  0.12903020739E+03 -0.78271441392E+03 -0.24388586788E+04  0.25691854656E+04  0.15294330000E+03 0.  0.
<mgrwt>
<rscale>  0 0.97007018E+03</rscale>
<asrwt>0</asrwt>
<pdfrwt beam="1">  1        2 0.47315786E+00 0.10310678E+04</pdfrwt>
<pdfrwt beam="2">  1       -2 0.81570547E-01 0.10310678E+04</pdfrwt>
<totfact> 0.21011500E+00</totfact>
</mgrwt>
</event>
<event>
 4    1  0.3032637E-007  0.1420258E+04  0.7818608E-02  0.8968100E-01
         -2   -1    0    0    0  501 -0.00000000000E+00  0.00000000000E+00  0.47326123882E+04  0.47326123882E+04  0.25500000000E-02 0.  1.
          2   -1    0    0  501    0  0.00000000000E+00 -0.00000000000E+00 -0.88000372148E+03  0.88000372148E+03  0.25500000000E-02 0. -1.
    8880023    1    1    2    0    0  0.93071943925E+03  0.84680737662E+03 -0.13665250948E+03  0.14268165693E+04  0.65864270000E+03 0.  0.
    8880022    1    1    2    0    0 -0.93071943925E+03 -0.84680737662E+03  0.39892611762E+04  0.41857995404E+04  0.15294330000E+03 0.  0.
<mgrwt>
<rscale>  0 0.13804403E+04</rscale>
<asrwt>0</asrwt>
<pdfrwt beam="1">  1        2 0.13538519E+00 0.14202576E+04</pdfrwt>
<pdfrwt beam="2">  1       -2 0.72809421E+00 0.14202576E+04</pdfrwt>
<totfact> 0.51533226E-03</totfact>
</mgrwt>
</event>
<event>
 4    1  0.3032637E-007  0.9948318E+03  0.7818608E-02  0.9388351E-01
         -2   -1    0    0    0  501 -0.00000000000E+00  0.00000000000E+00  0.72385621361E+03  0.72385621361E+03  0.25500000000E-02 0.  1.
          2   -1    0    0  501    0  0.00000000000E+00 -0.00000000000E+00 -0.33457350693E+04  0.33457350693E+04  0.25500000000E-02 0. -1.
    8880023    1    1    2    0    0 -0.27256110392E+03 -0.69396727521E+03  0.30883135954E+03  0.10416655650E+04  0.65864270000E+03 0.  0.
    8880022    1    1    2    0    0  0.27256110392E+03  0.69396727521E+03 -0.29307102152E+04  0.30279257179E+04  0.15294330000E+03 0.  0.
<mgrwt>
<rscale>  0 0.93040609E+03</rscale>
<asrwt>0</asrwt>
<pdfrwt beam="1">  1        2 0.51472846E+00 0.99483182E+03</pdfrwt>
<pdfrwt beam="2">  1       -2 0.11136250E+00 0.99483182E+03</pdfrwt>
<totfact> 0.68095396E-01</totfact>
</mgrwt>
</event>
<event>
 4    1  0.3032637E-007  0.9473962E+03  0.7818608E-02  0.9453870E-01
         -2   -1    0    0    0  501 -0.00000000000E+00  0.00000000000E+00  0.18650395046E+04  0.18650395046E+04  0.25500000000E-02 0.  1.
          2   -1    0    0  501    0  0.00000000000E+00 -0.00000000000E+00 -0.39823543424E+04  0.39823543424E+04  0.25500000000E-02 0. -1.
    8880023    1    1    2    0    0  0.61602474466E+03  0.29028062538E+03  0.17111045679E+04  0.19558727913E+04  0.65864270000E+03 0.  1.
    8880022    1    1    2    0    0 -0.61602474466E+03 -0.29028062538E+03 -0.38284194057E+04  0.38915210556E+04  0.15294330000E+03 0.  0.
<mgrwt>
<rscale>  0 0.87771912E+03</rscale>
<asrwt>0</asrwt>
<pdfrwt beam="1">  1        2 0.61266990E+00 0.94739619E+03</pdfrwt>
<pdfrwt beam="2">  1       -2 0.28692915E+00 0.94739619E+03</pdfrwt>
<totfact> 0.14505081E-02</totfact>
</mgrwt>
</event>
<event>
 4    1  0.3032637E-007  0.9646816E+03  0.7818608E-02  0.9429298E-01
         -2   -1    0    0    0  501 -0.00000000000E+00  0.00000000000E+00  0.50564236289E+03  0.50564236290E+03  0.25500000000E-02 0.  1.
          2   -1    0    0  501    0  0.00000000000E+00 -0.00000000000E+00 -0.17723478700E+04  0.17723478700E+04  0.25500000000E-02 0. -1.
    8880023    1    1    2    0    0 -0.70435103179E+03  0.26269520699E+02 -0.19184522423E+03  0.98357270195E+03  0.65864270000E+03 0.  1.
    8880022    1    1    2    0    0  0.70435103179E+03 -0.26269520699E+02 -0.10748602829E+04  0.12944175309E+04  0.15294330000E+03 0.  0.
<mgrwt>
<rscale>  0 0.89703313E+03</rscale>
<asrwt>0</asrwt>
<pdfrwt beam="1">  1        2 0.27266890E+00 0.96468164E+03</pdfrwt>
<pdfrwt beam="2">  1       -2 0.77791133E-01 0.96468164E+03</pdfrwt>
<totfact> 0.13202423E+01</totfact>
</mgrwt>
</event>
<event>
 4    1  0.3032637E-007  0.1302019E+04  0.7818608E-02  0.9063819E-01
         -2   -1    0    0    0  501 -0.00000000000E+00  0.00000000000E+00  0.96754225824E+03  0.96754225824E+03  0.25500000000E-02 0.  1.
          2   -1    0    0  501    0  0.00000000000E+00 -0.00000000000E+00 -0.31443210427E+04  0.31443210427E+04  0.25500000000E-02 0. -1.
    8880023    1    1    2    0    0  0.23993870790E+03 -0.10972107565E+04  0.34508322155E+03  0.13469724065E+04  0.65864270000E+03 0.  0.
    8880022    1    1    2    0    0 -0.23993870790E+03  0.10972107565E+04 -0.25218620061E+04  0.27648908945E+04  0.15294330000E+03 0.  0.
<mgrwt>
<rscale>  0 0.12576759E+04</rscale>
<asrwt>0</asrwt>
<pdfrwt beam="1">  1        2 0.48374169E+00 0.13020185E+04</pdfrwt>
<pdfrwt beam="2">  1       -2 0.14885266E+00 0.13020185E+04</pdfrwt>
<totfact> 0.41942891E-01</totfact>
</mgrwt>
</event>
<event>
 4    1  0.3032637E-007  0.7893292E+03  0.7818608E-02  0.9734362E-01
         -2   -1    0    0    0  501 -0.00000000000E+00  0.00000000000E+00  0.23827217836E+03  0.23827217838E+03  0.25500000000E-02 0.  1.
          2   -1    0    0  501    0  0.00000000000E+00 -0.00000000000E+00 -0.22419053232E+04  0.22419053232E+04  0.25500000000E-02 0. -1.
    8880023    1    1    2    0    0 -0.14468678094E+03 -0.41023903450E+03 -0.56838840943E+03  0.97267976243E+03  0.65864270000E+03 0.  1.
    8880022    1    1    2    0    0  0.14468678094E+03  0.41023903450E+03 -0.14352447354E+04  0.15074977391E+04  0.15294330000E+03 0.  0.
<mgrwt>
<rscale>  0 0.69007236E+03</rscale>
<asrwt>0</asrwt>
<pdfrwt beam="1">  1        2 0.34490850E+00 0.78932917E+03</pdfrwt>
<pdfrwt beam="2">  1       -2 0.36657260E-01 0.78932917E+03</pdfrwt>
<totfact> 0.35349227E+01</totfact>
</mgrwt>
</event>
<event>
 4    1  0.3032637E-007  0.6759588E+03  0.7818608E-02  0.1011709E+00
         -2   -1    0    0    0  501 -0.00000000000E+00  0.00000000000E+00  0.57241909568E+03  0.57241909568E+03  0.25500000000E-02 0.  1.
          2   -1    0    0  501    0  0.00000000000E+00 -0.00000000000E+00 -0.94669663703E+03  0.94669663704E+03  0.25500000000E-02 0. -1.
    8880023    1    1    2    0    0 -0.10430529086E+03 -0.11059142698E+03  0.35156505667E+03  0.76191748422E+03  0.65864270000E+03 0.  1.
    8880022    1    1    2    0    0  0.10430529086E+03  0.11059142698E+03 -0.72584259802E+03  0.75719824850E+03  0.15294330000E+03 0.  0.
<mgrwt>
<rscale>  0 0.50801177E+03</rscale>
<asrwt>0</asrwt>
<pdfrwt beam="1">  1        2 0.14564564E+00 0.67595877E+03</pdfrwt>
<pdfrwt beam="2">  1       -2 0.88064476E-01 0.67595877E+03</pdfrwt>
<totfact> 0.31015703E+01</totfact>
</mgrwt>
</event>
<event>
 4    1  0.3032637E-007  0.7623685E+03  0.7818608E-02  0.9799014E-01
         -2   -1    0    0    0  501 -0.00000000000E+00  0.00000000000E+00  0.75837618476E+03  0.75837618476E+03  0.25500000000E-02 0.  1.
          2   -1    0    0  501    0  0.00000000000E+00 -0.00000000000E+00 -0.14916778958E+04  0.14916778958E+04  0.25500000000E-02 0. -1.
    8880023    1    1    2    0    0 -0.31345340177E+03 -0.22168099466E+03  0.52498304019E+03  0.92564188390E+03  0.65864270000E+03 0.  1.
    8880022    1    1    2    0    0  0.31345340177E+03  0.22168099466E+03 -0.12582847512E+04  0.13244121967E+04  0.15294330000E+03 0.  0.
<mgrwt>
<rscale>  0 0.65415490E+03</rscale>
<asrwt>0</asrwt>
<pdfrwt beam="1">  1        2 0.22948891E+00 0.76236848E+03</pdfrwt>
<pdfrwt beam="2">  1       -2 0.11667326E+00 0.76236848E+03</pdfrwt>
<totfact> 0.74720202E+00</totfact>
</mgrwt>
</event>
<event>
 4    1  0.3032637E-007  0.7296762E+03  0.7818608E-02  0.9891109E-01
         -2   -1    0    0    0  501 -0.00000000000E+00  0.00000000000E+00  0.24827369646E+03  0.24827369647E+03  0.25500000000E-02 0.  1.
          2   -1    0    0  501    0  0.00000000000E+00 -0.00000000000E+00 -0.19832431116E+04  0.19832431116E+04  0.25500000000E-02 0. -1.
    8880023    1    1    2    0    0  0.12574280586E+03 -0.28776004426E+03 -0.36147791444E+03  0.81430558465E+03  0.65864270000E+03 0.  1.
    8880022    1    1    2    0    0 -0.12574280586E+03  0.28776004426E+03 -0.13734915007E+04  0.14172112234E+04  0.15294330000E+03 0.  0.
<mgrwt>
<rscale>  0 0.60694102E+03</rscale>
<asrwt>0</asrwt>
<pdfrwt beam="1">  1        2 0.30511431E+00 0.72967616E+03</pdfrwt>
<pdfrwt beam="2">  1       -2 0.38195955E-01 0.72967616E+03</pdfrwt>
<totfact> 0.45622110E+01</totfact>
</mgrwt>
</event>
<event>
 4    1  0.3032637E-007  0.1417558E+04  0.7818608E-02  0.8970158E-01
          2   -1    0    0  501    0  0.00000000000E+00  0.00000000000E+00  0.12914222030E+04  0.12914222030E+04  0.25500000000E-02 0. -1.
         -2   -1    0    0    0  501 -0.00000000000E+00 -0.00000000000E+00 -0.17036868976E+04  0.17036868976E+04  0.25500000000E-02 0.  1.
    8880023    1    1    2    0    0 -0.96783024324E+03  0.79935365649E+03 -0.85483830282E+03  0.16553611020E+04  0.65864270000E+03 0.  0.
    8880022    1    1    2    0    0  0.96783024324E+03 -0.79935365649E+03  0.44257360819E+03  0.13397479985E+04  0.15294330000E+03 0.  0.
<mgrwt>
<rscale>  0 0.13776490E+04</rscale>
<asrwt>0</asrwt>
<pdfrwt beam="1">  1        2 0.19868034E+00 0.14175584E+04</pdfrwt>
<pdfrwt beam="2">  1       -2 0.26210568E+00 0.14175584E+04</pdfrwt>
<totfact> 0.86079603E-01</totfact>
</mgrwt>
</event>
<event>
 4    1  0.3032637E-007  0.8654757E+03  0.7818608E-02  0.9583896E-01
          2   -1    0    0  501    0  0.00000000000E+00  0.00000000000E+00  0.16765624317E+04  0.16765624317E+04  0.25500000000E-02 0. -1.
         -2   -1    0    0    0  501 -0.00000000000E+00 -0.00000000000E+00 -0.40082860161E+03  0.40082860161E+03  0.25500000000E-02 0.  1.
    8880023    1    1    2    0    0 -0.99539586352E+02 -0.55256659342E+03  0.25470556888E+03  0.90217686874E+03  0.65864270000E+03 0.  0.
    8880022    1    1    2    0    0  0.99539586352E+02  0.55256659342E+03  0.10210282612E+04  0.11752141646E+04  0.15294330000E+03 0.  0.
<mgrwt>
<rscale>  0 0.78371250E+03</rscale>
<asrwt>0</asrwt>
<pdfrwt beam="1">  1        2 0.25793268E+00 0.86547569E+03</pdfrwt>
<pdfrwt beam="2">  1       -2 0.61665938E-01 0.86547569E+03</pdfrwt>
<totfact> 0.25023247E+01</totfact>
</mgrwt>
</event>
<event>
 4    1  0.3032637E-007  0.7426277E+03  0.7818608E-02  0.9852358E-01
         -2   -1    0    0    0  501 -0.00000000000E+00  0.00000000000E+00  0.74928296454E+03  0.74928296455E+03  0.25500000000E-02 0.  1.
          2   -1    0    0  501    0  0.00000000000E+00 -0.00000000000E+00 -0.19199604164E+04  0.19199604164E+04  0.25500000000E-02 0. -1.
    8880023    1    1    2    0    0  0.23842901502E+03 -0.24665225403E+03  0.53975353249E+03  0.91805762985E+03  0.65864270000E+03 0.  1.
    8880022    1    1    2    0    0 -0.23842901502E+03  0.24665225403E+03 -0.17104309843E+04  0.17511857511E+04  0.15294330000E+03 0.  0.
<mgrwt>
<rscale>  0 0.62626846E+03</rscale>
<asrwt>0</asrwt>
<pdfrwt beam="1">  1        2 0.29537852E+00 0.74262772E+03</pdfrwt>
<pdfrwt beam="2">  1       -2 0.11527430E+00 0.74262772E+03</pdfrwt>
<totfact> 0.44935766E+00</totfact>
</mgrwt>
</event>
<event>
 4    1  0.3032637E-007  0.9270601E+03  0.7818608E-02  0.9483918E-01
         -2   -1    0    0    0  501 -0.00000000000E+00  0.00000000000E+00  0.20231652694E+04  0.20231652694E+04  0.25500000000E-02 0.  1.
          2   -1    0    0  501    0  0.00000000000E+00 -0.00000000000E+00 -0.92328603954E+03  0.92328603955E+03  0.25500000000E-02 0. -1.
    8880023    1    1    2    0    0  0.21746220851E+03  0.61509378460E+03  0.17704358537E+04  0.19984702886E+04  0.65864270000E+03 0.  1.
    8880022    1    1    2    0    0 -0.21746220851E+03 -0.61509378460E+03 -0.67055662391E+03  0.94798102031E+03  0.15294330000E+03 0.  0.
<mgrwt>
<rscale>  0 0.85479966E+03</rscale>
<asrwt>0</asrwt>
<pdfrwt beam="1">  1        2 0.14204401E+00 0.92706007E+03</pdfrwt>
<pdfrwt beam="2">  1       -2 0.31125619E+00 0.92706007E+03</pdfrwt>
<totfact> 0.77952936E-01</totfact>
</mgrwt>
</event>
<event>
 4    1  0.3032637E-007  0.7591175E+03  0.7818608E-02  0.9807398E-01
         -2   -1    0    0    0  501 -0.00000000000E+00  0.00000000000E+00  0.39799997468E+03  0.39799997469E+03  0.25500000000E-02 0.  1.
          2   -1    0    0  501    0  0.00000000000E+00 -0.00000000000E+00 -0.38429439781E+04  0.38429439781E+04  0.25500000000E-02 0. -1.
    8880023    1    1    2    0    0 -0.13189764349E+03  0.35362716037E+03  0.12875313060E+02  0.75922667028E+03  0.65864270000E+03 0.  1.
    8880022    1    1    2    0    0  0.13189764349E+03 -0.35362716037E+03 -0.34578193165E+04  0.34817172825E+04  0.15294330000E+03 0.  0.
<mgrwt>
<rscale>  0 0.64967054E+03</rscale>
<asrwt>0</asrwt>
<pdfrwt beam="1">  1        2 0.59122213E+00 0.75911749E+03</pdfrwt>
<pdfrwt beam="2">  1       -2 0.61230768E-01 0.75911749E+03</pdfrwt>
<totfact> 0.12443441E+00</totfact>
</mgrwt>
</event>
<event>
 4    1  0.3032637E-007  0.8711017E+03  0.7818608E-02  0.9574113E-01
         -2   -1    0    0    0  501 -0.00000000000E+00  0.00000000000E+00  0.52705853154E+03  0.52705853155E+03  0.25500000000E-02 0.  1.
          2   -1    0    0  501    0  0.00000000000E+00 -0.00000000000E+00 -0.37579724373E+04  0.37579724373E+04  0.25500000000E-02 0. -1.
    8880023    1    1    2    0    0 -0.45407330405E+03 -0.34471068567E+03  0.12284985505E+03  0.87972172612E+03  0.65864270000E+03 0.  1.
    8880022    1    1    2    0    0  0.45407330405E+03  0.34471068567E+03 -0.33537637608E+04  0.34053092427E+04  0.15294330000E+03 0.  0.
<mgrwt>
<rscale>  0 0.79033529E+03</rscale>
<asrwt>0</asrwt>
<pdfrwt beam="1">  1        2 0.57814959E+00 0.87110173E+03</pdfrwt>
<pdfrwt beam="2">  1       -2 0.81085931E-01 0.87110173E+03</pdfrwt>
<totfact> 0.75847602E-01</totfact>
</mgrwt>
</event>
<event>
 4    1  0.3032637E-007  0.7349609E+03  0.7818608E-02  0.9874876E-01
          2   -1    0    0  501    0  0.00000000000E+00  0.00000000000E+00  0.13395297687E+04  0.13395297687E+04  0.25500000000E-02 0. -1.
         -2   -1    0    0    0  501 -0.00000000000E+00 -0.00000000000E+00 -0.29693860102E+03  0.29693860103E+03  0.25500000000E-02 0.  1.
    8880023    1    1    2    0    0 -0.17945108961E+02 -0.32563068389E+03  0.26814011218E+03  0.78234691490E+03  0.65864270000E+03 0.  1.
    8880022    1    1    2    0    0  0.17945108961E+02  0.32563068389E+03  0.77445105550E+03  0.85412145484E+03  0.15294330000E+03 0.  0.
<mgrwt>
<rscale>  0 0.61494490E+03</rscale>
<asrwt>0</asrwt>
<pdfrwt beam="1">  1        2 0.20608150E+00 0.73496093E+03</pdfrwt>
<pdfrwt beam="2">  1       -2 0.45682863E-01 0.73496093E+03</pdfrwt>
<totfact> 0.72630622E+01</totfact>
</mgrwt>
</event>
<event>
 4    1  0.3032637E-007  0.8195461E+03  0.7818608E-02  0.9670025E-01
         -2   -1    0    0    0  501 -0.00000000000E+00  0.00000000000E+00  0.69992361009E+03  0.69992361010E+03  0.25500000000E-02 0.  1.
          2   -1    0    0  501    0  0.00000000000E+00 -0.00000000000E+00 -0.99328134932E+03  0.99328134932E+03  0.25500000000E-02 0. -1.
    8880023    1    1    2    0    0  0.27082757639E+03  0.40558355542E+03  0.33313721079E+03  0.88466728437E+03  0.65864270000E+03 0.  1.
    8880022    1    1    2    0    0 -0.27082757639E+03 -0.40558355542E+03 -0.62649495002E+03  0.80853767505E+03  0.15294330000E+03 0.  0.
<mgrwt>
<rscale>  0 0.72829852E+03</rscale>
<asrwt>0</asrwt>
<pdfrwt beam="1">  1        2 0.15281252E+00 0.81954610E+03</pdfrwt>
<pdfrwt beam="2">  1       -2 0.10768055E+00 0.81954610E+03</pdfrwt>
<totfact> 0.17764693E+01</totfact>
</mgrwt>
</event>
<event>
 4    1  0.3032637E-007  0.1158589E+04  0.7818608E-02  0.9198467E-01
          2   -1    0    0  501    0  0.00000000000E+00  0.00000000000E+00  0.11521860058E+04  0.11521860058E+04  0.25500000000E-02 0. -1.
         -2   -1    0    0    0  501 -0.00000000000E+00 -0.00000000000E+00 -0.31144788138E+04  0.31144788138E+04  0.25500000000E-02 0.  1.
    8880023    1    1    2    0    0  0.36371039755E+03 -0.88104072698E+03 -0.27734743101E+04  0.30057424991E+04  0.65864270000E+03 0.  1.
    8880022    1    1    2    0    0 -0.36371039755E+03  0.88104072698E+03  0.81118150209E+03  0.12609223205E+04  0.15294330000E+03 0.  0.
<mgrwt>
<rscale>  0 0.11069264E+04</rscale>
<asrwt>0</asrwt>
<pdfrwt beam="1">  1        2 0.17725939E+00 0.11585889E+04</pdfrwt>
<pdfrwt beam="2">  1       -2 0.47915059E+00 0.11585889E+04</pdfrwt>
<totfact> 0.44670947E-02</totfact>
</mgrwt>
</event>
<event>
 4    1  0.3032637E-007  0.9035877E+03  0.7818608E-02  0.9520297E-01
         -2   -1    0    0    0  501 -0.00000000000E+00  0.00000000000E+00  0.68581615203E+03  0.68581615203E+03  0.25500000000E-02 0.  1.
          2   -1    0    0  501    0  0.00000000000E+00 -0.00000000000E+00 -0.17859189524E+04  0.17859189524E+04  0.25500000000E-02 0. -1.
    8880023    1    1    2    0    0  0.51041902983E+03  0.34947518187E+03  0.28468212316E+03  0.94737247493E+03  0.65864270000E+03 0.  1.
    8880022    1    1    2    0    0 -0.51041902983E+03 -0.34947518187E+03 -0.13847849235E+04  0.15243626295E+04  0.15294330000E+03 0.  0.
<mgrwt>
<rscale>  0 0.82803835E+03</rscale>
<asrwt>0</asrwt>
<pdfrwt beam="1">  1        2 0.27475676E+00 0.90358768E+03</pdfrwt>
<pdfrwt beam="2">  1       -2 0.10551018E+00 0.90358768E+03</pdfrwt>
<totfact> 0.64414055E+00</totfact>
</mgrwt>
</event>
<event>
 4    1  0.3032637E-007  0.9588031E+03  0.7818608E-02  0.9437560E-01
         -2   -1    0    0    0  501 -0.00000000000E+00  0.00000000000E+00  0.50803164108E+03  0.50803164109E+03  0.25500000000E-02 0.  1.
          2   -1    0    0  501    0  0.00000000000E+00 -0.00000000000E+00 -0.20836535443E+04  0.20836535443E+04  0.25500000000E-02 0. -1.
    8880023    1    1    2    0    0 -0.54032545343E+03 -0.43993357379E+03 -0.11436594630E+03  0.96559977263E+03  0.65864270000E+03 0.  0.
    8880022    1    1    2    0    0  0.54032545343E+03  0.43993357379E+03 -0.14612559569E+04  0.16260854128E+04  0.15294330000E+03 0.  0.
<mgrwt>
<rscale>  0 0.89048068E+03</rscale>
<asrwt>0</asrwt>
<pdfrwt beam="1">  1        2 0.32056208E+00 0.95880308E+03</pdfrwt>
<pdfrwt beam="2">  1       -2 0.78158715E-01 0.95880308E+03</pdfrwt>
<totfact> 0.88132183E+00</totfact>
</mgrwt>
</event>
<event>
 4    1  0.3032637E-007  0.8349670E+03  0.7818608E-02  0.9639744E-01
         -2   -1    0    0    0  501 -0.00000000000E+00  0.00000000000E+00  0.41172016555E+03  0.41172016556E+03  0.25500000000E-02 0.  1.
          2   -1    0    0  501    0  0.00000000000E+00 -0.00000000000E+00 -0.38580936905E+04  0.38580936905E+04  0.25500000000E-02 0. -1.
    8880023    1    1    2    0    0 -0.35894769173E+03  0.36676447256E+03 -0.55382311232E+02  0.83680166730E+03  0.65864270000E+03 0.  0.
    8880022    1    1    2    0    0  0.35894769173E+03 -0.36676447256E+03 -0.33909912137E+04  0.34330121887E+04  0.15294330000E+03 0.  0.
<mgrwt>
<rscale>  0 0.74720564E+03</rscale>
<asrwt>0</asrwt>
<pdfrwt beam="1">  1        2 0.59355285E+00 0.83496696E+03</pdfrwt>
<pdfrwt beam="2">  1       -2 0.63341567E-01 0.83496696E+03</pdfrwt>
<totfact> 0.11082356E+00</totfact>
</mgrwt>
</event>
<event>
 4    1  0.4504693E-007  0.8520517E+03  0.7818608E-02  0.9607861E-01
          2   -1    0    0  501    0  0.00000000000E+00  0.00000000000E+00  0.28644570903E+04  0.28644570903E+04  0.25500000000E-02 0. -1.
         -2   -1    0    0    0  501 -0.00000000000E+00 -0.00000000000E+00 -0.15267985441E+04  0.15267985441E+04  0.25500000000E-02 0.  1.
    8880023    1    1    2    0    0 -0.18009923456E+03  0.50965303281E+03 -0.13768829627E+04  0.16191969761E+04  0.65864270000E+03 0.  1.
    8880022    1    1    2    0    0  0.18009923456E+03 -0.50965303281E+03  0.27145415089E+04  0.27720586583E+04  0.15294330000E+03 0.  0.
<mgrwt>
<rscale>  0 0.76778046E+03</rscale>
<asrwt>0</asrwt>
<pdfrwt beam="1">  1        2 0.44068570E+00 0.85205173E+03</pdfrwt>
<pdfrwt beam="2">  1       -2 0.23489209E+00 0.85205173E+03</pdfrwt>
<totfact> 0.17681649E-01</totfact>
</mgrwt>
</event>
<event>
 4    1  0.3032637E-007  0.8041201E+03  0.7818608E-02  0.9701957E-01
         -2   -1    0    0    0  501 -0.00000000000E+00  0.00000000000E+00  0.26568694982E+03  0.26568694984E+03  0.25500000000E-02 0.  1.
          2   -1    0    0  501    0  0.00000000000E+00 -0.00000000000E+00 -0.18818104343E+04  0.18818104343E+04  0.25500000000E-02 0. -1.
    8880023    1    1    2    0    0 -0.46091088418E+03  0.18977366354E+02 -0.54537803667E+03  0.97162049831E+03  0.65864270000E+03 0.  0.
    8880022    1    1    2    0    0  0.46091088418E+03 -0.18977366354E+02 -0.10707454478E+04  0.11758768858E+04  0.15294330000E+03 0.  0.
<mgrwt>
<rscale>  0 0.70900376E+03</rscale>
<asrwt>0</asrwt>
<pdfrwt beam="1">  1        2 0.28950929E+00 0.80412013E+03</pdfrwt>
<pdfrwt beam="2">  1       -2 0.40874917E-01 0.80412013E+03</pdfrwt>
<totfact> 0.45022133E+01</totfact>
</mgrwt>
</event>
<event>
 4    1  0.3032637E-007  0.1613007E+04  0.7818608E-02  0.8833703E-01
          2   -1    0    0  501    0  0.00000000000E+00  0.00000000000E+00  0.39587769381E+04  0.39587769381E+04  0.25500000000E-02 0. -1.
         -2   -1    0    0    0  501 -0.00000000000E+00 -0.00000000000E+00 -0.10481969257E+04  0.10481969257E+04  0.25500000000E-02 0.  1.
    8880023    1    1    2    0    0 -0.11425273413E+04  0.92876891664E+03 -0.13707639058E+03  0.16188207341E+04  0.65864270000E+03 0.  0.
    8880022    1    1    2    0    0  0.11425273413E+04 -0.92876891664E+03  0.30476564030E+04  0.33881531297E+04  0.15294330000E+03 0.  0.
<mgrwt>
<rscale>  0 0.15787619E+04</rscale>
<asrwt>0</asrwt>
<pdfrwt beam="1">  1        2 0.60904261E+00 0.16130067E+04</pdfrwt>
<pdfrwt beam="2">  1       -2 0.16126107E+00 0.16130067E+04</pdfrwt>
<totfact> 0.85974012E-02</totfact>
</mgrwt>
</event>
<event>
 4    1  0.3032637E-007  0.1383012E+04  0.7818608E-02  0.8996996E-01
         -2   -1    0    0    0  501 -0.00000000000E+00  0.00000000000E+00  0.10355405694E+04  0.10355405694E+04  0.25500000000E-02 0.  1.
          2   -1    0    0  501    0  0.00000000000E+00 -0.00000000000E+00 -0.26466765498E+04  0.26466765498E+04  0.25500000000E-02 0. -1.
    8880023    1    1    2    0    0 -0.65783949201E+03  0.10228193040E+04 -0.19682546748E+04  0.24055662113E+04  0.65864270000E+03 0.  0.
    8880022    1    1    2    0    0  0.65783949201E+03 -0.10228193040E+04  0.35711869436E+03  0.12766509079E+04  0.15294330000E+03 0.  0.
<mgrwt>
<rscale>  0 0.13418816E+04</rscale>
<asrwt>0</asrwt>
<pdfrwt beam="1">  1        2 0.40718101E+00 0.13830121E+04</pdfrwt>
<pdfrwt beam="2">  1       -2 0.15931393E+00 0.13830121E+04</pdfrwt>
<totfact> 0.69644392E-01</totfact>
</mgrwt>
</event>
<event>
 4    1  0.3032637E-007  0.1225563E+04  0.7818608E-02  0.9132666E-01
          2   -1    0    0  501    0  0.00000000000E+00  0.00000000000E+00  0.17308010892E+04  0.17308010892E+04  0.25500000000E-02 0. -1.
         -2   -1    0    0    0  501 -0.00000000000E+00 -0.00000000000E+00 -0.14271999260E+04  0.14271999260E+04  0.25500000000E-02 0.  1.
    8880023    1    1    2    0    0  0.71340956677E+02 -0.10310692716E+04 -0.93214758730E+03  0.15397735891E+04  0.65864270000E+03 0.  1.
    8880022    1    1    2    0    0 -0.71340956677E+02  0.10310692716E+04  0.12357487505E+04  0.16182274261E+04  0.15294330000E+03 0.  0.
<mgrwt>
<rscale>  0 0.11776299E+04</rscale>
<asrwt>0</asrwt>
<pdfrwt beam="1">  1        2 0.26627709E+00 0.12255626E+04</pdfrwt>
<pdfrwt beam="2">  1       -2 0.21956922E+00 0.12255626E+04</pdfrwt>
<totfact> 0.90717575E-01</totfact>
</mgrwt>
</event>
<event>
 4    1  0.3032637E-007  0.1163656E+04  0.7818608E-02  0.9193287E-01
         -2   -1    0    0    0  501 -0.00000000000E+00  0.00000000000E+00  0.89482744463E+03  0.89482744463E+03  0.25500000000E-02 0.  1.
          2   -1    0    0  501    0  0.00000000000E+00 -0.00000000000E+00 -0.18502320589E+04  0.18502320589E+04  0.25500000000E-02 0. -1.
    8880023    1    1    2    0    0 -0.63168931381E+03 -0.72197972951E+03 -0.12713964873E+04  0.17235270097E+04  0.65864270000E+03 0.  0.
    8880022    1    1    2    0    0  0.63168931381E+03  0.72197972951E+03  0.31599187308E+03  0.10215324938E+04  0.15294330000E+03 0.  0.
<mgrwt>
<rscale>  0 0.11122990E+04</rscale>
<asrwt>0</asrwt>
<pdfrwt beam="1">  1        2 0.28465109E+00 0.11636564E+04</pdfrwt>
<pdfrwt beam="2">  1       -2 0.13766576E+00 0.11636564E+04</pdfrwt>
<totfact> 0.29675076E+00</totfact>
</mgrwt>
</event>
<event>
 4    1  0.3032637E-007  0.7670498E+03  0.7818608E-02  0.9787187E-01
          2   -1    0    0  501    0  0.00000000000E+00  0.00000000000E+00  0.18727931907E+04  0.18727931907E+04  0.25500000000E-02 0. -1.
         -2   -1    0    0    0  501 -0.00000000000E+00 -0.00000000000E+00 -0.33022819857E+03  0.33022819858E+03  0.25500000000E-02 0.  1.
    8880023    1    1    2    0    0  0.39312477880E+03 -0.28473822799E+01  0.19567056931E+03  0.79161378035E+03  0.65864270000E+03 0.  1.
    8880022    1    1    2    0    0 -0.39312477880E+03  0.28473822799E+01  0.13468944229E+04  0.14114076090E+04  0.15294330000E+03 0.  0.
<mgrwt>
<rscale>  0 0.66054736E+03</rscale>
<asrwt>0</asrwt>
<pdfrwt beam="1">  1        2 0.28812203E+00 0.76704981E+03</pdfrwt>
<pdfrwt beam="2">  1       -2 0.50804338E-01 0.76704981E+03</pdfrwt>
<totfact> 0.29599285E+01</totfact>
</mgrwt>
</event>
<event>
 4    1  0.3032637E-007  0.6865496E+03  0.7818608E-02  0.1005838E+00
         -2   -1    0    0    0  501 -0.00000000000E+00  0.00000000000E+00  0.12662025240E+04  0.12662025240E+04  0.25500000000E-02 0.  1.
          2   -1    0    0  501    0  0.00000000000E+00 -0.00000000000E+00 -0.24394591207E+03  0.24394591208E+03  0.25500000000E-02 0. -1.
    8880023    1    1    2    0    0  0.16993970363E+03  0.93062945039E+02  0.10574851902E+04  0.12608034535E+04  0.65864270000E+03 0.  1.
    8880022    1    1    2    0    0 -0.16993970363E+03 -0.93062945039E+02 -0.35228578248E+02  0.24934498261E+03  0.15294330000E+03 0.  0.
<mgrwt>
<rscale>  0 0.53163005E+03</rscale>
<asrwt>0</asrwt>
<pdfrwt beam="1">  1        2 0.37530140E-01 0.68654965E+03</pdfrwt>
<pdfrwt beam="2">  1       -2 0.19480039E+00 0.68654965E+03</pdfrwt>
<totfact> 0.20338850E+01</totfact>
</mgrwt>
</event>
<event>
 4    1  0.3032637E-007  0.9068412E+03  0.7818608E-02  0.9515137E-01
         -2   -1    0    0    0  501 -0.00000000000E+00  0.00000000000E+00  0.48803613448E+03  0.48803613449E+03  0.25500000000E-02 0.  1.
          2   -1    0    0  501    0  0.00000000000E+00 -0.00000000000E+00 -0.31918113707E+04  0.31918113707E+04  0.25500000000E-02 0. -1.
    8880023    1    1    2    0    0 -0.47812028366E+03 -0.39993970139E+03 -0.60895413123E+01  0.90686165382E+03  0.65864270000E+03 0.  1.
    8880022    1    1    2    0    0  0.47812028366E+03  0.39993970139E+03 -0.26976856949E+04  0.27729858514E+04  0.15294330000E+03 0.  0.
<mgrwt>
<rscale>  0 0.83176952E+03</rscale>
<asrwt>0</asrwt>
<pdfrwt beam="1">  1        2 0.49104789E+00 0.90684121E+03</pdfrwt>
<pdfrwt beam="2">  1       -2 0.75082484E-01 0.90684121E+03</pdfrwt>
<totfact> 0.21803169E+00</totfact>
</mgrwt>
</event>
<event>
 4    1  0.4036535E-007  0.1145259E+04  0.7818608E-02  0.9212264E-01
          2   -1    0    0  501    0  0.00000000000E+00  0.00000000000E+00  0.21433146397E+04  0.21433146397E+04  0.25500000000E-02 0. -1.
         -2   -1    0    0    0  501 -0.00000000000E+00 -0.00000000000E+00 -0.12348086420E+04  0.12348086420E+04  0.25500000000E-02 0.  1.
    8880023    1    1    2    0    0 -0.48088351893E+03 -0.80408838641E+03 -0.81830906901E+03  0.14075677712E+04  0.65864270000E+03 0.  1.
    8880022    1    1    2    0    0  0.48088351893E+03  0.80408838641E+03  0.17268150668E+04  0.19705555104E+04  0.15294330000E+03 0. -1.
<mgrwt>
<rscale>  0 0.10927737E+04</rscale>
<asrwt>0</asrwt>
<pdfrwt beam="1">  1        2 0.32974071E+00 0.11452586E+04</pdfrwt>
<pdfrwt beam="2">  1       -2 0.18997056E+00 0.11452586E+04</pdfrwt>
<totfact> 0.84397429E-01</totfact>
</mgrwt>
</event>
<event>
 4    1  0.3032637E-007  0.1249167E+04  0.7818608E-02  0.9110749E-01
         -2   -1    0    0    0  501 -0.00000000000E+00  0.00000000000E+00  0.19295755167E+04  0.19295755167E+04  0.25500000000E-02 0.  1.
          2   -1    0    0  501    0  0.00000000000E+00 -0.00000000000E+00 -0.76529263141E+03  0.76529263141E+03  0.25500000000E-02 0. -1.
    8880023    1    1    2    0    0  0.31797000915E+03  0.10126717681E+04  0.22494218207E+03  0.12692589287E+04  0.65864270000E+03 0.  0.
    8880022    1    1    2    0    0 -0.31797000915E+03 -0.10126717681E+04  0.93934070320E+03  0.14256092194E+04  0.15294330000E+03 0.  0.
<mgrwt>
<rscale>  0 0.12024105E+04</rscale>
<asrwt>0</asrwt>
<pdfrwt beam="1">  1        2 0.11773733E+00 0.12491674E+04</pdfrwt>
<pdfrwt beam="2">  1       -2 0.29685777E+00 0.12491674E+04</pdfrwt>
<totfact> 0.11840318E+00</totfact>
</mgrwt>
</event>
<event>
 4    1  0.3032637E-007  0.1340074E+04  0.7818608E-02  0.9031704E-01
         -2   -1    0    0    0  501 -0.00000000000E+00  0.00000000000E+00  0.13749474509E+04  0.13749474509E+04  0.25500000000E-02 0.  1.
          2   -1    0    0  501    0  0.00000000000E+00 -0.00000000000E+00 -0.24127046703E+04  0.24127046703E+04  0.25500000000E-02 0. -1.
    8880023    1    1    2    0    0 -0.28270170429E+03  0.11322842281E+04  0.83267178056E+03  0.15777009625E+04  0.65864270000E+03 0.  0.
    8880022    1    1    2    0    0  0.28270170429E+03 -0.11322842281E+04 -0.18704289999E+04  0.22099511586E+04  0.15294330000E+03 0.  0.
<mgrwt>
<rscale>  0 0.12973067E+04</rscale>
<asrwt>0</asrwt>
<pdfrwt beam="1">  1        2 0.37118533E+00 0.13400739E+04</pdfrwt>
<pdfrwt beam="2">  1       -2 0.21153038E+00 0.13400739E+04</pdfrwt>
<totfact> 0.41870227E-01</totfact>
</mgrwt>
</event>
<event>
 4    1  0.3032637E-007  0.7324470E+03  0.7818608E-02  0.9882521E-01
          2   -1    0    0  501    0  0.00000000000E+00  0.00000000000E+00  0.34397751806E+04  0.34397751806E+04  0.25500000000E-02 0. -1.
         -2   -1    0    0    0  501 -0.00000000000E+00 -0.00000000000E+00 -0.12694139902E+03  0.12694139905E+03  0.25500000000E-02 0.  1.
    8880023    1    1    2    0    0  0.31323385421E+03 -0.67475414306E+02  0.10744830109E+04  0.13003816078E+04  0.65864270000E+03 0.  1.
    8880022    1    1    2    0    0 -0.31323385421E+03  0.67475414306E+02  0.22383507707E+04  0.22663349719E+04  0.15294330000E+03 0.  0.
<mgrwt>
<rscale>  0 0.61115916E+03</rscale>
<asrwt>0</asrwt>
<pdfrwt beam="1">  1        2 0.52919610E+00 0.73244698E+03</pdfrwt>
<pdfrwt beam="2">  1       -2 0.19529449E-01 0.73244698E+03</pdfrwt>
<totfact> 0.21462314E+01</totfact>
</mgrwt>
</event>
<event>
 4    1  0.3032637E-007  0.7142100E+03  0.7818608E-02  0.9942687E-01
         -2   -1    0    0    0  501 -0.00000000000E+00  0.00000000000E+00  0.30759082120E+03  0.30759082121E+03  0.25500000000E-02 0.  1.
          2   -1    0    0  501    0  0.00000000000E+00 -0.00000000000E+00 -0.30075670419E+04  0.30075670419E+04  0.25500000000E-02 0. -1.
    8880023    1    1    2    0    0 -0.12155647508E+03 -0.24801163234E+03 -0.13010238087E+03  0.72596320994E+03  0.65864270000E+03 0.  1.
    8880022    1    1    2    0    0  0.12155647508E+03  0.24801163234E+03 -0.25698738398E+04  0.25891946532E+04  0.15294330000E+03 0.  0.
<mgrwt>
<rscale>  0 0.58236336E+03</rscale>
<asrwt>0</asrwt>
<pdfrwt beam="1">  1        2 0.46270260E+00 0.71421002E+03</pdfrwt>
<pdfrwt beam="2">  1       -2 0.47321667E-01 0.71421002E+03</pdfrwt>
<totfact> 0.78127856E+00</totfact>
</mgrwt>
</event>
<event>
 4    1  0.3032637E-007  0.6723821E+03  0.7818608E-02  0.1014010E+00
          2   -1    0    0  501    0  0.00000000000E+00  0.00000000000E+00  0.28230933698E+03  0.28230933699E+03  0.25500000000E-02 0. -1.
         -2   -1    0    0    0  501 -0.00000000000E+00 -0.00000000000E+00 -0.75668900279E+03  0.75668900280E+03  0.25500000000E-02 0.  1.
    8880023    1    1    2    0    0  0.12354517420E+03 -0.54991436947E+02 -0.49335386040E+03  0.83396385176E+03  0.65864270000E+03 0.  1.
    8880022    1    1    2    0    0 -0.12354517420E+03  0.54991436947E+02  0.18974194592E+02  0.20503448803E+03  0.15294330000E+03 0.  1.
<mgrwt>
<rscale>  0 0.49911649E+03</rscale>
<asrwt>0</asrwt>
<pdfrwt beam="1">  1        2 0.43432206E-01 0.67238209E+03</pdfrwt>
<pdfrwt beam="2">  1       -2 0.11641369E+00 0.67238209E+03</pdfrwt>
<totfact> 0.68193217E+01</totfact>
</mgrwt>
</event>
<event>
 4    1  0.3032637E-007  0.8619272E+03  0.7818608E-02  0.9590144E-01
          2   -1    0    0  501    0  0.00000000000E+00  0.00000000000E+00  0.11706228838E+04  0.11706228838E+04  0.25500000000E-02 0. -1.
         -2   -1    0    0    0  501 -0.00000000000E+00 -0.00000000000E+00 -0.49043710361E+03  0.49043710362E+03  0.25500000000E-02 0.  1.
    8880023    1    1    2    0    0  0.50491070915E+03  0.23275211194E+03  0.14440921931E+03  0.87394084394E+03  0.65864270000E+03 0.  0.
    8880022    1    1    2    0    0 -0.50491070915E+03 -0.23275211194E+03  0.53577656087E+03  0.78711914347E+03  0.15294330000E+03 0.  0.
<mgrwt>
<rscale>  0 0.77951938E+03</rscale>
<asrwt>0</asrwt>
<pdfrwt beam="1">  1        2 0.18009583E+00 0.86192725E+03</pdfrwt>
<pdfrwt beam="2">  1       -2 0.75451862E-01 0.86192725E+03</pdfrwt>
<totfact> 0.31313466E+01</totfact>
</mgrwt>
</event>
<event>
 4    1  0.3032637E-007  0.1143946E+04  0.7818608E-02  0.9213636E-01
         -2   -1    0    0    0  501 -0.00000000000E+00  0.00000000000E+00  0.10628729302E+04  0.10628729302E+04  0.25500000000E-02 0.  1.
          2   -1    0    0  501    0  0.00000000000E+00 -0.00000000000E+00 -0.14363286240E+04  0.14363286240E+04  0.25500000000E-02 0. -1.
    8880023    1    1    2    0    0  0.31589116148E+03  0.88034936648E+03 -0.86256616163E+03  0.14327012328E+04  0.65864270000E+03 0. -1.
    8880022    1    1    2    0    0 -0.31589116148E+03 -0.88034936648E+03  0.48911046783E+03  0.10665003215E+04  0.15294330000E+03 0.  0.
<mgrwt>
<rscale>  0 0.10913785E+04</rscale>
<asrwt>0</asrwt>
<pdfrwt beam="1">  1        2 0.22097364E+00 0.11439460E+04</pdfrwt>
<pdfrwt beam="2">  1       -2 0.16351891E+00 0.11439460E+04</pdfrwt>
<totfact> 0.31976871E+00</totfact>
</mgrwt>
</event>
<event>
 4    1  0.3032637E-007  0.7788381E+03  0.7818608E-02  0.9758573E-01
          2   -1    0    0  501    0  0.00000000000E+00  0.00000000000E+00  0.21238722231E+04  0.21238722231E+04  0.25500000000E-02 0. -1.
         -2   -1    0    0    0  501 -0.00000000000E+00 -0.00000000000E+00 -0.14176133733E+04  0.14176133733E+04  0.25500000000E-02 0.  1.
    8880023    1    1    2    0    0 -0.36670370956E+03 -0.19572184627E+03 -0.12844327161E+04  0.15021172591E+04  0.65864270000E+03 0.  0.
    8880022    1    1    2    0    0  0.36670370956E+03  0.19572184627E+03  0.19906915659E+04  0.20393683373E+04  0.15294330000E+03 0.  0.
<mgrwt>
<rscale>  0 0.67633922E+03</rscale>
<asrwt>0</asrwt>
<pdfrwt beam="1">  1        2 0.32674957E+00 0.77883815E+03</pdfrwt>
<pdfrwt beam="2">  1       -2 0.21809437E+00 0.77883815E+03</pdfrwt>
<totfact> 0.60442831E-01</totfact>
</mgrwt>
</event>
<event>
 4    1  0.3032637E-007  0.1412073E+04  0.7818608E-02  0.8974358E-01
          2   -1    0    0  501    0  0.00000000000E+00  0.00000000000E+00  0.10628560618E+04  0.10628560618E+04  0.25500000000E-02 0. -1.
         -2   -1    0    0    0  501 -0.00000000000E+00 -0.00000000000E+00 -0.16826269300E+04  0.16826269300E+04  0.25500000000E-02 0.  1.
    8880023    1    1    2    0    0  0.12483306414E+04  0.42556428138E+02 -0.40403711976E+03  0.14687398136E+04  0.65864270000E+03 0.  0.
    8880022    1    1    2    0    0 -0.12483306414E+04 -0.42556428138E+02 -0.21573374850E+03  0.12767431782E+04  0.15294330000E+03 0.  0.
<mgrwt>
<rscale>  0 0.13719752E+04</rscale>
<asrwt>0</asrwt>
<pdfrwt beam="1">  1        2 0.16351632E+00 0.14120732E+04</pdfrwt>
<pdfrwt beam="2">  1       -2 0.25886568E+00 0.14120732E+04</pdfrwt>
<totfact> 0.12424136E+00</totfact>
</mgrwt>
</event>
<event>
 4    1  0.3032637E-007  0.6866850E+03  0.7818608E-02  0.1005770E+00
          2   -1    0    0  501    0  0.00000000000E+00  0.00000000000E+00  0.65435217373E+03  0.65435217373E+03  0.25500000000E-02 0. -1.
         -2   -1    0    0    0  501 -0.00000000000E+00 -0.00000000000E+00 -0.73753973218E+03  0.73753973219E+03  0.25500000000E-02 0.  1.
    8880023    1    1    2    0    0 -0.17592909916E+03 -0.82310829953E+02 -0.53926319111E+03  0.87312147849E+03  0.65864270000E+03 0.  0.
    8880022    1    1    2    0    0  0.17592909916E+03  0.82310829953E+02  0.45607563265E+03  0.51877042743E+03  0.15294330000E+03 0.  0.
<mgrwt>
<rscale>  0 0.53191119E+03</rscale>
<asrwt>0</asrwt>
<pdfrwt beam="1">  1        2 0.10066957E+00 0.68668503E+03</pdfrwt>
<pdfrwt beam="2">  1       -2 0.11346765E+00 0.68668503E+03</pdfrwt>
<totfact> 0.27682890E+01</totfact>
</mgrwt>
</event>
<event>
 4    1  0.3032637E-007  0.7618562E+03  0.7818608E-02  0.9800326E-01
          2   -1    0    0  501    0  0.00000000000E+00  0.00000000000E+00  0.11278571319E+04  0.11278571319E+04  0.25500000000E-02 0. -1.
         -2   -1    0    0    0  501 -0.00000000000E+00 -0.00000000000E+00 -0.92113420293E+03  0.92113420293E+03  0.25500000000E-02 0.  1.
    8880023    1    1    2    0    0  0.22137346082E+03 -0.31242347838E+03 -0.71150908915E+03  0.10424346642E+04  0.65864270000E+03 0.  1.
    8880022    1    1    2    0    0 -0.22137346082E+03  0.31242347838E+03  0.91823201813E+03  0.10065566706E+04  0.15294330000E+03 0.  0.
<mgrwt>
<rscale>  0 0.65345077E+03</rscale>
<asrwt>0</asrwt>
<pdfrwt beam="1">  1        2 0.17351648E+00 0.76185618E+03</pdfrwt>
<pdfrwt beam="2">  1       -2 0.14171296E+00 0.76185618E+03</pdfrwt>
<totfact> 0.74194093E+00</totfact>
</mgrwt>
</event>
<event>
 4    1  0.3032637E-007  0.1476504E+04  0.7818608E-02  0.8926408E-01
         -2   -1    0    0    0  501 -0.00000000000E+00  0.00000000000E+00  0.75654540266E+03  0.75654540266E+03  0.25500000000E-02 0.  1.
          2   -1    0    0  501    0  0.00000000000E+00 -0.00000000000E+00 -0.37557687992E+04  0.37557687992E+04  0.25500000000E-02 0. -1.
    8880023    1    1    2    0    0  0.90927728501E+03 -0.95888998421E+03 -0.30515404636E+03  0.15077083210E+04  0.65864270000E+03 0.  1.
    8880022    1    1    2    0    0 -0.90927728501E+03  0.95888998421E+03 -0.26940693502E+04  0.30046058809E+04  0.15294330000E+03 0.  0.
<mgrwt>
<rscale>  0 0.14385067E+04</rscale>
<asrwt>0</asrwt>
<pdfrwt beam="1">  1        2 0.57781057E+00 0.14765044E+04</pdfrwt>
<pdfrwt beam="2">  1       -2 0.11639160E+00 0.14765044E+04</pdfrwt>
<totfact> 0.29318689E-01</totfact>
</mgrwt>
</event>
<event>
 4    1  0.3032637E-007  0.6931636E+03  0.7818608E-02  0.1002684E+00
          2   -1    0    0  501    0  0.00000000000E+00  0.00000000000E+00  0.28383818873E+03  0.28383818874E+03  0.25500000000E-02 0. -1.
         -2   -1    0    0    0  501 -0.00000000000E+00 -0.00000000000E+00 -0.13509069731E+04  0.13509069731E+04  0.25500000000E-02 0.  1.
    8880023    1    1    2    0    0 -0.18322989849E+03 -0.11442208834E+03 -0.11624274848E+04  0.13534080957E+04  0.65864270000E+03 0.  1.
    8880022    1    1    2    0    0  0.18322989849E+03  0.11442208834E+03  0.95358700409E+02  0.28133706609E+03  0.15294330000E+03 0.  0.
<mgrwt>
<rscale>  0 0.54488954E+03</rscale>
<asrwt>0</asrwt>
<pdfrwt beam="1">  1        2 0.43667414E-01 0.69316363E+03</pdfrwt>
<pdfrwt beam="2">  1       -2 0.20783184E+00 0.69316363E+03</pdfrwt>
<totfact> 0.14143705E+01</totfact>
</mgrwt>
</event>
<event>
 4    1  0.3032637E-007  0.8581804E+03  0.7818608E-02  0.9596808E-01
          2   -1    0    0  501    0  0.00000000000E+00  0.00000000000E+00  0.13049434744E+04  0.13049434744E+04  0.25500000000E-02 0. -1.
         -2   -1    0    0    0  501 -0.00000000000E+00 -0.00000000000E+00 -0.54612281577E+03  0.54612281578E+03  0.25500000000E-02 0.  1.
    8880023    1    1    2    0    0  0.33719078895E+03 -0.43470200870E+03 -0.51548403129E+02  0.85972722921E+03  0.65864270000E+03 0.  1.
    8880022    1    1    2    0    0 -0.33719078895E+03  0.43470200870E+03  0.81036906172E+03  0.99133906093E+03  0.15294330000E+03 0.  0.
<mgrwt>
<rscale>  0 0.77507787E+03</rscale>
<asrwt>0</asrwt>
<pdfrwt beam="1">  1        2 0.20076053E+00 0.85818044E+03</pdfrwt>
<pdfrwt beam="2">  1       -2 0.84018895E-01 0.85818044E+03</pdfrwt>
<totfact> 0.20497219E+01</totfact>
</mgrwt>
</event>
<event>
 4    1  0.3032637E-007  0.6913031E+03  0.7818608E-02  0.1003539E+00
          2   -1    0    0  501    0  0.00000000000E+00  0.00000000000E+00  0.23165578134E+03  0.23165578135E+03  0.25500000000E-02 0. -1.
         -2   -1    0    0    0  501 -0.00000000000E+00 -0.00000000000E+00 -0.13715325533E+04  0.13715325533E+04  0.25500000000E-02 0.  1.
    8880023    1    1    2    0    0 -0.96968030028E+02 -0.18624422425E+03 -0.11515898224E+04  0.13431526477E+04  0.65864270000E+03 0.  1.
    8880022    1    1    2    0    0  0.96968030028E+02  0.18624422425E+03  0.11713050375E+02  0.26003568693E+03  0.15294330000E+03 0.  0.
<mgrwt>
<rscale>  0 0.54125178E+03</rscale>
<asrwt>0</asrwt>
<pdfrwt beam="1">  1        2 0.35639352E-01 0.69130306E+03</pdfrwt>
<pdfrwt beam="2">  1       -2 0.21100500E+00 0.69130306E+03</pdfrwt>
<totfact> 0.16930294E+01</totfact>
</mgrwt>
</event>
<event>
 4    1  0.3032637E-007  0.9078924E+03  0.7818608E-02  0.9513479E-01
         -2   -1    0    0    0  501 -0.00000000000E+00  0.00000000000E+00  0.98003220482E+03  0.98003220482E+03  0.25500000000E-02 0.  1.
          2   -1    0    0  501    0  0.00000000000E+00 -0.00000000000E+00 -0.16244536352E+04  0.16244536352E+04  0.25500000000E-02 0. -1.
    8880023    1    1    2    0    0 -0.61984206298E+03  0.79083706712E+02  0.67851736658E+03  0.11334259741E+04  0.65864270000E+03 0.  0.
    8880022    1    1    2    0    0  0.61984206298E+03 -0.79083706712E+02 -0.13229387970E+04  0.14710598660E+04  0.15294330000E+03 0.  0.
<mgrwt>
<rscale>  0 0.83297346E+03</rscale>
<asrwt>0</asrwt>
<pdfrwt beam="1">  1        2 0.24991594E+00 0.90789241E+03</pdfrwt>
<pdfrwt beam="2">  1       -2 0.15077419E+00 0.90789241E+03</pdfrwt>
<totfact> 0.32109389E+00</totfact>
</mgrwt>
</event>
<event>
 4    1  0.3032637E-007  0.2121956E+04  0.7818608E-02  0.8562674E-01
          2   -1    0    0  501    0  0.00000000000E+00  0.00000000000E+00  0.40958463337E+04  0.40958463337E+04  0.25500000000E-02 0. -1.
         -2   -1    0    0    0  501 -0.00000000000E+00 -0.00000000000E+00 -0.21680861752E+04  0.21680861752E+04  0.25500000000E-02 0.  1.
    8880023    1    1    2    0    0  0.81616031452E+03 -0.18446596933E+04 -0.12751872111E+04  0.24756412650E+04  0.65864270000E+03 0.  0.
    8880022    1    1    2    0    0 -0.81616031452E+03  0.18446596933E+04  0.32029473696E+04  0.37882912439E+04  0.15294330000E+03 0.  0.
<mgrwt>
<rscale>  0 0.20967562E+04</rscale>
<asrwt>0</asrwt>
<pdfrwt beam="1">  1        2 0.63013020E+00 0.21219560E+04</pdfrwt>
<pdfrwt beam="2">  1       -2 0.33355172E+00 0.21219560E+04</pdfrwt>
<totfact> 0.49082127E-03</totfact>
</mgrwt>
</event>
<event>
 4    1  0.3032637E-007  0.6729096E+03  0.7818608E-02  0.1013658E+00
         -2   -1    0    0    0  501 -0.00000000000E+00  0.00000000000E+00  0.43383471768E+03  0.43383471769E+03  0.25500000000E-02 0.  1.
          2   -1    0    0  501    0  0.00000000000E+00 -0.00000000000E+00 -0.93069610166E+03  0.93069610166E+03  0.25500000000E-02 0. -1.
    8880023    1    1    2    0    0 -0.11340427511E+03 -0.78336835268E+02  0.14680600922E+03  0.68873754071E+03  0.65864270000E+03 0.  1.
    8880022    1    1    2    0    0  0.11340427511E+03  0.78336835268E+02 -0.64366739320E+03  0.67579327864E+03  0.15294330000E+03 0.  0.
<mgrwt>
<rscale>  0 0.50046535E+03</rscale>
<asrwt>0</asrwt>
<pdfrwt beam="1">  1        2 0.14318402E+00 0.67290965E+03</pdfrwt>
<pdfrwt beam="2">  1       -2 0.66743803E-01 0.67290965E+03</pdfrwt>
<totfact> 0.58878885E+01</totfact>
</mgrwt>
</event>
<event>
 4    1  0.3032637E-007  0.9614483E+03  0.7818608E-02  0.9433830E-01
         -2   -1    0    0    0  501 -0.00000000000E+00  0.00000000000E+00  0.10915040462E+04  0.10915040462E+04  0.25500000000E-02 0.  1.
          2   -1    0    0  501    0  0.00000000000E+00 -0.00000000000E+00 -0.10650341664E+04  0.10650341664E+04  0.25500000000E-02 0. -1.
    8880023    1    1    2    0    0 -0.42560796753E+03 -0.55626467569E+03 -0.65823349850E+03  0.11651841383E+04  0.65864270000E+03 0.  0.
    8880022    1    1    2    0    0  0.42560796753E+03  0.55626467569E+03  0.68470337831E+03  0.99135407434E+03  0.15294330000E+03 0.  0.
<mgrwt>
<rscale>  0 0.89343105E+03</rscale>
<asrwt>0</asrwt>
<pdfrwt beam="1">  1        2 0.16385141E+00 0.96144825E+03</pdfrwt>
<pdfrwt beam="2">  1       -2 0.16792370E+00 0.96144825E+03</pdfrwt>
<totfact> 0.50268567E+00</totfact>
</mgrwt>
</event>
<event>
 4    1  0.3032637E-007  0.7055422E+03  0.7818608E-02  0.9974943E-01
         -2   -1    0    0    0  501 -0.00000000000E+00  0.00000000000E+00  0.33814423247E+03  0.33814423248E+03  0.25500000000E-02 0.  1.
          2   -1    0    0  501    0  0.00000000000E+00 -0.00000000000E+00 -0.29976924502E+04  0.29976924502E+04  0.25500000000E-02 0. -1.
    8880023    1    1    2    0    0 -0.19508873432E+03 -0.16099679255E+03 -0.47524097610E+02  0.70714095313E+03  0.65864270000E+03 0.  1.
    8880022    1    1    2    0    0  0.19508873432E+03  0.16099679255E+03 -0.26120241201E+04  0.26286957295E+04  0.15294330000E+03 0.  0.
<mgrwt>
<rscale>  0 0.56762734E+03</rscale>
<asrwt>0</asrwt>
<pdfrwt beam="1">  1        2 0.46118344E+00 0.70554219E+03</pdfrwt>
<pdfrwt beam="2">  1       -2 0.52022192E-01 0.70554219E+03</pdfrwt>
<totfact> 0.65474435E+00</totfact>
</mgrwt>
</event>
<event>
 4    1  0.3032637E-007  0.8249575E+03  0.7818608E-02  0.9659224E-01
         -2   -1    0    0    0  501 -0.00000000000E+00  0.00000000000E+00  0.20538635943E+04  0.20538635943E+04  0.25500000000E-02 0.  1.
          2   -1    0    0  501    0  0.00000000000E+00 -0.00000000000E+00 -0.59861371081E+03  0.59861371082E+03  0.25500000000E-02 0. -1.
    8880023    1    1    2    0    0  0.23867464700E+02  0.49616019572E+03  0.18329147959E+04  0.20100078236E+04  0.65864270000E+03 0.  1.
    8880022    1    1    2    0    0 -0.23867464700E+02 -0.49616019572E+03 -0.37766491236E+03  0.64246948156E+03  0.15294330000E+03 0.  0.
<mgrwt>
<rscale>  0 0.73497323E+03</rscale>
<asrwt>0</asrwt>
<pdfrwt beam="1">  1        2 0.92094417E-01 0.82495745E+03</pdfrwt>
<pdfrwt beam="2">  1       -2 0.31597901E+00 0.82495745E+03</pdfrwt>
<totfact> 0.13033315E+00</totfact>
</mgrwt>
</event>
<event>
 4    1  0.3032637E-007  0.8825137E+03  0.7818608E-02  0.9554707E-01
          2   -1    0    0  501    0  0.00000000000E+00  0.00000000000E+00  0.96830832134E+03  0.96830832134E+03  0.25500000000E-02 0. -1.
         -2   -1    0    0    0  501 -0.00000000000E+00 -0.00000000000E+00 -0.99525458132E+03  0.99525458133E+03  0.25500000000E-02 0.  1.
    8880023    1    1    2    0    0  0.30051627361E+03  0.50468825112E+03  0.61841046002E+03  0.10776186547E+04  0.65864270000E+03 0.  0.
    8880022    1    1    2    0    0 -0.30051627361E+03 -0.50468825112E+03 -0.64535672001E+03  0.88594424802E+03  0.15294330000E+03 0.  0.
<mgrwt>
<rscale>  0 0.80367935E+03</rscale>
<asrwt>0</asrwt>
<pdfrwt beam="1">  1        2 0.14897051E+00 0.88251372E+03</pdfrwt>
<pdfrwt beam="2">  1       -2 0.15311609E+00 0.88251372E+03</pdfrwt>
<totfact> 0.75126996E+00</totfact>
</mgrwt>
</event>
<event>
 4    1  0.3032637E-007  0.1795293E+04  0.7818608E-02  0.8725145E-01
          2   -1    0    0  501    0  0.00000000000E+00  0.00000000000E+00  0.31019228943E+04  0.31019228943E+04  0.25500000000E-02 0. -1.
         -2   -1    0    0    0  501 -0.00000000000E+00 -0.00000000000E+00 -0.10497654355E+04  0.10497654355E+04  0.25500000000E-02 0.  1.
    8880023    1    1    2    0    0  0.14563357637E+04 -0.81752890182E+03  0.16239094206E+04  0.24207766056E+04  0.65864270000E+03 0.  0.
    8880022    1    1    2    0    0 -0.14563357637E+04  0.81752890182E+03  0.42824803819E+03  0.17309117242E+04  0.15294330000E+03 0.  0.
<mgrwt>
<rscale>  0 0.17649856E+04</rscale>
<asrwt>0</asrwt>
<pdfrwt beam="1">  1        2 0.47721890E+00 0.17952932E+04</pdfrwt>
<pdfrwt beam="2">  1       -2 0.16150238E+00 0.17952932E+04</pdfrwt>
<totfact> 0.33806101E-01</totfact>
</mgrwt>
</event>
<event>
 4    1  0.3032637E-007  0.1102759E+04  0.7818608E-02  0.9257991E-01
         -2   -1    0    0    0  501 -0.00000000000E+00  0.00000000000E+00  0.37401499681E+03  0.37401499682E+03  0.25500000000E-02 0.  1.
          2   -1    0    0  501    0  0.00000000000E+00 -0.00000000000E+00 -0.35679468029E+04  0.35679468029E+04  0.25500000000E-02 0. -1.
    8880023    1    1    2    0    0 -0.65314818424E+03 -0.59637539064E+03 -0.73741248218E+03  0.13265947129E+04  0.65864270000E+03 0.  1.
    8880022    1    1    2    0    0  0.65314818424E+03  0.59637539064E+03 -0.24565193239E+04  0.26153670868E+04  0.15294330000E+03 0.  0.
<mgrwt>
<rscale>  0 0.10474400E+04</rscale>
<asrwt>0</asrwt>
<pdfrwt beam="1">  1        2 0.54891487E+00 0.11027585E+04</pdfrwt>
<pdfrwt beam="2">  1       -2 0.57540771E-01 0.11027585E+04</pdfrwt>
<totfact> 0.21053349E+00</totfact>
</mgrwt>
</event>
<event>
 4    1  0.3032637E-007  0.9902928E+03  0.7818608E-02  0.9394369E-01
         -2   -1    0    0    0  501 -0.00000000000E+00  0.00000000000E+00  0.21554766594E+04  0.21554766594E+04  0.25500000000E-02 0.  1.
          2   -1    0    0  501    0  0.00000000000E+00 -0.00000000000E+00 -0.14661371587E+04  0.14661371587E+04  0.25500000000E-02 0. -1.
    8880023    1    1    2    0    0 -0.63751403245E+03 -0.37476046801E+03  0.19299812547E+04  0.21692181540E+04  0.65864270000E+03 0.  1.
    8880022    1    1    2    0    0  0.63751403245E+03  0.37476046801E+03 -0.12406417540E+04  0.14523956640E+04  0.15294330000E+03 0.  0.
<mgrwt>
<rscale>  0 0.92540519E+03</rscale>
<asrwt>0</asrwt>
<pdfrwt beam="1">  1        2 0.22555956E+00 0.99029276E+03</pdfrwt>
<pdfrwt beam="2">  1       -2 0.33161180E+00 0.99029276E+03</pdfrwt>
<totfact> 0.27225544E-01</totfact>
</mgrwt>
</event>
<event>
 4    1  0.3032637E-007  0.9071806E+03  0.7818608E-02  0.9514601E-01
          2   -1    0    0  501    0  0.00000000000E+00  0.00000000000E+00  0.11340671072E+04  0.11340671072E+04  0.25500000000E-02 0. -1.
         -2   -1    0    0    0  501 -0.00000000000E+00 -0.00000000000E+00 -0.22780075326E+04  0.22780075326E+04  0.25500000000E-02 0.  1.
    8880023    1    1    2    0    0  0.15003840668E+03 -0.60552031132E+03 -0.20843702983E+04  0.22732303266E+04  0.65864270000E+03 0.  0.
    8880022    1    1    2    0    0 -0.15003840668E+03  0.60552031132E+03  0.94042987290E+03  0.11388443132E+04  0.15294330000E+03 0.  0.
<mgrwt>
<rscale>  0 0.83215827E+03</rscale>
<asrwt>0</asrwt>
<pdfrwt beam="1">  1        2 0.17447186E+00 0.90718056E+03</pdfrwt>
<pdfrwt beam="2">  1       -2 0.35046270E+00 0.90718056E+03</pdfrwt>
<totfact> 0.32978018E-01</totfact>
</mgrwt>
</event>
<event>
 4    1  0.3032637E-007  0.1242172E+04  0.7818608E-02  0.9117180E-01
         -2   -1    0    0    0  501 -0.00000000000E+00  0.00000000000E+00  0.11791073111E+04  0.11791073111E+04  0.25500000000E-02 0.  1.
          2   -1    0    0  501    0  0.00000000000E+00 -0.00000000000E+00 -0.14899193822E+04  0.14899193822E+04  0.25500000000E-02 0. -1.
    8880023    1    1    2    0    0  0.34801119410E+03  0.99401645070E+03  0.49189272165E+03  0.13360198918E+04  0.65864270000E+03 0.  0.
    8880022    1    1    2    0    0 -0.34801119410E+03 -0.99401645070E+03 -0.80270479270E+03  0.13330068015E+04  0.15294330000E+03 0.  0.
<mgrwt>
<rscale>  0 0.11950731E+04</rscale>
<asrwt>0</asrwt>
<pdfrwt beam="1">  1        2 0.22921837E+00 0.12421718E+04</pdfrwt>
<pdfrwt beam="2">  1       -2 0.18140112E+00 0.12421718E+04</pdfrwt>
<totfact> 0.22037062E+00</totfact>
</mgrwt>
</event>
<event>
 4    1  0.4378777E-007  0.7779475E+03  0.7818608E-02  0.9760681E-01
          2   -1    0    0  501    0  0.00000000000E+00  0.00000000000E+00  0.19449924282E+04  0.19449924282E+04  0.25500000000E-02 0. -1.
         -2   -1    0    0    0  501 -0.00000000000E+00 -0.00000000000E+00 -0.21829732994E+04  0.21829732994E+04  0.25500000000E-02 0.  1.
    8880023    1    1    2    0    0 -0.16610273152E+03 -0.37921233032E+03 -0.20868560462E+04  0.22271440171E+04  0.65864270000E+03 0.  1.
    8880022    1    1    2    0    0  0.16610273152E+03  0.37921233032E+03  0.18488751750E+04  0.19008217104E+04  0.15294330000E+03 0.  0.
<mgrwt>
<rscale>  0 0.67516017E+03</rscale>
<asrwt>0</asrwt>
<pdfrwt beam="1">  1        2 0.29922960E+00 0.77794750E+03</pdfrwt>
<pdfrwt beam="2">  1       -2 0.33584205E+00 0.77794750E+03</pdfrwt>
<totfact> 0.14597211E-01</totfact>
</mgrwt>
</event>
<event>
 4    1  0.3032637E-007  0.8758875E+03  0.7818608E-02  0.9565905E-01
         -2   -1    0    0    0  501 -0.00000000000E+00  0.00000000000E+00  0.13997203671E+04  0.13997203671E+04  0.25500000000E-02 0.  1.
          2   -1    0    0  501    0  0.00000000000E+00 -0.00000000000E+00 -0.12683366688E+04  0.12683366688E+04  0.25500000000E-02 0. -1.
    8880023    1    1    2    0    0  0.24254587265E+03  0.52396578955E+03  0.11750385800E+04  0.14655696912E+04  0.65864270000E+03 0.  0.
    8880022    1    1    2    0    0 -0.24254587265E+03 -0.52396578955E+03 -0.10436548818E+04  0.12024873447E+04  0.15294330000E+03 0.  0.
<mgrwt>
<rscale>  0 0.79594544E+03</rscale>
<asrwt>0</asrwt>
<pdfrwt beam="1">  1        2 0.19512872E+00 0.87588747E+03</pdfrwt>
<pdfrwt beam="2">  1       -2 0.21534159E+00 0.87588747E+03</pdfrwt>
<totfact> 0.18446966E+00</totfact>
</mgrwt>
</event>
<event>
 4    1  0.3032637E-007  0.7817210E+03  0.7818608E-02  0.9751810E-01
          2   -1    0    0  501    0  0.00000000000E+00  0.00000000000E+00  0.15616149901E+04  0.15616149901E+04  0.25500000000E-02 0. -1.
         -2   -1    0    0    0  501 -0.00000000000E+00 -0.00000000000E+00 -0.50739894180E+03  0.50739894181E+03  0.25500000000E-02 0.  1.
    8880023    1    1    2    0    0 -0.40288846658E+03  0.12230450142E+03 -0.13944835823E+03  0.79406143241E+03  0.65864270000E+03 0.  1.
    8880022    1    1    2    0    0  0.40288846658E+03 -0.12230450142E+03  0.11936644065E+04  0.12749524995E+04  0.15294330000E+03 0.  0.
<mgrwt>
<rscale>  0 0.68014093E+03</rscale>
<asrwt>0</asrwt>
<pdfrwt beam="1">  1        2 0.24024846E+00 0.78172099E+03</pdfrwt>
<pdfrwt beam="2">  1       -2 0.78061375E-01 0.78172099E+03</pdfrwt>
<totfact> 0.17479432E+01</totfact>
</mgrwt>
</event>
<event>
 4    1  0.3032637E-007  0.1639231E+04  0.7818608E-02  0.8817104E-01
          2   -1    0    0  501    0  0.00000000000E+00  0.00000000000E+00  0.19675622435E+04  0.19675622435E+04  0.25500000000E-02 0. -1.
         -2   -1    0    0    0  501 -0.00000000000E+00 -0.00000000000E+00 -0.16674078439E+04  0.16674078439E+04  0.25500000000E-02 0.  1.
    8880023    1    1    2    0    0 -0.31184319300E+03 -0.14683394884E+04 -0.74388155490E+03  0.18001213859E+04  0.65864270000E+03 0.  0.
    8880022    1    1    2    0    0  0.31184319300E+03  0.14683394884E+04  0.10440359545E+04  0.18348487015E+04  0.15294330000E+03 0.  0.
<mgrwt>
<rscale>  0 0.16056183E+04</rscale>
<asrwt>0</asrwt>
<pdfrwt beam="1">  1        2 0.30270188E+00 0.16392307E+04</pdfrwt>
<pdfrwt beam="2">  1       -2 0.25652428E+00 0.16392307E+04</pdfrwt>
<totfact> 0.37709421E-01</totfact>
</mgrwt>
</event>
<event>
 4    1  0.3032637E-007  0.8150821E+03  0.7818608E-02  0.9679087E-01
          2   -1    0    0  501    0  0.00000000000E+00  0.00000000000E+00  0.20548611147E+04  0.20548611147E+04  0.25500000000E-02 0. -1.
         -2   -1    0    0    0  501 -0.00000000000E+00 -0.00000000000E+00 -0.43589676650E+03  0.43589676651E+03  0.25500000000E-02 0.  1.
    8880023    1    1    2    0    0  0.18982855577E+03  0.44103717920E+03  0.21143949454E+02  0.81535633123E+03  0.65864270000E+03 0.  0.
    8880022    1    1    2    0    0 -0.18982855577E+03 -0.44103717920E+03  0.15978203988E+04  0.16754015500E+04  0.15294330000E+03 0.  0.
<mgrwt>
<rscale>  0 0.72275730E+03</rscale>
<asrwt>0</asrwt>
<pdfrwt beam="1">  1        2 0.31613248E+00 0.81508213E+03</pdfrwt>
<pdfrwt beam="2">  1       -2 0.67061041E-01 0.81508213E+03</pdfrwt>
<totfact> 0.13048901E+01</totfact>
</mgrwt>
</event>
<event>
 4    1  0.3032637E-007  0.1138490E+04  0.7818608E-02  0.9219365E-01
         -2   -1    0    0    0  501 -0.00000000000E+00  0.00000000000E+00  0.18405698666E+04  0.18405698666E+04  0.25500000000E-02 0.  1.
          2   -1    0    0  501    0  0.00000000000E+00 -0.00000000000E+00 -0.12122002618E+04  0.12122002619E+04  0.25500000000E-02 0. -1.
    8880023    1    1    2    0    0 -0.31490905381E+03 -0.87360291369E+03  0.14220505772E+04  0.18216442609E+04  0.65864270000E+03 0.  1.
    8880022    1    1    2    0    0  0.31490905381E+03  0.87360291369E+03 -0.79368097237E+03  0.12311258676E+04  0.15294330000E+03 0.  0.
<mgrwt>
<rscale>  0 0.10855763E+04</rscale>
<asrwt>0</asrwt>
<pdfrwt beam="1">  1        2 0.18649235E+00 0.11384902E+04</pdfrwt>
<pdfrwt beam="2">  1       -2 0.28316460E+00 0.11384902E+04</pdfrwt>
<totfact> 0.73721126E-01</totfact>
</mgrwt>
</event>
<event>
 4    1  0.3032637E-007  0.7098247E+03  0.7818608E-02  0.9958652E-01
          2   -1    0    0  501    0  0.00000000000E+00  0.00000000000E+00  0.29707446321E+03  0.29707446322E+03  0.25500000000E-02 0. -1.
         -2   -1    0    0    0  501 -0.00000000000E+00 -0.00000000000E+00 -0.16150341525E+04  0.16150341525E+04  0.25500000000E-02 0.  1.
    8880023    1    1    2    0    0  0.26287040694E+03 -0.30660784664E+02 -0.14219186814E+04  0.15892463237E+04  0.65864270000E+03 0. -1.
    8880022    1    1    2    0    0 -0.26287040694E+03  0.30660784664E+02  0.10395899211E+03  0.32286229203E+03  0.15294330000E+03 0.  0.
<mgrwt>
<rscale>  0 0.57501032E+03</rscale>
<asrwt>0</asrwt>
<pdfrwt beam="1">  1        2 0.45703764E-01 0.70982473E+03</pdfrwt>
<pdfrwt beam="2">  1       -2 0.24846679E+00 0.70982473E+03</pdfrwt>
<totfact> 0.75203206E+00</totfact>
</mgrwt>
</event>
<event>
 4    1  0.3032637E-007  0.1134599E+04  0.7818608E-02  0.9223478E-01
         -2   -1    0    0    0  501 -0.00000000000E+00  0.00000000000E+00  0.19695055171E+04  0.19695055171E+04  0.25500000000E-02 0.  1.
          2   -1    0    0  501    0  0.00000000000E+00 -0.00000000000E+00 -0.88126370483E+03  0.88126370483E+03  0.25500000000E-02 0. -1.
    8880023    1    1    2    0    0  0.84590182968E+03 -0.37142154714E+03  0.14549971689E+04  0.18450828813E+04  0.65864270000E+03 0.  1.
    8880022    1    1    2    0    0 -0.84590182968E+03  0.37142154714E+03 -0.36675535660E+03  0.10056863406E+04  0.15294330000E+03 0.  0.
<mgrwt>
<rscale>  0 0.10814344E+04</rscale>
<asrwt>0</asrwt>
<pdfrwt beam="1">  1        2 0.13557903E+00 0.11345986E+04</pdfrwt>
<pdfrwt beam="2">  1       -2 0.30300085E+00 0.11345986E+04</pdfrwt>
<totfact> 0.90832747E-01</totfact>
</mgrwt>
</event>
<event>
 4    1  0.3032637E-007  0.9855010E+03  0.7818608E-02  0.9400777E-01
          2   -1    0    0  501    0  0.00000000000E+00  0.00000000000E+00  0.18584454364E+04  0.18584454364E+04  0.25500000000E-02 0. -1.
         -2   -1    0    0    0  501 -0.00000000000E+00 -0.00000000000E+00 -0.66002554679E+03  0.66002554680E+03  0.25500000000E-02 0.  1.
    8880023    1    1    2    0    0 -0.27734658377E+03 -0.67858740443E+03 -0.12947675436E+03  0.99397003434E+03  0.65864270000E+03 0.  0.
    8880022    1    1    2    0    0  0.27734658377E+03  0.67858740443E+03  0.13278966439E+04  0.15245009488E+04  0.15294330000E+03 0.  0.
<mgrwt>
<rscale>  0 0.92011727E+03</rscale>
<asrwt>0</asrwt>
<pdfrwt beam="1">  1        2 0.28591468E+00 0.98550099E+03</pdfrwt>
<pdfrwt beam="2">  1       -2 0.10154239E+00 0.98550099E+03</pdfrwt>
<totfact> 0.63797660E+00</totfact>
</mgrwt>
</event>
<event>
 4    1  0.3032637E-007  0.1755422E+04  0.7818608E-02  0.8747604E-01
          2   -1    0    0  501    0  0.00000000000E+00  0.00000000000E+00  0.17537204150E+04  0.17537204150E+04  0.25500000000E-02 0. -1.
         -2   -1    0    0    0  501 -0.00000000000E+00 -0.00000000000E+00 -0.20512143655E+04  0.20512143655E+04  0.25500000000E-02 0.  1.
    8880023    1    1    2    0    0 -0.95699718420E+02  0.16243581163E+04 -0.10064162217E+04  0.20234578186E+04  0.65864270000E+03 0.  0.
    8880022    1    1    2    0    0  0.95699718420E+02 -0.16243581163E+04  0.70892227126E+03  0.17814769619E+04  0.15294330000E+03 0.  0.
<mgrwt>
<rscale>  0 0.17243376E+04</rscale>
<asrwt>0</asrwt>
<pdfrwt beam="1">  1        2 0.26980314E+00 0.17554224E+04</pdfrwt>
<pdfrwt beam="2">  1       -2 0.31557144E+00 0.17554224E+04</pdfrwt>
<totfact> 0.21335648E-01</totfact>
</mgrwt>
</event>
<event>
 4    1  0.3032637E-007  0.7652245E+03  0.7818608E-02  0.9791765E-01
         -2   -1    0    0    0  501 -0.00000000000E+00  0.00000000000E+00  0.84835165156E+03  0.84835165156E+03  0.25500000000E-02 0.  1.
          2   -1    0    0  501    0  0.00000000000E+00 -0.00000000000E+00 -0.92941516862E+03  0.92941516863E+03  0.25500000000E-02 0. -1.
    8880023    1    1    2    0    0  0.16986153281E+03  0.35057854068E+03  0.60407218119E+03  0.97492136086E+03  0.65864270000E+03 0.  0.
    8880022    1    1    2    0    0 -0.16986153281E+03 -0.35057854068E+03 -0.68513569826E+03  0.80284545932E+03  0.15294330000E+03 0.  0.
<mgrwt>
<rscale>  0 0.65806360E+03</rscale>
<asrwt>0</asrwt>
<pdfrwt beam="1">  1        2 0.14298695E+00 0.76522445E+03</pdfrwt>
<pdfrwt beam="2">  1       -2 0.13051564E+00 0.76522445E+03</pdfrwt>
<totfact> 0.12223896E+01</totfact>
</mgrwt>
</event>
<event>
 4    1  0.3032637E-007  0.1561511E+04  0.7818608E-02  0.8867379E-01
         -2   -1    0    0    0  501 -0.00000000000E+00  0.00000000000E+00  0.18849803863E+04  0.18849803863E+04  0.25500000000E-02 0.  1.
          2   -1    0    0  501    0  0.00000000000E+00 -0.00000000000E+00 -0.16034018228E+04  0.16034018228E+04  0.25500000000E-02 0. -1.
    8880023    1    1    2    0    0 -0.60441652318E+03 -0.12803077056E+04 -0.74771458588E+03  0.17312984903E+04  0.65864270000E+03 0.  0.
    8880022    1    1    2    0    0  0.60441652318E+03  0.12803077056E+04  0.10292931494E+04  0.17570837188E+04  0.15294330000E+03 0.  0.
<mgrwt>
<rscale>  0 0.15259476E+04</rscale>
<asrwt>0</asrwt>
<pdfrwt beam="1">  1        2 0.24667720E+00 0.15615112E+04</pdfrwt>
<pdfrwt beam="2">  1       -2 0.28999698E+00 0.15615112E+04</pdfrwt>
<totfact> 0.37934736E-01</totfact>
</mgrwt>
</event>
<event>
 4    1  0.3032637E-007  0.9651214E+03  0.7818608E-02  0.9428683E-01
          2   -1    0    0  501    0  0.00000000000E+00  0.00000000000E+00  0.90415485461E+03  0.90415485461E+03  0.25500000000E-02 0. -1.
         -2   -1    0    0    0  501 -0.00000000000E+00 -0.00000000000E+00 -0.12079713369E+04  0.12079713369E+04  0.25500000000E-02 0.  1.
    8880023    1    1    2    0    0  0.33291040480E+03  0.62194842764E+03 -0.78546693948E+03  0.12443543320E+04  0.65864270000E+03 0.  1.
    8880022    1    1    2    0    0 -0.33291040480E+03 -0.62194842764E+03  0.48165045719E+03  0.86777185953E+03  0.15294330000E+03 0.  0.
<mgrwt>
<rscale>  0 0.89752270E+03</rscale>
<asrwt>0</asrwt>
<pdfrwt beam="1">  1        2 0.13910075E+00 0.96512144E+03</pdfrwt>
<pdfrwt beam="2">  1       -2 0.18584174E+00 0.96512144E+03</pdfrwt>
<totfact> 0.47946281E+00</totfact>
</mgrwt>
</event>
<event>
 4    1  0.3032637E-007  0.1389245E+04  0.7818608E-02  0.8992085E-01
         -2   -1    0    0    0  501 -0.00000000000E+00  0.00000000000E+00  0.65557126242E+03  0.65557126242E+03  0.25500000000E-02 0.  1.
          2   -1    0    0  501    0  0.00000000000E+00 -0.00000000000E+00 -0.40966631751E+04  0.40966631751E+04  0.25500000000E-02 0. -1.
    8880023    1    1    2    0    0  0.12231067031E+04  0.14154415635E+02 -0.36212253129E+03  0.14356647550E+04  0.65864270000E+03 0.  0.
    8880022    1    1    2    0    0 -0.12231067031E+04 -0.14154415635E+02 -0.30789693814E+04  0.33165696826E+04  0.15294330000E+03 0.  0.
<mgrwt>
<rscale>  0 0.13483404E+04</rscale>
<asrwt>0</asrwt>
<pdfrwt beam="1">  1        2 0.63025586E+00 0.13892446E+04</pdfrwt>
<pdfrwt beam="2">  1       -2 0.10085712E+00 0.13892446E+04</pdfrwt>
<totfact> 0.22750034E-01</totfact>
</mgrwt>
</event>
<event>
 4    1  0.3032637E-007  0.7012843E+03  0.7818608E-02  0.9991915E-01
          2   -1    0    0  501    0  0.00000000000E+00  0.00000000000E+00  0.83272196670E+03  0.83272196670E+03  0.25500000000E-02 0. -1.
         -2   -1    0    0    0  501 -0.00000000000E+00 -0.00000000000E+00 -0.11331480117E+04  0.11331480117E+04  0.25500000000E-02 0.  1.
    8880023    1    1    2    0    0  0.23074181574E+03  0.68902912062E+02 -0.99367532121E+03  0.12162196541E+04  0.65864270000E+03 0.  1.
    8880022    1    1    2    0    0 -0.23074181574E+03 -0.68902912062E+02  0.69324927617E+03  0.74965032432E+03  0.15294330000E+03 0.  0.
<mgrwt>
<rscale>  0 0.56006183E+03</rscale>
<asrwt>0</asrwt>
<pdfrwt beam="1">  1        2 0.12811107E+00 0.70128425E+03</pdfrwt>
<pdfrwt beam="2">  1       -2 0.17433046E+00 0.70128425E+03</pdfrwt>
<totfact> 0.66460693E+00</totfact>
</mgrwt>
</event>
<event>
 4    1  0.3032637E-007  0.6721870E+03  0.7818608E-02  0.1014141E+00
         -2   -1    0    0    0  501 -0.00000000000E+00  0.00000000000E+00  0.77306147071E+03  0.77306147072E+03  0.25500000000E-02 0.  1.
          2   -1    0    0  501    0  0.00000000000E+00 -0.00000000000E+00 -0.47939734719E+03  0.47939734719E+03  0.25500000000E-02 0. -1.
    8880023    1    1    2    0    0 -0.65716015019E+01 -0.13409711033E+03  0.58904227505E+03  0.89375960358E+03  0.65864270000E+03 0.  1.
    8880022    1    1    2    0    0  0.65716015019E+01  0.13409711033E+03 -0.29537815152E+03  0.35869921432E+03  0.15294330000E+03 0.  0.
<mgrwt>
<rscale>  0 0.49861435E+03</rscale>
<asrwt>0</asrwt>
<pdfrwt beam="1">  1        2 0.73753439E-01 0.67218705E+03</pdfrwt>
<pdfrwt beam="2">  1       -2 0.11893253E+00 0.67218705E+03</pdfrwt>
<totfact> 0.35740468E+01</totfact>
</mgrwt>
</event>
<event>
 4    1  0.3032637E-007  0.1410188E+04  0.7818608E-02  0.8975807E-01
          2   -1    0    0  501    0  0.00000000000E+00  0.00000000000E+00  0.12011183067E+04  0.12011183067E+04  0.25500000000E-02 0. -1.
         -2   -1    0    0    0  501 -0.00000000000E+00 -0.00000000000E+00 -0.17579220631E+04  0.17579220631E+04  0.25500000000E-02 0.  1.
    8880023    1    1    2    0    0  0.11808292860E+04  0.40057629097E+03  0.29566063480E+03  0.14408485642E+04  0.65864270000E+03 0.  0.
    8880022    1    1    2    0    0 -0.11808292860E+04 -0.40057629097E+03 -0.85246439122E+03  0.15181918057E+04  0.15294330000E+03 0.  0.
<mgrwt>
<rscale>  0 0.13700245E+04</rscale>
<asrwt>0</asrwt>
<pdfrwt beam="1">  1        2 0.18478743E+00 0.14101877E+04</pdfrwt>
<pdfrwt beam="2">  1       -2 0.27044955E+00 0.14101877E+04</pdfrwt>
<totfact> 0.86735291E-01</totfact>
</mgrwt>
</event>
<event>
 4    1  0.3032637E-007  0.6652513E+03  0.7818608E-02  0.1019323E+00
         -2   -1    0    0    0  501 -0.00000000000E+00  0.00000000000E+00  0.20501430655E+03  0.20501430657E+03  0.25500000000E-02 0.  1.
          2   -1    0    0  501    0  0.00000000000E+00 -0.00000000000E+00 -0.16560473661E+04  0.16560473661E+04  0.25500000000E-02 0. -1.
    8880023    1    1    2    0    0 -0.81646756447E+02  0.45639393786E+02 -0.36199092270E+03  0.75736172433E+03  0.65864270000E+03 0.  1.
    8880022    1    1    2    0    0  0.81646756447E+02 -0.45639393786E+02 -0.10890421368E+04  0.11036999483E+04  0.15294330000E+03 0.  0.
<mgrwt>
<rscale>  0 0.47931543E+03</rscale>
<asrwt>0</asrwt>
<pdfrwt beam="1">  1        2 0.25477651E+00 0.66525135E+03</pdfrwt>
<pdfrwt beam="2">  1       -2 0.31540664E-01 0.66525135E+03</pdfrwt>
<totfact> 0.99671012E+01</totfact>
</mgrwt>
</event>
<event>
 4    1  0.3032637E-007  0.1181193E+04  0.7818608E-02  0.9175625E-01
         -2   -1    0    0    0  501 -0.00000000000E+00  0.00000000000E+00  0.12925728172E+04  0.12925728172E+04  0.25500000000E-02 0.  1.
          2   -1    0    0  501    0  0.00000000000E+00 -0.00000000000E+00 -0.20856771034E+04  0.20856771034E+04  0.25500000000E-02 0. -1.
    8880023    1    1    2    0    0 -0.79308437430E+03  0.57656111244E+03  0.85241827913E+03  0.14566511834E+04  0.65864270000E+03 0.  0.
    8880022    1    1    2    0    0  0.79308437430E+03 -0.57656111244E+03 -0.16455225653E+04  0.19215987373E+04  0.15294330000E+03 0.  0.
<mgrwt>
<rscale>  0 0.11308601E+04</rscale>
<asrwt>0</asrwt>
<pdfrwt beam="1">  1        2 0.32087340E+00 0.11811925E+04</pdfrwt>
<pdfrwt beam="2">  1       -2 0.19885736E+00 0.11811925E+04</pdfrwt>
<totfact> 0.78912830E-01</totfact>
</mgrwt>
</event>
<event>
 4    1  0.3032637E-007  0.7974945E+03  0.7818608E-02  0.9716240E-01
          2   -1    0    0  501    0  0.00000000000E+00  0.00000000000E+00  0.36676302377E+04  0.36676302377E+04  0.25500000000E-02 0. -1.
         -2   -1    0    0    0  501 -0.00000000000E+00 -0.00000000000E+00 -0.32921500349E+03  0.32921500350E+03  0.25500000000E-02 0.  1.
    8880023    1    1    2    0    0 -0.43987877310E+03  0.93241189984E+02  0.19932367412E+03  0.82202639122E+03  0.65864270000E+03 0.  1.
    8880022    1    1    2    0    0  0.43987877310E+03 -0.93241189984E+02  0.31390915601E+04  0.31748188499E+04  0.15294330000E+03 0.  0.
<mgrwt>
<rscale>  0 0.70058056E+03</rscale>
<asrwt>0</asrwt>
<pdfrwt beam="1">  1        2 0.56425079E+00 0.79749449E+03</pdfrwt>
<pdfrwt beam="2">  1       -2 0.50648463E-01 0.79749449E+03</pdfrwt>
<totfact> 0.24605978E+00</totfact>
</mgrwt>
</event>
<event>
 4    1  0.3032637E-007  0.8247266E+03  0.7818608E-02  0.9659681E-01
         -2   -1    0    0    0  501 -0.00000000000E+00  0.00000000000E+00  0.40202949223E+03  0.40202949224E+03  0.25500000000E-02 0.  1.
          2   -1    0    0  501    0  0.00000000000E+00 -0.00000000000E+00 -0.13987711590E+04  0.13987711590E+04  0.25500000000E-02 0. -1.
    8880023    1    1    2    0    0 -0.40364206814E+03 -0.28885426500E+03 -0.19819286011E+03  0.84820653242E+03  0.65864270000E+03 0.  0.
    8880022    1    1    2    0    0  0.40364206814E+03  0.28885426500E+03 -0.79854880666E+03  0.95259411882E+03  0.15294330000E+03 0.  0.
<mgrwt>
<rscale>  0 0.73468936E+03</rscale>
<asrwt>0</asrwt>
<pdfrwt beam="1">  1        2 0.21519556E+00 0.82472657E+03</pdfrwt>
<pdfrwt beam="2">  1       -2 0.61850692E-01 0.82472657E+03</pdfrwt>
<totfact> 0.35666923E+01</totfact>
</mgrwt>
</event>
<event>
 4    1  0.3032637E-007  0.7684394E+03  0.7818608E-02  0.9783729E-01
          2   -1    0    0  501    0  0.00000000000E+00  0.00000000000E+00  0.19326143307E+04  0.19326143307E+04  0.25500000000E-02 0. -1.
         -2   -1    0    0    0  501 -0.00000000000E+00 -0.00000000000E+00 -0.59774102240E+03  0.59774102241E+03  0.25500000000E-02 0.  1.
    8880023    1    1    2    0    0  0.17109060173E+03 -0.35695502506E+03 -0.31224103580E+03  0.82945376882E+03  0.65864270000E+03 0.  1.
    8880022    1    1    2    0    0 -0.17109060173E+03  0.35695502506E+03  0.16471143441E+04  0.17009015843E+04  0.15294330000E+03 0.  0.
<mgrwt>
<rscale>  0 0.66243086E+03</rscale>
<asrwt>0</asrwt>
<pdfrwt beam="1">  1        2 0.29732529E+00 0.76843939E+03</pdfrwt>
<pdfrwt beam="2">  1       -2 0.91960156E-01 0.76843939E+03</pdfrwt>
<totfact> 0.75507064E+00</totfact>
</mgrwt>
</event>
<event>
 4    1  0.3032637E-007  0.1978995E+04  0.7818608E-02  0.8629494E-01
         -2   -1    0    0    0  501 -0.00000000000E+00  0.00000000000E+00  0.24209357953E+04  0.24209357953E+04  0.25500000000E-02 0.  1.
          2   -1    0    0  501    0  0.00000000000E+00 -0.00000000000E+00 -0.18683946089E+04  0.18683946089E+04  0.25500000000E-02 0. -1.
    8880023    1    1    2    0    0  0.16623856876E+04  0.84798964367E+03  0.11925479401E+04  0.23105396352E+04  0.65864270000E+03 0. -1.
    8880022    1    1    2    0    0 -0.16623856876E+04 -0.84798964367E+03 -0.64000675367E+03  0.19787907691E+04  0.15294330000E+03 0.  0.
<mgrwt>
<rscale>  0 0.19517992E+04</rscale>
<asrwt>0</asrwt>
<pdfrwt beam="1">  1        2 0.28744532E+00 0.19789954E+04</pdfrwt>
<pdfrwt beam="2">  1       -2 0.37245166E+00 0.19789954E+04</pdfrwt>
<totfact> 0.78889247E-02</totfact>
</mgrwt>
</event>
<event>
 4    1  0.3032637E-007  0.1034637E+04  0.7818608E-02  0.9337582E-01
          2   -1    0    0  501    0  0.00000000000E+00  0.00000000000E+00  0.83389463154E+03  0.83389463154E+03  0.25500000000E-02 0. -1.
         -2   -1    0    0    0  501 -0.00000000000E+00 -0.00000000000E+00 -0.16527987496E+04  0.16527987496E+04  0.25500000000E-02 0.  1.
    8880023    1    1    2    0    0  0.30198917120E+03  0.73855689461E+03 -0.12041087275E+04  0.15875615831E+04  0.65864270000E+03 0.  1.
    8880022    1    1    2    0    0 -0.30198917120E+03 -0.73855689461E+03  0.38520460947E+03  0.89913179806E+03  0.15294330000E+03 0. -1.
<mgrwt>
<rscale>  0 0.97395432E+03</rscale>
<asrwt>0</asrwt>
<pdfrwt beam="1">  1        2 0.12829148E+00 0.10346371E+04</pdfrwt>
<pdfrwt beam="2">  1       -2 0.25427673E+00 0.10346371E+04</pdfrwt>
<totfact> 0.19582271E+00</totfact>
</mgrwt>
</event>
<event>
 4    1  0.3032637E-007  0.7179542E+03  0.7818608E-02  0.9929570E-01
          2   -1    0    0  501    0  0.00000000000E+00  0.00000000000E+00  0.12905492309E+04  0.12905492309E+04  0.25500000000E-02 0. -1.
         -2   -1    0    0    0  501 -0.00000000000E+00 -0.00000000000E+00 -0.50651461236E+03  0.50651461237E+03  0.25500000000E-02 0.  1.
    8880023    1    1    2    0    0  0.28194297382E+03  0.46434658368E+02 -0.21283139137E+03  0.74883604708E+03  0.65864270000E+03 0.  1.
    8880022    1    1    2    0    0 -0.28194297382E+03 -0.46434658368E+02  0.99686600995E+03  0.10482277962E+04  0.15294330000E+03 0.  0.
<mgrwt>
<rscale>  0 0.58849357E+03</rscale>
<asrwt>0</asrwt>
<pdfrwt beam="1">  1        2 0.19854603E+00 0.71795419E+03</pdfrwt>
<pdfrwt beam="2">  1       -2 0.77925327E-01 0.71795419E+03</pdfrwt>
<totfact> 0.25136812E+01</totfact>
</mgrwt>
</event>
<event>
 4    1  0.3032637E-007  0.9973538E+03  0.7818608E-02  0.9385028E-01
         -2   -1    0    0    0  501 -0.00000000000E+00  0.00000000000E+00  0.10038234030E+04  0.10038234030E+04  0.25500000000E-02 0.  1.
          2   -1    0    0  501    0  0.00000000000E+00 -0.00000000000E+00 -0.17878127326E+04  0.17878127326E+04  0.25500000000E-02 0. -1.
    8880023    1    1    2    0    0  0.30167578017E+03  0.68548972395E+03  0.63324508532E+03  0.11814033953E+04  0.65864270000E+03 0.  1.
    8880022    1    1    2    0    0 -0.30167578017E+03 -0.68548972395E+03 -0.14172344150E+04  0.16102327403E+04  0.15294330000E+03 0.  0.
<mgrwt>
<rscale>  0 0.93318138E+03</rscale>
<asrwt>0</asrwt>
<pdfrwt beam="1">  1        2 0.27504811E+00 0.99735382E+03</pdfrwt>
<pdfrwt beam="2">  1       -2 0.15443437E+00 0.99735382E+03</pdfrwt>
<totfact> 0.24186744E+00</totfact>
</mgrwt>
</event>
<event>
 4    1  0.3032637E-007  0.9917164E+03  0.7818608E-02  0.9392476E-01
         -2   -1    0    0    0  501 -0.00000000000E+00  0.00000000000E+00  0.59726867204E+03  0.59726867205E+03  0.25500000000E-02 0.  1.
          2   -1    0    0  501    0  0.00000000000E+00 -0.00000000000E+00 -0.16279109748E+04  0.16279109748E+04  0.25500000000E-02 0. -1.
    8880023    1    1    2    0    0 -0.13843710185E+02 -0.74128234654E+03 -0.59034835046E+02  0.99347193399E+03  0.65864270000E+03 0.  0.
    8880022    1    1    2    0    0  0.13843710185E+02  0.74128234654E+03 -0.97160746775E+03  0.12317077129E+04  0.15294330000E+03 0.  0.
<mgrwt>
<rscale>  0 0.92697450E+03</rscale>
<asrwt>0</asrwt>
<pdfrwt beam="1">  1        2 0.25044784E+00 0.99171638E+03</pdfrwt>
<pdfrwt beam="2">  1       -2 0.91887488E-01 0.99171638E+03</pdfrwt>
<totfact> 0.10813774E+01</totfact>
</mgrwt>
</event>
<event>
 4    1  0.3032637E-007  0.1005833E+04  0.7818608E-02  0.9373966E-01
          2   -1    0    0  501    0  0.00000000000E+00  0.00000000000E+00  0.19991668161E+04  0.19991668161E+04  0.25500000000E-02 0. -1.
         -2   -1    0    0    0  501 -0.00000000000E+00 -0.00000000000E+00 -0.71370215751E+03  0.71370215751E+03  0.25500000000E-02 0.  1.
    8880023    1    1    2    0    0 -0.62355400460E+03 -0.43482224772E+03 -0.21073345039E+03  0.10276715317E+04  0.65864270000E+03 0.  0.
    8880022    1    1    2    0    0  0.62355400460E+03  0.43482224772E+03  0.14961981090E+04  0.16851974419E+04  0.15294330000E+03 0.  0.
<mgrwt>
<rscale>  0 0.94249527E+03</rscale>
<asrwt>0</asrwt>
<pdfrwt beam="1">  1        2 0.30756413E+00 0.10058331E+04</pdfrwt>
<pdfrwt beam="2">  1       -2 0.10980033E+00 0.10058331E+04</pdfrwt>
<totfact> 0.44095021E+00</totfact>
</mgrwt>
</event>
<event>
 4    1  0.3032637E-007  0.8716630E+03  0.7818608E-02  0.9573145E-01
          2   -1    0    0  501    0  0.00000000000E+00  0.00000000000E+00  0.13257036770E+04  0.13257036770E+04  0.25500000000E-02 0. -1.
         -2   -1    0    0    0  501 -0.00000000000E+00 -0.00000000000E+00 -0.10732128267E+04  0.10732128267E+04  0.25500000000E-02 0.  1.
    8880023    1    1    2    0    0 -0.10304023180E+03  0.56157711253E+03 -0.80559805316E+03  0.11869223109E+04  0.65864270000E+03 0.  1.
    8880022    1    1    2    0    0  0.10304023180E+03 -0.56157711253E+03  0.10580889034E+04  0.12119941928E+04  0.15294330000E+03 0.  0.
<mgrwt>
<rscale>  0 0.79099432E+03</rscale>
<asrwt>0</asrwt>
<pdfrwt beam="1">  1        2 0.20395441E+00 0.87166298E+03</pdfrwt>
<pdfrwt beam="2">  1       -2 0.16510967E+00 0.87166298E+03</pdfrwt>
<totfact> 0.37173955E+00</totfact>
</mgrwt>
</event>
<event>
 4    1  0.3032637E-007  0.9031335E+03  0.7818608E-02  0.9521020E-01
          2   -1    0    0  501    0  0.00000000000E+00  0.00000000000E+00  0.17496142075E+04  0.17496142075E+04  0.25500000000E-02 0. -1.
         -2   -1    0    0    0  501 -0.00000000000E+00 -0.00000000000E+00 -0.35957141213E+03  0.35957141214E+03  0.25500000000E-02 0.  1.
    8880023    1    1    2    0    0  0.55758783098E+03 -0.26633752298E+03  0.10585550801E+04  0.13914700605E+04  0.65864270000E+03 0.  1.
    8880022    1    1    2    0    0 -0.55758783098E+03  0.26633752298E+03  0.33148771524E+03  0.71771555911E+03  0.15294330000E+03 0.  0.
<mgrwt>
<rscale>  0 0.82751687E+03</rscale>
<asrwt>0</asrwt>
<pdfrwt beam="1">  1        2 0.26917142E+00 0.90313347E+03</pdfrwt>
<pdfrwt beam="2">  1       -2 0.55318679E-01 0.90313347E+03</pdfrwt>
<totfact> 0.28562097E+01</totfact>
</mgrwt>
</event>
<event>
 4    1  0.3032637E-007  0.7260913E+03  0.7818608E-02  0.9902490E-01
          2   -1    0    0  501    0  0.00000000000E+00  0.00000000000E+00  0.33207524630E+04  0.33207524630E+04  0.25500000000E-02 0. -1.
         -2   -1    0    0    0  501 -0.00000000000E+00 -0.00000000000E+00 -0.98954892661E+02  0.98954892694E+02  0.25500000000E-02 0.  1.
    8880023    1    1    2    0    0 -0.25530672087E+03  0.16797850868E+03  0.15275398180E+04  0.16913268173E+04  0.65864270000E+03 0.  1.
    8880022    1    1    2    0    0  0.25530672087E+03 -0.16797850868E+03  0.16942577523E+04  0.17283805384E+04  0.15294330000E+03 0.  0.
<mgrwt>
<rscale>  0 0.60140785E+03</rscale>
<asrwt>0</asrwt>
<pdfrwt beam="1">  1        2 0.51088485E+00 0.72609125E+03</pdfrwt>
<pdfrwt beam="2">  1       -2 0.15223834E-01 0.72609125E+03</pdfrwt>
<totfact> 0.39514995E+01</totfact>
</mgrwt>
</event>
<event>
 4    1  0.3032637E-007  0.6845012E+03  0.7818608E-02  0.1006884E+00
          2   -1    0    0  501    0  0.00000000000E+00  0.00000000000E+00  0.13378415015E+04  0.13378415015E+04  0.25500000000E-02 0. -1.
         -2   -1    0    0    0  501 -0.00000000000E+00 -0.00000000000E+00 -0.30444049054E+03  0.30444049055E+03  0.25500000000E-02 0.  1.
    8880023    1    1    2    0    0 -0.23358020454E+02 -0.18489463751E+03  0.11666166301E+03  0.69437149566E+03  0.65864270000E+03 0.  1.
    8880022    1    1    2    0    0  0.23358020454E+02  0.18489463751E+03  0.91673934792E+03  0.94791049638E+03  0.15294330000E+03 0.  0.
<mgrwt>
<rscale>  0 0.52732019E+03</rscale>
<asrwt>0</asrwt>
<pdfrwt beam="1">  1        2 0.20582177E+00 0.68450115E+03</pdfrwt>
<pdfrwt beam="2">  1       -2 0.46836999E-01 0.68450115E+03</pdfrwt>
<totfact> 0.69585673E+01</totfact>
</mgrwt>
</event>
<event>
 4    1  0.3032637E-007  0.7174362E+03  0.7818608E-02  0.9931358E-01
         -2   -1    0    0    0  501 -0.00000000000E+00  0.00000000000E+00  0.60745990742E+03  0.60745990743E+03  0.25500000000E-02 0.  1.
          2   -1    0    0  501    0  0.00000000000E+00 -0.00000000000E+00 -0.13856755902E+04  0.13856755902E+04  0.25500000000E-02 0. -1.
    8880023    1    1    2    0    0 -0.33065291844E+02 -0.28250880356E+03  0.36516452480E+03  0.80502166061E+03  0.65864270000E+03 0.  1.
    8880022    1    1    2    0    0  0.33065291844E+02  0.28250880356E+03 -0.11433802076E+04  0.11881138370E+04  0.15294330000E+03 0.  0.
<mgrwt>
<rscale>  0 0.58765310E+03</rscale>
<asrwt>0</asrwt>
<pdfrwt beam="1">  1        2 0.21318086E+00 0.71743623E+03</pdfrwt>
<pdfrwt beam="2">  1       -2 0.93455371E-01 0.71743623E+03</pdfrwt>
<totfact> 0.14659489E+01</totfact>
</mgrwt>
</event>
<event>
 4    1  0.3032637E-007  0.7548363E+03  0.7818608E-02  0.9818664E-01
          2   -1    0    0  501    0  0.00000000000E+00  0.00000000000E+00  0.26962808792E+04  0.26962808792E+04  0.25500000000E-02 0. -1.
         -2   -1    0    0    0  501 -0.00000000000E+00 -0.00000000000E+00 -0.20468008962E+03  0.20468008963E+03  0.25500000000E-02 0.  1.
    8880023    1    1    2    0    0 -0.79074506692E+02 -0.36015953091E+03  0.59041044007E+03  0.95831224521E+03  0.65864270000E+03 0.  0.
    8880022    1    1    2    0    0  0.79074506692E+02  0.36015953091E+03  0.19011903495E+04  0.19426487236E+04  0.15294330000E+03 0.  0.
<mgrwt>
<rscale>  0 0.64370484E+03</rscale>
<asrwt>0</asrwt>
<pdfrwt beam="1">  1        2 0.41481243E+00 0.75483632E+03</pdfrwt>
<pdfrwt beam="2">  1       -2 0.31489246E-01 0.75483632E+03</pdfrwt>
<totfact> 0.26198393E+01</totfact>
</mgrwt>
</event>
<event>
 4    1  0.3032637E-007  0.7266511E+03  0.7818608E-02  0.9900692E-01
         -2   -1    0    0    0  501 -0.00000000000E+00  0.00000000000E+00  0.81874898828E+03  0.81874898828E+03  0.25500000000E-02 0.  1.
          2   -1    0    0  501    0  0.00000000000E+00 -0.00000000000E+00 -0.45881771087E+03  0.45881771088E+03  0.25500000000E-02 0. -1.
    8880023    1    1    2    0    0 -0.28889252852E+03 -0.10369523140E+03  0.52550029713E+03  0.89675657934E+03  0.65864270000E+03 0.  1.
    8880022    1    1    2    0    0  0.28889252852E+03  0.10369523140E+03 -0.16556901972E+03  0.38081011982E+03  0.15294330000E+03 0.  0.
<mgrwt>
<rscale>  0 0.60227781E+03</rscale>
<asrwt>0</asrwt>
<pdfrwt beam="1">  1        2 0.70587340E-01 0.72665109E+03</pdfrwt>
<pdfrwt beam="2">  1       -2 0.12596138E+00 0.72665109E+03</pdfrwt>
<totfact> 0.32433773E+01</totfact>
</mgrwt>
</event>
<event>
 4    1  0.3032637E-007  0.7544648E+03  0.7818608E-02  0.9819654E-01
          2   -1    0    0  501    0  0.00000000000E+00  0.00000000000E+00  0.16045915863E+04  0.16045915863E+04  0.25500000000E-02 0. -1.
         -2   -1    0    0    0  501 -0.00000000000E+00 -0.00000000000E+00 -0.58973988539E+03  0.58973988539E+03  0.25500000000E-02 0.  1.
    8880023    1    1    2    0    0  0.36665709423E+03 -0.31137665713E+02 -0.30638887035E+03  0.81430419691E+03  0.65864270000E+03 0.  1.
    8880022    1    1    2    0    0 -0.36665709423E+03  0.31137665713E+02  0.13212405713E+04  0.13800272748E+04  0.15294330000E+03 0.  0.
<mgrwt>
<rscale>  0 0.64318380E+03</rscale>
<asrwt>0</asrwt>
<pdfrwt beam="1">  1        2 0.24686024E+00 0.75446483E+03</pdfrwt>
<pdfrwt beam="2">  1       -2 0.90729215E-01 0.75446483E+03</pdfrwt>
<totfact> 0.11797145E+01</totfact>
</mgrwt>
</event>
<event>
 4    1  0.3032637E-007  0.7848137E+03  0.7818608E-02  0.9744649E-01
          2   -1    0    0  501    0  0.00000000000E+00  0.00000000000E+00  0.28285242702E+04  0.28285242702E+04  0.25500000000E-02 0. -1.
         -2   -1    0    0    0  501 -0.00000000000E+00 -0.00000000000E+00 -0.49218870098E+03  0.49218870099E+03  0.25500000000E-02 0.  1.
    8880023    1    1    2    0    0 -0.42389691864E+03 -0.49333447053E+02 -0.14517941673E+03  0.79812884670E+03  0.65864270000E+03 0.  1.
    8880022    1    1    2    0    0  0.42389691864E+03  0.49333447053E+02  0.24815149859E+04  0.25225841245E+04  0.15294330000E+03 0.  0.
<mgrwt>
<rscale>  0 0.68419537E+03</rscale>
<asrwt>0</asrwt>
<pdfrwt beam="1">  1        2 0.43515758E+00 0.78481373E+03</pdfrwt>
<pdfrwt beam="2">  1       -2 0.75721339E-01 0.78481373E+03</pdfrwt>
<totfact> 0.36604110E+00</totfact>
</mgrwt>
</event>
<event>
 4    1  0.3032637E-007  0.6880321E+03  0.7818608E-02  0.1005102E+00
          2   -1    0    0  501    0  0.00000000000E+00  0.00000000000E+00  0.33349160425E+04  0.33349160425E+04  0.25500000000E-02 0. -1.
         -2   -1    0    0    0  501 -0.00000000000E+00 -0.00000000000E+00 -0.15739555112E+03  0.15739555114E+03  0.25500000000E-02 0.  1.
    8880023    1    1    2    0    0 -0.17004138414E+03 -0.10326627390E+03  0.63134740636E+03  0.93380284291E+03  0.65864270000E+03 0.  1.
    8880022    1    1    2    0    0  0.17004138414E+03  0.10326627390E+03  0.25461730850E+04  0.25585087507E+04  0.15294330000E+03 0.  0.
<mgrwt>
<rscale>  0 0.53468493E+03</rscale>
<asrwt>0</asrwt>
<pdfrwt beam="1">  1        2 0.51306398E+00 0.68803212E+03</pdfrwt>
<pdfrwt beam="2">  1       -2 0.24214701E-01 0.68803212E+03</pdfrwt>
<totfact> 0.17363466E+01</totfact>
</mgrwt>
</event>
<event>
 4    1  0.3032637E-007  0.1290924E+04  0.7818608E-02  0.9073437E-01
          2   -1    0    0  501    0  0.00000000000E+00  0.00000000000E+00  0.17187331128E+04  0.17187331128E+04  0.25500000000E-02 0. -1.
         -2   -1    0    0    0  501 -0.00000000000E+00 -0.00000000000E+00 -0.11756577817E+04  0.11756577817E+04  0.25500000000E-02 0.  1.
    8880023    1    1    2    0    0 -0.10953298310E+04 -0.18145983776E+03 -0.47964290943E+03  0.13771501872E+04  0.65864270000E+03 0.  1.
    8880022    1    1    2    0    0  0.10953298310E+04  0.18145983776E+03  0.10227182405E+04  0.15172407073E+04  0.15294330000E+03 0.  0.
<mgrwt>
<rscale>  0 0.12460979E+04</rscale>
<asrwt>0</asrwt>
<pdfrwt beam="1">  1        2 0.26442048E+00 0.12909242E+04</pdfrwt>
<pdfrwt beam="2">  1       -2 0.18087043E+00 0.12909242E+04</pdfrwt>
<totfact> 0.16456187E+00</totfact>
</mgrwt>
</event>
<event>
 4    1  0.3032637E-007  0.7484219E+03  0.7818608E-02  0.9836060E-01
          2   -1    0    0  501    0  0.00000000000E+00  0.00000000000E+00  0.31913843332E+03  0.31913843333E+03  0.25500000000E-02 0. -1.
         -2   -1    0    0    0  501 -0.00000000000E+00 -0.00000000000E+00 -0.13318056684E+04  0.13318056684E+04  0.25500000000E-02 0.  1.
    8880023    1    1    2    0    0 -0.35064074448E+03 -0.58105701130E+02 -0.10185656359E+04  0.12639665205E+04  0.65864270000E+03 0.  1.
    8880022    1    1    2    0    0  0.35064074448E+03  0.58105701130E+02  0.58984007887E+01  0.38697758119E+03  0.15294330000E+03 0.  0.
<mgrwt>
<rscale>  0 0.63462726E+03</rscale>
<asrwt>0</asrwt>
<pdfrwt beam="1">  1        2 0.49098221E-01 0.74842195E+03</pdfrwt>
<pdfrwt beam="2">  1       -2 0.20489318E+00 0.74842195E+03</pdfrwt>
<totfact> 0.12896655E+01</totfact>
</mgrwt>
</event>
<event>
 4    1  0.3032637E-007  0.2198779E+04  0.7818608E-02  0.8529104E-01
         -2   -1    0    0    0  501 -0.00000000000E+00  0.00000000000E+00  0.20187879866E+04  0.20187879866E+04  0.25500000000E-02 0.  1.
          2   -1    0    0  501    0  0.00000000000E+00 -0.00000000000E+00 -0.30773684479E+04  0.30773684479E+04  0.25500000000E-02 0. -1.
    8880023    1    1    2    0    0  0.14279141620E+04  0.15368405411E+04 -0.18250036781E+04  0.28574930156E+04  0.65864270000E+03 0.  0.
    8880022    1    1    2    0    0 -0.14279141620E+04 -0.15368405411E+04  0.76642321684E+03  0.22386634189E+04  0.15294330000E+03 0.  0.
<mgrwt>
<rscale>  0 0.21745310E+04</rscale>
<asrwt>0</asrwt>
<pdfrwt beam="1">  1        2 0.47344130E+00 0.21987787E+04</pdfrwt>
<pdfrwt beam="2">  1       -2 0.31058277E+00 0.21987787E+04</pdfrwt>
<totfact> 0.36861397E-02</totfact>
</mgrwt>
</event>
<event>
 4    1  0.3032637E-007  0.7265590E+03  0.7818608E-02  0.9900987E-01
          2   -1    0    0  501    0  0.00000000000E+00  0.00000000000E+00  0.50342086130E+03  0.50342086131E+03  0.25500000000E-02 0. -1.
         -2   -1    0    0    0  501 -0.00000000000E+00 -0.00000000000E+00 -0.79630700197E+03  0.79630700197E+03  0.25500000000E-02 0.  1.
    8880023    1    1    2    0    0 -0.19595705520E+03  0.23596323257E+03 -0.51566115407E+03  0.89095142779E+03  0.65864270000E+03 0.  1.
    8880022    1    1    2    0    0  0.19595705520E+03 -0.23596323257E+03  0.22277501339E+03  0.40877643549E+03  0.15294330000E+03 0.  1.
<mgrwt>
<rscale>  0 0.60213490E+03</rscale>
<asrwt>0</asrwt>
<pdfrwt beam="1">  1        2 0.77449363E-01 0.72655903E+03</pdfrwt>
<pdfrwt beam="2">  1       -2 0.12250877E+00 0.72655903E+03</pdfrwt>
<totfact> 0.31243685E+01</totfact>
</mgrwt>
</event>
<event>
 4    1  0.3032637E-007  0.1018368E+04  0.7818608E-02  0.9357911E-01
          2   -1    0    0  501    0  0.00000000000E+00  0.00000000000E+00  0.16271955682E+04  0.16271955682E+04  0.25500000000E-02 0. -1.
         -2   -1    0    0    0  501 -0.00000000000E+00 -0.00000000000E+00 -0.82002939465E+03  0.82002939465E+03  0.25500000000E-02 0.  1.
    8880023    1    1    2    0    0  0.68515012186E+03 -0.36583218631E+03 -0.32213480415E+03  0.10681034202E+04  0.65864270000E+03 0.  1.
    8880022    1    1    2    0    0 -0.68515012186E+03  0.36583218631E+03  0.11293009777E+04  0.13791215426E+04  0.15294330000E+03 0.  0.
<mgrwt>
<rscale>  0 0.95621880E+03</rscale>
<asrwt>0</asrwt>
<pdfrwt beam="1">  1        2 0.25033778E+00 0.10183683E+04</pdfrwt>
<pdfrwt beam="2">  1       -2 0.12615837E+00 0.10183683E+04</pdfrwt>
<totfact> 0.50071275E+00</totfact>
</mgrwt>
</event>
<event>
 4    1  0.3032637E-007  0.1029223E+04  0.7818608E-02  0.9344285E-01
         -2   -1    0    0    0  501 -0.00000000000E+00  0.00000000000E+00  0.83974896652E+03  0.83974896652E+03  0.25500000000E-02 0.  1.
          2   -1    0    0  501    0  0.00000000000E+00 -0.00000000000E+00 -0.14666391161E+04  0.14666391161E+04  0.25500000000E-02 0. -1.
    8880023    1    1    2    0    0  0.69059553884E+03 -0.38544544686E+03  0.30609086863E+03  0.10737747515E+04  0.65864270000E+03 0.  1.
    8880022    1    1    2    0    0 -0.69059553884E+03  0.38544544686E+03 -0.93298101820E+03  0.12326133311E+04  0.15294330000E+03 0.  0.
<mgrwt>
<rscale>  0 0.96806145E+03</rscale>
<asrwt>0</asrwt>
<pdfrwt beam="1">  1        2 0.22563679E+00 0.10292233E+04</pdfrwt>
<pdfrwt beam="2">  1       -2 0.12919215E+00 0.10292233E+04</pdfrwt>
<totfact> 0.57923066E+00</totfact>
</mgrwt>
</event>
<event>
 4    1  0.3032637E-007  0.8791406E+03  0.7818608E-02  0.9560383E-01
         -2   -1    0    0    0  501 -0.00000000000E+00  0.00000000000E+00  0.22707243694E+04  0.22707243694E+04  0.25500000000E-02 0.  1.
          2   -1    0    0  501    0  0.00000000000E+00 -0.00000000000E+00 -0.32748266651E+03  0.32748266652E+03  0.25500000000E-02 0. -1.
    8880023    1    1    2    0    0  0.16316836593E+03 -0.55897584433E+03  0.17625251298E+04  0.19696149242E+04  0.65864270000E+03 0.  0.
    8880022    1    1    2    0    0 -0.16316836593E+03  0.55897584433E+03  0.18071657316E+03  0.62859211180E+03  0.15294330000E+03 0.  0.
<mgrwt>
<rscale>  0 0.79974711E+03</rscale>
<asrwt>0</asrwt>
<pdfrwt beam="1">  1        2 0.50381947E-01 0.87914056E+03</pdfrwt>
<pdfrwt beam="2">  1       -2 0.34934222E+00 0.87914056E+03</pdfrwt>
<totfact> 0.16143120E+00</totfact>
</mgrwt>
</event>
<event>
 4    1  0.3032637E-007  0.9201798E+03  0.7818608E-02  0.9494383E-01
         -2   -1    0    0    0  501 -0.00000000000E+00  0.00000000000E+00  0.33354988813E+03  0.33354988814E+03  0.25500000000E-02 0.  1.
          2   -1    0    0  501    0  0.00000000000E+00 -0.00000000000E+00 -0.32175039455E+04  0.32175039455E+04  0.25500000000E-02 0. -1.
    8880023    1    1    2    0    0 -0.10788215540E+03 -0.63346833490E+03 -0.44104353451E+03  0.10204167268E+04  0.65864270000E+03 0.  0.
    8880022    1    1    2    0    0  0.10788215540E+03  0.63346833490E+03 -0.24429105229E+04  0.25306371069E+04  0.15294330000E+03 0.  0.
<mgrwt>
<rscale>  0 0.84699182E+03</rscale>
<asrwt>0</asrwt>
<pdfrwt beam="1">  1        2 0.49500059E+00 0.92017982E+03</pdfrwt>
<pdfrwt beam="2">  1       -2 0.51315370E-01 0.92017982E+03</pdfrwt>
<totfact> 0.47201482E+00</totfact>
</mgrwt>
</event>
<event>
 4    1  0.3032637E-007  0.9947476E+03  0.7818608E-02  0.9388462E-01
          2   -1    0    0  501    0  0.00000000000E+00  0.00000000000E+00  0.18842733560E+04  0.18842733560E+04  0.25500000000E-02 0. -1.
         -2   -1    0    0    0  501 -0.00000000000E+00 -0.00000000000E+00 -0.10453435104E+04  0.10453435104E+04  0.25500000000E-02 0.  1.
    8880023    1    1    2    0    0 -0.74460691813E+03 -0.35681340040E+02 -0.69759253682E+03  0.12149724994E+04  0.65864270000E+03 0.  0.
    8880022    1    1    2    0    0  0.74460691813E+03  0.35681340040E+02  0.15365223825E+04  0.17146443670E+04  0.15294330000E+03 0.  0.
<mgrwt>
<rscale>  0 0.93031340E+03</rscale>
<asrwt>0</asrwt>
<pdfrwt beam="1">  1        2 0.28988821E+00 0.99474762E+03</pdfrwt>
<pdfrwt beam="2">  1       -2 0.16082208E+00 0.99474762E+03</pdfrwt>
<totfact> 0.19184161E+00</totfact>
</mgrwt>
</event>
<event>
 4    1  0.3032637E-007  0.8115625E+03  0.7818608E-02  0.9686331E-01
          2   -1    0    0  501    0  0.00000000000E+00  0.00000000000E+00  0.32189613123E+04  0.32189613123E+04  0.25500000000E-02 0. -1.
         -2   -1    0    0    0  501 -0.00000000000E+00 -0.00000000000E+00 -0.47239622517E+03  0.47239622517E+03  0.25500000000E-02 0.  1.
    8880023    1    1    2    0    0 -0.20234356606E+03  0.42881305036E+03 -0.85270653924E+02  0.81602992688E+03  0.65864270000E+03 0.  1.
    8880022    1    1    2    0    0  0.20234356606E+03 -0.42881305036E+03  0.28318357411E+04  0.28753276106E+04  0.15294330000E+03 0.  0.
<mgrwt>
<rscale>  0 0.71836480E+03</rscale>
<asrwt>0</asrwt>
<pdfrwt beam="1">  1        2 0.49522481E+00 0.81156254E+03</pdfrwt>
<pdfrwt beam="2">  1       -2 0.72676344E-01 0.81156254E+03</pdfrwt>
<totfact> 0.22916419E+00</totfact>
</mgrwt>
</event>
<event>
 4    1  0.3032637E-007  0.7063412E+03  0.7818608E-02  0.9971847E-01
         -2   -1    0    0    0  501 -0.00000000000E+00  0.00000000000E+00  0.18629726495E+03  0.18629726497E+03  0.25500000000E-02 0.  1.
          2   -1    0    0  501    0  0.00000000000E+00 -0.00000000000E+00 -0.16382443409E+04  0.16382443409E+04  0.25500000000E-02 0. -1.
    8880023    1    1    2    0    0  0.41632094197E+02 -0.25174294953E+03 -0.61592145998E+03  0.93716444397E+03  0.65864270000E+03 0.  1.
    8880022    1    1    2    0    0 -0.41632094197E+02  0.25174294953E+03 -0.83602561596E+03  0.88737716190E+03  0.15294330000E+03 0.  1.
<mgrwt>
<rscale>  0 0.56902122E+03</rscale>
<asrwt>0</asrwt>
<pdfrwt beam="1">  1        2 0.25203758E+00 0.70634124E+03</pdfrwt>
<pdfrwt beam="2">  1       -2 0.28661119E-01 0.70634124E+03</pdfrwt>
<totfact> 0.12122393E+02</totfact>
</mgrwt>
</event>
<event>
 4    1  0.3032637E-007  0.8955055E+03  0.7818608E-02  0.9533286E-01
         -2   -1    0    0    0  501 -0.00000000000E+00  0.00000000000E+00  0.10235720341E+04  0.10235720341E+04  0.25500000000E-02 0.  1.
          2   -1    0    0  501    0  0.00000000000E+00 -0.00000000000E+00 -0.13432053795E+04  0.13432053796E+04  0.25500000000E-02 0. -1.
    8880023    1    1    2    0    0  0.59345356406E+03 -0.12622470802E+03  0.72290836373E+03  0.11508807576E+04  0.65864270000E+03 0.  1.
    8880022    1    1    2    0    0 -0.59345356406E+03  0.12622470802E+03 -0.10425417092E+04  0.12158966560E+04  0.15294330000E+03 0.  0.
<mgrwt>
<rscale>  0 0.81873666E+03</rscale>
<asrwt>0</asrwt>
<pdfrwt beam="1">  1        2 0.20664698E+00 0.89550545E+03</pdfrwt>
<pdfrwt beam="2">  1       -2 0.15747262E+00 0.89550545E+03</pdfrwt>
<totfact> 0.41204889E+00</totfact>
</mgrwt>
</event>
<event>
 4    1  0.3032637E-007  0.8156337E+03  0.7818608E-02  0.9677960E-01
         -2   -1    0    0    0  501 -0.00000000000E+00  0.00000000000E+00  0.46241684879E+03  0.46241684880E+03  0.25500000000E-02 0.  1.
          2   -1    0    0  501    0  0.00000000000E+00 -0.00000000000E+00 -0.11477783880E+04  0.11477783880E+04  0.25500000000E-02 0. -1.
    8880023    1    1    2    0    0  0.47342748651E+03 -0.85524620685E+02 -0.76406293142E+02  0.81920459814E+03  0.65864270000E+03 0.  1.
    8880022    1    1    2    0    0 -0.47342748651E+03  0.85524620685E+02 -0.60895524609E+03  0.79099063868E+03  0.15294330000E+03 0.  0.
<mgrwt>
<rscale>  0 0.72344370E+03</rscale>
<asrwt>0</asrwt>
<pdfrwt beam="1">  1        2 0.17658129E+00 0.81563365E+03</pdfrwt>
<pdfrwt beam="2">  1       -2 0.71141054E-01 0.81563365E+03</pdfrwt>
<totfact> 0.36957843E+01</totfact>
</mgrwt>
</event>
<event>
 4    1  0.3032637E-007  0.8381881E+03  0.7818608E-02  0.9633606E-01
         -2   -1    0    0    0  501 -0.00000000000E+00  0.00000000000E+00  0.66332906642E+03  0.66332906642E+03  0.25500000000E-02 0.  1.
          2   -1    0    0  501    0  0.00000000000E+00 -0.00000000000E+00 -0.96612360643E+03  0.96612360643E+03  0.25500000000E-02 0. -1.
    8880023    1    1    2    0    0  0.47505331366E+03 -0.20754138742E+03  0.23137147212E+03  0.86953553273E+03  0.65864270000E+03 0.  0.
    8880022    1    1    2    0    0 -0.47505331366E+03  0.20754138742E+03 -0.53416601213E+03  0.75991714012E+03  0.15294330000E+03 0.  0.
<mgrwt>
<rscale>  0 0.75111274E+03</rscale>
<asrwt>0</asrwt>
<pdfrwt beam="1">  1        2 0.14863440E+00 0.83818810E+03</pdfrwt>
<pdfrwt beam="2">  1       -2 0.10205063E+00 0.83818810E+03</pdfrwt>
<totfact> 0.21008258E+01</totfact>
</mgrwt>
</event>
<event>
 4    1  0.3032637E-007  0.1599897E+04  0.7818608E-02  0.8842137E-01
         -2   -1    0    0    0  501 -0.00000000000E+00  0.00000000000E+00  0.10421017059E+04  0.10421017059E+04  0.25500000000E-02 0.  1.
          2   -1    0    0  501    0  0.00000000000E+00 -0.00000000000E+00 -0.43900881763E+04  0.43900881763E+04  0.25500000000E-02 0. -1.
    8880023    1    1    2    0    0 -0.17294420164E+03  0.14477400893E+04  0.18167535327E+03  0.16101792457E+04  0.65864270000E+03 0.  0.
    8880022    1    1    2    0    0  0.17294420164E+03 -0.14477400893E+04 -0.35296618237E+04  0.38220106365E+04  0.15294330000E+03 0.  0.
<mgrwt>
<rscale>  0 0.15653268E+04</rscale>
<asrwt>0</asrwt>
<pdfrwt beam="1">  1        2 0.67539817E+00 0.15998973E+04</pdfrwt>
<pdfrwt beam="2">  1       -2 0.16032334E+00 0.15998973E+04</pdfrwt>
<totfact> 0.37441725E-02</totfact>
</mgrwt>
</event>
<event>
 4    1  0.3032637E-007  0.7871337E+03  0.7818608E-02  0.9739339E-01
          2   -1    0    0  501    0  0.00000000000E+00  0.00000000000E+00  0.15507135293E+04  0.15507135293E+04  0.25500000000E-02 0. -1.
         -2   -1    0    0    0  501 -0.00000000000E+00 -0.00000000000E+00 -0.15292473472E+04  0.15292473472E+04  0.25500000000E-02 0.  1.
    8880023    1    1    2    0    0 -0.28476809625E+03  0.32353720064E+03 -0.13893699480E+04  0.15968494755E+04  0.65864270000E+03 0.  1.
    8880022    1    1    2    0    0  0.28476809625E+03 -0.32353720064E+03  0.14108361300E+04  0.14831114010E+04  0.15294330000E+03 0.  0.
<mgrwt>
<rscale>  0 0.68722098E+03</rscale>
<asrwt>0</asrwt>
<pdfrwt beam="1">  1        2 0.23857131E+00 0.78713366E+03</pdfrwt>
<pdfrwt beam="2">  1       -2 0.23526882E+00 0.78713366E+03</pdfrwt>
<totfact> 0.97278483E-01</totfact>
</mgrwt>
</event>
<event>
 4    1  0.3644762E-007  0.9473443E+03  0.7818608E-02  0.9453945E-01
          2   -1    0    0  501    0  0.00000000000E+00  0.00000000000E+00  0.24259530950E+04  0.24259530950E+04  0.25500000000E-02 0. -1.
         -2   -1    0    0    0  501 -0.00000000000E+00 -0.00000000000E+00 -0.11314716932E+04  0.11314716932E+04  0.25500000000E-02 0.  1.
    8880023    1    1    2    0    0 -0.48017695352E+02 -0.67922410266E+03 -0.86815504688E+03  0.12849725571E+04  0.65864270000E+03 0.  1.
    8880022    1    1    2    0    0  0.48017695352E+02  0.67922410266E+03  0.21626364487E+04  0.22724522311E+04  0.15294330000E+03 0.  0.
<mgrwt>
<rscale>  0 0.87766096E+03</rscale>
<asrwt>0</asrwt>
<pdfrwt beam="1">  1        2 0.37322355E+00 0.94734433E+03</pdfrwt>
<pdfrwt beam="2">  1       -2 0.17407257E+00 0.94734433E+03</pdfrwt>
<totfact> 0.77626573E-01</totfact>
</mgrwt>
</event>
<event>
 4    1  0.3032637E-007  0.1097532E+04  0.7818608E-02  0.9263809E-01
         -2   -1    0    0    0  501 -0.00000000000E+00  0.00000000000E+00  0.45345573190E+03  0.45345573191E+03  0.25500000000E-02 0.  1.
          2   -1    0    0  501    0  0.00000000000E+00 -0.00000000000E+00 -0.30865843657E+04  0.30865843657E+04  0.25500000000E-02 0. -1.
    8880023    1    1    2    0    0 -0.70580336997E+03 -0.52211939185E+03 -0.45767722216E+03  0.11891365365E+04  0.65864270000E+03 0.  0.
    8880022    1    1    2    0    0  0.70580336997E+03  0.52211939185E+03 -0.21754514116E+04  0.23509035611E+04  0.15294330000E+03 0.  0.
<mgrwt>
<rscale>  0 0.10418409E+04</rscale>
<asrwt>0</asrwt>
<pdfrwt beam="1">  1        2 0.47485912E+00 0.10975324E+04</pdfrwt>
<pdfrwt beam="2">  1       -2 0.69762422E-01 0.10975324E+04</pdfrwt>
<totfact> 0.29031980E+00</totfact>
</mgrwt>
</event>
<event>
 4    1  0.3032637E-007  0.1199512E+04  0.7818608E-02  0.9157597E-01
         -2   -1    0    0    0  501 -0.00000000000E+00  0.00000000000E+00  0.85776371300E+03  0.85776371301E+03  0.25500000000E-02 0.  1.
          2   -1    0    0  501    0  0.00000000000E+00 -0.00000000000E+00 -0.19873019323E+04  0.19873019323E+04  0.25500000000E-02 0. -1.
    8880023    1    1    2    0    0  0.10018550783E+04  0.36130971603E+02  0.15388620336E+03  0.12093428856E+04  0.65864270000E+03 0.  1.
    8880022    1    1    2    0    0 -0.10018550783E+04 -0.36130971603E+02 -0.12834244227E+04  0.16357227598E+04  0.15294330000E+03 0.  0.
<mgrwt>
<rscale>  0 0.11502025E+04</rscale>
<asrwt>0</asrwt>
<pdfrwt beam="1">  1        2 0.30573876E+00 0.11995121E+04</pdfrwt>
<pdfrwt beam="2">  1       -2 0.13196365E+00 0.11995121E+04</pdfrwt>
<totfact> 0.27680298E+00</totfact>
</mgrwt>
</event>
<event>
 4    1  0.3032637E-007  0.1426499E+04  0.7818608E-02  0.8963361E-01
         -2   -1    0    0    0  501 -0.00000000000E+00  0.00000000000E+00  0.89644922031E+03  0.89644922031E+03  0.25500000000E-02 0.  1.
          2   -1    0    0  501    0  0.00000000000E+00 -0.00000000000E+00 -0.35075888691E+04  0.35075888691E+04  0.25500000000E-02 0. -1.
    8880023    1    1    2    0    0  0.12065418804E+04  0.38124074860E+03 -0.27738364731E+04  0.31191452040E+04  0.65864270000E+03 0.  0.
    8880022    1    1    2    0    0 -0.12065418804E+04 -0.38124074860E+03  0.16269682433E+03  0.12848928855E+04  0.15294330000E+03 0.  0.
<mgrwt>
<rscale>  0 0.13868924E+04</rscale>
<asrwt>0</asrwt>
<pdfrwt beam="1">  1        2 0.53962905E+00 0.14264985E+04</pdfrwt>
<pdfrwt beam="2">  1       -2 0.13791527E+00 0.14264985E+04</pdfrwt>
<totfact> 0.28912742E-01</totfact>
</mgrwt>
</event>
<event>
 4    1  0.3032637E-007  0.8997952E+03  0.7818608E-02  0.9526360E-01
          2   -1    0    0  501    0  0.00000000000E+00  0.00000000000E+00  0.28158523944E+04  0.28158523944E+04  0.25500000000E-02 0. -1.
         -2   -1    0    0    0  501 -0.00000000000E+00 -0.00000000000E+00 -0.61675554341E+03  0.61675554342E+03  0.25500000000E-02 0.  1.
    8880023    1    1    2    0    0  0.24789086840E+02  0.61254124884E+03 -0.22501759078E+03  0.92750439502E+03  0.65864270000E+03 0.  1.
    8880022    1    1    2    0    0 -0.24789086840E+02 -0.61254124884E+03  0.24241144417E+04  0.25051035428E+04  0.15294330000E+03 0.  0.
<mgrwt>
<rscale>  0 0.82367967E+03</rscale>
<asrwt>0</asrwt>
<pdfrwt beam="1">  1        2 0.43320806E+00 0.89979525E+03</pdfrwt>
<pdfrwt beam="2">  1       -2 0.94885469E-01 0.89979525E+03</pdfrwt>
<totfact> 0.21813764E+00</totfact>
</mgrwt>
</event>
<event>
 4    1  0.3032637E-007  0.8110907E+03  0.7818608E-02  0.9687310E-01
         -2   -1    0    0    0  501 -0.00000000000E+00  0.00000000000E+00  0.15030565049E+03  0.15030565051E+03  0.25500000000E-02 0.  1.
          2   -1    0    0  501    0  0.00000000000E+00 -0.00000000000E+00 -0.28983437525E+04  0.28983437525E+04  0.25500000000E-02 0. -1.
    8880023    1    1    2    0    0  0.35126049772E+03  0.31729154325E+03 -0.15024238739E+04  0.17073797363E+04  0.65864270000E+03 0.  0.
    8880022    1    1    2    0    0 -0.35126049772E+03 -0.31729154325E+03 -0.12456142281E+04  0.13412696668E+04  0.15294330000E+03 0.  0.
<mgrwt>
<rscale>  0 0.71777426E+03</rscale>
<asrwt>0</asrwt>
<pdfrwt beam="1">  1        2 0.44589900E+00 0.81109067E+03</pdfrwt>
<pdfrwt beam="2">  1       -2 0.23123948E-01 0.81109067E+03</pdfrwt>
<totfact> 0.34692197E+01</totfact>
</mgrwt>
</event>
<event>
 4    1  0.4323291E-007  0.9356576E+03  0.7818608E-02  0.9471057E-01
         -2   -1    0    0    0  501 -0.00000000000E+00  0.00000000000E+00  0.11391763529E+04  0.11391763529E+04  0.25500000000E-02 0.  1.
          2   -1    0    0  501    0  0.00000000000E+00 -0.00000000000E+00 -0.20004791325E+04  0.20004791325E+04  0.25500000000E-02 0. -1.
    8880023    1    1    2    0    0  0.68651823664E+02 -0.66100820776E+03  0.87077817540E+03  0.12781665622E+04  0.65864270000E+03 0.  0.
    8880022    1    1    2    0    0 -0.68651823664E+02  0.66100820776E+03 -0.17320809550E+04  0.18614889232E+04  0.15294330000E+03 0.  0.
<mgrwt>
<rscale>  0 0.86451712E+03</rscale>
<asrwt>0</asrwt>
<pdfrwt beam="1">  1        2 0.30776602E+00 0.93565759E+03</pdfrwt>
<pdfrwt beam="2">  1       -2 0.17525790E+00 0.93565759E+03</pdfrwt>
<totfact> 0.13160584E+00</totfact>
</mgrwt>
</event>
<event>
 4    1  0.3032637E-007  0.1060251E+04  0.7818608E-02  0.9306659E-01
          2   -1    0    0  501    0  0.00000000000E+00  0.00000000000E+00  0.19134594180E+04  0.19134594180E+04  0.25500000000E-02 0. -1.
         -2   -1    0    0    0  501 -0.00000000000E+00 -0.00000000000E+00 -0.12263633824E+04  0.12263633824E+04  0.25500000000E-02 0.  1.
    8880023    1    1    2    0    0 -0.44474124186E+03 -0.70180244313E+03  0.15850250799E+04  0.19069441920E+04  0.65864270000E+03 0.  0.
    8880022    1    1    2    0    0  0.44474124186E+03  0.70180244313E+03 -0.89792904430E+03  0.12328786084E+04  0.15294330000E+03 0.  0.
<mgrwt>
<rscale>  0 0.10017213E+04</rscale>
<asrwt>0</asrwt>
<pdfrwt beam="1">  1        2 0.29437837E+00 0.10602507E+04</pdfrwt>
<pdfrwt beam="2">  1       -2 0.18867129E+00 0.10602507E+04</pdfrwt>
<totfact> 0.11673894E+00</totfact>
</mgrwt>
</event>
<event>
 4    1  0.3032637E-007  0.1637345E+04  0.7818608E-02  0.8818286E-01
         -2   -1    0    0    0  501 -0.00000000000E+00  0.00000000000E+00  0.12299354430E+04  0.12299354430E+04  0.25500000000E-02 0.  1.
          2   -1    0    0  501    0  0.00000000000E+00 -0.00000000000E+00 -0.22936659116E+04  0.22936659116E+04  0.25500000000E-02 0. -1.
    8880023    1    1    2    0    0 -0.14071268993E+04  0.51680042149E+03  0.68555822129E+02  0.16387796964E+04  0.65864270000E+03 0.  0.
    8880022    1    1    2    0    0  0.14071268993E+04 -0.51680042149E+03 -0.11322862907E+04  0.18848216583E+04  0.15294330000E+03 0.  0.
<mgrwt>
<rscale>  0 0.16036880E+04</rscale>
<asrwt>0</asrwt>
<pdfrwt beam="1">  1        2 0.35287168E+00 0.16373451E+04</pdfrwt>
<pdfrwt beam="2">  1       -2 0.18922084E+00 0.16373451E+04</pdfrwt>
<totfact> 0.66502244E-01</totfact>
</mgrwt>
</event>
<event>
 4    1  0.3032637E-007  0.6747571E+03  0.7818608E-02  0.1012460E+00
         -2   -1    0    0    0  501 -0.00000000000E+00  0.00000000000E+00  0.19059077435E+03  0.19059077437E+03  0.25500000000E-02 0.  1.
          2   -1    0    0  501    0  0.00000000000E+00 -0.00000000000E+00 -0.12014013645E+04  0.12014013645E+04  0.25500000000E-02 0. -1.
    8880023    1    1    2    0    0  0.10748744494E+03  0.99666149518E+02 -0.50252209756E+03  0.84132369334E+03  0.65864270000E+03 0.  1.
    8880022    1    1    2    0    0 -0.10748744494E+03 -0.99666149518E+02 -0.50828849254E+03  0.55066844548E+03  0.15294330000E+03 0.  1.
<mgrwt>
<rscale>  0 0.50508611E+03</rscale>
<asrwt>0</asrwt>
<pdfrwt beam="1">  1        2 0.18483097E+00 0.67475707E+03</pdfrwt>
<pdfrwt beam="2">  1       -2 0.29321658E-01 0.67475707E+03</pdfrwt>
<totfact> 0.20557303E+02</totfact>
</mgrwt>
</event>
<event>
 4    1  0.3032637E-007  0.7343194E+03  0.7818608E-02  0.9876814E-01
          2   -1    0    0  501    0  0.00000000000E+00  0.00000000000E+00  0.19251632934E+04  0.19251632934E+04  0.25500000000E-02 0. -1.
         -2   -1    0    0    0  501 -0.00000000000E+00 -0.00000000000E+00 -0.22787006225E+03  0.22787006227E+03  0.25500000000E-02 0.  1.
    8880023    1    1    2    0    0 -0.14516432536E+01  0.32467318572E+03  0.46411968764E+03  0.86869561730E+03  0.65864270000E+03 0.  1.
    8880022    1    1    2    0    0  0.14516432536E+01 -0.32467318572E+03  0.12331735435E+04  0.12843377384E+04  0.15294330000E+03 0.  0.
<mgrwt>
<rscale>  0 0.61398244E+03</rscale>
<asrwt>0</asrwt>
<pdfrwt beam="1">  1        2 0.29617896E+00 0.73431941E+03</pdfrwt>
<pdfrwt beam="2">  1       -2 0.35056934E-01 0.73431941E+03</pdfrwt>
<totfact> 0.57813881E+01</totfact>
</mgrwt>
</event>
<event>
 4    1  0.3032637E-007  0.9139521E+03  0.7818608E-02  0.9503995E-01
          2   -1    0    0  501    0  0.00000000000E+00  0.00000000000E+00  0.16753682222E+04  0.16753682222E+04  0.25500000000E-02 0. -1.
         -2   -1    0    0    0  501 -0.00000000000E+00 -0.00000000000E+00 -0.72220741924E+03  0.72220741925E+03  0.25500000000E-02 0.  1.
    8880023    1    1    2    0    0  0.25049408760E+03 -0.58202312362E+03  0.13530851436E+04  0.16328342894E+04  0.65864270000E+03 0. -1.
    8880022    1    1    2    0    0 -0.25049408760E+03  0.58202312362E+03 -0.39992434066E+03  0.76474135210E+03  0.15294330000E+03 0.  0.
<mgrwt>
<rscale>  0 0.83989910E+03</rscale>
<asrwt>0</asrwt>
<pdfrwt beam="1">  1        2 0.25774896E+00 0.91395208E+03</pdfrwt>
<pdfrwt beam="2">  1       -2 0.11110883E+00 0.91395208E+03</pdfrwt>
<totfact> 0.65294407E+00</totfact>
</mgrwt>
</event>
<event>
 4    1  0.3032637E-007  0.1903227E+04  0.7818608E-02  0.8667486E-01
          2   -1    0    0  501    0  0.00000000000E+00  0.00000000000E+00  0.34169151567E+04  0.34169151567E+04  0.25500000000E-02 0. -1.
         -2   -1    0    0    0  501 -0.00000000000E+00 -0.00000000000E+00 -0.26045868257E+04  0.26045868257E+04  0.25500000000E-02 0.  1.
    8880023    1    1    2    0    0 -0.19265104742E+03 -0.17752035819E+04 -0.19525029973E+04  0.27266353523E+04  0.65864270000E+03 0.  0.
    8880022    1    1    2    0    0  0.19265104742E+03  0.17752035819E+04  0.27648313283E+04  0.32948666301E+04  0.15294330000E+03 0.  0.
<mgrwt>
<rscale>  0 0.18748321E+04</rscale>
<asrwt>0</asrwt>
<pdfrwt beam="1">  1        2 0.52567925E+00 0.19032268E+04</pdfrwt>
<pdfrwt beam="2">  1       -2 0.40070567E+00 0.19032268E+04</pdfrwt>
<totfact> 0.60734528E-03</totfact>
</mgrwt>
</event>
<event>
 4    1  0.3032637E-007  0.8905254E+03  0.7818608E-02  0.9541416E-01
          2   -1    0    0  501    0  0.00000000000E+00  0.00000000000E+00  0.12529165810E+04  0.12529165810E+04  0.25500000000E-02 0. -1.
         -2   -1    0    0    0  501 -0.00000000000E+00 -0.00000000000E+00 -0.89095202160E+03  0.89095202161E+03  0.25500000000E-02 0.  1.
    8880023    1    1    2    0    0 -0.59817172864E+03  0.37628074774E+02 -0.54647693732E+03  0.10448313444E+04  0.65864270000E+03 0.  0.
    8880022    1    1    2    0    0  0.59817172864E+03 -0.37628074774E+02  0.90844149669E+03  0.10990372582E+04  0.15294330000E+03 0.  0.
<mgrwt>
<rscale>  0 0.81298074E+03</rscale>
<asrwt>0</asrwt>
<pdfrwt beam="1">  1        2 0.19275640E+00 0.89052540E+03</pdfrwt>
<pdfrwt beam="2">  1       -2 0.13706954E+00 0.89052540E+03</pdfrwt>
<totfact> 0.67085637E+00</totfact>
</mgrwt>
</event>
<event>
 4    1  0.3032637E-007  0.9508180E+03  0.7818608E-02  0.9448938E-01
          2   -1    0    0  501    0  0.00000000000E+00  0.00000000000E+00  0.26306987847E+04  0.26306987847E+04  0.25500000000E-02 0. -1.
         -2   -1    0    0    0  501 -0.00000000000E+00 -0.00000000000E+00 -0.65842313126E+03  0.65842313126E+03  0.25500000000E-02 0.  1.
    8880023    1    1    2    0    0 -0.35090651784E+03  0.58915977234E+03 -0.22936561791E+03  0.97809172093E+03  0.65864270000E+03 0.  0.
    8880022    1    1    2    0    0  0.35090651784E+03 -0.58915977234E+03  0.22016412714E+04  0.23110301951E+04  0.15294330000E+03 0.  0.
<mgrwt>
<rscale>  0 0.88155400E+03</rscale>
<asrwt>0</asrwt>
<pdfrwt beam="1">  1        2 0.40472288E+00 0.95081798E+03</pdfrwt>
<pdfrwt beam="2">  1       -2 0.10129587E+00 0.95081798E+03</pdfrwt>
<totfact> 0.23818831E+00</totfact>
</mgrwt>
</event>
<event>
 4    1  0.3032637E-007  0.8195832E+03  0.7818608E-02  0.9669951E-01
          2   -1    0    0  501    0  0.00000000000E+00  0.00000000000E+00  0.32897649101E+04  0.32897649101E+04  0.25500000000E-02 0. -1.
         -2   -1    0    0    0  501 -0.00000000000E+00 -0.00000000000E+00 -0.32248128041E+03  0.32248128042E+03  0.25500000000E-02 0.  1.
    8880023    1    1    2    0    0 -0.48622513570E+03  0.38620683271E+02  0.26399400708E+03  0.86105138163E+03  0.65864270000E+03 0.  1.
    8880022    1    1    2    0    0  0.48622513570E+03 -0.38620683271E+02  0.27032896226E+04  0.27511948088E+04  0.15294330000E+03 0.  0.
<mgrwt>
<rscale>  0 0.72834446E+03</rscale>
<asrwt>0</asrwt>
<pdfrwt beam="1">  1        2 0.50611769E+00 0.81958321E+03</pdfrwt>
<pdfrwt beam="2">  1       -2 0.49612504E-01 0.81958321E+03</pdfrwt>
<totfact> 0.46206191E+00</totfact>
</mgrwt>
</event>
<event>
 4    1  0.3032637E-007  0.1033811E+04  0.7818608E-02  0.9338600E-01
          2   -1    0    0  501    0  0.00000000000E+00  0.00000000000E+00  0.58591213973E+04  0.58591213973E+04  0.25500000000E-02 0. -1.
         -2   -1    0    0    0  501 -0.00000000000E+00 -0.00000000000E+00 -0.26018704247E+03  0.26018704248E+03  0.25500000000E-02 0.  1.
    8880023    1    1    2    0    0  0.19072442364E+03 -0.77367953542E+03  0.96280751488E+03  0.14127152389E+04  0.65864270000E+03 0.  0.
    8880022    1    1    2    0    0 -0.19072442364E+03  0.77367953542E+03  0.46361268400E+04  0.47065932009E+04  0.15294330000E+03 0.  0.
<mgrwt>
<rscale>  0 0.97305612E+03</rscale>
<asrwt>0</asrwt>
<pdfrwt beam="1">  1        2 0.90140322E+00 0.10338114E+04</pdfrwt>
<pdfrwt beam="2">  1       -2 0.40028779E-01 0.10338114E+04</pdfrwt>
<totfact> 0.64584933E-03</totfact>
</mgrwt>
</event>
<event>
 4    1  0.3032637E-007  0.7671243E+03  0.7818608E-02  0.9787001E-01
          2   -1    0    0  501    0  0.00000000000E+00  0.00000000000E+00  0.25041372078E+04  0.25041372078E+04  0.25500000000E-02 0. -1.
         -2   -1    0    0    0  501 -0.00000000000E+00 -0.00000000000E+00 -0.22941438447E+03  0.22941438448E+03  0.25500000000E-02 0.  1.
    8880023    1    1    2    0    0  0.17977270774E+03  0.34978752996E+03  0.51504600509E+03  0.92398708659E+03  0.65864270000E+03 0.  1.
    8880022    1    1    2    0    0 -0.17977270774E+03 -0.34978752996E+03  0.17596768182E+04  0.18095645056E+04  0.15294330000E+03 0.  0.
<mgrwt>
<rscale>  0 0.66064854E+03</rscale>
<asrwt>0</asrwt>
<pdfrwt beam="1">  1        2 0.38525189E+00 0.76712434E+03</pdfrwt>
<pdfrwt beam="2">  1       -2 0.35294520E-01 0.76712434E+03</pdfrwt>
<totfact> 0.27182003E+01</totfact>
</mgrwt>
</event>
<event>
 4    1  0.3032637E-007  0.1114274E+04  0.7818608E-02  0.9245328E-01
          2   -1    0    0  501    0  0.00000000000E+00  0.00000000000E+00  0.11136535150E+04  0.11136535150E+04  0.25500000000E-02 0. -1.
         -2   -1    0    0    0  501 -0.00000000000E+00 -0.00000000000E+00 -0.19541221450E+04  0.19541221450E+04  0.25500000000E-02 0.  1.
    8880023    1    1    2    0    0 -0.87118162138E+03 -0.22099415566E+03 -0.15524967633E+04  0.19109820095E+04  0.65864270000E+03 0.  0.
    8880022    1    1    2    0    0  0.87118162138E+03  0.22099415566E+03  0.71202813333E+03  0.11567936505E+04  0.15294330000E+03 0.  0.
<mgrwt>
<rscale>  0 0.10597570E+04</rscale>
<asrwt>0</asrwt>
<pdfrwt beam="1">  1        2 0.17133131E+00 0.11142738E+04</pdfrwt>
<pdfrwt beam="2">  1       -2 0.30063418E+00 0.11142738E+04</pdfrwt>
<totfact> 0.66502298E-01</totfact>
</mgrwt>
</event>
<event>
 4    1  0.3032637E-007  0.7176302E+03  0.7818608E-02  0.9930688E-01
          2   -1    0    0  501    0  0.00000000000E+00  0.00000000000E+00  0.13384131056E+04  0.13384131056E+04  0.25500000000E-02 0. -1.
         -2   -1    0    0    0  501 -0.00000000000E+00 -0.00000000000E+00 -0.33029731078E+03  0.33029731079E+03  0.25500000000E-02 0.  1.
    8880023    1    1    2    0    0  0.28357570226E+03 -0.27706693358E+02  0.12524309460E+03  0.72847709557E+03  0.65864270000E+03 0.  1.
    8880022    1    1    2    0    0 -0.28357570226E+03  0.27706693358E+02  0.88287270022E+03  0.94023332082E+03  0.15294330000E+03 0.  0.
<mgrwt>
<rscale>  0 0.58796806E+03</rscale>
<asrwt>0</asrwt>
<pdfrwt beam="1">  1        2 0.20590971E+00 0.71763016E+03</pdfrwt>
<pdfrwt beam="2">  1       -2 0.50814971E-01 0.71763016E+03</pdfrwt>
<totfact> 0.58761656E+01</totfact>
</mgrwt>
</event>
<event>
 4    1  0.3112480E-007  0.9941812E+03  0.7818608E-02  0.9389210E-01
          2   -1    0    0  501    0  0.00000000000E+00  0.00000000000E+00  0.41287777284E+04  0.41287777284E+04  0.25500000000E-02 0. -1.
         -2   -1    0    0    0  501 -0.00000000000E+00 -0.00000000000E+00 -0.12101681671E+04  0.12101681671E+04  0.25500000000E-02 0.  1.
    8880023    1    1    2    0    0 -0.70048257263E+03  0.25280482507E+03 -0.96268660780E+03  0.13838937189E+04  0.65864270000E+03 0.  1.
    8880022    1    1    2    0    0  0.70048257263E+03 -0.25280482507E+03  0.38812961691E+04  0.39550521765E+04  0.15294330000E+03 0.  0.
<mgrwt>
<rscale>  0 0.92968979E+03</rscale>
<asrwt>0</asrwt>
<pdfrwt beam="1">  1        2 0.63519658E+00 0.99418123E+03</pdfrwt>
<pdfrwt beam="2">  1       -2 0.18617972E+00 0.99418123E+03</pdfrwt>
<totfact> 0.46445505E-02</totfact>
</mgrwt>
</event>
<event>
 4    1  0.3032637E-007  0.9956157E+03  0.7818608E-02  0.9387316E-01
          2   -1    0    0  501    0  0.00000000000E+00  0.00000000000E+00  0.16884486596E+04  0.16884486596E+04  0.25500000000E-02 0. -1.
         -2   -1    0    0    0  501 -0.00000000000E+00 -0.00000000000E+00 -0.78643342875E+03  0.78643342876E+03  0.25500000000E-02 0.  1.
    8880023    1    1    2    0    0  0.71247589547E+03  0.22320040588E+03 -0.31035341111E+03  0.10428661318E+04  0.65864270000E+03 0.  1.
    8880022    1    1    2    0    0 -0.71247589547E+03 -0.22320040588E+03  0.12123686420E+04  0.14320159566E+04  0.15294330000E+03 0.  0.
<mgrwt>
<rscale>  0 0.93126890E+03</rscale>
<asrwt>0</asrwt>
<pdfrwt beam="1">  1        2 0.25976133E+00 0.99561565E+03</pdfrwt>
<pdfrwt beam="2">  1       -2 0.12098976E+00 0.99561565E+03</pdfrwt>
<totfact> 0.51572916E+00</totfact>
</mgrwt>
</event>
<event>
 4    1  0.3032637E-007  0.7142296E+03  0.7818608E-02  0.9942618E-01
         -2   -1    0    0    0  501 -0.00000000000E+00  0.00000000000E+00  0.26286750847E+04  0.26286750847E+04  0.25500000000E-02 0.  1.
          2   -1    0    0  501    0  0.00000000000E+00 -0.00000000000E+00 -0.76922291718E+03  0.76922291718E+03  0.25500000000E-02 0. -1.
    8880023    1    1    2    0    0 -0.79786665651E+02 -0.26447635448E+03  0.25448953550E+04  0.26432208058E+04  0.65864270000E+03 0.  0.
    8880022    1    1    2    0    0  0.79786665651E+02  0.26447635448E+03 -0.68544318745E+03  0.75467719611E+03  0.15294330000E+03 0. -1.
<mgrwt>
<rscale>  0 0.58239568E+03</rscale>
<asrwt>0</asrwt>
<pdfrwt beam="1">  1        2 0.11834199E+00 0.71422956E+03</pdfrwt>
<pdfrwt beam="2">  1       -2 0.40441155E+00 0.71422956E+03</pdfrwt>
<totfact> 0.27090955E-01</totfact>
</mgrwt>
</event>
<event>
 4    1  0.3032637E-007  0.1170513E+04  0.7818608E-02  0.9186333E-01
         -2   -1    0    0    0  501 -0.00000000000E+00  0.00000000000E+00  0.10588157304E+04  0.10588157304E+04  0.25500000000E-02 0.  1.
          2   -1    0    0  501    0  0.00000000000E+00 -0.00000000000E+00 -0.14678562123E+04  0.14678562123E+04  0.25500000000E-02 0. -1.
    8880023    1    1    2    0    0 -0.96714688573E+03  0.30270392033E+02  0.41973343465E+03  0.12434933686E+04  0.65864270000E+03 0.  0.
    8880022    1    1    2    0    0  0.96714688573E+03 -0.30270392033E+02 -0.82877391655E+03  0.12831785741E+04  0.15294330000E+03 0.  0.
<mgrwt>
<rscale>  0 0.11195614E+04</rscale>
<asrwt>0</asrwt>
<pdfrwt beam="1">  1        2 0.22582403E+00 0.11705125E+04</pdfrwt>
<pdfrwt beam="2">  1       -2 0.16289473E+00 0.11705125E+04</pdfrwt>
<totfact> 0.30924781E+00</totfact>
</mgrwt>
</event>
<event>
 4    1  0.3032637E-007  0.7561339E+03  0.7818608E-02  0.9815221E-01
          2   -1    0    0  501    0  0.00000000000E+00  0.00000000000E+00  0.20112374907E+04  0.20112374907E+04  0.25500000000E-02 0. -1.
         -2   -1    0    0    0  501 -0.00000000000E+00 -0.00000000000E+00 -0.39333942961E+03  0.39333942961E+03  0.25500000000E-02 0.  1.
    8880023    1    1    2    0    0  0.20129309622E+03  0.31210462730E+03  0.19390906198E+02  0.75638245781E+03  0.65864270000E+03 0.  0.
    8880022    1    1    2    0    0 -0.20129309622E+03 -0.31210462730E+03  0.15985071549E+04  0.16481944625E+04  0.15294330000E+03 0.  0.
<mgrwt>
<rscale>  0 0.64552044E+03</rscale>
<asrwt>0</asrwt>
<pdfrwt beam="1">  1        2 0.30942116E+00 0.75613386E+03</pdfrwt>
<pdfrwt beam="2">  1       -2 0.60513757E-01 0.75613386E+03</pdfrwt>
<totfact> 0.17316917E+01</totfact>
</mgrwt>
</event>
<event>
 4    1  0.3032637E-007  0.1126953E+04  0.7818608E-02  0.9231625E-01
         -2   -1    0    0    0  501 -0.00000000000E+00  0.00000000000E+00  0.74409492332E+03  0.74409492333E+03  0.25500000000E-02 0.  1.
          2   -1    0    0  501    0  0.00000000000E+00 -0.00000000000E+00 -0.19552495613E+04  0.19552495613E+04  0.25500000000E-02 0. -1.
    8880023    1    1    2    0    0 -0.86173455936E+02  0.91037726391E+03  0.57024715431E+02  0.11283947233E+04  0.65864270000E+03 0.  0.
    8880022    1    1    2    0    0  0.86173455936E+02 -0.91037726391E+03 -0.12681793534E+04  0.15709497613E+04  0.15294330000E+03 0.  0.
<mgrwt>
<rscale>  0 0.10732889E+04</rscale>
<asrwt>0</asrwt>
<pdfrwt beam="1">  1        2 0.30080762E+00 0.11269529E+04</pdfrwt>
<pdfrwt beam="2">  1       -2 0.11447614E+00 0.11269529E+04</pdfrwt>
<totfact> 0.41524880E+00</totfact>
</mgrwt>
</event>
<event>
 4    1  0.3032637E-007  0.1301328E+04  0.7818608E-02  0.9064414E-01
          2   -1    0    0  501    0  0.00000000000E+00  0.00000000000E+00  0.12218689455E+04  0.12218689455E+04  0.25500000000E-02 0. -1.
         -2   -1    0    0    0  501 -0.00000000000E+00 -0.00000000000E+00 -0.15164018089E+04  0.15164018089E+04  0.25500000000E-02 0.  1.
    8880023    1    1    2    0    0  0.10500703135E+04 -0.39622678642E+03  0.45663729135E+03  0.13791197017E+04  0.65864270000E+03 0.  0.
    8880022    1    1    2    0    0 -0.10500703135E+04  0.39622678642E+03 -0.75117015471E+03  0.13591510526E+04  0.15294330000E+03 0.  0.
<mgrwt>
<rscale>  0 0.12569552E+04</rscale>
<asrwt>0</asrwt>
<pdfrwt beam="1">  1        2 0.18797984E+00 0.13013276E+04</pdfrwt>
<pdfrwt beam="2">  1       -2 0.23329259E+00 0.13013276E+04</pdfrwt>
<totfact> 0.14410624E+00</totfact>
</mgrwt>
</event>
<event>
 4    1  0.3032637E-007  0.1347953E+04  0.7818608E-02  0.9025218E-01
         -2   -1    0    0    0  501 -0.00000000000E+00  0.00000000000E+00  0.92429316718E+03  0.92429316718E+03  0.25500000000E-02 0.  1.
          2   -1    0    0  501    0  0.00000000000E+00 -0.00000000000E+00 -0.33504681104E+04  0.33504681104E+04  0.25500000000E-02 0. -1.
    8880023    1    1    2    0    0  0.16288076467E+03  0.11647470285E+04  0.22852504586E+03  0.13671867783E+04  0.65864270000E+03 0.  0.
    8880022    1    1    2    0    0 -0.16288076467E+03 -0.11647470285E+04 -0.26546999891E+04  0.29075744993E+04  0.15294330000E+03 0.  0.
<mgrwt>
<rscale>  0 0.13054963E+04</rscale>
<asrwt>0</asrwt>
<pdfrwt beam="1">  1        2 0.51545663E+00 0.13479525E+04</pdfrwt>
<pdfrwt beam="2">  1       -2 0.14219895E+00 0.13479525E+04</pdfrwt>
<totfact> 0.34506171E-01</totfact>
</mgrwt>
</event>
<event>
 4    1  0.3032637E-007  0.9496537E+03  0.7818608E-02  0.9450613E-01
         -2   -1    0    0    0  501 -0.00000000000E+00  0.00000000000E+00  0.10309320867E+04  0.10309320867E+04  0.25500000000E-02 0.  1.
          2   -1    0    0  501    0  0.00000000000E+00 -0.00000000000E+00 -0.12590163503E+04  0.12590163503E+04  0.25500000000E-02 0. -1.
    8880023    1    1    2    0    0  0.22978086256E+03  0.64438546516E+03  0.66150959167E+03  0.11573404938E+04  0.65864270000E+03 0.  0.
    8880022    1    1    2    0    0 -0.22978086256E+03 -0.64438546516E+03 -0.88959385532E+03  0.11326079432E+04  0.15294330000E+03 0.  0.
<mgrwt>
<rscale>  0 0.88024979E+03</rscale>
<asrwt>0</asrwt>
<pdfrwt beam="1">  1        2 0.19369482E+00 0.94965366E+03</pdfrwt>
<pdfrwt beam="2">  1       -2 0.15860494E+00 0.94965366E+03</pdfrwt>
<totfact> 0.44936713E+00</totfact>
</mgrwt>
</event>
<event>
 4    1  0.3032637E-007  0.9371661E+03  0.7818608E-02  0.9468825E-01
          2   -1    0    0  501    0  0.00000000000E+00  0.00000000000E+00  0.13180683194E+04  0.13180683194E+04  0.25500000000E-02 0. -1.
         -2   -1    0    0    0  501 -0.00000000000E+00 -0.00000000000E+00 -0.78588339061E+03  0.78588339061E+03  0.25500000000E-02 0.  1.
    8880023    1    1    2    0    0 -0.45588346416E+03 -0.48645685997E+03 -0.33876534176E+03  0.99651501371E+03  0.65864270000E+03 0.  1.
    8880022    1    1    2    0    0  0.45588346416E+03  0.48645685997E+03  0.87095027052E+03  0.11074366963E+04  0.15294330000E+03 0.  0.
<mgrwt>
<rscale>  0 0.86621778E+03</rscale>
<asrwt>0</asrwt>
<pdfrwt beam="1">  1        2 0.20277974E+00 0.93716606E+03</pdfrwt>
<pdfrwt beam="2">  1       -2 0.12090514E+00 0.93716606E+03</pdfrwt>
<totfact> 0.84039668E+00</totfact>
</mgrwt>
</event>
<event>
 4    1  0.3032637E-007  0.9940984E+03  0.7818608E-02  0.9389320E-01
          2   -1    0    0  501    0  0.00000000000E+00  0.00000000000E+00  0.49121110464E+03  0.49121110464E+03  0.25500000000E-02 0. -1.
         -2   -1    0    0    0  501 -0.00000000000E+00 -0.00000000000E+00 -0.16020442608E+04  0.16020442608E+04  0.25500000000E-02 0.  1.
    8880023    1    1    2    0    0  0.73082763756E+03 -0.14252119656E+03 -0.78300651954E+03  0.12654369772E+04  0.65864270000E+03 0.  1.
    8880022    1    1    2    0    0 -0.73082763756E+03  0.14252119656E+03 -0.32782663664E+03  0.82781838829E+03  0.15294330000E+03 0.  0.
<mgrwt>
<rscale>  0 0.92959853E+03</rscale>
<asrwt>0</asrwt>
<pdfrwt beam="1">  1        2 0.75570940E-01 0.99409835E+03</pdfrwt>
<pdfrwt beam="2">  1       -2 0.24646835E+00 0.99409835E+03</pdfrwt>
<totfact> 0.42485452E+00</totfact>
</mgrwt>
</event>
<event>
 4    1  0.3032637E-007  0.9514909E+03  0.7818608E-02  0.9447972E-01
          2   -1    0    0  501    0  0.00000000000E+00  0.00000000000E+00  0.25931918502E+04  0.25931918502E+04  0.25500000000E-02 0. -1.
         -2   -1    0    0    0  501 -0.00000000000E+00 -0.00000000000E+00 -0.49796428220E+03  0.49796428221E+03  0.25500000000E-02 0.  1.
    8880023    1    1    2    0    0  0.58324489208E+03  0.36242258893E+03  0.77892684407E+02  0.95467387817E+03  0.65864270000E+03 0. -1.
    8880022    1    1    2    0    0 -0.58324489208E+03 -0.36242258893E+03  0.20173348836E+04  0.21364822543E+04  0.15294330000E+03 0.  0.
<mgrwt>
<rscale>  0 0.88230748E+03</rscale>
<asrwt>0</asrwt>
<pdfrwt beam="1">  1        2 0.39895259E+00 0.95149091E+03</pdfrwt>
<pdfrwt beam="2">  1       -2 0.76609891E-01 0.95149091E+03</pdfrwt>
<totfact> 0.47680085E+00</totfact>
</mgrwt>
</event>
<event>
 4    1  0.3032637E-007  0.9658072E+03  0.7818608E-02  0.9427727E-01
          2   -1    0    0  501    0  0.00000000000E+00  0.00000000000E+00  0.27773671756E+04  0.27773671756E+04  0.25500000000E-02 0. -1.
         -2   -1    0    0    0  501 -0.00000000000E+00 -0.00000000000E+00 -0.27725315107E+03  0.27725315108E+03  0.25500000000E-02 0.  1.
    8880023    1    1    2    0    0 -0.30872775529E+03  0.63534286909E+03  0.10042650543E+04  0.13933168677E+04  0.65864270000E+03 0.  0.
    8880022    1    1    2    0    0  0.30872775529E+03 -0.63534286909E+03  0.14958489702E+04  0.16613034590E+04  0.15294330000E+03 0.  0.
<mgrwt>
<rscale>  0 0.89828594E+03</rscale>
<asrwt>0</asrwt>
<pdfrwt beam="1">  1        2 0.42728724E+00 0.96580722E+03</pdfrwt>
<pdfrwt beam="2">  1       -2 0.42654332E-01 0.96580722E+03</pdfrwt>
<totfact> 0.12712108E+01</totfact>
</mgrwt>
</event>
<event>
 4    1  0.3032637E-007  0.1560119E+04  0.7818608E-02  0.8868310E-01
         -2   -1    0    0    0  501 -0.00000000000E+00  0.00000000000E+00  0.67715144421E+03  0.67715144422E+03  0.25500000000E-02 0.  1.
          2   -1    0    0  501    0  0.00000000000E+00 -0.00000000000E+00 -0.40058638525E+04  0.40058638525E+04  0.25500000000E-02 0. -1.
    8880023    1    1    2    0    0  0.11702988071E+04 -0.79407982420E+03 -0.73447300414E+03  0.17243615819E+04  0.65864270000E+03 0.  0.
    8880022    1    1    2    0    0 -0.11702988071E+04  0.79407982420E+03 -0.25942394041E+04  0.29586537148E+04  0.15294330000E+03 0.  0.
<mgrwt>
<rscale>  0 0.15245185E+04</rscale>
<asrwt>0</asrwt>
<pdfrwt beam="1">  1        2 0.61628673E+00 0.15601193E+04</pdfrwt>
<pdfrwt beam="2">  1       -2 0.10417715E+00 0.15601193E+04</pdfrwt>
<totfact> 0.24381504E-01</totfact>
</mgrwt>
</event>
<event>
 4    1  0.3032637E-007  0.6960142E+03  0.7818608E-02  0.1001416E+00
         -2   -1    0    0    0  501 -0.00000000000E+00  0.00000000000E+00  0.35384556167E+03  0.35384556168E+03  0.25500000000E-02 0.  1.
          2   -1    0    0  501    0  0.00000000000E+00 -0.00000000000E+00 -0.22201568146E+04  0.22201568146E+04  0.25500000000E-02 0. -1.
    8880023    1    1    2    0    0 -0.15059088033E+03 -0.16717624665E+03 -0.81826489799E+01  0.69606226208E+03  0.65864270000E+03 0.  1.
    8880022    1    1    2    0    0  0.15059088033E+03  0.16717624665E+03 -0.18581286039E+04  0.18779401142E+04  0.15294330000E+03 0.  0.
<mgrwt>
<rscale>  0 0.55033878E+03</rscale>
<asrwt>0</asrwt>
<pdfrwt beam="1">  1        2 0.34156258E+00 0.69601416E+03</pdfrwt>
<pdfrwt beam="2">  1       -2 0.54437780E-01 0.69601416E+03</pdfrwt>
<totfact> 0.16750480E+01</totfact>
</mgrwt>
</event>
<event>
 4    1  0.3032637E-007  0.1193125E+04  0.7818608E-02  0.9163834E-01
          2   -1    0    0  501    0  0.00000000000E+00  0.00000000000E+00  0.11043467168E+04  0.11043467168E+04  0.25500000000E-02 0. -1.
         -2   -1    0    0    0  501 -0.00000000000E+00 -0.00000000000E+00 -0.21524208869E+04  0.21524208869E+04  0.25500000000E-02 0.  1.
    8880023    1    1    2    0    0 -0.52111712340E+03  0.84745183220E+03 -0.16857280767E+04  0.20652426053E+04  0.65864270000E+03 0.  1.
    8880022    1    1    2    0    0  0.52111712340E+03 -0.84745183220E+03  0.63765390651E+03  0.11915249984E+04  0.15294330000E+03 0.  0.
<mgrwt>
<rscale>  0 0.11434644E+04</rscale>
<asrwt>0</asrwt>
<pdfrwt beam="1">  1        2 0.16989950E+00 0.11931253E+04</pdfrwt>
<pdfrwt beam="2">  1       -2 0.33114167E+00 0.11931253E+04</pdfrwt>
<totfact> 0.43379870E-01</totfact>
</mgrwt>
</event>
<event>
 4    1  0.3032637E-007  0.7068988E+03  0.7818608E-02  0.9969702E-01
         -2   -1    0    0    0  501 -0.00000000000E+00  0.00000000000E+00  0.41149226227E+03  0.41149226228E+03  0.25500000000E-02 0.  1.
          2   -1    0    0  501    0  0.00000000000E+00 -0.00000000000E+00 -0.34755644185E+04  0.34755644185E+04  0.25500000000E-02 0. -1.
    8880023    1    1    2    0    0 -0.73231778732E+02 -0.24603421380E+03  0.95558240177E+02  0.71332833345E+03  0.65864270000E+03 0.  1.
    8880022    1    1    2    0    0  0.73231778732E+02  0.24603421380E+03 -0.31596303964E+04  0.31737283474E+04  0.15294330000E+03 0.  0.
<mgrwt>
<rscale>  0 0.56998930E+03</rscale>
<asrwt>0</asrwt>
<pdfrwt beam="1">  1        2 0.53470220E+00 0.70689881E+03</pdfrwt>
<pdfrwt beam="2">  1       -2 0.63306504E-01 0.70689881E+03</pdfrwt>
<totfact> 0.21431153E+00</totfact>
</mgrwt>
</event>
<event>
 4    1  0.3032637E-007  0.7763173E+03  0.7818608E-02  0.9764560E-01
          2   -1    0    0  501    0  0.00000000000E+00  0.00000000000E+00  0.69934630160E+03  0.69934630161E+03  0.25500000000E-02 0. -1.
         -2   -1    0    0    0  501 -0.00000000000E+00 -0.00000000000E+00 -0.77490870544E+03  0.77490870544E+03  0.25500000000E-02 0.  1.
    8880023    1    1    2    0    0 -0.40950451705E+03 -0.34122123389E+02 -0.45030876965E+03  0.89746669190E+03  0.65864270000E+03 0.  1.
    8880022    1    1    2    0    0  0.40950451705E+03  0.34122123389E+02  0.37474636581E+03  0.57678831515E+03  0.15294330000E+03 0.  0.
<mgrwt>
<rscale>  0 0.67299634E+03</rscale>
<asrwt>0</asrwt>
<pdfrwt beam="1">  1        2 0.10759174E+00 0.77631725E+03</pdfrwt>
<pdfrwt beam="2">  1       -2 0.11921672E+00 0.77631725E+03</pdfrwt>
<totfact> 0.22390875E+01</totfact>
</mgrwt>
</event>
<event>
 4    1  0.3032637E-007  0.8124067E+03  0.7818608E-02  0.9684585E-01
          2   -1    0    0  501    0  0.00000000000E+00  0.00000000000E+00  0.50760604428E+03  0.50760604429E+03  0.25500000000E-02 0. -1.
         -2   -1    0    0    0  501 -0.00000000000E+00 -0.00000000000E+00 -0.10559512930E+04  0.10559512930E+04  0.25500000000E-02 0.  1.
    8880023    1    1    2    0    0 -0.31496288704E+03 -0.35636062524E+03 -0.66576729428E+03  0.10503574686E+04  0.65864270000E+03 0.  0.
    8880022    1    1    2    0    0  0.31496288704E+03  0.35636062524E+03  0.11742204555E+03  0.51319986870E+03  0.15294330000E+03 0.  0.
<mgrwt>
<rscale>  0 0.71942033E+03</rscale>
<asrwt>0</asrwt>
<pdfrwt beam="1">  1        2 0.78093238E-01 0.81240675E+03</pdfrwt>
<pdfrwt beam="2">  1       -2 0.16245404E+00 0.81240675E+03</pdfrwt>
<totfact> 0.14751370E+01</totfact>
</mgrwt>
</event>
<event>
 4    1  0.3032637E-007  0.1326094E+04  0.7818608E-02  0.9043348E-01
         -2   -1    0    0    0  501 -0.00000000000E+00  0.00000000000E+00  0.13341645322E+04  0.13341645322E+04  0.25500000000E-02 0.  1.
          2   -1    0    0  501    0  0.00000000000E+00 -0.00000000000E+00 -0.12482531631E+04  0.12482531631E+04  0.25500000000E-02 0. -1.
    8880023    1    1    2    0    0 -0.42572004220E+03 -0.10693347922E+04  0.38985851386E+03  0.13822135577E+04  0.65864270000E+03 0.  0.
    8880022    1    1    2    0    0  0.42572004220E+03  0.10693347922E+04 -0.30394714474E+03  0.12002041376E+04  0.15294330000E+03 0.  0.
<mgrwt>
<rscale>  0 0.12827623E+04</rscale>
<asrwt>0</asrwt>
<pdfrwt beam="1">  1        2 0.19203895E+00 0.13260938E+04</pdfrwt>
<pdfrwt beam="2">  1       -2 0.20525608E+00 0.13260938E+04</pdfrwt>
<totfact> 0.20897064E+00</totfact>
</mgrwt>
</event>
<event>
 4    1  0.3032637E-007  0.7405244E+03  0.7818608E-02  0.9858422E-01
          2   -1    0    0  501    0  0.00000000000E+00  0.00000000000E+00  0.12500711190E+04  0.12500711190E+04  0.25500000000E-02 0. -1.
         -2   -1    0    0    0  501 -0.00000000000E+00 -0.00000000000E+00 -0.48071234390E+03  0.48071234390E+03  0.25500000000E-02 0.  1.
    8880023    1    1    2    0    0 -0.27394492349E+03  0.19879726550E+03 -0.13535519986E+03  0.75279307268E+03  0.65864270000E+03 0.  1.
    8880022    1    1    2    0    0  0.27394492349E+03 -0.19879726550E+03  0.90471397494E+03  0.97799039021E+03  0.15294330000E+03 0.  0.
<mgrwt>
<rscale>  0 0.62319336E+03</rscale>
<asrwt>0</asrwt>
<pdfrwt beam="1">  1        2 0.19231863E+00 0.74052440E+03</pdfrwt>
<pdfrwt beam="2">  1       -2 0.73955746E-01 0.74052440E+03</pdfrwt>
<totfact> 0.29727296E+01</totfact>
</mgrwt>
</event>
<event>
 4    1  0.3032637E-007  0.9756009E+03  0.7818608E-02  0.9414199E-01
         -2   -1    0    0    0  501 -0.00000000000E+00  0.00000000000E+00  0.13616213097E+04  0.13616213097E+04  0.25500000000E-02 0.  1.
          2   -1    0    0  501    0  0.00000000000E+00 -0.00000000000E+00 -0.68768049060E+03  0.68768049061E+03  0.25500000000E-02 0. -1.
    8880023    1    1    2    0    0  0.50142672147E+03  0.51629263218E+03  0.84865003248E+03  0.12930599069E+04  0.65864270000E+03 0.  0.
    8880022    1    1    2    0    0 -0.50142672147E+03 -0.51629263218E+03 -0.17470921337E+03  0.75624189338E+03  0.15294330000E+03 0.  0.
<mgrwt>
<rscale>  0 0.90916301E+03</rscale>
<asrwt>0</asrwt>
<pdfrwt beam="1">  1        2 0.10579700E+00 0.97560086E+03</pdfrwt>
<pdfrwt beam="2">  1       -2 0.20948020E+00 0.97560086E+03</pdfrwt>
<totfact> 0.48190720E+00</totfact>
</mgrwt>
</event>
<event>
 4    1  0.3570591E-007  0.1096578E+04  0.7818608E-02  0.9264876E-01
         -2   -1    0    0    0  501 -0.00000000000E+00  0.00000000000E+00  0.18828202594E+04  0.18828202594E+04  0.25500000000E-02 0.  1.
          2   -1    0    0  501    0  0.00000000000E+00 -0.00000000000E+00 -0.14661317856E+04  0.14661317856E+04  0.25500000000E-02 0. -1.
    8880023    1    1    2    0    0  0.83788431854E+03  0.25811234909E+03  0.15557855571E+04  0.19034051124E+04  0.65864270000E+03 0.  0.
    8880022    1    1    2    0    0 -0.83788431854E+03 -0.25811234909E+03 -0.11390970833E+04  0.14455469326E+04  0.15294330000E+03 0.  0.
<mgrwt>
<rscale>  0 0.10408174E+04</rscale>
<asrwt>0</asrwt>
<pdfrwt beam="1">  1        2 0.22555874E+00 0.10965775E+04</pdfrwt>
<pdfrwt beam="2">  1       -2 0.28966466E+00 0.10965775E+04</pdfrwt>
<totfact> 0.48228165E-01</totfact>
</mgrwt>
</event>
<event>
 4    1  0.3032637E-007  0.8771973E+03  0.7818608E-02  0.9563676E-01
          2   -1    0    0  501    0  0.00000000000E+00  0.00000000000E+00  0.22590661654E+04  0.22590661654E+04  0.25500000000E-02 0. -1.
         -2   -1    0    0    0  501 -0.00000000000E+00 -0.00000000000E+00 -0.60581897299E+03  0.60581897299E+03  0.25500000000E-02 0.  1.
    8880023    1    1    2    0    0 -0.55563752028E+03 -0.16410926271E+03 -0.21477660233E+03  0.90310802190E+03  0.65864270000E+03 0.  1.
    8880022    1    1    2    0    0  0.55563752028E+03  0.16410926271E+03  0.18680237947E+04  0.19617771165E+04  0.15294330000E+03 0.  0.
<mgrwt>
<rscale>  0 0.79747729E+03</rscale>
<asrwt>0</asrwt>
<pdfrwt beam="1">  1        2 0.34754864E+00 0.87719730E+03</pdfrwt>
<pdfrwt beam="2">  1       -2 0.93202919E-01 0.87719730E+03</pdfrwt>
<totfact> 0.47624044E+00</totfact>
</mgrwt>
</event>
<event>
 4    1  0.3032637E-007  0.7898493E+03  0.7818608E-02  0.9733190E-01
          2   -1    0    0  501    0  0.00000000000E+00  0.00000000000E+00  0.27948464991E+04  0.27948464991E+04  0.25500000000E-02 0. -1.
         -2   -1    0    0    0  501 -0.00000000000E+00 -0.00000000000E+00 -0.60178349405E+03  0.60178349405E+03  0.25500000000E-02 0.  1.
    8880023    1    1    2    0    0  0.35110143359E+03  0.25841725047E+03 -0.31206100026E+03  0.84926083517E+03  0.65864270000E+03 0.  1.
    8880022    1    1    2    0    0 -0.35110143359E+03 -0.25841725047E+03  0.25051240053E+04  0.25473691580E+04  0.15294330000E+03 0.  0.
<mgrwt>
<rscale>  0 0.69074619E+03</rscale>
<asrwt>0</asrwt>
<pdfrwt beam="1">  1        2 0.42997639E+00 0.78984929E+03</pdfrwt>
<pdfrwt beam="2">  1       -2 0.92582076E-01 0.78984929E+03</pdfrwt>
<totfact> 0.24247863E+00</totfact>
</mgrwt>
</event>
<event>
 4    1  0.3032637E-007  0.8241012E+03  0.7818608E-02  0.9660921E-01
         -2   -1    0    0    0  501 -0.00000000000E+00  0.00000000000E+00  0.82630892449E+03  0.82630892450E+03  0.25500000000E-02 0.  1.
          2   -1    0    0  501    0  0.00000000000E+00 -0.00000000000E+00 -0.19090987182E+04  0.19090987182E+04  0.25500000000E-02 0. -1.
    8880023    1    1    2    0    0 -0.20209962089E+03 -0.45220377111E+03  0.57079498398E+03  0.10024717589E+04  0.65864270000E+03 0.  1.
    8880022    1    1    2    0    0  0.20209962089E+03  0.45220377111E+03 -0.16535847776E+04  0.17329358838E+04  0.15294330000E+03 0.  0.
<mgrwt>
<rscale>  0 0.73392001E+03</rscale>
<asrwt>0</asrwt>
<pdfrwt beam="1">  1        2 0.29370749E+00 0.82410115E+03</pdfrwt>
<pdfrwt beam="2">  1       -2 0.12712445E+00 0.82410115E+03</pdfrwt>
<totfact> 0.35256412E+00</totfact>
</mgrwt>
</event>
<event>
 4    1  0.3032637E-007  0.7588333E+03  0.7818608E-02  0.9808137E-01
          2   -1    0    0  501    0  0.00000000000E+00  0.00000000000E+00  0.20437986317E+04  0.20437986317E+04  0.25500000000E-02 0. -1.
         -2   -1    0    0    0  501 -0.00000000000E+00 -0.00000000000E+00 -0.34295402848E+03  0.34295402849E+03  0.25500000000E-02 0.  1.
    8880023    1    1    2    0    0  0.27909108516E+03  0.25323094390E+03  0.13727008602E+03  0.77114916037E+03  0.65864270000E+03 0.  0.
    8880022    1    1    2    0    0 -0.27909108516E+03 -0.25323094390E+03  0.15635745172E+04  0.16156034998E+04  0.15294330000E+03 0.  0.
<mgrwt>
<rscale>  0 0.64927667E+03</rscale>
<asrwt>0</asrwt>
<pdfrwt beam="1">  1        2 0.31443055E+00 0.75883328E+03</pdfrwt>
<pdfrwt beam="2">  1       -2 0.52762159E-01 0.75883328E+03</pdfrwt>
<totfact> 0.22117903E+01</totfact>
</mgrwt>
</event>
<event>
 4    1  0.3032637E-007  0.1023488E+04  0.7818608E-02  0.9351453E-01
          2   -1    0    0  501    0  0.00000000000E+00  0.00000000000E+00  0.21474759753E+04  0.21474759753E+04  0.25500000000E-02 0. -1.
         -2   -1    0    0    0  501 -0.00000000000E+00 -0.00000000000E+00 -0.14677904212E+04  0.14677904212E+04  0.25500000000E-02 0.  1.
    8880023    1    1    2    0    0 -0.64222515731E+03  0.44862480678E+03 -0.11975839027E+04  0.15753522718E+04  0.65864270000E+03 0.  0.
    8880022    1    1    2    0    0  0.64222515731E+03 -0.44862480678E+03  0.18772694568E+04  0.20399141247E+04  0.15294330000E+03 0.  0.
<mgrwt>
<rscale>  0 0.96180885E+03</rscale>
<asrwt>0</asrwt>
<pdfrwt beam="1">  1        2 0.33038092E+00 0.10234879E+04</pdfrwt>
<pdfrwt beam="2">  1       -2 0.22581391E+00 0.10234879E+04</pdfrwt>
<totfact> 0.50139224E-01</totfact>
</mgrwt>
</event>
<event>
 4    1  0.3032637E-007  0.7193404E+03  0.7818608E-02  0.9924824E-01
         -2   -1    0    0    0  501 -0.00000000000E+00  0.00000000000E+00  0.12526282409E+04  0.12526282409E+04  0.25500000000E-02 0.  1.
          2   -1    0    0  501    0  0.00000000000E+00 -0.00000000000E+00 -0.76402702385E+03  0.76402702386E+03  0.25500000000E-02 0. -1.
    8880023    1    1    2    0    0  0.15037345467E+03  0.24703888659E+03  0.11051762831E+04  0.13186603848E+04  0.65864270000E+03 0.  0.
    8880022    1    1    2    0    0 -0.15037345467E+03 -0.24703888659E+03 -0.61657506607E+03  0.69799487997E+03  0.15294330000E+03 0.  0.
<mgrwt>
<rscale>  0 0.59073140E+03</rscale>
<asrwt>0</asrwt>
<pdfrwt beam="1">  1        2 0.11754262E+00 0.71934039E+03</pdfrwt>
<pdfrwt beam="2">  1       -2 0.19271204E+00 0.71934039E+03</pdfrwt>
<totfact> 0.55747686E+00</totfact>
</mgrwt>
</event>
<event>
 4    1  0.3032637E-007  0.7309136E+03  0.7818608E-02  0.9887252E-01
          2   -1    0    0  501    0  0.00000000000E+00  0.00000000000E+00  0.13862068069E+04  0.13862068069E+04  0.25500000000E-02 0. -1.
         -2   -1    0    0    0  501 -0.00000000000E+00 -0.00000000000E+00 -0.50087707522E+03  0.50087707522E+03  0.25500000000E-02 0.  1.
    8880023    1    1    2    0    0 -0.23290427570E+03 -0.21489553274E+03 -0.19036730968E+03  0.75529756420E+03  0.65864270000E+03 0.  1.
    8880022    1    1    2    0    0  0.23290427570E+03  0.21489553274E+03  0.10756970414E+04  0.11317863179E+04  0.15294330000E+03 0.  0.
<mgrwt>
<rscale>  0 0.60883091E+03</rscale>
<asrwt>0</asrwt>
<pdfrwt beam="1">  1        2 0.21326259E+00 0.73091360E+03</pdfrwt>
<pdfrwt beam="2">  1       -2 0.77058011E-01 0.73091360E+03</pdfrwt>
<totfact> 0.22690342E+01</totfact>
</mgrwt>
</event>
<event>
 4    1  0.3032637E-007  0.1140693E+04  0.7818608E-02  0.9217047E-01
          2   -1    0    0  501    0  0.00000000000E+00  0.00000000000E+00  0.34711672769E+04  0.34711672769E+04  0.25500000000E-02 0. -1.
         -2   -1    0    0    0  501 -0.00000000000E+00 -0.00000000000E+00 -0.50554483110E+03  0.50554483111E+03  0.25500000000E-02 0.  1.
    8880023    1    1    2    0    0  0.18417907401E+03 -0.91293368557E+03  0.34562376718E+03  0.11919042916E+04  0.65864270000E+03 0.  0.
    8880022    1    1    2    0    0 -0.18417907401E+03  0.91293368557E+03  0.26199986786E+04  0.27848078165E+04  0.15294330000E+03 0.  0.
<mgrwt>
<rscale>  0 0.10879194E+04</rscale>
<asrwt>0</asrwt>
<pdfrwt beam="1">  1        2 0.53402571E+00 0.11406928E+04</pdfrwt>
<pdfrwt beam="2">  1       -2 0.77776132E-01 0.11406928E+04</pdfrwt>
<totfact> 0.12687231E+00</totfact>
</mgrwt>
</event>
<event>
 4    1  0.3032637E-007  0.1625790E+04  0.7818608E-02  0.8825567E-01
          2   -1    0    0  501    0  0.00000000000E+00  0.00000000000E+00  0.12189673624E+04  0.12189673624E+04  0.25500000000E-02 0. -1.
         -2   -1    0    0    0  501 -0.00000000000E+00 -0.00000000000E+00 -0.22817133981E+04  0.22817133981E+04  0.25500000000E-02 0.  1.
    8880023    1    1    2    0    0 -0.14829719299E+04  0.10087960939E+03 -0.11693417493E+04  0.20026364556E+04  0.65864270000E+03 0.  0.
    8880022    1    1    2    0    0  0.14829719299E+04 -0.10087960939E+03  0.10659571355E+03  0.14980443049E+04  0.15294330000E+03 0.  0.
<mgrwt>
<rscale>  0 0.15918565E+04</rscale>
<asrwt>0</asrwt>
<pdfrwt beam="1">  1        2 0.18753344E+00 0.16257899E+04</pdfrwt>
<pdfrwt beam="2">  1       -2 0.35103283E+00 0.16257899E+04</pdfrwt>
<totfact> 0.26395374E-01</totfact>
</mgrwt>
</event>
<event>
 4    1  0.3032637E-007  0.7988237E+03  0.7818608E-02  0.9713345E-01
          2   -1    0    0  501    0  0.00000000000E+00  0.00000000000E+00  0.24293944625E+04  0.24293944625E+04  0.25500000000E-02 0. -1.
         -2   -1    0    0    0  501 -0.00000000000E+00 -0.00000000000E+00 -0.51705713567E+03  0.51705713568E+03  0.25500000000E-02 0.  1.
    8880023    1    1    2    0    0  0.21827038676E+03 -0.39581194474E+03 -0.16442755697E+03  0.81557077258E+03  0.65864270000E+03 0.  1.
    8880022    1    1    2    0    0 -0.21827038676E+03  0.39581194474E+03  0.20767648838E+04  0.21308808256E+04  0.15294330000E+03 0.  0.
<mgrwt>
<rscale>  0 0.70227748E+03</rscale>
<asrwt>0</asrwt>
<pdfrwt beam="1">  1        2 0.37375299E+00 0.79882367E+03</pdfrwt>
<pdfrwt beam="2">  1       -2 0.79547252E-01 0.79882367E+03</pdfrwt>
<totfact> 0.55623874E+00</totfact>
</mgrwt>
</event>
<event>
 4    1  0.3032637E-007  0.7721549E+03  0.7818608E-02  0.9774599E-01
         -2   -1    0    0    0  501 -0.00000000000E+00  0.00000000000E+00  0.12010857503E+03  0.12010857506E+03  0.25500000000E-02 0.  1.
          2   -1    0    0  501    0  0.00000000000E+00 -0.00000000000E+00 -0.45117733044E+04  0.45117733044E+04  0.25500000000E-02 0. -1.
    8880023    1    1    2    0    0  0.21748257911E+03 -0.33928493011E+03 -0.13132357355E+04  0.15234209002E+04  0.65864270000E+03 0.  1.
    8880022    1    1    2    0    0 -0.21748257911E+03  0.33928493011E+03 -0.30784289939E+04  0.31084609792E+04  0.15294330000E+03 0.  0.
<mgrwt>
<rscale>  0 0.66743713E+03</rscale>
<asrwt>0</asrwt>
<pdfrwt beam="1">  1        2 0.69411884E+00 0.77215487E+03</pdfrwt>
<pdfrwt beam="2">  1       -2 0.18478246E-01 0.77215487E+03</pdfrwt>
<totfact> 0.33107049E+00</totfact>
</mgrwt>
</event>
<event>
 4    1  0.3032637E-007  0.8723330E+03  0.7818608E-02  0.9571991E-01
          2   -1    0    0  501    0  0.00000000000E+00  0.00000000000E+00  0.12232227174E+04  0.12232227174E+04  0.25500000000E-02 0. -1.
         -2   -1    0    0    0  501 -0.00000000000E+00 -0.00000000000E+00 -0.47476553647E+03  0.47476553647E+03  0.25500000000E-02 0.  1.
    8880023    1    1    2    0    0  0.55429568770E+03  0.14110611255E+03  0.20901568790E+03  0.89702419613E+03  0.65864270000E+03 0.  0.
    8880022    1    1    2    0    0 -0.55429568770E+03 -0.14110611255E+03  0.53944149307E+03  0.80096405778E+03  0.15294330000E+03 0.  0.
<mgrwt>
<rscale>  0 0.79178067E+03</rscale>
<asrwt>0</asrwt>
<pdfrwt beam="1">  1        2 0.18818811E+00 0.87233299E+03</pdfrwt>
<pdfrwt beam="2">  1       -2 0.73040853E-01 0.87233299E+03</pdfrwt>
<totfact> 0.31279976E+01</totfact>
</mgrwt>
</event>
<event>
 4    1  0.3032637E-007  0.8757958E+03  0.7818608E-02  0.9566061E-01
         -2   -1    0    0    0  501 -0.00000000000E+00  0.00000000000E+00  0.10050749918E+04  0.10050749918E+04  0.25500000000E-02 0.  1.
          2   -1    0    0  501    0  0.00000000000E+00 -0.00000000000E+00 -0.11803555902E+04  0.11803555902E+04  0.25500000000E-02 0. -1.
    8880023    1    1    2    0    0  0.54589392405E+03  0.18763770327E+03  0.70322327023E+03  0.11231835371E+04  0.65864270000E+03 0.  0.
    8880022    1    1    2    0    0 -0.54589392405E+03 -0.18763770327E+03 -0.87850386865E+03  0.10622470448E+04  0.15294330000E+03 0.  0.
<mgrwt>
<rscale>  0 0.79583818E+03</rscale>
<asrwt>0</asrwt>
<pdfrwt beam="1">  1        2 0.18159317E+00 0.87579580E+03</pdfrwt>
<pdfrwt beam="2">  1       -2 0.15462692E+00 0.87579580E+03</pdfrwt>
<totfact> 0.54040759E+00</totfact>
</mgrwt>
</event>
<event>
 4    1  0.3032637E-007  0.8045642E+03  0.7818608E-02  0.9701013E-01
          2   -1    0    0  501    0  0.00000000000E+00  0.00000000000E+00  0.34890224938E+04  0.34890224938E+04  0.25500000000E-02 0. -1.
         -2   -1    0    0    0  501 -0.00000000000E+00 -0.00000000000E+00 -0.21874088024E+03  0.21874088025E+03  0.25500000000E-02 0.  1.
    8880023    1    1    2    0    0 -0.46032833624E+03 -0.40138634354E+02  0.62695409370E+03  0.10199975142E+04  0.65864270000E+03 0.  0.
    8880022    1    1    2    0    0  0.46032833624E+03  0.40138634354E+02  0.26433275198E+04  0.26877658598E+04  0.15294330000E+03 0.  0.
<mgrwt>
<rscale>  0 0.70956515E+03</rscale>
<asrwt>0</asrwt>
<pdfrwt beam="1">  1        2 0.53677268E+00 0.80456416E+03</pdfrwt>
<pdfrwt beam="2">  1       -2 0.33652444E-01 0.80456416E+03</pdfrwt>
<totfact> 0.73104068E+00</totfact>
</mgrwt>
</event>
<event>
 4    1  0.3032637E-007  0.1010500E+04  0.7818608E-02  0.9367948E-01
          2   -1    0    0  501    0  0.00000000000E+00  0.00000000000E+00  0.10649550869E+04  0.10649550869E+04  0.25500000000E-02 0. -1.
         -2   -1    0    0    0  501 -0.00000000000E+00 -0.00000000000E+00 -0.13884834190E+04  0.13884834191E+04  0.25500000000E-02 0.  1.
    8880023    1    1    2    0    0 -0.76604296298E+03  0.21856607048E+02 -0.99866841428E+03  0.14207210635E+04  0.65864270000E+03 0.  0.
    8880022    1    1    2    0    0  0.76604296298E+03 -0.21856607048E+02  0.67514008214E+03  0.10327174424E+04  0.15294330000E+03 0.  0.
<mgrwt>
<rscale>  0 0.94761050E+03</rscale>
<asrwt>0</asrwt>
<pdfrwt beam="1">  1        2 0.16383924E+00 0.10104997E+04</pdfrwt>
<pdfrwt beam="2">  1       -2 0.21361283E+00 0.10104997E+04</pdfrwt>
<totfact> 0.24662820E+00</totfact>
</mgrwt>
</event>
<event>
 4    1  0.3032637E-007  0.9710997E+03  0.7818608E-02  0.9420385E-01
          2   -1    0    0  501    0  0.00000000000E+00  0.00000000000E+00  0.15907242234E+04  0.15907242234E+04  0.25500000000E-02 0. -1.
         -2   -1    0    0    0  501 -0.00000000000E+00 -0.00000000000E+00 -0.99293711198E+03  0.99293711198E+03  0.25500000000E-02 0.  1.
    8880023    1    1    2    0    0  0.10926334191E+03 -0.70518506486E+03 -0.62842729307E+03  0.11567002734E+04  0.65864270000E+03 0.  1.
    8880022    1    1    2    0    0 -0.10926334191E+03  0.70518506486E+03  0.12262144045E+04  0.14269610620E+04  0.15294330000E+03 0.  0.
<mgrwt>
<rscale>  0 0.90416909E+03</rscale>
<asrwt>0</asrwt>
<pdfrwt beam="1">  1        2 0.24472680E+00 0.97109972E+03</pdfrwt>
<pdfrwt beam="2">  1       -2 0.15275956E+00 0.97109972E+03</pdfrwt>
<totfact> 0.32112568E+00</totfact>
</mgrwt>
</event>
<event>
 4    1  0.3032637E-007  0.7409445E+03  0.7818608E-02  0.9857204E-01
          2   -1    0    0  501    0  0.00000000000E+00  0.00000000000E+00  0.13977388149E+04  0.13977388149E+04  0.25500000000E-02 0. -1.
         -2   -1    0    0    0  501 -0.00000000000E+00 -0.00000000000E+00 -0.24865087972E+03  0.24865087974E+03  0.25500000000E-02 0.  1.
    8880023    1    1    2    0    0  0.13166862700E+03 -0.31281298683E+03  0.10018294404E+04  0.12460581953E+04  0.65864270000E+03 0. -1.
    8880022    1    1    2    0    0 -0.13166862700E+03  0.31281298683E+03  0.14725849471E+03  0.40033149932E+03  0.15294330000E+03 0.  0.
<mgrwt>
<rscale>  0 0.62380943E+03</rscale>
<asrwt>0</asrwt>
<pdfrwt beam="1">  1        2 0.21503674E+00 0.74094453E+03</pdfrwt>
<pdfrwt beam="2">  1       -2 0.38253981E-01 0.74094453E+03</pdfrwt>
<totfact> 0.95355358E+01</totfact>
</mgrwt>
</event>
<event>
 4    1  0.3032637E-007  0.8343227E+03  0.7818608E-02  0.9640980E-01
          2   -1    0    0  501    0  0.00000000000E+00  0.00000000000E+00  0.14624889475E+04  0.14624889475E+04  0.25500000000E-02 0. -1.
         -2   -1    0    0    0  501 -0.00000000000E+00 -0.00000000000E+00 -0.88759663323E+03  0.88759663324E+03  0.25500000000E-02 0.  1.
    8880023    1    1    2    0    0 -0.46796189460E+03  0.20807660323E+03 -0.62108072500E+03  0.10401133019E+04  0.65864270000E+03 0.  1.
    8880022    1    1    2    0    0  0.46796189460E+03 -0.20807660323E+03  0.11959730393E+04  0.13099722789E+04  0.15294330000E+03 0.  0.
<mgrwt>
<rscale>  0 0.74642255E+03</rscale>
<asrwt>0</asrwt>
<pdfrwt beam="1">  1        2 0.22499830E+00 0.83432273E+03</pdfrwt>
<pdfrwt beam="2">  1       -2 0.13655333E+00 0.83432273E+03</pdfrwt>
<totfact> 0.51733345E+00</totfact>
</mgrwt>
</event>
<event>
 4    1  0.3032637E-007  0.7502620E+03  0.7818608E-02  0.9831004E-01
         -2   -1    0    0    0  501 -0.00000000000E+00  0.00000000000E+00  0.10716507592E+04  0.10716507593E+04  0.25500000000E-02 0.  1.
          2   -1    0    0  501    0  0.00000000000E+00 -0.00000000000E+00 -0.33246244326E+04  0.33246244326E+04  0.25500000000E-02 0. -1.
    8880023    1    1    2    0    0  0.33908324848E+03  0.11876599036E+03  0.92691385865E+03  0.11925025440E+04  0.65864270000E+03 0.  1.
    8880022    1    1    2    0    0 -0.33908324848E+03 -0.11876599036E+03 -0.31798875320E+04  0.32037726478E+04  0.15294330000E+03 0.  0.
<mgrwt>
<rscale>  0 0.63724926E+03</rscale>
<asrwt>0</asrwt>
<pdfrwt beam="1">  1        2 0.51148068E+00 0.75026197E+03</pdfrwt>
<pdfrwt beam="2">  1       -2 0.16486935E+00 0.75026197E+03</pdfrwt>
<totfact> 0.26979757E-01</totfact>
</mgrwt>
</event>
<event>
 4    1  0.3032637E-007  0.1337809E+04  0.7818608E-02  0.9033579E-01
         -2   -1    0    0    0  501 -0.00000000000E+00  0.00000000000E+00  0.97344070679E+03  0.97344070679E+03  0.25500000000E-02 0.  1.
          2   -1    0    0  501    0  0.00000000000E+00 -0.00000000000E+00 -0.36150690201E+04  0.36150690201E+04  0.25500000000E-02 0. -1.
    8880023    1    1    2    0    0  0.82207486862E+03 -0.82469076355E+03  0.34303802675E+03  0.13810891496E+04  0.65864270000E+03 0.  0.
    8880022    1    1    2    0    0 -0.82207486862E+03  0.82469076355E+03 -0.29846663401E+04  0.32074205773E+04  0.15294330000E+03 0.  0.
<mgrwt>
<rscale>  0 0.12949512E+04</rscale>
<asrwt>0</asrwt>
<pdfrwt beam="1">  1        2 0.55616446E+00 0.13378087E+04</pdfrwt>
<pdfrwt beam="2">  1       -2 0.14976011E+00 0.13378087E+04</pdfrwt>
<totfact> 0.19782227E-01</totfact>
</mgrwt>
</event>
<event>
 4    1  0.3032637E-007  0.9548560E+03  0.7818608E-02  0.9443161E-01
         -2   -1    0    0    0  501 -0.00000000000E+00  0.00000000000E+00  0.88200396675E+03  0.88200396676E+03  0.25500000000E-02 0.  1.
          2   -1    0    0  501    0  0.00000000000E+00 -0.00000000000E+00 -0.13430162116E+04  0.13430162116E+04  0.25500000000E-02 0. -1.
    8880023    1    1    2    0    0 -0.64976290341E+03 -0.23611019655E+03  0.46278213354E+03  0.10610925336E+04  0.65864270000E+03 0.  1.
    8880022    1    1    2    0    0  0.64976290341E+03  0.23611019655E+03 -0.92379437839E+03  0.11639276447E+04  0.15294330000E+03 0.  0.
<mgrwt>
<rscale>  0 0.88607208E+03</rscale>
<asrwt>0</asrwt>
<pdfrwt beam="1">  1        2 0.20661788E+00 0.95485604E+03</pdfrwt>
<pdfrwt beam="2">  1       -2 0.13569292E+00 0.95485604E+03</pdfrwt>
<totfact> 0.60593425E+00</totfact>
</mgrwt>
</event>
<event>
 4    1  0.3032637E-007  0.8935158E+03  0.7818608E-02  0.9536522E-01
          2   -1    0    0  501    0  0.00000000000E+00  0.00000000000E+00  0.29142609729E+03  0.29142609731E+03  0.25500000000E-02 0. -1.
         -2   -1    0    0    0  501 -0.00000000000E+00 -0.00000000000E+00 -0.22735136668E+04  0.22735136668E+04  0.25500000000E-02 0.  1.
    8880023    1    1    2    0    0  0.48303033414E+03 -0.36227340764E+03 -0.68438627901E+03  0.11255021594E+04  0.65864270000E+03 0.  0.
    8880022    1    1    2    0    0 -0.48303033414E+03  0.36227340764E+03 -0.12977012905E+04  0.14394376048E+04  0.15294330000E+03 0.  0.
<mgrwt>
<rscale>  0 0.81643936E+03</rscale>
<asrwt>0</asrwt>
<pdfrwt beam="1">  1        2 0.44834786E-01 0.89351583E+03</pdfrwt>
<pdfrwt beam="2">  1       -2 0.34977132E+00 0.89351583E+03</pdfrwt>
<totfact> 0.18243002E+00</totfact>
</mgrwt>
</event>
<event>
 4    1  0.3032637E-007  0.7137177E+03  0.7818608E-02  0.9944446E-01
          2   -1    0    0  501    0  0.00000000000E+00  0.00000000000E+00  0.17372445803E+04  0.17372445803E+04  0.25500000000E-02 0. -1.
         -2   -1    0    0    0  501 -0.00000000000E+00 -0.00000000000E+00 -0.19040277348E+03  0.19040277350E+03  0.25500000000E-02 0.  1.
    8880023    1    1    2    0    0 -0.27492309137E+03  0.12281566167E+00  0.60827922165E+03  0.93776145101E+03  0.65864270000E+03 0.  1.
    8880022    1    1    2    0    0  0.27492309137E+03 -0.12281566167E+00  0.93856258519E+03  0.98988590281E+03  0.15294330000E+03 0.  0.
<mgrwt>
<rscale>  0 0.58154749E+03</rscale>
<asrwt>0</asrwt>
<pdfrwt beam="1">  1        2 0.26726839E+00 0.71371768E+03</pdfrwt>
<pdfrwt beam="2">  1       -2 0.29292735E-01 0.71371768E+03</pdfrwt>
<totfact> 0.10272488E+02</totfact>
</mgrwt>
</event>
<event>
 4    1  0.3032637E-007  0.1163254E+04  0.7818608E-02  0.9193697E-01
          2   -1    0    0  501    0  0.00000000000E+00  0.00000000000E+00  0.14536491317E+04  0.14536491317E+04  0.25500000000E-02 0. -1.
         -2   -1    0    0    0  501 -0.00000000000E+00 -0.00000000000E+00 -0.10635127202E+04  0.10635127202E+04  0.25500000000E-02 0.  1.
    8880023    1    1    2    0    0  0.93979889461E+03  0.19007156252E+03  0.85206306196E+03  0.14419330182E+04  0.65864270000E+03 0.  0.
    8880022    1    1    2    0    0 -0.93979889461E+03 -0.19007156252E+03 -0.46192665046E+03  0.10752288336E+04  0.15294330000E+03 0.  0.
<mgrwt>
<rscale>  0 0.11118723E+04</rscale>
<asrwt>0</asrwt>
<pdfrwt beam="1">  1        2 0.22363833E+00 0.11632538E+04</pdfrwt>
<pdfrwt beam="2">  1       -2 0.16361734E+00 0.11632538E+04</pdfrwt>
<totfact> 0.31146115E+00</totfact>
</mgrwt>
</event>
<event>
 4    1  0.3032637E-007  0.7158753E+03  0.7818608E-02  0.9936798E-01
          2   -1    0    0  501    0  0.00000000000E+00  0.00000000000E+00  0.14884668028E+04  0.14884668028E+04  0.25500000000E-02 0. -1.
         -2   -1    0    0    0  501 -0.00000000000E+00 -0.00000000000E+00 -0.36983170049E+03  0.36983170050E+03  0.25500000000E-02 0.  1.
    8880023    1    1    2    0    0 -0.27985230662E+03 -0.18706761183E+02  0.22145473128E+02  0.71621776345E+03  0.65864270000E+03 0.  1.
    8880022    1    1    2    0    0  0.27985230662E+03  0.18706761183E+02  0.10964896291E+04  0.11420807398E+04  0.15294330000E+03 0.  0.
<mgrwt>
<rscale>  0 0.58510580E+03</rscale>
<asrwt>0</asrwt>
<pdfrwt beam="1">  1        2 0.22899490E+00 0.71587531E+03</pdfrwt>
<pdfrwt beam="2">  1       -2 0.56897184E-01 0.71587531E+03</pdfrwt>
<totfact> 0.38306341E+01</totfact>
</mgrwt>
</event>
<event>
 4    1  0.3032637E-007  0.1365198E+04  0.7818608E-02  0.9011208E-01
          2   -1    0    0  501    0  0.00000000000E+00  0.00000000000E+00  0.35572592940E+04  0.35572592940E+04  0.25500000000E-02 0. -1.
         -2   -1    0    0    0  501 -0.00000000000E+00 -0.00000000000E+00 -0.67150432675E+03  0.67150432676E+03  0.25500000000E-02 0.  1.
    8880023    1    1    2    0    0  0.11611392501E+04  0.28585197658E+03  0.33234472356E+03  0.14050690133E+04  0.65864270000E+03 0.  0.
    8880022    1    1    2    0    0 -0.11611392501E+04 -0.28585197658E+03  0.25534102437E+04  0.28236946074E+04  0.15294330000E+03 0. -1.
<mgrwt>
<rscale>  0 0.13234055E+04</rscale>
<asrwt>0</asrwt>
<pdfrwt beam="1">  1        2 0.54727066E+00 0.13651981E+04</pdfrwt>
<pdfrwt beam="2">  1       -2 0.10330836E+00 0.13651981E+04</pdfrwt>
<totfact> 0.55393194E-01</totfact>
</mgrwt>
</event>
<event>
 4    1  0.3032637E-007  0.6988484E+03  0.7818608E-02  0.1000201E+00
         -2   -1    0    0    0  501 -0.00000000000E+00  0.00000000000E+00  0.33854878258E+03  0.33854878259E+03  0.25500000000E-02 0.  1.
          2   -1    0    0  501    0  0.00000000000E+00 -0.00000000000E+00 -0.14247384310E+04  0.14247384310E+04  0.25500000000E-02 0. -1.
    8880023    1    1    2    0    0  0.19285561723E+03 -0.13185434480E+03 -0.61860745718E+02  0.70158094006E+03  0.65864270000E+03 0.  1.
    8880022    1    1    2    0    0 -0.19285561723E+03  0.13185434480E+03 -0.10243289027E+04  0.10617062735E+04  0.15294330000E+03 0.  0.
<mgrwt>
<rscale>  0 0.55562083E+03</rscale>
<asrwt>0</asrwt>
<pdfrwt beam="1">  1        2 0.21919052E+00 0.69884838E+03</pdfrwt>
<pdfrwt beam="2">  1       -2 0.52084429E-01 0.69884838E+03</pdfrwt>
<totfact> 0.50022119E+01</totfact>
</mgrwt>
</event>
<event>
 4    1  0.3032637E-007  0.6911465E+03  0.7818608E-02  0.1003612E+00
         -2   -1    0    0    0  501 -0.00000000000E+00  0.00000000000E+00  0.10810188282E+04  0.10810188282E+04  0.25500000000E-02 0.  1.
          2   -1    0    0  501    0  0.00000000000E+00 -0.00000000000E+00 -0.28604318195E+03  0.28604318196E+03  0.25500000000E-02 0. -1.
    8880023    1    1    2    0    0  0.61611853861E+02  0.20019314194E+03  0.85643042700E+03  0.11005256004E+04  0.65864270000E+03 0.  1.
    8880022    1    1    2    0    0 -0.61611853861E+02 -0.20019314194E+03 -0.61454780763E+02  0.26653640973E+03  0.15294330000E+03 0.  0.
<mgrwt>
<rscale>  0 0.54094264E+03</rscale>
<asrwt>0</asrwt>
<pdfrwt beam="1">  1        2 0.44006643E-01 0.69114653E+03</pdfrwt>
<pdfrwt beam="2">  1       -2 0.16631059E+00 0.69114653E+03</pdfrwt>
<totfact> 0.26687781E+01</totfact>
</mgrwt>
</event>
<event>
 4    1  0.3032637E-007  0.1284416E+04  0.7818608E-02  0.9079135E-01
         -2   -1    0    0    0  501 -0.00000000000E+00  0.00000000000E+00  0.94685495259E+03  0.94685495259E+03  0.25500000000E-02 0.  1.
          2   -1    0    0  501    0  0.00000000000E+00 -0.00000000000E+00 -0.20540975987E+04  0.20540975987E+04  0.25500000000E-02 0. -1.
    8880023    1    1    2    0    0 -0.42295008647E+03 -0.10183460536E+04  0.18237909357E+03  0.12973001968E+04  0.65864270000E+03 0.  0.
    8880022    1    1    2    0    0  0.42295008647E+03  0.10183460536E+04 -0.12896217397E+04  0.17036523545E+04  0.15294330000E+03 0.  0.
<mgrwt>
<rscale>  0 0.12393009E+04</rscale>
<asrwt>0</asrwt>
<pdfrwt beam="1">  1        2 0.31601501E+00 0.12844165E+04</pdfrwt>
<pdfrwt beam="2">  1       -2 0.14566999E+00 0.12844165E+04</pdfrwt>
<totfact> 0.19473694E+00</totfact>
</mgrwt>
</event>
<event>
 4    1  0.3502217E-007  0.1103408E+04  0.7818608E-02  0.9257271E-01
         -2   -1    0    0    0  501 -0.00000000000E+00  0.00000000000E+00  0.10247710206E+04  0.10247710206E+04  0.25500000000E-02 0.  1.
          2   -1    0    0  501    0  0.00000000000E+00 -0.00000000000E+00 -0.24800615615E+04  0.24800615615E+04  0.25500000000E-02 0. -1.
    8880023    1    1    2    0    0 -0.85776445691E+03 -0.21894911523E+03  0.60414596257E+03  0.12579750113E+04  0.65864270000E+03 0.  0.
    8880022    1    1    2    0    0  0.85776445691E+03  0.21894911523E+03 -0.20594365035E+04  0.22468575708E+04  0.15294330000E+03 0.  0.
<mgrwt>
<rscale>  0 0.10481352E+04</rscale>
<asrwt>0</asrwt>
<pdfrwt beam="1">  1        2 0.38154793E+00 0.11034078E+04</pdfrwt>
<pdfrwt beam="2">  1       -2 0.15765708E+00 0.11034078E+04</pdfrwt>
<totfact> 0.92786315E-01</totfact>
</mgrwt>
</event>
<event>
 4    1  0.3032637E-007  0.9349492E+03  0.7818608E-02  0.9472108E-01
          2   -1    0    0  501    0  0.00000000000E+00  0.00000000000E+00  0.12680271562E+04  0.12680271562E+04  0.25500000000E-02 0. -1.
         -2   -1    0    0    0  501 -0.00000000000E+00 -0.00000000000E+00 -0.15022751446E+04  0.15022751446E+04  0.25500000000E-02 0.  1.
    8880023    1    1    2    0    0 -0.59187430587E+03 -0.30000771081E+03 -0.12416777646E+04  0.15543145428E+04  0.65864270000E+03 0.  0.
    8880022    1    1    2    0    0  0.59187430587E+03  0.30000771081E+03  0.10074297762E+04  0.12159877580E+04  0.15294330000E+03 0.  0.
<mgrwt>
<rscale>  0 0.86371805E+03</rscale>
<asrwt>0</asrwt>
<pdfrwt beam="1">  1        2 0.19508110E+00 0.93494921E+03</pdfrwt>
<pdfrwt beam="2">  1       -2 0.23111925E+00 0.93494921E+03</pdfrwt>
<totfact> 0.14577785E+00</totfact>
</mgrwt>
</event>
<event>
 4    1  0.3485709E-007  0.1161012E+04  0.7818608E-02  0.9195985E-01
          2   -1    0    0  501    0  0.00000000000E+00  0.00000000000E+00  0.28950957804E+04  0.28950957804E+04  0.25500000000E-02 0. -1.
         -2   -1    0    0    0  501 -0.00000000000E+00 -0.00000000000E+00 -0.95611288670E+03  0.95611288670E+03  0.25500000000E-02 0.  1.
    8880023    1    1    2    0    0 -0.49103631684E+03 -0.82037945066E+03 -0.47182552133E+03  0.12532232987E+04  0.65864270000E+03 0. -1.
    8880022    1    1    2    0    0  0.49103631684E+03  0.82037945066E+03  0.24108084150E+04  0.25979853684E+04  0.15294330000E+03 0.  0.
<mgrwt>
<rscale>  0 0.11094961E+04</rscale>
<asrwt>0</asrwt>
<pdfrwt beam="1">  1        2 0.44539934E+00 0.11610122E+04</pdfrwt>
<pdfrwt beam="2">  1       -2 0.14709429E+00 0.11610122E+04</pdfrwt>
<totfact> 0.63129461E-01</totfact>
</mgrwt>
</event>
<event>
 4    1  0.3032637E-007  0.1035386E+04  0.7818608E-02  0.9336659E-01
         -2   -1    0    0    0  501 -0.00000000000E+00  0.00000000000E+00  0.97452934121E+03  0.97452934121E+03  0.25500000000E-02 0.  1.
          2   -1    0    0  501    0  0.00000000000E+00 -0.00000000000E+00 -0.17743096900E+04  0.17743096900E+04  0.25500000000E-02 0. -1.
    8880023    1    1    2    0    0 -0.58001998325E+03 -0.54935555629E+03  0.55039298473E+03  0.11725857547E+04  0.65864270000E+03 0.  0.
    8880022    1    1    2    0    0  0.58001998325E+03  0.54935555629E+03 -0.13501733335E+04  0.15762532765E+04  0.15294330000E+03 0.  0.
<mgrwt>
<rscale>  0 0.97476918E+03</rscale>
<asrwt>0</asrwt>
<pdfrwt beam="1">  1        2 0.27297072E+00 0.10353864E+04</pdfrwt>
<pdfrwt beam="2">  1       -2 0.14992759E+00 0.10353864E+04</pdfrwt>
<totfact> 0.26500700E+00</totfact>
</mgrwt>
</event>
<event>
 4    1  0.3032637E-007  0.7071115E+03  0.7818608E-02  0.9968888E-01
         -2   -1    0    0    0  501 -0.00000000000E+00  0.00000000000E+00  0.45171005011E+03  0.45171005012E+03  0.25500000000E-02 0.  1.
          2   -1    0    0  501    0  0.00000000000E+00 -0.00000000000E+00 -0.67364699900E+03  0.67364699901E+03  0.25500000000E-02 0. -1.
    8880023    1    1    2    0    0 -0.25617447756E+03 -0.23897051452E+02  0.65804077445E+02  0.71016675147E+03  0.65864270000E+03 0.  1.
    8880022    1    1    2    0    0  0.25617447756E+03  0.23897051452E+02 -0.28774102633E+03  0.41519029766E+03  0.15294330000E+03 0.  0.
<mgrwt>
<rscale>  0 0.57035755E+03</rscale>
<asrwt>0</asrwt>
<pdfrwt beam="1">  1        2 0.10363800E+00 0.70711148E+03</pdfrwt>
<pdfrwt beam="2">  1       -2 0.69493854E-01 0.70711148E+03</pdfrwt>
<totfact> 0.82437391E+01</totfact>
</mgrwt>
</event>
<event>
 4    1  0.3032637E-007  0.8298727E+03  0.7818608E-02  0.9649580E-01
         -2   -1    0    0    0  501 -0.00000000000E+00  0.00000000000E+00  0.22605387039E+04  0.22605387039E+04  0.25500000000E-02 0.  1.
          2   -1    0    0  501    0  0.00000000000E+00 -0.00000000000E+00 -0.54930086556E+03  0.54930086557E+03  0.25500000000E-02 0. -1.
    8880023    1    1    2    0    0  0.82272932894E+02 -0.49810602196E+03  0.20302900526E+04  0.21933459254E+04  0.65864270000E+03 0.  1.
    8880022    1    1    2    0    0 -0.82272932894E+02  0.49810602196E+03 -0.31905221432E+03  0.61649364399E+03  0.15294330000E+03 0.  0.
<mgrwt>
<rscale>  0 0.74099779E+03</rscale>
<asrwt>0</asrwt>
<pdfrwt beam="1">  1        2 0.84507826E-01 0.82987267E+03</pdfrwt>
<pdfrwt beam="2">  1       -2 0.34777518E+00 0.82987267E+03</pdfrwt>
<totfact> 0.92097660E-01</totfact>
</mgrwt>
</event>
<event>
 4    1  0.3032637E-007  0.7112559E+03  0.7818608E-02  0.9953366E-01
          2   -1    0    0  501    0  0.00000000000E+00  0.00000000000E+00  0.20040369799E+04  0.20040369799E+04  0.25500000000E-02 0. -1.
         -2   -1    0    0    0  501 -0.00000000000E+00 -0.00000000000E+00 -0.31355332293E+03  0.31355332294E+03  0.25500000000E-02 0.  1.
    8880023    1    1    2    0    0  0.25925277451E+03  0.69733558322E+02  0.12530896239E+03  0.72221001971E+03  0.65864270000E+03 0.  1.
    8880022    1    1    2    0    0 -0.25925277451E+03 -0.69733558322E+02  0.15651746946E+04  0.15953802832E+04  0.15294330000E+03 0.  0.
<mgrwt>
<rscale>  0 0.57743187E+03</rscale>
<asrwt>0</asrwt>
<pdfrwt beam="1">  1        2 0.30831338E+00 0.71125591E+03</pdfrwt>
<pdfrwt beam="2">  1       -2 0.48238972E-01 0.71125591E+03</pdfrwt>
<totfact> 0.28095248E+01</totfact>
</mgrwt>
</event>
<event>
 4    1  0.3032637E-007  0.6664901E+03  0.7818608E-02  0.1018315E+00
          2   -1    0    0  501    0  0.00000000000E+00  0.00000000000E+00  0.59095451340E+03  0.59095451341E+03  0.25500000000E-02 0. -1.
         -2   -1    0    0    0  501 -0.00000000000E+00 -0.00000000000E+00 -0.74038382840E+03  0.74038382841E+03  0.25500000000E-02 0.  1.
    8880023    1    1    2    0    0 -0.77239623473E+02 -0.66579934712E+02 -0.56703561728E+03  0.87506482312E+03  0.65864270000E+03 0.  1.
    8880022    1    1    2    0    0  0.77239623473E+02  0.66579934712E+02  0.41760630228E+03  0.45627351869E+03  0.15294330000E+03 0.  0.
<mgrwt>
<rscale>  0 0.48299719E+03</rscale>
<asrwt>0</asrwt>
<pdfrwt beam="1">  1        2 0.90916079E-01 0.66649010E+03</pdfrwt>
<pdfrwt beam="2">  1       -2 0.11390520E+00 0.66649010E+03</pdfrwt>
<totfact> 0.31098436E+01</totfact>
</mgrwt>
</event>
<event>
 4    1  0.3179231E-007  0.1017912E+04  0.7818608E-02  0.9358489E-01
          2   -1    0    0  501    0  0.00000000000E+00  0.00000000000E+00  0.30548688497E+04  0.30548688497E+04  0.25500000000E-02 0. -1.
         -2   -1    0    0    0  501 -0.00000000000E+00 -0.00000000000E+00 -0.85222522093E+03  0.85222522093E+03  0.25500000000E-02 0.  1.
    8880023    1    1    2    0    0 -0.75353409259E+03 -0.18579993287E+03 -0.46903157440E+03  0.11207747623E+04  0.65864270000E+03 0.  0.
    8880022    1    1    2    0    0  0.75353409259E+03  0.18579993287E+03  0.26716752032E+04  0.27863193083E+04  0.15294330000E+03 0.  0.
<mgrwt>
<rscale>  0 0.95572044E+03</rscale>
<asrwt>0</asrwt>
<pdfrwt beam="1">  1        2 0.46997982E+00 0.10179123E+04</pdfrwt>
<pdfrwt beam="2">  1       -2 0.13111157E+00 0.10179123E+04</pdfrwt>
<totfact> 0.69405773E-01</totfact>
</mgrwt>
</event>
<event>
 4    1  0.3032637E-007  0.1241713E+04  0.7818608E-02  0.9117604E-01
          2   -1    0    0  501    0  0.00000000000E+00  0.00000000000E+00  0.17861655928E+04  0.17861655928E+04  0.25500000000E-02 0. -1.
         -2   -1    0    0    0  501 -0.00000000000E+00 -0.00000000000E+00 -0.97935076091E+03  0.97935076091E+03  0.25500000000E-02 0.  1.
    8880023    1    1    2    0    0 -0.89542400367E+03  0.55340457673E+03 -0.24939755974E+03  0.12665110031E+04  0.65864270000E+03 0.  0.
    8880022    1    1    2    0    0  0.89542400367E+03 -0.55340457673E+03  0.10562123916E+04  0.14990053506E+04  0.15294330000E+03 0.  0.
<mgrwt>
<rscale>  0 0.11945917E+04</rscale>
<asrwt>0</asrwt>
<pdfrwt beam="1">  1        2 0.27479470E+00 0.12417129E+04</pdfrwt>
<pdfrwt beam="2">  1       -2 0.15066935E+00 0.12417129E+04</pdfrwt>
<totfact> 0.25175857E+00</totfact>
</mgrwt>
</event>
<event>
 4    1  0.3032637E-007  0.6620403E+03  0.7818608E-02  0.1022157E+00
          2   -1    0    0  501    0  0.00000000000E+00  0.00000000000E+00  0.36581452187E+04  0.36581452187E+04  0.25500000000E-02 0. -1.
         -2   -1    0    0    0  501 -0.00000000000E+00 -0.00000000000E+00 -0.99190781072E+02  0.99190781105E+02  0.25500000000E-02 0.  1.
    8880023    1    1    2    0    0  0.66848638350E+02 -0.42873204817E+01  0.10399178707E+04  0.12327718790E+04  0.65864270000E+03 0.  1.
    8880022    1    1    2    0    0 -0.66848638350E+02  0.42873204817E+01  0.25190365669E+04  0.25245641208E+04  0.15294330000E+03 0.  0.
<mgrwt>
<rscale>  0 0.46916166E+03</rscale>
<asrwt>0</asrwt>
<pdfrwt beam="1">  1        2 0.56279166E+00 0.66204028E+03</pdfrwt>
<pdfrwt beam="2">  1       -2 0.15260118E-01 0.66204028E+03</pdfrwt>
<totfact> 0.23483853E+01</totfact>
</mgrwt>
</event>
<event>
 4    1  0.3032637E-007  0.9510753E+03  0.7818608E-02  0.9448569E-01
         -2   -1    0    0    0  501 -0.00000000000E+00  0.00000000000E+00  0.40575723083E+03  0.40575723084E+03  0.25500000000E-02 0.  1.
          2   -1    0    0  501    0  0.00000000000E+00 -0.00000000000E+00 -0.41789951423E+04  0.41789951423E+04  0.25500000000E-02 0. -1.
    8880023    1    1    2    0    0 -0.21920174268E+03 -0.65014202933E+03 -0.23813005435E+03  0.98043367513E+03  0.65864270000E+03 0.  0.
    8880022    1    1    2    0    0  0.21920174268E+03  0.65014202933E+03 -0.35351078571E+04  0.36043186980E+04  0.15294330000E+03 0.  0.
<mgrwt>
<rscale>  0 0.88184218E+03</rscale>
<asrwt>0</asrwt>
<pdfrwt beam="1">  1        2 0.64292230E+00 0.95107532E+03</pdfrwt>
<pdfrwt beam="2">  1       -2 0.62424192E-01 0.95107532E+03</pdfrwt>
<totfact> 0.61879695E-01</totfact>
</mgrwt>
</event>
<event>
 4    1  0.3032637E-007  0.1251588E+04  0.7818608E-02  0.9108536E-01
          2   -1    0    0  501    0  0.00000000000E+00  0.00000000000E+00  0.34856396743E+04  0.34856396743E+04  0.25500000000E-02 0. -1.
         -2   -1    0    0    0  501 -0.00000000000E+00 -0.00000000000E+00 -0.12174935090E+04  0.12174935090E+04  0.25500000000E-02 0.  1.
    8880023    1    1    2    0    0  0.30398278367E+02 -0.10638321081E+04 -0.77739517733E+03  0.14733690229E+04  0.65864270000E+03 0.  1.
    8880022    1    1    2    0    0 -0.30398278367E+02  0.10638321081E+04  0.30455413426E+04  0.32297641604E+04  0.15294330000E+03 0.  0.
<mgrwt>
<rscale>  0 0.12049482E+04</rscale>
<asrwt>0</asrwt>
<pdfrwt beam="1">  1        2 0.53625224E+00 0.12515882E+04</pdfrwt>
<pdfrwt beam="2">  1       -2 0.18730670E+00 0.12515882E+04</pdfrwt>
<totfact> 0.13231687E-01</totfact>
</mgrwt>
</event>
<event>
 4    1  0.3032637E-007  0.1855040E+04  0.7818608E-02  0.8692686E-01
         -2   -1    0    0    0  501 -0.00000000000E+00  0.00000000000E+00  0.86569154537E+03  0.86569154538E+03  0.25500000000E-02 0.  1.
          2   -1    0    0  501    0  0.00000000000E+00 -0.00000000000E+00 -0.40199051919E+04  0.40199051919E+04  0.25500000000E-02 0. -1.
    8880023    1    1    2    0    0  0.16844955980E+04 -0.41211479226E+03 -0.97273116153E+03  0.20946073953E+04  0.65864270000E+03 0.  0.
    8880022    1    1    2    0    0 -0.16844955980E+04  0.41211479226E+03 -0.21814824850E+04  0.27909893419E+04  0.15294330000E+03 0.  0.
<mgrwt>
<rscale>  0 0.18258238E+04</rscale>
<asrwt>0</asrwt>
<pdfrwt beam="1">  1        2 0.61844694E+00 0.18550402E+04</pdfrwt>
<pdfrwt beam="2">  1       -2 0.13318332E+00 0.18550402E+04</pdfrwt>
<totfact> 0.12424820E-01</totfact>
</mgrwt>
</event>
<event>
 4    1  0.3032637E-007  0.9511425E+03  0.7818608E-02  0.9448472E-01
         -2   -1    0    0    0  501 -0.00000000000E+00  0.00000000000E+00  0.74883615254E+03  0.74883615255E+03  0.25500000000E-02 0.  1.
          2   -1    0    0  501    0  0.00000000000E+00 -0.00000000000E+00 -0.16657977711E+04  0.16657977711E+04  0.25500000000E-02 0. -1.
    8880023    1    1    2    0    0  0.21773762708E+03 -0.65073201549E+03  0.31012281310E+03  0.10004240080E+04  0.65864270000E+03 0.  0.
    8880022    1    1    2    0    0 -0.21773762708E+03  0.65073201549E+03 -0.12270844317E+04  0.14142099157E+04  0.15294330000E+03 0.  0.
<mgrwt>
<rscale>  0 0.88191739E+03</rscale>
<asrwt>0</asrwt>
<pdfrwt beam="1">  1        2 0.25627658E+00 0.95114249E+03</pdfrwt>
<pdfrwt beam="2">  1       -2 0.11520556E+00 0.95114249E+03</pdfrwt>
<totfact> 0.60232336E+00</totfact>
</mgrwt>
</event>
<event>
 4    1  0.3032637E-007  0.6817097E+03  0.7818608E-02  0.1008373E+00
         -2   -1    0    0    0  501 -0.00000000000E+00  0.00000000000E+00  0.25562397254E+03  0.25562397255E+03  0.25500000000E-02 0.  1.
          2   -1    0    0  501    0  0.00000000000E+00 -0.00000000000E+00 -0.83089379806E+03  0.83089379807E+03  0.25500000000E-02 0. -1.
    8880023    1    1    2    0    0 -0.11426905362E+03  0.13364340378E+03 -0.36831287763E+03  0.77484357007E+03  0.65864270000E+03 0.  1.
    8880022    1    1    2    0    0  0.11426905362E+03 -0.13364340378E+03 -0.20695694789E+03  0.31167420054E+03  0.15294330000E+03 0. -1.
<mgrwt>
<rscale>  0 0.52126580E+03</rscale>
<asrwt>0</asrwt>
<pdfrwt beam="1">  1        2 0.12782981E+00 0.68170975E+03</pdfrwt>
<pdfrwt beam="2">  1       -2 0.39326766E-01 0.68170975E+03</pdfrwt>
<totfact> 0.20281921E+02</totfact>
</mgrwt>
</event>
<event>
 4    1  0.3032637E-007  0.6848155E+03  0.7818608E-02  0.1006721E+00
         -2   -1    0    0    0  501 -0.00000000000E+00  0.00000000000E+00  0.13848301306E+03  0.13848301308E+03  0.25500000000E-02 0.  1.
          2   -1    0    0  501    0  0.00000000000E+00 -0.00000000000E+00 -0.17432945603E+04  0.17432945603E+04  0.25500000000E-02 0. -1.
    8880023    1    1    2    0    0  0.14871927448E+03 -0.11421284402E+03 -0.86421138352E+03  0.11026484109E+04  0.65864270000E+03 0.  1.
    8880022    1    1    2    0    0 -0.14871927448E+03  0.11421284402E+03 -0.74060016368E+03  0.77912916247E+03  0.15294330000E+03 0.  0.
<mgrwt>
<rscale>  0 0.52798843E+03</rscale>
<asrwt>0</asrwt>
<pdfrwt beam="1">  1        2 0.26819915E+00 0.68481545E+03</pdfrwt>
<pdfrwt beam="2">  1       -2 0.21305080E-01 0.68481545E+03</pdfrwt>
<totfact> 0.18151861E+02</totfact>
</mgrwt>
</event>
<event>
 4    1  0.4672069E-007  0.1512162E+04  0.7818608E-02  0.8901096E-01
          2   -1    0    0  501    0  0.00000000000E+00  0.00000000000E+00  0.22851122251E+04  0.22851122251E+04  0.25500000000E-02 0. -1.
         -2   -1    0    0    0  501 -0.00000000000E+00 -0.00000000000E+00 -0.19881275837E+04  0.19881275837E+04  0.25500000000E-02 0.  1.
    8880023    1    1    2    0    0 -0.11884246366E+04 -0.66367867208E+03 -0.14216684032E+04  0.20755177069E+04  0.65864270000E+03 0.  1.
    8880022    1    1    2    0    0  0.11884246366E+04  0.66367867208E+03  0.17186530446E+04  0.21977221019E+04  0.15294330000E+03 0.  0.
<mgrwt>
<rscale>  0 0.14752273E+04</rscale>
<asrwt>0</asrwt>
<pdfrwt beam="1">  1        2 0.35155573E+00 0.15121616E+04</pdfrwt>
<pdfrwt beam="2">  1       -2 0.30586578E+00 0.15121616E+04</pdfrwt>
<totfact> 0.12665150E-01</totfact>
</mgrwt>
</event>
<event>
 4    1  0.3032637E-007  0.1135424E+04  0.7818608E-02  0.9222605E-01
          2   -1    0    0  501    0  0.00000000000E+00  0.00000000000E+00  0.16411608724E+04  0.16411608724E+04  0.25500000000E-02 0. -1.
         -2   -1    0    0    0  501 -0.00000000000E+00 -0.00000000000E+00 -0.83521466040E+03  0.83521466041E+03  0.25500000000E-02 0.  1.
    8880023    1    1    2    0    0 -0.72445691380E+03  0.57492507840E+03 -0.14071311244E+03  0.11441097203E+04  0.65864270000E+03 0.  0.
    8880022    1    1    2    0    0  0.72445691380E+03 -0.57492507840E+03  0.94665932446E+03  0.13322658126E+04  0.15294330000E+03 0.  0.
<mgrwt>
<rscale>  0 0.10823127E+04</rscale>
<asrwt>0</asrwt>
<pdfrwt beam="1">  1        2 0.25248629E+00 0.11354237E+04</pdfrwt>
<pdfrwt beam="2">  1       -2 0.12849456E+00 0.11354237E+04</pdfrwt>
<totfact> 0.46373198E+00</totfact>
</mgrwt>
</event>
<event>
 4    1  0.3032637E-007  0.1071506E+04  0.7818608E-02  0.9293464E-01
         -2   -1    0    0    0  501 -0.00000000000E+00  0.00000000000E+00  0.68654240475E+03  0.68654240476E+03  0.25500000000E-02 0.  1.
          2   -1    0    0  501    0  0.00000000000E+00 -0.00000000000E+00 -0.16523456814E+04  0.16523456814E+04  0.25500000000E-02 0. -1.
    8880023    1    1    2    0    0 -0.69426684315E+03  0.48198398991E+03 -0.34602425852E+02  0.10720646203E+04  0.65864270000E+03 0.  1.
    8880022    1    1    2    0    0  0.69426684315E+03 -0.48198398991E+03 -0.93120085081E+03  0.12668234658E+04  0.15294330000E+03 0.  0.
<mgrwt>
<rscale>  0 0.10138680E+04</rscale>
<asrwt>0</asrwt>
<pdfrwt beam="1">  1        2 0.25420703E+00 0.10715061E+04</pdfrwt>
<pdfrwt beam="2">  1       -2 0.10562191E+00 0.10715061E+04</pdfrwt>
<totfact> 0.74710629E+00</totfact>
</mgrwt>
</event>
<event>
 4    1  0.3032637E-007  0.6807054E+03  0.7818608E-02  0.1008927E+00
          2   -1    0    0  501    0  0.00000000000E+00  0.00000000000E+00  0.88536925613E+03  0.88536925614E+03  0.25500000000E-02 0. -1.
         -2   -1    0    0    0  501 -0.00000000000E+00 -0.00000000000E+00 -0.58008799823E+03  0.58008799823E+03  0.25500000000E-02 0.  1.
    8880023    1    1    2    0    0 -0.15026469143E+03 -0.83487545218E+02 -0.35394767446E+03  0.76722800406E+03  0.65864270000E+03 0.  1.
    8880022    1    1    2    0    0  0.15026469143E+03  0.83487545218E+02  0.65922893237E+03  0.69822925031E+03  0.15294330000E+03 0.  0.
<mgrwt>
<rscale>  0 0.51903151E+03</rscale>
<asrwt>0</asrwt>
<pdfrwt beam="1">  1        2 0.13621065E+00 0.68070541E+03</pdfrwt>
<pdfrwt beam="2">  1       -2 0.89244308E-01 0.68070541E+03</pdfrwt>
<totfact> 0.33026022E+01</totfact>
</mgrwt>
</event>
<event>
 4    1  0.3032637E-007  0.7128973E+03  0.7818608E-02  0.9947396E-01
          2   -1    0    0  501    0  0.00000000000E+00  0.00000000000E+00  0.45280629216E+03  0.45280629216E+03  0.25500000000E-02 0. -1.
         -2   -1    0    0    0  501 -0.00000000000E+00 -0.00000000000E+00 -0.58151893175E+03  0.58151893175E+03  0.25500000000E-02 0.  1.
    8880023    1    1    2    0    0 -0.17960040343E+03  0.20531926725E+03 -0.72462356384E+02  0.71657051696E+03  0.65864270000E+03 0. -1.
    8880022    1    1    2    0    0  0.17960040343E+03 -0.20531926725E+03 -0.56250283206E+02  0.31775470696E+03  0.15294330000E+03 0.  1.
<mgrwt>
<rscale>  0 0.58018269E+03</rscale>
<asrwt>0</asrwt>
<pdfrwt beam="1">  1        2 0.69662506E-01 0.71289727E+03</pdfrwt>
<pdfrwt beam="2">  1       -2 0.89464452E-01 0.71289727E+03</pdfrwt>
<totfact> 0.74972683E+01</totfact>
</mgrwt>
</event>
<event>
 4    1  0.3032637E-007  0.2160656E+04  0.7818608E-02  0.8545572E-01
          2   -1    0    0  501    0  0.00000000000E+00  0.00000000000E+00  0.39816959669E+04  0.39816959669E+04  0.25500000000E-02 0. -1.
         -2   -1    0    0    0  501 -0.00000000000E+00 -0.00000000000E+00 -0.14790818660E+04  0.14790818660E+04  0.25500000000E-02 0.  1.
    8880023    1    1    2    0    0  0.18455886144E+04 -0.91017964152E+03 -0.71298678167E+02  0.21618320983E+04  0.65864270000E+03 0.  0.
    8880022    1    1    2    0    0 -0.18455886144E+04  0.91017964152E+03  0.25739127790E+04  0.32989457347E+04  0.15294330000E+03 0.  0.
<mgrwt>
<rscale>  0 0.21359454E+04</rscale>
<asrwt>0</asrwt>
<pdfrwt beam="1">  1        2 0.61256861E+00 0.21606560E+04</pdfrwt>
<pdfrwt beam="2">  1       -2 0.22755106E+00 0.21606560E+04</pdfrwt>
<totfact> 0.27496434E-02</totfact>
</mgrwt>
</event>
<event>
 4    1  0.3032637E-007  0.1299971E+04  0.7818608E-02  0.9065585E-01
         -2   -1    0    0    0  501 -0.00000000000E+00  0.00000000000E+00  0.14917010653E+04  0.14917010653E+04  0.25500000000E-02 0.  1.
          2   -1    0    0  501    0  0.00000000000E+00 -0.00000000000E+00 -0.14834408606E+04  0.14834408606E+04  0.25500000000E-02 0. -1.
    8880023    1    1    2    0    0  0.22673138577E+03  0.10975912429E+04  0.86041675713E+03  0.15589229808E+04  0.65864270000E+03 0.  0.
    8880022    1    1    2    0    0 -0.22673138577E+03 -0.10975912429E+04 -0.85215655243E+03  0.14162189451E+04  0.15294330000E+03 0.  0.
<mgrwt>
<rscale>  0 0.12555397E+04</rscale>
<asrwt>0</asrwt>
<pdfrwt beam="1">  1        2 0.22822167E+00 0.12999707E+04</pdfrwt>
<pdfrwt beam="2">  1       -2 0.22949247E+00 0.12999707E+04</pdfrwt>
<totfact> 0.10723083E+00</totfact>
</mgrwt>
</event>
<event>
 4    1  0.3032637E-007  0.7353601E+03  0.7818608E-02  0.9873675E-01
          2   -1    0    0  501    0  0.00000000000E+00  0.00000000000E+00  0.22563217877E+04  0.22563217877E+04  0.25500000000E-02 0. -1.
         -2   -1    0    0    0  501 -0.00000000000E+00 -0.00000000000E+00 -0.23336056140E+03  0.23336056141E+03  0.25500000000E-02 0.  1.
    8880023    1    1    2    0    0  0.28038839717E+03  0.16830493528E+03  0.42058500504E+03  0.84713998680E+03  0.65864270000E+03 0.  1.
    8880022    1    1    2    0    0 -0.28038839717E+03 -0.16830493528E+03  0.16023762212E+04  0.16425423623E+04  0.15294330000E+03 0.  0.
<mgrwt>
<rscale>  0 0.61554246E+03</rscale>
<asrwt>0</asrwt>
<pdfrwt beam="1">  1        2 0.34712641E+00 0.73536006E+03</pdfrwt>
<pdfrwt beam="2">  1       -2 0.35901627E-01 0.73536006E+03</pdfrwt>
<totfact> 0.36375249E+01</totfact>
</mgrwt>
</event>
<event>
 4    1  0.3922553E-007  0.1301985E+04  0.7818608E-02  0.9063848E-01
         -2   -1    0    0    0  501 -0.00000000000E+00  0.00000000000E+00  0.20248792373E+04  0.20248792373E+04  0.25500000000E-02 0.  1.
          2   -1    0    0  501    0  0.00000000000E+00 -0.00000000000E+00 -0.23319354420E+04  0.23319354420E+04  0.25500000000E-02 0. -1.
    8880023    1    1    2    0    0  0.11099249164E+04 -0.17152374332E+03  0.16459965710E+04  0.20986825945E+04  0.65864270000E+03 0.  0.
    8880022    1    1    2    0    0 -0.11099249164E+04  0.17152374332E+03 -0.19530527757E+04  0.22581320848E+04  0.15294330000E+03 0.  0.
<mgrwt>
<rscale>  0 0.12576405E+04</rscale>
<asrwt>0</asrwt>
<pdfrwt beam="1">  1        2 0.35875930E+00 0.13019846E+04</pdfrwt>
<pdfrwt beam="2">  1       -2 0.31151988E+00 0.13019846E+04</pdfrwt>
<totfact> 0.11329054E-01</totfact>
</mgrwt>
</event>
<event>
 4    1  0.3032637E-007  0.1302800E+04  0.7818608E-02  0.9063146E-01
         -2   -1    0    0    0  501 -0.00000000000E+00  0.00000000000E+00  0.71494879744E+03  0.71494879745E+03  0.25500000000E-02 0.  1.
          2   -1    0    0  501    0  0.00000000000E+00 -0.00000000000E+00 -0.40975503719E+04  0.40975503719E+04  0.25500000000E-02 0. -1.
    8880023    1    1    2    0    0 -0.18193196521E+03  0.11092243221E+04 -0.62892104199E+02  0.13043172390E+04  0.65864270000E+03 0.  0.
    8880022    1    1    2    0    0  0.18193196521E+03 -0.11092243221E+04 -0.33197094702E+04  0.35081819304E+04  0.15294330000E+03 0.  0.
<mgrwt>
<rscale>  0 0.12584911E+04</rscale>
<asrwt>0</asrwt>
<pdfrwt beam="1">  1        2 0.63039235E+00 0.13028001E+04</pdfrwt>
<pdfrwt beam="2">  1       -2 0.10999213E+00 0.13028001E+04</pdfrwt>
<totfact> 0.18648903E-01</totfact>
</mgrwt>
</event>
<event>
 4    1  0.3032637E-007  0.7417993E+03  0.7818608E-02  0.9854737E-01
          2   -1    0    0  501    0  0.00000000000E+00  0.00000000000E+00  0.46251977631E+04  0.46251977631E+04  0.25500000000E-02 0. -1.
         -2   -1    0    0    0  501 -0.00000000000E+00 -0.00000000000E+00 -0.28417247880E+03  0.28417247881E+03  0.25500000000E-02 0.  1.
    8880023    1    1    2    0    0  0.56891644430E+02  0.33648076503E+03  0.22327360127E+03  0.77467236412E+03  0.65864270000E+03 0.  1.
    8880022    1    1    2    0    0 -0.56891644430E+02 -0.33648076503E+03  0.41177516831E+04  0.41346978778E+04  0.15294330000E+03 0.  0.
<mgrwt>
<rscale>  0 0.62505997E+03</rscale>
<asrwt>0</asrwt>
<pdfrwt beam="1">  1        2 0.71156879E+00 0.74179928E+03</pdfrwt>
<pdfrwt beam="2">  1       -2 0.43718849E-01 0.74179928E+03</pdfrwt>
<totfact> 0.52628967E-01</totfact>
</mgrwt>
</event>
<event>
 4    1  0.3032637E-007  0.1232986E+04  0.7818608E-02  0.9125706E-01
         -2   -1    0    0    0  501 -0.00000000000E+00  0.00000000000E+00  0.22941350713E+04  0.22941350713E+04  0.25500000000E-02 0.  1.
          2   -1    0    0  501    0  0.00000000000E+00 -0.00000000000E+00 -0.14775120142E+04  0.14775120142E+04  0.25500000000E-02 0. -1.
    8880023    1    1    2    0    0 -0.40700690028E+03 -0.95957759827E+03  0.18971074288E+04  0.22625805149E+04  0.65864270000E+03 0.  0.
    8880022    1    1    2    0    0  0.40700690028E+03  0.95957759827E+03 -0.10804843716E+04  0.15090665705E+04  0.15294330000E+03 0.  0.
<mgrwt>
<rscale>  0 0.11854299E+04</rscale>
<asrwt>0</asrwt>
<pdfrwt beam="1">  1        2 0.22730954E+00 0.12329858E+04</pdfrwt>
<pdfrwt beam="2">  1       -2 0.35294386E+00 0.12329858E+04</pdfrwt>
<totfact> 0.19011275E-01</totfact>
</mgrwt>
</event>
<event>
 4    1  0.3032637E-007  0.1744214E+04  0.7818608E-02  0.8754040E-01
         -2   -1    0    0    0  501 -0.00000000000E+00  0.00000000000E+00  0.18169331715E+04  0.18169331715E+04  0.25500000000E-02 0.  1.
          2   -1    0    0  501    0  0.00000000000E+00 -0.00000000000E+00 -0.21275364005E+04  0.21275364005E+04  0.25500000000E-02 0. -1.
    8880023    1    1    2    0    0  0.70376626652E+03 -0.14536794242E+04  0.85924071421E+03  0.19443702418E+04  0.65864270000E+03 0.  0.
    8880022    1    1    2    0    0 -0.70376626652E+03  0.14536794242E+04 -0.11698439431E+04  0.20000993301E+04  0.15294330000E+03 0.  0.
<mgrwt>
<rscale>  0 0.17129025E+04</rscale>
<asrwt>0</asrwt>
<pdfrwt beam="1">  1        2 0.32731329E+00 0.17442136E+04</pdfrwt>
<pdfrwt beam="2">  1       -2 0.27952818E+00 0.17442136E+04</pdfrwt>
<totfact> 0.21940154E-01</totfact>
</mgrwt>
</event>
<event>
 4    1  0.3032637E-007  0.1234730E+04  0.7818608E-02  0.9124080E-01
          2   -1    0    0  501    0  0.00000000000E+00  0.00000000000E+00  0.35003162666E+04  0.35003162666E+04  0.25500000000E-02 0. -1.
         -2   -1    0    0    0  501 -0.00000000000E+00 -0.00000000000E+00 -0.60803938004E+03  0.60803938004E+03  0.25500000000E-02 0.  1.
    8880023    1    1    2    0    0 -0.47971098064E+03  0.92769927359E+03  0.24554069824E+03  0.12589078632E+04  0.65864270000E+03 0.  0.
    8880022    1    1    2    0    0  0.47971098064E+03 -0.92769927359E+03  0.26467361883E+04  0.28494477834E+04  0.15294330000E+03 0.  0.
<mgrwt>
<rscale>  0 0.11872619E+04</rscale>
<asrwt>0</asrwt>
<pdfrwt beam="1">  1        2 0.53851019E+00 0.12347302E+04</pdfrwt>
<pdfrwt beam="2">  1       -2 0.93544520E-01 0.12347302E+04</pdfrwt>
<totfact> 0.78229070E-01</totfact>
</mgrwt>
</event>
<event>
 4    1  0.3032637E-007  0.8625983E+03  0.7818608E-02  0.9588958E-01
         -2   -1    0    0    0  501 -0.00000000000E+00  0.00000000000E+00  0.17430448832E+03  0.17430448833E+03  0.25500000000E-02 0.  1.
          2   -1    0    0  501    0  0.00000000000E+00 -0.00000000000E+00 -0.40876966463E+04  0.40876966463E+04  0.25500000000E-02 0. -1.
    8880023    1    1    2    0    0  0.47838139768E+03 -0.28533642102E+03 -0.33343069593E+04  0.34440787941E+04  0.65864270000E+03 0.  0.
    8880022    1    1    2    0    0 -0.47838139768E+03  0.28533642102E+03 -0.57908519869E+03  0.81792234055E+03  0.15294330000E+03 0.  0.
<mgrwt>
<rscale>  0 0.78031333E+03</rscale>
<asrwt>0</asrwt>
<pdfrwt beam="1">  1        2 0.62887633E+00 0.86259831E+03</pdfrwt>
<pdfrwt beam="2">  1       -2 0.26816078E-01 0.86259831E+03</pdfrwt>
<totfact> 0.39616616E+00</totfact>
</mgrwt>
</event>
<event>
 4    1  0.3032637E-007  0.7441968E+03  0.7818608E-02  0.9847887E-01
          2   -1    0    0  501    0  0.00000000000E+00  0.00000000000E+00  0.13655295656E+04  0.13655295656E+04  0.25500000000E-02 0. -1.
         -2   -1    0    0    0  501 -0.00000000000E+00 -0.00000000000E+00 -0.71695118221E+03  0.71695118222E+03  0.25500000000E-02 0.  1.
    8880023    1    1    2    0    0 -0.30417576363E+03 -0.16581839686E+03 -0.48435251878E+03  0.88793367130E+03  0.65864270000E+03 0.  1.
    8880022    1    1    2    0    0  0.30417576363E+03  0.16581839686E+03  0.11329309022E+04  0.11945470765E+04  0.15294330000E+03 0.  0.
<mgrwt>
<rscale>  0 0.62854790E+03</rscale>
<asrwt>0</asrwt>
<pdfrwt beam="1">  1        2 0.21008147E+00 0.74419678E+03</pdfrwt>
<pdfrwt beam="2">  1       -2 0.11030018E+00 0.74419678E+03</pdfrwt>
<totfact> 0.10114174E+01</totfact>
</mgrwt>
</event>
<event>
 4    1  0.3032637E-007  0.6822317E+03  0.7818608E-02  0.1008088E+00
         -2   -1    0    0    0  501 -0.00000000000E+00  0.00000000000E+00  0.25586365082E+03  0.25586365084E+03  0.25500000000E-02 0.  1.
          2   -1    0    0  501    0  0.00000000000E+00 -0.00000000000E+00 -0.18194399093E+04  0.18194399093E+04  0.25500000000E-02 0. -1.
    8880023    1    1    2    0    0 -0.12792103345E+03 -0.12355609088E+03 -0.22805489427E+03  0.71933937711E+03  0.65864270000E+03 0.  1.
    8880022    1    1    2    0    0  0.12792103345E+03  0.12355609088E+03 -0.13355213642E+04  0.13559641831E+04  0.15294330000E+03 0.  0.
<mgrwt>
<rscale>  0 0.52241487E+03</rscale>
<asrwt>0</asrwt>
<pdfrwt beam="1">  1        2 0.27991382E+00 0.68223171E+03</pdfrwt>
<pdfrwt beam="2">  1       -2 0.39363640E-01 0.68223171E+03</pdfrwt>
<totfact> 0.53153424E+01</totfact>
</mgrwt>
</event>
<event>
 4    1  0.3032637E-007  0.6768161E+03  0.7818608E-02  0.1011185E+00
         -2   -1    0    0    0  501 -0.00000000000E+00  0.00000000000E+00  0.49239467575E+03  0.49239467575E+03  0.25500000000E-02 0.  1.
          2   -1    0    0  501    0  0.00000000000E+00 -0.00000000000E+00 -0.69312001108E+03  0.69312001109E+03  0.25500000000E-02 0. -1.
    8880023    1    1    2    0    0 -0.11895022318E+03  0.10060176981E+03  0.21987086529E+03  0.71163422863E+03  0.65864270000E+03 0.  1.
    8880022    1    1    2    0    0  0.11895022318E+03 -0.10060176981E+03 -0.42059620063E+03  0.47388045822E+03  0.15294330000E+03 0.  0.
<mgrwt>
<rscale>  0 0.51006323E+03</rscale>
<asrwt>0</asrwt>
<pdfrwt beam="1">  1        2 0.10663385E+00 0.67681613E+03</pdfrwt>
<pdfrwt beam="2">  1       -2 0.75753027E-01 0.67681613E+03</pdfrwt>
<totfact> 0.65961693E+01</totfact>
</mgrwt>
</event>
<event>
 4    1  0.3032637E-007  0.1480956E+04  0.7818608E-02  0.8923202E-01
          2   -1    0    0  501    0  0.00000000000E+00  0.00000000000E+00  0.21127576797E+04  0.21127576797E+04  0.25500000000E-02 0. -1.
         -2   -1    0    0    0  501 -0.00000000000E+00 -0.00000000000E+00 -0.12491748569E+04  0.12491748569E+04  0.25500000000E-02 0.  1.
    8880023    1    1    2    0    0 -0.13065522617E+04  0.22878189342E+03 -0.38895135595E+03  0.15311803718E+04  0.65864270000E+03 0.  0.
    8880022    1    1    2    0    0  0.13065522617E+04 -0.22878189342E+03  0.12525341787E+04  0.18307521649E+04  0.15294330000E+03 0.  0.
<mgrwt>
<rscale>  0 0.14430945E+04</rscale>
<asrwt>0</asrwt>
<pdfrwt beam="1">  1        2 0.32503964E+00 0.14809558E+04</pdfrwt>
<pdfrwt beam="2">  1       -2 0.19218075E+00 0.14809558E+04</pdfrwt>
<totfact> 0.81569385E-01</totfact>
</mgrwt>
</event>
<event>
 4    1  0.3032637E-007  0.9064243E+03  0.7818608E-02  0.9515796E-01
         -2   -1    0    0    0  501 -0.00000000000E+00  0.00000000000E+00  0.68612747797E+03  0.68612747798E+03  0.25500000000E-02 0.  1.
          2   -1    0    0  501    0  0.00000000000E+00 -0.00000000000E+00 -0.21265606076E+04  0.21265606076E+04  0.25500000000E-02 0. -1.
    8880023    1    1    2    0    0  0.55401571189E+03  0.28436131690E+03 -0.18442022386E+04  0.20549177285E+04  0.65864270000E+03 0.  0.
    8880022    1    1    2    0    0 -0.55401571189E+03 -0.28436131690E+03  0.40376910906E+03  0.75777035705E+03  0.15294330000E+03 0.  0.
<mgrwt>
<rscale>  0 0.83129179E+03</rscale>
<asrwt>0</asrwt>
<pdfrwt beam="1">  1        2 0.32716317E+00 0.90642428E+03</pdfrwt>
<pdfrwt beam="2">  1       -2 0.10555807E+00 0.90642428E+03</pdfrwt>
<totfact> 0.41806974E+00</totfact>
</mgrwt>
</event>
<event>
 4    1  0.3032637E-007  0.1315576E+04  0.7818608E-02  0.9052225E-01
         -2   -1    0    0    0  501 -0.00000000000E+00  0.00000000000E+00  0.17398164390E+04  0.17398164390E+04  0.25500000000E-02 0.  1.
          2   -1    0    0  501    0  0.00000000000E+00 -0.00000000000E+00 -0.16303655926E+04  0.16303655926E+04  0.25500000000E-02 0. -1.
    8880023    1    1    2    0    0  0.10462740071E+04  0.44971150374E+03  0.12039215089E+04  0.17833022571E+04  0.65864270000E+03 0.  1.
    8880022    1    1    2    0    0 -0.10462740071E+04 -0.44971150374E+03 -0.10944706625E+04  0.15868797745E+04  0.15294330000E+03 0.  0.
<mgrwt>
<rscale>  0 0.12718090E+04</rscale>
<asrwt>0</asrwt>
<pdfrwt beam="1">  1        2 0.25082548E+00 0.13155759E+04</pdfrwt>
<pdfrwt beam="2">  1       -2 0.26766407E+00 0.13155759E+04</pdfrwt>
<totfact> 0.51503969E-01</totfact>
</mgrwt>
</event>
<event>
 4    1  0.3032637E-007  0.1145659E+04  0.7818608E-02  0.9211846E-01
         -2   -1    0    0    0  501 -0.00000000000E+00  0.00000000000E+00  0.13917165971E+04  0.13917165971E+04  0.25500000000E-02 0.  1.
          2   -1    0    0  501    0  0.00000000000E+00 -0.00000000000E+00 -0.11187776820E+04  0.11187776820E+04  0.25500000000E-02 0. -1.
    8880023    1    1    2    0    0 -0.79855445585E+03  0.49095365496E+03  0.82510733535E+03  0.14118558819E+04  0.65864270000E+03 0.  1.
    8880022    1    1    2    0    0  0.79855445585E+03 -0.49095365496E+03 -0.55216842022E+03  0.10986383971E+04  0.15294330000E+03 0.  0.
<mgrwt>
<rscale>  0 0.10931994E+04</rscale>
<asrwt>0</asrwt>
<pdfrwt beam="1">  1        2 0.17211964E+00 0.11456592E+04</pdfrwt>
<pdfrwt beam="2">  1       -2 0.21411024E+00 0.11456592E+04</pdfrwt>
<totfact> 0.22335618E+00</totfact>
</mgrwt>
</event>
<event>
 4    1  0.3032637E-007  0.7346746E+03  0.7818608E-02  0.9875740E-01
         -2   -1    0    0    0  501 -0.00000000000E+00  0.00000000000E+00  0.13966344936E+04  0.13966344936E+04  0.25500000000E-02 0.  1.
          2   -1    0    0  501    0  0.00000000000E+00 -0.00000000000E+00 -0.92393457949E+03  0.92393457949E+03  0.25500000000E-02 0. -1.
    8880023    1    1    2    0    0 -0.20646955192E+03 -0.25160849846E+03  0.12580151025E+04  0.14568283073E+04  0.65864270000E+03 0.  1.
    8880022    1    1    2    0    0  0.20646955192E+03  0.25160849846E+03 -0.78531518843E+03  0.86374076583E+03  0.15294330000E+03 0.  0.
<mgrwt>
<rscale>  0 0.61451557E+03</rscale>
<asrwt>0</asrwt>
<pdfrwt beam="1">  1        2 0.14214378E+00 0.73467457E+03</pdfrwt>
<pdfrwt beam="2">  1       -2 0.21486684E+00 0.73467457E+03</pdfrwt>
<totfact> 0.30954600E+00</totfact>
</mgrwt>
</event>
<event>
 4    1  0.3032637E-007  0.6889680E+03  0.7818608E-02  0.1004647E+00
         -2   -1    0    0    0  501 -0.00000000000E+00  0.00000000000E+00  0.10256176586E+03  0.10256176589E+03  0.25500000000E-02 0.  1.
          2   -1    0    0  501    0  0.00000000000E+00 -0.00000000000E+00 -0.38421102007E+04  0.38421102007E+04  0.25500000000E-02 0. -1.
    8880023    1    1    2    0    0  0.86077501658E+02 -0.18291340033E+03 -0.11344756649E+04  0.13272949517E+04  0.65864270000E+03 0.  1.
    8880022    1    1    2    0    0 -0.86077501658E+02  0.18291340033E+03 -0.26050727700E+04  0.26173770150E+04  0.15294330000E+03 0.  0.
<mgrwt>
<rscale>  0 0.53658735E+03</rscale>
<asrwt>0</asrwt>
<pdfrwt beam="1">  1        2 0.59109377E+00 0.68896796E+03</pdfrwt>
<pdfrwt beam="2">  1       -2 0.15778736E-01 0.68896796E+03</pdfrwt>
<totfact> 0.16212091E+01</totfact>
</mgrwt>
</event>
<event>
 4    1  0.3032637E-007  0.7765374E+03  0.7818608E-02  0.9764034E-01
          2   -1    0    0  501    0  0.00000000000E+00  0.00000000000E+00  0.99788037152E+03  0.99788037152E+03  0.25500000000E-02 0. -1.
         -2   -1    0    0    0  501 -0.00000000000E+00 -0.00000000000E+00 -0.90219636070E+03  0.90219636070E+03  0.25500000000E-02 0.  1.
    8880023    1    1    2    0    0 -0.31074199144E+03  0.26951721826E+03 -0.66467761736E+03  0.10221578437E+04  0.65864270000E+03 0.  0.
    8880022    1    1    2    0    0  0.31074199144E+03 -0.26951721826E+03  0.76036162818E+03  0.87791888851E+03  0.15294330000E+03 0.  0.
<mgrwt>
<rscale>  0 0.67328896E+03</rscale>
<asrwt>0</asrwt>
<pdfrwt beam="1">  1        2 0.15352006E+00 0.77653739E+03</pdfrwt>
<pdfrwt beam="2">  1       -2 0.13879944E+00 0.77653739E+03</pdfrwt>
<totfact> 0.94151944E+00</totfact>
</mgrwt>
</event>
<event>
 4    1  0.3032637E-007  0.9616488E+03  0.7818608E-02  0.9433548E-01
         -2   -1    0    0    0  501 -0.00000000000E+00  0.00000000000E+00  0.14700276752E+04  0.14700276752E+04  0.25500000000E-02 0.  1.
          2   -1    0    0  501    0  0.00000000000E+00 -0.00000000000E+00 -0.22808401111E+04  0.22808401111E+04  0.25500000000E-02 0. -1.
    8880023    1    1    2    0    0 -0.37343931903E+03 -0.59287549193E+03  0.12452315673E+04  0.15733309049E+04  0.65864270000E+03 0.  0.
    8880022    1    1    2    0    0  0.37343931903E+03  0.59287549193E+03 -0.20560440032E+04  0.21775368814E+04  0.15294330000E+03 0.  0.
<mgrwt>
<rscale>  0 0.89365465E+03</rscale>
<asrwt>0</asrwt>
<pdfrwt beam="1">  1        2 0.35089848E+00 0.96164883E+03</pdfrwt>
<pdfrwt beam="2">  1       -2 0.22615810E+00 0.96164883E+03</pdfrwt>
<totfact> 0.42501977E-01</totfact>
</mgrwt>
</event>
<event>
 4    1  0.3032637E-007  0.1311407E+04  0.7818608E-02  0.9055772E-01
         -2   -1    0    0    0  501 -0.00000000000E+00  0.00000000000E+00  0.22203667272E+04  0.22203667272E+04  0.25500000000E-02 0.  1.
          2   -1    0    0  501    0  0.00000000000E+00 -0.00000000000E+00 -0.16510147876E+04  0.16510147876E+04  0.25500000000E-02 0. -1.
    8880023    1    1    2    0    0  0.71132783753E+03  0.88317055157E+03  0.17764811233E+04  0.22080925939E+04  0.65864270000E+03 0.  0.
    8880022    1    1    2    0    0 -0.71132783753E+03 -0.88317055157E+03 -0.12071291836E+04  0.16632889210E+04  0.15294330000E+03 0.  0.
<mgrwt>
<rscale>  0 0.12674646E+04</rscale>
<asrwt>0</asrwt>
<pdfrwt beam="1">  1        2 0.25400227E+00 0.13114068E+04</pdfrwt>
<pdfrwt beam="2">  1       -2 0.34159488E+00 0.13114068E+04</pdfrwt>
<totfact> 0.17686508E-01</totfact>
</mgrwt>
</event>
<event>
 4    1  0.3032637E-007  0.9261577E+03  0.7818608E-02  0.9485281E-01
          2   -1    0    0  501    0  0.00000000000E+00  0.00000000000E+00  0.29913704586E+04  0.29913704586E+04  0.25500000000E-02 0. -1.
         -2   -1    0    0    0  501 -0.00000000000E+00 -0.00000000000E+00 -0.44325643793E+03  0.44325643793E+03  0.25500000000E-02 0.  1.
    8880023    1    1    2    0    0 -0.54722622832E+03  0.35284746374E+03  0.14162916293E+03  0.93692417179E+03  0.65864270000E+03 0.  0.
    8880022    1    1    2    0    0  0.54722622832E+03 -0.35284746374E+03  0.24064848578E+04  0.24977027248E+04  0.15294330000E+03 0.  0.
<mgrwt>
<rscale>  0 0.85377725E+03</rscale>
<asrwt>0</asrwt>
<pdfrwt beam="1">  1        2 0.46021084E+00 0.92615770E+03</pdfrwt>
<pdfrwt beam="2">  1       -2 0.68193297E-01 0.92615770E+03</pdfrwt>
<totfact> 0.35860367E+00</totfact>
</mgrwt>
</event>
<event>
 4    1  0.3032637E-007  0.8705634E+03  0.7818608E-02  0.9575042E-01
          2   -1    0    0  501    0  0.00000000000E+00  0.00000000000E+00  0.89504313156E+03  0.89504313156E+03  0.25500000000E-02 0. -1.
         -2   -1    0    0    0  501 -0.00000000000E+00 -0.00000000000E+00 -0.10739652008E+04  0.10739652008E+04  0.25500000000E-02 0.  1.
    8880023    1    1    2    0    0 -0.52473572071E+03  0.22073272830E+03 -0.74940921761E+03  0.11486926898E+04  0.65864270000E+03 0.  1.
    8880022    1    1    2    0    0  0.52473572071E+03 -0.22073272830E+03  0.57048714838E+03  0.82031564255E+03  0.15294330000E+03 0.  0.
<mgrwt>
<rscale>  0 0.78970295E+03</rscale>
<asrwt>0</asrwt>
<pdfrwt beam="1">  1        2 0.13769894E+00 0.87056345E+03</pdfrwt>
<pdfrwt beam="2">  1       -2 0.16522542E+00 0.87056345E+03</pdfrwt>
<totfact> 0.68449103E+00</totfact>
</mgrwt>
</event>
<event>
 4    1  0.3032637E-007  0.9552907E+03  0.7818608E-02  0.9442542E-01
         -2   -1    0    0    0  501 -0.00000000000E+00  0.00000000000E+00  0.70866013245E+03  0.70866013245E+03  0.25500000000E-02 0.  1.
          2   -1    0    0  501    0  0.00000000000E+00 -0.00000000000E+00 -0.18546968116E+04  0.18546968116E+04  0.25500000000E-02 0. -1.
    8880023    1    1    2    0    0 -0.65860312261E+03  0.21216055283E+03  0.25896129962E+03  0.98976832353E+03  0.65864270000E+03 0.  0.
    8880022    1    1    2    0    0  0.65860312261E+03 -0.21216055283E+03 -0.14049979788E+04  0.15735886205E+04  0.15294330000E+03 0.  0.
<mgrwt>
<rscale>  0 0.88655796E+03</rscale>
<asrwt>0</asrwt>
<pdfrwt beam="1">  1        2 0.28533797E+00 0.95529073E+03</pdfrwt>
<pdfrwt beam="2">  1       -2 0.10902464E+00 0.95529073E+03</pdfrwt>
<totfact> 0.54202606E+00</totfact>
</mgrwt>
</event>
<event>
 4    1  0.3032637E-007  0.9118090E+03  0.7818608E-02  0.9507334E-01
          2   -1    0    0  501    0  0.00000000000E+00  0.00000000000E+00  0.10120295554E+04  0.10120295554E+04  0.25500000000E-02 0. -1.
         -2   -1    0    0    0  501 -0.00000000000E+00 -0.00000000000E+00 -0.18942289612E+04  0.18942289612E+04  0.25500000000E-02 0.  1.
    8880023    1    1    2    0    0  0.51554281148E+03  0.36304424725E+03 -0.16596530959E+04  0.18936325200E+04  0.65864270000E+03 0.  1.
    8880022    1    1    2    0    0 -0.51554281148E+03 -0.36304424725E+03  0.77745369006E+03  0.10126259967E+04  0.15294330000E+03 0.  0.
<mgrwt>
<rscale>  0 0.83745260E+03</rscale>
<asrwt>0</asrwt>
<pdfrwt beam="1">  1        2 0.15569686E+00 0.91180904E+03</pdfrwt>
<pdfrwt beam="2">  1       -2 0.29141984E+00 0.91180904E+03</pdfrwt>
<totfact> 0.90143999E-01</totfact>
</mgrwt>
</event>
<event>
 4    1  0.3032637E-007  0.9822099E+03  0.7818608E-02  0.9405212E-01
          2   -1    0    0  501    0  0.00000000000E+00  0.00000000000E+00  0.14879115792E+04  0.14879115792E+04  0.25500000000E-02 0. -1.
         -2   -1    0    0    0  501 -0.00000000000E+00 -0.00000000000E+00 -0.11680459870E+04  0.11680459871E+04  0.25500000000E-02 0.  1.
    8880023    1    1    2    0    0 -0.24848427621E+03 -0.68496837498E+03 -0.83010943030E+03  0.12860085469E+04  0.65864270000E+03 0.  0.
    8880022    1    1    2    0    0  0.24848427621E+03  0.68496837498E+03  0.11499750224E+04  0.13699490193E+04  0.15294330000E+03 0.  0.
<mgrwt>
<rscale>  0 0.91648020E+03</rscale>
<asrwt>0</asrwt>
<pdfrwt beam="1">  1        2 0.22890947E+00 0.98220991E+03</pdfrwt>
<pdfrwt beam="2">  1       -2 0.17969938E+00 0.98220991E+03</pdfrwt>
<totfact> 0.23375641E+00</totfact>
</mgrwt>
</event>
<event>
 4    1  0.3032637E-007  0.8092406E+03  0.7818608E-02  0.9691161E-01
          2   -1    0    0  501    0  0.00000000000E+00  0.00000000000E+00  0.65573671860E+03  0.65573671860E+03  0.25500000000E-02 0. -1.
         -2   -1    0    0    0  501 -0.00000000000E+00 -0.00000000000E+00 -0.16380956066E+04  0.16380956066E+04  0.25500000000E-02 0.  1.
    8880023    1    1    2    0    0 -0.42957639564E+03 -0.19111305253E+03 -0.14194392330E+04  0.16339149368E+04  0.65864270000E+03 0.  1.
    8880022    1    1    2    0    0  0.42957639564E+03  0.19111305253E+03  0.43708034493E+03  0.65991738838E+03  0.15294330000E+03 0.  0.
<mgrwt>
<rscale>  0 0.71545508E+03</rscale>
<asrwt>0</asrwt>
<pdfrwt beam="1">  1        2 0.10088257E+00 0.80924056E+03</pdfrwt>
<pdfrwt beam="2">  1       -2 0.25201471E+00 0.80924056E+03</pdfrwt>
<totfact> 0.28394421E+00</totfact>
</mgrwt>
</event>
<event>
 4    1  0.3032637E-007  0.6754062E+03  0.7818608E-02  0.1012051E+00
          2   -1    0    0  501    0  0.00000000000E+00  0.00000000000E+00  0.13705326824E+04  0.13705326824E+04  0.25500000000E-02 0. -1.
         -2   -1    0    0    0  501 -0.00000000000E+00 -0.00000000000E+00 -0.14950516194E+03  0.14950516196E+03  0.25500000000E-02 0.  1.
    8880023    1    1    2    0    0  0.35214348453E+02 -0.14533827965E+03  0.79380149118E+03  0.10422544217E+04  0.65864270000E+03 0.  1.
    8880022    1    1    2    0    0 -0.35214348453E+02  0.14533827965E+03  0.42722602933E+03  0.47778342272E+03  0.15294330000E+03 0.  1.
<mgrwt>
<rscale>  0 0.50667384E+03</rscale>
<asrwt>0</asrwt>
<pdfrwt beam="1">  1        2 0.21085118E+00 0.67540615E+03</pdfrwt>
<pdfrwt beam="2">  1       -2 0.23000795E-01 0.67540615E+03</pdfrwt>
<totfact> 0.25493440E+02</totfact>
</mgrwt>
</event>
<event>
 4    1  0.3032637E-007  0.1155576E+04  0.7818608E-02  0.9201563E-01
          2   -1    0    0  501    0  0.00000000000E+00  0.00000000000E+00  0.15131448421E+04  0.15131448421E+04  0.25500000000E-02 0. -1.
         -2   -1    0    0    0  501 -0.00000000000E+00 -0.00000000000E+00 -0.11923896953E+04  0.11923896953E+04  0.25500000000E-02 0.  1.
    8880023    1    1    2    0    0 -0.52310946776E+03 -0.79240325355E+03  0.99994298484E+03  0.15281500616E+04  0.65864270000E+03 0. -1.
    8880022    1    1    2    0    0  0.52310946776E+03  0.79240325355E+03 -0.67918783802E+03  0.11773844758E+04  0.15294330000E+03 0.  0.
<mgrwt>
<rscale>  0 0.11037305E+04</rscale>
<asrwt>0</asrwt>
<pdfrwt beam="1">  1        2 0.23279151E+00 0.11555763E+04</pdfrwt>
<pdfrwt beam="2">  1       -2 0.18344457E+00 0.11555763E+04</pdfrwt>
<totfact> 0.20888888E+00</totfact>
</mgrwt>
</event>
<event>
 4    1  0.3032637E-007  0.1197962E+04  0.7818608E-02  0.9159106E-01
          2   -1    0    0  501    0  0.00000000000E+00  0.00000000000E+00  0.11456022735E+04  0.11456022735E+04  0.25500000000E-02 0. -1.
         -2   -1    0    0    0  501 -0.00000000000E+00 -0.00000000000E+00 -0.12130894212E+04  0.12130894213E+04  0.25500000000E-02 0.  1.
    8880023    1    1    2    0    0  0.99629933248E+03 -0.93225884220E+02  0.37306476547E+03  0.12547075161E+04  0.65864270000E+03 0.  0.
    8880022    1    1    2    0    0 -0.99629933248E+03  0.93225884220E+02 -0.44055191326E+03  0.11039841786E+04  0.15294330000E+03 0.  0.
<mgrwt>
<rscale>  0 0.11485679E+04</rscale>
<asrwt>0</asrwt>
<pdfrwt beam="1">  1        2 0.17624650E+00 0.11979623E+04</pdfrwt>
<pdfrwt beam="2">  1       -2 0.18662914E+00 0.11979623E+04</pdfrwt>
<totfact> 0.32423432E+00</totfact>
</mgrwt>
</event>
<event>
 4    1  0.3032637E-007  0.7684387E+03  0.7818608E-02  0.9783731E-01
          2   -1    0    0  501    0  0.00000000000E+00  0.00000000000E+00  0.19764564641E+04  0.19764564641E+04  0.25500000000E-02 0. -1.
         -2   -1    0    0    0  501 -0.00000000000E+00 -0.00000000000E+00 -0.10014568374E+04  0.10014568374E+04  0.25500000000E-02 0.  1.
    8880023    1    1    2    0    0 -0.25752612421E+03 -0.30061289181E+03 -0.82566095210E+03  0.11279246559E+04  0.65864270000E+03 0.  1.
    8880022    1    1    2    0    0  0.25752612421E+03  0.30061289181E+03  0.18006605788E+04  0.18499886455E+04  0.15294330000E+03 0.  0.
<mgrwt>
<rscale>  0 0.66242992E+03</rscale>
<asrwt>0</asrwt>
<pdfrwt beam="1">  1        2 0.30407022E+00 0.76843869E+03</pdfrwt>
<pdfrwt beam="2">  1       -2 0.15407029E+00 0.76843869E+03</pdfrwt>
<totfact> 0.19867536E+00</totfact>
</mgrwt>
</event>
<event>
 4    1  0.3032637E-007  0.1141437E+04  0.7818608E-02  0.9216266E-01
         -2   -1    0    0    0  501 -0.00000000000E+00  0.00000000000E+00  0.72605124062E+03  0.72605124063E+03  0.25500000000E-02 0.  1.
          2   -1    0    0  501    0  0.00000000000E+00 -0.00000000000E+00 -0.17359070412E+04  0.17359070412E+04  0.25500000000E-02 0. -1.
    8880023    1    1    2    0    0 -0.31477038394E+03  0.87748929120E+03 -0.92557194172E+02  0.11451833439E+04  0.65864270000E+03 0.  0.
    8880022    1    1    2    0    0  0.31477038394E+03 -0.87748929120E+03 -0.91729860644E+03  0.13167749379E+04  0.15294330000E+03 0.  0.
<mgrwt>
<rscale>  0 0.10887107E+04</rscale>
<asrwt>0</asrwt>
<pdfrwt beam="1">  1        2 0.26706262E+00 0.11414368E+04</pdfrwt>
<pdfrwt beam="2">  1       -2 0.11170019E+00 0.11414368E+04</pdfrwt>
<totfact> 0.58207353E+00</totfact>
</mgrwt>
</event>
<event>
 4    1  0.3032637E-007  0.1236301E+04  0.7818608E-02  0.9122618E-01
         -2   -1    0    0    0  501 -0.00000000000E+00  0.00000000000E+00  0.51865210916E+03  0.51865210917E+03  0.25500000000E-02 0.  1.
          2   -1    0    0  501    0  0.00000000000E+00 -0.00000000000E+00 -0.33133179131E+04  0.33133179131E+04  0.25500000000E-02 0. -1.
    8880023    1    1    2    0    0 -0.23837358145E+03 -0.10187283553E+04 -0.55481521502E+03  0.13550865490E+04  0.65864270000E+03 0.  0.
    8880022    1    1    2    0    0  0.23837358145E+03  0.10187283553E+04 -0.22398505889E+04  0.24768834732E+04  0.15294330000E+03 0.  0.
<mgrwt>
<rscale>  0 0.11889110E+04</rscale>
<asrwt>0</asrwt>
<pdfrwt beam="1">  1        2 0.50974121E+00 0.12363008E+04</pdfrwt>
<pdfrwt beam="2">  1       -2 0.79792634E-01 0.12363008E+04</pdfrwt>
<totfact> 0.15090314E+00</totfact>
</mgrwt>
</event>
<event>
 4    1  0.3032637E-007  0.7819741E+03  0.7818608E-02  0.9751220E-01
          2   -1    0    0  501    0  0.00000000000E+00  0.00000000000E+00  0.26416354036E+04  0.26416354036E+04  0.25500000000E-02 0. -1.
         -2   -1    0    0    0  501 -0.00000000000E+00 -0.00000000000E+00 -0.23219673764E+03  0.23219673765E+03  0.25500000000E-02 0.  1.
    8880023    1    1    2    0    0 -0.20395238882E+03 -0.36888571095E+03  0.53737967157E+03  0.94882051113E+03  0.65864270000E+03 0.  1.
    8880022    1    1    2    0    0  0.20395238882E+03  0.36888571095E+03  0.18720589943E+04  0.19250116301E+04  0.15294330000E+03 0.  0.
<mgrwt>
<rscale>  0 0.68047363E+03</rscale>
<asrwt>0</asrwt>
<pdfrwt beam="1">  1        2 0.40640546E+00 0.78197407E+03</pdfrwt>
<pdfrwt beam="2">  1       -2 0.35722574E-01 0.78197407E+03</pdfrwt>
<totfact> 0.22110694E+01</totfact>
</mgrwt>
</event>
<event>
 4    1  0.3032637E-007  0.1883015E+04  0.7818608E-02  0.8677954E-01
         -2   -1    0    0    0  501 -0.00000000000E+00  0.00000000000E+00  0.19135298640E+04  0.19135298640E+04  0.25500000000E-02 0.  1.
          2   -1    0    0  501    0  0.00000000000E+00 -0.00000000000E+00 -0.24116513088E+04  0.24116513088E+04  0.25500000000E-02 0. -1.
    8880023    1    1    2    0    0  0.43381455978E+03 -0.17098951367E+04 -0.13919942467E+04  0.23416649290E+04  0.65864270000E+03 0.  0.
    8880022    1    1    2    0    0 -0.43381455978E+03  0.17098951367E+04  0.89387280186E+03  0.19835162438E+04  0.15294330000E+03 0.  0.
<mgrwt>
<rscale>  0 0.18542819E+04</rscale>
<asrwt>0</asrwt>
<pdfrwt beam="1">  1        2 0.37102328E+00 0.18830153E+04</pdfrwt>
<pdfrwt beam="2">  1       -2 0.29438921E+00 0.18830153E+04</pdfrwt>
<totfact> 0.12088103E-01</totfact>
</mgrwt>
</event>
<event>
 4    1  0.3032637E-007  0.1056707E+04  0.7818608E-02  0.9310862E-01
          2   -1    0    0  501    0  0.00000000000E+00  0.00000000000E+00  0.19056339857E+04  0.19056339857E+04  0.25500000000E-02 0. -1.
         -2   -1    0    0    0  501 -0.00000000000E+00 -0.00000000000E+00 -0.12916372003E+04  0.12916372003E+04  0.25500000000E-02 0.  1.
    8880023    1    1    2    0    0  0.28228431200E+03 -0.77661779976E+03 -0.95054163109E+03  0.14213230591E+04  0.65864270000E+03 0.  0.
    8880022    1    1    2    0    0 -0.28228431200E+03  0.77661779976E+03  0.15645384165E+04  0.17759481269E+04  0.15294330000E+03 0.  0.
<mgrwt>
<rscale>  0 0.99789028E+03</rscale>
<asrwt>0</asrwt>
<pdfrwt beam="1">  1        2 0.29317446E+00 0.10567071E+04</pdfrwt>
<pdfrwt beam="2">  1       -2 0.19871342E+00 0.10567071E+04</pdfrwt>
<totfact> 0.10113766E+00</totfact>
</mgrwt>
</event>
<event>
 4    1  0.3032637E-007  0.9681976E+03  0.7818608E-02  0.9424401E-01
         -2   -1    0    0    0  501 -0.00000000000E+00  0.00000000000E+00  0.66930930205E+03  0.66930930205E+03  0.25500000000E-02 0.  1.
          2   -1    0    0  501    0  0.00000000000E+00 -0.00000000000E+00 -0.23994034035E+04  0.23994034035E+04  0.25500000000E-02 0. -1.
    8880023    1    1    2    0    0 -0.84149443752E+02  0.70463834302E+03  0.21568064869E+03  0.99192977162E+03  0.65864270000E+03 0.  0.
    8880022    1    1    2    0    0  0.84149443752E+02 -0.70463834302E+03 -0.19457747501E+04  0.20767829339E+04  0.15294330000E+03 0.  0.
<mgrwt>
<rscale>  0 0.90094458E+03</rscale>
<asrwt>0</asrwt>
<pdfrwt beam="1">  1        2 0.36913898E+00 0.96819757E+03</pdfrwt>
<pdfrwt beam="2">  1       -2 0.10297066E+00 0.96819757E+03</pdfrwt>
<totfact> 0.30984622E+00</totfact>
</mgrwt>
</event>
<event>
 4    1  0.3032637E-007  0.1445253E+04  0.7818608E-02  0.8949294E-01
          2   -1    0    0  501    0  0.00000000000E+00  0.00000000000E+00  0.13992074277E+04  0.13992074277E+04  0.25500000000E-02 0. -1.
         -2   -1    0    0    0  501 -0.00000000000E+00 -0.00000000000E+00 -0.16460901489E+04  0.16460901489E+04  0.25500000000E-02 0.  1.
    8880023    1    1    2    0    0  0.31735804139E+03 -0.12466876362E+04 -0.78243266249E+03  0.16434589335E+04  0.65864270000E+03 0.  0.
    8880022    1    1    2    0    0 -0.31735804139E+03  0.12466876362E+04  0.53554994123E+03  0.14018386431E+04  0.15294330000E+03 0.  1.
<mgrwt>
<rscale>  0 0.14062672E+04</rscale>
<asrwt>0</asrwt>
<pdfrwt beam="1">  1        2 0.21526268E+00 0.14452531E+04</pdfrwt>
<pdfrwt beam="2">  1       -2 0.25324464E+00 0.14452531E+04</pdfrwt>
<totfact> 0.84152821E-01</totfact>
</mgrwt>
</event>
<event>
 4    1  0.3032637E-007  0.1217637E+04  0.7818608E-02  0.9140166E-01
         -2   -1    0    0    0  501 -0.00000000000E+00  0.00000000000E+00  0.52960279591E+03  0.52960279592E+03  0.25500000000E-02 0.  1.
          2   -1    0    0  501    0  0.00000000000E+00 -0.00000000000E+00 -0.27581118200E+04  0.27581118200E+04  0.25500000000E-02 0. -1.
    8880023    1    1    2    0    0  0.10222614493E+04 -0.61730826319E+02 -0.59890305211E+03  0.13569540294E+04  0.65864270000E+03 0.  0.
    8880022    1    1    2    0    0 -0.10222614493E+04  0.61730826319E+02 -0.16296059720E+04  0.19307605866E+04  0.15294330000E+03 0.  0.
<mgrwt>
<rscale>  0 0.11692944E+04</rscale>
<asrwt>0</asrwt>
<pdfrwt beam="1">  1        2 0.42432489E+00 0.12176368E+04</pdfrwt>
<pdfrwt beam="2">  1       -2 0.81477355E-01 0.12176368E+04</pdfrwt>
<totfact> 0.32101206E+00</totfact>
</mgrwt>
</event>
<event>
 4    1  0.3032637E-007  0.1152854E+04  0.7818608E-02  0.9204373E-01
         -2   -1    0    0    0  501 -0.00000000000E+00  0.00000000000E+00  0.92848901746E+03  0.92848901747E+03  0.25500000000E-02 0.  1.
          2   -1    0    0  501    0  0.00000000000E+00 -0.00000000000E+00 -0.23676248293E+04  0.23676248293E+04  0.25500000000E-02 0. -1.
    8880023    1    1    2    0    0  0.72536014431E+03  0.60754728894E+03  0.40159297354E+03  0.12207981692E+04  0.65864270000E+03 0.  1.
    8880022    1    1    2    0    0 -0.72536014431E+03 -0.60754728894E+03 -0.18407287854E+04  0.20753156776E+04  0.15294330000E+03 0.  0.
<mgrwt>
<rscale>  0 0.11008408E+04</rscale>
<asrwt>0</asrwt>
<pdfrwt beam="1">  1        2 0.36424997E+00 0.11528535E+04</pdfrwt>
<pdfrwt beam="2">  1       -2 0.14284447E+00 0.11528535E+04</pdfrwt>
<totfact> 0.13894709E+00</totfact>
</mgrwt>
</event>
<event>
 4    1  0.3032637E-007  0.1135800E+04  0.7818608E-02  0.9222206E-01
         -2   -1    0    0    0  501 -0.00000000000E+00  0.00000000000E+00  0.24236752192E+04  0.24236752192E+04  0.25500000000E-02 0.  1.
          2   -1    0    0  501    0  0.00000000000E+00 -0.00000000000E+00 -0.14376086422E+04  0.14376086422E+04  0.25500000000E-02 0. -1.
    8880023    1    1    2    0    0 -0.70131447601E+03 -0.60364730753E+03  0.21107033358E+04  0.23968960854E+04  0.65864270000E+03 0.  0.
    8880022    1    1    2    0    0  0.70131447601E+03  0.60364730753E+03 -0.11246367588E+04  0.14643877760E+04  0.15294330000E+03 0.  0.
<mgrwt>
<rscale>  0 0.10827136E+04</rscale>
<asrwt>0</asrwt>
<pdfrwt beam="1">  1        2 0.22117056E+00 0.11358003E+04</pdfrwt>
<pdfrwt beam="2">  1       -2 0.37287311E+00 0.11358003E+04</pdfrwt>
<totfact> 0.15201993E-01</totfact>
</mgrwt>
</event>
<event>
 4    1  0.3032637E-007  0.1213087E+04  0.7818608E-02  0.9144504E-01
         -2   -1    0    0    0  501 -0.00000000000E+00  0.00000000000E+00  0.53929810607E+03  0.53929810608E+03  0.25500000000E-02 0.  1.
          2   -1    0    0  501    0  0.00000000000E+00 -0.00000000000E+00 -0.29586954880E+04  0.29586954881E+04  0.25500000000E-02 0. -1.
    8880023    1    1    2    0    0  0.97496462878E+03  0.29532084573E+03 -0.20898930658E+04  0.24164506330E+04  0.65864270000E+03 0.  0.
    8880022    1    1    2    0    0 -0.97496462878E+03 -0.29532084573E+03 -0.32950431621E+03  0.10815429611E+04  0.15294330000E+03 0.  0.
<mgrwt>
<rscale>  0 0.11645060E+04</rscale>
<asrwt>0</asrwt>
<pdfrwt beam="1">  1        2 0.45518391E+00 0.12130872E+04</pdfrwt>
<pdfrwt beam="2">  1       -2 0.82968941E-01 0.12130872E+04</pdfrwt>
<totfact> 0.23304437E+00</totfact>
</mgrwt>
</event>
<event>
 4    1  0.3032637E-007  0.8218797E+03  0.7818608E-02  0.9665343E-01
          2   -1    0    0  501    0  0.00000000000E+00  0.00000000000E+00  0.53243609024E+03  0.53243609025E+03  0.25500000000E-02 0. -1.
         -2   -1    0    0    0  501 -0.00000000000E+00 -0.00000000000E+00 -0.17837687904E+04  0.17837687904E+04  0.25500000000E-02 0.  1.
    8880023    1    1    2    0    0 -0.46724700778E+03  0.15282777822E+03 -0.15255711437E+04  0.17328743800E+04  0.65864270000E+03 0.  1.
    8880022    1    1    2    0    0  0.46724700778E+03 -0.15282777822E+03  0.27423844353E+03  0.58333050066E+03  0.15294330000E+03 0. -1.
<mgrwt>
<rscale>  0 0.73118255E+03</rscale>
<asrwt>0</asrwt>
<pdfrwt beam="1">  1        2 0.81913245E-01 0.82187974E+03</pdfrwt>
<pdfrwt beam="2">  1       -2 0.27442597E+00 0.82187974E+03</pdfrwt>
<totfact> 0.26700590E+00</totfact>
</mgrwt>
</event>
<event>
 4    1  0.3032637E-007  0.1437738E+04  0.7818608E-02  0.8954901E-01
          2   -1    0    0  501    0  0.00000000000E+00  0.00000000000E+00  0.47035923406E+04  0.47035923406E+04  0.25500000000E-02 0. -1.
         -2   -1    0    0    0  501 -0.00000000000E+00 -0.00000000000E+00 -0.12776286981E+04  0.12776286981E+04  0.25500000000E-02 0.  1.
    8880023    1    1    2    0    0 -0.11697454413E+04  0.51475754937E+03 -0.74279687977E+03  0.16182821580E+04  0.65864270000E+03 0.  0.
    8880022    1    1    2    0    0  0.11697454413E+04 -0.51475754937E+03  0.41687605222E+04  0.43629388807E+04  0.15294330000E+03 0.  0.
<mgrwt>
<rscale>  0 0.13985059E+04</rscale>
<asrwt>0</asrwt>
<pdfrwt beam="1">  1        2 0.72362958E+00 0.14377378E+04</pdfrwt>
<pdfrwt beam="2">  1       -2 0.19655826E+00 0.14377378E+04</pdfrwt>
<totfact> 0.10471624E-02</totfact>
</mgrwt>
</event>
<event>
 4    1  0.3639226E-007  0.1568318E+04  0.7818608E-02  0.8862842E-01
         -2   -1    0    0    0  501 -0.00000000000E+00  0.00000000000E+00  0.18699894849E+04  0.18699894849E+04  0.25500000000E-02 0.  1.
          2   -1    0    0  501    0  0.00000000000E+00 -0.00000000000E+00 -0.25614246023E+04  0.25614246024E+04  0.25500000000E-02 0. -1.
    8880023    1    1    2    0    0  0.83044927383E+03  0.11559263707E+04  0.12596208033E+04  0.20115333816E+04  0.65864270000E+03 0.  0.
    8880022    1    1    2    0    0 -0.83044927383E+03 -0.11559263707E+04 -0.19510559207E+04  0.24198807057E+04  0.15294330000E+03 0.  0.
<mgrwt>
<rscale>  0 0.15329351E+04</rscale>
<asrwt>0</asrwt>
<pdfrwt beam="1">  1        2 0.39406533E+00 0.15683182E+04</pdfrwt>
<pdfrwt beam="2">  1       -2 0.28769069E+00 0.15683182E+04</pdfrwt>
<totfact> 0.11269767E-01</totfact>
</mgrwt>
</event>
<event>
 4    1  0.3032637E-007  0.1174103E+04  0.7818608E-02  0.9182716E-01
          2   -1    0    0  501    0  0.00000000000E+00  0.00000000000E+00  0.14714241844E+04  0.14714241844E+04  0.25500000000E-02 0. -1.
         -2   -1    0    0    0  501 -0.00000000000E+00 -0.00000000000E+00 -0.22951764329E+04  0.22951764329E+04  0.25500000000E-02 0.  1.
    8880023    1    1    2    0    0  0.95456100226E+03  0.18308928276E+03 -0.19468373877E+04  0.22734762837E+04  0.65864270000E+03 0.  1.
    8880022    1    1    2    0    0 -0.95456100226E+03 -0.18308928276E+03  0.11230851391E+04  0.14931243335E+04  0.15294330000E+03 0.  0.
<mgrwt>
<rscale>  0 0.11233621E+04</rscale>
<asrwt>0</asrwt>
<pdfrwt beam="1">  1        2 0.22637295E+00 0.11741033E+04</pdfrwt>
<pdfrwt beam="2">  1       -2 0.35310407E+00 0.11741033E+04</pdfrwt>
<totfact> 0.19287427E-01</totfact>
</mgrwt>
</event>
<event>
 4    1  0.3032637E-007  0.7817674E+03  0.7818608E-02  0.9751701E-01
         -2   -1    0    0    0  501 -0.00000000000E+00  0.00000000000E+00  0.55042017736E+03  0.55042017736E+03  0.25500000000E-02 0.  1.
          2   -1    0    0  501    0  0.00000000000E+00 -0.00000000000E+00 -0.13990123603E+04  0.13990123603E+04  0.25500000000E-02 0. -1.
    8880023    1    1    2    0    0  0.41353044158E+03  0.79641082360E+02  0.20187059576E+03  0.80741072064E+03  0.65864270000E+03 0.  0.
    8880022    1    1    2    0    0 -0.41353044158E+03 -0.79641082360E+02 -0.10504627787E+04  0.11420218170E+04  0.15294330000E+03 0.  0.
<mgrwt>
<rscale>  0 0.68020200E+03</rscale>
<asrwt>0</asrwt>
<pdfrwt beam="1">  1        2 0.21523267E+00 0.78176744E+03</pdfrwt>
<pdfrwt beam="2">  1       -2 0.84680028E-01 0.78176744E+03</pdfrwt>
<totfact> 0.17935002E+01</totfact>
</mgrwt>
</event>
<event>
 4    1  0.3032637E-007  0.6714725E+03  0.7818608E-02  0.1014629E+00
          2   -1    0    0  501    0  0.00000000000E+00  0.00000000000E+00  0.35598161922E+04  0.35598161922E+04  0.25500000000E-02 0. -1.
         -2   -1    0    0    0  501 -0.00000000000E+00 -0.00000000000E+00 -0.21646662463E+03  0.21646662465E+03  0.25500000000E-02 0.  1.
    8880023    1    1    2    0    0  0.12107219480E+03  0.49058023067E+02  0.31574491180E+03  0.74200419242E+03  0.65864270000E+03 0.  1.
    8880022    1    1    2    0    0 -0.12107219480E+03 -0.49058023067E+02  0.30276046557E+04  0.30342786244E+04  0.15294330000E+03 0.  0.
<mgrwt>
<rscale>  0 0.49675833E+03</rscale>
<asrwt>0</asrwt>
<pdfrwt beam="1">  1        2 0.54766399E+00 0.67147254E+03</pdfrwt>
<pdfrwt beam="2">  1       -2 0.33302560E-01 0.67147254E+03</pdfrwt>
<totfact> 0.68504192E+00</totfact>
</mgrwt>
</event>
<event>
 4    1  0.3032637E-007  0.7009647E+03  0.7818608E-02  0.9993222E-01
          2   -1    0    0  501    0  0.00000000000E+00  0.00000000000E+00  0.78454916911E+03  0.78454916912E+03  0.25500000000E-02 0. -1.
         -2   -1    0    0    0  501 -0.00000000000E+00 -0.00000000000E+00 -0.68601096657E+03  0.68601096657E+03  0.25500000000E-02 0.  1.
    8880023    1    1    2    0    0  0.15936835346E+03 -0.17928484706E+03 -0.46369134066E+03  0.84045296962E+03  0.65864270000E+03 0.  1.
    8880022    1    1    2    0    0 -0.15936835346E+03  0.17928484706E+03  0.56222954321E+03  0.63010716608E+03  0.15294330000E+03 0.  0.
<mgrwt>
<rscale>  0 0.55948418E+03</rscale>
<asrwt>0</asrwt>
<pdfrwt beam="1">  1        2 0.12069987E+00 0.70096472E+03</pdfrwt>
<pdfrwt beam="2">  1       -2 0.10554015E+00 0.70096472E+03</pdfrwt>
<totfact> 0.26151449E+01</totfact>
</mgrwt>
</event>
<event>
 4    1  0.3032637E-007  0.9390424E+03  0.7818608E-02  0.9466058E-01
         -2   -1    0    0    0  501 -0.00000000000E+00  0.00000000000E+00  0.80936227844E+03  0.80936227844E+03  0.25500000000E-02 0.  1.
          2   -1    0    0  501    0  0.00000000000E+00 -0.00000000000E+00 -0.87359643502E+03  0.87359643502E+03  0.25500000000E-02 0. -1.
    8880023    1    1    2    0    0  0.25698274773E+03 -0.61802124838E+03  0.17634273319E+03  0.95545662481E+03  0.65864270000E+03 0.  1.
    8880022    1    1    2    0    0 -0.25698274773E+03  0.61802124838E+03 -0.24057688977E+03  0.72750208865E+03  0.15294330000E+03 0.  0.
<mgrwt>
<rscale>  0 0.86833144E+03</rscale>
<asrwt>0</asrwt>
<pdfrwt beam="1">  1        2 0.13439945E+00 0.93904239E+03</pdfrwt>
<pdfrwt beam="2">  1       -2 0.12451727E+00 0.93904239E+03</pdfrwt>
<totfact> 0.14763272E+01</totfact>
</mgrwt>
</event>
<event>
 4    1  0.3032637E-007  0.6721337E+03  0.7818608E-02  0.1014177E+00
          2   -1    0    0  501    0  0.00000000000E+00  0.00000000000E+00  0.67137205953E+03  0.67137205954E+03  0.25500000000E-02 0. -1.
         -2   -1    0    0    0  501 -0.00000000000E+00 -0.00000000000E+00 -0.47299056967E+03  0.47299056968E+03  0.25500000000E-02 0.  1.
    8880023    1    1    2    0    0 -0.13398151454E+03 -0.15492377504E+01 -0.19644527855E+03  0.70025309718E+03  0.65864270000E+03 0.  1.
    8880022    1    1    2    0    0  0.13398151454E+03  0.15492377504E+01  0.39482676841E+03  0.44410953204E+03  0.15294330000E+03 0.  0.
<mgrwt>
<rscale>  0 0.49847656E+03</rscale>
<asrwt>0</asrwt>
<pdfrwt beam="1">  1        2 0.10328801E+00 0.67213366E+03</pdfrwt>
<pdfrwt beam="2">  1       -2 0.72767780E-01 0.67213366E+03</pdfrwt>
<totfact> 0.75038356E+01</totfact>
</mgrwt>
</event>
<event>
 4    1  0.3032637E-007  0.9947781E+03  0.7818608E-02  0.9388422E-01
         -2   -1    0    0    0  501 -0.00000000000E+00  0.00000000000E+00  0.79468509313E+03  0.79468509313E+03  0.25500000000E-02 0.  1.
          2   -1    0    0  501    0  0.00000000000E+00 -0.00000000000E+00 -0.17012678204E+04  0.17012678204E+04  0.25500000000E-02 0. -1.
    8880023    1    1    2    0    0 -0.46703614643E+03 -0.58107704150E+03 -0.13018377715E+04  0.16384032104E+04  0.65864270000E+03 0. -1.
    8880022    1    1    2    0    0  0.46703614643E+03  0.58107704150E+03  0.39525504429E+03  0.85754970309E+03  0.15294330000E+03 0.  0.
<mgrwt>
<rscale>  0 0.93034697E+03</rscale>
<asrwt>0</asrwt>
<pdfrwt beam="1">  1        2 0.26173351E+00 0.99477811E+03</pdfrwt>
<pdfrwt beam="2">  1       -2 0.12225925E+00 0.99477811E+03</pdfrwt>
<totfact> 0.49434739E+00</totfact>
</mgrwt>
</event>
<event>
 4    1  0.3032637E-007  0.8722723E+03  0.7818608E-02  0.9572095E-01
         -2   -1    0    0    0  501 -0.00000000000E+00  0.00000000000E+00  0.20213412647E+04  0.20213412647E+04  0.25500000000E-02 0.  1.
          2   -1    0    0  501    0  0.00000000000E+00 -0.00000000000E+00 -0.53900877711E+03  0.53900877711E+03  0.25500000000E-02 0. -1.
    8880023    1    1    2    0    0 -0.16551447181E+03 -0.54740631227E+03  0.17151656668E+04  0.19242276845E+04  0.65864270000E+03 0.  0.
    8880022    1    1    2    0    0  0.16551447181E+03  0.54740631227E+03 -0.23283317920E+03  0.63612235729E+03  0.15294330000E+03 0.  0.
<mgrwt>
<rscale>  0 0.79170943E+03</rscale>
<asrwt>0</asrwt>
<pdfrwt beam="1">  1        2 0.82924425E-01 0.87227227E+03</pdfrwt>
<pdfrwt beam="2">  1       -2 0.31097559E+00 0.87227227E+03</pdfrwt>
<totfact> 0.15734228E+00</totfact>
</mgrwt>
</event>
<event>
 4    1  0.3032637E-007  0.7596181E+03  0.7818608E-02  0.9806097E-01
         -2   -1    0    0    0  501 -0.00000000000E+00  0.00000000000E+00  0.35407375123E+03  0.35407375124E+03  0.25500000000E-02 0.  1.
          2   -1    0    0  501    0  0.00000000000E+00 -0.00000000000E+00 -0.23493466294E+04  0.23493466294E+04  0.25500000000E-02 0. -1.
    8880023    1    1    2    0    0  0.31780619341E+03  0.20544735573E+03 -0.10174735250E+03  0.76640206325E+03  0.65864270000E+03 0.  1.
    8880022    1    1    2    0    0 -0.31780619341E+03 -0.20544735573E+03 -0.18935255257E+04  0.19370183174E+04  0.15294330000E+03 0.  0.
<mgrwt>
<rscale>  0 0.65036353E+03</rscale>
<asrwt>0</asrwt>
<pdfrwt beam="1">  1        2 0.36143793E+00 0.75961806E+03</pdfrwt>
<pdfrwt beam="2">  1       -2 0.54472886E-01 0.75961806E+03</pdfrwt>
<totfact> 0.14044520E+01</totfact>
</mgrwt>
</event>
<event>
 4    1  0.3032637E-007  0.1085162E+04  0.7818608E-02  0.9277759E-01
         -2   -1    0    0    0  501 -0.00000000000E+00  0.00000000000E+00  0.17699321384E+04  0.17699321384E+04  0.25500000000E-02 0.  1.
          2   -1    0    0  501    0  0.00000000000E+00 -0.00000000000E+00 -0.19785705231E+04  0.19785705231E+04  0.25500000000E-02 0. -1.
    8880023    1    1    2    0    0  0.26153439082E+03 -0.82180618292E+03  0.14865017860E+04  0.18404519570E+04  0.65864270000E+03 0.  1.
    8880022    1    1    2    0    0 -0.26153439082E+03  0.82180618292E+03 -0.16951401707E+04  0.19080507046E+04  0.15294330000E+03 0.  0.
<mgrwt>
<rscale>  0 0.10285642E+04</rscale>
<asrwt>0</asrwt>
<pdfrwt beam="1">  1        2 0.30439547E+00 0.10851617E+04</pdfrwt>
<pdfrwt beam="2">  1       -2 0.27229725E+00 0.10851617E+04</pdfrwt>
<totfact> 0.31956028E-01</totfact>
</mgrwt>
</event>
<event>
 4    1  0.3032637E-007  0.9555110E+03  0.7818608E-02  0.9442229E-01
         -2   -1    0    0    0  501 -0.00000000000E+00  0.00000000000E+00  0.41601578911E+03  0.41601578912E+03  0.25500000000E-02 0.  1.
          2   -1    0    0  501    0  0.00000000000E+00 -0.00000000000E+00 -0.23296127040E+04  0.23296127040E+04  0.25500000000E-02 0. -1.
    8880023    1    1    2    0    0 -0.51506684001E+03 -0.46249030760E+03 -0.33051592328E+03  0.10110598974E+04  0.65864270000E+03 0.  1.
    8880022    1    1    2    0    0  0.51506684001E+03  0.46249030760E+03 -0.15830809917E+04  0.17345685958E+04  0.15294330000E+03 0.  0.
<mgrwt>
<rscale>  0 0.88680418E+03</rscale>
<asrwt>0</asrwt>
<pdfrwt beam="1">  1        2 0.35840195E+00 0.95551104E+03</pdfrwt>
<pdfrwt beam="2">  1       -2 0.64002430E-01 0.95551104E+03</pdfrwt>
<totfact> 0.99799164E+00</totfact>
</mgrwt>
</event>
<event>
 4    1  0.3032637E-007  0.8249321E+03  0.7818608E-02  0.9659274E-01
          2   -1    0    0  501    0  0.00000000000E+00  0.00000000000E+00  0.79282341897E+03  0.79282341897E+03  0.25500000000E-02 0. -1.
         -2   -1    0    0    0  501 -0.00000000000E+00 -0.00000000000E+00 -0.60521154184E+03  0.60521154184E+03  0.25500000000E-02 0.  1.
    8880023    1    1    2    0    0 -0.40429891456E+03 -0.28852249180E+03 -0.50293648884E+02  0.82646385158E+03  0.65864270000E+03 0.  0.
    8880022    1    1    2    0    0  0.40429891456E+03  0.28852249180E+03  0.23790552601E+03  0.57157110924E+03  0.15294330000E+03 0.  0.
<mgrwt>
<rscale>  0 0.73494212E+03</rscale>
<asrwt>0</asrwt>
<pdfrwt beam="1">  1        2 0.12197283E+00 0.82493215E+03</pdfrwt>
<pdfrwt beam="2">  1       -2 0.93109468E-01 0.82493215E+03</pdfrwt>
<totfact> 0.34316291E+01</totfact>
</mgrwt>
</event>
<event>
 4    1  0.3032637E-007  0.8724902E+03  0.7818608E-02  0.9571721E-01
          2   -1    0    0  501    0  0.00000000000E+00  0.00000000000E+00  0.66711480386E+03  0.66711480387E+03  0.25500000000E-02 0. -1.
         -2   -1    0    0    0  501 -0.00000000000E+00 -0.00000000000E+00 -0.14228056191E+04  0.14228056191E+04  0.25500000000E-02 0.  1.
    8880023    1    1    2    0    0 -0.30896927742E+03  0.48162945087E+03 -0.11006271291E+04  0.14044996354E+04  0.65864270000E+03 0.  0.
    8880022    1    1    2    0    0  0.30896927742E+03 -0.48162945087E+03  0.34493631388E+03  0.68542078753E+03  0.15294330000E+03 0.  0.
<mgrwt>
<rscale>  0 0.79196512E+03</rscale>
<asrwt>0</asrwt>
<pdfrwt beam="1">  1        2 0.10263305E+00 0.87249020E+03</pdfrwt>
<pdfrwt beam="2">  1       -2 0.21889317E+00 0.87249020E+03</pdfrwt>
<totfact> 0.44103806E+00</totfact>
</mgrwt>
</event>
<event>
 4    1  0.3032637E-007  0.1344754E+04  0.7818608E-02  0.9027845E-01
         -2   -1    0    0    0  501 -0.00000000000E+00  0.00000000000E+00  0.16901403261E+04  0.16901403261E+04  0.25500000000E-02 0.  1.
          2   -1    0    0  501    0  0.00000000000E+00 -0.00000000000E+00 -0.14421960894E+04  0.14421960894E+04  0.25500000000E-02 0. -1.
    8880023    1    1    2    0    0  0.68772064712E+03  0.94952215950E+03  0.10478678671E+04  0.17048135655E+04  0.65864270000E+03 0.  1.
    8880022    1    1    2    0    0 -0.68772064712E+03 -0.94952215950E+03 -0.79992363036E+03  0.14275228500E+04  0.15294330000E+03 0.  0.
<mgrwt>
<rscale>  0 0.13021717E+04</rscale>
<asrwt>0</asrwt>
<pdfrwt beam="1">  1        2 0.22187632E+00 0.13447536E+04</pdfrwt>
<pdfrwt beam="2">  1       -2 0.26002159E+00 0.13447536E+04</pdfrwt>
<totfact> 0.73011126E-01</totfact>
</mgrwt>
</event>
<event>
 4    1  0.3032637E-007  0.8510791E+03  0.7818608E-02  0.9609633E-01
         -2   -1    0    0    0  501 -0.00000000000E+00  0.00000000000E+00  0.68446036685E+03  0.68446036685E+03  0.25500000000E-02 0.  1.
          2   -1    0    0  501    0  0.00000000000E+00 -0.00000000000E+00 -0.13379999170E+04  0.13379999170E+04  0.25500000000E-02 0. -1.
    8880023    1    1    2    0    0  0.44646057269E+03  0.30199066877E+03  0.31172609260E+03  0.90637120986E+03  0.65864270000E+03 0.  1.
    8880022    1    1    2    0    0 -0.44646057269E+03 -0.30199066877E+03 -0.96526564277E+03  0.11160890740E+04  0.15294330000E+03 0.  0.
<mgrwt>
<rscale>  0 0.76661852E+03</rscale>
<asrwt>0</asrwt>
<pdfrwt beam="1">  1        2 0.20584614E+00 0.85107909E+03</pdfrwt>
<pdfrwt beam="2">  1       -2 0.10530160E+00 0.85107909E+03</pdfrwt>
<totfact> 0.11578506E+01</totfact>
</mgrwt>
</event>
<event>
 4    1  0.3032637E-007  0.1022222E+04  0.7818608E-02  0.9353045E-01
         -2   -1    0    0    0  501 -0.00000000000E+00  0.00000000000E+00  0.19811681870E+04  0.19811681870E+04  0.25500000000E-02 0.  1.
          2   -1    0    0  501    0  0.00000000000E+00 -0.00000000000E+00 -0.11004627457E+04  0.11004627457E+04  0.25500000000E-02 0. -1.
    8880023    1    1    2    0    0 -0.26436342926E+03  0.73568929720E+03  0.16714303404E+04  0.19592387179E+04  0.65864270000E+03 0.  0.
    8880022    1    1    2    0    0  0.26436342926E+03 -0.73568929720E+03 -0.79072489907E+03  0.11223922148E+04  0.15294330000E+03 0.  0.
<mgrwt>
<rscale>  0 0.96042690E+03</rscale>
<asrwt>0</asrwt>
<pdfrwt beam="1">  1        2 0.16930196E+00 0.10222216E+04</pdfrwt>
<pdfrwt beam="2">  1       -2 0.30479510E+00 0.10222216E+04</pdfrwt>
<totfact> 0.64750878E-01</totfact>
</mgrwt>
</event>
<event>
 4    1  0.3032637E-007  0.1061218E+04  0.7818608E-02  0.9305516E-01
         -2   -1    0    0    0  501 -0.00000000000E+00  0.00000000000E+00  0.10217536713E+04  0.10217536713E+04  0.25500000000E-02 0.  1.
          2   -1    0    0  501    0  0.00000000000E+00 -0.00000000000E+00 -0.18366582722E+04  0.18366582722E+04  0.25500000000E-02 0. -1.
    8880023    1    1    2    0    0 -0.67775723593E+03 -0.48271976144E+03  0.59315148034E+03  0.12157352195E+04  0.65864270000E+03 0.  0.
    8880022    1    1    2    0    0  0.67775723593E+03  0.48271976144E+03 -0.14080560812E+04  0.16426767240E+04  0.15294330000E+03 0.  0.
<mgrwt>
<rscale>  0 0.10027663E+04</rscale>
<asrwt>0</asrwt>
<pdfrwt beam="1">  1        2 0.28256281E+00 0.10612179E+04</pdfrwt>
<pdfrwt beam="2">  1       -2 0.15719287E+00 0.10612179E+04</pdfrwt>
<totfact> 0.21496724E+00</totfact>
</mgrwt>
</event>
<event>
 4    1  0.3032637E-007  0.9364393E+03  0.7818608E-02  0.9469899E-01
          2   -1    0    0  501    0  0.00000000000E+00  0.00000000000E+00  0.26861684574E+04  0.26861684574E+04  0.25500000000E-02 0. -1.
         -2   -1    0    0    0  501 -0.00000000000E+00 -0.00000000000E+00 -0.63900218671E+03  0.63900218672E+03  0.25500000000E-02 0.  1.
    8880023    1    1    2    0    0  0.14666674693E+02  0.66550222981E+03 -0.21613410551E+03  0.96105800400E+03  0.65864270000E+03 0.  1.
    8880022    1    1    2    0    0 -0.14666674693E+02 -0.66550222981E+03  0.22633003762E+04  0.23641126401E+04  0.15294330000E+03 0.  0.
<mgrwt>
<rscale>  0 0.86539857E+03</rscale>
<asrwt>0</asrwt>
<pdfrwt beam="1">  1        2 0.41325669E+00 0.93643929E+03</pdfrwt>
<pdfrwt beam="2">  1       -2 0.98308028E-01 0.93643929E+03</pdfrwt>
<totfact> 0.23794355E+00</totfact>
</mgrwt>
</event>
<event>
 4    1  0.3032637E-007  0.6991467E+03  0.7818608E-02  0.1000076E+00
          2   -1    0    0  501    0  0.00000000000E+00  0.00000000000E+00  0.14371548949E+04  0.14371548949E+04  0.25500000000E-02 0. -1.
         -2   -1    0    0    0  501 -0.00000000000E+00 -0.00000000000E+00 -0.87286004752E+03  0.87286004753E+03  0.25500000000E-02 0.  1.
    8880023    1    1    2    0    0  0.22484663303E+03  0.66632875858E+02 -0.71525166798E+03  0.10001955326E+04  0.65864270000E+03 0.  1.
    8880022    1    1    2    0    0 -0.22484663303E+03 -0.66632875858E+02  0.12795465153E+04  0.13098194098E+04  0.15294330000E+03 0.  0.
<mgrwt>
<rscale>  0 0.55616950E+03</rscale>
<asrwt>0</asrwt>
<pdfrwt beam="1">  1        2 0.22110075E+00 0.69914673E+03</pdfrwt>
<pdfrwt beam="2">  1       -2 0.13428616E+00 0.69914673E+03</pdfrwt>
<totfact> 0.56889731E+00</totfact>
</mgrwt>
</event>
<event>
 4    1  0.3032637E-007  0.1226962E+04  0.7818608E-02  0.9131349E-01
          2   -1    0    0  501    0  0.00000000000E+00  0.00000000000E+00  0.23631019236E+04  0.23631019236E+04  0.25500000000E-02 0. -1.
         -2   -1    0    0    0  501 -0.00000000000E+00 -0.00000000000E+00 -0.15967492693E+04  0.15967492693E+04  0.25500000000E-02 0.  1.
    8880023    1    1    2    0    0  0.90289532428E+03 -0.50636424123E+03 -0.12102073525E+04  0.17233794572E+04  0.65864270000E+03 0.  0.
    8880022    1    1    2    0    0 -0.90289532428E+03  0.50636424123E+03  0.19765600067E+04  0.22364717357E+04  0.15294330000E+03 0.  0.
<mgrwt>
<rscale>  0 0.11791005E+04</rscale>
<asrwt>0</asrwt>
<pdfrwt beam="1">  1        2 0.36355414E+00 0.12269617E+04</pdfrwt>
<pdfrwt beam="2">  1       -2 0.24565373E+00 0.12269617E+04</pdfrwt>
<totfact> 0.27719975E-01</totfact>
</mgrwt>
</event>
<event>
 4    1  0.3032637E-007  0.6800596E+03  0.7818608E-02  0.1009290E+00
         -2   -1    0    0    0  501 -0.00000000000E+00  0.00000000000E+00  0.47857028669E+03  0.47857028670E+03  0.25500000000E-02 0.  1.
          2   -1    0    0  501    0  0.00000000000E+00 -0.00000000000E+00 -0.11532433587E+04  0.11532433587E+04  0.25500000000E-02 0. -1.
    8880023    1    1    2    0    0  0.16083085183E+03 -0.52955397624E+02  0.21508727627E+03  0.71326263025E+03  0.65864270000E+03 0.  1.
    8880022    1    1    2    0    0 -0.16083085183E+03  0.52955397624E+02 -0.88976034830E+03  0.91855101517E+03  0.15294330000E+03 0.  0.
<mgrwt>
<rscale>  0 0.51757804E+03</rscale>
<asrwt>0</asrwt>
<pdfrwt beam="1">  1        2 0.17742205E+00 0.68005959E+03</pdfrwt>
<pdfrwt beam="2">  1       -2 0.73626198E-01 0.68005959E+03</pdfrwt>
<totfact> 0.34473922E+01</totfact>
</mgrwt>
</event>
<event>
 4    1  0.3032637E-007  0.8900420E+03  0.7818608E-02  0.9542210E-01
          2   -1    0    0  501    0  0.00000000000E+00  0.00000000000E+00  0.16393832306E+04  0.16393832306E+04  0.25500000000E-02 0. -1.
         -2   -1    0    0    0  501 -0.00000000000E+00 -0.00000000000E+00 -0.55500973623E+03  0.55500973624E+03  0.25500000000E-02 0.  1.
    8880023    1    1    2    0    0  0.81932351657E+00  0.59863500538E+03 -0.61911540707E+02  0.89219268440E+03  0.65864270000E+03 0.  0.
    8880022    1    1    2    0    0 -0.81932351657E+00 -0.59863500538E+03  0.11462850351E+04  0.13022002825E+04  0.15294330000E+03 0. -1.
<mgrwt>
<rscale>  0 0.81242099E+03</rscale>
<asrwt>0</asrwt>
<pdfrwt beam="1">  1        2 0.25221280E+00 0.89004199E+03</pdfrwt>
<pdfrwt beam="2">  1       -2 0.85386114E-01 0.89004199E+03</pdfrwt>
<totfact> 0.12761156E+01</totfact>
</mgrwt>
</event>
<event>
 4    1  0.3032637E-007  0.1207547E+04  0.7818608E-02  0.9149820E-01
         -2   -1    0    0    0  501 -0.00000000000E+00  0.00000000000E+00  0.90983390809E+03  0.90983390810E+03  0.25500000000E-02 0.  1.
          2   -1    0    0  501    0  0.00000000000E+00 -0.00000000000E+00 -0.13875933527E+04  0.13875933527E+04  0.25500000000E-02 0. -1.
    8880023    1    1    2    0    0  0.70741926365E+03 -0.72382223108E+03 -0.12167794678E+03  0.12136623772E+04  0.65864270000E+03 0.  0.
    8880022    1    1    2    0    0 -0.70741926365E+03  0.72382223108E+03 -0.35608149778E+03  0.10837648836E+04  0.15294330000E+03 0.  0.
<mgrwt>
<rscale>  0 0.11586719E+04</rscale>
<asrwt>0</asrwt>
<pdfrwt beam="1">  1        2 0.21347590E+00 0.12075474E+04</pdfrwt>
<pdfrwt beam="2">  1       -2 0.13997445E+00 0.12075474E+04</pdfrwt>
<totfact> 0.51399623E+00</totfact>
</mgrwt>
</event>
<event>
 4    1  0.3032637E-007  0.1448641E+04  0.7818608E-02  0.8946780E-01
         -2   -1    0    0    0  501 -0.00000000000E+00  0.00000000000E+00  0.35183188732E+04  0.35183188732E+04  0.25500000000E-02 0.  1.
          2   -1    0    0  501    0  0.00000000000E+00 -0.00000000000E+00 -0.81338537819E+03  0.81338537819E+03  0.25500000000E-02 0. -1.
    8880023    1    1    2    0    0 -0.10699906593E+04  0.72102111551E+03  0.26632591257E+04  0.30317504576E+04  0.65864270000E+03 0.  0.
    8880022    1    1    2    0    0  0.10699906593E+04 -0.72102111551E+03  0.41674369267E+02  0.12999537938E+04  0.15294330000E+03 0.  0.
<mgrwt>
<rscale>  0 0.14097653E+04</rscale>
<asrwt>0</asrwt>
<pdfrwt beam="1">  1        2 0.12513621E+00 0.14486413E+04</pdfrwt>
<pdfrwt beam="2">  1       -2 0.54127984E+00 0.14486413E+04</pdfrwt>
<totfact> 0.30024850E-02</totfact>
</mgrwt>
</event>
<event>
 4    1  0.3032637E-007  0.8274868E+03  0.7818608E-02  0.9654242E-01
          2   -1    0    0  501    0  0.00000000000E+00  0.00000000000E+00  0.21818610075E+04  0.21818610075E+04  0.25500000000E-02 0. -1.
         -2   -1    0    0    0  501 -0.00000000000E+00 -0.00000000000E+00 -0.29818329371E+03  0.29818329372E+03  0.25500000000E-02 0.  1.
    8880023    1    1    2    0    0 -0.30611669463E+03 -0.39650574469E+03  0.42512313409E+03  0.93030324180E+03  0.65864270000E+03 0.  0.
    8880022    1    1    2    0    0  0.30611669463E+03  0.39650574469E+03  0.14585545797E+04  0.15497410595E+04  0.15294330000E+03 0.  0.
<mgrwt>
<rscale>  0 0.73807787E+03</rscale>
<asrwt>0</asrwt>
<pdfrwt beam="1">  1        2 0.33567094E+00 0.82748682E+03</pdfrwt>
<pdfrwt beam="2">  1       -2 0.45874350E-01 0.82748682E+03</pdfrwt>
<totfact> 0.24455177E+01</totfact>
</mgrwt>
</event>
<event>
 4    1  0.3032637E-007  0.7034806E+03  0.7818608E-02  0.9983058E-01
         -2   -1    0    0    0  501 -0.00000000000E+00  0.00000000000E+00  0.10095880251E+03  0.10095880254E+03  0.25500000000E-02 0.  1.
          2   -1    0    0  501    0  0.00000000000E+00 -0.00000000000E+00 -0.35912230041E+04  0.35912230041E+04  0.25500000000E-02 0. -1.
    8880023    1    1    2    0    0 -0.21854566581E+02  0.24616474445E+03 -0.12601757507E+04  0.14432351965E+04  0.65864270000E+03 0.  0.
    8880022    1    1    2    0    0  0.21854566581E+02 -0.24616474445E+03 -0.22300884509E+04  0.22489466101E+04  0.15294330000E+03 0.  0.
<mgrwt>
<rscale>  0 0.56399409E+03</rscale>
<asrwt>0</asrwt>
<pdfrwt beam="1">  1        2 0.55249575E+00 0.70348057E+03</pdfrwt>
<pdfrwt beam="2">  1       -2 0.15532126E-01 0.70348057E+03</pdfrwt>
<totfact> 0.25195478E+01</totfact>
</mgrwt>
</event>
<event>
 4    1  0.3032637E-007  0.1513927E+04  0.7818608E-02  0.8899864E-01
         -2   -1    0    0    0  501 -0.00000000000E+00  0.00000000000E+00  0.10059438226E+04  0.10059438226E+04  0.25500000000E-02 0.  1.
          2   -1    0    0  501    0  0.00000000000E+00 -0.00000000000E+00 -0.25697256616E+04  0.25697256616E+04  0.25500000000E-02 0. -1.
    8880023    1    1    2    0    0  0.11355193085E+04 -0.75416271545E+03 -0.16010258296E+04  0.22034653196E+04  0.65864270000E+03 0.  0.
    8880022    1    1    2    0    0 -0.11355193085E+04  0.75416271545E+03  0.37243990556E+02  0.13722041646E+04  0.15294330000E+03 0.  0.
<mgrwt>
<rscale>  0 0.14770440E+04</rscale>
<asrwt>0</asrwt>
<pdfrwt beam="1">  1        2 0.39534241E+00 0.15139272E+04</pdfrwt>
<pdfrwt beam="2">  1       -2 0.15476059E+00 0.15139272E+04</pdfrwt>
<totfact> 0.82418464E-01</totfact>
</mgrwt>
</event>
<event>
 4    1  0.3032637E-007  0.1168064E+04  0.7818608E-02  0.9188810E-01
          2   -1    0    0  501    0  0.00000000000E+00  0.00000000000E+00  0.17281692625E+04  0.17281692625E+04  0.25500000000E-02 0. -1.
         -2   -1    0    0    0  501 -0.00000000000E+00 -0.00000000000E+00 -0.77459621724E+03  0.77459621724E+03  0.25500000000E-02 0.  1.
    8880023    1    1    2    0    0 -0.95218130432E+03  0.15463806060E+03  0.45199380038E+02  0.11689377042E+04  0.65864270000E+03 0.  1.
    8880022    1    1    2    0    0  0.95218130432E+03 -0.15463806060E+03  0.90837366519E+03  0.13338277755E+04  0.15294330000E+03 0.  0.
<mgrwt>
<rscale>  0 0.11169681E+04</rscale>
<asrwt>0</asrwt>
<pdfrwt beam="1">  1        2 0.26587219E+00 0.11680635E+04</pdfrwt>
<pdfrwt beam="2">  1       -2 0.11916865E+00 0.11680635E+04</pdfrwt>
<totfact> 0.49996160E+00</totfact>
</mgrwt>
</event>
<event>
 4    1  0.3032637E-007  0.8347704E+03  0.7818608E-02  0.9640121E-01
         -2   -1    0    0    0  501 -0.00000000000E+00  0.00000000000E+00  0.40017599387E+03  0.40017599387E+03  0.25500000000E-02 0.  1.
          2   -1    0    0  501    0  0.00000000000E+00 -0.00000000000E+00 -0.19168090911E+04  0.19168090911E+04  0.25500000000E-02 0. -1.
    8880023    1    1    2    0    0  0.50918281260E+03  0.61354131489E+02 -0.14846856197E+03  0.84787061882E+03  0.65864270000E+03 0.  1.
    8880022    1    1    2    0    0 -0.50918281260E+03 -0.61354131489E+02 -0.13681645353E+04  0.14691144662E+04  0.15294330000E+03 0.  0.
<mgrwt>
<rscale>  0 0.74696680E+03</rscale>
<asrwt>0</asrwt>
<pdfrwt beam="1">  1        2 0.29489370E+00 0.83477043E+03</pdfrwt>
<pdfrwt beam="2">  1       -2 0.61565539E-01 0.83477043E+03</pdfrwt>
<totfact> 0.18608737E+01</totfact>
</mgrwt>
</event>
<event>
 4    1  0.3032637E-007  0.1230653E+04  0.7818608E-02  0.9127887E-01
         -2   -1    0    0    0  501 -0.00000000000E+00  0.00000000000E+00  0.59044300729E+03  0.59044300729E+03  0.25500000000E-02 0.  1.
          2   -1    0    0  501    0  0.00000000000E+00 -0.00000000000E+00 -0.27699850601E+04  0.27699850601E+04  0.25500000000E-02 0. -1.
    8880023    1    1    2    0    0 -0.84306808905E+03 -0.60822067678E+03 -0.40037059928E+03  0.12941418073E+04  0.65864270000E+03 0.  0.
    8880022    1    1    2    0    0  0.84306808905E+03  0.60822067678E+03 -0.17791714535E+04  0.20662862600E+04  0.15294330000E+03 0.  0.
<mgrwt>
<rscale>  0 0.11829792E+04</rscale>
<asrwt>0</asrwt>
<pdfrwt beam="1">  1        2 0.42615154E+00 0.12306528E+04</pdfrwt>
<pdfrwt beam="2">  1       -2 0.90837387E-01 0.12306528E+04</pdfrwt>
<totfact> 0.24555806E+00</totfact>
</mgrwt>
</event>
<event>
 4    1  0.3032637E-007  0.6983412E+03  0.7818608E-02  0.1000415E+00
          2   -1    0    0  501    0  0.00000000000E+00  0.00000000000E+00  0.26930509426E+03  0.26930509427E+03  0.25500000000E-02 0. -1.
         -2   -1    0    0    0  501 -0.00000000000E+00 -0.00000000000E+00 -0.10864565964E+04  0.10864565964E+04  0.25500000000E-02 0.  1.
    8880023    1    1    2    0    0  0.14505405370E+03  0.18118940632E+03 -0.82092635853E+03  0.10777757521E+04  0.65864270000E+03 0.  0.
    8880022    1    1    2    0    0 -0.14505405370E+03 -0.18118940632E+03  0.37748564312E+01  0.27798593852E+03  0.15294330000E+03 0.  0.
<mgrwt>
<rscale>  0 0.55468505E+03</rscale>
<asrwt>0</asrwt>
<pdfrwt beam="1">  1        2 0.41431554E-01 0.69834124E+03</pdfrwt>
<pdfrwt beam="2">  1       -2 0.16714717E+00 0.69834124E+03</pdfrwt>
<totfact> 0.28129119E+01</totfact>
</mgrwt>
</event>
<event>
 4    1  0.3032637E-007  0.9775823E+03  0.7818608E-02  0.9411493E-01
         -2   -1    0    0    0  501 -0.00000000000E+00  0.00000000000E+00  0.13954269336E+04  0.13954269336E+04  0.25500000000E-02 0.  1.
          2   -1    0    0  501    0  0.00000000000E+00 -0.00000000000E+00 -0.12382986180E+04  0.12382986180E+04  0.25500000000E-02 0. -1.
    8880023    1    1    2    0    0 -0.60361714576E+03  0.39686679070E+03  0.10767600174E+04  0.14543312035E+04  0.65864270000E+03 0.  1.
    8880022    1    1    2    0    0  0.60361714576E+03 -0.39686679070E+03 -0.91963170183E+03  0.11793943481E+04  0.15294330000E+03 0.  0.
<mgrwt>
<rscale>  0 0.91135862E+03</rscale>
<asrwt>0</asrwt>
<pdfrwt beam="1">  1        2 0.19050748E+00 0.97758228E+03</pdfrwt>
<pdfrwt beam="2">  1       -2 0.21468107E+00 0.97758228E+03</pdfrwt>
<totfact> 0.19130763E+00</totfact>
</mgrwt>
</event>
<event>
 4    1  0.4095846E-007  0.1073634E+04  0.7818608E-02  0.9290995E-01
         -2   -1    0    0    0  501 -0.00000000000E+00  0.00000000000E+00  0.15170522447E+04  0.15170522447E+04  0.25500000000E-02 0.  1.
          2   -1    0    0  501    0  0.00000000000E+00 -0.00000000000E+00 -0.16012280411E+04  0.16012280411E+04  0.25500000000E-02 0. -1.
    8880023    1    1    2    0    0  0.36883112381E+03 -0.76344177768E+03  0.11755946670E+04  0.15920781303E+04  0.65864270000E+03 0.  0.
    8880022    1    1    2    0    0 -0.36883112381E+03  0.76344177768E+03 -0.12597704634E+04  0.15262021555E+04  0.15294330000E+03 0.  0.
<mgrwt>
<rscale>  0 0.10161610E+04</rscale>
<asrwt>0</asrwt>
<pdfrwt beam="1">  1        2 0.24634278E+00 0.10736340E+04</pdfrwt>
<pdfrwt beam="2">  1       -2 0.23339265E+00 0.10736340E+04</pdfrwt>
<totfact> 0.89454995E-01</totfact>
</mgrwt>
</event>
<event>
 4    1  0.3032637E-007  0.1105276E+04  0.7818608E-02  0.9255205E-01
         -2   -1    0    0    0  501 -0.00000000000E+00  0.00000000000E+00  0.88821203039E+03  0.88821203040E+03  0.25500000000E-02 0.  1.
          2   -1    0    0  501    0  0.00000000000E+00 -0.00000000000E+00 -0.17074804180E+04  0.17074804180E+04  0.25500000000E-02 0. -1.
    8880023    1    1    2    0    0  0.87177845185E+03  0.16681368959E+03  0.31313868035E+03  0.11487778356E+04  0.65864270000E+03 0.  1.
    8880022    1    1    2    0    0 -0.87177845185E+03 -0.16681368959E+03 -0.11324070679E+04  0.14469146128E+04  0.15294330000E+03 0.  0.
<mgrwt>
<rscale>  0 0.10501349E+04</rscale>
<asrwt>0</asrwt>
<pdfrwt beam="1">  1        2 0.26268929E+00 0.11052758E+04</pdfrwt>
<pdfrwt beam="2">  1       -2 0.13664801E+00 0.11052758E+04</pdfrwt>
<totfact> 0.36513803E+00</totfact>
</mgrwt>
</event>
<event>
 4    1  0.3032637E-007  0.8817490E+03  0.7818608E-02  0.9555989E-01
          2   -1    0    0  501    0  0.00000000000E+00  0.00000000000E+00  0.14696434647E+04  0.14696434647E+04  0.25500000000E-02 0. -1.
         -2   -1    0    0    0  501 -0.00000000000E+00 -0.00000000000E+00 -0.12283727295E+04  0.12283727295E+04  0.25500000000E-02 0.  1.
    8880023    1    1    2    0    0 -0.38637428876E+03 -0.44089227093E+03 -0.99001263980E+03  0.13257474566E+04  0.65864270000E+03 0.  1.
    8880022    1    1    2    0    0  0.38637428876E+03  0.44089227093E+03  0.12312833750E+04  0.13722687375E+04  0.15294330000E+03 0.  0.
<mgrwt>
<rscale>  0 0.80278873E+03</rscale>
<asrwt>0</asrwt>
<pdfrwt beam="1">  1        2 0.22609899E+00 0.88174900E+03</pdfrwt>
<pdfrwt beam="2">  1       -2 0.18898042E+00 0.88174900E+03</pdfrwt>
<totfact> 0.20981034E+00</totfact>
</mgrwt>
</event>
<event>
 4    1  0.3032637E-007  0.1251795E+04  0.7818608E-02  0.9108347E-01
         -2   -1    0    0    0  501 -0.00000000000E+00  0.00000000000E+00  0.97004286398E+03  0.97004286398E+03  0.25500000000E-02 0.  1.
          2   -1    0    0  501    0  0.00000000000E+00 -0.00000000000E+00 -0.45305433751E+04  0.45305433751E+04  0.25500000000E-02 0. -1.
    8880023    1    1    2    0    0  0.46681239124E+02 -0.10634859052E+04  0.46388449666E+03  0.13349833112E+04  0.65864270000E+03 0.  0.
    8880022    1    1    2    0    0 -0.46681239124E+02  0.10634859052E+04 -0.40243850077E+04  0.41656029278E+04  0.15294330000E+03 0.  0.
<mgrwt>
<rscale>  0 0.12051653E+04</rscale>
<asrwt>0</asrwt>
<pdfrwt beam="1">  1        2 0.69700666E+00 0.12517954E+04</pdfrwt>
<pdfrwt beam="2">  1       -2 0.14923737E+00 0.12517954E+04</pdfrwt>
<totfact> 0.35387926E-02</totfact>
</mgrwt>
</event>
<event>
 4    1  0.3032637E-007  0.7508513E+03  0.7818608E-02  0.9829396E-01
          2   -1    0    0  501    0  0.00000000000E+00  0.00000000000E+00  0.56555920903E+03  0.56555920904E+03  0.25500000000E-02 0. -1.
         -2   -1    0    0    0  501 -0.00000000000E+00 -0.00000000000E+00 -0.12589151006E+04  0.12589151006E+04  0.25500000000E-02 0.  1.
    8880023    1    1    2    0    0  0.35918951313E+03  0.30827100837E+02 -0.10526584287E+04  0.12930071115E+04  0.65864270000E+03 0.  0.
    8880022    1    1    2    0    0 -0.35918951313E+03 -0.30827100837E+02  0.35930253717E+03  0.53146719816E+03  0.15294330000E+03 0.  0.
<mgrwt>
<rscale>  0 0.63808586E+03</rscale>
<asrwt>0</asrwt>
<pdfrwt beam="1">  1        2 0.87009109E-01 0.75085127E+03</pdfrwt>
<pdfrwt beam="2">  1       -2 0.19367925E+00 0.75085127E+03</pdfrwt>
<totfact> 0.79458488E+00</totfact>
</mgrwt>
</event>
<event>
 4    1  0.3032637E-007  0.1369899E+04  0.7818608E-02  0.9007432E-01
          2   -1    0    0  501    0  0.00000000000E+00  0.00000000000E+00  0.25114945863E+04  0.25114945863E+04  0.25500000000E-02 0. -1.
         -2   -1    0    0    0  501 -0.00000000000E+00 -0.00000000000E+00 -0.89748629478E+03  0.89748629478E+03  0.25500000000E-02 0.  1.
    8880023    1    1    2    0    0  0.98424422828E+02 -0.11971320266E+04 -0.26303276821E+02  0.13701512780E+04  0.65864270000E+03 0.  0.
    8880022    1    1    2    0    0 -0.98424422828E+02  0.11971320266E+04  0.16403115684E+04  0.20388296031E+04  0.15294330000E+03 0.  0.
<mgrwt>
<rscale>  0 0.13282831E+04</rscale>
<asrwt>0</asrwt>
<pdfrwt beam="1">  1        2 0.38638378E+00 0.13698988E+04</pdfrwt>
<pdfrwt beam="2">  1       -2 0.13807482E+00 0.13698988E+04</pdfrwt>
<totfact> 0.12247824E+00</totfact>
</mgrwt>
</event>
<event>
 4    1  0.3032637E-007  0.1057355E+04  0.7818608E-02  0.9310091E-01
          2   -1    0    0  501    0  0.00000000000E+00  0.00000000000E+00  0.20517358176E+04  0.20517358176E+04  0.25500000000E-02 0. -1.
         -2   -1    0    0    0  501 -0.00000000000E+00 -0.00000000000E+00 -0.53455784913E+03  0.53455784914E+03  0.25500000000E-02 0.  1.
    8880023    1    1    2    0    0  0.82710580061E+03 -0.92759225867E+01  0.13728305520E+04  0.17328196614E+04  0.65864270000E+03 0.  0.
    8880022    1    1    2    0    0 -0.82710580061E+03  0.92759225867E+01  0.14434741646E+03  0.85347400534E+03  0.15294330000E+03 0.  0.
<mgrwt>
<rscale>  0 0.99859132E+03</rscale>
<asrwt>0</asrwt>
<pdfrwt beam="1">  1        2 0.31565167E+00 0.10573553E+04</pdfrwt>
<pdfrwt beam="2">  1       -2 0.82239668E-01 0.10573553E+04</pdfrwt>
<totfact> 0.80890032E+00</totfact>
</mgrwt>
</event>
<event>
 4    1  0.3032637E-007  0.1398401E+04  0.7818608E-02  0.8984927E-01
         -2   -1    0    0    0  501 -0.00000000000E+00  0.00000000000E+00  0.76849523343E+03  0.76849523343E+03  0.25500000000E-02 0.  1.
          2   -1    0    0  501    0  0.00000000000E+00 -0.00000000000E+00 -0.27966622901E+04  0.27966622901E+04  0.25500000000E-02 0. -1.
    8880023    1    1    2    0    0  0.11393586376E+04  0.47283816168E+03 -0.28982633391E+03  0.14281188824E+04  0.65864270000E+03 0.  0.
    8880022    1    1    2    0    0 -0.11393586376E+04 -0.47283816168E+03 -0.17383407227E+04  0.21370386411E+04  0.15294330000E+03 0.  0.
<mgrwt>
<rscale>  0 0.13578240E+04</rscale>
<asrwt>0</asrwt>
<pdfrwt beam="1">  1        2 0.43025573E+00 0.13984006E+04</pdfrwt>
<pdfrwt beam="2">  1       -2 0.11823004E+00 0.13984006E+04</pdfrwt>
<totfact> 0.12311525E+00</totfact>
</mgrwt>
</event>
<event>
 4    1  0.3032637E-007  0.1283307E+04  0.7818608E-02  0.9080111E-01
         -2   -1    0    0    0  501 -0.00000000000E+00  0.00000000000E+00  0.15773237227E+04  0.15773237227E+04  0.25500000000E-02 0.  1.
          2   -1    0    0  501    0  0.00000000000E+00 -0.00000000000E+00 -0.15774790176E+04  0.15774790176E+04  0.25500000000E-02 0. -1.
    8880023    1    1    2    0    0 -0.92360315460E+03  0.60001942537E+03  0.10249845706E+04  0.16423975384E+04  0.65864270000E+03 0.  0.
    8880022    1    1    2    0    0  0.92360315460E+03 -0.60001942537E+03 -0.10251398654E+04  0.15124052019E+04  0.15294330000E+03 0.  0.
<mgrwt>
<rscale>  0 0.12381415E+04</rscale>
<asrwt>0</asrwt>
<pdfrwt beam="1">  1        2 0.24268908E+00 0.12833068E+04</pdfrwt>
<pdfrwt beam="2">  1       -2 0.24266519E+00 0.12833068E+04</pdfrwt>
<totfact> 0.78733068E-01</totfact>
</mgrwt>
</event>
<event>
 4    1  0.3032637E-007  0.7560018E+03  0.7818608E-02  0.9815570E-01
         -2   -1    0    0    0  501 -0.00000000000E+00  0.00000000000E+00  0.52900679085E+03  0.52900679085E+03  0.25500000000E-02 0.  1.
          2   -1    0    0  501    0  0.00000000000E+00 -0.00000000000E+00 -0.16196617125E+04  0.16196617125E+04  0.25500000000E-02 0. -1.
    8880023    1    1    2    0    0  0.35243535228E+03 -0.11626629521E+03  0.21233331883E+03  0.78525420947E+03  0.65864270000E+03 0.  1.
    8880022    1    1    2    0    0 -0.35243535228E+03  0.11626629521E+03 -0.13029882405E+04  0.13634142939E+04  0.15294330000E+03 0.  0.
<mgrwt>
<rscale>  0 0.64533596E+03</rscale>
<asrwt>0</asrwt>
<pdfrwt beam="1">  1        2 0.24917872E+00 0.75600181E+03</pdfrwt>
<pdfrwt beam="2">  1       -2 0.81385661E-01 0.75600181E+03</pdfrwt>
<totfact> 0.14831270E+01</totfact>
</mgrwt>
</event>
<event>
 4    1  0.3032637E-007  0.6910757E+03  0.7818608E-02  0.1003645E+00
          2   -1    0    0  501    0  0.00000000000E+00  0.00000000000E+00  0.17358624126E+04  0.17358624126E+04  0.25500000000E-02 0. -1.
         -2   -1    0    0    0  501 -0.00000000000E+00 -0.00000000000E+00 -0.14541227335E+03  0.14541227338E+03  0.25500000000E-02 0.  1.
    8880023    1    1    2    0    0  0.18680418546E+03 -0.94231335470E+02  0.84237677442E+03  0.10895798202E+04  0.65864270000E+03 0.  1.
    8880022    1    1    2    0    0 -0.18680418546E+03  0.94231335470E+02  0.74807336482E+03  0.79169486575E+03  0.15294330000E+03 0.  1.
<mgrwt>
<rscale>  0 0.54080250E+03</rscale>
<asrwt>0</asrwt>
<pdfrwt beam="1">  1        2 0.26705575E+00 0.69107565E+03</pdfrwt>
<pdfrwt beam="2">  1       -2 0.22371120E-01 0.69107565E+03</pdfrwt>
<totfact> 0.16796841E+02</totfact>
</mgrwt>
</event>
<event>
 4    1  0.3032637E-007  0.6703881E+03  0.7818608E-02  0.1015386E+00
          2   -1    0    0  501    0  0.00000000000E+00  0.00000000000E+00  0.21113712703E+04  0.21113712703E+04  0.25500000000E-02 0. -1.
         -2   -1    0    0    0  501 -0.00000000000E+00 -0.00000000000E+00 -0.68191178375E+03  0.68191178376E+03  0.25500000000E-02 0.  1.
    8880023    1    1    2    0    0  0.40265106406E+02 -0.11827386452E+03 -0.51091493907E+03  0.84288449212E+03  0.65864270000E+03 0.  1.
    8880022    1    1    2    0    0 -0.40265106406E+02  0.11827386452E+03  0.19403744257E+04  0.19503985620E+04  0.15294330000E+03 0.  0.
<mgrwt>
<rscale>  0 0.49388982E+03</rscale>
<asrwt>0</asrwt>
<pdfrwt beam="1">  1        2 0.32482635E+00 0.67038809E+03</pdfrwt>
<pdfrwt beam="2">  1       -2 0.10490950E+00 0.67038809E+03</pdfrwt>
<totfact> 0.44962490E+00</totfact>
</mgrwt>
</event>
<event>
 4    1  0.3834862E-007  0.1426178E+04  0.7818608E-02  0.8963604E-01
         -2   -1    0    0    0  501 -0.00000000000E+00  0.00000000000E+00  0.14848437334E+04  0.14848437334E+04  0.25500000000E-02 0.  1.
          2   -1    0    0  501    0  0.00000000000E+00 -0.00000000000E+00 -0.39674833278E+04  0.39674833278E+04  0.25500000000E-02 0. -1.
    8880023    1    1    2    0    0 -0.71424943680E+03  0.10440406745E+04  0.10013733004E+04  0.17426221280E+04  0.65864270000E+03 0.  0.
    8880022    1    1    2    0    0  0.71424943680E+03 -0.10440406745E+04 -0.34840128948E+04  0.37097049333E+04  0.15294330000E+03 0.  0.
<mgrwt>
<rscale>  0 0.13865610E+04</rscale>
<asrwt>0</asrwt>
<pdfrwt beam="1">  1        2 0.61038205E+00 0.14261779E+04</pdfrwt>
<pdfrwt beam="2">  1       -2 0.22843750E+00 0.14261779E+04</pdfrwt>
<totfact> 0.30674462E-02</totfact>
</mgrwt>
</event>
<event>
 4    1  0.3032637E-007  0.1182685E+04  0.7818608E-02  0.9174140E-01
          2   -1    0    0  501    0  0.00000000000E+00  0.00000000000E+00  0.33051416195E+04  0.33051416195E+04  0.25500000000E-02 0. -1.
         -2   -1    0    0    0  501 -0.00000000000E+00 -0.00000000000E+00 -0.86800485532E+03  0.86800485533E+03  0.25500000000E-02 0.  1.
    8880023    1    1    2    0    0 -0.25052316217E+03  0.94982777617E+03 -0.33411324412E+03  0.12289737692E+04  0.65864270000E+03 0.  0.
    8880022    1    1    2    0    0  0.25052316217E+03 -0.94982777617E+03  0.27712500082E+04  0.29441727056E+04  0.15294330000E+03 0.  0.
<mgrwt>
<rscale>  0 0.11324381E+04</rscale>
<asrwt>0</asrwt>
<pdfrwt beam="1">  1        2 0.50848333E+00 0.11826854E+04</pdfrwt>
<pdfrwt beam="2">  1       -2 0.13353921E+00 0.11826854E+04</pdfrwt>
<totfact> 0.44588428E-01</totfact>
</mgrwt>
</event>
<event>
 4    1  0.3032637E-007  0.8282431E+03  0.7818608E-02  0.9652761E-01
          2   -1    0    0  501    0  0.00000000000E+00  0.00000000000E+00  0.10015959618E+04  0.10015959618E+04  0.25500000000E-02 0. -1.
         -2   -1    0    0    0  501 -0.00000000000E+00 -0.00000000000E+00 -0.18141273200E+04  0.18141273200E+04  0.25500000000E-02 0.  1.
    8880023    1    1    2    0    0  0.43531508848E+03 -0.25035409849E+03 -0.16391429543E+04  0.18365119743E+04  0.65864270000E+03 0.  0.
    8880022    1    1    2    0    0 -0.43531508848E+03  0.25035409849E+03  0.82661159612E+03  0.97921130751E+03  0.15294330000E+03 0.  0.
<mgrwt>
<rscale>  0 0.73900431E+03</rscale>
<asrwt>0</asrwt>
<pdfrwt beam="1">  1        2 0.15409169E+00 0.82824308E+03</pdfrwt>
<pdfrwt beam="2">  1       -2 0.27909651E+00 0.82824308E+03</pdfrwt>
<totfact> 0.11006145E+00</totfact>
</mgrwt>
</event>
<event>
 4    1  0.3032637E-007  0.1103790E+04  0.7818608E-02  0.9256848E-01
          2   -1    0    0  501    0  0.00000000000E+00  0.00000000000E+00  0.14998916064E+04  0.14998916064E+04  0.25500000000E-02 0. -1.
         -2   -1    0    0    0  501 -0.00000000000E+00 -0.00000000000E+00 -0.14028370604E+04  0.14028370604E+04  0.25500000000E-02 0.  1.
    8880023    1    1    2    0    0  0.36404562306E+03  0.80747376446E+03 -0.99657448686E+03  0.14871160042E+04  0.65864270000E+03 0.  0.
    8880022    1    1    2    0    0 -0.36404562306E+03 -0.80747376446E+03  0.10936290328E+04  0.14156126626E+04  0.15294330000E+03 0.  0.
<mgrwt>
<rscale>  0 0.10485448E+04</rscale>
<asrwt>0</asrwt>
<pdfrwt beam="1">  1        2 0.23075255E+00 0.11037904E+04</pdfrwt>
<pdfrwt beam="2">  1       -2 0.21582109E+00 0.11037904E+04</pdfrwt>
<totfact> 0.13091089E+00</totfact>
</mgrwt>
</event>
<event>
 4    1  0.3032637E-007  0.1521757E+04  0.7818608E-02  0.8894423E-01
          2   -1    0    0  501    0  0.00000000000E+00  0.00000000000E+00  0.25795293058E+04  0.25795293058E+04  0.25500000000E-02 0. -1.
         -2   -1    0    0    0  501 -0.00000000000E+00 -0.00000000000E+00 -0.11852381298E+04  0.11852381298E+04  0.25500000000E-02 0.  1.
    8880023    1    1    2    0    0 -0.13714970059E+04 -0.30512799460E+02 -0.32889733959E+03  0.15568939380E+04  0.65864270000E+03 0.  0.
    8880022    1    1    2    0    0  0.13714970059E+04  0.30512799460E+02  0.17231885156E+04  0.22078734976E+04  0.15294330000E+03 0.  0.
<mgrwt>
<rscale>  0 0.14850984E+04</rscale>
<asrwt>0</asrwt>
<pdfrwt beam="1">  1        2 0.39685065E+00 0.15217573E+04</pdfrwt>
<pdfrwt beam="2">  1       -2 0.18234433E+00 0.15217573E+04</pdfrwt>
<totfact> 0.51331276E-01</totfact>
</mgrwt>
</event>
<event>
 4    1  0.3032637E-007  0.1679612E+04  0.7818608E-02  0.8792227E-01
         -2   -1    0    0    0  501 -0.00000000000E+00  0.00000000000E+00  0.17174667075E+04  0.17174667075E+04  0.25500000000E-02 0.  1.
          2   -1    0    0  501    0  0.00000000000E+00 -0.00000000000E+00 -0.17449966498E+04  0.17449966498E+04  0.25500000000E-02 0. -1.
    8880023    1    1    2    0    0 -0.13565888961E+04 -0.73956316304E+03 -0.63441581034E+03  0.17954332992E+04  0.65864270000E+03 0.  0.
    8880022    1    1    2    0    0  0.13565888961E+04  0.73956316304E+03  0.60688586805E+03  0.16670300582E+04  0.15294330000E+03 0.  0.
<mgrwt>
<rscale>  0 0.16469264E+04</rscale>
<asrwt>0</asrwt>
<pdfrwt beam="1">  1        2 0.26846102E+00 0.16796123E+04</pdfrwt>
<pdfrwt beam="2">  1       -2 0.26422565E+00 0.16796123E+04</pdfrwt>
<totfact> 0.44866065E-01</totfact>
</mgrwt>
</event>
<event>
 4    1  0.3032637E-007  0.1060436E+04  0.7818608E-02  0.9306440E-01
          2   -1    0    0  501    0  0.00000000000E+00  0.00000000000E+00  0.15884251070E+04  0.15884251070E+04  0.25500000000E-02 0. -1.
         -2   -1    0    0    0  501 -0.00000000000E+00 -0.00000000000E+00 -0.70715905964E+03  0.70715905964E+03  0.25500000000E-02 0.  1.
    8880023    1    1    2    0    0 -0.66475503502E+02 -0.82842927346E+03 -0.19317647671E+02  0.10606118194E+04  0.65864270000E+03 0.  1.
    8880022    1    1    2    0    0  0.66475503502E+02  0.82842927346E+03  0.90058369505E+03  0.12349723473E+04  0.15294330000E+03 0.  0.
<mgrwt>
<rscale>  0 0.10019213E+04</rscale>
<asrwt>0</asrwt>
<pdfrwt beam="1">  1        2 0.24437310E+00 0.10604359E+04</pdfrwt>
<pdfrwt beam="2">  1       -2 0.10879370E+00 0.10604359E+04</pdfrwt>
<totfact> 0.75563776E+00</totfact>
</mgrwt>
</event>
<event>
 4    1  0.3032637E-007  0.1034789E+04  0.7818608E-02  0.9337395E-01
          2   -1    0    0  501    0  0.00000000000E+00  0.00000000000E+00  0.15674130329E+04  0.15674130329E+04  0.25500000000E-02 0. -1.
         -2   -1    0    0    0  501 -0.00000000000E+00 -0.00000000000E+00 -0.12682360368E+04  0.12682360368E+04  0.25500000000E-02 0.  1.
    8880023    1    1    2    0    0  0.32291499922E+03  0.72986530392E+03 -0.91051996684E+03  0.13783447591E+04  0.65864270000E+03 0.  0.
    8880022    1    1    2    0    0 -0.32291499922E+03 -0.72986530392E+03  0.12096969629E+04  0.14573043106E+04  0.15294330000E+03 0.  0.
<mgrwt>
<rscale>  0 0.97411920E+03</rscale>
<asrwt>0</asrwt>
<pdfrwt beam="1">  1        2 0.24114047E+00 0.10347887E+04</pdfrwt>
<pdfrwt beam="2">  1       -2 0.19511324E+00 0.10347887E+04</pdfrwt>
<totfact> 0.16485083E+00</totfact>
</mgrwt>
</event>
<event>
 4    1  0.3032637E-007  0.1202614E+04  0.7818608E-02  0.9154586E-01
         -2   -1    0    0    0  501 -0.00000000000E+00  0.00000000000E+00  0.21571961122E+04  0.21571961122E+04  0.25500000000E-02 0.  1.
          2   -1    0    0  501    0  0.00000000000E+00 -0.00000000000E+00 -0.68336710008E+03  0.68336710009E+03  0.25500000000E-02 0. -1.
    8880023    1    1    2    0    0  0.79239080281E+03 -0.62015078854E+03  0.13615474077E+04  0.18166154614E+04  0.65864270000E+03 0. -1.
    8880022    1    1    2    0    0 -0.79239080281E+03  0.62015078854E+03  0.11228160444E+03  0.10239477509E+04  0.15294330000E+03 0.  0.
<mgrwt>
<rscale>  0 0.11534730E+04</rscale>
<asrwt>0</asrwt>
<pdfrwt beam="1">  1        2 0.10513340E+00 0.12026140E+04</pdfrwt>
<pdfrwt beam="2">  1       -2 0.33187632E+00 0.12026140E+04</pdfrwt>
<totfact> 0.84087206E-01</totfact>
</mgrwt>
</event>
<event>
 4    1  0.3032637E-007  0.1355175E+04  0.7818608E-02  0.9019319E-01
          2   -1    0    0  501    0  0.00000000000E+00  0.00000000000E+00  0.17058882762E+04  0.17058882762E+04  0.25500000000E-02 0. -1.
         -2   -1    0    0    0  501 -0.00000000000E+00 -0.00000000000E+00 -0.18244229614E+04  0.18244229614E+04  0.25500000000E-02 0.  1.
    8880023    1    1    2    0    0 -0.10993226749E+04 -0.44065794942E+03 -0.12802491495E+04  0.18642794487E+04  0.65864270000E+03 0.  0.
    8880022    1    1    2    0    0  0.10993226749E+04  0.44065794942E+03  0.11617144643E+04  0.16660317889E+04  0.15294330000E+03 0.  0.
<mgrwt>
<rscale>  0 0.13129997E+04</rscale>
<asrwt>0</asrwt>
<pdfrwt beam="1">  1        2 0.26244435E+00 0.13551753E+04</pdfrwt>
<pdfrwt beam="2">  1       -2 0.28068046E+00 0.13551753E+04</pdfrwt>
<totfact> 0.38760626E-01</totfact>
</mgrwt>
</event>
<event>
 4    1  0.3032637E-007  0.1418451E+04  0.7818608E-02  0.8969477E-01
          2   -1    0    0  501    0  0.00000000000E+00  0.00000000000E+00  0.12004794065E+04  0.12004794065E+04  0.25500000000E-02 0. -1.
         -2   -1    0    0    0  501 -0.00000000000E+00 -0.00000000000E+00 -0.19146045461E+04  0.19146045461E+04  0.25500000000E-02 0.  1.
    8880023    1    1    2    0    0 -0.11616425644E+04 -0.47830908135E+03 -0.10967116419E+04  0.17929806626E+04  0.65864270000E+03 0.  0.
    8880022    1    1    2    0    0  0.11616425644E+04  0.47830908135E+03  0.38258650224E+03  0.13221032900E+04  0.15294330000E+03 0.  0.
<mgrwt>
<rscale>  0 0.13785721E+04</rscale>
<asrwt>0</asrwt>
<pdfrwt beam="1">  1        2 0.18468914E+00 0.14184510E+04</pdfrwt>
<pdfrwt beam="2">  1       -2 0.29455455E+00 0.14184510E+04</pdfrwt>
<totfact> 0.61857788E-01</totfact>
</mgrwt>
</event>
<event>
 4    1  0.3032637E-007  0.6826910E+03  0.7818608E-02  0.1007841E+00
         -2   -1    0    0    0  501 -0.00000000000E+00  0.00000000000E+00  0.51798481287E+03  0.51798481288E+03  0.25500000000E-02 0.  1.
          2   -1    0    0  501    0  0.00000000000E+00 -0.00000000000E+00 -0.79828723555E+03  0.79828723556E+03  0.25500000000E-02 0. -1.
    8880023    1    1    2    0    0 -0.17901099709E+03  0.14556109786E+02  0.25700180925E+03  0.72946346970E+03  0.65864270000E+03 0.  1.
    8880022    1    1    2    0    0  0.17901099709E+03 -0.14556109786E+02 -0.53730423193E+03  0.58680857874E+03  0.15294330000E+03 0.  0.
<mgrwt>
<rscale>  0 0.52341938E+03</rscale>
<asrwt>0</asrwt>
<pdfrwt beam="1">  1        2 0.12281342E+00 0.68269102E+03</pdfrwt>
<pdfrwt beam="2">  1       -2 0.79689971E-01 0.68269102E+03</pdfrwt>
<totfact> 0.49102980E+01</totfact>
</mgrwt>
</event>
<event>
 4    1  0.3032637E-007  0.1046689E+04  0.7818608E-02  0.9322872E-01
          2   -1    0    0  501    0  0.00000000000E+00  0.00000000000E+00  0.16703644182E+04  0.16703644182E+04  0.25500000000E-02 0. -1.
         -2   -1    0    0    0  501 -0.00000000000E+00 -0.00000000000E+00 -0.69329775135E+03  0.69329775136E+03  0.25500000000E-02 0.  1.
    8880023    1    1    2    0    0 -0.63826406292E+03  0.50434771357E+03 -0.45978520681E+02  0.10476983635E+04  0.65864270000E+03 0.  1.
    8880022    1    1    2    0    0  0.63826406292E+03 -0.50434771357E+03  0.10230451875E+04  0.13159638061E+04  0.15294330000E+03 0.  0.
<mgrwt>
<rscale>  0 0.98704192E+03</rscale>
<asrwt>0</asrwt>
<pdfrwt beam="1">  1        2 0.25697914E+00 0.10466890E+04</pdfrwt>
<pdfrwt beam="2">  1       -2 0.10666119E+00 0.10466890E+04</pdfrwt>
<totfact> 0.71481919E+00</totfact>
</mgrwt>
</event>
<event>
 4    1  0.3032637E-007  0.1052603E+04  0.7818608E-02  0.9315759E-01
          2   -1    0    0  501    0  0.00000000000E+00  0.00000000000E+00  0.10660425093E+04  0.10660425093E+04  0.25500000000E-02 0. -1.
         -2   -1    0    0    0  501 -0.00000000000E+00 -0.00000000000E+00 -0.17433902884E+04  0.17433902884E+04  0.25500000000E-02 0.  1.
    8880023    1    1    2    0    0  0.54255493805E+03 -0.61627683462E+03 -0.13676997960E+04  0.17258551318E+04  0.65864270000E+03 0.  0.
    8880022    1    1    2    0    0 -0.54255493805E+03  0.61627683462E+03  0.69035201689E+03  0.10835776659E+04  0.15294330000E+03 0.  0.
<mgrwt>
<rscale>  0 0.99344940E+03</rscale>
<asrwt>0</asrwt>
<pdfrwt beam="1">  1        2 0.16400654E+00 0.10526031E+04</pdfrwt>
<pdfrwt beam="2">  1       -2 0.26821389E+00 0.10526031E+04</pdfrwt>
<totfact> 0.11278602E+00</totfact>
</mgrwt>
</event>
<event>
 4    1  0.3032637E-007  0.7427129E+03  0.7818608E-02  0.9852114E-01
         -2   -1    0    0    0  501 -0.00000000000E+00  0.00000000000E+00  0.14760818341E+03  0.14760818343E+03  0.25500000000E-02 0.  1.
          2   -1    0    0  501    0  0.00000000000E+00 -0.00000000000E+00 -0.34849548997E+04  0.34849548997E+04  0.25500000000E-02 0. -1.
    8880023    1    1    2    0    0 -0.18265980949E+03 -0.29059888441E+03 -0.90215125070E+03  0.11685458498E+04  0.65864270000E+03 0.  0.
    8880022    1    1    2    0    0  0.18265980949E+03  0.29059888441E+03 -0.24351954655E+04  0.24640172333E+04  0.15294330000E+03 0.  0.
<mgrwt>
<rscale>  0 0.62639259E+03</rscale>
<asrwt>0</asrwt>
<pdfrwt beam="1">  1        2 0.53614685E+00 0.74271295E+03</pdfrwt>
<pdfrwt beam="2">  1       -2 0.22708954E-01 0.74271295E+03</pdfrwt>
<totfact> 0.15309206E+01</totfact>
</mgrwt>
</event>
<event>
 4    1  0.3032637E-007  0.8031829E+03  0.7818608E-02  0.9703956E-01
         -2   -1    0    0    0  501 -0.00000000000E+00  0.00000000000E+00  0.71181356329E+03  0.71181356329E+03  0.25500000000E-02 0.  1.
          2   -1    0    0  501    0  0.00000000000E+00 -0.00000000000E+00 -0.17523950234E+04  0.17523950234E+04  0.25500000000E-02 0. -1.
    8880023    1    1    2    0    0  0.46389579585E+01 -0.45964235909E+03  0.43340321520E+03  0.91265610796E+03  0.65864270000E+03 0. -1.
    8880022    1    1    2    0    0 -0.46389579585E+01  0.45964235909E+03 -0.14739846753E+04  0.15515524788E+04  0.15294330000E+03 0.  0.
<mgrwt>
<rscale>  0 0.70781759E+03</rscale>
<asrwt>0</asrwt>
<pdfrwt beam="1">  1        2 0.26959923E+00 0.80318293E+03</pdfrwt>
<pdfrwt beam="2">  1       -2 0.10950978E+00 0.80318293E+03</pdfrwt>
<totfact> 0.62255321E+00</totfact>
</mgrwt>
</event>
<event>
 4    1  0.3032637E-007  0.8793657E+03  0.7818608E-02  0.9560003E-01
          2   -1    0    0  501    0  0.00000000000E+00  0.00000000000E+00  0.15650245302E+04  0.15650245302E+04  0.25500000000E-02 0. -1.
         -2   -1    0    0    0  501 -0.00000000000E+00 -0.00000000000E+00 -0.60909202533E+03  0.60909202534E+03  0.25500000000E-02 0.  1.
    8880023    1    1    2    0    0  0.46503867099E+02 -0.58078498691E+03 -0.17142099887E+03  0.89591806310E+03  0.65864270000E+03 0.  1.
    8880022    1    1    2    0    0 -0.46503867099E+02  0.58078498691E+03  0.11273535037E+04  0.12781984924E+04  0.15294330000E+03 0.  0.
<mgrwt>
<rscale>  0 0.80000986E+03</rscale>
<asrwt>0</asrwt>
<pdfrwt beam="1">  1        2 0.24077300E+00 0.87936569E+03</pdfrwt>
<pdfrwt beam="2">  1       -2 0.93706467E-01 0.87936569E+03</pdfrwt>
<totfact> 0.11332950E+01</totfact>
</mgrwt>
</event>
<event>
 4    1  0.3489034E-007  0.9675904E+03  0.7818608E-02  0.9425245E-01
         -2   -1    0    0    0  501 -0.00000000000E+00  0.00000000000E+00  0.15781231718E+04  0.15781231718E+04  0.25500000000E-02 0.  1.
          2   -1    0    0  501    0  0.00000000000E+00 -0.00000000000E+00 -0.14006821050E+04  0.14006821050E+04  0.25500000000E-02 0. -1.
    8880023    1    1    2    0    0  0.41487339414E+03  0.57471827652E+03  0.13132791672E+04  0.16312367724E+04  0.65864270000E+03 0.  1.
    8880022    1    1    2    0    0 -0.41487339414E+03 -0.57471827652E+03 -0.11358381004E+04  0.13475685043E+04  0.15294330000E+03 0.  0.
<mgrwt>
<rscale>  0 0.90026954E+03</rscale>
<asrwt>0</asrwt>
<pdfrwt beam="1">  1        2 0.21548956E+00 0.96759043E+03</pdfrwt>
<pdfrwt beam="2">  1       -2 0.24278818E+00 0.96759043E+03</pdfrwt>
<totfact> 0.10307959E+00</totfact>
</mgrwt>
</event>
<event>
 4    1  0.3032637E-007  0.1057987E+04  0.7818608E-02  0.9309341E-01
          2   -1    0    0  501    0  0.00000000000E+00  0.00000000000E+00  0.11295123262E+04  0.11295123262E+04  0.25500000000E-02 0. -1.
         -2   -1    0    0    0  501 -0.00000000000E+00 -0.00000000000E+00 -0.11488421705E+04  0.11488421705E+04  0.25500000000E-02 0.  1.
    8880023    1    1    2    0    0  0.41318903433E+03 -0.71749658844E+03  0.61538644778E+03  0.12239433071E+04  0.65864270000E+03 0. -1.
    8880022    1    1    2    0    0 -0.41318903433E+03  0.71749658844E+03 -0.63471629206E+03  0.10544111897E+04  0.15294330000E+03 0.  0.
<mgrwt>
<rscale>  0 0.99927449E+03</rscale>
<asrwt>0</asrwt>
<pdfrwt beam="1">  1        2 0.17377113E+00 0.10579871E+04</pdfrwt>
<pdfrwt beam="2">  1       -2 0.17674495E+00 0.10579871E+04</pdfrwt>
<totfact> 0.39323756E+00</totfact>
</mgrwt>
</event>
<event>
 4    1  0.3032637E-007  0.9465687E+03  0.7818608E-02  0.9455068E-01
         -2   -1    0    0    0  501 -0.00000000000E+00  0.00000000000E+00  0.69062303141E+03  0.69062303141E+03  0.25500000000E-02 0.  1.
          2   -1    0    0  501    0  0.00000000000E+00 -0.00000000000E+00 -0.19107515053E+04  0.19107515053E+04  0.25500000000E-02 0. -1.
    8880023    1    1    2    0    0 -0.67684409036E+03  0.63750809903E+02  0.24605284472E+03  0.97802571391E+03  0.65864270000E+03 0.  0.
    8880022    1    1    2    0    0  0.67684409036E+03 -0.63750809903E+02 -0.14661813186E+04  0.16233488228E+04  0.15294330000E+03 0.  0.
<mgrwt>
<rscale>  0 0.87679084E+03</rscale>
<asrwt>0</asrwt>
<pdfrwt beam="1">  1        2 0.29396177E+00 0.94656870E+03</pdfrwt>
<pdfrwt beam="2">  1       -2 0.10624970E+00 0.94656870E+03</pdfrwt>
<totfact> 0.53803469E+00</totfact>
</mgrwt>
</event>
<event>
 4    1  0.3032637E-007  0.8415465E+03  0.7818608E-02  0.9627271E-01
          2   -1    0    0  501    0  0.00000000000E+00  0.00000000000E+00  0.35539588478E+04  0.35539588478E+04  0.25500000000E-02 0. -1.
         -2   -1    0    0    0  501 -0.00000000000E+00 -0.00000000000E+00 -0.26973790068E+03  0.26973790069E+03  0.25500000000E-02 0.  1.
    8880023    1    1    2    0    0 -0.47485650974E+03  0.22113720158E+03  0.48400401808E+03  0.97080402891E+03  0.65864270000E+03 0.  1.
    8880022    1    1    2    0    0  0.47485650974E+03 -0.22113720158E+03  0.28002169290E+04  0.28528927196E+04  0.15294330000E+03 0.  0.
<mgrwt>
<rscale>  0 0.75517206E+03</rscale>
<asrwt>0</asrwt>
<pdfrwt beam="1">  1        2 0.54676284E+00 0.84154654E+03</pdfrwt>
<pdfrwt beam="2">  1       -2 0.41498143E-01 0.84154654E+03</pdfrwt>
<totfact> 0.43719549E+00</totfact>
</mgrwt>
</event>
<event>
 4    1  0.3032637E-007  0.9787736E+03  0.7818608E-02  0.9409871E-01
         -2   -1    0    0    0  501 -0.00000000000E+00  0.00000000000E+00  0.49982919234E+03  0.49982919235E+03  0.25500000000E-02 0.  1.
          2   -1    0    0  501    0  0.00000000000E+00 -0.00000000000E+00 -0.17964071635E+04  0.17964071635E+04  0.25500000000E-02 0. -1.
    8880023    1    1    2    0    0  0.65170506760E+03 -0.31538552399E+03 -0.24253495425E+03  0.10083753935E+04  0.65864270000E+03 0.  0.
    8880022    1    1    2    0    0 -0.65170506760E+03  0.31538552399E+03 -0.10540430169E+04  0.12878609623E+04  0.15294330000E+03 0.  0.
<mgrwt>
<rscale>  0 0.91267792E+03</rscale>
<asrwt>0</asrwt>
<pdfrwt beam="1">  1        2 0.27637033E+00 0.97877358E+03</pdfrwt>
<pdfrwt beam="2">  1       -2 0.76896800E-01 0.97877358E+03</pdfrwt>
<totfact> 0.13122377E+01</totfact>
</mgrwt>
</event>
<event>
 4    1  0.3032637E-007  0.1916798E+04  0.7818608E-02  0.8660539E-01
         -2   -1    0    0    0  501 -0.00000000000E+00  0.00000000000E+00  0.22136365852E+04  0.22136365852E+04  0.25500000000E-02 0.  1.
          2   -1    0    0  501    0  0.00000000000E+00 -0.00000000000E+00 -0.22829530022E+04  0.22829530022E+04  0.25500000000E-02 0. -1.
    8880023    1    1    2    0    0 -0.46791743735E+03 -0.17382048017E+04 -0.12951972114E+04  0.23133630678E+04  0.65864270000E+03 0.  0.
    8880022    1    1    2    0    0  0.46791743735E+03  0.17382048017E+04  0.12258807944E+04  0.21832265196E+04  0.15294330000E+03 0.  0.
<mgrwt>
<rscale>  0 0.18886256E+04</rscale>
<asrwt>0</asrwt>
<pdfrwt beam="1">  1        2 0.35122354E+00 0.19167976E+04</pdfrwt>
<pdfrwt beam="2">  1       -2 0.34055948E+00 0.19167976E+04</pdfrwt>
<totfact> 0.73892256E-02</totfact>
</mgrwt>
</event>
<event>
 4    1  0.3032637E-007  0.6949359E+03  0.7818608E-02  0.1001889E+00
          2   -1    0    0  501    0  0.00000000000E+00  0.00000000000E+00  0.22625044477E+04  0.22625044477E+04  0.25500000000E-02 0. -1.
         -2   -1    0    0    0  501 -0.00000000000E+00 -0.00000000000E+00 -0.20253701882E+03  0.20253701884E+03  0.25500000000E-02 0.  1.
    8880023    1    1    2    0    0 -0.16598901338E+03  0.14687863201E+03  0.43927806877E+03  0.82213205330E+03  0.65864270000E+03 0.  1.
    8880022    1    1    2    0    0  0.16598901338E+03 -0.14687863201E+03  0.16206893601E+04  0.16429094132E+04  0.15294330000E+03 0.  0.
<mgrwt>
<rscale>  0 0.54829437E+03</rscale>
<asrwt>0</asrwt>
<pdfrwt beam="1">  1        2 0.34807760E+00 0.69493589E+03</pdfrwt>
<pdfrwt beam="2">  1       -2 0.31159542E-01 0.69493589E+03</pdfrwt>
<totfact> 0.47423413E+01</totfact>
</mgrwt>
</event>
<event>
 4    1  0.3032637E-007  0.1630548E+04  0.7818608E-02  0.8822560E-01
          2   -1    0    0  501    0  0.00000000000E+00  0.00000000000E+00  0.11557006706E+04  0.11557006706E+04  0.25500000000E-02 0. -1.
         -2   -1    0    0    0  501 -0.00000000000E+00 -0.00000000000E+00 -0.25747596875E+04  0.25747596875E+04  0.25500000000E-02 0.  1.
    8880023    1    1    2    0    0  0.14306877431E+04  0.42191258003E+03 -0.15179929493E+04  0.22277770184E+04  0.65864270000E+03 0.  0.
    8880022    1    1    2    0    0 -0.14306877431E+04 -0.42191258003E+03  0.98933932436E+02  0.15026833397E+04  0.15294330000E+03 0.  0.
<mgrwt>
<rscale>  0 0.15967293E+04</rscale>
<asrwt>0</asrwt>
<pdfrwt beam="1">  1        2 0.17780010E+00 0.16305483E+04</pdfrwt>
<pdfrwt beam="2">  1       -2 0.39611687E+00 0.16305483E+04</pdfrwt>
<totfact> 0.14798267E-01</totfact>
</mgrwt>
</event>
<event>
 4    1  0.3032637E-007  0.7302258E+03  0.7818608E-02  0.9889392E-01
          2   -1    0    0  501    0  0.00000000000E+00  0.00000000000E+00  0.22164103546E+04  0.22164103546E+04  0.25500000000E-02 0. -1.
         -2   -1    0    0    0  501 -0.00000000000E+00 -0.00000000000E+00 -0.21432604156E+03  0.21432604157E+03  0.25500000000E-02 0.  1.
    8880023    1    1    2    0    0 -0.11797711231E+03  0.29240540405E+03  0.49196633489E+03  0.88048884165E+03  0.65864270000E+03 0.  1.
    8880022    1    1    2    0    0  0.11797711231E+03 -0.29240540405E+03  0.15101179782E+04  0.15502475546E+04  0.15294330000E+03 0.  0.
<mgrwt>
<rscale>  0 0.60778170E+03</rscale>
<asrwt>0</asrwt>
<pdfrwt beam="1">  1        2 0.34098620E+00 0.73022580E+03</pdfrwt>
<pdfrwt beam="2">  1       -2 0.32973238E-01 0.73022580E+03</pdfrwt>
<totfact> 0.45007634E+01</totfact>
</mgrwt>
</event>
<event>
 4    1  0.3032637E-007  0.7195142E+03  0.7818608E-02  0.9924233E-01
          2   -1    0    0  501    0  0.00000000000E+00  0.00000000000E+00  0.28596936440E+03  0.28596936441E+03  0.25500000000E-02 0. -1.
         -2   -1    0    0    0  501 -0.00000000000E+00 -0.00000000000E+00 -0.19533409295E+04  0.19533409295E+04  0.25500000000E-02 0.  1.
    8880023    1    1    2    0    0 -0.64320814735E+02  0.28240624144E+03 -0.17579333546E+04  0.18994815972E+04  0.65864270000E+03 0.  1.
    8880022    1    1    2    0    0  0.64320814735E+02 -0.28240624144E+03  0.90561789508E+02  0.33982869676E+03  0.15294330000E+03 0.  0.
<mgrwt>
<rscale>  0 0.59101082E+03</rscale>
<asrwt>0</asrwt>
<pdfrwt beam="1">  1        2 0.43995288E-01 0.71951418E+03</pdfrwt>
<pdfrwt beam="2">  1       -2 0.30051398E+00 0.71951418E+03</pdfrwt>
<totfact> 0.38147808E+00</totfact>
</mgrwt>
</event>
<event>
 4    1  0.3032637E-007  0.7813576E+03  0.7818608E-02  0.9752658E-01
         -2   -1    0    0    0  501 -0.00000000000E+00  0.00000000000E+00  0.81992979398E+03  0.81992979399E+03  0.25500000000E-02 0.  1.
          2   -1    0    0  501    0  0.00000000000E+00 -0.00000000000E+00 -0.50520458485E+03  0.50520458485E+03  0.25500000000E-02 0. -1.
    8880023    1    1    2    0    0  0.12102696596E+03 -0.40256921731E+03  0.38710145045E+03  0.87199039009E+03  0.65864270000E+03 0.  1.
    8880022    1    1    2    0    0 -0.12102696596E+03  0.40256921731E+03 -0.72376241312E+02  0.45314398874E+03  0.15294330000E+03 0. -1.
<mgrwt>
<rscale>  0 0.67966293E+03</rscale>
<asrwt>0</asrwt>
<pdfrwt beam="1">  1        2 0.77723784E-01 0.78135761E+03</pdfrwt>
<pdfrwt beam="2">  1       -2 0.12614304E+00 0.78135761E+03</pdfrwt>
<totfact> 0.28796588E+01</totfact>
</mgrwt>
</event>
<event>
 4    1  0.3032637E-007  0.7041305E+03  0.7818608E-02  0.9980479E-01
         -2   -1    0    0    0  501 -0.00000000000E+00  0.00000000000E+00  0.17370540646E+03  0.17370540648E+03  0.25500000000E-02 0.  1.
          2   -1    0    0  501    0  0.00000000000E+00 -0.00000000000E+00 -0.27891570753E+04  0.27891570753E+04  0.25500000000E-02 0. -1.
    8880023    1    1    2    0    0 -0.13388696683E+03  0.20991389232E+03 -0.59636256905E+03  0.92273944432E+03  0.65864270000E+03 0.  0.
    8880022    1    1    2    0    0  0.13388696683E+03 -0.20991389232E+03 -0.20190890998E+04  0.20401230375E+04  0.15294330000E+03 0.  0.
<mgrwt>
<rscale>  0 0.56514535E+03</rscale>
<asrwt>0</asrwt>
<pdfrwt beam="1">  1        2 0.42910106E+00 0.70413051E+03</pdfrwt>
<pdfrwt beam="2">  1       -2 0.26723911E-01 0.70413051E+03</pdfrwt>
<totfact> 0.31538634E+01</totfact>
</mgrwt>
</event>
<event>
 4    1  0.3032637E-007  0.7101270E+03  0.7818608E-02  0.9957530E-01
          2   -1    0    0  501    0  0.00000000000E+00  0.00000000000E+00  0.25631901727E+04  0.25631901728E+04  0.25500000000E-02 0. -1.
         -2   -1    0    0    0  501 -0.00000000000E+00 -0.00000000000E+00 -0.42929655641E+03  0.42929655642E+03  0.25500000000E-02 0.  1.
    8880023    1    1    2    0    0 -0.79076024855E+02  0.25341087383E+03 -0.11798611117E+03  0.71986180436E+03  0.65864270000E+03 0.  1.
    8880022    1    1    2    0    0  0.79076024855E+02 -0.25341087383E+03  0.22518797275E+04  0.22726249248E+04  0.15294330000E+03 0.  0.
<mgrwt>
<rscale>  0 0.57552352E+03</rscale>
<asrwt>0</asrwt>
<pdfrwt beam="1">  1        2 0.39433695E+00 0.71012696E+03</pdfrwt>
<pdfrwt beam="2">  1       -2 0.66045624E-01 0.71012696E+03</pdfrwt>
<totfact> 0.71423445E+00</totfact>
</mgrwt>
</event>
<event>
 4    1  0.3032637E-007  0.8167850E+03  0.7818608E-02  0.9675613E-01
         -2   -1    0    0    0  501 -0.00000000000E+00  0.00000000000E+00  0.36371969112E+03  0.36371969113E+03  0.25500000000E-02 0.  1.
          2   -1    0    0  501    0  0.00000000000E+00 -0.00000000000E+00 -0.30746234734E+04  0.30746234734E+04  0.25500000000E-02 0. -1.
    8880023    1    1    2    0    0  0.26485976927E+03 -0.40395154125E+03 -0.15331481394E+03  0.83104944708E+03  0.65864270000E+03 0.  0.
    8880022    1    1    2    0    0 -0.26485976927E+03  0.40395154125E+03 -0.25575889683E+04  0.26072937174E+04  0.15294330000E+03 0.  0.
<mgrwt>
<rscale>  0 0.72487498E+03</rscale>
<asrwt>0</asrwt>
<pdfrwt beam="1">  1        2 0.47301898E+00 0.81678501E+03</pdfrwt>
<pdfrwt beam="2">  1       -2 0.55956878E-01 0.81678501E+03</pdfrwt>
<totfact> 0.49440273E+00</totfact>
</mgrwt>
</event>
<event>
 4    1  0.3032637E-007  0.9430884E+03  0.7818608E-02  0.9460129E-01
         -2   -1    0    0    0  501 -0.00000000000E+00  0.00000000000E+00  0.46364130543E+03  0.46364130544E+03  0.25500000000E-02 0.  1.
          2   -1    0    0  501    0  0.00000000000E+00 -0.00000000000E+00 -0.17852220130E+04  0.17852220130E+04  0.25500000000E-02 0. -1.
    8880023    1    1    2    0    0 -0.44022366134E+03  0.51167240075E+03 -0.25421159533E+03  0.97674933281E+03  0.65864270000E+03 0. -1.
    8880022    1    1    2    0    0  0.44022366134E+03 -0.51167240075E+03 -0.10673691123E+04  0.12721139857E+04  0.15294330000E+03 0.  0.
<mgrwt>
<rscale>  0 0.87288277E+03</rscale>
<asrwt>0</asrwt>
<pdfrwt beam="1">  1        2 0.27464954E+00 0.94308840E+03</pdfrwt>
<pdfrwt beam="2">  1       -2 0.71329432E-01 0.94308840E+03</pdfrwt>
<totfact> 0.15783830E+01</totfact>
</mgrwt>
</event>
<event>
 4    1  0.3032637E-007  0.1300842E+04  0.7818608E-02  0.9064833E-01
          2   -1    0    0  501    0  0.00000000000E+00  0.00000000000E+00  0.11989087565E+04  0.11989087565E+04  0.25500000000E-02 0. -1.
         -2   -1    0    0    0  501 -0.00000000000E+00 -0.00000000000E+00 -0.16050580126E+04  0.16050580126E+04  0.25500000000E-02 0.  1.
    8880023    1    1    2    0    0 -0.49252293735E+02  0.11206932104E+04 -0.88643409823E+03  0.15741520502E+04  0.65864270000E+03 0.  0.
    8880022    1    1    2    0    0  0.49252293735E+02 -0.11206932104E+04  0.48028484212E+03  0.12298147189E+04  0.15294330000E+03 0.  0.
<mgrwt>
<rscale>  0 0.12564484E+04</rscale>
<asrwt>0</asrwt>
<pdfrwt beam="1">  1        2 0.18444750E+00 0.13008418E+04</pdfrwt>
<pdfrwt beam="2">  1       -2 0.24693200E+00 0.13008418E+04</pdfrwt>
<totfact> 0.12249931E+00</totfact>
</mgrwt>
</event>
<event>
 4    1  0.3032637E-007  0.8183345E+03  0.7818608E-02  0.9672471E-01
          2   -1    0    0  501    0  0.00000000000E+00  0.00000000000E+00  0.85895547712E+03  0.85895547712E+03  0.25500000000E-02 0. -1.
         -2   -1    0    0    0  501 -0.00000000000E+00 -0.00000000000E+00 -0.12995978133E+04  0.12995978133E+04  0.25500000000E-02 0.  1.
    8880023    1    1    2    0    0  0.42617100612E+03  0.23289372260E+03 -0.10712465380E+04  0.13480506533E+04  0.65864270000E+03 0.  0.
    8880022    1    1    2    0    0 -0.42617100612E+03 -0.23289372260E+03  0.63060420178E+03  0.81050263713E+03  0.15294330000E+03 0.  0.
<mgrwt>
<rscale>  0 0.72679781E+03</rscale>
<asrwt>0</asrwt>
<pdfrwt beam="1">  1        2 0.13214700E+00 0.81833454E+03</pdfrwt>
<pdfrwt beam="2">  1       -2 0.19993813E+00 0.81833454E+03</pdfrwt>
<totfact> 0.42203752E+00</totfact>
</mgrwt>
</event>
<event>
 4    1  0.3032637E-007  0.8262039E+03  0.7818608E-02  0.9656764E-01
          2   -1    0    0  501    0  0.00000000000E+00  0.00000000000E+00  0.18401519771E+04  0.18401519771E+04  0.25500000000E-02 0. -1.
         -2   -1    0    0    0  501 -0.00000000000E+00 -0.00000000000E+00 -0.38972313509E+03  0.38972313510E+03  0.25500000000E-02 0.  1.
    8880023    1    1    2    0    0  0.10862061541E+03 -0.48683088257E+03  0.16488371846E+03  0.84249604936E+03  0.65864270000E+03 0.  0.
    8880022    1    1    2    0    0 -0.10862061541E+03  0.48683088257E+03  0.12855451235E+04  0.13873790628E+04  0.15294330000E+03 0.  0.
<mgrwt>
<rscale>  0 0.73650440E+03</rscale>
<asrwt>0</asrwt>
<pdfrwt beam="1">  1        2 0.28310031E+00 0.82620394E+03</pdfrwt>
<pdfrwt beam="2">  1       -2 0.59957404E-01 0.82620394E+03</pdfrwt>
<totfact> 0.21699874E+01</totfact>
</mgrwt>
</event>
<event>
 4    1  0.3032637E-007  0.7546711E+03  0.7818608E-02  0.9819104E-01
         -2   -1    0    0    0  501 -0.00000000000E+00  0.00000000000E+00  0.42216918478E+03  0.42216918479E+03  0.25500000000E-02 0.  1.
          2   -1    0    0  501    0  0.00000000000E+00 -0.00000000000E+00 -0.15985946069E+04  0.15985946069E+04  0.25500000000E-02 0. -1.
    8880023    1    1    2    0    0  0.25133262060E+03 -0.26935130280E+03  0.24762591239E+02  0.75507721637E+03  0.65864270000E+03 0.  1.
    8880022    1    1    2    0    0 -0.25133262060E+03  0.26935130280E+03 -0.12011880134E+04  0.12656865754E+04  0.15294330000E+03 0.  0.
<mgrwt>
<rscale>  0 0.64347312E+03</rscale>
<asrwt>0</asrwt>
<pdfrwt beam="1">  1        2 0.24593763E+00 0.75467107E+03</pdfrwt>
<pdfrwt beam="2">  1       -2 0.64949106E-01 0.75467107E+03</pdfrwt>
<totfact> 0.25037517E+01</totfact>
</mgrwt>
</event>
<event>
 4    1  0.3032637E-007  0.7637452E+03  0.7818608E-02  0.9795506E-01
         -2   -1    0    0    0  501 -0.00000000000E+00  0.00000000000E+00  0.28209660317E+03  0.28209660318E+03  0.25500000000E-02 0.  1.
          2   -1    0    0  501    0  0.00000000000E+00 -0.00000000000E+00 -0.33552664248E+04  0.33552664248E+04  0.25500000000E-02 0. -1.
    8880023    1    1    2    0    0 -0.27557773150E+03  0.27120749195E+03 -0.28006083521E+03  0.81347456474E+03  0.65864270000E+03 0.  1.
    8880022    1    1    2    0    0  0.27557773150E+03 -0.27120749195E+03 -0.27931089864E+04  0.28238884632E+04  0.15294330000E+03 0.  0.
<mgrwt>
<rscale>  0 0.65604265E+03</rscale>
<asrwt>0</asrwt>
<pdfrwt beam="1">  1        2 0.51619481E+00 0.76374524E+03</pdfrwt>
<pdfrwt beam="2">  1       -2 0.43399480E-01 0.76374524E+03</pdfrwt>
<totfact> 0.55344607E+00</totfact>
</mgrwt>
</event>
<event>
 4    1  0.3032637E-007  0.1555336E+04  0.7818608E-02  0.8871518E-01
          2   -1    0    0  501    0  0.00000000000E+00  0.00000000000E+00  0.18938271347E+04  0.18938271347E+04  0.25500000000E-02 0. -1.
         -2   -1    0    0    0  501 -0.00000000000E+00 -0.00000000000E+00 -0.17727411842E+04  0.17727411843E+04  0.25500000000E-02 0.  1.
    8880023    1    1    2    0    0  0.18238732027E+03  0.13971379768E+04 -0.10089574281E+04  0.18539322961E+04  0.65864270000E+03 0.  0.
    8880022    1    1    2    0    0 -0.18238732027E+03 -0.13971379768E+04  0.11300433786E+04  0.18126360228E+04  0.15294330000E+03 0.  0.
<mgrwt>
<rscale>  0 0.15196068E+04</rscale>
<asrwt>0</asrwt>
<pdfrwt beam="1">  1        2 0.29135802E+00 0.15553359E+04</pdfrwt>
<pdfrwt beam="2">  1       -2 0.27272941E+00 0.15553359E+04</pdfrwt>
<totfact> 0.33277703E-01</totfact>
</mgrwt>
</event>
<event>
 4    1  0.3032637E-007  0.1348033E+04  0.7818608E-02  0.9025152E-01
          2   -1    0    0  501    0  0.00000000000E+00  0.00000000000E+00  0.25478630040E+04  0.25478630040E+04  0.25500000000E-02 0. -1.
         -2   -1    0    0    0  501 -0.00000000000E+00 -0.00000000000E+00 -0.86914224217E+03  0.86914224217E+03  0.25500000000E-02 0.  1.
    8880023    1    1    2    0    0 -0.95191926588E+03 -0.69082039196E+03 -0.16406889550E+02  0.13481329664E+04  0.65864270000E+03 0.  0.
    8880022    1    1    2    0    0  0.95191926588E+03  0.69082039196E+03  0.16951276514E+04  0.20688722798E+04  0.15294330000E+03 0.  0.
<mgrwt>
<rscale>  0 0.13055800E+04</rscale>
<asrwt>0</asrwt>
<pdfrwt beam="1">  1        2 0.39197892E+00 0.13480331E+04</pdfrwt>
<pdfrwt beam="2">  1       -2 0.13371419E+00 0.13480331E+04</pdfrwt>
<totfact> 0.12708412E+00</totfact>
</mgrwt>
</event>
<event>
 4    1  0.3032637E-007  0.1112120E+04  0.7818608E-02  0.9247681E-01
          2   -1    0    0  501    0  0.00000000000E+00  0.00000000000E+00  0.14347045699E+04  0.14347045699E+04  0.25500000000E-02 0. -1.
         -2   -1    0    0    0  501 -0.00000000000E+00 -0.00000000000E+00 -0.10133058627E+04  0.10133058627E+04  0.25500000000E-02 0.  1.
    8880023    1    1    2    0    0 -0.75064112404E+03 -0.48942604941E+03 -0.43967349103E+03  0.11958774770E+04  0.65864270000E+03 0.  1.
    8880022    1    1    2    0    0  0.75064112404E+03  0.48942604941E+03  0.86107219825E+03  0.12521329556E+04  0.15294330000E+03 0.  0.
<mgrwt>
<rscale>  0 0.10574550E+04</rscale>
<asrwt>0</asrwt>
<pdfrwt beam="1">  1        2 0.22072378E+00 0.11121197E+04</pdfrwt>
<pdfrwt beam="2">  1       -2 0.15589321E+00 0.11121197E+04</pdfrwt>
<totfact> 0.36627945E+00</totfact>
</mgrwt>
</event>
<event>
 4    1  0.3032637E-007  0.6770527E+03  0.7818608E-02  0.1011042E+00
          2   -1    0    0  501    0  0.00000000000E+00  0.00000000000E+00  0.14383734582E+04  0.14383734582E+04  0.25500000000E-02 0. -1.
         -2   -1    0    0    0  501 -0.00000000000E+00 -0.00000000000E+00 -0.32181766002E+03  0.32181766003E+03  0.25500000000E-02 0.  1.
    8880023    1    1    2    0    0 -0.63724609234E+02 -0.14328038513E+03  0.58361798759E+02  0.67956338954E+03  0.65864270000E+03 0.  1.
    8880022    1    1    2    0    0  0.63724609234E+02  0.14328038513E+03  0.10581939994E+04  0.10806277287E+04  0.15294330000E+03 0.  0.
<mgrwt>
<rscale>  0 0.51062414E+03</rscale>
<asrwt>0</asrwt>
<pdfrwt beam="1">  1        2 0.22128822E+00 0.67705266E+03</pdfrwt>
<pdfrwt beam="2">  1       -2 0.49510410E-01 0.67705266E+03</pdfrwt>
<totfact> 0.54633088E+01</totfact>
</mgrwt>
</event>
<event>
 4    1  0.3032637E-007  0.8142204E+03  0.7818608E-02  0.9680852E-01
          2   -1    0    0  501    0  0.00000000000E+00  0.00000000000E+00  0.15367166759E+04  0.15367166759E+04  0.25500000000E-02 0. -1.
         -2   -1    0    0    0  501 -0.00000000000E+00 -0.00000000000E+00 -0.94580888064E+03  0.94580888065E+03  0.25500000000E-02 0.  1.
    8880023    1    1    2    0    0  0.38065519222E+03 -0.29025215906E+03 -0.71479202185E+03  0.10834585973E+04  0.65864270000E+03 0.  1.
    8880022    1    1    2    0    0 -0.38065519222E+03  0.29025215906E+03  0.13056998171E+04  0.13990669593E+04  0.15294330000E+03 0.  0.
<mgrwt>
<rscale>  0 0.72168384E+03</rscale>
<asrwt>0</asrwt>
<pdfrwt beam="1">  1        2 0.23641795E+00 0.81422042E+03</pdfrwt>
<pdfrwt beam="2">  1       -2 0.14550906E+00 0.81422042E+03</pdfrwt>
<totfact> 0.39968886E+00</totfact>
</mgrwt>
</event>
<event>
 4    1  0.3032637E-007  0.1813556E+04  0.7818608E-02  0.8715075E-01
         -2   -1    0    0    0  501 -0.00000000000E+00  0.00000000000E+00  0.27248799439E+04  0.27248799439E+04  0.25500000000E-02 0.  1.
          2   -1    0    0  501    0  0.00000000000E+00 -0.00000000000E+00 -0.26256231656E+04  0.26256231656E+04  0.25500000000E-02 0. -1.
    8880023    1    1    2    0    0  0.82764803137E+03  0.14731504574E+04 -0.19679776913E+04  0.26761763645E+04  0.65864270000E+03 0.  0.
    8880022    1    1    2    0    0 -0.82764803137E+03 -0.14731504574E+04  0.20672344696E+04  0.26743267450E+04  0.15294330000E+03 0.  0.
<mgrwt>
<rscale>  0 0.17835905E+04</rscale>
<asrwt>0</asrwt>
<pdfrwt beam="1">  1        2 0.40394203E+00 0.18135556E+04</pdfrwt>
<pdfrwt beam="2">  1       -2 0.41921230E+00 0.18135556E+04</pdfrwt>
<totfact> 0.14675005E-02</totfact>
</mgrwt>
</event>
<event>
 4    1  0.3032637E-007  0.8411474E+03  0.7818608E-02  0.9628020E-01
         -2   -1    0    0    0  501 -0.00000000000E+00  0.00000000000E+00  0.48067686342E+03  0.48067686342E+03  0.25500000000E-02 0.  1.
          2   -1    0    0  501    0  0.00000000000E+00 -0.00000000000E+00 -0.13232020256E+04  0.13232020256E+04  0.25500000000E-02 0. -1.
    8880023    1    1    2    0    0 -0.50604013229E+03  0.13282373871E+03 -0.50824443218E+02  0.84268148867E+03  0.65864270000E+03 0.  0.
    8880022    1    1    2    0    0  0.50604013229E+03 -0.13282373871E+03 -0.79170071901E+03  0.96119740040E+03  0.15294330000E+03 0.  0.
<mgrwt>
<rscale>  0 0.75469039E+03</rscale>
<asrwt>0</asrwt>
<pdfrwt beam="1">  1        2 0.20356954E+00 0.84114741E+03</pdfrwt>
<pdfrwt beam="2">  1       -2 0.73950287E-01 0.84114741E+03</pdfrwt>
<totfact> 0.26690285E+01</totfact>
</mgrwt>
</event>
<event>
 4    1  0.3032637E-007  0.7793688E+03  0.7818608E-02  0.9757322E-01
         -2   -1    0    0    0  501 -0.00000000000E+00  0.00000000000E+00  0.96680023694E+03  0.96680023694E+03  0.25500000000E-02 0.  1.
          2   -1    0    0  501    0  0.00000000000E+00 -0.00000000000E+00 -0.48651560877E+03  0.48651560877E+03  0.25500000000E-02 0. -1.
    8880023    1    1    2    0    0  0.27422145088E+03 -0.31370064996E+03  0.61133621787E+03  0.99052898971E+03  0.65864270000E+03 0.  0.
    8880022    1    1    2    0    0 -0.27422145088E+03  0.31370064996E+03 -0.13105158970E+03  0.46278685600E+03  0.15294330000E+03 0.  0.
<mgrwt>
<rscale>  0 0.67704066E+03</rscale>
<asrwt>0</asrwt>
<pdfrwt beam="1">  1        2 0.74848556E-01 0.77936879E+03</pdfrwt>
<pdfrwt beam="2">  1       -2 0.14873850E+00 0.77936879E+03</pdfrwt>
<totfact> 0.19690602E+01</totfact>
</mgrwt>
</event>
<event>
 4    1  0.3032637E-007  0.1800902E+04  0.7818608E-02  0.8722038E-01
          2   -1    0    0  501    0  0.00000000000E+00  0.00000000000E+00  0.19713758536E+04  0.19713758536E+04  0.25500000000E-02 0. -1.
         -2   -1    0    0    0  501 -0.00000000000E+00 -0.00000000000E+00 -0.17174818848E+04  0.17174818848E+04  0.25500000000E-02 0.  1.
    8880023    1    1    2    0    0  0.73601818750E+03 -0.15058932369E+04 -0.46295979579E+03  0.18594566927E+04  0.65864270000E+03 0.  0.
    8880022    1    1    2    0    0 -0.73601818750E+03  0.15058932369E+04  0.71685376460E+03  0.18294010457E+04  0.15294330000E+03 0.  0.
<mgrwt>
<rscale>  0 0.17707003E+04</rscale>
<asrwt>0</asrwt>
<pdfrwt beam="1">  1        2 0.30328859E+00 0.18009018E+04</pdfrwt>
<pdfrwt beam="2">  1       -2 0.26422798E+00 0.18009018E+04</pdfrwt>
<totfact> 0.33131147E-01</totfact>
</mgrwt>
</event>
<event>
 4    1  0.3032637E-007  0.9809952E+03  0.7818608E-02  0.9406855E-01
          2   -1    0    0  501    0  0.00000000000E+00  0.00000000000E+00  0.25747722914E+04  0.25747722914E+04  0.25500000000E-02 0. -1.
         -2   -1    0    0    0  501 -0.00000000000E+00 -0.00000000000E+00 -0.31295056525E+03  0.31295056526E+03  0.25500000000E-02 0.  1.
    8880023    1    1    2    0    0  0.99030428600E+01 -0.72694104122E+03  0.87537815372E+03  0.13147769643E+04  0.65864270000E+03 0.  1.
    8880022    1    1    2    0    0 -0.99030428600E+01  0.72694104122E+03  0.13864435725E+04  0.15729458924E+04  0.15294330000E+03 0.  0.
<mgrwt>
<rscale>  0 0.91513666E+03</rscale>
<asrwt>0</asrwt>
<pdfrwt beam="1">  1        2 0.39611882E+00 0.98099519E+03</pdfrwt>
<pdfrwt beam="2">  1       -2 0.48146240E-01 0.98099519E+03</pdfrwt>
<totfact> 0.13074157E+01</totfact>
</mgrwt>
</event>
<event>
 4    1  0.3032637E-007  0.1005507E+04  0.7818608E-02  0.9374388E-01
          2   -1    0    0  501    0  0.00000000000E+00  0.00000000000E+00  0.17633390516E+04  0.17633390516E+04  0.25500000000E-02 0. -1.
         -2   -1    0    0    0  501 -0.00000000000E+00 -0.00000000000E+00 -0.46678575426E+03  0.46678575427E+03  0.25500000000E-02 0.  1.
    8880023    1    1    2    0    0 -0.48600240964E+03  0.58398274215E+03  0.51600798246E+03  0.11301807951E+04  0.65864270000E+03 0. -1.
    8880022    1    1    2    0    0  0.48600240964E+03 -0.58398274215E+03  0.78054531488E+03  0.10999440108E+04  0.15294330000E+03 0.  0.
<mgrwt>
<rscale>  0 0.94213760E+03</rscale>
<asrwt>0</asrwt>
<pdfrwt beam="1">  1        2 0.27128293E+00 0.10055070E+04</pdfrwt>
<pdfrwt beam="2">  1       -2 0.71813194E-01 0.10055070E+04</pdfrwt>
<totfact> 0.15885224E+01</totfact>
</mgrwt>
</event>
<event>
 4    1  0.3032637E-007  0.9546276E+03  0.7818608E-02  0.9443487E-01
         -2   -1    0    0    0  501 -0.00000000000E+00  0.00000000000E+00  0.17360001719E+04  0.17360001719E+04  0.25500000000E-02 0.  1.
          2   -1    0    0  501    0  0.00000000000E+00 -0.00000000000E+00 -0.10914479008E+04  0.10914479008E+04  0.25500000000E-02 0. -1.
    8880023    1    1    2    0    0  0.15062244916E+03 -0.67440091238E+03  0.14620765985E+04  0.17461334138E+04  0.65864270000E+03 0.  1.
    8880022    1    1    2    0    0 -0.15062244916E+03  0.67440091238E+03 -0.81752432728E+03  0.10813146589E+04  0.15294330000E+03 0.  0.
<mgrwt>
<rscale>  0 0.88581673E+03</rscale>
<asrwt>0</asrwt>
<pdfrwt beam="1">  1        2 0.16791506E+00 0.95462763E+03</pdfrwt>
<pdfrwt beam="2">  1       -2 0.26707695E+00 0.95462763E+03</pdfrwt>
<totfact> 0.11197353E+00</totfact>
</mgrwt>
</event>
<event>
 4    1  0.3032637E-007  0.1211780E+04  0.7818608E-02  0.9145756E-01
         -2   -1    0    0    0  501 -0.00000000000E+00  0.00000000000E+00  0.74775062713E+03  0.74775062714E+03  0.25500000000E-02 0.  1.
          2   -1    0    0  501    0  0.00000000000E+00 -0.00000000000E+00 -0.19916697786E+04  0.19916697786E+04  0.25500000000E-02 0. -1.
    8880023    1    1    2    0    0 -0.59539819281E+03  0.82468210660E+03 -0.12287048430E+03  0.12179929996E+04  0.65864270000E+03 0.  0.
    8880022    1    1    2    0    0  0.59539819281E+03 -0.82468210660E+03 -0.11210486672E+04  0.15214274061E+04  0.15294330000E+03 0.  0.
<mgrwt>
<rscale>  0 0.11631293E+04</rscale>
<asrwt>0</asrwt>
<pdfrwt beam="1">  1        2 0.30641073E+00 0.12117796E+04</pdfrwt>
<pdfrwt beam="2">  1       -2 0.11503856E+00 0.12117796E+04</pdfrwt>
<totfact> 0.38819082E+00</totfact>
</mgrwt>
</event>
<event>
 4    1  0.3032637E-007  0.7295500E+03  0.7818608E-02  0.9891504E-01
         -2   -1    0    0    0  501 -0.00000000000E+00  0.00000000000E+00  0.40801159927E+03  0.40801159928E+03  0.25500000000E-02 0.  1.
          2   -1    0    0  501    0  0.00000000000E+00 -0.00000000000E+00 -0.11096300012E+04  0.11096300012E+04  0.25500000000E-02 0. -1.
    8880023    1    1    2    0    0 -0.11111805357E+03  0.29340389659E+03  0.49487335391E+01  0.72956683353E+03  0.65864270000E+03 0.  0.
    8880022    1    1    2    0    0  0.11111805357E+03 -0.29340389659E+03 -0.70656713543E+03  0.78807476691E+03  0.15294330000E+03 0.  0.
<mgrwt>
<rscale>  0 0.60674785E+03</rscale>
<asrwt>0</asrwt>
<pdfrwt beam="1">  1        2 0.17071231E+00 0.72955005E+03</pdfrwt>
<pdfrwt beam="2">  1       -2 0.62771016E-01 0.72955005E+03</pdfrwt>
<totfact> 0.51496935E+01</totfact>
</mgrwt>
</event>
<event>
 4    1  0.3032637E-007  0.1131743E+04  0.7818608E-02  0.9226511E-01
         -2   -1    0    0    0  501 -0.00000000000E+00  0.00000000000E+00  0.22663253007E+04  0.22663253007E+04  0.25500000000E-02 0.  1.
          2   -1    0    0  501    0  0.00000000000E+00 -0.00000000000E+00 -0.15034360854E+04  0.15034360854E+04  0.25500000000E-02 0. -1.
    8880023    1    1    2    0    0 -0.38894203992E+03  0.83411980623E+03  0.19531977775E+04  0.22573930818E+04  0.65864270000E+03 0.  0.
    8880022    1    1    2    0    0  0.38894203992E+03 -0.83411980623E+03 -0.11903085622E+04  0.15123683043E+04  0.15294330000E+03 0.  0.
<mgrwt>
<rscale>  0 0.10783932E+04</rscale>
<asrwt>0</asrwt>
<pdfrwt beam="1">  1        2 0.23129786E+00 0.11317429E+04</pdfrwt>
<pdfrwt beam="2">  1       -2 0.34866543E+00 0.11317429E+04</pdfrwt>
<totfact> 0.19853553E-01</totfact>
</mgrwt>
</event>
<event>
 4    1  0.3032637E-007  0.9541006E+03  0.7818608E-02  0.9444239E-01
          2   -1    0    0  501    0  0.00000000000E+00  0.00000000000E+00  0.10566326103E+04  0.10566326103E+04  0.25500000000E-02 0. -1.
         -2   -1    0    0    0  501 -0.00000000000E+00 -0.00000000000E+00 -0.81054641508E+03  0.81054641509E+03  0.25500000000E-02 0.  1.
    8880023    1    1    2    0    0  0.65048197441E+03  0.23102139318E+03 -0.27030450885E+03  0.99165135854E+03  0.65864270000E+03 0.  1.
    8880022    1    1    2    0    0 -0.65048197441E+03 -0.23102139318E+03  0.51639070404E+03  0.87552766682E+03  0.15294330000E+03 0.  0.
<mgrwt>
<rscale>  0 0.88522740E+03</rscale>
<asrwt>0</asrwt>
<pdfrwt beam="1">  1        2 0.16255886E+00 0.95410057E+03</pdfrwt>
<pdfrwt beam="2">  1       -2 0.12469945E+00 0.95410057E+03</pdfrwt>
<totfact> 0.11143753E+01</totfact>
</mgrwt>
</event>
<event>
 4    1  0.3032637E-007  0.7968248E+03  0.7818608E-02  0.9717704E-01
         -2   -1    0    0    0  501 -0.00000000000E+00  0.00000000000E+00  0.87755597446E+03  0.87755597447E+03  0.25500000000E-02 0.  1.
          2   -1    0    0  501    0  0.00000000000E+00 -0.00000000000E+00 -0.13479880222E+04  0.13479880222E+04  0.25500000000E-02 0. -1.
    8880023    1    1    2    0    0  0.40045329746E+03 -0.20188293264E+03  0.63755531581E+03  0.10204932871E+04  0.65864270000E+03 0.  0.
    8880022    1    1    2    0    0 -0.40045329746E+03  0.20188293264E+03 -0.11079873636E+04  0.12050507096E+04  0.15294330000E+03 0.  0.
<mgrwt>
<rscale>  0 0.69972419E+03</rscale>
<asrwt>0</asrwt>
<pdfrwt beam="1">  1        2 0.20738277E+00 0.79682480E+03</pdfrwt>
<pdfrwt beam="2">  1       -2 0.13500861E+00 0.79682480E+03</pdfrwt>
<totfact> 0.62152243E+00</totfact>
</mgrwt>
</event>
<event>
 4    1  0.3032637E-007  0.6853304E+03  0.7818608E-02  0.1006456E+00
         -2   -1    0    0    0  501 -0.00000000000E+00  0.00000000000E+00  0.43468932120E+03  0.43468932121E+03  0.25500000000E-02 0.  1.
          2   -1    0    0  501    0  0.00000000000E+00 -0.00000000000E+00 -0.21637754136E+04  0.21637754136E+04  0.25500000000E-02 0. -1.
    8880023    1    1    2    0    0 -0.13495145056E+03  0.13287461972E+03  0.15175875337E+03  0.70193196541E+03  0.65864270000E+03 0.  1.
    8880022    1    1    2    0    0  0.13495145056E+03 -0.13287461972E+03 -0.18808448458E+04  0.18965327694E+04  0.15294330000E+03 0.  0.
<mgrwt>
<rscale>  0 0.52907773E+03</rscale>
<asrwt>0</asrwt>
<pdfrwt beam="1">  1        2 0.33288852E+00 0.68533041E+03</pdfrwt>
<pdfrwt beam="2">  1       -2 0.66875281E-01 0.68533041E+03</pdfrwt>
<totfact> 0.11667993E+01</totfact>
</mgrwt>
</event>
<event>
 4    1  0.3032637E-007  0.1123486E+04  0.7818608E-02  0.9235347E-01
         -2   -1    0    0    0  501 -0.00000000000E+00  0.00000000000E+00  0.69384782963E+03  0.69384782964E+03  0.25500000000E-02 0.  1.
          2   -1    0    0  501    0  0.00000000000E+00 -0.00000000000E+00 -0.26697340647E+04  0.26697340647E+04  0.25500000000E-02 0. -1.
    8880023    1    1    2    0    0 -0.51203991331E+03  0.75247953652E+03  0.63292587421E+02  0.11252672943E+04  0.65864270000E+03 0.  0.
    8880022    1    1    2    0    0  0.51203991331E+03 -0.75247953652E+03 -0.20391788225E+04  0.22383146001E+04  0.15294330000E+03 0.  0.
<mgrwt>
<rscale>  0 0.10695918E+04</rscale>
<asrwt>0</asrwt>
<pdfrwt beam="1">  1        2 0.41072831E+00 0.11234859E+04</pdfrwt>
<pdfrwt beam="2">  1       -2 0.10674582E+00 0.11234859E+04</pdfrwt>
<totfact> 0.19441624E+00</totfact>
</mgrwt>
</event>
<event>
 4    1  0.3032637E-007  0.8806253E+03  0.7818608E-02  0.9557879E-01
         -2   -1    0    0    0  501 -0.00000000000E+00  0.00000000000E+00  0.72359073893E+03  0.72359073894E+03  0.25500000000E-02 0.  1.
          2   -1    0    0  501    0  0.00000000000E+00 -0.00000000000E+00 -0.14250911201E+04  0.14250911201E+04  0.25500000000E-02 0. -1.
    8880023    1    1    2    0    0 -0.57443818011E+03 -0.10821999292E+03  0.34050733731E+03  0.94416430914E+03  0.65864270000E+03 0.  0.
    8880022    1    1    2    0    0  0.57443818011E+03  0.10821999292E+03 -0.10420077185E+04  0.12045175499E+04  0.15294330000E+03 0.  0.
<mgrwt>
<rscale>  0 0.80147920E+03</rscale>
<asrwt>0</asrwt>
<pdfrwt beam="1">  1        2 0.21924479E+00 0.88062534E+03</pdfrwt>
<pdfrwt beam="2">  1       -2 0.11132165E+00 0.88062534E+03</pdfrwt>
<totfact> 0.89977335E+00</totfact>
</mgrwt>
</event>
<event>
 4    1  0.3032637E-007  0.6617853E+03  0.7818608E-02  0.1022398E+00
         -2   -1    0    0    0  501 -0.00000000000E+00  0.00000000000E+00  0.12675779003E+04  0.12675779003E+04  0.25500000000E-02 0.  1.
          2   -1    0    0  501    0  0.00000000000E+00 -0.00000000000E+00 -0.47068706663E+03  0.47068706664E+03  0.25500000000E-02 0. -1.
    8880023    1    1    2    0    0 -0.27915420766E+02  0.58054571721E+02  0.11619839999E+04  0.13372234765E+04  0.65864270000E+03 0.  0.
    8880022    1    1    2    0    0  0.27915420766E+02 -0.58054571721E+02 -0.36509316619E+03  0.40104149041E+03  0.15294330000E+03 0. -1.
<mgrwt>
<rscale>  0 0.46831257E+03</rscale>
<asrwt>0</asrwt>
<pdfrwt beam="1">  1        2 0.72413395E-01 0.66178532E+03</pdfrwt>
<pdfrwt beam="2">  1       -2 0.19501198E+00 0.66178532E+03</pdfrwt>
<totfact> 0.97477966E+00</totfact>
</mgrwt>
</event>
<event>
 4    1  0.3032637E-007  0.1420682E+04  0.7818608E-02  0.8967777E-01
          2   -1    0    0  501    0  0.00000000000E+00  0.00000000000E+00  0.17971048423E+04  0.17971048423E+04  0.25500000000E-02 0. -1.
         -2   -1    0    0    0  501 -0.00000000000E+00 -0.00000000000E+00 -0.16568629632E+04  0.16568629632E+04  0.25500000000E-02 0.  1.
    8880023    1    1    2    0    0  0.96533967570E+03  0.80786503954E+03 -0.10090787999E+04  0.17425776431E+04  0.65864270000E+03 0.  0.
    8880022    1    1    2    0    0 -0.96533967570E+03 -0.80786503954E+03  0.11493206790E+04  0.17113901624E+04  0.15294330000E+03 0. -1.
<mgrwt>
<rscale>  0 0.13808790E+04</rscale>
<asrwt>0</asrwt>
<pdfrwt beam="1">  1        2 0.27647767E+00 0.14206818E+04</pdfrwt>
<pdfrwt beam="2">  1       -2 0.25490200E+00 0.14206818E+04</pdfrwt>
<totfact> 0.49145853E-01</totfact>
</mgrwt>
</event>
<event>
 4    1  0.3032637E-007  0.8629603E+03  0.7818608E-02  0.9588319E-01
         -2   -1    0    0    0  501 -0.00000000000E+00  0.00000000000E+00  0.32299133633E+03  0.32299133634E+03  0.25500000000E-02 0.  1.
          2   -1    0    0  501    0  0.00000000000E+00 -0.00000000000E+00 -0.25336303397E+04  0.25336303397E+04  0.25500000000E-02 0. -1.
    8880023    1    1    2    0    0 -0.46680713340E+03  0.30492858665E+03 -0.39113111217E+03  0.94746192320E+03  0.65864270000E+03 0.  1.
    8880022    1    1    2    0    0  0.46680713340E+03 -0.30492858665E+03 -0.18195078912E+04  0.19091597528E+04  0.15294330000E+03 0.  0.
<mgrwt>
<rscale>  0 0.78074148E+03</rscale>
<asrwt>0</asrwt>
<pdfrwt beam="1">  1        2 0.38978927E+00 0.86296034E+03</pdfrwt>
<pdfrwt beam="2">  1       -2 0.49690977E-01 0.86296034E+03</pdfrwt>
<totfact> 0.13147041E+01</totfact>
</mgrwt>
</event>
<event>
 4    1  0.3032637E-007  0.7743994E+03  0.7818608E-02  0.9769161E-01
          2   -1    0    0  501    0  0.00000000000E+00  0.00000000000E+00  0.31437624498E+04  0.31437624498E+04  0.25500000000E-02 0. -1.
         -2   -1    0    0    0  501 -0.00000000000E+00 -0.00000000000E+00 -0.15137738073E+03  0.15137738076E+03  0.25500000000E-02 0.  1.
    8880023    1    1    2    0    0  0.38674485656E+03  0.12772093692E+03  0.10503117474E+04  0.13049326399E+04  0.65864270000E+03 0.  0.
    8880022    1    1    2    0    0 -0.38674485656E+03 -0.12772093692E+03  0.19420733217E+04  0.19902071907E+04  0.15294330000E+03 0.  0.
<mgrwt>
<rscale>  0 0.67044115E+03</rscale>
<asrwt>0</asrwt>
<pdfrwt beam="1">  1        2 0.48365575E+00 0.77439940E+03</pdfrwt>
<pdfrwt beam="2">  1       -2 0.23288829E-01 0.77439940E+03</pdfrwt>
<totfact> 0.24324560E+01</totfact>
</mgrwt>
</event>
<event>
 4    1  0.3032637E-007  0.6744054E+03  0.7818608E-02  0.1012684E+00
         -2   -1    0    0    0  501 -0.00000000000E+00  0.00000000000E+00  0.57983159339E+03  0.57983159339E+03  0.25500000000E-02 0.  1.
          2   -1    0    0  501    0  0.00000000000E+00 -0.00000000000E+00 -0.31758063628E+04  0.31758063628E+04  0.25500000000E-02 0. -1.
    8880023    1    1    2    0    0 -0.75341803350E+02 -0.12383867190E+03  0.37873461421E+03  0.77347431648E+03  0.65864270000E+03 0.  1.
    8880022    1    1    2    0    0  0.75341803350E+02  0.12383867190E+03 -0.29747093837E+04  0.29821636397E+04  0.15294330000E+03 0.  0.
<mgrwt>
<rscale>  0 0.50421829E+03</rscale>
<asrwt>0</asrwt>
<pdfrwt beam="1">  1        2 0.48858558E+00 0.67440538E+03</pdfrwt>
<pdfrwt beam="2">  1       -2 0.89204862E-01 0.67440538E+03</pdfrwt>
<totfact> 0.15862934E+00</totfact>
</mgrwt>
</event>
<event>
 4    1  0.3032637E-007  0.1188211E+04  0.7818608E-02  0.9168668E-01
         -2   -1    0    0    0  501 -0.00000000000E+00  0.00000000000E+00  0.19329508759E+04  0.19329508759E+04  0.25500000000E-02 0.  1.
          2   -1    0    0  501    0  0.00000000000E+00 -0.00000000000E+00 -0.11051486654E+04  0.11051486654E+04  0.25500000000E-02 0. -1.
    8880023    1    1    2    0    0  0.37934696582E+03 -0.91330752654E+03 -0.57092399892E+03  0.13182561122E+04  0.65864270000E+03 0.  1.
    8880022    1    1    2    0    0 -0.37934696582E+03  0.91330752654E+03  0.13987262094E+04  0.17198434290E+04  0.15294330000E+03 0.  0.
<mgrwt>
<rscale>  0 0.11382758E+04</rscale>
<asrwt>0</asrwt>
<pdfrwt beam="1">  1        2 0.17002287E+00 0.11882108E+04</pdfrwt>
<pdfrwt beam="2">  1       -2 0.29737706E+00 0.11882108E+04</pdfrwt>
<totfact> 0.69790159E-01</totfact>
</mgrwt>
</event>
<event>
 4    1  0.3140563E-007  0.1170823E+04  0.7818608E-02  0.9186020E-01
          2   -1    0    0  501    0  0.00000000000E+00  0.00000000000E+00  0.21768473549E+04  0.21768473549E+04  0.25500000000E-02 0. -1.
         -2   -1    0    0    0  501 -0.00000000000E+00 -0.00000000000E+00 -0.13178959334E+04  0.13178959334E+04  0.25500000000E-02 0.  1.
    8880023    1    1    2    0    0  0.91415931834E+03 -0.31832239721E+03 -0.90299721976E+03  0.14785907456E+04  0.65864270000E+03 0.  1.
    8880022    1    1    2    0    0 -0.91415931834E+03  0.31832239721E+03  0.17619486413E+04  0.20161525427E+04  0.15294330000E+03 0.  0.
<mgrwt>
<rscale>  0 0.11198901E+04</rscale>
<asrwt>0</asrwt>
<pdfrwt beam="1">  1        2 0.33489959E+00 0.11708230E+04</pdfrwt>
<pdfrwt beam="2">  1       -2 0.20275322E+00 0.11708230E+04</pdfrwt>
<totfact> 0.66290487E-01</totfact>
</mgrwt>
</event>
<event>
 4    1  0.3032637E-007  0.9641005E+03  0.7818608E-02  0.9430110E-01
         -2   -1    0    0    0  501 -0.00000000000E+00  0.00000000000E+00  0.44242002836E+04  0.44242002836E+04  0.25500000000E-02 0.  1.
          2   -1    0    0  501    0  0.00000000000E+00 -0.00000000000E+00 -0.11486706714E+04  0.11486706714E+04  0.25500000000E-02 0. -1.
    8880023    1    1    2    0    0 -0.18983965549E+03 -0.67796786093E+03  0.42516895000E+04  0.43596276591E+04  0.65864270000E+03 0.  1.
    8880022    1    1    2    0    0  0.18983965549E+03  0.67796786093E+03 -0.97615988786E+03  0.12132432959E+04  0.15294330000E+03 0.  0.
<mgrwt>
<rscale>  0 0.89638604E+03</rscale>
<asrwt>0</asrwt>
<pdfrwt beam="1">  1        2 0.17671857E+00 0.96410047E+03</pdfrwt>
<pdfrwt beam="2">  1       -2 0.68064619E+00 0.96410047E+03</pdfrwt>
<totfact> 0.54295805E-03</totfact>
</mgrwt>
</event>
<event>
 4    1  0.3032637E-007  0.6597420E+03  0.7818608E-02  0.1024422E+00
         -2   -1    0    0    0  501 -0.00000000000E+00  0.00000000000E+00  0.85144226671E+02  0.85144226709E+02  0.25500000000E-02 0.  1.
          2   -1    0    0  501    0  0.00000000000E+00 -0.00000000000E+00 -0.35249589440E+04  0.35249589440E+04  0.25500000000E-02 0. -1.
    8880023    1    1    2    0    0 -0.34249666258E+02 -0.16622097613E+02 -0.12394388694E+04  0.14040898301E+04  0.65864270000E+03 0.  1.
    8880022    1    1    2    0    0  0.34249666258E+02  0.16622097613E+02 -0.22003758479E+04  0.22060133406E+04  0.15294330000E+03 0.  0.
<mgrwt>
<rscale>  0 0.46123974E+03</rscale>
<asrwt>0</asrwt>
<pdfrwt beam="1">  1        2 0.54230126E+00 0.65974203E+03</pdfrwt>
<pdfrwt beam="2">  1       -2 0.13099115E-01 0.65974203E+03</pdfrwt>
<totfact> 0.37580147E+01</totfact>
</mgrwt>
</event>
<event>
 4    1  0.3032637E-007  0.8061192E+03  0.7818608E-02  0.9697718E-01
         -2   -1    0    0    0  501 -0.00000000000E+00  0.00000000000E+00  0.28920429502E+03  0.28920429503E+03  0.25500000000E-02 0.  1.
          2   -1    0    0  501    0  0.00000000000E+00 -0.00000000000E+00 -0.16361980471E+04  0.16361980471E+04  0.25500000000E-02 0. -1.
    8880023    1    1    2    0    0  0.39496286742E+03  0.24499449364E+03 -0.11350403642E+04  0.13921726916E+04  0.65864270000E+03 0. -1.
    8880022    1    1    2    0    0 -0.39496286742E+03 -0.24499449364E+03 -0.21195338783E+03  0.53322965051E+03  0.15294330000E+03 0.  0.
<mgrwt>
<rscale>  0 0.71152826E+03</rscale>
<asrwt>0</asrwt>
<pdfrwt beam="1">  1        2 0.25172277E+00 0.80611921E+03</pdfrwt>
<pdfrwt beam="2">  1       -2 0.44492969E-01 0.80611921E+03</pdfrwt>
<totfact> 0.51888774E+01</totfact>
</mgrwt>
</event>
<event>
 4    1  0.3032637E-007  0.1386273E+04  0.7818608E-02  0.8994423E-01
         -2   -1    0    0    0  501 -0.00000000000E+00  0.00000000000E+00  0.23351700658E+04  0.23351700658E+04  0.25500000000E-02 0.  1.
          2   -1    0    0  501    0  0.00000000000E+00 -0.00000000000E+00 -0.12455770929E+04  0.12455770929E+04  0.25500000000E-02 0. -1.
    8880023    1    1    2    0    0  0.10129778984E+04  0.67957321042E+03 -0.58390588433E+03  0.15042274625E+04  0.65864270000E+03 0. -1.
    8880022    1    1    2    0    0 -0.10129778984E+04 -0.67957321042E+03  0.16734988572E+04  0.20765196962E+04  0.15294330000E+03 0.  0.
<mgrwt>
<rscale>  0 0.13452618E+04</rscale>
<asrwt>0</asrwt>
<pdfrwt beam="1">  1        2 0.19162725E+00 0.13862735E+04</pdfrwt>
<pdfrwt beam="2">  1       -2 0.35925693E+00 0.13862735E+04</pdfrwt>
<totfact> 0.23176317E-01</totfact>
</mgrwt>
</event>
<event>
 4    1  0.3032637E-007  0.7039309E+03  0.7818608E-02  0.9981269E-01
         -2   -1    0    0    0  501 -0.00000000000E+00  0.00000000000E+00  0.18797960389E+03  0.18797960391E+03  0.25500000000E-02 0.  1.
          2   -1    0    0  501    0  0.00000000000E+00 -0.00000000000E+00 -0.17492738078E+04  0.17492738078E+04  0.25500000000E-02 0. -1.
    8880023    1    1    2    0    0  0.21041124186E+03 -0.13204388097E+03 -0.57562017487E+03  0.90931692450E+03  0.65864270000E+03 0.  1.
    8880022    1    1    2    0    0 -0.21041124186E+03  0.13204388097E+03 -0.98567402903E+03  0.10279364872E+04  0.15294330000E+03 0.  0.
<mgrwt>
<rscale>  0 0.56479233E+03</rscale>
<asrwt>0</asrwt>
<pdfrwt beam="1">  1        2 0.26911904E+00 0.70393088E+03</pdfrwt>
<pdfrwt beam="2">  1       -2 0.28919940E-01 0.70393088E+03</pdfrwt>
<totfact> 0.10371055E+02</totfact>
</mgrwt>
</event>
<event>
 4    1  0.3032637E-007  0.7404373E+03  0.7818608E-02  0.9858675E-01
          2   -1    0    0  501    0  0.00000000000E+00  0.00000000000E+00  0.11072886543E+04  0.11072886543E+04  0.25500000000E-02 0. -1.
         -2   -1    0    0    0  501 -0.00000000000E+00 -0.00000000000E+00 -0.10002106641E+04  0.10002106641E+04  0.25500000000E-02 0.  1.
    8880023    1    1    2    0    0  0.23467671741E+03  0.24364742369E+03 -0.82240539149E+03  0.11066155895E+04  0.65864270000E+03 0.  1.
    8880022    1    1    2    0    0 -0.23467671741E+03 -0.24364742369E+03  0.92948338167E+03  0.10008837288E+04  0.15294330000E+03 0.  0.
<mgrwt>
<rscale>  0 0.62306558E+03</rscale>
<asrwt>0</asrwt>
<pdfrwt beam="1">  1        2 0.17035210E+00 0.74043733E+03</pdfrwt>
<pdfrwt beam="2">  1       -2 0.15387856E+00 0.74043733E+03</pdfrwt>
<totfact> 0.61652937E+00</totfact>
</mgrwt>
</event>
<event>
 4    1  0.3032637E-007  0.9959512E+03  0.7818608E-02  0.9386874E-01
         -2   -1    0    0    0  501 -0.00000000000E+00  0.00000000000E+00  0.17407028247E+04  0.17407028247E+04  0.25500000000E-02 0.  1.
          2   -1    0    0  501    0  0.00000000000E+00 -0.00000000000E+00 -0.19193790073E+04  0.19193790073E+04  0.25500000000E-02 0. -1.
    8880023    1    1    2    0    0 -0.39164587695E+03 -0.63617768352E+03  0.15090490151E+04  0.18080784480E+04  0.65864270000E+03 0.  0.
    8880022    1    1    2    0    0  0.39164587695E+03  0.63617768352E+03 -0.16877251978E+04  0.18520033839E+04  0.15294330000E+03 0.  0.
<mgrwt>
<rscale>  0 0.93163816E+03</rscale>
<asrwt>0</asrwt>
<pdfrwt beam="1">  1        2 0.29528908E+00 0.99595118E+03</pdfrwt>
<pdfrwt beam="2">  1       -2 0.26780044E+00 0.99595118E+03</pdfrwt>
<totfact> 0.37227529E-01</totfact>
</mgrwt>
</event>
<event>
 4    1  0.3032637E-007  0.8816787E+03  0.7818608E-02  0.9556107E-01
         -2   -1    0    0    0  501 -0.00000000000E+00  0.00000000000E+00  0.11478697736E+04  0.11478697736E+04  0.25500000000E-02 0.  1.
          2   -1    0    0  501    0  0.00000000000E+00 -0.00000000000E+00 -0.76109695208E+03  0.76109695209E+03  0.25500000000E-02 0. -1.
    8880023    1    1    2    0    0  0.24427111782E+03 -0.53280266536E+03  0.78790681338E+03  0.11824357962E+04  0.65864270000E+03 0.  0.
    8880022    1    1    2    0    0 -0.24427111782E+03  0.53280266536E+03 -0.40113399182E+03  0.72653092957E+03  0.15294330000E+03 0.  0.
<mgrwt>
<rscale>  0 0.80270680E+03</rscale>
<asrwt>0</asrwt>
<pdfrwt beam="1">  1        2 0.11709184E+00 0.88167866E+03</pdfrwt>
<pdfrwt beam="2">  1       -2 0.17659535E+00 0.88167866E+03</pdfrwt>
<totfact> 0.70691358E+00</totfact>
</mgrwt>
</event>
<event>
 4    1  0.3032637E-007  0.2070379E+04  0.7818608E-02  0.8586096E-01
         -2   -1    0    0    0  501 -0.00000000000E+00  0.00000000000E+00  0.14738656902E+04  0.14738656902E+04  0.25500000000E-02 0.  1.
          2   -1    0    0  501    0  0.00000000000E+00 -0.00000000000E+00 -0.39783395389E+04  0.39783395389E+04  0.25500000000E-02 0. -1.
    8880023    1    1    2    0    0 -0.80108448027E+03  0.17919047160E+04  0.22957656300E+03  0.20830685203E+04  0.65864270000E+03 0.  1.
    8880022    1    1    2    0    0  0.80108448027E+03 -0.17919047160E+04 -0.27340504117E+04  0.33691367088E+04  0.15294330000E+03 0.  0.
<mgrwt>
<rscale>  0 0.20444951E+04</rscale>
<asrwt>0</asrwt>
<pdfrwt beam="1">  1        2 0.61205223E+00 0.20703790E+04</pdfrwt>
<pdfrwt beam="2">  1       -2 0.22674857E+00 0.20703790E+04</pdfrwt>
<totfact> 0.28269556E-02</totfact>
</mgrwt>
</event>
<event>
 4    1  0.3032637E-007  0.1324986E+04  0.7818608E-02  0.9044277E-01
         -2   -1    0    0    0  501 -0.00000000000E+00  0.00000000000E+00  0.12960586252E+04  0.12960586252E+04  0.25500000000E-02 0.  1.
          2   -1    0    0  501    0  0.00000000000E+00 -0.00000000000E+00 -0.26177123081E+04  0.26177123081E+04  0.25500000000E-02 0. -1.
    8880023    1    1    2    0    0  0.45404682132E+03 -0.10562292031E+04  0.76243662690E+03  0.15286917484E+04  0.65864270000E+03 0.  1.
    8880022    1    1    2    0    0 -0.45404682132E+03  0.10562292031E+04 -0.20840903098E+04  0.23850791848E+04  0.15294330000E+03 0.  0.
<mgrwt>
<rscale>  0 0.12816095E+04</rscale>
<asrwt>0</asrwt>
<pdfrwt beam="1">  1        2 0.40272497E+00 0.13249864E+04</pdfrwt>
<pdfrwt beam="2">  1       -2 0.19939363E+00 0.13249864E+04</pdfrwt>
<totfact> 0.38306439E-01</totfact>
</mgrwt>
</event>
<event>
 4    1  0.3032637E-007  0.7625350E+03  0.7818608E-02  0.9798588E-01
          2   -1    0    0  501    0  0.00000000000E+00  0.00000000000E+00  0.15347345503E+04  0.15347345503E+04  0.25500000000E-02 0. -1.
         -2   -1    0    0    0  501 -0.00000000000E+00 -0.00000000000E+00 -0.61205979870E+03  0.61205979871E+03  0.25500000000E-02 0.  1.
    8880023    1    1    2    0    0  0.34034760526E+03 -0.17836179302E+03 -0.32757387646E+03  0.82991823237E+03  0.65864270000E+03 0.  0.
    8880022    1    1    2    0    0 -0.34034760526E+03  0.17836179302E+03  0.12502486281E+04  0.13168761167E+04  0.15294330000E+03 0.  0.
<mgrwt>
<rscale>  0 0.65438357E+03</rscale>
<asrwt>0</asrwt>
<pdfrwt beam="1">  1        2 0.23611301E+00 0.76253500E+03</pdfrwt>
<pdfrwt beam="2">  1       -2 0.94163046E-01 0.76253500E+03</pdfrwt>
<totfact> 0.11815991E+01</totfact>
</mgrwt>
</event>
<event>
 4    1  0.3032637E-007  0.1187457E+04  0.7818608E-02  0.9169412E-01
         -2   -1    0    0    0  501 -0.00000000000E+00  0.00000000000E+00  0.16041780320E+04  0.16041780320E+04  0.25500000000E-02 0.  1.
          2   -1    0    0  501    0  0.00000000000E+00 -0.00000000000E+00 -0.21237584902E+04  0.21237584902E+04  0.25500000000E-02 0. -1.
    8880023    1    1    2    0    0  0.89568627211E+03  0.41712141126E+03  0.12319909101E+04  0.17110978869E+04  0.65864270000E+03 0.  0.
    8880022    1    1    2    0    0 -0.89568627211E+03 -0.41712141126E+03 -0.17515713682E+04  0.20168386353E+04  0.15294330000E+03 0.  0.
<mgrwt>
<rscale>  0 0.11374798E+04</rscale>
<asrwt>0</asrwt>
<pdfrwt beam="1">  1        2 0.32673207E+00 0.11874571E+04</pdfrwt>
<pdfrwt beam="2">  1       -2 0.24679662E+00 0.11874571E+04</pdfrwt>
<totfact> 0.37380230E-01</totfact>
</mgrwt>
</event>
<event>
 4    1  0.3032637E-007  0.1243529E+04  0.7818608E-02  0.9115928E-01
          2   -1    0    0  501    0  0.00000000000E+00  0.00000000000E+00  0.20746580751E+04  0.20746580751E+04  0.25500000000E-02 0. -1.
         -2   -1    0    0    0  501 -0.00000000000E+00 -0.00000000000E+00 -0.15095237898E+04  0.15095237898E+04  0.25500000000E-02 0.  1.
    8880023    1    1    2    0    0 -0.60354353815E+03 -0.86503718427E+03 -0.10645266337E+04  0.16369426663E+04  0.65864270000E+03 0.  0.
    8880022    1    1    2    0    0  0.60354353815E+03  0.86503718427E+03  0.16296609190E+04  0.19472391986E+04  0.15294330000E+03 0.  0.
<mgrwt>
<rscale>  0 0.11964971E+04</rscale>
<asrwt>0</asrwt>
<pdfrwt beam="1">  1        2 0.31917816E+00 0.12435290E+04</pdfrwt>
<pdfrwt beam="2">  1       -2 0.23223443E+00 0.12435290E+04</pdfrwt>
<totfact> 0.48591906E-01</totfact>
</mgrwt>
</event>
<event>
 4    1  0.3032637E-007  0.1804212E+04  0.7818608E-02  0.8720210E-01
          2   -1    0    0  501    0  0.00000000000E+00  0.00000000000E+00  0.31557964567E+04  0.31557964567E+04  0.25500000000E-02 0. -1.
         -2   -1    0    0    0  501 -0.00000000000E+00 -0.00000000000E+00 -0.14353429943E+04  0.14353429944E+04  0.25500000000E-02 0.  1.
    8880023    1    1    2    0    0  0.45059766852E+03  0.16181259795E+04 -0.43334220006E+03  0.18555230026E+04  0.65864270000E+03 0.  0.
    8880022    1    1    2    0    0 -0.45059766852E+03 -0.16181259795E+04  0.21537956624E+04  0.27356164484E+04  0.15294330000E+03 0.  0.
<mgrwt>
<rscale>  0 0.17740725E+04</rscale>
<asrwt>0</asrwt>
<pdfrwt beam="1">  1        2 0.48550714E+00 0.18042118E+04</pdfrwt>
<pdfrwt beam="2">  1       -2 0.22082200E+00 0.18042118E+04</pdfrwt>
<totfact> 0.12299552E-01</totfact>
</mgrwt>
</event>
<event>
 4    1  0.3032637E-007  0.1255437E+04  0.7818608E-02  0.9105031E-01
         -2   -1    0    0    0  501 -0.00000000000E+00  0.00000000000E+00  0.10017062151E+04  0.10017062151E+04  0.25500000000E-02 0.  1.
          2   -1    0    0  501    0  0.00000000000E+00 -0.00000000000E+00 -0.37097776785E+04  0.37097776785E+04  0.25500000000E-02 0. -1.
    8880023    1    1    2    0    0  0.28855325512E+03 -0.10291011126E+04  0.48113578669E+03  0.13444753373E+04  0.65864270000E+03 0.  0.
    8880022    1    1    2    0    0 -0.28855325512E+03  0.10291011126E+04 -0.31892072502E+04  0.33670085563E+04  0.15294330000E+03 0.  0.
<mgrwt>
<rscale>  0 0.12089817E+04</rscale>
<asrwt>0</asrwt>
<pdfrwt beam="1">  1        2 0.57073502E+00 0.12554371E+04</pdfrwt>
<pdfrwt beam="2">  1       -2 0.15410865E+00 0.12554371E+04</pdfrwt>
<totfact> 0.15849362E-01</totfact>
</mgrwt>
</event>
<event>
 4    1  0.3032637E-007  0.1228543E+04  0.7818608E-02  0.9129863E-01
          2   -1    0    0  501    0  0.00000000000E+00  0.00000000000E+00  0.19741364491E+04  0.19741364491E+04  0.25500000000E-02 0. -1.
         -2   -1    0    0    0  501 -0.00000000000E+00 -0.00000000000E+00 -0.66185533563E+03  0.66185533564E+03  0.25500000000E-02 0.  1.
    8880023    1    1    2    0    0  0.10367807423E+04 -0.24384365579E+02  0.58928846248E+03  0.13625637611E+04  0.65864270000E+03 0.  0.
    8880022    1    1    2    0    0 -0.10367807423E+04  0.24384365579E+02  0.72299265096E+03  0.12734280236E+04  0.15294330000E+03 0.  0.
<mgrwt>
<rscale>  0 0.11807629E+04</rscale>
<asrwt>0</asrwt>
<pdfrwt beam="1">  1        2 0.30371330E+00 0.12285435E+04</pdfrwt>
<pdfrwt beam="2">  1       -2 0.10182390E+00 0.12285435E+04</pdfrwt>
<totfact> 0.53319708E+00</totfact>
</mgrwt>
</event>
<event>
 4    1  0.3032637E-007  0.9319004E+03  0.7818608E-02  0.9476648E-01
          2   -1    0    0  501    0  0.00000000000E+00  0.00000000000E+00  0.93444430810E+03  0.93444430810E+03  0.25500000000E-02 0. -1.
         -2   -1    0    0    0  501 -0.00000000000E+00 -0.00000000000E+00 -0.88070804528E+03  0.88070804529E+03  0.25500000000E-02 0.  1.
    8880023    1    1    2    0    0 -0.63232689303E+03 -0.18652305351E+03 -0.38533854401E+03  0.10084265709E+04  0.65864270000E+03 0. -1.
    8880022    1    1    2    0    0  0.63232689303E+03  0.18652305351E+03  0.43907480682E+03  0.80672578249E+03  0.15294330000E+03 0.  0.
<mgrwt>
<rscale>  0 0.86027570E+03</rscale>
<asrwt>0</asrwt>
<pdfrwt beam="1">  1        2 0.14376066E+00 0.93190040E+03</pdfrwt>
<pdfrwt beam="2">  1       -2 0.13549355E+00 0.93190040E+03</pdfrwt>
<totfact> 0.10843576E+01</totfact>
</mgrwt>
</event>
<event>
 4    1  0.3032637E-007  0.7224006E+03  0.7818608E-02  0.9914545E-01
          2   -1    0    0  501    0  0.00000000000E+00  0.00000000000E+00  0.95388575827E+03  0.95388575827E+03  0.25500000000E-02 0. -1.
         -2   -1    0    0    0  501 -0.00000000000E+00 -0.00000000000E+00 -0.17318613980E+04  0.17318613980E+04  0.25500000000E-02 0.  1.
    8880023    1    1    2    0    0  0.29640494467E+03 -0.14016949774E+02 -0.16233580744E+04  0.17768382060E+04  0.65864270000E+03 0.  1.
    8880022    1    1    2    0    0 -0.29640494467E+03  0.14016949774E+02  0.84538243468E+03  0.90890895032E+03  0.15294330000E+03 0.  0.
<mgrwt>
<rscale>  0 0.59561504E+03</rscale>
<asrwt>0</asrwt>
<pdfrwt beam="1">  1        2 0.14675165E+00 0.72240056E+03</pdfrwt>
<pdfrwt beam="2">  1       -2 0.26644022E+00 0.72240056E+03</pdfrwt>
<totfact> 0.14336948E+00</totfact>
</mgrwt>
</event>
<event>
 4    1  0.3032637E-007  0.6934528E+03  0.7818608E-02  0.1002553E+00
         -2   -1    0    0    0  501 -0.00000000000E+00  0.00000000000E+00  0.61011787482E+03  0.61011787483E+03  0.25500000000E-02 0.  1.
          2   -1    0    0  501    0  0.00000000000E+00 -0.00000000000E+00 -0.20185721044E+04  0.20185721044E+04  0.25500000000E-02 0. -1.
    8880023    1    1    2    0    0  0.17004189222E+03  0.13473051908E+03  0.40020920033E+03  0.80065233914E+03  0.65864270000E+03 0.  0.
    8880022    1    1    2    0    0 -0.17004189222E+03 -0.13473051908E+03 -0.18086634299E+04  0.18280376401E+04  0.15294330000E+03 0. -1.
<mgrwt>
<rscale>  0 0.54544897E+03</rscale>
<asrwt>0</asrwt>
<pdfrwt beam="1">  1        2 0.31054955E+00 0.69345278E+03</pdfrwt>
<pdfrwt beam="2">  1       -2 0.93864289E-01 0.69345278E+03</pdfrwt>
<totfact> 0.65423026E+00</totfact>
</mgrwt>
</event>
<event>
 4    1  0.3032637E-007  0.1647823E+04  0.7818608E-02  0.8811742E-01
         -2   -1    0    0    0  501 -0.00000000000E+00  0.00000000000E+00  0.23461077757E+04  0.23461077757E+04  0.25500000000E-02 0.  1.
          2   -1    0    0  501    0  0.00000000000E+00 -0.00000000000E+00 -0.12066148811E+04  0.12066148811E+04  0.25500000000E-02 0. -1.
    8880023    1    1    2    0    0  0.63870412114E+03  0.13687834379E+04 -0.10985170967E+02  0.16478598043E+04  0.65864270000E+03 0. -1.
    8880022    1    1    2    0    0 -0.63870412114E+03 -0.13687834379E+04  0.11504780656E+04  0.19048628525E+04  0.15294330000E+03 0.  0.
<mgrwt>
<rscale>  0 0.16144126E+04</rscale>
<asrwt>0</asrwt>
<pdfrwt beam="1">  1        2 0.18563306E+00 0.16478232E+04</pdfrwt>
<pdfrwt beam="2">  1       -2 0.36093966E+00 0.16478232E+04</pdfrwt>
<totfact> 0.23188406E-01</totfact>
</mgrwt>
</event>
<event>
 4    1  0.3032637E-007  0.6726651E+03  0.7818608E-02  0.1013820E+00
         -2   -1    0    0    0  501 -0.00000000000E+00  0.00000000000E+00  0.24426531491E+04  0.24426531491E+04  0.25500000000E-02 0.  1.
          2   -1    0    0  501    0  0.00000000000E+00 -0.00000000000E+00 -0.31062284050E+04  0.31062284050E+04  0.25500000000E-02 0. -1.
    8880023    1    1    2    0    0 -0.88210196290E+02  0.10434094685E+03  0.23928413657E+04  0.24855920984E+04  0.65864270000E+03 0.  1.
    8880022    1    1    2    0    0  0.88210196290E+02 -0.10434094685E+03 -0.30564166216E+04  0.30632894558E+04  0.15294330000E+03 0.  0.
<mgrwt>
<rscale>  0 0.49984166E+03</rscale>
<asrwt>0</asrwt>
<pdfrwt beam="1">  1        2 0.47788129E+00 0.67266506E+03</pdfrwt>
<pdfrwt beam="2">  1       -2 0.37579279E+00 0.67266506E+03</pdfrwt>
<totfact> 0.18353086E-02</totfact>
</mgrwt>
</event>
<event>
 4    1  0.3032637E-007  0.1035294E+04  0.7818608E-02  0.9336773E-01
          2   -1    0    0  501    0  0.00000000000E+00  0.00000000000E+00  0.62318662648E+03  0.62318662648E+03  0.25500000000E-02 0. -1.
         -2   -1    0    0    0  501 -0.00000000000E+00 -0.00000000000E+00 -0.16449608992E+04  0.16449608992E+04  0.25500000000E-02 0.  1.
    8880023    1    1    2    0    0 -0.33322050507E+03 -0.72593894621E+03 -0.10221656802E+04  0.14548732394E+04  0.65864270000E+03 0.  0.
    8880022    1    1    2    0    0  0.33322050507E+03  0.72593894621E+03  0.39140741642E+00  0.81327428635E+03  0.15294330000E+03 0.  0.
<mgrwt>
<rscale>  0 0.97466863E+03</rscale>
<asrwt>0</asrwt>
<pdfrwt beam="1">  1        2 0.95874866E-01 0.10352939E+04</pdfrwt>
<pdfrwt beam="2">  1       -2 0.25307091E+00 0.10352939E+04</pdfrwt>
<totfact> 0.29004192E+00</totfact>
</mgrwt>
</event>
<event>
 4    1  0.3032637E-007  0.1220540E+04  0.7818608E-02  0.9137410E-01
         -2   -1    0    0    0  501 -0.00000000000E+00  0.00000000000E+00  0.16146524142E+04  0.16146524142E+04  0.25500000000E-02 0.  1.
          2   -1    0    0  501    0  0.00000000000E+00 -0.00000000000E+00 -0.21934882292E+04  0.21934882292E+04  0.25500000000E-02 0. -1.
    8880023    1    1    2    0    0  0.94824044177E+03 -0.39591388710E+03  0.12232626312E+04  0.17280305011E+04  0.65864270000E+03 0.  0.
    8880022    1    1    2    0    0 -0.94824044177E+03  0.39591388710E+03 -0.18020984462E+04  0.20801101423E+04  0.15294330000E+03 0.  0.
<mgrwt>
<rscale>  0 0.11723486E+04</rscale>
<asrwt>0</asrwt>
<pdfrwt beam="1">  1        2 0.33745973E+00 0.12205400E+04</pdfrwt>
<pdfrwt beam="2">  1       -2 0.24840806E+00 0.12205400E+04</pdfrwt>
<totfact> 0.33248525E-01</totfact>
</mgrwt>
</event>
<event>
 4    1  0.3032637E-007  0.6679113E+03  0.7818608E-02  0.1017207E+00
         -2   -1    0    0    0  501 -0.00000000000E+00  0.00000000000E+00  0.73396528171E+03  0.73396528171E+03  0.25500000000E-02 0.  1.
          2   -1    0    0  501    0  0.00000000000E+00 -0.00000000000E+00 -0.69174994307E+03  0.69174994307E+03  0.25500000000E-02 0. -1.
    8880023    1    1    2    0    0 -0.21959775911E+02  0.10868802660E+03  0.56185422066E+03  0.87280335152E+03  0.65864270000E+03 0.  1.
    8880022    1    1    2    0    0  0.21959775911E+02 -0.10868802660E+03 -0.51963888201E+03  0.55291187327E+03  0.15294330000E+03 0.  0.
<mgrwt>
<rscale>  0 0.48708282E+03</rscale>
<asrwt>0</asrwt>
<pdfrwt beam="1">  1        2 0.10642307E+00 0.66791132E+03</pdfrwt>
<pdfrwt beam="2">  1       -2 0.11291774E+00 0.66791132E+03</pdfrwt>
<totfact> 0.26188779E+01</totfact>
</mgrwt>
</event>
<event>
 4    1  0.3032637E-007  0.9652969E+03  0.7818608E-02  0.9428439E-01
         -2   -1    0    0    0  501 -0.00000000000E+00  0.00000000000E+00  0.11805397459E+04  0.11805397459E+04  0.25500000000E-02 0.  1.
          2   -1    0    0  501    0  0.00000000000E+00 -0.00000000000E+00 -0.91347974595E+03  0.91347974595E+03  0.25500000000E-02 0. -1.
    8880023    1    1    2    0    0  0.31552634651E+03 -0.63121395812E+03  0.75249450006E+03  0.12239469413E+04  0.65864270000E+03 0.  0.
    8880022    1    1    2    0    0 -0.31552634651E+03  0.63121395812E+03 -0.48543450012E+03  0.87007255053E+03  0.15294330000E+03 0.  0.
<mgrwt>
<rscale>  0 0.89771802E+03</rscale>
<asrwt>0</asrwt>
<pdfrwt beam="1">  1        2 0.14053535E+00 0.96529692E+03</pdfrwt>
<pdfrwt beam="2">  1       -2 0.18162150E+00 0.96529692E+03</pdfrwt>
<totfact> 0.50492750E+00</totfact>
</mgrwt>
</event>
<event>
 4    1  0.3032637E-007  0.6920744E+03  0.7818608E-02  0.1003182E+00
         -2   -1    0    0    0  501 -0.00000000000E+00  0.00000000000E+00  0.26453311687E+03  0.26453311688E+03  0.25500000000E-02 0.  1.
          2   -1    0    0  501    0  0.00000000000E+00 -0.00000000000E+00 -0.92762137886E+03  0.92762137887E+03  0.25500000000E-02 0. -1.
    8880023    1    1    2    0    0  0.20188852955E+03  0.66316182029E+02 -0.32511989849E+03  0.76463714860E+03  0.65864270000E+03 0.  1.
    8880022    1    1    2    0    0 -0.20188852955E+03 -0.66316182029E+02 -0.33796836351E+03  0.42751734714E+03  0.15294330000E+03 0. -1.
<mgrwt>
<rscale>  0 0.54276811E+03</rscale>
<asrwt>0</asrwt>
<pdfrwt beam="1">  1        2 0.14271098E+00 0.69207443E+03</pdfrwt>
<pdfrwt beam="2">  1       -2 0.40697403E-01 0.69207443E+03</pdfrwt>
<totfact> 0.16296125E+02</totfact>
</mgrwt>
</event>
<event>
 4    1  0.3032637E-007  0.7874182E+03  0.7818608E-02  0.9738691E-01
         -2   -1    0    0    0  501 -0.00000000000E+00  0.00000000000E+00  0.36189300668E+03  0.36189300669E+03  0.25500000000E-02 0.  1.
          2   -1    0    0  501    0  0.00000000000E+00 -0.00000000000E+00 -0.26400399649E+04  0.26400399649E+04  0.25500000000E-02 0. -1.
    8880023    1    1    2    0    0 -0.42196460771E+03  0.90349760124E+02 -0.12090849010E+03  0.79664689703E+03  0.65864270000E+03 0.  1.
    8880022    1    1    2    0    0  0.42196460771E+03 -0.90349760124E+02 -0.21572384681E+04  0.22052860745E+04  0.15294330000E+03 0.  0.
<mgrwt>
<rscale>  0 0.68759117E+03</rscale>
<asrwt>0</asrwt>
<pdfrwt beam="1">  1        2 0.40615998E+00 0.78741820E+03</pdfrwt>
<pdfrwt beam="2">  1       -2 0.55675849E-01 0.78741820E+03</pdfrwt>
<totfact> 0.91398195E+00</totfact>
</mgrwt>
</event>
<event>
 4    1  0.3032637E-007  0.7669033E+03  0.7818608E-02  0.9787553E-01
         -2   -1    0    0    0  501 -0.00000000000E+00  0.00000000000E+00  0.11634753111E+04  0.11634753111E+04  0.25500000000E-02 0.  1.
          2   -1    0    0  501    0  0.00000000000E+00 -0.00000000000E+00 -0.35738851787E+03  0.35738851788E+03  0.25500000000E-02 0. -1.
    8880023    1    1    2    0    0 -0.34755530605E+03  0.18312758413E+03  0.21800375913E+03  0.79728680416E+03  0.65864270000E+03 0.  0.
    8880022    1    1    2    0    0  0.34755530605E+03 -0.18312758413E+03  0.58808303409E+03  0.72357702481E+03  0.15294330000E+03 0.  0.
<mgrwt>
<rscale>  0 0.66034836E+03</rscale>
<asrwt>0</asrwt>
<pdfrwt beam="1">  1        2 0.54982851E-01 0.76690326E+03</pdfrwt>
<pdfrwt beam="2">  1       -2 0.17899620E+00 0.76690326E+03</pdfrwt>
<totfact> 0.16861249E+01</totfact>
</mgrwt>
</event>
<event>
 4    1  0.3032637E-007  0.8026641E+03  0.7818608E-02  0.9705065E-01
         -2   -1    0    0    0  501 -0.00000000000E+00  0.00000000000E+00  0.17001536634E+03  0.17001536636E+03  0.25500000000E-02 0.  1.
          2   -1    0    0  501    0  0.00000000000E+00 -0.00000000000E+00 -0.28981319479E+04  0.28981319479E+04  0.25500000000E-02 0. -1.
    8880023    1    1    2    0    0  0.42689967554E+03  0.16797656410E+03 -0.10494635425E+04  0.13212279865E+04  0.65864270000E+03 0.  0.
    8880022    1    1    2    0    0 -0.42689967554E+03 -0.16797656410E+03 -0.16786530391E+04  0.17469193277E+04  0.15294330000E+03 0.  0.
<mgrwt>
<rscale>  0 0.70716020E+03</rscale>
<asrwt>0</asrwt>
<pdfrwt beam="1">  1        2 0.44586642E+00 0.80266410E+03</pdfrwt>
<pdfrwt beam="2">  1       -2 0.26156212E-01 0.80266410E+03</pdfrwt>
<totfact> 0.27824836E+01</totfact>
</mgrwt>
</event>
<event>
 4    1  0.3032637E-007  0.7701822E+03  0.7818608E-02  0.9779426E-01
          2   -1    0    0  501    0  0.00000000000E+00  0.00000000000E+00  0.15138882645E+04  0.15138882645E+04  0.25500000000E-02 0. -1.
         -2   -1    0    0    0  501 -0.00000000000E+00 -0.00000000000E+00 -0.70833541121E+03  0.70833541122E+03  0.25500000000E-02 0.  1.
    8880023    1    1    2    0    0  0.26626075569E+03  0.29744840696E+03 -0.45266845179E+03  0.89335842657E+03  0.65864270000E+03 0.  1.
    8880022    1    1    2    0    0 -0.26626075569E+03 -0.29744840696E+03  0.12582213050E+04  0.13288652491E+04  0.15294330000E+03 0.  0.
<mgrwt>
<rscale>  0 0.66478441E+03</rscale>
<asrwt>0</asrwt>
<pdfrwt beam="1">  1        2 0.23290589E+00 0.77018215E+03</pdfrwt>
<pdfrwt beam="2">  1       -2 0.10897468E+00 0.77018215E+03</pdfrwt>
<totfact> 0.85652397E+00</totfact>
</mgrwt>
</event>
<event>
 4    1  0.3032637E-007  0.7310102E+03  0.7818608E-02  0.9886953E-01
         -2   -1    0    0    0  501 -0.00000000000E+00  0.00000000000E+00  0.23488239346E+03  0.23488239347E+03  0.25500000000E-02 0.  1.
          2   -1    0    0  501    0  0.00000000000E+00 -0.00000000000E+00 -0.18096601749E+04  0.18096601750E+04  0.25500000000E-02 0. -1.
    8880023    1    1    2    0    0 -0.40810747651E+01  0.31709468110E+03 -0.43280208246E+03  0.84952547978E+03  0.65864270000E+03 0. -1.
    8880022    1    1    2    0    0  0.40810747651E+01 -0.31709468110E+03 -0.11419756990E+04  0.11950170886E+04  0.15294330000E+03 0. -1.
<mgrwt>
<rscale>  0 0.60897800E+03</rscale>
<asrwt>0</asrwt>
<pdfrwt beam="1">  1        2 0.27840925E+00 0.73101019E+03</pdfrwt>
<pdfrwt beam="2">  1       -2 0.36135754E-01 0.73101019E+03</pdfrwt>
<totfact> 0.63090623E+01</totfact>
</mgrwt>
</event>
<event>
 4    1  0.3032637E-007  0.8401329E+03  0.7818608E-02  0.9629930E-01
         -2   -1    0    0    0  501 -0.00000000000E+00  0.00000000000E+00  0.27747522536E+03  0.27747522537E+03  0.25500000000E-02 0.  1.
          2   -1    0    0  501    0  0.00000000000E+00 -0.00000000000E+00 -0.18868147752E+04  0.18868147752E+04  0.25500000000E-02 0. -1.
    8880023    1    1    2    0    0 -0.16203652368E+03 -0.49573902329E+03 -0.65209976576E+03  0.10635117888E+04  0.65864270000E+03 0.  0.
    8880022    1    1    2    0    0  0.16203652368E+03  0.49573902329E+03 -0.95723978412E+03  0.11007782118E+04  0.15294330000E+03 0.  0.
<mgrwt>
<rscale>  0 0.75346511E+03</rscale>
<asrwt>0</asrwt>
<pdfrwt beam="1">  1        2 0.29027919E+00 0.84013286E+03</pdfrwt>
<pdfrwt beam="2">  1       -2 0.42688498E-01 0.84013286E+03</pdfrwt>
<totfact> 0.40913216E+01</totfact>
</mgrwt>
</event>
<event>
 4    1  0.3032637E-007  0.7619418E+03  0.7818608E-02  0.9800106E-01
          2   -1    0    0  501    0  0.00000000000E+00  0.00000000000E+00  0.64207396773E+03  0.64207396774E+03  0.25500000000E-02 0. -1.
         -2   -1    0    0    0  501 -0.00000000000E+00 -0.00000000000E+00 -0.14880828650E+04  0.14880828650E+04  0.25500000000E-02 0.  1.
    8880023    1    1    2    0    0 -0.31824885707E+03  0.21322005148E+03 -0.13061860905E+04  0.15121763900E+04  0.65864270000E+03 0.  1.
    8880022    1    1    2    0    0  0.31824885707E+03 -0.21322005148E+03  0.46017719321E+03  0.61798044269E+03  0.15294330000E+03 0.  0.
<mgrwt>
<rscale>  0 0.65356853E+03</rscale>
<asrwt>0</asrwt>
<pdfrwt beam="1">  1        2 0.98780611E-01 0.76194182E+03</pdfrwt>
<pdfrwt beam="2">  1       -2 0.22893583E+00 0.76194182E+03</pdfrwt>
<totfact> 0.40589112E+00</totfact>
</mgrwt>
</event>
<event>
 4    1  0.3032637E-007  0.1485677E+04  0.7818608E-02  0.8919817E-01
         -2   -1    0    0    0  501 -0.00000000000E+00  0.00000000000E+00  0.19948996210E+04  0.19948996210E+04  0.25500000000E-02 0.  1.
          2   -1    0    0  501    0  0.00000000000E+00 -0.00000000000E+00 -0.10485594083E+04  0.10485594083E+04  0.25500000000E-02 0. -1.
    8880023    1    1    2    0    0  0.11895916108E+04 -0.59857961395E+03  0.82029546817E+03  0.16970918114E+04  0.65864270000E+03 0.  0.
    8880022    1    1    2    0    0 -0.11895916108E+04  0.59857961395E+03  0.12604474450E+03  0.13463672179E+04  0.15294330000E+03 0.  0.
<mgrwt>
<rscale>  0 0.14479590E+04</rscale>
<asrwt>0</asrwt>
<pdfrwt beam="1">  1        2 0.16131683E+00 0.14856769E+04</pdfrwt>
<pdfrwt beam="2">  1       -2 0.30690763E+00 0.14856769E+04</pdfrwt>
<totfact> 0.64146153E-01</totfact>
</mgrwt>
</event>
<event>
 4    1  0.3032637E-007  0.1518140E+04  0.7818608E-02  0.8896932E-01
         -2   -1    0    0    0  501 -0.00000000000E+00  0.00000000000E+00  0.11637697102E+04  0.11637697102E+04  0.25500000000E-02 0.  1.
          2   -1    0    0  501    0  0.00000000000E+00 -0.00000000000E+00 -0.20743348419E+04  0.20743348419E+04  0.25500000000E-02 0. -1.
    8880023    1    1    2    0    0 -0.20309441273E+03 -0.13526611396E+04  0.11379516502E+03  0.15223991083E+04  0.65864270000E+03 0.  1.
    8880022    1    1    2    0    0  0.20309441273E+03  0.13526611396E+04 -0.10243602967E+04  0.17157054437E+04  0.15294330000E+03 0. -1.
<mgrwt>
<rscale>  0 0.14813780E+04</rscale>
<asrwt>0</asrwt>
<pdfrwt beam="1">  1        2 0.31912844E+00 0.15181402E+04</pdfrwt>
<pdfrwt beam="2">  1       -2 0.17904149E+00 0.15181402E+04</pdfrwt>
<totfact> 0.10503604E+00</totfact>
</mgrwt>
</event>
<event>
 4    1  0.3032637E-007  0.1422838E+04  0.7818608E-02  0.8966137E-01
         -2   -1    0    0    0  501 -0.00000000000E+00  0.00000000000E+00  0.20554299622E+04  0.20554299622E+04  0.25500000000E-02 0.  1.
          2   -1    0    0  501    0  0.00000000000E+00 -0.00000000000E+00 -0.13144916547E+04  0.13144916547E+04  0.25500000000E-02 0. -1.
    8880023    1    1    2    0    0 -0.58570951560E+02 -0.12598516109E+04  0.13496886517E+04  0.19611543286E+04  0.65864270000E+03 0.  0.
    8880022    1    1    2    0    0  0.58570951560E+02  0.12598516109E+04 -0.60875034425E+03  0.14087672883E+04  0.15294330000E+03 0.  0.
<mgrwt>
<rscale>  0 0.13831079E+04</rscale>
<asrwt>0</asrwt>
<pdfrwt beam="1">  1        2 0.20222949E+00 0.14228376E+04</pdfrwt>
<pdfrwt beam="2">  1       -2 0.31621999E+00 0.14228376E+04</pdfrwt>
<totfact> 0.38970494E-01</totfact>
</mgrwt>
</event>
<event>
 4    1  0.3032637E-007  0.1155768E+04  0.7818608E-02  0.9201366E-01
          2   -1    0    0  501    0  0.00000000000E+00  0.00000000000E+00  0.22959855642E+04  0.22959855642E+04  0.25500000000E-02 0. -1.
         -2   -1    0    0    0  501 -0.00000000000E+00 -0.00000000000E+00 -0.80705758624E+03  0.80705758625E+03  0.25500000000E-02 0.  1.
    8880023    1    1    2    0    0  0.42726562886E+03 -0.84819426470E+03 -0.18686255940E+03  0.11707763453E+04  0.65864270000E+03 0.  0.
    8880022    1    1    2    0    0 -0.42726562886E+03  0.84819426470E+03  0.16757905373E+04  0.19322668052E+04  0.15294330000E+03 0.  0.
<mgrwt>
<rscale>  0 0.11039339E+04</rscale>
<asrwt>0</asrwt>
<pdfrwt beam="1">  1        2 0.35322854E+00 0.11557680E+04</pdfrwt>
<pdfrwt beam="2">  1       -2 0.12416271E+00 0.11557680E+04</pdfrwt>
<totfact> 0.21851091E+00</totfact>
</mgrwt>
</event>
<event>
 4    1  0.3032637E-007  0.9959823E+03  0.7818608E-02  0.9386833E-01
         -2   -1    0    0    0  501 -0.00000000000E+00  0.00000000000E+00  0.68374763571E+03  0.68374763571E+03  0.25500000000E-02 0.  1.
          2   -1    0    0  501    0  0.00000000000E+00 -0.00000000000E+00 -0.12017023242E+04  0.12017023242E+04  0.25500000000E-02 0. -1.
    8880023    1    1    2    0    0  0.71834273903E+03 -0.20531509498E+03 -0.51846480311E+03  0.11228475129E+04  0.65864270000E+03 0.  0.
    8880022    1    1    2    0    0 -0.71834273903E+03  0.20531509498E+03  0.51011461570E+00  0.76260244700E+03  0.15294330000E+03 0.  0.
<mgrwt>
<rscale>  0 0.93167244E+03</rscale>
<asrwt>0</asrwt>
<pdfrwt beam="1">  1        2 0.18487728E+00 0.99598232E+03</pdfrwt>
<pdfrwt beam="2">  1       -2 0.10519194E+00 0.99598232E+03</pdfrwt>
<totfact> 0.13748191E+01</totfact>
</mgrwt>
</event>
<event>
 4    1  0.3032637E-007  0.1520295E+04  0.7818608E-02  0.8895436E-01
          2   -1    0    0  501    0  0.00000000000E+00  0.00000000000E+00  0.10206267337E+04  0.10206267337E+04  0.25500000000E-02 0. -1.
         -2   -1    0    0    0  501 -0.00000000000E+00 -0.00000000000E+00 -0.26068160291E+04  0.26068160291E+04  0.25500000000E-02 0.  1.
    8880023    1    1    2    0    0 -0.15344363446E+03  0.13615955204E+04 -0.16546320648E+04  0.22470213142E+04  0.65864270000E+03 0.  1.
    8880022    1    1    2    0    0  0.15344363446E+03 -0.13615955204E+04  0.68442769442E+02  0.13804214487E+04  0.15294330000E+03 0.  0.
<mgrwt>
<rscale>  0 0.14835946E+04</rscale>
<asrwt>0</asrwt>
<pdfrwt beam="1">  1        2 0.15701950E+00 0.15202952E+04</pdfrwt>
<pdfrwt beam="2">  1       -2 0.40104862E+00 0.15202952E+04</pdfrwt>
<totfact> 0.16909028E-01</totfact>
</mgrwt>
</event>
<event>
 4    1  0.3032637E-007  0.1018565E+04  0.7818608E-02  0.9357661E-01
         -2   -1    0    0    0  501 -0.00000000000E+00  0.00000000000E+00  0.13525652292E+04  0.13525652292E+04  0.25500000000E-02 0.  1.
          2   -1    0    0  501    0  0.00000000000E+00 -0.00000000000E+00 -0.14267977023E+04  0.14267977023E+04  0.25500000000E-02 0. -1.
    8880023    1    1    2    0    0 -0.63371754193E+03 -0.44951918135E+03  0.10115355533E+04  0.14355068092E+04  0.65864270000E+03 0.  1.
    8880022    1    1    2    0    0  0.63371754193E+03  0.44951918135E+03 -0.10857680264E+04  0.13438561223E+04  0.15294330000E+03 0.  0.
<mgrwt>
<rscale>  0 0.95643420E+03</rscale>
<asrwt>0</asrwt>
<pdfrwt beam="1">  1        2 0.21950734E+00 0.10185655E+04</pdfrwt>
<pdfrwt beam="2">  1       -2 0.20808696E+00 0.10185655E+04</pdfrwt>
<totfact> 0.16312597E+00</totfact>
</mgrwt>
</event>
<event>
 4    1  0.3032637E-007  0.9354878E+03  0.7818608E-02  0.9471309E-01
          2   -1    0    0  501    0  0.00000000000E+00  0.00000000000E+00  0.19943054879E+04  0.19943054879E+04  0.25500000000E-02 0. -1.
         -2   -1    0    0    0  501 -0.00000000000E+00 -0.00000000000E+00 -0.44032075931E+03  0.44032075932E+03  0.25500000000E-02 0.  1.
    8880023    1    1    2    0    0 -0.66276694412E+03 -0.45466828220E+02  0.25820684738E+03  0.97046805047E+03  0.65864270000E+03 0.  1.
    8880022    1    1    2    0    0  0.66276694412E+03  0.45466828220E+02  0.12957778812E+04  0.14641581968E+04  0.15294330000E+03 0.  0.
<mgrwt>
<rscale>  0 0.86432564E+03</rscale>
<asrwt>0</asrwt>
<pdfrwt beam="1">  1        2 0.30681622E+00 0.93548782E+03</pdfrwt>
<pdfrwt beam="2">  1       -2 0.67741656E-01 0.93548782E+03</pdfrwt>
<totfact> 0.13575829E+01</totfact>
</mgrwt>
</event>
<event>
 4    1  0.3032637E-007  0.6627508E+03  0.7818608E-02  0.1021500E+00
         -2   -1    0    0    0  501 -0.00000000000E+00  0.00000000000E+00  0.54003730651E+03  0.54003730652E+03  0.25500000000E-02 0.  1.
          2   -1    0    0  501    0  0.00000000000E+00 -0.00000000000E+00 -0.78118070143E+03  0.78118070143E+03  0.25500000000E-02 0. -1.
    8880023    1    1    2    0    0 -0.64907200269E+02  0.34863552966E+02  0.31927846771E+03  0.73564757743E+03  0.65864270000E+03 0.  1.
    8880022    1    1    2    0    0  0.64907200269E+02 -0.34863552966E+02 -0.56042186263E+03  0.58557043052E+03  0.15294330000E+03 0.  0.
<mgrwt>
<rscale>  0 0.47149226E+03</rscale>
<asrwt>0</asrwt>
<pdfrwt beam="1">  1        2 0.12018165E+00 0.66275080E+03</pdfrwt>
<pdfrwt beam="2">  1       -2 0.83082662E-01 0.66275080E+03</pdfrwt>
<totfact> 0.46071612E+01</totfact>
</mgrwt>
</event>
<event>
 4    1  0.3032637E-007  0.1024134E+04  0.7818608E-02  0.9350643E-01
         -2   -1    0    0    0  501 -0.00000000000E+00  0.00000000000E+00  0.83527415890E+03  0.83527415890E+03  0.25500000000E-02 0.  1.
          2   -1    0    0  501    0  0.00000000000E+00 -0.00000000000E+00 -0.29896020116E+04  0.29896020116E+04  0.25500000000E-02 0. -1.
    8880023    1    1    2    0    0  0.43904494725E+03  0.64983043609E+03  0.43676777106E+03  0.11133805969E+04  0.65864270000E+03 0.  1.
    8880022    1    1    2    0    0 -0.43904494725E+03 -0.64983043609E+03 -0.25910956238E+04  0.27114955737E+04  0.15294330000E+03 0.  0.
<mgrwt>
<rscale>  0 0.96251358E+03</rscale>
<asrwt>0</asrwt>
<pdfrwt beam="1">  1        2 0.45993877E+00 0.10241339E+04</pdfrwt>
<pdfrwt beam="2">  1       -2 0.12850372E+00 0.10241339E+04</pdfrwt>
<totfact> 0.80087182E-01</totfact>
</mgrwt>
</event>
<event>
 4    1  0.3429122E-007  0.8611416E+03  0.7818608E-02  0.9591536E-01
          2   -1    0    0  501    0  0.00000000000E+00  0.00000000000E+00  0.22524762255E+04  0.22524762255E+04  0.25500000000E-02 0. -1.
         -2   -1    0    0    0  501 -0.00000000000E+00 -0.00000000000E+00 -0.10820413696E+04  0.10820413696E+04  0.25500000000E-02 0.  1.
    8880023    1    1    2    0    0  0.20908612085E+02 -0.55436227839E+03 -0.86424075699E+03  0.12200315562E+04  0.65864270000E+03 0.  1.
    8880022    1    1    2    0    0 -0.20908612085E+02  0.55436227839E+03  0.20346756129E+04  0.21144860389E+04  0.15294330000E+03 0.  0.
<mgrwt>
<rscale>  0 0.77858931E+03</rscale>
<asrwt>0</asrwt>
<pdfrwt beam="1">  1        2 0.34653480E+00 0.86114163E+03</pdfrwt>
<pdfrwt beam="2">  1       -2 0.16646790E+00 0.86114163E+03</pdfrwt>
<totfact> 0.11162428E+00</totfact>
</mgrwt>
</event>
<event>
 4    1  0.3032637E-007  0.1345295E+04  0.7818608E-02  0.9027399E-01
         -2   -1    0    0    0  501 -0.00000000000E+00  0.00000000000E+00  0.10226697134E+04  0.10226697134E+04  0.25500000000E-02 0.  1.
          2   -1    0    0  501    0  0.00000000000E+00 -0.00000000000E+00 -0.20235575992E+04  0.20235575992E+04  0.25500000000E-02 0. -1.
    8880023    1    1    2    0    0 -0.79232254541E+03 -0.86500533034E+03  0.20053741232E+03  0.13601598059E+04  0.65864270000E+03 0.  0.
    8880022    1    1    2    0    0  0.79232254541E+03  0.86500533034E+03 -0.12014252981E+04  0.16860675068E+04  0.15294330000E+03 0.  0.
<mgrwt>
<rscale>  0 0.13027347E+04</rscale>
<asrwt>0</asrwt>
<pdfrwt beam="1">  1        2 0.31131655E+00 0.13452953E+04</pdfrwt>
<pdfrwt beam="2">  1       -2 0.15733380E+00 0.13452953E+04</pdfrwt>
<totfact> 0.16369755E+00</totfact>
</mgrwt>
</event>
<event>
 4    1  0.3032637E-007  0.9094345E+03  0.7818608E-02  0.9511053E-01
         -2   -1    0    0    0  501 -0.00000000000E+00  0.00000000000E+00  0.12833450929E+04  0.12833450929E+04  0.25500000000E-02 0.  1.
          2   -1    0    0  501    0  0.00000000000E+00 -0.00000000000E+00 -0.13071401365E+04  0.13071401365E+04  0.25500000000E-02 0. -1.
    8880023    1    1    2    0    0 -0.58638768794E+02  0.62435763554E+03  0.10179160756E+04  0.13649997456E+04  0.65864270000E+03 0.  1.
    8880022    1    1    2    0    0  0.58638768794E+02 -0.62435763554E+03 -0.10417111192E+04  0.12254854839E+04  0.15294330000E+03 0.  0.
<mgrwt>
<rscale>  0 0.83473831E+03</rscale>
<asrwt>0</asrwt>
<pdfrwt beam="1">  1        2 0.20109848E+00 0.90943453E+03</pdfrwt>
<pdfrwt beam="2">  1       -2 0.19743771E+00 0.90943453E+03</pdfrwt>
<totfact> 0.22733882E+00</totfact>
</mgrwt>
</event>
<event>
 4    1  0.3032637E-007  0.1360163E+04  0.7818608E-02  0.9015272E-01
          2   -1    0    0  501    0  0.00000000000E+00  0.00000000000E+00  0.19551582489E+04  0.19551582489E+04  0.25500000000E-02 0. -1.
         -2   -1    0    0    0  501 -0.00000000000E+00 -0.00000000000E+00 -0.98913370048E+03  0.98913370049E+03  0.25500000000E-02 0.  1.
    8880023    1    1    2    0    0  0.41172265455E+03 -0.11165648098E+04 -0.65864121861E+02  0.13617565155E+04  0.65864270000E+03 0.  0.
    8880022    1    1    2    0    0 -0.41172265455E+03  0.11165648098E+04  0.10318886703E+04  0.15825354339E+04  0.15294330000E+03 0.  0.
<mgrwt>
<rscale>  0 0.13181787E+04</rscale>
<asrwt>0</asrwt>
<pdfrwt beam="1">  1        2 0.30079358E+00 0.13601628E+04</pdfrwt>
<pdfrwt beam="2">  1       -2 0.15217442E+00 0.13601628E+04</pdfrwt>
<totfact> 0.19523813E+00</totfact>
</mgrwt>
</event>
<event>
 4    1  0.3032637E-007  0.8311084E+03  0.7818608E-02  0.9647180E-01
         -2   -1    0    0    0  501 -0.00000000000E+00  0.00000000000E+00  0.27652682639E+03  0.27652682640E+03  0.25500000000E-02 0.  1.
          2   -1    0    0  501    0  0.00000000000E+00 -0.00000000000E+00 -0.20254784651E+04  0.20254784652E+04  0.25500000000E-02 0. -1.
    8880023    1    1    2    0    0  0.25300548170E+03  0.43922569527E+03 -0.56474227846E+03  0.10048258717E+04  0.65864270000E+03 0.  1.
    8880022    1    1    2    0    0 -0.25300548170E+03 -0.43922569527E+03 -0.11842093603E+04  0.12971794198E+04  0.15294330000E+03 0.  0.
<mgrwt>
<rscale>  0 0.74250696E+03</rscale>
<asrwt>0</asrwt>
<pdfrwt beam="1">  1        2 0.31161206E+00 0.83110841E+03</pdfrwt>
<pdfrwt beam="2">  1       -2 0.42542590E-01 0.83110841E+03</pdfrwt>
<totfact> 0.34621726E+01</totfact>
</mgrwt>
</event>
<event>
 4    1  0.3032637E-007  0.1045944E+04  0.7818608E-02  0.9323773E-01
         -2   -1    0    0    0  501 -0.00000000000E+00  0.00000000000E+00  0.10506663648E+04  0.10506663648E+04  0.25500000000E-02 0.  1.
          2   -1    0    0  501    0  0.00000000000E+00 -0.00000000000E+00 -0.13742533872E+04  0.13742533872E+04  0.25500000000E-02 0. -1.
    8880023    1    1    2    0    0 -0.64603477309E+03  0.49277615514E+03  0.58339847623E+03  0.11976448787E+04  0.65864270000E+03 0.  0.
    8880022    1    1    2    0    0  0.64603477309E+03 -0.49277615514E+03 -0.90698549853E+03  0.12272748733E+04  0.15294330000E+03 0.  0.
<mgrwt>
<rscale>  0 0.98623443E+03</rscale>
<asrwt>0</asrwt>
<pdfrwt beam="1">  1        2 0.21142360E+00 0.10459443E+04</pdfrwt>
<pdfrwt beam="2">  1       -2 0.16164098E+00 0.10459443E+04</pdfrwt>
<totfact> 0.36189844E+00</totfact>
</mgrwt>
</event>
<event>
 4    1  0.3032637E-007  0.1289195E+04  0.7818608E-02  0.9074947E-01
         -2   -1    0    0    0  501 -0.00000000000E+00  0.00000000000E+00  0.12574998454E+04  0.12574998454E+04  0.25500000000E-02 0.  1.
          2   -1    0    0  501    0  0.00000000000E+00 -0.00000000000E+00 -0.16256477115E+04  0.16256477115E+04  0.25500000000E-02 0. -1.
    8880023    1    1    2    0    0 -0.53011481858E+03  0.97323746929E+03  0.58283776333E+03  0.14148225886E+04  0.65864270000E+03 0.  0.
    8880022    1    1    2    0    0  0.53011481858E+03 -0.97323746929E+03 -0.95098562942E+03  0.14683249684E+04  0.15294330000E+03 0.  0.
<mgrwt>
<rscale>  0 0.12442919E+04</rscale>
<asrwt>0</asrwt>
<pdfrwt beam="1">  1        2 0.25009965E+00 0.12891947E+04</pdfrwt>
<pdfrwt beam="2">  1       -2 0.19346151E+00 0.12891947E+04</pdfrwt>
<totfact> 0.15233999E+00</totfact>
</mgrwt>
</event>
<event>
 4    1  0.3032637E-007  0.8584053E+03  0.7818608E-02  0.9596406E-01
         -2   -1    0    0    0  501 -0.00000000000E+00  0.00000000000E+00  0.22595062774E+03  0.22595062775E+03  0.25500000000E-02 0.  1.
          2   -1    0    0  501    0  0.00000000000E+00 -0.00000000000E+00 -0.46520240193E+04  0.46520240193E+04  0.25500000000E-02 0. -1.
    8880023    1    1    2    0    0  0.46655030082E+03  0.29219909704E+03 -0.69800068746E+03  0.11063745575E+04  0.65864270000E+03 0.  1.
    8880022    1    1    2    0    0 -0.46655030082E+03 -0.29219909704E+03 -0.37280727041E+04  0.37716000896E+04  0.15294330000E+03 0.  0.
<mgrwt>
<rscale>  0 0.77534486E+03</rscale>
<asrwt>0</asrwt>
<pdfrwt beam="1">  1        2 0.71569593E+00 0.85840532E+03</pdfrwt>
<pdfrwt beam="2">  1       -2 0.34761638E-01 0.85840532E+03</pdfrwt>
<totfact> 0.74864805E-01</totfact>
</mgrwt>
</event>
<event>
 4    1  0.3032637E-007  0.1060663E+04  0.7818608E-02  0.9306172E-01
         -2   -1    0    0    0  501 -0.00000000000E+00  0.00000000000E+00  0.10135420084E+04  0.10135420084E+04  0.25500000000E-02 0.  1.
          2   -1    0    0  501    0  0.00000000000E+00 -0.00000000000E+00 -0.10506254373E+04  0.10506254373E+04  0.25500000000E-02 0. -1.
    8880023    1    1    2    0    0  0.83133663348E+03 -0.86439203653E+01 -0.41402024302E+03  0.11386036551E+04  0.65864270000E+03 0. -1.
    8880022    1    1    2    0    0 -0.83133663348E+03  0.86439203653E+01  0.37693681409E+03  0.92556379054E+03  0.15294330000E+03 0.  0.
<mgrwt>
<rscale>  0 0.10021665E+04</rscale>
<asrwt>0</asrwt>
<pdfrwt beam="1">  1        2 0.16163468E+00 0.10606628E+04</pdfrwt>
<pdfrwt beam="2">  1       -2 0.15592954E+00 0.10606628E+04</pdfrwt>
<totfact> 0.62256720E+00</totfact>
</mgrwt>
</event>
<event>
 4    1  0.3032637E-007  0.7457122E+03  0.7818608E-02  0.9843610E-01
         -2   -1    0    0    0  501 -0.00000000000E+00  0.00000000000E+00  0.18205625371E+04  0.18205625371E+04  0.25500000000E-02 0.  1.
          2   -1    0    0  501    0  0.00000000000E+00 -0.00000000000E+00 -0.60594413150E+03  0.60594413151E+03  0.25500000000E-02 0. -1.
    8880023    1    1    2    0    0  0.23226195030E+03  0.26140178865E+03  0.16720258313E+04  0.18307804607E+04  0.65864270000E+03 0.  0.
    8880022    1    1    2    0    0 -0.23226195030E+03 -0.26140178865E+03 -0.45740742568E+03  0.59572620788E+03  0.15294330000E+03 0.  0.
<mgrwt>
<rscale>  0 0.63073804E+03</rscale>
<asrwt>0</asrwt>
<pdfrwt beam="1">  1        2 0.93222176E-01 0.74571222E+03</pdfrwt>
<pdfrwt beam="2">  1       -2 0.28008654E+00 0.74571222E+03</pdfrwt>
<totfact> 0.21394993E+00</totfact>
</mgrwt>
</event>
<event>
 4    1  0.3032637E-007  0.7648448E+03  0.7818608E-02  0.9792723E-01
          2   -1    0    0  501    0  0.00000000000E+00  0.00000000000E+00  0.15246668507E+04  0.15246668507E+04  0.25500000000E-02 0. -1.
         -2   -1    0    0    0  501 -0.00000000000E+00 -0.00000000000E+00 -0.56396315378E+03  0.56396315378E+03  0.25500000000E-02 0.  1.
    8880023    1    1    2    0    0  0.28034018806E+03  0.26941923578E+03 -0.25253965154E+03  0.80545876835E+03  0.65864270000E+03 0.  1.
    8880022    1    1    2    0    0 -0.28034018806E+03 -0.26941923578E+03  0.12132433485E+04  0.12831712362E+04  0.15294330000E+03 0. -1.
<mgrwt>
<rscale>  0 0.65754560E+03</rscale>
<asrwt>0</asrwt>
<pdfrwt beam="1">  1        2 0.23456413E+00 0.76484479E+03</pdfrwt>
<pdfrwt beam="2">  1       -2 0.86763564E-01 0.76484479E+03</pdfrwt>
<totfact> 0.14456208E+01</totfact>
</mgrwt>
</event>
<event>
 4    1  0.3032637E-007  0.8358509E+03  0.7818608E-02  0.9638054E-01
          2   -1    0    0  501    0  0.00000000000E+00  0.00000000000E+00  0.24145606504E+04  0.24145606504E+04  0.25500000000E-02 0. -1.
         -2   -1    0    0    0  501 -0.00000000000E+00 -0.00000000000E+00 -0.42040713358E+03  0.42040713359E+03  0.25500000000E-02 0.  1.
    8880023    1    1    2    0    0  0.25918827549E+02  0.51396964305E+03  0.71657522487E+02  0.83891691268E+03  0.65864270000E+03 0.  1.
    8880022    1    1    2    0    0 -0.25918827549E+02 -0.51396964305E+03  0.19224959944E+04  0.19960508713E+04  0.15294330000E+03 0.  0.
<mgrwt>
<rscale>  0 0.74827923E+03</rscale>
<asrwt>0</asrwt>
<pdfrwt beam="1">  1        2 0.37147088E+00 0.83585094E+03</pdfrwt>
<pdfrwt beam="2">  1       -2 0.64678019E-01 0.83585094E+03</pdfrwt>
<totfact> 0.88841223E+00</totfact>
</mgrwt>
</event>
<event>
 4    1  0.3032637E-007  0.8869683E+03  0.7818608E-02  0.9547284E-01
          2   -1    0    0  501    0  0.00000000000E+00  0.00000000000E+00  0.41492610597E+04  0.41492610597E+04  0.25500000000E-02 0. -1.
         -2   -1    0    0    0  501 -0.00000000000E+00 -0.00000000000E+00 -0.25137858767E+03  0.25137858768E+03  0.25500000000E-02 0.  1.
    8880023    1    1    2    0    0  0.12973589959E+03 -0.57971644723E+03  0.66109333448E+03  0.11062355834E+04  0.65864270000E+03 0.  1.
    8880022    1    1    2    0    0 -0.12973589959E+03  0.57971644723E+03  0.32367891375E+04  0.32944040640E+04  0.15294330000E+03 0.  0.
<mgrwt>
<rscale>  0 0.80885750E+03</rscale>
<asrwt>0</asrwt>
<pdfrwt beam="1">  1        2 0.63834790E+00 0.88696830E+03</pdfrwt>
<pdfrwt beam="2">  1       -2 0.38673626E-01 0.88696830E+03</pdfrwt>
<totfact> 0.17601755E+00</totfact>
</mgrwt>
</event>
<event>
 4    1  0.3032637E-007  0.1266527E+04  0.7818608E-02  0.9095019E-01
          2   -1    0    0  501    0  0.00000000000E+00  0.00000000000E+00  0.91224183361E+03  0.91224183361E+03  0.25500000000E-02 0. -1.
         -2   -1    0    0    0  501 -0.00000000000E+00 -0.00000000000E+00 -0.15900635897E+04  0.15900635897E+04  0.25500000000E-02 0.  1.
    8880023    1    1    2    0    0  0.77901334738E+03  0.75061224059E+03 -0.61500100880E+03  0.14079477896E+04  0.65864270000E+03 0. -1.
    8880022    1    1    2    0    0 -0.77901334738E+03 -0.75061224059E+03 -0.62820747255E+02  0.10943576337E+04  0.15294330000E+03 0.  0.
<mgrwt>
<rscale>  0 0.12205947E+04</rscale>
<asrwt>0</asrwt>
<pdfrwt beam="1">  1        2 0.14034490E+00 0.12665270E+04</pdfrwt>
<pdfrwt beam="2">  1       -2 0.24462517E+00 0.12665270E+04</pdfrwt>
<totfact> 0.19325501E+00</totfact>
</mgrwt>
</event>
<event>
 4    1  0.3032637E-007  0.6656076E+03  0.7818608E-02  0.1019029E+00
          2   -1    0    0  501    0  0.00000000000E+00  0.00000000000E+00  0.13235832664E+04  0.13235832664E+04  0.25500000000E-02 0. -1.
         -2   -1    0    0    0  501 -0.00000000000E+00 -0.00000000000E+00 -0.48026626571E+03  0.48026626572E+03  0.25500000000E-02 0.  1.
    8880023    1    1    2    0    0 -0.95495641046E+02 -0.10189862404E+02 -0.23851118777E+03  0.70705094845E+03  0.65864270000E+03 0.  1.
    8880022    1    1    2    0    0  0.95495641046E+02  0.10189862404E+02  0.10818281885E+04  0.10967985837E+04  0.15294330000E+03 0.  0.
<mgrwt>
<rscale>  0 0.48038641E+03</rscale>
<asrwt>0</asrwt>
<pdfrwt beam="1">  1        2 0.20362819E+00 0.66560758E+03</pdfrwt>
<pdfrwt beam="2">  1       -2 0.73887119E-01 0.66560758E+03</pdfrwt>
<totfact> 0.27251028E+01</totfact>
</mgrwt>
</event>
<event>
 4    1  0.3032637E-007  0.1670107E+04  0.7818608E-02  0.8798010E-01
          2   -1    0    0  501    0  0.00000000000E+00  0.00000000000E+00  0.25369954677E+04  0.25369954677E+04  0.25500000000E-02 0. -1.
         -2   -1    0    0    0  501 -0.00000000000E+00 -0.00000000000E+00 -0.13261869586E+04  0.13261869586E+04  0.25500000000E-02 0.  1.
    8880023    1    1    2    0    0  0.14238637851E+04  0.57276425994E+03 -0.30832107463E+03  0.16983283155E+04  0.65864270000E+03 0.  0.
    8880022    1    1    2    0    0 -0.14238637851E+04 -0.57276425994E+03  0.15191295837E+04  0.21648541108E+04  0.15294330000E+03 0.  0.
<mgrwt>
<rscale>  0 0.16372079E+04</rscale>
<asrwt>0</asrwt>
<pdfrwt beam="1">  1        2 0.39030699E+00 0.16701069E+04</pdfrwt>
<pdfrwt beam="2">  1       -2 0.20402877E+00 0.16701069E+04</pdfrwt>
<totfact> 0.38258651E-01</totfact>
</mgrwt>
</event>
<event>
 4    1  0.3032637E-007  0.1332932E+04  0.7818608E-02  0.9037630E-01
         -2   -1    0    0    0  501 -0.00000000000E+00  0.00000000000E+00  0.69353412218E+03  0.69353412218E+03  0.25500000000E-02 0.  1.
          2   -1    0    0  501    0  0.00000000000E+00 -0.00000000000E+00 -0.35006798100E+04  0.35006798100E+04  0.25500000000E-02 0. -1.
    8880023    1    1    2    0    0  0.73470573546E+03 -0.89616184657E+03 -0.21426891372E+03  0.13500444239E+04  0.65864270000E+03 0.  1.
    8880022    1    1    2    0    0 -0.73470573546E+03  0.89616184657E+03 -0.25928767741E+04  0.28441695083E+04  0.15294330000E+03 0.  0.
<mgrwt>
<rscale>  0 0.12898790E+04</rscale>
<asrwt>0</asrwt>
<pdfrwt beam="1">  1        2 0.53856611E+00 0.13329324E+04</pdfrwt>
<pdfrwt beam="2">  1       -2 0.10669756E+00 0.13329324E+04</pdfrwt>
<totfact> 0.56343518E-01</totfact>
</mgrwt>
</event>
<event>
 4    1  0.3863264E-007  0.7079534E+03  0.7818608E-02  0.9965681E-01
          2   -1    0    0  501    0  0.00000000000E+00  0.00000000000E+00  0.14704205628E+04  0.14704205628E+04  0.25500000000E-02 0. -1.
         -2   -1    0    0    0  501 -0.00000000000E+00 -0.00000000000E+00 -0.13251899423E+04  0.13251899423E+04  0.25500000000E-02 0.  1.
    8880023    1    1    2    0    0 -0.44549150917E+02  0.25574045139E+03 -0.12129357913E+04  0.14044255927E+04  0.65864270000E+03 0.  1.
    8880022    1    1    2    0    0  0.44549150917E+02 -0.25574045139E+03  0.13581664118E+04  0.13911849124E+04  0.15294330000E+03 0.  0.
<mgrwt>
<rscale>  0 0.57181027E+03</rscale>
<asrwt>0</asrwt>
<pdfrwt beam="1">  1        2 0.22621855E+00 0.70795340E+03</pdfrwt>
<pdfrwt beam="2">  1       -2 0.20387538E+00 0.70795340E+03</pdfrwt>
<totfact> 0.17220875E+00</totfact>
</mgrwt>
</event>
<event>
 4    1  0.3032637E-007  0.1073006E+04  0.7818608E-02  0.9291723E-01
         -2   -1    0    0    0  501 -0.00000000000E+00  0.00000000000E+00  0.10760276793E+04  0.10760276793E+04  0.25500000000E-02 0.  1.
          2   -1    0    0  501    0  0.00000000000E+00 -0.00000000000E+00 -0.10186812286E+04  0.10186812286E+04  0.25500000000E-02 0. -1.
    8880023    1    1    2    0    0  0.36680181761E+03 -0.76353589525E+03  0.43100930221E+03  0.11563346668E+04  0.65864270000E+03 0.  0.
    8880022    1    1    2    0    0 -0.36680181761E+03  0.76353589525E+03 -0.37366285149E+03  0.93837424109E+03  0.15294330000E+03 0.  0.
<mgrwt>
<rscale>  0 0.10154839E+04</rscale>
<asrwt>0</asrwt>
<pdfrwt beam="1">  1        2 0.15672019E+00 0.10730055E+04</pdfrwt>
<pdfrwt beam="2">  1       -2 0.16554272E+00 0.10730055E+04</pdfrwt>
<totfact> 0.55330831E+00</totfact>
</mgrwt>
</event>
<event>
 4    1  0.3032637E-007  0.7019357E+03  0.7818608E-02  0.9989264E-01
         -2   -1    0    0    0  501 -0.00000000000E+00  0.00000000000E+00  0.37432882347E+03  0.37432882348E+03  0.25500000000E-02 0.  1.
          2   -1    0    0  501    0  0.00000000000E+00 -0.00000000000E+00 -0.14404466786E+04  0.14404466786E+04  0.25500000000E-02 0. -1.
    8880023    1    1    2    0    0  0.24266484351E+03 -0.41509426430E+01  0.90507627115E+01  0.70199400223E+03  0.65864270000E+03 0.  0.
    8880022    1    1    2    0    0 -0.24266484351E+03  0.41509426430E+01 -0.10751686179E+04  0.11127814999E+04  0.15294330000E+03 0.  0.
<mgrwt>
<rscale>  0 0.56123498E+03</rscale>
<asrwt>0</asrwt>
<pdfrwt beam="1">  1        2 0.22160718E+00 0.70193565E+03</pdfrwt>
<pdfrwt beam="2">  1       -2 0.57589051E-01 0.70193565E+03</pdfrwt>
<totfact> 0.39794408E+01</totfact>
</mgrwt>
</event>
<event>
 4    1  0.3032637E-007  0.9144238E+03  0.7818608E-02  0.9503262E-01
          2   -1    0    0  501    0  0.00000000000E+00  0.00000000000E+00  0.21335434605E+04  0.21335434605E+04  0.25500000000E-02 0. -1.
         -2   -1    0    0    0  501 -0.00000000000E+00 -0.00000000000E+00 -0.34555941570E+03  0.34555941571E+03  0.25500000000E-02 0.  1.
    8880023    1    1    2    0    0  0.47262178405E+03 -0.42307129348E+03  0.51710892164E+03  0.10505105964E+04  0.65864270000E+03 0.  1.
    8880022    1    1    2    0    0 -0.47262178405E+03  0.42307129348E+03  0.12708751231E+04  0.14285922797E+04  0.15294330000E+03 0.  0.
<mgrwt>
<rscale>  0 0.84043720E+03</rscale>
<asrwt>0</asrwt>
<pdfrwt beam="1">  1        2 0.32823745E+00 0.91442379E+03</pdfrwt>
<pdfrwt beam="2">  1       -2 0.53162987E-01 0.91442379E+03</pdfrwt>
<totfact> 0.19061734E+01</totfact>
</mgrwt>
</event>
<event>
 4    1  0.3032637E-007  0.1212043E+04  0.7818608E-02  0.9145503E-01
         -2   -1    0    0    0  501 -0.00000000000E+00  0.00000000000E+00  0.18025540999E+04  0.18025540999E+04  0.25500000000E-02 0.  1.
          2   -1    0    0  501    0  0.00000000000E+00 -0.00000000000E+00 -0.99398639449E+03  0.99398639449E+03  0.25500000000E-02 0. -1.
    8880023    1    1    2    0    0 -0.13692791897E+03  0.10082112012E+04  0.11906133839E+04  0.16990025066E+04  0.65864270000E+03 0.  0.
    8880022    1    1    2    0    0  0.13692791897E+03 -0.10082112012E+04 -0.38204567844E+03  0.10975379878E+04  0.15294330000E+03 0.  0.
<mgrwt>
<rscale>  0 0.11634071E+04</rscale>
<asrwt>0</asrwt>
<pdfrwt beam="1">  1        2 0.15292099E+00 0.12120434E+04</pdfrwt>
<pdfrwt beam="2">  1       -2 0.27731601E+00 0.12120434E+04</pdfrwt>
<totfact> 0.10835401E+00</totfact>
</mgrwt>
</event>
<event>
 4    1  0.3032637E-007  0.8298356E+03  0.7818608E-02  0.9649652E-01
          2   -1    0    0  501    0  0.00000000000E+00  0.00000000000E+00  0.30880869021E+04  0.30880869021E+04  0.25500000000E-02 0. -1.
         -2   -1    0    0    0  501 -0.00000000000E+00 -0.00000000000E+00 -0.56407873775E+03  0.56407873775E+03  0.25500000000E-02 0.  1.
    8880023    1    1    2    0    0  0.45188781588E+03 -0.22497611013E+03 -0.21953205391E+03  0.85838300148E+03  0.65864270000E+03 0.  1.
    8880022    1    1    2    0    0 -0.45188781588E+03  0.22497611013E+03  0.27435402183E+04  0.27937826384E+04  0.15294330000E+03 0.  0.
<mgrwt>
<rscale>  0 0.74095244E+03</rscale>
<asrwt>0</asrwt>
<pdfrwt beam="1">  1        2 0.47509029E+00 0.82983556E+03</pdfrwt>
<pdfrwt beam="2">  1       -2 0.86781344E-01 0.82983556E+03</pdfrwt>
<totfact> 0.18542992E+00</totfact>
</mgrwt>
</event>
<event>
 4    1  0.3032637E-007  0.9661434E+03  0.7818608E-02  0.9427258E-01
          2   -1    0    0  501    0  0.00000000000E+00  0.00000000000E+00  0.15793559701E+04  0.15793559701E+04  0.25500000000E-02 0. -1.
         -2   -1    0    0    0  501 -0.00000000000E+00 -0.00000000000E+00 -0.68845702147E+03  0.68845702148E+03  0.25500000000E-02 0.  1.
    8880023    1    1    2    0    0  0.61988617374E+03 -0.33965288473E+03 -0.17287580116E+03  0.98148825739E+03  0.65864270000E+03 0.  1.
    8880022    1    1    2    0    0 -0.61988617374E+03  0.33965288473E+03  0.10637747498E+04  0.12863247342E+04  0.15294330000E+03 0.  0.
<mgrwt>
<rscale>  0 0.89866005E+03</rscale>
<asrwt>0</asrwt>
<pdfrwt beam="1">  1        2 0.24297784E+00 0.96614345E+03</pdfrwt>
<pdfrwt beam="2">  1       -2 0.10591647E+00 0.96614345E+03</pdfrwt>
<totfact> 0.82384382E+00</totfact>
</mgrwt>
</event>
<event>
 4    1  0.3032637E-007  0.9135680E+03  0.7818608E-02  0.9504592E-01
          2   -1    0    0  501    0  0.00000000000E+00  0.00000000000E+00  0.13446621875E+04  0.13446621875E+04  0.25500000000E-02 0. -1.
         -2   -1    0    0    0  501 -0.00000000000E+00 -0.00000000000E+00 -0.12443164425E+04  0.12443164425E+04  0.25500000000E-02 0.  1.
    8880023    1    1    2    0    0  0.40321487189E+03 -0.48807176618E+03 -0.97225509804E+03  0.13341238562E+04  0.65864270000E+03 0.  0.
    8880022    1    1    2    0    0 -0.40321487189E+03  0.48807176618E+03  0.10726008430E+04  0.12548547738E+04  0.15294330000E+03 0.  0.
<mgrwt>
<rscale>  0 0.83946085E+03</rscale>
<asrwt>0</asrwt>
<pdfrwt beam="1">  1        2 0.20687110E+00 0.91356800E+03</pdfrwt>
<pdfrwt beam="2">  1       -2 0.19143330E+00 0.91356800E+03</pdfrwt>
<totfact> 0.23688932E+00</totfact>
</mgrwt>
</event>
<event>
 4    1  0.3032637E-007  0.9368505E+03  0.7818608E-02  0.9469291E-01
          2   -1    0    0  501    0  0.00000000000E+00  0.00000000000E+00  0.88993096139E+03  0.88993096139E+03  0.25500000000E-02 0. -1.
         -2   -1    0    0    0  501 -0.00000000000E+00 -0.00000000000E+00 -0.14140502871E+04  0.14140502871E+04  0.25500000000E-02 0.  1.
    8880023    1    1    2    0    0 -0.56655537805E+03 -0.35056204510E+03 -0.10750869591E+04  0.14260087376E+04  0.65864270000E+03 0.  0.
    8880022    1    1    2    0    0  0.56655537805E+03  0.35056204510E+03  0.55096763337E+03  0.87797251090E+03  0.15294330000E+03 0. -1.
<mgrwt>
<rscale>  0 0.86586218E+03</rscale>
<asrwt>0</asrwt>
<pdfrwt beam="1">  1        2 0.13691246E+00 0.93685055E+03</pdfrwt>
<pdfrwt beam="2">  1       -2 0.21754620E+00 0.93685055E+03</pdfrwt>
<totfact> 0.30543558E+00</totfact>
</mgrwt>
</event>
<event>
 4    1  0.3032637E-007  0.1513107E+04  0.7818608E-02  0.8900436E-01
         -2   -1    0    0    0  501 -0.00000000000E+00  0.00000000000E+00  0.13373690498E+04  0.13373690498E+04  0.25500000000E-02 0.  1.
          2   -1    0    0  501    0  0.00000000000E+00 -0.00000000000E+00 -0.23779143987E+04  0.23779143987E+04  0.25500000000E-02 0. -1.
    8880023    1    1    2    0    0  0.24136925446E+03  0.13406801432E+04 -0.16291826417E+04  0.22234497183E+04  0.65864270000E+03 0.  0.
    8880022    1    1    2    0    0 -0.24136925446E+03 -0.13406801432E+04  0.58863729281E+03  0.14918337303E+04  0.15294330000E+03 0.  0.
<mgrwt>
<rscale>  0 0.14762000E+04</rscale>
<asrwt>0</asrwt>
<pdfrwt beam="1">  1        2 0.36583298E+00 0.15131069E+04</pdfrwt>
<pdfrwt beam="2">  1       -2 0.20574909E+00 0.15131069E+04</pdfrwt>
<totfact> 0.46813578E-01</totfact>
</mgrwt>
</event>
<event>
 4    1  0.3032637E-007  0.9430771E+03  0.7818608E-02  0.9460145E-01
         -2   -1    0    0    0  501 -0.00000000000E+00  0.00000000000E+00  0.32849044673E+03  0.32849044674E+03  0.25500000000E-02 0.  1.
          2   -1    0    0  501    0  0.00000000000E+00 -0.00000000000E+00 -0.25328358289E+04  0.25328358289E+04  0.25500000000E-02 0. -1.
    8880023    1    1    2    0    0  0.31020207944E+03  0.59946541769E+03 -0.60976954140E+03  0.11230374958E+04  0.65864270000E+03 0.  0.
    8880022    1    1    2    0    0 -0.31020207944E+03 -0.59946541769E+03 -0.15945758408E+04  0.17382887799E+04  0.15294330000E+03 0.  0.
<mgrwt>
<rscale>  0 0.87287002E+03</rscale>
<asrwt>0</asrwt>
<pdfrwt beam="1">  1        2 0.38966704E+00 0.94307705E+03</pdfrwt>
<pdfrwt beam="2">  1       -2 0.50536993E-01 0.94307705E+03</pdfrwt>
<totfact> 0.12580650E+01</totfact>
</mgrwt>
</event>
<event>
 4    1  0.3032637E-007  0.8010304E+03  0.7818608E-02  0.9708572E-01
         -2   -1    0    0    0  501 -0.00000000000E+00  0.00000000000E+00  0.20677882012E+03  0.20677882014E+03  0.25500000000E-02 0.  1.
          2   -1    0    0  501    0  0.00000000000E+00 -0.00000000000E+00 -0.23477657049E+04  0.23477657049E+04  0.25500000000E-02 0. -1.
    8880023    1    1    2    0    0  0.42986983144E+03 -0.15182713472E+03 -0.80926739848E+03  0.11386674138E+04  0.65864270000E+03 0.  0.
    8880022    1    1    2    0    0 -0.42986983144E+03  0.15182713472E+03 -0.13317194863E+04  0.14158771112E+04  0.15294330000E+03 0.  0.
<mgrwt>
<rscale>  0 0.70508677E+03</rscale>
<asrwt>0</asrwt>
<pdfrwt beam="1">  1        2 0.36119471E+00 0.80103043E+03</pdfrwt>
<pdfrwt beam="2">  1       -2 0.31812128E-01 0.80103043E+03</pdfrwt>
<totfact> 0.40338592E+01</totfact>
</mgrwt>
</event>
<event>
 4    1  0.3032637E-007  0.1026187E+04  0.7818608E-02  0.9348072E-01
         -2   -1    0    0    0  501 -0.00000000000E+00  0.00000000000E+00  0.90621154358E+03  0.90621154358E+03  0.25500000000E-02 0.  1.
          2   -1    0    0  501    0  0.00000000000E+00 -0.00000000000E+00 -0.95244081165E+03  0.95244081165E+03  0.25500000000E-02 0. -1.
    8880023    1    1    2    0    0  0.29549570680E+02  0.78636888961E+03 -0.19162460599E+03  0.10439249990E+04  0.65864270000E+03 0.  1.
    8880022    1    1    2    0    0 -0.29549570680E+02 -0.78636888961E+03  0.14539533792E+03  0.81472735622E+03  0.15294330000E+03 0.  0.
<mgrwt>
<rscale>  0 0.96475241E+03</rscale>
<asrwt>0</asrwt>
<pdfrwt beam="1">  1        2 0.14652936E+00 0.10261868E+04</pdfrwt>
<pdfrwt beam="2">  1       -2 0.13941716E+00 0.10261868E+04</pdfrwt>
<totfact> 0.97173318E+00</totfact>
</mgrwt>
</event>
<event>
 4    1  0.3032637E-007  0.1047559E+04  0.7818608E-02  0.9321822E-01
         -2   -1    0    0    0  501 -0.00000000000E+00  0.00000000000E+00  0.20283342336E+04  0.20283342336E+04  0.25500000000E-02 0.  1.
          2   -1    0    0  501    0  0.00000000000E+00 -0.00000000000E+00 -0.13317672499E+04  0.13317672499E+04  0.25500000000E-02 0. -1.
    8880023    1    1    2    0    0 -0.44907050369E+03 -0.67963593512E+03  0.17378880919E+04  0.20291955421E+04  0.65864270000E+03 0.  0.
    8880022    1    1    2    0    0  0.44907050369E+03  0.67963593512E+03 -0.10413211083E+04  0.13309059415E+04  0.15294330000E+03 0.  0.
<mgrwt>
<rscale>  0 0.98798495E+03</rscale>
<asrwt>0</asrwt>
<pdfrwt beam="1">  1        2 0.20488727E+00 0.10475588E+04</pdfrwt>
<pdfrwt beam="2">  1       -2 0.31205142E+00 0.10475588E+04</pdfrwt>
<totfact> 0.42406563E-01</totfact>
</mgrwt>
</event>
<event>
 4    1  0.3333931E-007  0.9585295E+03  0.7818608E-02  0.9437947E-01
         -2   -1    0    0    0  501 -0.00000000000E+00  0.00000000000E+00  0.85005114268E+03  0.85005114268E+03  0.25500000000E-02 0.  1.
          2   -1    0    0  501    0  0.00000000000E+00 -0.00000000000E+00 -0.26193925579E+04  0.26193925579E+04  0.25500000000E-02 0. -1.
    8880023    1    1    2    0    0  0.42315730949E+03  0.55308809338E+03  0.50678670035E+03  0.10842562029E+04  0.65864270000E+03 0.  0.
    8880022    1    1    2    0    0 -0.42315730949E+03 -0.55308809338E+03 -0.22761281156E+04  0.23851874977E+04  0.15294330000E+03 0.  0.
<mgrwt>
<rscale>  0 0.89017531E+03</rscale>
<asrwt>0</asrwt>
<pdfrwt beam="1">  1        2 0.40298347E+00 0.95852947E+03</pdfrwt>
<pdfrwt beam="2">  1       -2 0.13077710E+00 0.95852947E+03</pdfrwt>
<totfact> 0.12877820E+00</totfact>
</mgrwt>
</event>
<event>
 4    1  0.3032637E-007  0.7700925E+03  0.7818608E-02  0.9779647E-01
          2   -1    0    0  501    0  0.00000000000E+00  0.00000000000E+00  0.10012223403E+04  0.10012223403E+04  0.25500000000E-02 0. -1.
         -2   -1    0    0    0  501 -0.00000000000E+00 -0.00000000000E+00 -0.66984781809E+03  0.66984781809E+03  0.25500000000E-02 0.  1.
    8880023    1    1    2    0    0 -0.39420414718E+03 -0.61930058489E+02 -0.36641441862E+03  0.85282001280E+03  0.65864270000E+03 0.  0.
    8880022    1    1    2    0    0  0.39420414718E+03  0.61930058489E+02  0.69778894085E+03  0.81825014561E+03  0.15294330000E+03 0.  0.
<mgrwt>
<rscale>  0 0.66466356E+03</rscale>
<asrwt>0</asrwt>
<pdfrwt beam="1">  1        2 0.15403421E+00 0.77009249E+03</pdfrwt>
<pdfrwt beam="2">  1       -2 0.10305351E+00 0.77009249E+03</pdfrwt>
<totfact> 0.19609587E+01</totfact>
</mgrwt>
</event>
<event>
 4    1  0.3032637E-007  0.1049642E+04  0.7818608E-02  0.9319312E-01
         -2   -1    0    0    0  501 -0.00000000000E+00  0.00000000000E+00  0.41451418546E+03  0.41451418547E+03  0.25500000000E-02 0.  1.
          2   -1    0    0  501    0  0.00000000000E+00 -0.00000000000E+00 -0.33214913946E+04  0.33214913946E+04  0.25500000000E-02 0. -1.
    8880023    1    1    2    0    0 -0.81559175947E+03 -0.52426993997E+02 -0.26738268385E+04  0.28724725719E+04  0.65864270000E+03 0.  0.
    8880022    1    1    2    0    0  0.81559175947E+03  0.52426993997E+02 -0.23315037063E+03  0.86353300815E+03  0.15294330000E+03 0.  0.
<mgrwt>
<rscale>  0 0.99024269E+03</rscale>
<asrwt>0</asrwt>
<pdfrwt beam="1">  1        2 0.51099866E+00 0.10496422E+04</pdfrwt>
<pdfrwt beam="2">  1       -2 0.63771415E-01 0.10496422E+04</pdfrwt>
<totfact> 0.25077692E+00</totfact>
</mgrwt>
</event>
<event>
 4    1  0.3032637E-007  0.9858692E+03  0.7818608E-02  0.9400283E-01
          2   -1    0    0  501    0  0.00000000000E+00  0.00000000000E+00  0.11046290039E+04  0.11046290039E+04  0.25500000000E-02 0. -1.
         -2   -1    0    0    0  501 -0.00000000000E+00 -0.00000000000E+00 -0.10385353416E+04  0.10385353416E+04  0.25500000000E-02 0.  1.
    8880023    1    1    2    0    0  0.37025885981E+03 -0.63327423787E+03 -0.58850951162E+03  0.11481644199E+04  0.65864270000E+03 0.  0.
    8880022    1    1    2    0    0 -0.37025885981E+03  0.63327423787E+03  0.65460317391E+03  0.99499992559E+03  0.15294330000E+03 0.  0.
<mgrwt>
<rscale>  0 0.92052393E+03</rscale>
<asrwt>0</asrwt>
<pdfrwt beam="1">  1        2 0.16994292E+00 0.98586921E+03</pdfrwt>
<pdfrwt beam="2">  1       -2 0.15977467E+00 0.98586921E+03</pdfrwt>
<totfact> 0.54319898E+00</totfact>
</mgrwt>
</event>
<event>
 4    1  0.3032637E-007  0.7921578E+03  0.7818608E-02  0.9728016E-01
          2   -1    0    0  501    0  0.00000000000E+00  0.00000000000E+00  0.21510526884E+03  0.21510526885E+03  0.25500000000E-02 0. -1.
         -2   -1    0    0    0  501 -0.00000000000E+00 -0.00000000000E+00 -0.19461505044E+04  0.19461505044E+04  0.25500000000E-02 0.  1.
    8880023    1    1    2    0    0 -0.43877386992E+03  0.34369404697E+02 -0.13223894768E+04  0.15415018325E+04  0.65864270000E+03 0.  0.
    8880022    1    1    2    0    0  0.43877386992E+03 -0.34369404697E+02 -0.40865575871E+03  0.61975394073E+03  0.15294330000E+03 0.  0.
<mgrwt>
<rscale>  0 0.69372941E+03</rscale>
<asrwt>0</asrwt>
<pdfrwt beam="1">  1        2 0.33093120E-01 0.79215779E+03</pdfrwt>
<pdfrwt beam="2">  1       -2 0.29940776E+00 0.79215779E+03</pdfrwt>
<totfact> 0.52751831E+00</totfact>
</mgrwt>
</event>
<event>
 4    1  0.3032637E-007  0.8152905E+03  0.7818608E-02  0.9678661E-01
         -2   -1    0    0    0  501 -0.00000000000E+00  0.00000000000E+00  0.26665202064E+03  0.26665202065E+03  0.25500000000E-02 0.  1.
          2   -1    0    0  501    0  0.00000000000E+00 -0.00000000000E+00 -0.17410141017E+04  0.17410141017E+04  0.25500000000E-02 0. -1.
    8880023    1    1    2    0    0 -0.76517863197E+02 -0.47437687191E+03 -0.65609037185E+03  0.10464956676E+04  0.65864270000E+03 0.  0.
    8880022    1    1    2    0    0  0.76517863197E+02  0.47437687191E+03 -0.81827170918E+03  0.96117045473E+03  0.15294330000E+03 0.  0.
<mgrwt>
<rscale>  0 0.72301669E+03</rscale>
<asrwt>0</asrwt>
<pdfrwt beam="1">  1        2 0.26784832E+00 0.81529050E+03</pdfrwt>
<pdfrwt beam="2">  1       -2 0.41023389E-01 0.81529050E+03</pdfrwt>
<totfact> 0.53309464E+01</totfact>
</mgrwt>
</event>
<event>
 4    1  0.3032637E-007  0.7407861E+03  0.7818608E-02  0.9857663E-01
         -2   -1    0    0    0  501 -0.00000000000E+00  0.00000000000E+00  0.37649957498E+03  0.37649957499E+03  0.25500000000E-02 0.  1.
          2   -1    0    0  501    0  0.00000000000E+00 -0.00000000000E+00 -0.29749546641E+04  0.29749546641E+04  0.25500000000E-02 0. -1.
    8880023    1    1    2    0    0  0.15213718993E+03  0.30299864691E+03 -0.14563651930E+02  0.74092928867E+03  0.65864270000E+03 0.  1.
    8880022    1    1    2    0    0 -0.15213718993E+03 -0.30299864691E+03 -0.25838914372E+04  0.26105249505E+04  0.15294330000E+03 0.  0.
<mgrwt>
<rscale>  0 0.62357729E+03</rscale>
<asrwt>0</asrwt>
<pdfrwt beam="1">  1        2 0.45768532E+00 0.74078614E+03</pdfrwt>
<pdfrwt beam="2">  1       -2 0.57923013E-01 0.74078614E+03</pdfrwt>
<totfact> 0.53724829E+00</totfact>
</mgrwt>
</event>
<event>
 4    1  0.3032637E-007  0.9681091E+03  0.7818608E-02  0.9424524E-01
          2   -1    0    0  501    0  0.00000000000E+00  0.00000000000E+00  0.20419454731E+04  0.20419454731E+04  0.25500000000E-02 0. -1.
         -2   -1    0    0    0  501 -0.00000000000E+00 -0.00000000000E+00 -0.35768165481E+03  0.35768165481E+03  0.25500000000E-02 0.  1.
    8880023    1    1    2    0    0  0.70848278652E+03  0.38433962912E+02  0.11189926597E+04  0.14796553001E+04  0.65864270000E+03 0.  0.
    8880022    1    1    2    0    0 -0.70848278652E+03 -0.38433962912E+02  0.56527115860E+03  0.91997182786E+03  0.15294330000E+03 0.  0.
<mgrwt>
<rscale>  0 0.90084623E+03</rscale>
<asrwt>0</asrwt>
<pdfrwt beam="1">  1        2 0.31414546E+00 0.96810910E+03</pdfrwt>
<pdfrwt beam="2">  1       -2 0.55027947E-01 0.96810910E+03</pdfrwt>
<totfact> 0.19816707E+01</totfact>
</mgrwt>
</event>
<event>
 4    1  0.3032637E-007  0.1047489E+04  0.7818608E-02  0.9321906E-01
         -2   -1    0    0    0  501 -0.00000000000E+00  0.00000000000E+00  0.21130171521E+03  0.21130171522E+03  0.25500000000E-02 0.  1.
          2   -1    0    0  501    0  0.00000000000E+00 -0.00000000000E+00 -0.44077180235E+04  0.44077180235E+04  0.25500000000E-02 0. -1.
    8880023    1    1    2    0    0 -0.23689021734E+03 -0.77929825365E+03 -0.17908417249E+04  0.20746920333E+04  0.65864270000E+03 0.  0.
    8880022    1    1    2    0    0  0.23689021734E+03  0.77929825365E+03 -0.24055745835E+04  0.25443277055E+04  0.15294330000E+03 0.  0.
<mgrwt>
<rscale>  0 0.98790911E+03</rscale>
<asrwt>0</asrwt>
<pdfrwt beam="1">  1        2 0.67811039E+00 0.10474889E+04</pdfrwt>
<pdfrwt beam="2">  1       -2 0.32507960E-01 0.10474889E+04</pdfrwt>
<totfact> 0.14134104E+00</totfact>
</mgrwt>
</event>
<event>
 4    1  0.3032637E-007  0.8406809E+03  0.7818608E-02  0.9628898E-01
         -2   -1    0    0    0  501 -0.00000000000E+00  0.00000000000E+00  0.28245073448E+03  0.28245073449E+03  0.25500000000E-02 0.  1.
          2   -1    0    0  501    0  0.00000000000E+00 -0.00000000000E+00 -0.36032490131E+04  0.36032490131E+04  0.25500000000E-02 0. -1.
    8880023    1    1    2    0    0  0.42802657918E+03 -0.29954535275E+03 -0.43033112611E+03  0.94442006290E+03  0.65864270000E+03 0.  1.
    8880022    1    1    2    0    0 -0.42802657918E+03  0.29954535275E+03 -0.28904671525E+04  0.29412796847E+04  0.15294330000E+03 0.  0.
<mgrwt>
<rscale>  0 0.75412714E+03</rscale>
<asrwt>0</asrwt>
<pdfrwt beam="1">  1        2 0.55434597E+00 0.84068090E+03</pdfrwt>
<pdfrwt beam="2">  1       -2 0.43453962E-01 0.84068090E+03</pdfrwt>
<totfact> 0.36881798E+00</totfact>
</mgrwt>
</event>
<event>
 4    1  0.3032637E-007  0.7822122E+03  0.7818608E-02  0.9750666E-01
         -2   -1    0    0    0  501 -0.00000000000E+00  0.00000000000E+00  0.26556618651E+03  0.26556618652E+03  0.25500000000E-02 0.  1.
          2   -1    0    0  501    0  0.00000000000E+00 -0.00000000000E+00 -0.30192855157E+04  0.30192855157E+04  0.25500000000E-02 0. -1.
    8880023    1    1    2    0    0  0.28392658388E+03 -0.31214001194E+03 -0.38101903545E+03  0.87007551610E+03  0.65864270000E+03 0.  1.
    8880022    1    1    2    0    0 -0.28392658388E+03  0.31214001194E+03 -0.23727002937E+04  0.24147761861E+04  0.15294330000E+03 0.  0.
<mgrwt>
<rscale>  0 0.68078649E+03</rscale>
<asrwt>0</asrwt>
<pdfrwt beam="1">  1        2 0.46450544E+00 0.78221218E+03</pdfrwt>
<pdfrwt beam="2">  1       -2 0.40856339E-01 0.78221218E+03</pdfrwt>
<totfact> 0.10160487E+01</totfact>
</mgrwt>
</event>
<event>
 4    1  0.3032637E-007  0.9230985E+03  0.7818608E-02  0.9489924E-01
         -2   -1    0    0    0  501 -0.00000000000E+00  0.00000000000E+00  0.58295809235E+03  0.58295809235E+03  0.25500000000E-02 0.  1.
          2   -1    0    0  501    0  0.00000000000E+00 -0.00000000000E+00 -0.25282207628E+04  0.25282207628E+04  0.25500000000E-02 0. -1.
    8880023    1    1    2    0    0 -0.61254170478E+03  0.20758931778E+03  0.12989671634E+03  0.93219312813E+03  0.65864270000E+03 0.  1.
    8880022    1    1    2    0    0  0.61254170478E+03 -0.20758931778E+03 -0.20751593868E+04  0.21789857270E+04  0.15294330000E+03 0.  0.
<mgrwt>
<rscale>  0 0.85030752E+03</rscale>
<asrwt>0</asrwt>
<pdfrwt beam="1">  1        2 0.38895703E+00 0.92309852E+03</pdfrwt>
<pdfrwt beam="2">  1       -2 0.89685862E-01 0.92309852E+03</pdfrwt>
<totfact> 0.36469313E+00</totfact>
</mgrwt>
</event>
<event>
 4    1  0.3032637E-007  0.1142608E+04  0.7818608E-02  0.9215037E-01
         -2   -1    0    0    0  501 -0.00000000000E+00  0.00000000000E+00  0.79466792142E+03  0.79466792143E+03  0.25500000000E-02 0.  1.
          2   -1    0    0  501    0  0.00000000000E+00 -0.00000000000E+00 -0.16837881844E+04  0.16837881844E+04  0.25500000000E-02 0. -1.
    8880023    1    1    2    0    0 -0.93356615274E+03  0.14045293301E+02  0.52244309488E+02  0.11438018648E+04  0.65864270000E+03 0. -1.
    8880022    1    1    2    0    0  0.93356615274E+03 -0.14045293301E+02 -0.94136457250E+03  0.13346542411E+04  0.15294330000E+03 0. -1.
<mgrwt>
<rscale>  0 0.10899561E+04</rscale>
<asrwt>0</asrwt>
<pdfrwt beam="1">  1        2 0.25904433E+00 0.11426081E+04</pdfrwt>
<pdfrwt beam="2">  1       -2 0.12225660E+00 0.11426081E+04</pdfrwt>
<totfact> 0.49755144E+00</totfact>
</mgrwt>
</event>
<event>
 4    1  0.3032637E-007  0.1014916E+04  0.7818608E-02  0.9362298E-01
         -2   -1    0    0    0  501 -0.00000000000E+00  0.00000000000E+00  0.16340131337E+04  0.16340131337E+04  0.25500000000E-02 0.  1.
          2   -1    0    0  501    0  0.00000000000E+00 -0.00000000000E+00 -0.14836445453E+04  0.14836445453E+04  0.25500000000E-02 0. -1.
    8880023    1    1    2    0    0 -0.51128098524E+03 -0.57864991017E+03  0.13462511685E+04  0.16859556280E+04  0.65864270000E+03 0.  0.
    8880022    1    1    2    0    0  0.51128098524E+03  0.57864991017E+03 -0.11958825801E+04  0.14317020510E+04  0.15294330000E+03 0.  0.
<mgrwt>
<rscale>  0 0.95244426E+03</rscale>
<asrwt>0</asrwt>
<pdfrwt beam="1">  1        2 0.22825301E+00 0.10149158E+04</pdfrwt>
<pdfrwt beam="2">  1       -2 0.25138664E+00 0.10149158E+04</pdfrwt>
<totfact> 0.81390822E-01</totfact>
</mgrwt>
</event>
<event>
 4    1  0.3032637E-007  0.6907737E+03  0.7818608E-02  0.1003787E+00
         -2   -1    0    0    0  501 -0.00000000000E+00  0.00000000000E+00  0.49439275192E+03  0.49439275192E+03  0.25500000000E-02 0.  1.
          2   -1    0    0  501    0  0.00000000000E+00 -0.00000000000E+00 -0.19004762988E+04  0.19004762988E+04  0.25500000000E-02 0. -1.
    8880023    1    1    2    0    0 -0.20094087573E+03 -0.54596945933E+02  0.23798839391E+03  0.73062079353E+03  0.65864270000E+03 0.  1.
    8880022    1    1    2    0    0  0.20094087573E+03  0.54596945933E+02 -0.16440719408E+04  0.16642482572E+04  0.15294330000E+03 0.  0.
<mgrwt>
<rscale>  0 0.54020427E+03</rscale>
<asrwt>0</asrwt>
<pdfrwt beam="1">  1        2 0.29238096E+00 0.69077367E+03</pdfrwt>
<pdfrwt beam="2">  1       -2 0.76060424E-01 0.69077367E+03</pdfrwt>
<totfact> 0.12240051E+01</totfact>
</mgrwt>
</event>
<event>
 4    1  0.3032637E-007  0.1091228E+04  0.7818608E-02  0.9270886E-01
         -2   -1    0    0    0  501 -0.00000000000E+00  0.00000000000E+00  0.25002482028E+04  0.25002482028E+04  0.25500000000E-02 0.  1.
          2   -1    0    0  501    0  0.00000000000E+00 -0.00000000000E+00 -0.59095178192E+03  0.59095178192E+03  0.25500000000E-02 0. -1.
    8880023    1    1    2    0    0 -0.65864399880E+03  0.56846889310E+03  0.19192297704E+04  0.22077640085E+04  0.65864270000E+03 0.  1.
    8880022    1    1    2    0    0  0.65864399880E+03 -0.56846889310E+03 -0.99333494977E+01  0.88343597619E+03  0.15294330000E+03 0.  0.
<mgrwt>
<rscale>  0 0.10350792E+04</rscale>
<asrwt>0</asrwt>
<pdfrwt beam="1">  1        2 0.90915661E-01 0.10912282E+04</pdfrwt>
<pdfrwt beam="2">  1       -2 0.38465356E+00 0.10912282E+04</pdfrwt>
<totfact> 0.47430589E-01</totfact>
</mgrwt>
</event>
<event>
 4    1  0.3032637E-007  0.7089033E+03  0.7818608E-02  0.9962096E-01
         -2   -1    0    0    0  501 -0.00000000000E+00  0.00000000000E+00  0.89122806599E+03  0.89122806600E+03  0.25500000000E-02 0.  1.
          2   -1    0    0  501    0  0.00000000000E+00 -0.00000000000E+00 -0.49186266491E+03  0.49186266492E+03  0.25500000000E-02 0. -1.
    8880023    1    1    2    0    0 -0.22764654665E+03  0.13004148015E+03  0.67075058038E+03  0.97593559424E+03  0.65864270000E+03 0.  0.
    8880022    1    1    2    0    0  0.22764654665E+03 -0.13004148015E+03 -0.27138517930E+03  0.40715513667E+03  0.15294330000E+03 0.  0.
<mgrwt>
<rscale>  0 0.57343960E+03</rscale>
<asrwt>0</asrwt>
<pdfrwt beam="1">  1        2 0.75671180E-01 0.70890334E+03</pdfrwt>
<pdfrwt beam="2">  1       -2 0.13711201E+00 0.70890334E+03</pdfrwt>
<totfact> 0.24183516E+01</totfact>
</mgrwt>
</event>
<event>
 4    1  0.3032637E-007  0.7052806E+03  0.7818608E-02  0.9975962E-01
          2   -1    0    0  501    0  0.00000000000E+00  0.00000000000E+00  0.77839761076E+03  0.77839761076E+03  0.25500000000E-02 0. -1.
         -2   -1    0    0    0  501 -0.00000000000E+00 -0.00000000000E+00 -0.47374391799E+03  0.47374391799E+03  0.25500000000E-02 0.  1.
    8880023    1    1    2    0    0 -0.12204470811E+03 -0.22071614755E+03 -0.13952240768E+03  0.71894870267E+03  0.65864270000E+03 0.  0.
    8880022    1    1    2    0    0  0.12204470811E+03  0.22071614755E+03  0.44417610045E+03  0.53319282609E+03  0.15294330000E+03 0.  0.
<mgrwt>
<rscale>  0 0.56716931E+03</rscale>
<asrwt>0</asrwt>
<pdfrwt beam="1">  1        2 0.11975348E+00 0.70528061E+03</pdfrwt>
<pdfrwt beam="2">  1       -2 0.72883681E-01 0.70528061E+03</pdfrwt>
<totfact> 0.61780501E+01</totfact>
</mgrwt>
</event>
<event>
 4    1  0.3032637E-007  0.1231310E+04  0.7818608E-02  0.9127272E-01
         -2   -1    0    0    0  501 -0.00000000000E+00  0.00000000000E+00  0.45135664849E+03  0.45135664850E+03  0.25500000000E-02 0.  1.
          2   -1    0    0  501    0  0.00000000000E+00 -0.00000000000E+00 -0.37240165340E+04  0.37240165340E+04  0.25500000000E-02 0. -1.
    8880023    1    1    2    0    0 -0.10144262980E+04 -0.23076579709E+03 -0.27238908383E+04  0.29892649719E+04  0.65864270000E+03 0. -1.
    8880022    1    1    2    0    0  0.10144262980E+04  0.23076579709E+03 -0.54876904730E+03  0.11861082107E+04  0.15294330000E+03 0.  0.
<mgrwt>
<rscale>  0 0.11836694E+04</rscale>
<asrwt>0</asrwt>
<pdfrwt beam="1">  1        2 0.57292560E+00 0.12313098E+04</pdfrwt>
<pdfrwt beam="2">  1       -2 0.69439487E-01 0.12313098E+04</pdfrwt>
<totfact> 0.10662549E+00</totfact>
</mgrwt>
</event>
<event>
 4    1  0.3032637E-007  0.1474047E+04  0.7818608E-02  0.8928183E-01
         -2   -1    0    0    0  501 -0.00000000000E+00  0.00000000000E+00  0.89345840599E+03  0.89345840599E+03  0.25500000000E-02 0.  1.
          2   -1    0    0  501    0  0.00000000000E+00 -0.00000000000E+00 -0.26439480408E+04  0.26439480408E+04  0.25500000000E-02 0. -1.
    8880023    1    1    2    0    0 -0.38321741793E+03 -0.12618039888E+04 -0.18625710514E+03  0.14857680879E+04  0.65864270000E+03 0.  0.
    8880022    1    1    2    0    0  0.38321741793E+03  0.12618039888E+04 -0.15642325297E+04  0.20516383589E+04  0.15294330000E+03 0.  0.
<mgrwt>
<rscale>  0 0.14359737E+04</rscale>
<asrwt>0</asrwt>
<pdfrwt beam="1">  1        2 0.40676123E+00 0.14740472E+04</pdfrwt>
<pdfrwt beam="2">  1       -2 0.13745514E+00 0.14740472E+04</pdfrwt>
<totfact> 0.10257947E+00</totfact>
</mgrwt>
</event>
<event>
 4    1  0.3032637E-007  0.8515759E+03  0.7818608E-02  0.9608728E-01
          2   -1    0    0  501    0  0.00000000000E+00  0.00000000000E+00  0.31148996483E+04  0.31148996483E+04  0.25500000000E-02 0. -1.
         -2   -1    0    0    0  501 -0.00000000000E+00 -0.00000000000E+00 -0.40336339975E+03  0.40336339976E+03  0.25500000000E-02 0.  1.
    8880023    1    1    2    0    0  0.18041952699E+03 -0.50874368466E+03  0.11204227628E+03  0.85891502510E+03  0.65864270000E+03 0.  1.
    8880022    1    1    2    0    0 -0.18041952699E+03  0.50874368466E+03  0.25994939723E+04  0.26593480230E+04  0.15294330000E+03 0.  0.
<mgrwt>
<rscale>  0 0.76721218E+03</rscale>
<asrwt>0</asrwt>
<pdfrwt beam="1">  1        2 0.47921535E+00 0.85157592E+03</pdfrwt>
<pdfrwt beam="2">  1       -2 0.62055905E-01 0.85157592E+03</pdfrwt>
<totfact> 0.37283548E+00</totfact>
</mgrwt>
</event>
<event>
 4    1  0.3032637E-007  0.1224425E+04  0.7818608E-02  0.9133737E-01
          2   -1    0    0  501    0  0.00000000000E+00  0.00000000000E+00  0.15271379459E+04  0.15271379459E+04  0.25500000000E-02 0. -1.
         -2   -1    0    0    0  501 -0.00000000000E+00 -0.00000000000E+00 -0.15047664915E+04  0.15047664915E+04  0.25500000000E-02 0.  1.
    8880023    1    1    2    0    0 -0.57808838463E+03 -0.85511432013E+03 -0.99261289045E+03  0.15762288024E+04  0.65864270000E+03 0.  1.
    8880022    1    1    2    0    0  0.57808838463E+03  0.85511432013E+03  0.10149843449E+04  0.14556756350E+04  0.15294330000E+03 0.  0.
<mgrwt>
<rscale>  0 0.11764341E+04</rscale>
<asrwt>0</asrwt>
<pdfrwt beam="1">  1        2 0.23494430E+00 0.12244251E+04</pdfrwt>
<pdfrwt beam="2">  1       -2 0.23150254E+00 0.12244251E+04</pdfrwt>
<totfact> 0.99237118E-01</totfact>
</mgrwt>
</event>
<event>
 4    1  0.3032637E-007  0.9521967E+03  0.7818608E-02  0.9446961E-01
         -2   -1    0    0    0  501 -0.00000000000E+00  0.00000000000E+00  0.52562267967E+03  0.52562267968E+03  0.25500000000E-02 0.  1.
          2   -1    0    0  501    0  0.00000000000E+00 -0.00000000000E+00 -0.15606484654E+04  0.15606484654E+04  0.25500000000E-02 0. -1.
    8880023    1    1    2    0    0  0.41023868545E+03 -0.55188085944E+03 -0.16431119620E+03  0.96626944354E+03  0.65864270000E+03 0.  0.
    8880022    1    1    2    0    0 -0.41023868545E+03  0.55188085944E+03 -0.87071458956E+03  0.11200017016E+04  0.15294330000E+03 0.  0.
<mgrwt>
<rscale>  0 0.88309746E+03</rscale>
<asrwt>0</asrwt>
<pdfrwt beam="1">  1        2 0.24009976E+00 0.95219665E+03</pdfrwt>
<pdfrwt beam="2">  1       -2 0.80865028E-01 0.95219665E+03</pdfrwt>
<totfact> 0.15864676E+01</totfact>
</mgrwt>
</event>
<event>
 4    1  0.3032637E-007  0.1049633E+04  0.7818608E-02  0.9319322E-01
         -2   -1    0    0    0  501 -0.00000000000E+00  0.00000000000E+00  0.91819439604E+03  0.91819439604E+03  0.25500000000E-02 0.  1.
          2   -1    0    0  501    0  0.00000000000E+00 -0.00000000000E+00 -0.14929669402E+04  0.14929669402E+04  0.25500000000E-02 0. -1.
    8880023    1    1    2    0    0 -0.62056080332E+03 -0.53181213598E+03  0.40596856735E+03  0.11254068342E+04  0.65864270000E+03 0.  0.
    8880022    1    1    2    0    0  0.62056080332E+03  0.53181213598E+03 -0.98074111150E+03  0.12857545020E+04  0.15294330000E+03 0.  0.
<mgrwt>
<rscale>  0 0.99023307E+03</rscale>
<asrwt>0</asrwt>
<pdfrwt beam="1">  1        2 0.22968722E+00 0.10496333E+04</pdfrwt>
<pdfrwt beam="2">  1       -2 0.14126068E+00 0.10496333E+04</pdfrwt>
<totfact> 0.44385601E+00</totfact>
</mgrwt>
</event>
<event>
 4    1  0.3032637E-007  0.1717092E+04  0.7818608E-02  0.8769840E-01
          2   -1    0    0  501    0  0.00000000000E+00  0.00000000000E+00  0.14214287111E+04  0.14214287111E+04  0.25500000000E-02 0. -1.
         -2   -1    0    0    0  501 -0.00000000000E+00 -0.00000000000E+00 -0.30596647633E+04  0.30596647633E+04  0.25500000000E-02 0.  1.
    8880023    1    1    2    0    0 -0.11447978107E+04 -0.10972846667E+04 -0.22009559330E+04  0.27915251910E+04  0.65864270000E+03 0.  0.
    8880022    1    1    2    0    0  0.11447978107E+04  0.10972846667E+04  0.56271988067E+03  0.16895682834E+04  0.15294330000E+03 0.  0.
<mgrwt>
<rscale>  0 0.16852192E+04</rscale>
<asrwt>0</asrwt>
<pdfrwt beam="1">  1        2 0.21868134E+00 0.17170923E+04</pdfrwt>
<pdfrwt beam="2">  1       -2 0.47071765E+00 0.17170923E+04</pdfrwt>
<totfact> 0.32668018E-02</totfact>
</mgrwt>
</event>
<event>
 4    1  0.3032637E-007  0.7916425E+03  0.7818608E-02  0.9729167E-01
          2   -1    0    0  501    0  0.00000000000E+00  0.00000000000E+00  0.79862725630E+03  0.79862725630E+03  0.25500000000E-02 0. -1.
         -2   -1    0    0    0  501 -0.00000000000E+00 -0.00000000000E+00 -0.67418619255E+03  0.67418619256E+03  0.25500000000E-02 0.  1.
    8880023    1    1    2    0    0 -0.43696902418E+03 -0.44109744075E+02 -0.29669076577E+03  0.84541304365E+03  0.65864270000E+03 0.  1.
    8880022    1    1    2    0    0  0.43696902418E+03  0.44109744075E+02  0.42113182951E+03  0.62740040521E+03  0.15294330000E+03 0.  0.
<mgrwt>
<rscale>  0 0.69306453E+03</rscale>
<asrwt>0</asrwt>
<pdfrwt beam="1">  1        2 0.12286573E+00 0.79164247E+03</pdfrwt>
<pdfrwt beam="2">  1       -2 0.10372095E+00 0.79164247E+03</pdfrwt>
<totfact> 0.26411433E+01</totfact>
</mgrwt>
</event>
<event>
 4    1  0.3032637E-007  0.7376708E+03  0.7818608E-02  0.9866785E-01
          2   -1    0    0  501    0  0.00000000000E+00  0.00000000000E+00  0.22648741738E+04  0.22648741738E+04  0.25500000000E-02 0. -1.
         -2   -1    0    0    0  501 -0.00000000000E+00 -0.00000000000E+00 -0.30418814425E+03  0.30418814426E+03  0.25500000000E-02 0.  1.
    8880023    1    1    2    0    0 -0.31458455570E+03 -0.10669825604E+03  0.19101616666E+03  0.76200088104E+03  0.65864270000E+03 0.  1.
    8880022    1    1    2    0    0  0.31458455570E+03  0.10669825604E+03  0.17696698629E+04  0.18070614370E+04  0.15294330000E+03 0.  0.
<mgrwt>
<rscale>  0 0.61898402E+03</rscale>
<asrwt>0</asrwt>
<pdfrwt beam="1">  1        2 0.34844219E+00 0.73767077E+03</pdfrwt>
<pdfrwt beam="2">  1       -2 0.46798175E-01 0.73767077E+03</pdfrwt>
<totfact> 0.21399437E+01</totfact>
</mgrwt>
</event>
<event>
 4    1  0.3032637E-007  0.8639211E+03  0.7818608E-02  0.9586626E-01
         -2   -1    0    0    0  501 -0.00000000000E+00  0.00000000000E+00  0.40152199976E+03  0.40152199977E+03  0.25500000000E-02 0.  1.
          2   -1    0    0  501    0  0.00000000000E+00 -0.00000000000E+00 -0.28352757105E+04  0.28352757105E+04  0.25500000000E-02 0. -1.
    8880023    1    1    2    0    0  0.29931187932E+03 -0.47218832773E+03 -0.14526140297E+03  0.87604822893E+03  0.65864270000E+03 0.  1.
    8880022    1    1    2    0    0 -0.29931187932E+03  0.47218832773E+03 -0.22884923077E+04  0.23607494813E+04  0.15294330000E+03 0.  0.
<mgrwt>
<rscale>  0 0.78187700E+03</rscale>
<asrwt>0</asrwt>
<pdfrwt beam="1">  1        2 0.43619625E+00 0.86392108E+03</pdfrwt>
<pdfrwt beam="2">  1       -2 0.61772617E-01 0.86392108E+03</pdfrwt>
<totfact> 0.55702644E+00</totfact>
</mgrwt>
</event>
<event>
 4    1  0.3032637E-007  0.9975374E+03  0.7818608E-02  0.9384787E-01
          2   -1    0    0  501    0  0.00000000000E+00  0.00000000000E+00  0.21210843418E+04  0.21210843418E+04  0.25500000000E-02 0. -1.
         -2   -1    0    0    0  501 -0.00000000000E+00 -0.00000000000E+00 -0.55238996551E+03  0.55238996551E+03  0.25500000000E-02 0.  1.
    8880023    1    1    2    0    0 -0.70215456582E+03 -0.26124633326E+03  0.81046769807E+02  0.10008243932E+04  0.65864270000E+03 0.  0.
    8880022    1    1    2    0    0  0.70215456582E+03  0.26124633326E+03  0.14876476065E+04  0.16726499141E+04  0.15294330000E+03 0.  0.
<mgrwt>
<rscale>  0 0.93338332E+03</rscale>
<asrwt>0</asrwt>
<pdfrwt beam="1">  1        2 0.32632067E+00 0.99753741E+03</pdfrwt>
<pdfrwt beam="2">  1       -2 0.84983070E-01 0.99753741E+03</pdfrwt>
<totfact> 0.69189651E+00</totfact>
</mgrwt>
</event>
<event>
 4    1  0.3032637E-007  0.1088827E+04  0.7818608E-02  0.9273599E-01
          2   -1    0    0  501    0  0.00000000000E+00  0.00000000000E+00  0.29518256001E+04  0.29518256001E+04  0.25500000000E-02 0. -1.
         -2   -1    0    0    0  501 -0.00000000000E+00 -0.00000000000E+00 -0.35362649736E+03  0.35362649737E+03  0.25500000000E-02 0.  1.
    8880023    1    1    2    0    0  0.65975881295E+03 -0.56254046255E+03  0.98795383773E+03  0.14702368704E+04  0.65864270000E+03 0.  0.
    8880022    1    1    2    0    0 -0.65975881295E+03  0.56254046255E+03  0.16102452650E+04  0.18352152271E+04  0.15294330000E+03 0.  0.
<mgrwt>
<rscale>  0 0.10325012E+04</rscale>
<asrwt>0</asrwt>
<pdfrwt beam="1">  1        2 0.45412699E+00 0.10888267E+04</pdfrwt>
<pdfrwt beam="2">  1       -2 0.54404079E-01 0.10888267E+04</pdfrwt>
<totfact> 0.59930960E+00</totfact>
</mgrwt>
</event>
<event>
 4    1  0.3032637E-007  0.8763538E+03  0.7818608E-02  0.9565110E-01
          2   -1    0    0  501    0  0.00000000000E+00  0.00000000000E+00  0.26190073916E+04  0.26190073916E+04  0.25500000000E-02 0. -1.
         -2   -1    0    0    0  501 -0.00000000000E+00 -0.00000000000E+00 -0.61460858950E+03  0.61460858951E+03  0.25500000000E-02 0.  1.
    8880023    1    1    2    0    0  0.42551842928E+03  0.39130522787E+03 -0.24186758788E+03  0.90911817238E+03  0.65864270000E+03 0.  0.
    8880022    1    1    2    0    0 -0.42551842928E+03 -0.39130522787E+03  0.22462663899E+04  0.23244978087E+04  0.15294330000E+03 0.  0.
<mgrwt>
<rscale>  0 0.79649095E+03</rscale>
<asrwt>0</asrwt>
<pdfrwt beam="1">  1        2 0.40292422E+00 0.87635376E+03</pdfrwt>
<pdfrwt beam="2">  1       -2 0.94555167E-01 0.87635376E+03</pdfrwt>
<totfact> 0.28802812E+00</totfact>
</mgrwt>
</event>
<event>
 4    1  0.3032637E-007  0.8094456E+03  0.7818608E-02  0.9690733E-01
          2   -1    0    0  501    0  0.00000000000E+00  0.00000000000E+00  0.15936189164E+04  0.15936189164E+04  0.25500000000E-02 0. -1.
         -2   -1    0    0    0  501 -0.00000000000E+00 -0.00000000000E+00 -0.71373482442E+03  0.71373482443E+03  0.25500000000E-02 0.  1.
    8880023    1    1    2    0    0 -0.44039462961E+03  0.16566411711E+03 -0.42327537179E+03  0.91343542525E+03  0.65864270000E+03 0.  0.
    8880022    1    1    2    0    0  0.44039462961E+03 -0.16566411711E+03  0.13031594637E+04  0.13939183155E+04  0.15294330000E+03 0.  0.
<mgrwt>
<rscale>  0 0.71571245E+03</rscale>
<asrwt>0</asrwt>
<pdfrwt beam="1">  1        2 0.24517214E+00 0.80944563E+03</pdfrwt>
<pdfrwt beam="2">  1       -2 0.10980536E+00 0.80944563E+03</pdfrwt>
<totfact> 0.75552029E+00</totfact>
</mgrwt>
</event>
<event>
 4    1  0.3032637E-007  0.7791121E+03  0.7818608E-02  0.9757927E-01
          2   -1    0    0  501    0  0.00000000000E+00  0.00000000000E+00  0.21484769980E+04  0.21484769980E+04  0.25500000000E-02 0. -1.
         -2   -1    0    0    0  501 -0.00000000000E+00 -0.00000000000E+00 -0.70376873423E+03  0.70376873424E+03  0.25500000000E-02 0.  1.
    8880023    1    1    2    0    0  0.17262838618E+02 -0.41582133963E+03 -0.45448414039E+03  0.90198194672E+03  0.65864270000E+03 0.  1.
    8880022    1    1    2    0    0 -0.17262838618E+02  0.41582133963E+03  0.18991924042E+04  0.19502637856E+04  0.15294330000E+03 0.  0.
<mgrwt>
<rscale>  0 0.67670139E+03</rscale>
<asrwt>0</asrwt>
<pdfrwt beam="1">  1        2 0.33053492E+00 0.77911206E+03</pdfrwt>
<pdfrwt beam="2">  1       -2 0.10827211E+00 0.77911206E+03</pdfrwt>
<totfact> 0.39000753E+00</totfact>
</mgrwt>
</event>
<event>
 4    1  0.3032637E-007  0.7178797E+03  0.7818608E-02  0.9929827E-01
         -2   -1    0    0    0  501 -0.00000000000E+00  0.00000000000E+00  0.15484572535E+03  0.15484572537E+03  0.25500000000E-02 0.  1.
          2   -1    0    0  501    0  0.00000000000E+00 -0.00000000000E+00 -0.17807854888E+04  0.17807854888E+04  0.25500000000E-02 0. -1.
    8880023    1    1    2    0    0  0.14922102014E+03  0.24346292948E+03 -0.12288452235E+04  0.14231696668E+04  0.65864270000E+03 0.  0.
    8880022    1    1    2    0    0 -0.14922102014E+03 -0.24346292948E+03 -0.39709453999E+03  0.51246154742E+03  0.15294330000E+03 0. -1.
<mgrwt>
<rscale>  0 0.58837290E+03</rscale>
<asrwt>0</asrwt>
<pdfrwt beam="1">  1        2 0.27396698E+00 0.71787974E+03</pdfrwt>
<pdfrwt beam="2">  1       -2 0.23822421E-01 0.71787974E+03</pdfrwt>
<totfact> 0.14157762E+02</totfact>
</mgrwt>
</event>
<event>
 4    1  0.3975149E-007  0.1135089E+04  0.7818608E-02  0.9222959E-01
          2   -1    0    0  501    0  0.00000000000E+00  0.00000000000E+00  0.22104938336E+04  0.22104938336E+04  0.25500000000E-02 0. -1.
         -2   -1    0    0    0  501 -0.00000000000E+00 -0.00000000000E+00 -0.13104945068E+04  0.13104945068E+04  0.25500000000E-02 0.  1.
    8880023    1    1    2    0    0 -0.92183419244E+03 -0.69560711793E+02 -0.92843927689E+03  0.14664333153E+04  0.65864270000E+03 0.  0.
    8880022    1    1    2    0    0  0.92183419244E+03  0.69560711793E+02  0.18284386036E+04  0.20545550251E+04  0.15294330000E+03 0.  0.
<mgrwt>
<rscale>  0 0.10819565E+04</rscale>
<asrwt>0</asrwt>
<pdfrwt beam="1">  1        2 0.34007597E+00 0.11350891E+04</pdfrwt>
<pdfrwt beam="2">  1       -2 0.20161454E+00 0.11350891E+04</pdfrwt>
<totfact> 0.64900786E-01</totfact>
</mgrwt>
</event>
<event>
 4    1  0.3032637E-007  0.1151516E+04  0.7818608E-02  0.9205757E-01
         -2   -1    0    0    0  501 -0.00000000000E+00  0.00000000000E+00  0.21474357656E+04  0.21474357656E+04  0.25500000000E-02 0.  1.
          2   -1    0    0  501    0  0.00000000000E+00 -0.00000000000E+00 -0.70004563670E+03  0.70004563671E+03  0.25500000000E-02 0. -1.
    8880023    1    1    2    0    0  0.58199530048E+03  0.74394859297E+03  0.14978196870E+04  0.18892993569E+04  0.65864270000E+03 0.  0.
    8880022    1    1    2    0    0 -0.58199530048E+03 -0.74394859297E+03 -0.50429558177E+02  0.95818204539E+03  0.15294330000E+03 0.  0.
<mgrwt>
<rscale>  0 0.10994204E+04</rscale>
<asrwt>0</asrwt>
<pdfrwt beam="1">  1        2 0.10769933E+00 0.11515156E+04</pdfrwt>
<pdfrwt beam="2">  1       -2 0.33037472E+00 0.11515156E+04</pdfrwt>
<totfact> 0.83795974E-01</totfact>
</mgrwt>
</event>
<event>
 4    1  0.3032637E-007  0.9884103E+03  0.7818608E-02  0.9396880E-01
         -2   -1    0    0    0  501 -0.00000000000E+00  0.00000000000E+00  0.77666646823E+03  0.77666646824E+03  0.25500000000E-02 0.  1.
          2   -1    0    0  501    0  0.00000000000E+00 -0.00000000000E+00 -0.10750652629E+04  0.10750652629E+04  0.25500000000E-02 0. -1.
    8880023    1    1    2    0    0  0.51381926965E+03  0.52833178047E+03 -0.44655285733E+03  0.10846033251E+04  0.65864270000E+03 0.  0.
    8880022    1    1    2    0    0 -0.51381926965E+03 -0.52833178047E+03  0.14815406265E+03  0.76712840608E+03  0.15294330000E+03 0.  0.
<mgrwt>
<rscale>  0 0.92332888E+03</rscale>
<asrwt>0</asrwt>
<pdfrwt beam="1">  1        2 0.16539466E+00 0.98841030E+03</pdfrwt>
<pdfrwt beam="2">  1       -2 0.11948715E+00 0.98841030E+03</pdfrwt>
<totfact> 0.12039011E+01</totfact>
</mgrwt>
</event>
<event>
 4    1  0.3032637E-007  0.1025698E+04  0.7818608E-02  0.9348683E-01
          2   -1    0    0  501    0  0.00000000000E+00  0.00000000000E+00  0.11646717117E+04  0.11646717117E+04  0.25500000000E-02 0. -1.
         -2   -1    0    0    0  501 -0.00000000000E+00 -0.00000000000E+00 -0.11416335113E+04  0.11416335113E+04  0.25500000000E-02 0.  1.
    8880023    1    1    2    0    0  0.50553565304E+03  0.60222895306E+03 -0.68812612872E+03  0.12351411999E+04  0.65864270000E+03 0.  1.
    8880022    1    1    2    0    0 -0.50553565304E+03 -0.60222895306E+03  0.71116432915E+03  0.10711640231E+04  0.15294330000E+03 0.  0.
<mgrwt>
<rscale>  0 0.96421933E+03</rscale>
<asrwt>0</asrwt>
<pdfrwt beam="1">  1        2 0.17918026E+00 0.10256979E+04</pdfrwt>
<pdfrwt beam="2">  1       -2 0.17563593E+00 0.10256979E+04</pdfrwt>
<totfact> 0.38237336E+00</totfact>
</mgrwt>
</event>
<event>
 4    1  0.3032637E-007  0.6702472E+03  0.7818608E-02  0.1015486E+00
          2   -1    0    0  501    0  0.00000000000E+00  0.00000000000E+00  0.66448358632E+03  0.66448358633E+03  0.25500000000E-02 0. -1.
         -2   -1    0    0    0  501 -0.00000000000E+00 -0.00000000000E+00 -0.43744280079E+03  0.43744280080E+03  0.25500000000E-02 0.  1.
    8880023    1    1    2    0    0  0.86478658330E+02  0.89121123462E+02 -0.14059145343E+03  0.68483377256E+03  0.65864270000E+03 0.  1.
    8880022    1    1    2    0    0 -0.86478658330E+02 -0.89121123462E+02  0.36763223896E+03  0.41709261457E+03  0.15294330000E+03 0.  0.
<mgrwt>
<rscale>  0 0.49351246E+03</rscale>
<asrwt>0</asrwt>
<pdfrwt beam="1">  1        2 0.10222824E+00 0.67024722E+03</pdfrwt>
<pdfrwt beam="2">  1       -2 0.67298892E-01 0.67024722E+03</pdfrwt>
<totfact> 0.90125267E+01</totfact>
</mgrwt>
</event>
<event>
 4    1  0.3032637E-007  0.9713114E+03  0.7818608E-02  0.9420093E-01
         -2   -1    0    0    0  501 -0.00000000000E+00  0.00000000000E+00  0.75425317191E+03  0.75425317192E+03  0.25500000000E-02 0.  1.
          2   -1    0    0  501    0  0.00000000000E+00 -0.00000000000E+00 -0.17267728861E+04  0.17267728861E+04  0.25500000000E-02 0. -1.
    8880023    1    1    2    0    0  0.10789084969E+03 -0.70568779351E+03  0.29772423556E+03  0.10159161501E+04  0.65864270000E+03 0.  0.
    8880022    1    1    2    0    0 -0.10789084969E+03  0.70568779351E+03 -0.12702439498E+04  0.14651099079E+04  0.15294330000E+03 0.  0.
<mgrwt>
<rscale>  0 0.90440418E+03</rscale>
<asrwt>0</asrwt>
<pdfrwt beam="1">  1        2 0.26565737E+00 0.97131143E+03</pdfrwt>
<pdfrwt beam="2">  1       -2 0.11603895E+00 0.97131143E+03</pdfrwt>
<totfact> 0.54633156E+00</totfact>
</mgrwt>
</event>
<event>
 4    1  0.3032637E-007  0.1388865E+04  0.7818608E-02  0.8992383E-01
          2   -1    0    0  501    0  0.00000000000E+00  0.00000000000E+00  0.91447664981E+03  0.91447664981E+03  0.25500000000E-02 0. -1.
         -2   -1    0    0    0  501 -0.00000000000E+00 -0.00000000000E+00 -0.19755949740E+04  0.19755949740E+04  0.25500000000E-02 0.  1.
    8880023    1    1    2    0    0  0.10473147343E+04 -0.63108494804E+03 -0.24045735869E+03  0.14095269816E+04  0.65864270000E+03 0.  1.
    8880022    1    1    2    0    0 -0.10473147343E+04  0.63108494804E+03 -0.82066096549E+03  0.14805446422E+04  0.15294330000E+03 0.  0.
<mgrwt>
<rscale>  0 0.13479473E+04</rscale>
<asrwt>0</asrwt>
<pdfrwt beam="1">  1        2 0.14068872E+00 0.13888652E+04</pdfrwt>
<pdfrwt beam="2">  1       -2 0.30393769E+00 0.13888652E+04</pdfrwt>
<totfact> 0.82741909E-01</totfact>
</mgrwt>
</event>
<event>
 4    1  0.3032637E-007  0.8856782E+03  0.7818608E-02  0.9549425E-01
          2   -1    0    0  501    0  0.00000000000E+00  0.00000000000E+00  0.42077956935E+04  0.42077956935E+04  0.25500000000E-02 0. -1.
         -2   -1    0    0    0  501 -0.00000000000E+00 -0.00000000000E+00 -0.14223765560E+03  0.14223765562E+03  0.25500000000E-02 0.  1.
    8880023    1    1    2    0    0  0.26095747248E+03 -0.53152311462E+03  0.29211825739E+04  0.30524962670E+04  0.65864270000E+03 0.  0.
    8880022    1    1    2    0    0 -0.26095747248E+03  0.53152311462E+03  0.11443754640E+04  0.12975370821E+04  0.15294330000E+03 0.  0.
<mgrwt>
<rscale>  0 0.80735951E+03</rscale>
<asrwt>0</asrwt>
<pdfrwt beam="1">  1        2 0.64735315E+00 0.88567818E+03</pdfrwt>
<pdfrwt beam="2">  1       -2 0.21882717E-01 0.88567818E+03</pdfrwt>
<totfact> 0.45184313E+00</totfact>
</mgrwt>
</event>
<event>
 4    1  0.3643301E-007  0.1074893E+04  0.7818608E-02  0.9289538E-01
          2   -1    0    0  501    0  0.00000000000E+00  0.00000000000E+00  0.17636594499E+04  0.17636594499E+04  0.25500000000E-02 0. -1.
         -2   -1    0    0    0  501 -0.00000000000E+00 -0.00000000000E+00 -0.22968853363E+04  0.22968853363E+04  0.25500000000E-02 0.  1.
    8880023    1    1    2    0    0  0.78849353376E+03 -0.31601082334E+03 -0.20503834859E+04  0.23150523836E+04  0.65864270000E+03 0.  0.
    8880022    1    1    2    0    0 -0.78849353376E+03  0.31601082334E+03  0.15171575994E+04  0.17454924027E+04  0.15294330000E+03 0.  0.
<mgrwt>
<rscale>  0 0.10175172E+04</rscale>
<asrwt>0</asrwt>
<pdfrwt beam="1">  1        2 0.27133222E+00 0.10748931E+04</pdfrwt>
<pdfrwt beam="2">  1       -2 0.35336698E+00 0.10748931E+04</pdfrwt>
<totfact> 0.13412031E-01</totfact>
</mgrwt>
</event>
<event>
 4    1  0.3032637E-007  0.9782041E+03  0.7818608E-02  0.9410646E-01
          2   -1    0    0  501    0  0.00000000000E+00  0.00000000000E+00  0.41284300317E+04  0.41284300317E+04  0.25500000000E-02 0. -1.
         -2   -1    0    0    0  501 -0.00000000000E+00 -0.00000000000E+00 -0.56541925002E+03  0.56541925003E+03  0.25500000000E-02 0.  1.
    8880023    1    1    2    0    0  0.17850396336E+03 -0.70086335735E+03 -0.75395770909E+02  0.98110541694E+03  0.65864270000E+03 0.  1.
    8880022    1    1    2    0    0 -0.17850396336E+03  0.70086335735E+03  0.36384065526E+04  0.37127438648E+04  0.15294330000E+03 0.  0.
<mgrwt>
<rscale>  0 0.91204736E+03</rscale>
<asrwt>0</asrwt>
<pdfrwt beam="1">  1        2 0.63514308E+00 0.97820413E+03</pdfrwt>
<pdfrwt beam="2">  1       -2 0.86987578E-01 0.97820413E+03</pdfrwt>
<totfact> 0.32510870E-01</totfact>
</mgrwt>
</event>
<event>
 4    1  0.3032637E-007  0.2593368E+04  0.7818608E-02  0.8377418E-01
          2   -1    0    0  501    0  0.00000000000E+00  0.00000000000E+00  0.18652943115E+04  0.18652943115E+04  0.25500000000E-02 0. -1.
         -2   -1    0    0    0  501 -0.00000000000E+00 -0.00000000000E+00 -0.52637505201E+04  0.52637505201E+04  0.25500000000E-02 0.  1.
    8880023    1    1    2    0    0  0.17045743969E+04  0.18401564719E+04 -0.37832315737E+04  0.45867636807E+04  0.65864270000E+03 0. -1.
    8880022    1    1    2    0    0 -0.17045743969E+04 -0.18401564719E+04  0.38477536504E+03  0.25422811509E+04  0.15294330000E+03 0.  0.
<mgrwt>
<rscale>  0 0.25730371E+04</rscale>
<asrwt>0</asrwt>
<pdfrwt beam="1">  1        2 0.28696836E+00 0.25933685E+04</pdfrwt>
<pdfrwt beam="2">  1       -2 0.80980776E+00 0.25933685E+04</pdfrwt>
<totfact> 0.44645087E-04</totfact>
</mgrwt>
</event>
<event>
 4    1  0.3032637E-007  0.9858870E+03  0.7818608E-02  0.9400259E-01
         -2   -1    0    0    0  501 -0.00000000000E+00  0.00000000000E+00  0.51768036980E+03  0.51768036981E+03  0.25500000000E-02 0.  1.
          2   -1    0    0  501    0  0.00000000000E+00 -0.00000000000E+00 -0.20449246248E+04  0.20449246248E+04  0.25500000000E-02 0. -1.
    8880023    1    1    2    0    0 -0.24675063658E+02 -0.73318084377E+03 -0.15350197138E+03  0.99776553855E+03  0.65864270000E+03 0.  1.
    8880022    1    1    2    0    0  0.24675063658E+02  0.73318084377E+03 -0.13737422836E+04  0.15648394560E+04  0.15294330000E+03 0.  0.
<mgrwt>
<rscale>  0 0.92054361E+03</rscale>
<asrwt>0</asrwt>
<pdfrwt beam="1">  1        2 0.31460378E+00 0.98588702E+03</pdfrwt>
<pdfrwt beam="2">  1       -2 0.79643135E-01 0.98588702E+03</pdfrwt>
<totfact> 0.88454340E+00</totfact>
</mgrwt>
</event>
<event>
 4    1  0.3032637E-007  0.1891324E+04  0.7818608E-02  0.8673633E-01
          2   -1    0    0  501    0  0.00000000000E+00  0.00000000000E+00  0.14654846347E+04  0.14654846347E+04  0.25500000000E-02 0. -1.
         -2   -1    0    0    0  501 -0.00000000000E+00 -0.00000000000E+00 -0.24080518731E+04  0.24080518731E+04  0.25500000000E-02 0.  1.
    8880023    1    1    2    0    0 -0.17580217440E+04  0.22946952648E+03 -0.89744449855E+03  0.20934453779E+04  0.65864270000E+03 0.  0.
    8880022    1    1    2    0    0  0.17580217440E+04 -0.22946952648E+03 -0.45122739817E+02  0.17800911299E+04  0.15294330000E+03 0.  0.
<mgrwt>
<rscale>  0 0.18627310E+04</rscale>
<asrwt>0</asrwt>
<pdfrwt beam="1">  1        2 0.22545917E+00 0.18913241E+04</pdfrwt>
<pdfrwt beam="2">  1       -2 0.37046952E+00 0.18913241E+04</pdfrwt>
<totfact> 0.13853434E-01</totfact>
</mgrwt>
</event>
<event>
 4    1  0.3032637E-007  0.7067611E+03  0.7818608E-02  0.9970231E-01
         -2   -1    0    0    0  501 -0.00000000000E+00  0.00000000000E+00  0.83829833703E+03  0.83829833704E+03  0.25500000000E-02 0.  1.
          2   -1    0    0  501    0  0.00000000000E+00 -0.00000000000E+00 -0.88013283867E+03  0.88013283868E+03  0.25500000000E-02 0. -1.
    8880023    1    1    2    0    0  0.32596804523E+02 -0.25424098150E+03  0.65296941114E+03  0.96222673341E+03  0.65864270000E+03 0.  1.
    8880022    1    1    2    0    0 -0.32596804523E+02  0.25424098150E+03 -0.69480391278E+03  0.75620444231E+03  0.15294330000E+03 0.  0.
<mgrwt>
<rscale>  0 0.56975051E+03</rscale>
<asrwt>0</asrwt>
<pdfrwt beam="1">  1        2 0.13540505E+00 0.70676109E+03</pdfrwt>
<pdfrwt beam="2">  1       -2 0.12896897E+00 0.70676109E+03</pdfrwt>
<totfact> 0.13683737E+01</totfact>
</mgrwt>
</event>
<event>
 4    1  0.3032637E-007  0.7081613E+03  0.7818608E-02  0.9964893E-01
         -2   -1    0    0    0  501 -0.00000000000E+00  0.00000000000E+00  0.64667403968E+03  0.64667403969E+03  0.25500000000E-02 0.  1.
          2   -1    0    0  501    0  0.00000000000E+00 -0.00000000000E+00 -0.19894706262E+04  0.19894706262E+04  0.25500000000E-02 0. -1.
    8880023    1    1    2    0    0  0.23991819796E+03  0.10060523131E+03  0.43620653893E+03  0.83172622007E+03  0.65864270000E+03 0.  1.
    8880022    1    1    2    0    0 -0.23991819796E+03 -0.10060523131E+03 -0.17790031254E+04  0.18044184458E+04  0.15294330000E+03 0.  0.
<mgrwt>
<rscale>  0 0.57216766E+03</rscale>
<asrwt>0</asrwt>
<pdfrwt beam="1">  1        2 0.30607240E+00 0.70816125E+03</pdfrwt>
<pdfrwt beam="2">  1       -2 0.99488314E-01 0.70816125E+03</pdfrwt>
<totfact> 0.59049978E+00</totfact>
</mgrwt>
</event>
<event>
 4    1  0.3482932E-007  0.8075032E+03  0.7818608E-02  0.9694801E-01
         -2   -1    0    0    0  501 -0.00000000000E+00  0.00000000000E+00  0.13861750586E+04  0.13861750586E+04  0.25500000000E-02 0.  1.
          2   -1    0    0  501    0  0.00000000000E+00 -0.00000000000E+00 -0.30432997163E+04  0.30432997163E+04  0.25500000000E-02 0. -1.
    8880023    1    1    2    0    0 -0.39874380117E+03 -0.24342273719E+03  0.12461339822E+04  0.14848943921E+04  0.65864270000E+03 0.  0.
    8880022    1    1    2    0    0  0.39874380117E+03  0.24342273719E+03 -0.29032586398E+04  0.29445803828E+04  0.15294330000E+03 0.  0.
<mgrwt>
<rscale>  0 0.71327163E+03</rscale>
<asrwt>0</asrwt>
<pdfrwt beam="1">  1        2 0.46819995E+00 0.80750322E+03</pdfrwt>
<pdfrwt beam="2">  1       -2 0.21325770E+00 0.80750322E+03</pdfrwt>
<totfact> 0.18985375E-01</totfact>
</mgrwt>
</event>
<event>
 4    1  0.3032637E-007  0.1214685E+04  0.7818608E-02  0.9142978E-01
         -2   -1    0    0    0  501 -0.00000000000E+00  0.00000000000E+00  0.15442176832E+04  0.15442176832E+04  0.25500000000E-02 0.  1.
          2   -1    0    0  501    0  0.00000000000E+00 -0.00000000000E+00 -0.10427426054E+04  0.10427426054E+04  0.25500000000E-02 0. -1.
    8880023    1    1    2    0    0 -0.82943208332E+03  0.59472089368E+03  0.86674573690E+03  0.14922161040E+04  0.65864270000E+03 0.  0.
    8880022    1    1    2    0    0  0.82943208332E+03 -0.59472089368E+03 -0.36527065910E+03  0.10947441846E+04  0.15294330000E+03 0.  0.
<mgrwt>
<rscale>  0 0.11661884E+04</rscale>
<asrwt>0</asrwt>
<pdfrwt beam="1">  1        2 0.16042194E+00 0.12146854E+04</pdfrwt>
<pdfrwt beam="2">  1       -2 0.23757195E+00 0.12146854E+04</pdfrwt>
<totfact> 0.17628493E+00</totfact>
</mgrwt>
</event>
<event>
 4    1  0.3032637E-007  0.1293769E+04  0.7818608E-02  0.9070959E-01
          2   -1    0    0  501    0  0.00000000000E+00  0.00000000000E+00  0.28361107895E+04  0.28361107895E+04  0.25500000000E-02 0. -1.
         -2   -1    0    0    0  501 -0.00000000000E+00 -0.00000000000E+00 -0.83123343315E+03  0.83123343316E+03  0.25500000000E-02 0.  1.
    8880023    1    1    2    0    0  0.94327627027E+03 -0.59182652660E+03 -0.82684503527E+02  0.12964087677E+04  0.65864270000E+03 0.  0.
    8880022    1    1    2    0    0 -0.94327627027E+03  0.59182652660E+03  0.20875618599E+04  0.23709354549E+04  0.15294330000E+03 0.  0.
<mgrwt>
<rscale>  0 0.12490681E+04</rscale>
<asrwt>0</asrwt>
<pdfrwt beam="1">  1        2 0.43632474E+00 0.12937693E+04</pdfrwt>
<pdfrwt beam="2">  1       -2 0.12788207E+00 0.12937693E+04</pdfrwt>
<totfact> 0.96803556E-01</totfact>
</mgrwt>
</event>
<event>
 4    1  0.3032637E-007  0.1530394E+04  0.7818608E-02  0.8888467E-01
         -2   -1    0    0    0  501 -0.00000000000E+00  0.00000000000E+00  0.16293280117E+04  0.16293280117E+04  0.25500000000E-02 0.  1.
          2   -1    0    0  501    0  0.00000000000E+00 -0.00000000000E+00 -0.14867282646E+04  0.14867282646E+04  0.25500000000E-02 0. -1.
    8880023    1    1    2    0    0 -0.13378757616E+04 -0.34406952731E+03  0.61323175262E+03  0.16486839545E+04  0.65864270000E+03 0.  0.
    8880022    1    1    2    0    0  0.13378757616E+04  0.34406952731E+03 -0.47063200555E+03  0.14673723218E+04  0.15294330000E+03 0.  0.
<mgrwt>
<rscale>  0 0.14939791E+04</rscale>
<asrwt>0</asrwt>
<pdfrwt beam="1">  1        2 0.22872743E+00 0.15303939E+04</pdfrwt>
<pdfrwt beam="2">  1       -2 0.25066585E+00 0.15303939E+04</pdfrwt>
<totfact> 0.77104594E-01</totfact>
</mgrwt>
</event>
<event>
 4    1  0.3032637E-007  0.1110094E+04  0.7818608E-02  0.9249900E-01
          2   -1    0    0  501    0  0.00000000000E+00  0.00000000000E+00  0.23999929145E+04  0.23999929145E+04  0.25500000000E-02 0. -1.
         -2   -1    0    0    0  501 -0.00000000000E+00 -0.00000000000E+00 -0.74528961916E+03  0.74528961916E+03  0.25500000000E-02 0.  1.
    8880023    1    1    2    0    0  0.25714707733E+02 -0.89321697681E+03 -0.15532546032E+03  0.11209076763E+04  0.65864270000E+03 0.  0.
    8880022    1    1    2    0    0 -0.25714707733E+02  0.89321697681E+03  0.18100287557E+04  0.20243748574E+04  0.15294330000E+03 0.  0.
<mgrwt>
<rscale>  0 0.10552890E+04</rscale>
<asrwt>0</asrwt>
<pdfrwt beam="1">  1        2 0.36922968E+00 0.11100937E+04</pdfrwt>
<pdfrwt beam="2">  1       -2 0.11465994E+00 0.11100937E+04</pdfrwt>
<totfact> 0.23399863E+00</totfact>
</mgrwt>
</event>
<event>
 4    1  0.3032637E-007  0.9430632E+03  0.7818608E-02  0.9460166E-01
         -2   -1    0    0    0  501 -0.00000000000E+00  0.00000000000E+00  0.23349041975E+03  0.23349041976E+03  0.25500000000E-02 0.  1.
          2   -1    0    0  501    0  0.00000000000E+00 -0.00000000000E+00 -0.54560341107E+04  0.54560341107E+04  0.25500000000E-02 0. -1.
    8880023    1    1    2    0    0  0.22565888328E+03 -0.63611010545E+03 -0.47707003157E+04  0.48630185797E+04  0.65864270000E+03 0.  0.
    8880022    1    1    2    0    0 -0.22565888328E+03  0.63611010545E+03 -0.45184337519E+03  0.82650595072E+03  0.15294330000E+03 0.  0.
<mgrwt>
<rscale>  0 0.87285445E+03</rscale>
<asrwt>0</asrwt>
<pdfrwt beam="1">  1        2 0.83938977E+00 0.94306320E+03</pdfrwt>
<pdfrwt beam="2">  1       -2 0.35921607E-01 0.94306320E+03</pdfrwt>
<totfact> 0.60753599E-02</totfact>
</mgrwt>
</event>
<event>
 4    1  0.3032637E-007  0.7487920E+03  0.7818608E-02  0.9835039E-01
          2   -1    0    0  501    0  0.00000000000E+00  0.00000000000E+00  0.19050331075E+04  0.19050331075E+04  0.25500000000E-02 0. -1.
         -2   -1    0    0    0  501 -0.00000000000E+00 -0.00000000000E+00 -0.17022903263E+03  0.17022903265E+03  0.25500000000E-02 0.  1.
    8880023    1    1    2    0    0 -0.16303188605E+03  0.31670154059E+03  0.12069180301E+04  0.14203311583E+04  0.65864270000E+03 0. -1.
    8880022    1    1    2    0    0  0.16303188605E+03 -0.31670154059E+03  0.52788604483E+03  0.65493098188E+03  0.15294330000E+03 0.  1.
<mgrwt>
<rscale>  0 0.63515580E+03</rscale>
<asrwt>0</asrwt>
<pdfrwt beam="1">  1        2 0.29308201E+00 0.74879201E+03</pdfrwt>
<pdfrwt beam="2">  1       -2 0.26189083E-01 0.74879201E+03</pdfrwt>
<totfact> 0.10181626E+02</totfact>
</mgrwt>
</event>
<event>
 4    1  0.3032637E-007  0.1455291E+04  0.7818608E-02  0.8941869E-01
         -2   -1    0    0    0  501 -0.00000000000E+00  0.00000000000E+00  0.13688263049E+04  0.13688263049E+04  0.25500000000E-02 0.  1.
          2   -1    0    0  501    0  0.00000000000E+00 -0.00000000000E+00 -0.24039439829E+04  0.24039439829E+04  0.25500000000E-02 0. -1.
    8880023    1    1    2    0    0  0.10041645004E+04 -0.82201861715E+03  0.68841106464E+03  0.16099009134E+04  0.65864270000E+03 0.  0.
    8880022    1    1    2    0    0 -0.10041645004E+04  0.82201861715E+03 -0.17235287427E+04  0.21628693744E+04  0.15294330000E+03 0.  0.
<mgrwt>
<rscale>  0 0.14166283E+04</rscale>
<asrwt>0</asrwt>
<pdfrwt beam="1">  1        2 0.36983753E+00 0.14552907E+04</pdfrwt>
<pdfrwt beam="2">  1       -2 0.21058866E+00 0.14552907E+04</pdfrwt>
<totfact> 0.42359426E-01</totfact>
</mgrwt>
</event>
<event>
 4    1  0.3032637E-007  0.1117888E+04  0.7818608E-02  0.9241397E-01
          2   -1    0    0  501    0  0.00000000000E+00  0.00000000000E+00  0.13647181406E+04  0.13647181406E+04  0.25500000000E-02 0. -1.
         -2   -1    0    0    0  501 -0.00000000000E+00 -0.00000000000E+00 -0.82757461619E+03  0.82757461619E+03  0.25500000000E-02 0.  1.
    8880023    1    1    2    0    0  0.43640871146E+03 -0.79082906764E+03 -0.23704937260E+02  0.11181392167E+04  0.65864270000E+03 0.  1.
    8880022    1    1    2    0    0 -0.43640871146E+03  0.79082906764E+03  0.56084846167E+03  0.10741535401E+04  0.15294330000E+03 0.  0.
<mgrwt>
<rscale>  0 0.10636174E+04</rscale>
<asrwt>0</asrwt>
<pdfrwt beam="1">  1        2 0.20995664E+00 0.11178879E+04</pdfrwt>
<pdfrwt beam="2">  1       -2 0.12731917E+00 0.11178879E+04</pdfrwt>
<totfact> 0.68131371E+00</totfact>
</mgrwt>
</event>
<event>
 4    1  0.3032637E-007  0.7681766E+03  0.7818608E-02  0.9784381E-01
         -2   -1    0    0    0  501 -0.00000000000E+00  0.00000000000E+00  0.52641850021E+03  0.52641850022E+03  0.25500000000E-02 0.  1.
          2   -1    0    0  501    0  0.00000000000E+00 -0.00000000000E+00 -0.76835913433E+03  0.76835913434E+03  0.25500000000E-02 0. -1.
    8880023    1    1    2    0    0  0.23169955046E+03  0.32031308027E+03  0.65761380391E+02  0.77098632704E+03  0.65864270000E+03 0.  1.
    8880022    1    1    2    0    0 -0.23169955046E+03 -0.32031308027E+03 -0.30770201451E+03  0.52379130751E+03  0.15294330000E+03 0.  0.
<mgrwt>
<rscale>  0 0.66207521E+03</rscale>
<asrwt>0</asrwt>
<pdfrwt beam="1">  1        2 0.11820910E+00 0.76817664E+03</pdfrwt>
<pdfrwt beam="2">  1       -2 0.80987461E-01 0.76817664E+03</pdfrwt>
<totfact> 0.49441505E+01</totfact>
</mgrwt>
</event>
<event>
 4    1  0.3032637E-007  0.6648266E+03  0.7818608E-02  0.1019679E+00
         -2   -1    0    0    0  501 -0.00000000000E+00  0.00000000000E+00  0.23957180233E+03  0.23957180234E+03  0.25500000000E-02 0.  1.
          2   -1    0    0  501    0  0.00000000000E+00 -0.00000000000E+00 -0.80983577222E+03  0.80983577222E+03  0.25500000000E-02 0. -1.
    8880023    1    1    2    0    0 -0.78428311220E+02 -0.45091336824E+02 -0.30822688284E+03  0.73280164180E+03  0.65864270000E+03 0.  1.
    8880022    1    1    2    0    0  0.78428311220E+02  0.45091336824E+02 -0.26203708705E+03  0.31660593276E+03  0.15294330000E+03 0.  0.
<mgrwt>
<rscale>  0 0.47802514E+03</rscale>
<asrwt>0</asrwt>
<pdfrwt beam="1">  1        2 0.12459012E+00 0.66482662E+03</pdfrwt>
<pdfrwt beam="2">  1       -2 0.36857201E-01 0.66482662E+03</pdfrwt>
<totfact> 0.23808909E+02</totfact>
</mgrwt>
</event>
<event>
 4    1  0.3032637E-007  0.6752046E+03  0.7818608E-02  0.1012178E+00
          2   -1    0    0  501    0  0.00000000000E+00  0.00000000000E+00  0.12414992204E+04  0.12414992204E+04  0.25500000000E-02 0. -1.
         -2   -1    0    0    0  501 -0.00000000000E+00 -0.00000000000E+00 -0.38758019497E+03  0.38758019498E+03  0.25500000000E-02 0.  1.
    8880023    1    1    2    0    0  0.13426320652E+03  0.63753126766E+02 -0.71892930918E+02  0.67902125856E+03  0.65864270000E+03 0.  1.
    8880022    1    1    2    0    0 -0.13426320652E+03 -0.63753126766E+02  0.92581195639E+03  0.95005815685E+03  0.15294330000E+03 0.  0.
<mgrwt>
<rscale>  0 0.50618277E+03</rscale>
<asrwt>0</asrwt>
<pdfrwt beam="1">  1        2 0.19099988E+00 0.67520462E+03</pdfrwt>
<pdfrwt beam="2">  1       -2 0.59627723E-01 0.67520462E+03</pdfrwt>
<totfact> 0.48184564E+01</totfact>
</mgrwt>
</event>
<event>
 4    1  0.3032637E-007  0.1296826E+04  0.7818608E-02  0.9068306E-01
          2   -1    0    0  501    0  0.00000000000E+00  0.00000000000E+00  0.20274896742E+04  0.20274896742E+04  0.25500000000E-02 0. -1.
         -2   -1    0    0    0  501 -0.00000000000E+00 -0.00000000000E+00 -0.10445274030E+04  0.10445274030E+04  0.25500000000E-02 0.  1.
    8880023    1    1    2    0    0 -0.35842497089E+03 -0.10580540957E+04 -0.33317418726E+03  0.13389406912E+04  0.65864270000E+03 0.  0.
    8880022    1    1    2    0    0  0.35842497089E+03  0.10580540957E+04  0.13161364585E+04  0.17330763860E+04  0.15294330000E+03 0.  0.
<mgrwt>
<rscale>  0 0.12522582E+04</rscale>
<asrwt>0</asrwt>
<pdfrwt beam="1">  1        2 0.31192149E+00 0.12968258E+04</pdfrwt>
<pdfrwt beam="2">  1       -2 0.16069653E+00 0.12968258E+04</pdfrwt>
<totfact> 0.15449855E+00</totfact>
</mgrwt>
</event>
<event>
 4    1  0.3032637E-007  0.7763452E+03  0.7818608E-02  0.9764493E-01
         -2   -1    0    0    0  501 -0.00000000000E+00  0.00000000000E+00  0.51155864346E+03  0.51155864347E+03  0.25500000000E-02 0.  1.
          2   -1    0    0  501    0  0.00000000000E+00 -0.00000000000E+00 -0.22190468587E+04  0.22190468587E+04  0.25500000000E-02 0. -1.
    8880023    1    1    2    0    0 -0.34472590049E+03  0.22375379849E+03  0.17658440057E+03  0.79617458236E+03  0.65864270000E+03 0.  1.
    8880022    1    1    2    0    0  0.34472590049E+03 -0.22375379849E+03 -0.18840726158E+04  0.19344309198E+04  0.15294330000E+03 0.  0.
<mgrwt>
<rscale>  0 0.67303353E+03</rscale>
<asrwt>0</asrwt>
<pdfrwt beam="1">  1        2 0.34139182E+00 0.77634523E+03</pdfrwt>
<pdfrwt beam="2">  1       -2 0.78701331E-01 0.77634523E+03</pdfrwt>
<totfact> 0.74915342E+00</totfact>
</mgrwt>
</event>
<event>
 4    1  0.3032637E-007  0.8604410E+03  0.7818608E-02  0.9592779E-01
          2   -1    0    0  501    0  0.00000000000E+00  0.00000000000E+00  0.87647808874E+03  0.87647808874E+03  0.25500000000E-02 0. -1.
         -2   -1    0    0    0  501 -0.00000000000E+00 -0.00000000000E+00 -0.69675532902E+03  0.69675532902E+03  0.25500000000E-02 0.  1.
    8880023    1    1    2    0    0  0.53468978757E+03  0.14371959970E+03 -0.20164657994E+03  0.88375338287E+03  0.65864270000E+03 0.  1.
    8880022    1    1    2    0    0 -0.53468978757E+03 -0.14371959970E+03  0.38136933966E+03  0.68948003490E+03  0.15294330000E+03 0. -1.
<mgrwt>
<rscale>  0 0.77775930E+03</rscale>
<asrwt>0</asrwt>
<pdfrwt beam="1">  1        2 0.13484278E+00 0.86044099E+03</pdfrwt>
<pdfrwt beam="2">  1       -2 0.10719313E+00 0.86044099E+03</pdfrwt>
<totfact> 0.21384051E+01</totfact>
</mgrwt>
</event>
<event>
 4    1  0.3032637E-007  0.6947415E+03  0.7818608E-02  0.1001976E+00
         -2   -1    0    0    0  501 -0.00000000000E+00  0.00000000000E+00  0.85052789772E+03  0.85052789772E+03  0.25500000000E-02 0.  1.
          2   -1    0    0  501    0  0.00000000000E+00 -0.00000000000E+00 -0.42346613914E+03  0.42346613915E+03  0.25500000000E-02 0. -1.
    8880023    1    1    2    0    0 -0.22098265499E+03  0.47057940134E+01  0.62948740519E+03  0.93750737483E+03  0.65864270000E+03 0.  1.
    8880022    1    1    2    0    0  0.22098265499E+03 -0.47057940134E+01 -0.20242564662E+03  0.33648666204E+03  0.15294330000E+03 0.  0.
<mgrwt>
<rscale>  0 0.54792357E+03</rscale>
<asrwt>0</asrwt>
<pdfrwt beam="1">  1        2 0.65148637E-01 0.69474145E+03</pdfrwt>
<pdfrwt beam="2">  1       -2 0.13085045E+00 0.69474145E+03</pdfrwt>
<totfact> 0.32359885E+01</totfact>
</mgrwt>
</event>
<event>
 4    1  0.3032637E-007  0.6716590E+03  0.7818608E-02  0.1014500E+00
          2   -1    0    0  501    0  0.00000000000E+00  0.00000000000E+00  0.13079410541E+04  0.13079410541E+04  0.25500000000E-02 0. -1.
         -2   -1    0    0    0  501 -0.00000000000E+00 -0.00000000000E+00 -0.10916732233E+04  0.10916732233E+04  0.25500000000E-02 0.  1.
    8880023    1    1    2    0    0  0.12811344389E+03 -0.30042728425E+02 -0.97910257980E+03  0.11873363837E+04  0.65864270000E+03 0.  1.
    8880022    1    1    2    0    0 -0.12811344389E+03  0.30042728425E+02  0.11953704105E+04  0.12122778937E+04  0.15294330000E+03 0.  0.
<mgrwt>
<rscale>  0 0.49724524E+03</rscale>
<asrwt>0</asrwt>
<pdfrwt beam="1">  1        2 0.20122170E+00 0.67165901E+03</pdfrwt>
<pdfrwt beam="2">  1       -2 0.16794973E+00 0.67165901E+03</pdfrwt>
<totfact> 0.37417641E+00</totfact>
</mgrwt>
</event>
<event>
 4    1  0.3032637E-007  0.1301119E+04  0.7818608E-02  0.9064594E-01
         -2   -1    0    0    0  501 -0.00000000000E+00  0.00000000000E+00  0.64650717207E+03  0.64650717207E+03  0.25500000000E-02 0.  1.
          2   -1    0    0  501    0  0.00000000000E+00 -0.00000000000E+00 -0.40635110521E+04  0.40635110521E+04  0.25500000000E-02 0. -1.
    8880023    1    1    2    0    0 -0.90073652147E+03 -0.66915955196E+03 -0.22157954560E+03  0.13198516918E+04  0.65864270000E+03 0.  0.
    8880022    1    1    2    0    0  0.90073652147E+03  0.66915955196E+03 -0.31954243345E+04  0.33901665324E+04  0.15294330000E+03 0.  0.
<mgrwt>
<rscale>  0 0.12567377E+04</rscale>
<asrwt>0</asrwt>
<pdfrwt beam="1">  1        2 0.62515553E+00 0.13011191E+04</pdfrwt>
<pdfrwt beam="2">  1       -2 0.99462644E-01 0.13011191E+04</pdfrwt>
<totfact> 0.25371428E-01</totfact>
</mgrwt>
</event>
<event>
 4    1  0.3032637E-007  0.6907383E+03  0.7818608E-02  0.1003804E+00
         -2   -1    0    0    0  501 -0.00000000000E+00  0.00000000000E+00  0.34073148506E+03  0.34073148507E+03  0.25500000000E-02 0.  1.
          2   -1    0    0  501    0  0.00000000000E+00 -0.00000000000E+00 -0.22572776967E+04  0.22572776967E+04  0.25500000000E-02 0. -1.
    8880023    1    1    2    0    0  0.18449111379E+03 -0.96292247317E+02 -0.27390030309E+02  0.69128112081E+03  0.65864270000E+03 0.  1.
    8880022    1    1    2    0    0 -0.18449111379E+03  0.96292247317E+02 -0.18891561813E+04  0.19067280609E+04  0.15294330000E+03 0.  0.
<mgrwt>
<rscale>  0 0.54013403E+03</rscale>
<asrwt>0</asrwt>
<pdfrwt beam="1">  1        2 0.34727348E+00 0.69073828E+03</pdfrwt>
<pdfrwt beam="2">  1       -2 0.52420230E-01 0.69073828E+03</pdfrwt>
<totfact> 0.17287319E+01</totfact>
</mgrwt>
</event>
<event>
 4    1  0.3032637E-007  0.1313713E+04  0.7818608E-02  0.9053808E-01
         -2   -1    0    0    0  501 -0.00000000000E+00  0.00000000000E+00  0.13125019954E+04  0.13125019954E+04  0.25500000000E-02 0.  1.
          2   -1    0    0  501    0  0.00000000000E+00 -0.00000000000E+00 -0.16318119062E+04  0.16318119062E+04  0.25500000000E-02 0. -1.
    8880023    1    1    2    0    0 -0.33935625560E+02 -0.11361686538E+04  0.62861782504E+03  0.14563658239E+04  0.65864270000E+03 0.  1.
    8880022    1    1    2    0    0  0.33935625560E+02  0.11361686538E+04 -0.94792773589E+03  0.14879480778E+04  0.15294330000E+03 0.  0.
<mgrwt>
<rscale>  0 0.12698676E+04</rscale>
<asrwt>0</asrwt>
<pdfrwt beam="1">  1        2 0.25104799E+00 0.13137127E+04</pdfrwt>
<pdfrwt beam="2">  1       -2 0.20192338E+00 0.13137127E+04</pdfrwt>
<totfact> 0.13250634E+00</totfact>
</mgrwt>
</event>
<event>
 4    1  0.3032637E-007  0.1234095E+04  0.7818608E-02  0.9124671E-01
          2   -1    0    0  501    0  0.00000000000E+00  0.00000000000E+00  0.11306878457E+04  0.11306878457E+04  0.25500000000E-02 0. -1.
         -2   -1    0    0    0  501 -0.00000000000E+00 -0.00000000000E+00 -0.16621839177E+04  0.16621839177E+04  0.25500000000E-02 0.  1.
    8880023    1    1    2    0    0 -0.10313572017E+04 -0.15963429317E+03 -0.10474236123E+04  0.16186683462E+04  0.65864270000E+03 0.  0.
    8880022    1    1    2    0    0  0.10313572017E+04  0.15963429317E+03  0.51592754038E+03  0.11742034172E+04  0.15294330000E+03 0.  0.
<mgrwt>
<rscale>  0 0.11865951E+04</rscale>
<asrwt>0</asrwt>
<pdfrwt beam="1">  1        2 0.17395198E+00 0.12340952E+04</pdfrwt>
<pdfrwt beam="2">  1       -2 0.25572060E+00 0.12340952E+04</pdfrwt>
<totfact> 0.11990105E+00</totfact>
</mgrwt>
</event>
<event>
 4    1  0.3032637E-007  0.7336688E+03  0.7818608E-02  0.9878788E-01
          2   -1    0    0  501    0  0.00000000000E+00  0.00000000000E+00  0.28203808161E+04  0.28203808161E+04  0.25500000000E-02 0. -1.
         -2   -1    0    0    0  501 -0.00000000000E+00 -0.00000000000E+00 -0.11608331286E+03  0.11608331289E+03  0.25500000000E-02 0.  1.
    8880023    1    1    2    0    0 -0.62335262518E+02 -0.31713412407E+03  0.13582357659E+04  0.15437209397E+04  0.65864270000E+03 0.  0.
    8880022    1    1    2    0    0  0.62335262518E+02  0.31713412407E+03  0.13460617374E+04  0.13927431894E+04  0.15294330000E+03 0.  0.
<mgrwt>
<rscale>  0 0.61300389E+03</rscale>
<asrwt>0</asrwt>
<pdfrwt beam="1">  1        2 0.43390473E+00 0.73366882E+03</pdfrwt>
<pdfrwt beam="2">  1       -2 0.17858972E-01 0.73366882E+03</pdfrwt>
<totfact> 0.61429286E+01</totfact>
</mgrwt>
</event>
<event>
 4    1  0.3128203E-007  0.1128649E+04  0.7818608E-02  0.9229810E-01
         -2   -1    0    0    0  501 -0.00000000000E+00  0.00000000000E+00  0.13588588648E+04  0.13588588648E+04  0.25500000000E-02 0.  1.
          2   -1    0    0  501    0  0.00000000000E+00 -0.00000000000E+00 -0.20570582820E+04  0.20570582820E+04  0.25500000000E-02 0. -1.
    8880023    1    1    2    0    0 -0.66090720259E+03 -0.63501174778E+03  0.98189475310E+03  0.14959832094E+04  0.65864270000E+03 0.  1.
    8880022    1    1    2    0    0  0.66090720259E+03  0.63501174778E+03 -0.16800941703E+04  0.19199339375E+04  0.15294330000E+03 0.  0.
<mgrwt>
<rscale>  0 0.10750967E+04</rscale>
<asrwt>0</asrwt>
<pdfrwt beam="1">  1        2 0.31647050E+00 0.11286490E+04</pdfrwt>
<pdfrwt beam="2">  1       -2 0.20905521E+00 0.11286490E+04</pdfrwt>
<totfact> 0.70749688E-01</totfact>
</mgrwt>
</event>
<event>
 4    1  0.3032637E-007  0.9597730E+03  0.7818608E-02  0.9436190E-01
          2   -1    0    0  501    0  0.00000000000E+00  0.00000000000E+00  0.13181189872E+04  0.13181189872E+04  0.25500000000E-02 0. -1.
         -2   -1    0    0    0  501 -0.00000000000E+00 -0.00000000000E+00 -0.21852457470E+04  0.21852457470E+04  0.25500000000E-02 0.  1.
    8880023    1    1    2    0    0 -0.26692413929E+02  0.69759700884E+03 -0.19687463464E+04  0.21902343378E+04  0.65864270000E+03 0.  1.
    8880022    1    1    2    0    0  0.26692413929E+02 -0.69759700884E+03  0.11016195866E+04  0.13131303965E+04  0.15294330000E+03 0.  0.
<mgrwt>
<rscale>  0 0.89156293E+03</rscale>
<asrwt>0</asrwt>
<pdfrwt beam="1">  1        2 0.20278754E+00 0.95977303E+03</pdfrwt>
<pdfrwt beam="2">  1       -2 0.33619165E+00 0.95977303E+03</pdfrwt>
<totfact> 0.31164193E-01</totfact>
</mgrwt>
</event>
<event>
 4    1  0.3032637E-007  0.1303766E+04  0.7818608E-02  0.9062314E-01
          2   -1    0    0  501    0  0.00000000000E+00  0.00000000000E+00  0.15417824050E+04  0.15417824050E+04  0.25500000000E-02 0. -1.
         -2   -1    0    0    0  501 -0.00000000000E+00 -0.00000000000E+00 -0.13105177676E+04  0.13105177676E+04  0.25500000000E-02 0.  1.
    8880023    1    1    2    0    0 -0.21487177082E+02  0.11249598566E+04 -0.60970102519E+03  0.14392852129E+04  0.65864270000E+03 0.  0.
    8880022    1    1    2    0    0  0.21487177082E+02 -0.11249598566E+04  0.84096566257E+03  0.14130149597E+04  0.15294330000E+03 0.  0.
<mgrwt>
<rscale>  0 0.12594988E+04</rscale>
<asrwt>0</asrwt>
<pdfrwt beam="1">  1        2 0.23719729E+00 0.13037663E+04</pdfrwt>
<pdfrwt beam="2">  1       -2 0.20161812E+00 0.13037663E+04</pdfrwt>
<totfact> 0.14971765E+00</totfact>
</mgrwt>
</event>
<event>
 4    1  0.3032637E-007  0.7124264E+03  0.7818608E-02  0.9949099E-01
          2   -1    0    0  501    0  0.00000000000E+00  0.00000000000E+00  0.29680775126E+04  0.29680775126E+04  0.25500000000E-02 0. -1.
         -2   -1    0    0    0  501 -0.00000000000E+00 -0.00000000000E+00 -0.96033870642E+03  0.96033870642E+03  0.25500000000E-02 0.  1.
    8880023    1    1    2    0    0  0.25543498524E+03  0.92163283834E+02 -0.81845508874E+03  0.10850898770E+04  0.65864270000E+03 0.  1.
    8880022    1    1    2    0    0 -0.25543498524E+03 -0.92163283834E+02  0.28261938949E+04  0.28433263420E+04  0.15294330000E+03 0.  0.
<mgrwt>
<rscale>  0 0.57939627E+03</rscale>
<asrwt>0</asrwt>
<pdfrwt beam="1">  1        2 0.45662731E+00 0.71242635E+03</pdfrwt>
<pdfrwt beam="2">  1       -2 0.14774442E+00 0.71242635E+03</pdfrwt>
<totfact> 0.61305306E-01</totfact>
</mgrwt>
</event>
<event>
 4    1  0.3032637E-007  0.8057668E+03  0.7818608E-02  0.9698463E-01
         -2   -1    0    0    0  501 -0.00000000000E+00  0.00000000000E+00  0.93986785829E+02  0.93986785864E+02  0.25500000000E-02 0.  1.
          2   -1    0    0  501    0  0.00000000000E+00 -0.00000000000E+00 -0.53286666675E+04  0.53286666675E+04  0.25500000000E-02 0. -1.
    8880023    1    1    2    0    0  0.44704919454E+03  0.12488745784E+03 -0.20849640389E+04  0.22352483328E+04  0.65864270000E+03 0.  1.
    8880022    1    1    2    0    0 -0.44704919454E+03 -0.12488745784E+03 -0.31497158427E+04  0.31874051205E+04  0.15294330000E+03 0.  0.
<mgrwt>
<rscale>  0 0.71108372E+03</rscale>
<asrwt>0</asrwt>
<pdfrwt beam="1">  1        2 0.81979464E+00 0.80576676E+03</pdfrwt>
<pdfrwt beam="2">  1       -2 0.14459510E-01 0.80576676E+03</pdfrwt>
<totfact> 0.52052409E-01</totfact>
</mgrwt>
</event>
<event>
 4    1  0.3032637E-007  0.1197267E+04  0.7818608E-02  0.9159783E-01
         -2   -1    0    0    0  501 -0.00000000000E+00  0.00000000000E+00  0.16074720626E+04  0.16074720626E+04  0.25500000000E-02 0.  1.
          2   -1    0    0  501    0  0.00000000000E+00 -0.00000000000E+00 -0.94211882900E+03  0.94211882901E+03  0.25500000000E-02 0. -1.
    8880023    1    1    2    0    0  0.26768353976E+03 -0.96331949393E+03  0.91607601718E+03  0.15075292370E+04  0.65864270000E+03 0.  0.
    8880022    1    1    2    0    0 -0.26768353976E+03  0.96331949393E+03 -0.25072278357E+03  0.10420616546E+04  0.15294330000E+03 0.  0.
<mgrwt>
<rscale>  0 0.11478349E+04</rscale>
<asrwt>0</asrwt>
<pdfrwt beam="1">  1        2 0.14494136E+00 0.11972674E+04</pdfrwt>
<pdfrwt beam="2">  1       -2 0.24730339E+00 0.11972674E+04</pdfrwt>
<totfact> 0.17886459E+00</totfact>
</mgrwt>
</event>
<event>
 4    1  0.3032637E-007  0.7788666E+03  0.7818608E-02  0.9758506E-01
         -2   -1    0    0    0  501 -0.00000000000E+00  0.00000000000E+00  0.14898218066E+03  0.14898218068E+03  0.25500000000E-02 0.  1.
          2   -1    0    0  501    0  0.00000000000E+00 -0.00000000000E+00 -0.26276821777E+04  0.26276821777E+04  0.25500000000E-02 0. -1.
    8880023    1    1    2    0    0  0.14187372813E+03 -0.39076180461E+03 -0.12753260386E+04  0.14943525868E+04  0.65864270000E+03 0.  0.
    8880022    1    1    2    0    0 -0.14187372813E+03  0.39076180461E+03 -0.12033739585E+04  0.12823117716E+04  0.15294330000E+03 0.  1.
<mgrwt>
<rscale>  0 0.67637682E+03</rscale>
<asrwt>0</asrwt>
<pdfrwt beam="1">  1        2 0.40425876E+00 0.77886658E+03</pdfrwt>
<pdfrwt beam="2">  1       -2 0.22920338E-01 0.77886658E+03</pdfrwt>
<totfact> 0.51094962E+01</totfact>
</mgrwt>
</event>
<event>
 4    1  0.3032637E-007  0.6953418E+03  0.7818608E-02  0.1001710E+00
          2   -1    0    0  501    0  0.00000000000E+00  0.00000000000E+00  0.30569890546E+04  0.30569890546E+04  0.25500000000E-02 0. -1.
         -2   -1    0    0    0  501 -0.00000000000E+00 -0.00000000000E+00 -0.36283983249E+03  0.36283983250E+03  0.25500000000E-02 0.  1.
    8880023    1    1    2    0    0  0.32905871221E+02 -0.22047028654E+03 -0.16691446629E+02  0.69554205787E+03  0.65864270000E+03 0.  1.
    8880022    1    1    2    0    0 -0.32905871221E+02  0.22047028654E+03  0.27108406687E+04  0.27242868292E+04  0.15294330000E+03 0.  0.
<mgrwt>
<rscale>  0 0.54906623E+03</rscale>
<asrwt>0</asrwt>
<pdfrwt beam="1">  1        2 0.47030601E+00 0.69534175E+03</pdfrwt>
<pdfrwt beam="2">  1       -2 0.55821513E-01 0.69534175E+03</pdfrwt>
<totfact> 0.52167482E+00</totfact>
</mgrwt>
</event>
<event>
 4    1  0.3032637E-007  0.7309615E+03  0.7818608E-02  0.9887104E-01
          2   -1    0    0  501    0  0.00000000000E+00  0.00000000000E+00  0.88270821651E+03  0.88270821651E+03  0.25500000000E-02 0. -1.
         -2   -1    0    0    0  501 -0.00000000000E+00 -0.00000000000E+00 -0.14404802340E+04  0.14404802340E+04  0.25500000000E-02 0.  1.
    8880023    1    1    2    0    0  0.15876693295E+03 -0.27438587549E+03 -0.13058114262E+04  0.14964786115E+04  0.65864270000E+03 0.  1.
    8880022    1    1    2    0    0 -0.15876693295E+03  0.27438587549E+03  0.74803940879E+03  0.82670983893E+03  0.15294330000E+03 0.  0.
<mgrwt>
<rscale>  0 0.60890390E+03</rscale>
<asrwt>0</asrwt>
<pdfrwt beam="1">  1        2 0.13580126E+00 0.73096153E+03</pdfrwt>
<pdfrwt beam="2">  1       -2 0.22161234E+00 0.73096153E+03</pdfrwt>
<totfact> 0.29944103E+00</totfact>
</mgrwt>
</event>
<event>
 4    1  0.3032637E-007  0.6700650E+03  0.7818608E-02  0.1015616E+00
         -2   -1    0    0    0  501 -0.00000000000E+00  0.00000000000E+00  0.33548383148E+03  0.33548383149E+03  0.25500000000E-02 0.  1.
          2   -1    0    0  501    0  0.00000000000E+00 -0.00000000000E+00 -0.12310049392E+04  0.12310049392E+04  0.25500000000E-02 0. -1.
    8880023    1    1    2    0    0 -0.11313451300E+03  0.48759693175E+02 -0.21218584648E+02  0.67040089522E+03  0.65864270000E+03 0.  0.
    8880022    1    1    2    0    0  0.11313451300E+03 -0.48759693175E+02 -0.87430252307E+03  0.89608787547E+03  0.15294330000E+03 0. -1.
<mgrwt>
<rscale>  0 0.49302270E+03</rscale>
<asrwt>0</asrwt>
<pdfrwt beam="1">  1        2 0.18938537E+00 0.67006502E+03</pdfrwt>
<pdfrwt beam="2">  1       -2 0.51612898E-01 0.67006502E+03</pdfrwt>
<totfact> 0.65973902E+01</totfact>
</mgrwt>
</event>
<event>
 4    1  0.3032637E-007  0.6861242E+03  0.7818608E-02  0.1006052E+00
          2   -1    0    0  501    0  0.00000000000E+00  0.00000000000E+00  0.42618597484E+04  0.42618597484E+04  0.25500000000E-02 0. -1.
         -2   -1    0    0    0  501 -0.00000000000E+00 -0.00000000000E+00 -0.15824604986E+03  0.15824604988E+03  0.25500000000E-02 0.  1.
    8880023    1    1    2    0    0 -0.12835012669E+03 -0.14311693565E+03  0.61063590599E+03  0.91850020590E+03  0.65864270000E+03 0.  1.
    8880022    1    1    2    0    0  0.12835012669E+03  0.14311693565E+03  0.34929777926E+04  0.35016055924E+04  0.15294330000E+03 0.  0.
<mgrwt>
<rscale>  0 0.53074363E+03</rscale>
<asrwt>0</asrwt>
<pdfrwt beam="1">  1        2 0.65567071E+00 0.68612420E+03</pdfrwt>
<pdfrwt beam="2">  1       -2 0.24345547E-01 0.68612420E+03</pdfrwt>
<totfact> 0.35068559E+00</totfact>
</mgrwt>
</event>
<event>
 4    1  0.3032637E-007  0.1239541E+04  0.7818608E-02  0.9119613E-01
         -2   -1    0    0    0  501 -0.00000000000E+00  0.00000000000E+00  0.12350213220E+04  0.12350213220E+04  0.25500000000E-02 0.  1.
          2   -1    0    0  501    0  0.00000000000E+00 -0.00000000000E+00 -0.26156116880E+04  0.26156116880E+04  0.25500000000E-02 0. -1.
    8880023    1    1    2    0    0  0.29809527794E+03  0.10068713034E+04  0.76526299636E+03  0.14567389183E+04  0.65864270000E+03 0.  1.
    8880022    1    1    2    0    0 -0.29809527794E+03 -0.10068713034E+04 -0.21458533624E+04  0.23938940917E+04  0.15294330000E+03 0.  0.
<mgrwt>
<rscale>  0 0.11923119E+04</rscale>
<asrwt>0</asrwt>
<pdfrwt beam="1">  1        2 0.40240180E+00 0.12395406E+04</pdfrwt>
<pdfrwt beam="2">  1       -2 0.19000328E+00 0.12395406E+04</pdfrwt>
<totfact> 0.44880604E-01</totfact>
</mgrwt>
</event>
<event>
 4    1  0.3032637E-007  0.6653654E+03  0.7818608E-02  0.1019229E+00
         -2   -1    0    0    0  501 -0.00000000000E+00  0.00000000000E+00  0.13123871046E+03  0.13123871048E+03  0.25500000000E-02 0.  1.
          2   -1    0    0  501    0  0.00000000000E+00 -0.00000000000E+00 -0.14385300109E+04  0.14385300109E+04  0.25500000000E-02 0. -1.
    8880023    1    1    2    0    0  0.92593371921E+02 -0.18093088023E+02 -0.85718637760E+03  0.10851173137E+04  0.65864270000E+03 0.  0.
    8880022    1    1    2    0    0 -0.92593371921E+02  0.18093088023E+02 -0.45010492286E+03  0.48465140767E+03  0.15294330000E+03 0.  0.
<mgrwt>
<rscale>  0 0.47965938E+03</rscale>
<asrwt>0</asrwt>
<pdfrwt beam="1">  1        2 0.22131230E+00 0.66536539E+03</pdfrwt>
<pdfrwt beam="2">  1       -2 0.20190572E-01 0.66536539E+03</pdfrwt>
<totfact> 0.29398478E+02</totfact>
</mgrwt>
</event>
<event>
 4    1  0.3032637E-007  0.7896501E+03  0.7818608E-02  0.9733638E-01
         -2   -1    0    0    0  501 -0.00000000000E+00  0.00000000000E+00  0.21197896828E+03  0.21197896829E+03  0.25500000000E-02 0.  1.
          2   -1    0    0  501    0  0.00000000000E+00 -0.00000000000E+00 -0.18621676673E+04  0.18621676673E+04  0.25500000000E-02 0. -1.
    8880023    1    1    2    0    0 -0.38208700875E+03  0.20915688026E+03 -0.94806766076E+03  0.12338474697E+04  0.65864270000E+03 0.  1.
    8880022    1    1    2    0    0  0.38208700875E+03 -0.20915688026E+03 -0.70212103822E+03  0.84029916586E+03  0.15294330000E+03 0. -1.
<mgrwt>
<rscale>  0 0.69048822E+03</rscale>
<asrwt>0</asrwt>
<pdfrwt beam="1">  1        2 0.28648732E+00 0.78965011E+03</pdfrwt>
<pdfrwt beam="2">  1       -2 0.32612150E-01 0.78965011E+03</pdfrwt>
<totfact> 0.71318734E+01</totfact>
</mgrwt>
</event>
<event>
 4    1  0.3032637E-007  0.7440869E+03  0.7818608E-02  0.9848198E-01
          2   -1    0    0  501    0  0.00000000000E+00  0.00000000000E+00  0.14698711690E+04  0.14698711690E+04  0.25500000000E-02 0. -1.
         -2   -1    0    0    0  501 -0.00000000000E+00 -0.00000000000E+00 -0.91742100753E+03  0.91742100753E+03  0.25500000000E-02 0.  1.
    8880023    1    1    2    0    0  0.33494090561E+03  0.87576803415E+02 -0.73468148189E+03  0.10456682996E+04  0.65864270000E+03 0.  1.
    8880022    1    1    2    0    0 -0.33494090561E+03 -0.87576803415E+02  0.12871316433E+04  0.13416238769E+04  0.15294330000E+03 0.  0.
<mgrwt>
<rscale>  0 0.62838867E+03</rscale>
<asrwt>0</asrwt>
<pdfrwt beam="1">  1        2 0.22613403E+00 0.74408690E+03</pdfrwt>
<pdfrwt beam="2">  1       -2 0.14114169E+00 0.74408690E+03</pdfrwt>
<totfact> 0.47648734E+00</totfact>
</mgrwt>
</event>
<event>
 4    1  0.3032637E-007  0.8884890E+03  0.7818608E-02  0.9544769E-01
          2   -1    0    0  501    0  0.00000000000E+00  0.00000000000E+00  0.30022889668E+04  0.30022889668E+04  0.25500000000E-02 0. -1.
         -2   -1    0    0    0  501 -0.00000000000E+00 -0.00000000000E+00 -0.42983187226E+03  0.42983187227E+03  0.25500000000E-02 0.  1.
    8880023    1    1    2    0    0  0.38474484665E+03 -0.45560288188E+03  0.11165053164E+03  0.89547676155E+03  0.65864270000E+03 0.  1.
    8880022    1    1    2    0    0 -0.38474484665E+03  0.45560288188E+03  0.24608065629E+04  0.25366440775E+04  0.15294330000E+03 0.  0.
<mgrwt>
<rscale>  0 0.81062153E+03</rscale>
<asrwt>0</asrwt>
<pdfrwt beam="1">  1        2 0.46189059E+00 0.88848905E+03</pdfrwt>
<pdfrwt beam="2">  1       -2 0.66127983E-01 0.88848905E+03</pdfrwt>
<totfact> 0.37975843E+00</totfact>
</mgrwt>
</event>
<event>
 4    1  0.3032637E-007  0.6962121E+03  0.7818608E-02  0.1001329E+00
         -2   -1    0    0    0  501 -0.00000000000E+00  0.00000000000E+00  0.86186339514E+03  0.86186339514E+03  0.25500000000E-02 0.  1.
          2   -1    0    0  501    0  0.00000000000E+00 -0.00000000000E+00 -0.83086929612E+03  0.83086929613E+03  0.25500000000E-02 0. -1.
    8880023    1    1    2    0    0  0.20026340258E+03 -0.10390219679E+03  0.68961535243E+03  0.97993909886E+03  0.65864270000E+03 0.  1.
    8880022    1    1    2    0    0 -0.20026340258E+03  0.10390219679E+03 -0.65862125341E+03  0.71279359240E+03  0.15294330000E+03 0.  0.
<mgrwt>
<rscale>  0 0.55071193E+03</rscale>
<asrwt>0</asrwt>
<pdfrwt beam="1">  1        2 0.12782605E+00 0.69621211E+03</pdfrwt>
<pdfrwt beam="2">  1       -2 0.13259437E+00 0.69621211E+03</pdfrwt>
<totfact> 0.13813110E+01</totfact>
</mgrwt>
</event>
<event>
 4    1  0.3032637E-007  0.6752474E+03  0.7818608E-02  0.1012151E+00
         -2   -1    0    0    0  501 -0.00000000000E+00  0.00000000000E+00  0.16638239737E+03  0.16638239739E+03  0.25500000000E-02 0.  1.
          2   -1    0    0  501    0  0.00000000000E+00 -0.00000000000E+00 -0.15988889233E+04  0.15988889233E+04  0.25500000000E-02 0. -1.
    8880023    1    1    2    0    0  0.14609025034E+03  0.28399424450E+02 -0.59172234499E+03  0.89782761618E+03  0.65864270000E+03 0.  1.
    8880022    1    1    2    0    0 -0.14609025034E+03 -0.28399424450E+02 -0.84078418096E+03  0.86744370453E+03  0.15294330000E+03 0.  0.
<mgrwt>
<rscale>  0 0.50628724E+03</rscale>
<asrwt>0</asrwt>
<pdfrwt beam="1">  1        2 0.24598290E+00 0.67524743E+03</pdfrwt>
<pdfrwt beam="2">  1       -2 0.25597293E-01 0.67524743E+03</pdfrwt>
<totfact> 0.15704316E+02</totfact>
</mgrwt>
</event>
<event>
 4    1  0.3032637E-007  0.1044399E+04  0.7818608E-02  0.9325644E-01
         -2   -1    0    0    0  501 -0.00000000000E+00  0.00000000000E+00  0.43627267406E+03  0.43627267407E+03  0.25500000000E-02 0.  1.
          2   -1    0    0  501    0  0.00000000000E+00 -0.00000000000E+00 -0.29800842962E+04  0.29800842962E+04  0.25500000000E-02 0. -1.
    8880023    1    1    2    0    0 -0.61279477271E+03 -0.53051154187E+03 -0.39832877414E+03  0.11177817086E+04  0.65864270000E+03 0. -1.
    8880022    1    1    2    0    0  0.61279477271E+03  0.53051154187E+03 -0.21454828480E+04  0.22985752617E+04  0.15294330000E+03 0.  0.
<mgrwt>
<rscale>  0 0.98455876E+03</rscale>
<asrwt>0</asrwt>
<pdfrwt beam="1">  1        2 0.45847449E+00 0.10443994E+04</pdfrwt>
<pdfrwt beam="2">  1       -2 0.67118875E-01 0.10443994E+04</pdfrwt>
<totfact> 0.37057928E+00</totfact>
</mgrwt>
</event>
<event>
 4    1  0.3032637E-007  0.8490445E+03  0.7818608E-02  0.9613356E-01
         -2   -1    0    0    0  501 -0.00000000000E+00  0.00000000000E+00  0.31977023138E+03  0.31977023139E+03  0.25500000000E-02 0.  1.
          2   -1    0    0  501    0  0.00000000000E+00 -0.00000000000E+00 -0.18505001721E+04  0.18505001721E+04  0.25500000000E-02 0. -1.
    8880023    1    1    2    0    0 -0.43371951459E+03 -0.31456906325E+03 -0.46590307896E+03  0.96847415977E+03  0.65864270000E+03 0.  1.
    8880022    1    1    2    0    0  0.43371951459E+03  0.31456906325E+03 -0.10648268618E+04  0.12017962437E+04  0.15294330000E+03 0.  0.
<mgrwt>
<rscale>  0 0.76418442E+03</rscale>
<asrwt>0</asrwt>
<pdfrwt beam="1">  1        2 0.28469233E+00 0.84904447E+03</pdfrwt>
<pdfrwt beam="2">  1       -2 0.49195421E-01 0.84904447E+03</pdfrwt>
<totfact> 0.32195027E+01</totfact>
</mgrwt>
</event>
<event>
 4    1  0.3032637E-007  0.8951129E+03  0.7818608E-02  0.9533923E-01
         -2   -1    0    0    0  501 -0.00000000000E+00  0.00000000000E+00  0.10937443761E+04  0.10937443761E+04  0.25500000000E-02 0.  1.
          2   -1    0    0  501    0  0.00000000000E+00 -0.00000000000E+00 -0.18384271065E+04  0.18384271065E+04  0.25500000000E-02 0. -1.
    8880023    1    1    2    0    0 -0.10659081694E+03  0.59670366315E+03  0.84068662434E+03  0.12279988072E+04  0.65864270000E+03 0.  1.
    8880022    1    1    2    0    0  0.10659081694E+03 -0.59670366315E+03 -0.15853693547E+04  0.17041726755E+04  0.15294330000E+03 0.  0.
<mgrwt>
<rscale>  0 0.81828362E+03</rscale>
<asrwt>0</asrwt>
<pdfrwt beam="1">  1        2 0.28283494E+00 0.89511288E+03</pdfrwt>
<pdfrwt beam="2">  1       -2 0.16826837E+00 0.89511288E+03</pdfrwt>
<totfact> 0.18208684E+00</totfact>
</mgrwt>
</event>
<event>
 4    1  0.3032637E-007  0.7616267E+03  0.7818608E-02  0.9800914E-01
         -2   -1    0    0    0  501 -0.00000000000E+00  0.00000000000E+00  0.15375477085E+03  0.15375477087E+03  0.25500000000E-02 0.  1.
          2   -1    0    0  501    0  0.00000000000E+00 -0.00000000000E+00 -0.33410547215E+04  0.33410547215E+04  0.25500000000E-02 0. -1.
    8880023    1    1    2    0    0 -0.57051732829E+02  0.37816687664E+03 -0.93879114995E+03  0.12088854852E+04  0.65864270000E+03 0.  1.
    8880022    1    1    2    0    0  0.57051732829E+02 -0.37816687664E+03 -0.22485088007E+04  0.22859240072E+04  0.15294330000E+03 0.  0.
<mgrwt>
<rscale>  0 0.65313511E+03</rscale>
<asrwt>0</asrwt>
<pdfrwt beam="1">  1        2 0.51400837E+00 0.76162674E+03</pdfrwt>
<pdfrwt beam="2">  1       -2 0.23654583E-01 0.76162674E+03</pdfrwt>
<totfact> 0.17701200E+01</totfact>
</mgrwt>
</event>
<event>
 4    1  0.3032637E-007  0.7520496E+03  0.7818608E-02  0.9826143E-01
         -2   -1    0    0    0  501 -0.00000000000E+00  0.00000000000E+00  0.50413889274E+03  0.50413889275E+03  0.25500000000E-02 0.  1.
          2   -1    0    0  501    0  0.00000000000E+00 -0.00000000000E+00 -0.16203504185E+04  0.16203504185E+04  0.25500000000E-02 0. -1.
    8880023    1    1    2    0    0  0.27469024932E+03  0.23730485261E+03  0.17701694627E+03  0.77260179373E+03  0.65864270000E+03 0.  0.
    8880022    1    1    2    0    0 -0.27469024932E+03 -0.23730485261E+03 -0.12932284720E+04  0.13518875175E+04  0.15294330000E+03 0.  0.
<mgrwt>
<rscale>  0 0.63978243E+03</rscale>
<asrwt>0</asrwt>
<pdfrwt beam="1">  1        2 0.24928468E+00 0.75204955E+03</pdfrwt>
<pdfrwt beam="2">  1       -2 0.77559830E-01 0.75204955E+03</pdfrwt>
<totfact> 0.16518674E+01</totfact>
</mgrwt>
</event>
<event>
 4    1  0.3032637E-007  0.7006370E+03  0.7818608E-02  0.9994569E-01
         -2   -1    0    0    0  501 -0.00000000000E+00  0.00000000000E+00  0.12349060159E+03  0.12349060162E+03  0.25500000000E-02 0.  1.
          2   -1    0    0  501    0  0.00000000000E+00 -0.00000000000E+00 -0.20290888113E+04  0.20290888113E+04  0.25500000000E-02 0. -1.
    8880023    1    1    2    0    0  0.19374709008E+03  0.13980024089E+03 -0.11642851890E+04  0.13588422461E+04  0.65864270000E+03 0.  1.
    8880022    1    1    2    0    0 -0.19374709008E+03 -0.13980024089E+03 -0.74131302072E+03  0.79373716680E+03  0.15294330000E+03 0.  1.
<mgrwt>
<rscale>  0 0.55889028E+03</rscale>
<asrwt>0</asrwt>
<pdfrwt beam="1">  1        2 0.31216748E+00 0.70063703E+03</pdfrwt>
<pdfrwt beam="2">  1       -2 0.18998556E-01 0.70063703E+03</pdfrwt>
<totfact> 0.15482642E+02</totfact>
</mgrwt>
</event>
<event>
 4    1  0.3032637E-007  0.1144457E+04  0.7818608E-02  0.9213101E-01
         -2   -1    0    0    0  501 -0.00000000000E+00  0.00000000000E+00  0.10868875642E+04  0.10868875642E+04  0.25500000000E-02 0.  1.
          2   -1    0    0  501    0  0.00000000000E+00 -0.00000000000E+00 -0.11220827439E+04  0.11220827439E+04  0.25500000000E-02 0. -1.
    8880023    1    1    2    0    0 -0.91094652488E+03 -0.21482095471E+03  0.33258778128E+03  0.11918038649E+04  0.65864270000E+03 0.  1.
    8880022    1    1    2    0    0  0.91094652488E+03  0.21482095471E+03 -0.36778296104E+03  0.10171664432E+04  0.15294330000E+03 0.  0.
<mgrwt>
<rscale>  0 0.10919217E+04</rscale>
<asrwt>0</asrwt>
<pdfrwt beam="1">  1        2 0.17262811E+00 0.11444570E+04</pdfrwt>
<pdfrwt beam="2">  1       -2 0.16721347E+00 0.11444570E+04</pdfrwt>
<totfact> 0.46046068E+00</totfact>
</mgrwt>
</event>
<event>
 4    1  0.3032637E-007  0.7463968E+03  0.7818608E-02  0.9841691E-01
          2   -1    0    0  501    0  0.00000000000E+00  0.00000000000E+00  0.26887122841E+04  0.26887122841E+04  0.25500000000E-02 0. -1.
         -2   -1    0    0    0  501 -0.00000000000E+00 -0.00000000000E+00 -0.32902698672E+03  0.32902698673E+03  0.25500000000E-02 0.  1.
    8880023    1    1    2    0    0 -0.11094184506E+03  0.33315146502E+03  0.13275163464E+03  0.75811027851E+03  0.65864270000E+03 0.  1.
    8880022    1    1    2    0    0  0.11094184506E+03 -0.33315146502E+03  0.22269336627E+04  0.22596289923E+04  0.15294330000E+03 0.  0.
<mgrwt>
<rscale>  0 0.63172383E+03</rscale>
<asrwt>0</asrwt>
<pdfrwt beam="1">  1        2 0.41364803E+00 0.74639681E+03</pdfrwt>
<pdfrwt beam="2">  1       -2 0.50619537E-01 0.74639681E+03</pdfrwt>
<totfact> 0.10493375E+01</totfact>
</mgrwt>
</event>
<event>
 4    1  0.3032637E-007  0.7075577E+03  0.7818608E-02  0.9967184E-01
         -2   -1    0    0    0  501 -0.00000000000E+00  0.00000000000E+00  0.53501626974E+03  0.53501626975E+03  0.25500000000E-02 0.  1.
          2   -1    0    0  501    0  0.00000000000E+00 -0.00000000000E+00 -0.97155754056E+03  0.97155754057E+03  0.25500000000E-02 0. -1.
    8880023    1    1    2    0    0 -0.25748657749E+03  0.22985818351E+02  0.25540812023E+03  0.75224410903E+03  0.65864270000E+03 0.  1.
    8880022    1    1    2    0    0  0.25748657749E+03 -0.22985818351E+02 -0.69194939106E+03  0.75432970128E+03  0.15294330000E+03 0.  0.
<mgrwt>
<rscale>  0 0.57112852E+03</rscale>
<asrwt>0</asrwt>
<pdfrwt beam="1">  1        2 0.14947039E+00 0.70755769E+03</pdfrwt>
<pdfrwt beam="2">  1       -2 0.82310196E-01 0.70755769E+03</pdfrwt>
<totfact> 0.34739702E+01</totfact>
</mgrwt>
</event>
<event>
 4    1  0.3351901E-007  0.7967699E+03  0.7818608E-02  0.9717824E-01
          2   -1    0    0  501    0  0.00000000000E+00  0.00000000000E+00  0.14495100923E+04  0.14495100923E+04  0.25500000000E-02 0. -1.
         -2   -1    0    0    0  501 -0.00000000000E+00 -0.00000000000E+00 -0.14908038904E+04  0.14908038904E+04  0.25500000000E-02 0.  1.
    8880023    1    1    2    0    0 -0.39003396766E+03 -0.22114615781E+03 -0.13393967893E+04  0.15584691478E+04  0.65864270000E+03 0.  1.
    8880022    1    1    2    0    0  0.39003396766E+03  0.22114615781E+03  0.12981029912E+04  0.13818448350E+04  0.15294330000E+03 0.  0.
<mgrwt>
<rscale>  0 0.69965398E+03</rscale>
<asrwt>0</asrwt>
<pdfrwt beam="1">  1        2 0.22300155E+00 0.79676993E+03</pdfrwt>
<pdfrwt beam="2">  1       -2 0.22935445E+00 0.79676993E+03</pdfrwt>
<totfact> 0.12028348E+00</totfact>
</mgrwt>
</event>
<event>
 4    1  0.3032637E-007  0.2103998E+04  0.7818608E-02  0.8570745E-01
          2   -1    0    0  501    0  0.00000000000E+00  0.00000000000E+00  0.38668667676E+04  0.38668667676E+04  0.25500000000E-02 0. -1.
         -2   -1    0    0    0  501 -0.00000000000E+00 -0.00000000000E+00 -0.12452065578E+04  0.12452065578E+04  0.25500000000E-02 0.  1.
    8880023    1    1    2    0    0 -0.52381387509E+03 -0.19283713767E+04  0.43976770931E+03  0.21494657445E+04  0.65864270000E+03 0.  0.
    8880022    1    1    2    0    0  0.52381387509E+03  0.19283713767E+04  0.21818925004E+04  0.29626075809E+04  0.15294330000E+03 0.  0.
<mgrwt>
<rscale>  0 0.20785642E+04</rscale>
<asrwt>0</asrwt>
<pdfrwt beam="1">  1        2 0.59490257E+00 0.21039979E+04</pdfrwt>
<pdfrwt beam="2">  1       -2 0.19157024E+00 0.21039979E+04</pdfrwt>
<totfact> 0.58559611E-02</totfact>
</mgrwt>
</event>
<event>
 4    1  0.3249398E-007  0.1080864E+04  0.7818608E-02  0.9282667E-01
         -2   -1    0    0    0  501 -0.00000000000E+00  0.00000000000E+00  0.13649271897E+04  0.13649271897E+04  0.25500000000E-02 0.  1.
          2   -1    0    0  501    0  0.00000000000E+00 -0.00000000000E+00 -0.18273501188E+04  0.18273501188E+04  0.25500000000E-02 0. -1.
    8880023    1    1    2    0    0  0.10744356297E+03  0.85024249777E+03  0.10115834618E+04  0.14803944510E+04  0.65864270000E+03 0.  0.
    8880022    1    1    2    0    0 -0.10744356297E+03 -0.85024249777E+03 -0.14740063909E+04  0.17118828574E+04  0.15294330000E+03 0.  0.
<mgrwt>
<rscale>  0 0.10239435E+04</rscale>
<asrwt>0</asrwt>
<pdfrwt beam="1">  1        2 0.28113079E+00 0.10808638E+04</pdfrwt>
<pdfrwt beam="2">  1       -2 0.20998880E+00 0.10808638E+04</pdfrwt>
<totfact> 0.94065312E-01</totfact>
</mgrwt>
</event>
<event>
 4    1  0.3032637E-007  0.1670248E+04  0.7818608E-02  0.8797924E-01
          2   -1    0    0  501    0  0.00000000000E+00  0.00000000000E+00  0.31219447086E+04  0.31219447086E+04  0.25500000000E-02 0. -1.
         -2   -1    0    0    0  501 -0.00000000000E+00 -0.00000000000E+00 -0.10022791699E+04  0.10022791699E+04  0.25500000000E-02 0.  1.
    8880023    1    1    2    0    0  0.44973765585E+03  0.14675336759E+04  0.23169095928E+03  0.16862413694E+04  0.65864270000E+03 0.  1.
    8880022    1    1    2    0    0 -0.44973765585E+03 -0.14675336759E+04  0.18879745794E+04  0.24379825091E+04  0.15294330000E+03 0.  0.
<mgrwt>
<rscale>  0 0.16373524E+04</rscale>
<asrwt>0</asrwt>
<pdfrwt beam="1">  1        2 0.48029918E+00 0.16702483E+04</pdfrwt>
<pdfrwt beam="2">  1       -2 0.15419680E+00 0.16702483E+04</pdfrwt>
<totfact> 0.37739699E-01</totfact>
</mgrwt>
</event>
<event>
 4    1  0.3032637E-007  0.7038533E+03  0.7818608E-02  0.9981577E-01
         -2   -1    0    0    0  501 -0.00000000000E+00  0.00000000000E+00  0.17934905042E+03  0.17934905044E+03  0.25500000000E-02 0.  1.
          2   -1    0    0  501    0  0.00000000000E+00 -0.00000000000E+00 -0.19702986048E+04  0.19702986048E+04  0.25500000000E-02 0. -1.
    8880023    1    1    2    0    0 -0.24427611103E+03 -0.43913267770E+02 -0.60419767584E+03  0.92761211250E+03  0.65864270000E+03 0.  1.
    8880022    1    1    2    0    0  0.24427611103E+03  0.43913267770E+02 -0.11867518785E+04  0.12220355427E+04  0.15294330000E+03 0.  0.
<mgrwt>
<rscale>  0 0.56465491E+03</rscale>
<asrwt>0</asrwt>
<pdfrwt beam="1">  1        2 0.30312285E+00 0.70385325E+03</pdfrwt>
<pdfrwt beam="2">  1       -2 0.27592163E-01 0.70385325E+03</pdfrwt>
<totfact> 0.85716103E+01</totfact>
</mgrwt>
</event>
<event>
 4    1  0.3032637E-007  0.7343009E+03  0.7818608E-02  0.9876870E-01
         -2   -1    0    0    0  501 -0.00000000000E+00  0.00000000000E+00  0.23415686942E+04  0.23415686942E+04  0.25500000000E-02 0.  1.
          2   -1    0    0  501    0  0.00000000000E+00 -0.00000000000E+00 -0.50141154562E+03  0.50141154563E+03  0.25500000000E-02 0. -1.
    8880023    1    1    2    0    0  0.65370510877E+01 -0.32456878518E+03  0.22093126609E+04  0.23281452423E+04  0.65864270000E+03 0.  1.
    8880022    1    1    2    0    0 -0.65370510877E+01  0.32456878518E+03 -0.36915551234E+03  0.51483499751E+03  0.15294330000E+03 0.  0.
<mgrwt>
<rscale>  0 0.61395466E+03</rscale>
<asrwt>0</asrwt>
<pdfrwt beam="1">  1        2 0.77140239E-01 0.73430092E+03</pdfrwt>
<pdfrwt beam="2">  1       -2 0.36024133E+00 0.73430092E+03</pdfrwt>
<totfact> 0.87135260E-01</totfact>
</mgrwt>
</event>
<event>
 4    1  0.3032637E-007  0.1237563E+04  0.7818608E-02  0.9121446E-01
         -2   -1    0    0    0  501 -0.00000000000E+00  0.00000000000E+00  0.12541340696E+04  0.12541340696E+04  0.25500000000E-02 0.  1.
          2   -1    0    0  501    0  0.00000000000E+00 -0.00000000000E+00 -0.14142215848E+04  0.14142215848E+04  0.25500000000E-02 0. -1.
    8880023    1    1    2    0    0 -0.39173595483E+03 -0.97174877956E+03  0.58974592166E+03  0.13708986860E+04  0.65864270000E+03 0.  0.
    8880022    1    1    2    0    0  0.39173595483E+03  0.97174877956E+03 -0.74983343689E+03  0.12974569685E+04  0.15294330000E+03 0.  0.
<mgrwt>
<rscale>  0 0.11902365E+04</rscale>
<asrwt>0</asrwt>
<pdfrwt beam="1">  1        2 0.21757255E+00 0.12375633E+04</pdfrwt>
<pdfrwt beam="2">  1       -2 0.19294370E+00 0.12375633E+04</pdfrwt>
<totfact> 0.20331621E+00</totfact>
</mgrwt>
</event>
<event>
 4    1  0.3032637E-007  0.1096793E+04  0.7818608E-02  0.9264635E-01
          2   -1    0    0  501    0  0.00000000000E+00  0.00000000000E+00  0.14423321694E+04  0.14423321694E+04  0.25500000000E-02 0. -1.
         -2   -1    0    0    0  501 -0.00000000000E+00 -0.00000000000E+00 -0.21399559508E+04  0.21399559508E+04  0.25500000000E-02 0.  1.
    8880023    1    1    2    0    0  0.50622013317E+02 -0.87554736192E+03 -0.18350818487E+04  0.21378684171E+04  0.65864270000E+03 0.  1.
    8880022    1    1    2    0    0 -0.50622013317E+02  0.87554736192E+03  0.11374580672E+04  0.14444197031E+04  0.15294330000E+03 0.  0.
<mgrwt>
<rscale>  0 0.10410489E+04</rscale>
<asrwt>0</asrwt>
<pdfrwt beam="1">  1        2 0.22189726E+00 0.10967935E+04</pdfrwt>
<pdfrwt beam="2">  1       -2 0.32922399E+00 0.10967935E+04</pdfrwt>
<totfact> 0.28543957E-01</totfact>
</mgrwt>
</event>
<event>
 4    1  0.3032637E-007  0.7352875E+03  0.7818608E-02  0.9873893E-01
         -2   -1    0    0    0  501 -0.00000000000E+00  0.00000000000E+00  0.75794875187E+03  0.75794875187E+03  0.25500000000E-02 0.  1.
          2   -1    0    0  501    0  0.00000000000E+00 -0.00000000000E+00 -0.41211192964E+03  0.41211192964E+03  0.25500000000E-02 0. -1.
    8880023    1    1    2    0    0 -0.15147039980E+03 -0.28964501072E+03  0.12182012730E+03  0.74531058219E+03  0.65864270000E+03 0.  0.
    8880022    1    1    2    0    0  0.15147039980E+03  0.28964501072E+03  0.22401669493E+03  0.42475009932E+03  0.15294330000E+03 0.  0.
<mgrwt>
<rscale>  0 0.61543391E+03</rscale>
<asrwt>0</asrwt>
<pdfrwt beam="1">  1        2 0.63401836E-01 0.73528751E+03</pdfrwt>
<pdfrwt beam="2">  1       -2 0.11660750E+00 0.73528751E+03</pdfrwt>
<totfact> 0.44359296E+01</totfact>
</mgrwt>
</event>
<event>
 4    1  0.3032637E-007  0.6758586E+03  0.7818608E-02  0.1011770E+00
          2   -1    0    0  501    0  0.00000000000E+00  0.00000000000E+00  0.45080930239E+04  0.45080930239E+04  0.25500000000E-02 0. -1.
         -2   -1    0    0    0  501 -0.00000000000E+00 -0.00000000000E+00 -0.49088539026E+03  0.49088539027E+03  0.25500000000E-02 0.  1.
    8880023    1    1    2    0    0  0.79680332308E+02  0.12894065303E+03 -0.25424786046E+03  0.72209890470E+03  0.65864270000E+03 0.  1.
    8880022    1    1    2    0    0 -0.79680332308E+02 -0.12894065303E+03  0.42714554941E+04  0.42768795095E+04  0.15294330000E+03 0.  0.
<mgrwt>
<rscale>  0 0.50777018E+03</rscale>
<asrwt>0</asrwt>
<pdfrwt beam="1">  1        2 0.69355278E+00 0.67585860E+03</pdfrwt>
<pdfrwt beam="2">  1       -2 0.75520829E-01 0.67585860E+03</pdfrwt>
<totfact> 0.22268700E-01</totfact>
</mgrwt>
</event>
<event>
 4    1  0.3032637E-007  0.1610834E+04  0.7818608E-02  0.8835094E-01
         -2   -1    0    0    0  501 -0.00000000000E+00  0.00000000000E+00  0.11555551569E+04  0.11555551569E+04  0.25500000000E-02 0.  1.
          2   -1    0    0  501    0  0.00000000000E+00 -0.00000000000E+00 -0.21436862678E+04  0.21436862678E+04  0.25500000000E-02 0. -1.
    8880023    1    1    2    0    0 -0.76094977850E+03 -0.12577485777E+04 -0.83212844607E+03  0.18130703260E+04  0.65864270000E+03 0.  0.
    8880022    1    1    2    0    0  0.76094977850E+03  0.12577485777E+04 -0.15600266481E+03  0.14861710987E+04  0.15294330000E+03 0.  0.
<mgrwt>
<rscale>  0 0.15765357E+04</rscale>
<asrwt>0</asrwt>
<pdfrwt beam="1">  1        2 0.32979789E+00 0.16108340E+04</pdfrwt>
<pdfrwt beam="2">  1       -2 0.17777772E+00 0.16108340E+04</pdfrwt>
<totfact> 0.97178656E-01</totfact>
</mgrwt>
</event>
<event>
 4    1  0.3032637E-007  0.1185996E+04  0.7818608E-02  0.9170857E-01
         -2   -1    0    0    0  501 -0.00000000000E+00  0.00000000000E+00  0.47255882040E+03  0.47255882041E+03  0.25500000000E-02 0.  1.
          2   -1    0    0  501    0  0.00000000000E+00 -0.00000000000E+00 -0.38495170986E+04  0.38495170986E+04  0.25500000000E-02 0. -1.
    8880023    1    1    2    0    0 -0.89681718962E+03 -0.41048057915E+03 -0.51850834842E+03  0.12943865308E+04  0.65864270000E+03 0.  1.
    8880022    1    1    2    0    0  0.89681718962E+03  0.41048057915E+03 -0.28584499298E+04  0.30276893882E+04  0.15294330000E+03 0.  0.
<mgrwt>
<rscale>  0 0.11359359E+04</rscale>
<asrwt>0</asrwt>
<pdfrwt beam="1">  1        2 0.59223338E+00 0.11859956E+04</pdfrwt>
<pdfrwt beam="2">  1       -2 0.72701360E-01 0.11859956E+04</pdfrwt>
<totfact> 0.78182368E-01</totfact>
</mgrwt>
</event>
<event>
 4    1  0.3032637E-007  0.1258922E+04  0.7818608E-02  0.9101871E-01
         -2   -1    0    0    0  501 -0.00000000000E+00  0.00000000000E+00  0.86582167500E+03  0.86582167500E+03  0.25500000000E-02 0.  1.
          2   -1    0    0  501    0  0.00000000000E+00 -0.00000000000E+00 -0.21235500566E+04  0.21235500566E+04  0.25500000000E-02 0. -1.
    8880023    1    1    2    0    0 -0.94630267683E+03  0.50555463741E+03  0.87448527350E+02  0.12619555059E+04  0.65864270000E+03 0.  0.
    8880022    1    1    2    0    0  0.94630267683E+03 -0.50555463741E+03 -0.13451769090E+04  0.17274162258E+04  0.15294330000E+03 0.  0.
<mgrwt>
<rscale>  0 0.12126324E+04</rscale>
<asrwt>0</asrwt>
<pdfrwt beam="1">  1        2 0.32670001E+00 0.12589219E+04</pdfrwt>
<pdfrwt beam="2">  1       -2 0.13320333E+00 0.12589219E+04</pdfrwt>
<totfact> 0.22557800E+00</totfact>
</mgrwt>
</event>
<event>
 4    1  0.3032637E-007  0.8695276E+03  0.7818608E-02  0.9576835E-01
         -2   -1    0    0    0  501 -0.00000000000E+00  0.00000000000E+00  0.52288265657E+03  0.52288265658E+03  0.25500000000E-02 0.  1.
          2   -1    0    0  501    0  0.00000000000E+00 -0.00000000000E+00 -0.12827374272E+04  0.12827374272E+04  0.25500000000E-02 0. -1.
    8880023    1    1    2    0    0 -0.35004529856E+03 -0.44691871731E+03 -0.32190994264E+02  0.87012327707E+03  0.65864270000E+03 0.  0.
    8880022    1    1    2    0    0  0.35004529856E+03  0.44691871731E+03 -0.72766377638E+03  0.93549680672E+03  0.15294330000E+03 0.  0.
<mgrwt>
<rscale>  0 0.78848534E+03</rscale>
<asrwt>0</asrwt>
<pdfrwt beam="1">  1        2 0.19734422E+00 0.86952761E+03</pdfrwt>
<pdfrwt beam="2">  1       -2 0.80443486E-01 0.86952761E+03</pdfrwt>
<totfact> 0.23275490E+01</totfact>
</mgrwt>
</event>
<event>
 4    1  0.3032637E-007  0.1203032E+04  0.7818608E-02  0.9154181E-01
          2   -1    0    0  501    0  0.00000000000E+00  0.00000000000E+00  0.39269031262E+04  0.39269031262E+04  0.25500000000E-02 0. -1.
         -2   -1    0    0    0  501 -0.00000000000E+00 -0.00000000000E+00 -0.11492421094E+04  0.11492421094E+04  0.25500000000E-02 0.  1.
    8880023    1    1    2    0    0  0.74417869496E+03  0.67799246479E+03 -0.74112079190E+03  0.14129918424E+04  0.65864270000E+03 0.  0.
    8880022    1    1    2    0    0 -0.74417869496E+03 -0.67799246479E+03  0.35187818086E+04  0.36631533932E+04  0.15294330000E+03 0.  0.
<mgrwt>
<rscale>  0 0.11539136E+04</rscale>
<asrwt>0</asrwt>
<pdfrwt beam="1">  1        2 0.60413894E+00 0.12030320E+04</pdfrwt>
<pdfrwt beam="2">  1       -2 0.17680648E+00 0.12030320E+04</pdfrwt>
<totfact> 0.74975810E-02</totfact>
</mgrwt>
</event>
<event>
 4    1  0.3032637E-007  0.6995414E+03  0.7818608E-02  0.9999109E-01
         -2   -1    0    0    0  501 -0.00000000000E+00  0.00000000000E+00  0.16789989478E+04  0.16789989478E+04  0.25500000000E-02 0.  1.
          2   -1    0    0  501    0  0.00000000000E+00 -0.00000000000E+00 -0.36822976689E+03  0.36822976689E+03  0.25500000000E-02 0. -1.
    8880023    1    1    2    0    0 -0.11809774537E+02 -0.23539013567E+03  0.15355686693E+04  0.16874031323E+04  0.65864270000E+03 0.  1.
    8880022    1    1    2    0    0  0.11809774537E+02  0.23539013567E+03 -0.22479948834E+03  0.35982558236E+03  0.15294330000E+03 0.  0.
<mgrwt>
<rscale>  0 0.55689327E+03</rscale>
<asrwt>0</asrwt>
<pdfrwt beam="1">  1        2 0.56650734E-01 0.69954142E+03</pdfrwt>
<pdfrwt beam="2">  1       -2 0.25830753E+00 0.69954142E+03</pdfrwt>
<totfact> 0.51709133E+00</totfact>
</mgrwt>
</event>
<event>
 4    1  0.3032637E-007  0.6957374E+03  0.7818608E-02  0.1001537E+00
          2   -1    0    0  501    0  0.00000000000E+00  0.00000000000E+00  0.11989768030E+04  0.11989768030E+04  0.25500000000E-02 0. -1.
         -2   -1    0    0    0  501 -0.00000000000E+00 -0.00000000000E+00 -0.46526697250E+03  0.46526697251E+03  0.25500000000E-02 0.  1.
    8880023    1    1    2    0    0  0.15488810359E+02 -0.22360760116E+03 -0.17373094254E+03  0.71710034807E+03  0.65864270000E+03 0.  1.
    8880022    1    1    2    0    0 -0.15488810359E+02  0.22360760116E+03  0.90744077309E+03  0.94714342748E+03  0.15294330000E+03 0.  0.
<mgrwt>
<rscale>  0 0.54981585E+03</rscale>
<asrwt>0</asrwt>
<pdfrwt beam="1">  1        2 0.18445797E+00 0.69573736E+03</pdfrwt>
<pdfrwt beam="2">  1       -2 0.71579535E-01 0.69573736E+03</pdfrwt>
<totfact> 0.34392477E+01</totfact>
</mgrwt>
</event>
<event>
 4    1  0.3032637E-007  0.9632458E+03  0.7818608E-02  0.9431307E-01
         -2   -1    0    0    0  501 -0.00000000000E+00  0.00000000000E+00  0.31882988759E+03  0.31882988760E+03  0.25500000000E-02 0.  1.
          2   -1    0    0  501    0  0.00000000000E+00 -0.00000000000E+00 -0.29627432561E+04  0.29627432561E+04  0.25500000000E-02 0. -1.
    8880023    1    1    2    0    0 -0.57833342498E+03  0.39945305823E+03 -0.65043558641E+03  0.11622860898E+04  0.65864270000E+03 0.  0.
    8880022    1    1    2    0    0  0.57833342498E+03 -0.39945305823E+03 -0.19934777821E+04  0.21192870539E+04  0.15294330000E+03 0.  0.
<mgrwt>
<rscale>  0 0.89543417E+03</rscale>
<asrwt>0</asrwt>
<pdfrwt beam="1">  1        2 0.45580664E+00 0.96324582E+03</pdfrwt>
<pdfrwt beam="2">  1       -2 0.49050754E-01 0.96324582E+03</pdfrwt>
<totfact> 0.74277693E+00</totfact>
</mgrwt>
</event>
<event>
 4    1  0.3032637E-007  0.9188669E+03  0.7818608E-02  0.9496399E-01
         -2   -1    0    0    0  501 -0.00000000000E+00  0.00000000000E+00  0.26292439827E+03  0.26292439828E+03  0.25500000000E-02 0.  1.
          2   -1    0    0  501    0  0.00000000000E+00 -0.00000000000E+00 -0.25410398586E+04  0.25410398586E+04  0.25500000000E-02 0. -1.
    8880023    1    1    2    0    0  0.61491066118E+03 -0.17997524145E+03 -0.95114027800E+03  0.13224916799E+04  0.65864270000E+03 0.  0.
    8880022    1    1    2    0    0 -0.61491066118E+03  0.17997524145E+03 -0.13269751824E+04  0.14814725770E+04  0.15294330000E+03 0.  0.
<mgrwt>
<rscale>  0 0.84549862E+03</rscale>
<asrwt>0</asrwt>
<pdfrwt beam="1">  1        2 0.39092919E+00 0.91886692E+03</pdfrwt>
<pdfrwt beam="2">  1       -2 0.40449909E-01 0.91886692E+03</pdfrwt>
<totfact> 0.19496719E+01</totfact>
</mgrwt>
</event>
<event>
 4    1  0.3032637E-007  0.6628554E+03  0.7818608E-02  0.1021405E+00
         -2   -1    0    0    0  501 -0.00000000000E+00  0.00000000000E+00  0.46251396294E+03  0.46251396295E+03  0.25500000000E-02 0.  1.
          2   -1    0    0  501    0  0.00000000000E+00 -0.00000000000E+00 -0.84899648304E+03  0.84899648305E+03  0.25500000000E-02 0. -1.
    8880023    1    1    2    0    0  0.29636685327E+02 -0.68474540631E+02  0.20675167760E+03  0.69435117793E+03  0.65864270000E+03 0.  1.
    8880022    1    1    2    0    0 -0.29636685327E+02  0.68474540631E+02 -0.59323419770E+03  0.61715926807E+03  0.15294330000E+03 0.  0.
<mgrwt>
<rscale>  0 0.47183112E+03</rscale>
<asrwt>0</asrwt>
<pdfrwt beam="1">  1        2 0.13061484E+00 0.66285542E+03</pdfrwt>
<pdfrwt beam="2">  1       -2 0.71155995E-01 0.66285542E+03</pdfrwt>
<totfact> 0.58222747E+01</totfact>
</mgrwt>
</event>
<event>
 4    1  0.3032637E-007  0.9633822E+03  0.7818608E-02  0.9431116E-01
          2   -1    0    0  501    0  0.00000000000E+00  0.00000000000E+00  0.12556797119E+04  0.12556797119E+04  0.25500000000E-02 0. -1.
         -2   -1    0    0    0  501 -0.00000000000E+00 -0.00000000000E+00 -0.11397017793E+04  0.11397017793E+04  0.25500000000E-02 0.  1.
    8880023    1    1    2    0    0  0.53965579873E+03  0.45062929780E+03 -0.78475490049E+03  0.12425560773E+04  0.65864270000E+03 0.  1.
    8880022    1    1    2    0    0 -0.53965579873E+03 -0.45062929780E+03  0.90073283312E+03  0.11528254138E+04  0.15294330000E+03 0.  0.
<mgrwt>
<rscale>  0 0.89558614E+03</rscale>
<asrwt>0</asrwt>
<pdfrwt beam="1">  1        2 0.19318149E+00 0.96338225E+03</pdfrwt>
<pdfrwt beam="2">  1       -2 0.17533874E+00 0.96338225E+03</pdfrwt>
<totfact> 0.34149316E+00</totfact>
</mgrwt>
</event>
<event>
 4    1  0.3032637E-007  0.1741449E+04  0.7818608E-02  0.8755636E-01
         -2   -1    0    0    0  501 -0.00000000000E+00  0.00000000000E+00  0.14257276747E+04  0.14257276747E+04  0.25500000000E-02 0.  1.
          2   -1    0    0  501    0  0.00000000000E+00 -0.00000000000E+00 -0.33554096095E+04  0.33554096095E+04  0.25500000000E-02 0. -1.
    8880023    1    1    2    0    0  0.48602644145E+03 -0.15370787144E+04  0.54410969205E+03  0.18244720440E+04  0.65864270000E+03 0.  0.
    8880022    1    1    2    0    0 -0.48602644145E+03  0.15370787144E+04 -0.24737916269E+04  0.29566652401E+04  0.15294330000E+03 0.  0.
<mgrwt>
<rscale>  0 0.17100811E+04</rscale>
<asrwt>0</asrwt>
<pdfrwt beam="1">  1        2 0.51621686E+00 0.17414485E+04</pdfrwt>
<pdfrwt beam="2">  1       -2 0.21934272E+00 0.17414485E+04</pdfrwt>
<totfact> 0.93510668E-02</totfact>
</mgrwt>
</event>
<event>
 4    1  0.3032637E-007  0.1174985E+04  0.7818608E-02  0.9181831E-01
         -2   -1    0    0    0  501 -0.00000000000E+00  0.00000000000E+00  0.14139517133E+04  0.14139517133E+04  0.25500000000E-02 0.  1.
          2   -1    0    0  501    0  0.00000000000E+00 -0.00000000000E+00 -0.11176026284E+04  0.11176026284E+04  0.25500000000E-02 0. -1.
    8880023    1    1    2    0    0  0.97064441150E+03 -0.68029822514E+02 -0.48814281670E+03  0.12723491054E+04  0.65864270000E+03 0.  0.
    8880022    1    1    2    0    0 -0.97064441150E+03  0.68029822514E+02  0.78449190156E+03  0.12592052362E+04  0.15294330000E+03 0.  0.
<mgrwt>
<rscale>  0 0.11242946E+04</rscale>
<asrwt>0</asrwt>
<pdfrwt beam="1">  1        2 0.17193887E+00 0.11749846E+04</pdfrwt>
<pdfrwt beam="2">  1       -2 0.21753103E+00 0.11749846E+04</pdfrwt>
<totfact> 0.21213922E+00</totfact>
</mgrwt>
</event>
<event>
 4    1  0.3032637E-007  0.1215466E+04  0.7818608E-02  0.9142233E-01
         -2   -1    0    0    0  501 -0.00000000000E+00  0.00000000000E+00  0.11460383626E+04  0.11460383626E+04  0.25500000000E-02 0.  1.
          2   -1    0    0  501    0  0.00000000000E+00 -0.00000000000E+00 -0.39204623062E+04  0.39204623062E+04  0.25500000000E-02 0. -1.
    8880023    1    1    2    0    0  0.28369095341E+03 -0.98135990950E+03  0.72673058222E+03  0.14161551378E+04  0.65864270000E+03 0.  0.
    8880022    1    1    2    0    0 -0.28369095341E+03  0.98135990950E+03 -0.35011545259E+04  0.36503455310E+04  0.15294330000E+03 0.  0.
<mgrwt>
<rscale>  0 0.11670101E+04</rscale>
<asrwt>0</asrwt>
<pdfrwt beam="1">  1        2 0.60314804E+00 0.12154662E+04</pdfrwt>
<pdfrwt beam="2">  1       -2 0.17631360E+00 0.12154662E+04</pdfrwt>
<totfact> 0.76278372E-02</totfact>
</mgrwt>
</event>
<event>
 4    1  0.3032637E-007  0.7134395E+03  0.7818608E-02  0.9945444E-01
         -2   -1    0    0    0  501 -0.00000000000E+00  0.00000000000E+00  0.80778946871E+03  0.80778946871E+03  0.25500000000E-02 0.  1.
          2   -1    0    0  501    0  0.00000000000E+00 -0.00000000000E+00 -0.70268265434E+03  0.70268265435E+03  0.25500000000E-02 0. -1.
    8880023    1    1    2    0    0  0.13067807872E+03 -0.24105802258E+03  0.59473884792E+03  0.92882196033E+03  0.65864270000E+03 0.  1.
    8880022    1    1    2    0    0 -0.13067807872E+03  0.24105802258E+03 -0.48963203355E+03  0.58165016273E+03  0.15294330000E+03 0.  0.
<mgrwt>
<rscale>  0 0.58108549E+03</rscale>
<asrwt>0</asrwt>
<pdfrwt beam="1">  1        2 0.10810502E+00 0.71343951E+03</pdfrwt>
<pdfrwt beam="2">  1       -2 0.12427530E+00 0.71343951E+03</pdfrwt>
<totfact> 0.20184994E+01</totfact>
</mgrwt>
</event>
<event>
 4    1  0.3032637E-007  0.7868852E+03  0.7818608E-02  0.9739905E-01
          2   -1    0    0  501    0  0.00000000000E+00  0.00000000000E+00  0.27895863835E+04  0.27895863835E+04  0.25500000000E-02 0. -1.
         -2   -1    0    0    0  501 -0.00000000000E+00 -0.00000000000E+00 -0.28459613196E+03  0.28459613197E+03  0.25500000000E-02 0.  1.
    8880023    1    1    2    0    0 -0.42604129725E+03  0.62184791863E+02  0.33264802075E+03  0.85430851996E+03  0.65864270000E+03 0.  0.
    8880022    1    1    2    0    0  0.42604129725E+03 -0.62184791863E+02  0.21723422308E+04  0.22198739955E+04  0.15294330000E+03 0.  0.
<mgrwt>
<rscale>  0 0.68689759E+03</rscale>
<asrwt>0</asrwt>
<pdfrwt beam="1">  1        2 0.42916713E+00 0.78688521E+03</pdfrwt>
<pdfrwt beam="2">  1       -2 0.43784021E-01 0.78688521E+03</pdfrwt>
<totfact> 0.12180841E+01</totfact>
</mgrwt>
</event>
<event>
 4    1  0.3032637E-007  0.7816631E+03  0.7818608E-02  0.9751945E-01
         -2   -1    0    0    0  501 -0.00000000000E+00  0.00000000000E+00  0.36305401041E+03  0.36305401042E+03  0.25500000000E-02 0.  1.
          2   -1    0    0  501    0  0.00000000000E+00 -0.00000000000E+00 -0.17632500566E+04  0.17632500566E+04  0.25500000000E-02 0. -1.
    8880023    1    1    2    0    0 -0.13818314540E+03 -0.39760834713E+03 -0.14684184171E+03  0.79533622583E+03  0.65864270000E+03 0.  1.
    8880022    1    1    2    0    0  0.13818314540E+03  0.39760834713E+03 -0.12533542044E+04  0.13309678411E+04  0.15294330000E+03 0.  0.
<mgrwt>
<rscale>  0 0.68006479E+03</rscale>
<asrwt>0</asrwt>
<pdfrwt beam="1">  1        2 0.27126923E+00 0.78166309E+03</pdfrwt>
<pdfrwt beam="2">  1       -2 0.55854464E-01 0.78166309E+03</pdfrwt>
<totfact> 0.27887409E+01</totfact>
</mgrwt>
</event>
<event>
 4    1  0.3032637E-007  0.1005444E+04  0.7818608E-02  0.9374469E-01
         -2   -1    0    0    0  501 -0.00000000000E+00  0.00000000000E+00  0.34672072529E+03  0.34672072530E+03  0.25500000000E-02 0.  1.
          2   -1    0    0  501    0  0.00000000000E+00 -0.00000000000E+00 -0.32283853066E+04  0.32283853066E+04  0.25500000000E-02 0. -1.
    8880023    1    1    2    0    0 -0.28495850201E+03 -0.70420658521E+03 -0.61260490915E+03  0.11773713278E+04  0.65864270000E+03 0.  0.
    8880022    1    1    2    0    0  0.28495850201E+03  0.70420658521E+03 -0.22690596722E+04  0.23977347041E+04  0.15294330000E+03 0.  0.
<mgrwt>
<rscale>  0 0.94206890E+03</rscale>
<asrwt>0</asrwt>
<pdfrwt beam="1">  1        2 0.49667464E+00 0.10054444E+04</pdfrwt>
<pdfrwt beam="2">  1       -2 0.53341652E-01 0.10054444E+04</pdfrwt>
<totfact> 0.42321253E+00</totfact>
</mgrwt>
</event>
<event>
 4    1  0.3032637E-007  0.8737508E+03  0.7818608E-02  0.9569556E-01
          2   -1    0    0  501    0  0.00000000000E+00  0.00000000000E+00  0.28707872482E+04  0.28707872482E+04  0.25500000000E-02 0. -1.
         -2   -1    0    0    0  501 -0.00000000000E+00 -0.00000000000E+00 -0.22651367744E+03  0.22651367745E+03  0.25500000000E-02 0.  1.
    8880023    1    1    2    0    0  0.15497505833E+03  0.55282278093E+03  0.89895005574E+03  0.12536154533E+04  0.65864270000E+03 0.  1.
    8880022    1    1    2    0    0 -0.15497505833E+03 -0.55282278093E+03  0.17453235150E+04  0.18436854723E+04  0.15294330000E+03 0. -1.
<mgrwt>
<rscale>  0 0.79344333E+03</rscale>
<asrwt>0</asrwt>
<pdfrwt beam="1">  1        2 0.44165958E+00 0.87375082E+03</pdfrwt>
<pdfrwt beam="2">  1       -2 0.34848257E-01 0.87375082E+03</pdfrwt>
<totfact> 0.16765767E+01</totfact>
</mgrwt>
</event>
<event>
 4    1  0.3032637E-007  0.2068051E+04  0.7818608E-02  0.8587171E-01
         -2   -1    0    0    0  501 -0.00000000000E+00  0.00000000000E+00  0.20547958965E+04  0.20547958965E+04  0.25500000000E-02 0.  1.
          2   -1    0    0  501    0  0.00000000000E+00 -0.00000000000E+00 -0.29797197560E+04  0.29797197560E+04  0.25500000000E-02 0. -1.
    8880023    1    1    2    0    0 -0.18290826135E+04 -0.70532318191E+03  0.98736029810E+03  0.22916619651E+04  0.65864270000E+03 0.  0.
    8880022    1    1    2    0    0  0.18290826135E+04  0.70532318191E+03 -0.19122841576E+04  0.27428536874E+04  0.15294330000E+03 0.  0.
<mgrwt>
<rscale>  0 0.20421351E+04</rscale>
<asrwt>0</asrwt>
<pdfrwt beam="1">  1        2 0.45841842E+00 0.20680508E+04</pdfrwt>
<pdfrwt beam="2">  1       -2 0.31612244E+00 0.20680508E+04</pdfrwt>
<totfact> 0.39799633E-02</totfact>
</mgrwt>
</event>
<event>
 4    1  0.3032637E-007  0.1411515E+04  0.7818608E-02  0.8974786E-01
          2   -1    0    0  501    0  0.00000000000E+00  0.00000000000E+00  0.14815126427E+04  0.14815126427E+04  0.25500000000E-02 0. -1.
         -2   -1    0    0    0  501 -0.00000000000E+00 -0.00000000000E+00 -0.18741498618E+04  0.18741498618E+04  0.25500000000E-02 0.  1.
    8880023    1    1    2    0    0  0.78892751980E+03 -0.96755305497E+03 -0.12070613412E+04  0.18572487268E+04  0.65864270000E+03 0.  1.
    8880022    1    1    2    0    0 -0.78892751980E+03  0.96755305497E+03  0.81442412209E+03  0.14984137777E+04  0.15294330000E+03 0.  0.
<mgrwt>
<rscale>  0 0.13713981E+04</rscale>
<asrwt>0</asrwt>
<pdfrwt beam="1">  1        2 0.22792502E+00 0.14115154E+04</pdfrwt>
<pdfrwt beam="2">  1       -2 0.28833075E+00 0.14115154E+04</pdfrwt>
<totfact> 0.46270347E-01</totfact>
</mgrwt>
</event>
<event>
 4    1  0.3032637E-007  0.8416250E+03  0.7818608E-02  0.9627124E-01
         -2   -1    0    0    0  501 -0.00000000000E+00  0.00000000000E+00  0.33577091942E+03  0.33577091943E+03  0.25500000000E-02 0.  1.
          2   -1    0    0  501    0  0.00000000000E+00 -0.00000000000E+00 -0.17503389880E+04  0.17503389880E+04  0.25500000000E-02 0. -1.
    8880023    1    1    2    0    0  0.44073663429E+03 -0.28332595235E+03 -0.12663679842E+04  0.15205329506E+04  0.65864270000E+03 0.  1.
    8880022    1    1    2    0    0 -0.44073663429E+03  0.28332595235E+03 -0.14820008434E+03  0.56557695683E+03  0.15294330000E+03 0.  0.
<mgrwt>
<rscale>  0 0.75526668E+03</rscale>
<asrwt>0</asrwt>
<pdfrwt beam="1">  1        2 0.26928291E+00 0.84162497E+03</pdfrwt>
<pdfrwt beam="2">  1       -2 0.51657066E-01 0.84162497E+03</pdfrwt>
<totfact> 0.33088546E+01</totfact>
</mgrwt>
</event>
<event>
 4    1  0.3032637E-007  0.1020373E+04  0.7818608E-02  0.9355376E-01
          2   -1    0    0  501    0  0.00000000000E+00  0.00000000000E+00  0.18241129323E+04  0.18241129323E+04  0.25500000000E-02 0. -1.
         -2   -1    0    0    0  501 -0.00000000000E+00 -0.00000000000E+00 -0.74247263325E+03  0.74247263325E+03  0.25500000000E-02 0.  1.
    8880023    1    1    2    0    0 -0.34782282698E+02  0.77855063253E+03 -0.21808793745E+03  0.10434191149E+04  0.65864270000E+03 0.  1.
    8880022    1    1    2    0    0  0.34782282698E+02 -0.77855063253E+03  0.12997282365E+04  0.15231664506E+04  0.15294330000E+03 0.  0.
<mgrwt>
<rscale>  0 0.95840869E+03</rscale>
<asrwt>0</asrwt>
<pdfrwt beam="1">  1        2 0.28063276E+00 0.10203730E+04</pdfrwt>
<pdfrwt beam="2">  1       -2 0.11422656E+00 0.10203730E+04</pdfrwt>
<totfact> 0.49900399E+00</totfact>
</mgrwt>
</event>
<event>
 4    1  0.3032637E-007  0.6733876E+03  0.7818608E-02  0.1013342E+00
         -2   -1    0    0    0  501 -0.00000000000E+00  0.00000000000E+00  0.15175964703E+03  0.15175964705E+03  0.25500000000E-02 0.  1.
          2   -1    0    0  501    0  0.00000000000E+00 -0.00000000000E+00 -0.17686070394E+04  0.17686070394E+04  0.25500000000E-02 0. -1.
    8880023    1    1    2    0    0 -0.13962818586E+03  0.12025190159E+02 -0.66581930654E+03  0.94697739715E+03  0.65864270000E+03 0.  1.
    8880022    1    1    2    0    0  0.13962818586E+03 -0.12025190159E+02 -0.95102808588E+03  0.97338928935E+03  0.15294330000E+03 0. -1.
<mgrwt>
<rscale>  0 0.50167578E+03</rscale>
<asrwt>0</asrwt>
<pdfrwt beam="1">  1        2 0.27209338E+00 0.67338759E+03</pdfrwt>
<pdfrwt beam="2">  1       -2 0.23347639E-01 0.67338759E+03</pdfrwt>
<totfact> 0.14967276E+02</totfact>
</mgrwt>
</event>
<event>
 4    1  0.3032637E-007  0.8669001E+03  0.7818608E-02  0.9581405E-01
          2   -1    0    0  501    0  0.00000000000E+00  0.00000000000E+00  0.14066605207E+04  0.14066605207E+04  0.25500000000E-02 0. -1.
         -2   -1    0    0    0  501 -0.00000000000E+00 -0.00000000000E+00 -0.63418317154E+03  0.63418317154E+03  0.25500000000E-02 0.  1.
    8880023    1    1    2    0    0  0.35962470553E+03 -0.43402264819E+03 -0.21538024681E+03  0.89325497197E+03  0.65864270000E+03 0.  1.
    8880022    1    1    2    0    0 -0.35962470553E+03  0.43402264819E+03  0.98785759596E+03  0.11475887203E+04  0.15294330000E+03 0.  0.
<mgrwt>
<rscale>  0 0.78539217E+03</rscale>
<asrwt>0</asrwt>
<pdfrwt beam="1">  1        2 0.21640931E+00 0.86690011E+03</pdfrwt>
<pdfrwt beam="2">  1       -2 0.97566643E-01 0.86690011E+03</pdfrwt>
<totfact> 0.12667239E+01</totfact>
</mgrwt>
</event>
<event>
 4    1  0.3032637E-007  0.1344851E+04  0.7818608E-02  0.9027765E-01
         -2   -1    0    0    0  501 -0.00000000000E+00  0.00000000000E+00  0.46043169069E+03  0.46043169070E+03  0.25500000000E-02 0.  1.
          2   -1    0    0  501    0  0.00000000000E+00 -0.00000000000E+00 -0.37133134551E+04  0.37133134551E+04  0.25500000000E-02 0. -1.
    8880023    1    1    2    0    0 -0.11716363554E+04  0.45632208916E+02 -0.11888050611E+04  0.17949600908E+04  0.65864270000E+03 0.  0.
    8880022    1    1    2    0    0  0.11716363554E+04 -0.45632208916E+02 -0.20640767032E+04  0.23787850550E+04  0.15294330000E+03 0.  0.
<mgrwt>
<rscale>  0 0.13022729E+04</rscale>
<asrwt>0</asrwt>
<pdfrwt beam="1">  1        2 0.57127897E+00 0.13448510E+04</pdfrwt>
<pdfrwt beam="2">  1       -2 0.70835647E-01 0.13448510E+04</pdfrwt>
<totfact> 0.10234061E+00</totfact>
</mgrwt>
</event>
<event>
 4    1  0.3032637E-007  0.1342396E+04  0.7818608E-02  0.9029787E-01
         -2   -1    0    0    0  501 -0.00000000000E+00  0.00000000000E+00  0.11617079538E+04  0.11617079538E+04  0.25500000000E-02 0.  1.
          2   -1    0    0  501    0  0.00000000000E+00 -0.00000000000E+00 -0.19418283848E+04  0.19418283848E+04  0.25500000000E-02 0. -1.
    8880023    1    1    2    0    0  0.10419750831E+04 -0.53151088486E+03  0.43389329650E+03  0.14107762025E+04  0.65864270000E+03 0.  0.
    8880022    1    1    2    0    0 -0.10419750831E+04  0.53151088486E+03 -0.12140137275E+04  0.16927601361E+04  0.15294330000E+03 0.  0.
<mgrwt>
<rscale>  0 0.12997206E+04</rscale>
<asrwt>0</asrwt>
<pdfrwt beam="1">  1        2 0.29874283E+00 0.13423957E+04</pdfrwt>
<pdfrwt beam="2">  1       -2 0.17872430E+00 0.13423957E+04</pdfrwt>
<totfact> 0.12736278E+00</totfact>
</mgrwt>
</event>
<event>
 4    1  0.3032637E-007  0.7594563E+03  0.7818608E-02  0.9806517E-01
         -2   -1    0    0    0  501 -0.00000000000E+00  0.00000000000E+00  0.47469614652E+03  0.47469614653E+03  0.25500000000E-02 0.  1.
          2   -1    0    0  501    0  0.00000000000E+00 -0.00000000000E+00 -0.10594754381E+04  0.10594754381E+04  0.25500000000E-02 0. -1.
    8880023    1    1    2    0    0 -0.11671022205E+03 -0.35964202610E+03  0.70079252353E+02  0.76268274580E+03  0.65864270000E+03 0.  1.
    8880022    1    1    2    0    0  0.11671022205E+03  0.35964202610E+03 -0.65485854392E+03  0.77148883882E+03  0.15294330000E+03 0.  0.
<mgrwt>
<rscale>  0 0.65013969E+03</rscale>
<asrwt>0</asrwt>
<pdfrwt beam="1">  1        2 0.16299622E+00 0.75945630E+03</pdfrwt>
<pdfrwt beam="2">  1       -2 0.73030177E-01 0.75945630E+03</pdfrwt>
<totfact> 0.39716472E+01</totfact>
</mgrwt>
</event>
<event>
 4    1  0.3032637E-007  0.9482673E+03  0.7818608E-02  0.9452611E-01
         -2   -1    0    0    0  501 -0.00000000000E+00  0.00000000000E+00  0.10441854567E+04  0.10441854567E+04  0.25500000000E-02 0.  1.
          2   -1    0    0  501    0  0.00000000000E+00 -0.00000000000E+00 -0.76408743419E+03  0.76408743419E+03  0.25500000000E-02 0. -1.
    8880023    1    1    2    0    0 -0.58425306452E+03  0.35220584813E+03  0.50435400481E+03  0.10740501717E+04  0.65864270000E+03 0.  0.
    8880022    1    1    2    0    0  0.58425306452E+03 -0.35220584813E+03 -0.22425598226E+03  0.73422271924E+03  0.15294330000E+03 0.  0.
<mgrwt>
<rscale>  0 0.87869592E+03</rscale>
<asrwt>0</asrwt>
<pdfrwt beam="1">  1        2 0.11755191E+00 0.94826727E+03</pdfrwt>
<pdfrwt beam="2">  1       -2 0.16064391E+00 0.94826727E+03</pdfrwt>
<totfact> 0.90873920E+00</totfact>
</mgrwt>
</event>
<event>
 4    1  0.3032637E-007  0.8269692E+03  0.7818608E-02  0.9655258E-01
         -2   -1    0    0    0  501 -0.00000000000E+00  0.00000000000E+00  0.20941616103E+03  0.20941616105E+03  0.25500000000E-02 0.  1.
          2   -1    0    0  501    0  0.00000000000E+00 -0.00000000000E+00 -0.32681897983E+04  0.32681897983E+04  0.25500000000E-02 0. -1.
    8880023    1    1    2    0    0  0.26039394938E+03 -0.42692248247E+03 -0.77031731165E+03  0.11301622812E+04  0.65864270000E+03 0.  1.
    8880022    1    1    2    0    0 -0.26039394938E+03  0.42692248247E+03 -0.22884563256E+04  0.23474436781E+04  0.15294330000E+03 0.  0.
<mgrwt>
<rscale>  0 0.73744326E+03</rscale>
<asrwt>0</asrwt>
<pdfrwt beam="1">  1        2 0.50279839E+00 0.82696918E+03</pdfrwt>
<pdfrwt beam="2">  1       -2 0.32217873E-01 0.82696918E+03</pdfrwt>
<totfact> 0.11081865E+01</totfact>
</mgrwt>
</event>
<event>
 4    1  0.3032637E-007  0.6750211E+03  0.7818608E-02  0.1012293E+00
         -2   -1    0    0    0  501 -0.00000000000E+00  0.00000000000E+00  0.67965647463E+03  0.67965647463E+03  0.25500000000E-02 0.  1.
          2   -1    0    0  501    0  0.00000000000E+00 -0.00000000000E+00 -0.56199025536E+03  0.56199025536E+03  0.25500000000E-02 0. -1.
    8880023    1    1    2    0    0  0.61542853871E+02  0.13437188641E+03  0.47528664888E+03  0.82556097993E+03  0.65864270000E+03 0.  1.
    8880022    1    1    2    0    0 -0.61542853871E+02 -0.13437188641E+03 -0.35762042961E+03  0.41608575007E+03  0.15294330000E+03 0.  0.
<mgrwt>
<rscale>  0 0.50573421E+03</rscale>
<asrwt>0</asrwt>
<pdfrwt beam="1">  1        2 0.86460040E-01 0.67502114E+03</pdfrwt>
<pdfrwt beam="2">  1       -2 0.10456253E+00 0.67502114E+03</pdfrwt>
<totfact> 0.40563625E+01</totfact>
</mgrwt>
</event>
<event>
 4    1  0.3032637E-007  0.8810702E+03  0.7818608E-02  0.9557130E-01
          2   -1    0    0  501    0  0.00000000000E+00  0.00000000000E+00  0.17093540165E+04  0.17093540165E+04  0.25500000000E-02 0. -1.
         -2   -1    0    0    0  501 -0.00000000000E+00 -0.00000000000E+00 -0.10823698667E+04  0.10823698667E+04  0.25500000000E-02 0.  1.
    8880023    1    1    2    0    0  0.37007306696E+03 -0.45334350996E+03 -0.83231335531E+03  0.12120355360E+04  0.65864270000E+03 0.  0.
    8880022    1    1    2    0    0 -0.37007306696E+03  0.45334350996E+03  0.14592975051E+04  0.15796883472E+04  0.15294330000E+03 0.  0.
<mgrwt>
<rscale>  0 0.80199772E+03</rscale>
<asrwt>0</asrwt>
<pdfrwt beam="1">  1        2 0.26297754E+00 0.88107016E+03</pdfrwt>
<pdfrwt beam="2">  1       -2 0.16651844E+00 0.88107016E+03</pdfrwt>
<totfact> 0.22109895E+00</totfact>
</mgrwt>
</event>
<event>
 4    1  0.3032637E-007  0.7701619E+03  0.7818608E-02  0.9779476E-01
         -2   -1    0    0    0  501 -0.00000000000E+00  0.00000000000E+00  0.11268147068E+04  0.11268147068E+04  0.25500000000E-02 0.  1.
          2   -1    0    0  501    0  0.00000000000E+00 -0.00000000000E+00 -0.85532163346E+03  0.85532163346E+03  0.25500000000E-02 0. -1.
    8880023    1    1    2    0    0  0.39445354496E+03 -0.61200607233E+02  0.92349682532E+03  0.12024956158E+04  0.65864270000E+03 0.  1.
    8880022    1    1    2    0    0 -0.39445354496E+03  0.61200607233E+02 -0.65200375202E+03  0.77964072439E+03  0.15294330000E+03 0.  0.
<mgrwt>
<rscale>  0 0.66475708E+03</rscale>
<asrwt>0</asrwt>
<pdfrwt beam="1">  1        2 0.13158794E+00 0.77016188E+03</pdfrwt>
<pdfrwt beam="2">  1       -2 0.17335611E+00 0.77016188E+03</pdfrwt>
<totfact> 0.64536612E+00</totfact>
</mgrwt>
</event>
<event>
 4    1  0.3032637E-007  0.7872923E+03  0.7818608E-02  0.9738978E-01
          2   -1    0    0  501    0  0.00000000000E+00  0.00000000000E+00  0.11092192130E+04  0.11092192130E+04  0.25500000000E-02 0. -1.
         -2   -1    0    0    0  501 -0.00000000000E+00 -0.00000000000E+00 -0.34945090363E+03  0.34945090363E+03  0.25500000000E-02 0.  1.
    8880023    1    1    2    0    0  0.17396975024E+03 -0.39465619336E+03  0.46572682364E+03  0.91472983196E+03  0.65864270000E+03 0.  0.
    8880022    1    1    2    0    0 -0.17396975024E+03  0.39465619336E+03  0.29404148574E+03  0.54394028469E+03  0.15294330000E+03 0.  1.
<mgrwt>
<rscale>  0 0.68742742E+03</rscale>
<asrwt>0</asrwt>
<pdfrwt beam="1">  1        2 0.17064911E+00 0.78729232E+03</pdfrwt>
<pdfrwt beam="2">  1       -2 0.53761677E-01 0.78729232E+03</pdfrwt>
<totfact> 0.70970934E+01</totfact>
</mgrwt>
</event>
<event>
 4    1  0.3032637E-007  0.7472224E+03  0.7818608E-02  0.9839387E-01
         -2   -1    0    0    0  501 -0.00000000000E+00  0.00000000000E+00  0.67709439296E+03  0.67709439297E+03  0.25500000000E-02 0.  1.
          2   -1    0    0  501    0  0.00000000000E+00 -0.00000000000E+00 -0.78891558234E+03  0.78891558234E+03  0.25500000000E-02 0. -1.
    8880023    1    1    2    0    0 -0.35212605403E+03  0.23201174365E+02  0.38270689870E+03  0.83952714607E+03  0.65864270000E+03 0.  0.
    8880022    1    1    2    0    0  0.35212605403E+03 -0.23201174365E+02 -0.49452808807E+03  0.62648282924E+03  0.15294330000E+03 0.  0.
<mgrwt>
<rscale>  0 0.63290970E+03</rscale>
<asrwt>0</asrwt>
<pdfrwt beam="1">  1        2 0.12137163E+00 0.74722236E+03</pdfrwt>
<pdfrwt beam="2">  1       -2 0.10416837E+00 0.74722236E+03</pdfrwt>
<totfact> 0.26671908E+01</totfact>
</mgrwt>
</event>
<event>
 4    1  0.3032637E-007  0.6590691E+03  0.7818608E-02  0.1025131E+00
         -2   -1    0    0    0  501 -0.00000000000E+00  0.00000000000E+00  0.22524208840E+03  0.22524208842E+03  0.25500000000E-02 0.  1.
          2   -1    0    0  501    0  0.00000000000E+00 -0.00000000000E+00 -0.15545888943E+04  0.15545888943E+04  0.25500000000E-02 0. -1.
    8880023    1    1    2    0    0  0.14405739641E+02  0.18823359667E+02 -0.27492630351E+03  0.71411240210E+03  0.65864270000E+03 0.  1.
    8880022    1    1    2    0    0 -0.14405739641E+02 -0.18823359667E+02 -0.10544205024E+04  0.10657185806E+04  0.15294330000E+03 0.  0.
<mgrwt>
<rscale>  0 0.45879568E+03</rscale>
<asrwt>0</asrwt>
<pdfrwt beam="1">  1        2 0.23916751E+00 0.65906908E+03</pdfrwt>
<pdfrwt beam="2">  1       -2 0.34652630E-01 0.65906908E+03</pdfrwt>
<totfact> 0.94972043E+01</totfact>
</mgrwt>
</event>
<event>
 4    1  0.3032637E-007  0.7872894E+03  0.7818608E-02  0.9738984E-01
         -2   -1    0    0    0  501 -0.00000000000E+00  0.00000000000E+00  0.96406274694E+03  0.96406274695E+03  0.25500000000E-02 0.  1.
          2   -1    0    0  501    0  0.00000000000E+00 -0.00000000000E+00 -0.60026886968E+03  0.60026886968E+03  0.25500000000E-02 0. -1.
    8880023    1    1    2    0    0 -0.43108623454E+03 -0.13383202710E+02  0.65311808021E+03  0.10229310264E+04  0.65864270000E+03 0.  1.
    8880022    1    1    2    0    0  0.43108623454E+03  0.13383202710E+02 -0.28932420295E+03  0.54140059027E+03  0.15294330000E+03 0.  0.
<mgrwt>
<rscale>  0 0.68742368E+03</rscale>
<asrwt>0</asrwt>
<pdfrwt beam="1">  1        2 0.92349058E-01 0.78728944E+03</pdfrwt>
<pdfrwt beam="2">  1       -2 0.14831734E+00 0.78728944E+03</pdfrwt>
<totfact> 0.15467371E+01</totfact>
</mgrwt>
</event>
<event>
 4    1  0.3032637E-007  0.6771647E+03  0.7818608E-02  0.1010975E+00
          2   -1    0    0  501    0  0.00000000000E+00  0.00000000000E+00  0.56027121510E+03  0.56027121511E+03  0.25500000000E-02 0. -1.
         -2   -1    0    0    0  501 -0.00000000000E+00 -0.00000000000E+00 -0.73495852145E+03  0.73495852145E+03  0.25500000000E-02 0.  1.
    8880023    1    1    2    0    0  0.18116122499E+01  0.15728495920E+03 -0.54201503310E+03  0.86737093720E+03  0.65864270000E+03 0.  1.
    8880022    1    1    2    0    0 -0.18116122499E+01 -0.15728495920E+03  0.36732772676E+03  0.42785879936E+03  0.15294330000E+03 0.  0.
<mgrwt>
<rscale>  0 0.51088913E+03</rscale>
<asrwt>0</asrwt>
<pdfrwt beam="1">  1        2 0.86195572E-01 0.67716471E+03</pdfrwt>
<pdfrwt beam="2">  1       -2 0.11307054E+00 0.67716471E+03</pdfrwt>
<totfact> 0.33704035E+01</totfact>
</mgrwt>
</event>
<event>
 4    1  0.3032637E-007  0.6586922E+03  0.7818608E-02  0.1025538E+00
         -2   -1    0    0    0  501 -0.00000000000E+00  0.00000000000E+00  0.33988262552E+03  0.33988262553E+03  0.25500000000E-02 0.  1.
          2   -1    0    0  501    0  0.00000000000E+00 -0.00000000000E+00 -0.76452585690E+03  0.76452585690E+03  0.25500000000E-02 0. -1.
    8880023    1    1    2    0    0  0.46610223465E+01  0.65981402850E+01 -0.60970545765E+01  0.65872045734E+03  0.65864270000E+03 0.  1.
    8880022    1    1    2    0    0 -0.46610223465E+01 -0.65981402850E+01 -0.41854617679E+03  0.44568802509E+03  0.15294330000E+03 0.  0.
<mgrwt>
<rscale>  0 0.45739959E+03</rscale>
<asrwt>0</asrwt>
<pdfrwt beam="1">  1        2 0.11761936E+00 0.65869224E+03</pdfrwt>
<pdfrwt beam="2">  1       -2 0.52289635E-01 0.65869224E+03</pdfrwt>
<totfact> 0.12843197E+02</totfact>
</mgrwt>
</event>
<event>
 4    1  0.3032637E-007  0.1958410E+04  0.7818608E-02  0.8639627E-01
         -2   -1    0    0    0  501 -0.00000000000E+00  0.00000000000E+00  0.10436075754E+04  0.10436075754E+04  0.25500000000E-02 0.  1.
          2   -1    0    0  501    0  0.00000000000E+00 -0.00000000000E+00 -0.39247202374E+04  0.39247202374E+04  0.25500000000E-02 0. -1.
    8880023    1    1    2    0    0  0.15551086378E+04 -0.99156272099E+03 -0.63668260338E+03  0.20593043604E+04  0.65864270000E+03 0.  0.
    8880022    1    1    2    0    0 -0.15551086378E+04  0.99156272099E+03 -0.22444300586E+04  0.29090234523E+04  0.15294330000E+03 0.  0.
<mgrwt>
<rscale>  0 0.19308988E+04</rscale>
<asrwt>0</asrwt>
<pdfrwt beam="1">  1        2 0.60380311E+00 0.19584100E+04</pdfrwt>
<pdfrwt beam="2">  1       -2 0.16055501E+00 0.19584100E+04</pdfrwt>
<totfact> 0.88907988E-02</totfact>
</mgrwt>
</event>
<event>
 4    1  0.3032637E-007  0.8413490E+03  0.7818608E-02  0.9627642E-01
         -2   -1    0    0    0  501 -0.00000000000E+00  0.00000000000E+00  0.18595771536E+04  0.18595771536E+04  0.25500000000E-02 0.  1.
          2   -1    0    0  501    0  0.00000000000E+00 -0.00000000000E+00 -0.28081442739E+03  0.28081442740E+03  0.25500000000E-02 0. -1.
    8880023    1    1    2    0    0 -0.15495160447E+03 -0.50004798962E+03  0.64941189450E+03  0.10628283053E+04  0.65864270000E+03 0. -1.
    8880022    1    1    2    0    0  0.15495160447E+03  0.50004798962E+03  0.92935083172E+03  0.10775632757E+04  0.15294330000E+03 0.  0.
<mgrwt>
<rscale>  0 0.75493373E+03</rscale>
<asrwt>0</asrwt>
<pdfrwt beam="1">  1        2 0.43202220E-01 0.84134903E+03</pdfrwt>
<pdfrwt beam="2">  1       -2 0.28608879E+00 0.84134903E+03</pdfrwt>
<totfact> 0.46808239E+00</totfact>
</mgrwt>
</event>
<event>
 4    1  0.3032637E-007  0.1137034E+04  0.7818608E-02  0.9220902E-01
         -2   -1    0    0    0  501 -0.00000000000E+00  0.00000000000E+00  0.38395911899E+03  0.38395911899E+03  0.25500000000E-02 0.  1.
          2   -1    0    0  501    0  0.00000000000E+00 -0.00000000000E+00 -0.34042167226E+04  0.34042167226E+04  0.25500000000E-02 0. -1.
    8880023    1    1    2    0    0 -0.47824271280E+03  0.79392675428E+03 -0.83847161608E+03  0.14127563982E+04  0.65864270000E+03 0.  0.
    8880022    1    1    2    0    0  0.47824271280E+03 -0.79392675428E+03 -0.21817859875E+04  0.23754194433E+04  0.15294330000E+03 0.  0.
<mgrwt>
<rscale>  0 0.10840266E+04</rscale>
<asrwt>0</asrwt>
<pdfrwt beam="1">  1        2 0.52372563E+00 0.11370339E+04</pdfrwt>
<pdfrwt beam="2">  1       -2 0.59070636E-01 0.11370339E+04</pdfrwt>
<totfact> 0.25684262E+00</totfact>
</mgrwt>
</event>
<event>
 4    1  0.3032637E-007  0.1075248E+04  0.7818608E-02  0.9289128E-01
         -2   -1    0    0    0  501 -0.00000000000E+00  0.00000000000E+00  0.20423126591E+04  0.20423126591E+04  0.25500000000E-02 0.  1.
          2   -1    0    0  501    0  0.00000000000E+00 -0.00000000000E+00 -0.68722248503E+03  0.68722248504E+03  0.25500000000E-02 0. -1.
    8880023    1    1    2    0    0  0.25188902808E+03 -0.81172681151E+03  0.15084584436E+04  0.18524593332E+04  0.65864270000E+03 0.  1.
    8880022    1    1    2    0    0 -0.25188902808E+03  0.81172681151E+03 -0.15336826951E+03  0.87707581092E+03  0.15294330000E+03 0.  0.
<mgrwt>
<rscale>  0 0.10178997E+04</rscale>
<asrwt>0</asrwt>
<pdfrwt beam="1">  1        2 0.10572654E+00 0.10752482E+04</pdfrwt>
<pdfrwt beam="2">  1       -2 0.31420194E+00 0.10752482E+04</pdfrwt>
<totfact> 0.10881267E+00</totfact>
</mgrwt>
</event>
<event>
 4    1  0.3032637E-007  0.9863863E+03  0.7818608E-02  0.9399589E-01
          2   -1    0    0  501    0  0.00000000000E+00  0.00000000000E+00  0.13634435437E+04  0.13634435437E+04  0.25500000000E-02 0. -1.
         -2   -1    0    0    0  501 -0.00000000000E+00 -0.00000000000E+00 -0.13591961027E+04  0.13591961027E+04  0.25500000000E-02 0.  1.
    8880023    1    1    2    0    0  0.73152366475E+03 -0.63410693125E+02 -0.10423265289E+04  0.14350618757E+04  0.65864270000E+03 0.  0.
    8880022    1    1    2    0    0 -0.73152366475E+03  0.63410693125E+02  0.10465739699E+04  0.12875777707E+04  0.15294330000E+03 0.  0.
<mgrwt>
<rscale>  0 0.92109496E+03</rscale>
<asrwt>0</asrwt>
<pdfrwt beam="1">  1        2 0.20976054E+00 0.98638633E+03</pdfrwt>
<pdfrwt beam="2">  1       -2 0.20910709E+00 0.98638633E+03</pdfrwt>
<totfact> 0.17538781E+00</totfact>
</mgrwt>
</event>
<event>
 4    1  0.3032637E-007  0.1039139E+04  0.7818608E-02  0.9332054E-01
          2   -1    0    0  501    0  0.00000000000E+00  0.00000000000E+00  0.96277864529E+03  0.96277864529E+03  0.25500000000E-02 0. -1.
         -2   -1    0    0    0  501 -0.00000000000E+00 -0.00000000000E+00 -0.93719960317E+03  0.93719960317E+03  0.25500000000E-02 0.  1.
    8880023    1    1    2    0    0 -0.43910942275E+03 -0.67318779990E+03  0.21271427986E+03  0.10606867918E+04  0.65864270000E+03 0.  0.
    8880022    1    1    2    0    0  0.43910942275E+03  0.67318779990E+03 -0.18713523774E+03  0.83929145671E+03  0.15294330000E+03 0.  0.
<mgrwt>
<rscale>  0 0.97884757E+03</rscale>
<asrwt>0</asrwt>
<pdfrwt beam="1">  1        2 0.14811979E+00 0.10391386E+04</pdfrwt>
<pdfrwt beam="2">  1       -2 0.14418456E+00 0.10391386E+04</pdfrwt>
<totfact> 0.87506581E+00</totfact>
</mgrwt>
</event>
<event>
 4    1  0.3032637E-007  0.6999302E+03  0.7818608E-02  0.9997491E-01
         -2   -1    0    0    0  501 -0.00000000000E+00  0.00000000000E+00  0.27939374395E+03  0.27939374397E+03  0.25500000000E-02 0.  1.
          2   -1    0    0  501    0  0.00000000000E+00 -0.00000000000E+00 -0.91970679834E+03  0.91970679834E+03  0.25500000000E-02 0. -1.
    8880023    1    1    2    0    0 -0.16916665246E+03 -0.16575509923E+03 -0.31191525995E+03  0.76628548523E+03  0.65864270000E+03 0.  1.
    8880022    1    1    2    0    0  0.16916665246E+03  0.16575509923E+03 -0.32839779444E+03  0.43281505708E+03  0.15294330000E+03 0. -1.
<mgrwt>
<rscale>  0 0.55760398E+03</rscale>
<asrwt>0</asrwt>
<pdfrwt beam="1">  1        2 0.14149335E+00 0.69993022E+03</pdfrwt>
<pdfrwt beam="2">  1       -2 0.42983653E-01 0.69993022E+03</pdfrwt>
<totfact> 0.14807208E+02</totfact>
</mgrwt>
</event>
<event>
 4    1  0.3032637E-007  0.9755861E+03  0.7818608E-02  0.9414219E-01
          2   -1    0    0  501    0  0.00000000000E+00  0.00000000000E+00  0.14726731056E+04  0.14726731056E+04  0.25500000000E-02 0. -1.
         -2   -1    0    0    0  501 -0.00000000000E+00 -0.00000000000E+00 -0.15344127674E+04  0.15344127674E+04  0.25500000000E-02 0.  1.
    8880023    1    1    2    0    0 -0.44923431969E+03  0.56226918982E+03 -0.12645167777E+04  0.15971133345E+04  0.65864270000E+03 0.  0.
    8880022    1    1    2    0    0  0.44923431969E+03 -0.56226918982E+03  0.12027771159E+04  0.14099725385E+04  0.15294330000E+03 0. -1.
<mgrwt>
<rscale>  0 0.90914669E+03</rscale>
<asrwt>0</asrwt>
<pdfrwt beam="1">  1        2 0.22656509E+00 0.97558614E+03</pdfrwt>
<pdfrwt beam="2">  1       -2 0.23606350E+00 0.97558614E+03</pdfrwt>
<totfact> 0.10308226E+00</totfact>
</mgrwt>
</event>
<event>
 4    1  0.3032637E-007  0.1327105E+04  0.7818608E-02  0.9042499E-01
          2   -1    0    0  501    0  0.00000000000E+00  0.00000000000E+00  0.39219068401E+04  0.39219068401E+04  0.25500000000E-02 0. -1.
         -2   -1    0    0    0  501 -0.00000000000E+00 -0.00000000000E+00 -0.58162704173E+03  0.58162704174E+03  0.25500000000E-02 0.  1.
    8880023    1    1    2    0    0  0.49220612370E+03 -0.10416963601E+04  0.47168553995E+03  0.14084373006E+04  0.65864270000E+03 0.  1.
    8880022    1    1    2    0    0 -0.49220612370E+03  0.10416963601E+04  0.28685942584E+04  0.30950965813E+04  0.15294330000E+03 0.  0.
<mgrwt>
<rscale>  0 0.12838152E+04</rscale>
<asrwt>0</asrwt>
<pdfrwt beam="1">  1        2 0.60337029E+00 0.13271053E+04</pdfrwt>
<pdfrwt beam="2">  1       -2 0.89481082E-01 0.13271053E+04</pdfrwt>
<totfact> 0.42042729E-01</totfact>
</mgrwt>
</event>
<event>
 4    1  0.3032637E-007  0.7147221E+03  0.7818608E-02  0.9940867E-01
          2   -1    0    0  501    0  0.00000000000E+00  0.00000000000E+00  0.97977826531E+03  0.97977826532E+03  0.25500000000E-02 0. -1.
         -2   -1    0    0    0  501 -0.00000000000E+00 -0.00000000000E+00 -0.45411184313E+03  0.45411184314E+03  0.25500000000E-02 0.  1.
    8880023    1    1    2    0    0  0.27752012829E+03 -0.92678943610E-01 -0.11046261930E+03  0.72320787241E+03  0.65864270000E+03 0.  1.
    8880022    1    1    2    0    0 -0.27752012829E+03  0.92678943610E-01  0.63612904148E+03  0.71068223604E+03  0.15294330000E+03 0.  0.
<mgrwt>
<rscale>  0 0.58320941E+03</rscale>
<asrwt>0</asrwt>
<pdfrwt beam="1">  1        2 0.15073512E+00 0.71472207E+03</pdfrwt>
<pdfrwt beam="2">  1       -2 0.69863361E-01 0.71472207E+03</pdfrwt>
<totfact> 0.49356016E+01</totfact>
</mgrwt>
</event>
<event>
 4    1  0.3032637E-007  0.1024239E+04  0.7818608E-02  0.9350511E-01
         -2   -1    0    0    0  501 -0.00000000000E+00  0.00000000000E+00  0.40886122958E+03  0.40886122958E+03  0.25500000000E-02 0.  1.
          2   -1    0    0  501    0  0.00000000000E+00 -0.00000000000E+00 -0.42251269404E+04  0.42251269404E+04  0.25500000000E-02 0. -1.
    8880023    1    1    2    0    0  0.34183368983E+03 -0.70597828925E+03 -0.35864472637E+03  0.10852151226E+04  0.65864270000E+03 0.  0.
    8880022    1    1    2    0    0 -0.34183368983E+03  0.70597828925E+03 -0.34576209844E+04  0.35487730473E+04  0.15294330000E+03 0.  0.
<mgrwt>
<rscale>  0 0.96262838E+03</rscale>
<asrwt>0</asrwt>
<pdfrwt beam="1">  1        2 0.65001950E+00 0.10242391E+04</pdfrwt>
<pdfrwt beam="2">  1       -2 0.62901731E-01 0.10242391E+04</pdfrwt>
<totfact> 0.54806953E-01</totfact>
</mgrwt>
</event>
<event>
 4    1  0.3032637E-007  0.7777176E+03  0.7818608E-02  0.9761226E-01
          2   -1    0    0  501    0  0.00000000000E+00  0.00000000000E+00  0.22441025843E+03  0.22441025844E+03  0.25500000000E-02 0. -1.
         -2   -1    0    0    0  501 -0.00000000000E+00 -0.00000000000E+00 -0.17834997467E+04  0.17834997467E+04  0.25500000000E-02 0.  1.
    8880023    1    1    2    0    0 -0.14769723572E+03  0.38629009914E+03 -0.12396835654E+04  0.14634411716E+04  0.65864270000E+03 0.  1.
    8880022    1    1    2    0    0  0.14769723572E+03 -0.38629009914E+03 -0.31940592287E+03  0.54446883356E+03  0.15294330000E+03 0.  0.
<mgrwt>
<rscale>  0 0.67485551E+03</rscale>
<asrwt>0</asrwt>
<pdfrwt beam="1">  1        2 0.34524656E-01 0.77771764E+03</pdfrwt>
<pdfrwt beam="2">  1       -2 0.27438457E+00 0.77771764E+03</pdfrwt>
<totfact> 0.71224429E+00</totfact>
</mgrwt>
</event>
<event>
 4    1  0.3032637E-007  0.9704478E+03  0.7818608E-02  0.9421285E-01
          2   -1    0    0  501    0  0.00000000000E+00  0.00000000000E+00  0.17600816671E+04  0.17600816671E+04  0.25500000000E-02 0. -1.
         -2   -1    0    0    0  501 -0.00000000000E+00 -0.00000000000E+00 -0.85768208928E+03  0.85768208929E+03  0.25500000000E-02 0.  1.
    8880023    1    1    2    0    0  0.65177718259E+03 -0.28834909281E+03 -0.45898091750E+03  0.10735140353E+04  0.65864270000E+03 0.  0.
    8880022    1    1    2    0    0 -0.65177718259E+03  0.28834909281E+03  0.13613804953E+04  0.15442497211E+04  0.15294330000E+03 0.  0.
<mgrwt>
<rscale>  0 0.90344507E+03</rscale>
<asrwt>0</asrwt>
<pdfrwt beam="1">  1        2 0.27078179E+00 0.97044778E+03</pdfrwt>
<pdfrwt beam="2">  1       -2 0.13195109E+00 0.97044778E+03</pdfrwt>
<totfact> 0.37943370E+00</totfact>
</mgrwt>
</event>
<event>
 4    1  0.3032637E-007  0.8144166E+03  0.7818608E-02  0.9680450E-01
          2   -1    0    0  501    0  0.00000000000E+00  0.00000000000E+00  0.11102479861E+04  0.11102479861E+04  0.25500000000E-02 0. -1.
         -2   -1    0    0    0  501 -0.00000000000E+00 -0.00000000000E+00 -0.40289755879E+03  0.40289755880E+03  0.25500000000E-02 0.  1.
    8880023    1    1    2    0    0 -0.43828127317E+03  0.19332271164E+03  0.30688676078E+03  0.87031823804E+03  0.65864270000E+03 0.  1.
    8880022    1    1    2    0    0  0.43828127317E+03 -0.19332271164E+03  0.40046366657E+03  0.64282730691E+03  0.15294330000E+03 0. -1.
<mgrwt>
<rscale>  0 0.72192830E+03</rscale>
<asrwt>0</asrwt>
<pdfrwt beam="1">  1        2 0.17080738E+00 0.81441657E+03</pdfrwt>
<pdfrwt beam="2">  1       -2 0.61984240E-01 0.81441657E+03</pdfrwt>
<totfact> 0.52461893E+01</totfact>
</mgrwt>
</event>
<event>
 4    1  0.3032637E-007  0.7895025E+03  0.7818608E-02  0.9733971E-01
         -2   -1    0    0    0  501 -0.00000000000E+00  0.00000000000E+00  0.26741559236E+03  0.26741559237E+03  0.25500000000E-02 0.  1.
          2   -1    0    0  501    0  0.00000000000E+00 -0.00000000000E+00 -0.36542935573E+04  0.36542935573E+04  0.25500000000E-02 0. -1.
    8880023    1    1    2    0    0  0.42174927307E+03  0.10784926494E+03 -0.33686638856E+04  0.34599437125E+04  0.65864270000E+03 0. -1.
    8880022    1    1    2    0    0 -0.42174927307E+03 -0.10784926494E+03 -0.18214079363E+02  0.46176543719E+03  0.15294330000E+03 0.  0.
<mgrwt>
<rscale>  0 0.69029693E+03</rscale>
<asrwt>0</asrwt>
<pdfrwt beam="1">  1        2 0.56219897E+00 0.78950245E+03</pdfrwt>
<pdfrwt beam="2">  1       -2 0.41140863E-01 0.78950245E+03</pdfrwt>
<totfact> 0.38193720E+00</totfact>
</mgrwt>
</event>
<event>
 4    1  0.3032637E-007  0.7817251E+03  0.7818608E-02  0.9751800E-01
          2   -1    0    0  501    0  0.00000000000E+00  0.00000000000E+00  0.12648664924E+04  0.12648664924E+04  0.25500000000E-02 0. -1.
         -2   -1    0    0    0  501 -0.00000000000E+00 -0.00000000000E+00 -0.10298344905E+04  0.10298344905E+04  0.25500000000E-02 0.  1.
    8880023    1    1    2    0    0  0.17686178785E+03 -0.38210439418E+03 -0.82946636193E+03  0.11397844147E+04  0.65864270000E+03 0.  1.
    8880022    1    1    2    0    0 -0.17686178785E+03  0.38210439418E+03  0.10644983638E+04  0.11549165682E+04  0.15294330000E+03 0.  0.
<mgrwt>
<rscale>  0 0.68014627E+03</rscale>
<asrwt>0</asrwt>
<pdfrwt beam="1">  1        2 0.19459484E+00 0.78172506E+03</pdfrwt>
<pdfrwt beam="2">  1       -2 0.15843608E+00 0.78172506E+03</pdfrwt>
<totfact> 0.45671366E+00</totfact>
</mgrwt>
</event>
<event>
 4    1  0.3032637E-007  0.6964464E+03  0.7818608E-02  0.1001227E+00
          2   -1    0    0  501    0  0.00000000000E+00  0.00000000000E+00  0.22196576570E+04  0.22196576570E+04  0.25500000000E-02 0. -1.
         -2   -1    0    0    0  501 -0.00000000000E+00 -0.00000000000E+00 -0.26108143716E+03  0.26108143718E+03  0.25500000000E-02 0.  1.
    8880023    1    1    2    0    0  0.47616496820E+02 -0.22126918582E+03  0.23406514688E+03  0.73472721646E+03  0.65864270000E+03 0.  1.
    8880022    1    1    2    0    0 -0.47616496820E+02  0.22126918582E+03  0.17245110729E+04  0.17460118777E+04  0.15294330000E+03 0.  0.
<mgrwt>
<rscale>  0 0.55115275E+03</rscale>
<asrwt>0</asrwt>
<pdfrwt beam="1">  1        2 0.34148579E+00 0.69644640E+03</pdfrwt>
<pdfrwt beam="2">  1       -2 0.40166375E-01 0.69644640E+03</pdfrwt>
<totfact> 0.30855028E+01</totfact>
</mgrwt>
</event>
<event>
 4    1  0.3032637E-007  0.1047465E+04  0.7818608E-02  0.9321935E-01
          2   -1    0    0  501    0  0.00000000000E+00  0.00000000000E+00  0.33577604520E+04  0.33577604520E+04  0.25500000000E-02 0. -1.
         -2   -1    0    0    0  501 -0.00000000000E+00 -0.00000000000E+00 -0.67479797986E+03  0.67479797987E+03  0.25500000000E-02 0.  1.
    8880023    1    1    2    0    0 -0.77806434690E+03 -0.24080791464E+03  0.29749059529E+04  0.31539258416E+04  0.65864270000E+03 0.  0.
    8880022    1    1    2    0    0  0.77806434690E+03  0.24080791464E+03 -0.29194348075E+03  0.87863259024E+03  0.15294330000E+03 0.  1.
<mgrwt>
<rscale>  0 0.98788315E+03</rscale>
<asrwt>0</asrwt>
<pdfrwt beam="1">  1        2 0.51657852E+00 0.10474649E+04</pdfrwt>
<pdfrwt beam="2">  1       -2 0.10381508E+00 0.10474649E+04</pdfrwt>
<totfact> 0.78520580E-01</totfact>
</mgrwt>
</event>
<event>
 4    1  0.3032637E-007  0.7505167E+03  0.7818608E-02  0.9830308E-01
         -2   -1    0    0    0  501 -0.00000000000E+00  0.00000000000E+00  0.39338991857E+03  0.39338991858E+03  0.25500000000E-02 0.  1.
          2   -1    0    0  501    0  0.00000000000E+00 -0.00000000000E+00 -0.13227460717E+04  0.13227460717E+04  0.25500000000E-02 0. -1.
    8880023    1    1    2    0    0  0.24053162154E+03  0.26759993089E+03 -0.48112206120E+02  0.75205729477E+03  0.65864270000E+03 0.  0.
    8880022    1    1    2    0    0 -0.24053162154E+03 -0.26759993089E+03 -0.88124394701E+03  0.96407869551E+03  0.15294330000E+03 0.  0.
<mgrwt>
<rscale>  0 0.63761115E+03</rscale>
<asrwt>0</asrwt>
<pdfrwt beam="1">  1        2 0.20349939E+00 0.75051675E+03</pdfrwt>
<pdfrwt beam="2">  1       -2 0.60521527E-01 0.75051675E+03</pdfrwt>
<totfact> 0.41578358E+01</totfact>
</mgrwt>
</event>
<event>
 4    1  0.3032637E-007  0.7738142E+03  0.7818608E-02  0.9770573E-01
         -2   -1    0    0    0  501 -0.00000000000E+00  0.00000000000E+00  0.20375828838E+03  0.20375828839E+03  0.25500000000E-02 0.  1.
          2   -1    0    0  501    0  0.00000000000E+00 -0.00000000000E+00 -0.20402721051E+04  0.20402721051E+04  0.25500000000E-02 0. -1.
    8880023    1    1    2    0    0  0.30079094168E+03 -0.27295244196E+03 -0.76575777484E+03  0.10886566962E+04  0.65864270000E+03 0.  0.
    8880022    1    1    2    0    0 -0.30079094168E+03  0.27295244196E+03 -0.10707560418E+04  0.11553736973E+04  0.15294330000E+03 0.  0.
<mgrwt>
<rscale>  0 0.66965938E+03</rscale>
<asrwt>0</asrwt>
<pdfrwt beam="1">  1        2 0.31388800E+00 0.77381421E+03</pdfrwt>
<pdfrwt beam="2">  1       -2 0.31347430E-01 0.77381421E+03</pdfrwt>
<totfact> 0.61505367E+01</totfact>
</mgrwt>
</event>
<event>
 4    1  0.3032637E-007  0.1028389E+04  0.7818608E-02  0.9345323E-01
         -2   -1    0    0    0  501 -0.00000000000E+00  0.00000000000E+00  0.22936603577E+03  0.22936603579E+03  0.25500000000E-02 0.  1.
          2   -1    0    0  501    0  0.00000000000E+00 -0.00000000000E+00 -0.43944546338E+04  0.43944546338E+04  0.25500000000E-02 0. -1.
    8880023    1    1    2    0    0  0.67350918669E+03 -0.41250428141E+03 -0.13562900426E+04  0.17020890965E+04  0.65864270000E+03 0.  0.
    8880022    1    1    2    0    0 -0.67350918669E+03  0.41250428141E+03 -0.28087985555E+04  0.29217315731E+04  0.15294330000E+03 0.  0.
<mgrwt>
<rscale>  0 0.96715290E+03</rscale>
<asrwt>0</asrwt>
<pdfrwt beam="1">  1        2 0.67606988E+00 0.10283893E+04</pdfrwt>
<pdfrwt beam="2">  1       -2 0.35287086E-01 0.10283893E+04</pdfrwt>
<totfact> 0.12479586E+00</totfact>
</mgrwt>
</event>
<event>
 4    1  0.3032637E-007  0.6850426E+03  0.7818608E-02  0.1006604E+00
          2   -1    0    0  501    0  0.00000000000E+00  0.00000000000E+00  0.11928473623E+04  0.11928473623E+04  0.25500000000E-02 0. -1.
         -2   -1    0    0    0  501 -0.00000000000E+00 -0.00000000000E+00 -0.48473834415E+03  0.48473834416E+03  0.25500000000E-02 0.  1.
    8880023    1    1    2    0    0  0.16789415531E+03  0.85350532660E+02 -0.21904631321E+03  0.71921113340E+03  0.65864270000E+03 0.  1.
    8880022    1    1    2    0    0 -0.16789415531E+03 -0.85350532660E+02  0.92715533138E+03  0.95837457308E+03  0.15294330000E+03 0.  0.
<mgrwt>
<rscale>  0 0.52846978E+03</rscale>
<asrwt>0</asrwt>
<pdfrwt beam="1">  1        2 0.18351497E+00 0.68504260E+03</pdfrwt>
<pdfrwt beam="2">  1       -2 0.74575131E-01 0.68504260E+03</pdfrwt>
<totfact> 0.31725781E+01</totfact>
</mgrwt>
</event>
<event>
 4    1  0.3032637E-007  0.8167630E+03  0.7818608E-02  0.9675658E-01
         -2   -1    0    0    0  501 -0.00000000000E+00  0.00000000000E+00  0.18739244769E+03  0.18739244771E+03  0.25500000000E-02 0.  1.
          2   -1    0    0  501    0  0.00000000000E+00 -0.00000000000E+00 -0.27507996137E+04  0.27507996137E+04  0.25500000000E-02 0. -1.
    8880023    1    1    2    0    0 -0.23040558433E+03 -0.42450537194E+03 -0.98016411662E+03  0.12758618444E+04  0.65864270000E+03 0.  1.
    8880022    1    1    2    0    0  0.23040558433E+03  0.42450537194E+03 -0.15832430493E+04  0.16623302170E+04  0.15294330000E+03 0.  0.
<mgrwt>
<rscale>  0 0.72484761E+03</rscale>
<asrwt>0</asrwt>
<pdfrwt beam="1">  1        2 0.42319991E+00 0.81676297E+03</pdfrwt>
<pdfrwt beam="2">  1       -2 0.28829609E-01 0.81676297E+03</pdfrwt>
<totfact> 0.28427888E+01</totfact>
</mgrwt>
</event>
<event>
 4    1  0.3032637E-007  0.1014977E+04  0.7818608E-02  0.9362220E-01
          2   -1    0    0  501    0  0.00000000000E+00  0.00000000000E+00  0.19989398659E+04  0.19989398659E+04  0.25500000000E-02 0. -1.
         -2   -1    0    0    0  501 -0.00000000000E+00 -0.00000000000E+00 -0.73547574324E+03  0.73547574324E+03  0.25500000000E-02 0.  1.
    8880023    1    1    2    0    0  0.18893383020E+03 -0.74878066178E+03 -0.23492050008E+03  0.10418091568E+04  0.65864270000E+03 0.  1.
    8880022    1    1    2    0    0 -0.18893383020E+03  0.74878066178E+03  0.14983846227E+04  0.16926064523E+04  0.15294330000E+03 0.  0.
<mgrwt>
<rscale>  0 0.95251136E+03</rscale>
<asrwt>0</asrwt>
<pdfrwt beam="1">  1        2 0.30752920E+00 0.10149772E+04</pdfrwt>
<pdfrwt beam="2">  1       -2 0.11315012E+00 0.10149772E+04</pdfrwt>
<totfact> 0.40944921E+00</totfact>
</mgrwt>
</event>
<event>
 4    1  0.3032637E-007  0.9346667E+03  0.7818608E-02  0.9472527E-01
         -2   -1    0    0    0  501 -0.00000000000E+00  0.00000000000E+00  0.88712427297E+03  0.88712427298E+03  0.25500000000E-02 0.  1.
          2   -1    0    0  501    0  0.00000000000E+00 -0.00000000000E+00 -0.19630048241E+04  0.19630048241E+04  0.25500000000E-02 0. -1.
    8880023    1    1    2    0    0  0.36789012171E+03  0.55176853867E+03  0.55214741748E+03  0.10855729542E+04  0.65864270000E+03 0.  1.
    8880022    1    1    2    0    0 -0.36789012171E+03 -0.55176853867E+03 -0.16280279686E+04  0.17645561429E+04  0.15294330000E+03 0.  0.
<mgrwt>
<rscale>  0 0.86339931E+03</rscale>
<asrwt>0</asrwt>
<pdfrwt beam="1">  1        2 0.30200074E+00 0.93466672E+03</pdfrwt>
<pdfrwt beam="2">  1       -2 0.13648066E+00 0.93466672E+03</pdfrwt>
<totfact> 0.27051872E+00</totfact>
</mgrwt>
</event>
<event>
 4    1  0.3032637E-007  0.7323147E+03  0.7818608E-02  0.9882927E-01
         -2   -1    0    0    0  501 -0.00000000000E+00  0.00000000000E+00  0.25698746006E+04  0.25698746006E+04  0.25500000000E-02 0.  1.
          2   -1    0    0  501    0  0.00000000000E+00 -0.00000000000E+00 -0.15471378085E+03  0.15471378087E+03  0.25500000000E-02 0. -1.
    8880023    1    1    2    0    0  0.25152169707E+03  0.19801867710E+03  0.21780635356E+04  0.22978784850E+04  0.65864270000E+03 0.  1.
    8880022    1    1    2    0    0 -0.25152169707E+03 -0.19801867710E+03  0.23709728418E+03  0.42670989648E+03  0.15294330000E+03 0.  0.
<mgrwt>
<rscale>  0 0.61095883E+03</rscale>
<asrwt>0</asrwt>
<pdfrwt beam="1">  1        2 0.23802120E-01 0.73231466E+03</pdfrwt>
<pdfrwt beam="2">  1       -2 0.39536533E+00 0.73231466E+03</pdfrwt>
<totfact> 0.19619285E+00</totfact>
</mgrwt>
</event>
<event>
 4    1  0.3032637E-007  0.1093839E+04  0.7818608E-02  0.9267946E-01
         -2   -1    0    0    0  501 -0.00000000000E+00  0.00000000000E+00  0.77182489691E+03  0.77182489691E+03  0.25500000000E-02 0.  1.
          2   -1    0    0  501    0  0.00000000000E+00 -0.00000000000E+00 -0.18620269772E+04  0.18620269772E+04  0.25500000000E-02 0. -1.
    8880023    1    1    2    0    0  0.84613174658E+03 -0.21618329463E+03  0.15551617953E+03  0.11048391909E+04  0.65864270000E+03 0.  0.
    8880022    1    1    2    0    0 -0.84613174658E+03  0.21618329463E+03 -0.12457182598E+04  0.15290126831E+04  0.15294330000E+03 0.  0.
<mgrwt>
<rscale>  0 0.10378808E+04</rscale>
<asrwt>0</asrwt>
<pdfrwt beam="1">  1        2 0.28646569E+00 0.10938393E+04</pdfrwt>
<pdfrwt beam="2">  1       -2 0.11874229E+00 0.10938393E+04</pdfrwt>
<totfact> 0.42870521E+00</totfact>
</mgrwt>
</event>
<event>
 4    1  0.3032637E-007  0.7638749E+03  0.7818608E-02  0.9795177E-01
         -2   -1    0    0    0  501 -0.00000000000E+00  0.00000000000E+00  0.18133121875E+03  0.18133121876E+03  0.25500000000E-02 0.  1.
          2   -1    0    0  501    0  0.00000000000E+00 -0.00000000000E+00 -0.29444955129E+04  0.29444955129E+04  0.25500000000E-02 0. -1.
    8880023    1    1    2    0    0  0.21142760861E+02 -0.38632580362E+03 -0.75141148525E+03  0.10715055153E+04  0.65864270000E+03 0.  0.
    8880022    1    1    2    0    0 -0.21142760861E+02  0.38632580362E+03 -0.20117528089E+04  0.20543212164E+04  0.15294330000E+03 0.  0.
<mgrwt>
<rscale>  0 0.65622007E+03</rscale>
<asrwt>0</asrwt>
<pdfrwt beam="1">  1        2 0.45299927E+00 0.76387489E+03</pdfrwt>
<pdfrwt beam="2">  1       -2 0.27897113E-01 0.76387489E+03</pdfrwt>
<totfact> 0.23326322E+01</totfact>
</mgrwt>
</event>
<event>
 4    1  0.3032637E-007  0.8945685E+03  0.7818608E-02  0.9534808E-01
         -2   -1    0    0    0  501 -0.00000000000E+00  0.00000000000E+00  0.22957135534E+04  0.22957135534E+04  0.25500000000E-02 0.  1.
          2   -1    0    0  501    0  0.00000000000E+00 -0.00000000000E+00 -0.39425433902E+03  0.39425433903E+03  0.25500000000E-02 0. -1.
    8880023    1    1    2    0    0 -0.31645951985E+03 -0.51603877052E+03  0.18603408799E+04  0.20642482981E+04  0.65864270000E+03 0.  1.
    8880022    1    1    2    0    0  0.31645951985E+03  0.51603877052E+03  0.41118334543E+02  0.62571959442E+03  0.15294330000E+03 0.  0.
<mgrwt>
<rscale>  0 0.81765522E+03</rscale>
<asrwt>0</asrwt>
<pdfrwt beam="1">  1        2 0.60654513E-01 0.89456853E+03</pdfrwt>
<pdfrwt beam="2">  1       -2 0.35318670E+00 0.89456853E+03</pdfrwt>
<totfact> 0.12374187E+00</totfact>
</mgrwt>
</event>
<event>
 4    1  0.4834602E-007  0.1183037E+04  0.7818608E-02  0.9173791E-01
          2   -1    0    0  501    0  0.00000000000E+00  0.00000000000E+00  0.20237987658E+04  0.20237987658E+04  0.25500000000E-02 0. -1.
         -2   -1    0    0    0  501 -0.00000000000E+00 -0.00000000000E+00 -0.13791388851E+04  0.13791388851E+04  0.25500000000E-02 0.  1.
    8880023    1    1    2    0    0 -0.14115574555E+03  0.97254344396E+03 -0.95426263109E+03  0.15199319295E+04  0.65864270000E+03 0.  0.
    8880022    1    1    2    0    0  0.14115574555E+03 -0.97254344396E+03  0.15989225118E+04  0.18830057213E+04  0.15294330000E+03 0.  0.
<mgrwt>
<rscale>  0 0.11328094E+04</rscale>
<asrwt>0</asrwt>
<pdfrwt beam="1">  1        2 0.31135365E+00 0.11830367E+04</pdfrwt>
<pdfrwt beam="2">  1       -2 0.21217521E+00 0.11830367E+04</pdfrwt>
<totfact> 0.69969821E-01</totfact>
</mgrwt>
</event>
<event>
 4    1  0.3032637E-007  0.1263568E+04  0.7818608E-02  0.9097677E-01
          2   -1    0    0  501    0  0.00000000000E+00  0.00000000000E+00  0.17737364307E+04  0.17737364307E+04  0.25500000000E-02 0. -1.
         -2   -1    0    0    0  501 -0.00000000000E+00 -0.00000000000E+00 -0.10874678996E+04  0.10874678996E+04  0.25500000000E-02 0.  1.
    8880023    1    1    2    0    0 -0.10773378902E+04 -0.46231364280E+02 -0.39761646022E+03  0.13246521522E+04  0.65864270000E+03 0.  1.
    8880022    1    1    2    0    0  0.10773378902E+04  0.46231364280E+02  0.10838849913E+04  0.15365521781E+04  0.15294330000E+03 0. -1.
<mgrwt>
<rscale>  0 0.12174976E+04</rscale>
<asrwt>0</asrwt>
<pdfrwt beam="1">  1        2 0.27288253E+00 0.12635682E+04</pdfrwt>
<pdfrwt beam="2">  1       -2 0.16730275E+00 0.12635682E+04</pdfrwt>
<totfact> 0.19179699E+00</totfact>
</mgrwt>
</event>
<event>
 4    1  0.3032637E-007  0.1103489E+04  0.7818608E-02  0.9257181E-01
          2   -1    0    0  501    0  0.00000000000E+00  0.00000000000E+00  0.17485084976E+04  0.17485084976E+04  0.25500000000E-02 0. -1.
         -2   -1    0    0    0  501 -0.00000000000E+00 -0.00000000000E+00 -0.93754057594E+03  0.93754057595E+03  0.25500000000E-02 0.  1.
    8880023    1    1    2    0    0  0.86227405240E+03  0.20090202796E+03 -0.40385388446E+03  0.11750686501E+04  0.65864270000E+03 0.  0.
    8880022    1    1    2    0    0 -0.86227405240E+03 -0.20090202796E+03  0.12148218061E+04  0.15109804234E+04  0.15294330000E+03 0.  0.
<mgrwt>
<rscale>  0 0.10482223E+04</rscale>
<asrwt>0</asrwt>
<pdfrwt beam="1">  1        2 0.26900130E+00 0.11034892E+04</pdfrwt>
<pdfrwt beam="2">  1       -2 0.14423701E+00 0.11034892E+04</pdfrwt>
<totfact> 0.30095980E+00</totfact>
</mgrwt>
</event>
<event>
 4    1  0.3032637E-007  0.1023444E+04  0.7818608E-02  0.9351509E-01
         -2   -1    0    0    0  501 -0.00000000000E+00  0.00000000000E+00  0.64699977460E+03  0.64699977460E+03  0.25500000000E-02 0.  1.
          2   -1    0    0  501    0  0.00000000000E+00 -0.00000000000E+00 -0.15848883556E+04  0.15848883556E+04  0.25500000000E-02 0. -1.
    8880023    1    1    2    0    0 -0.69653257977E+03 -0.35842677863E+03 -0.31151082361E+02  0.10239179589E+04  0.65864270000E+03 0.  1.
    8880022    1    1    2    0    0  0.69653257977E+03  0.35842677863E+03 -0.90673749861E+03  0.12079701713E+04  0.15294330000E+03 0.  0.
<mgrwt>
<rscale>  0 0.96176089E+03</rscale>
<asrwt>0</asrwt>
<pdfrwt beam="1">  1        2 0.24382898E+00 0.10234440E+04</pdfrwt>
<pdfrwt beam="2">  1       -2 0.99538427E-01 0.10234440E+04</pdfrwt>
<totfact> 0.94370378E+00</totfact>
</mgrwt>
</event>
<event>
 4    1  0.3032637E-007  0.6935671E+03  0.7818608E-02  0.1002501E+00
          2   -1    0    0  501    0  0.00000000000E+00  0.00000000000E+00  0.20292131910E+04  0.20292131910E+04  0.25500000000E-02 0. -1.
         -2   -1    0    0    0  501 -0.00000000000E+00 -0.00000000000E+00 -0.85794256134E+03  0.85794256134E+03  0.25500000000E-02 0.  1.
    8880023    1    1    2    0    0 -0.18313550647E+03  0.11698947494E+03 -0.70687314576E+03  0.99030550914E+03  0.65864270000E+03 0.  1.
    8880022    1    1    2    0    0  0.18313550647E+03 -0.11698947494E+03  0.18781437754E+04  0.18968502432E+04  0.15294330000E+03 0.  0.
<mgrwt>
<rscale>  0 0.54566975E+03</rscale>
<asrwt>0</asrwt>
<pdfrwt beam="1">  1        2 0.31218664E+00 0.69356713E+03</pdfrwt>
<pdfrwt beam="2">  1       -2 0.13199116E+00 0.69356713E+03</pdfrwt>
<totfact> 0.28199072E+00</totfact>
</mgrwt>
</event>
<event>
 4    1  0.3032637E-007  0.1062032E+04  0.7818608E-02  0.9304555E-01
         -2   -1    0    0    0  501 -0.00000000000E+00  0.00000000000E+00  0.11384776652E+04  0.11384776652E+04  0.25500000000E-02 0.  1.
          2   -1    0    0  501    0  0.00000000000E+00 -0.00000000000E+00 -0.16222588907E+04  0.16222588907E+04  0.25500000000E-02 0. -1.
    8880023    1    1    2    0    0 -0.83030184919E+03  0.68565027668E+02  0.72414160594E+03  0.12854157287E+04  0.65864270000E+03 0.  1.
    8880022    1    1    2    0    0  0.83030184919E+03 -0.68565027668E+02 -0.12079228314E+04  0.14753208273E+04  0.15294330000E+03 0. -1.
<mgrwt>
<rscale>  0 0.10036460E+04</rscale>
<asrwt>0</asrwt>
<pdfrwt beam="1">  1        2 0.24957829E+00 0.10620323E+04</pdfrwt>
<pdfrwt beam="2">  1       -2 0.17515041E+00 0.10620323E+04</pdfrwt>
<totfact> 0.20939888E+00</totfact>
</mgrwt>
</event>
<event>
 4    1  0.3032637E-007  0.8048212E+03  0.7818608E-02  0.9700467E-01
          2   -1    0    0  501    0  0.00000000000E+00  0.00000000000E+00  0.17560143210E+04  0.17560143210E+04  0.25500000000E-02 0. -1.
         -2   -1    0    0    0  501 -0.00000000000E+00 -0.00000000000E+00 -0.26816544585E+03  0.26816544586E+03  0.25500000000E-02 0.  1.
    8880023    1    1    2    0    0  0.16970616057E+03  0.43026358760E+03  0.57382490786E+03  0.98843925807E+03  0.65864270000E+03 0.  0.
    8880022    1    1    2    0    0 -0.16970616057E+03 -0.43026358760E+03  0.91402396731E+03  0.10357405088E+04  0.15294330000E+03 0.  0.
<mgrwt>
<rscale>  0 0.70988994E+03</rscale>
<asrwt>0</asrwt>
<pdfrwt beam="1">  1        2 0.27015605E+00 0.80482119E+03</pdfrwt>
<pdfrwt beam="2">  1       -2 0.41256223E-01 0.80482119E+03</pdfrwt>
<totfact> 0.51788659E+01</totfact>
</mgrwt>
</event>
<event>
 4    1  0.3032637E-007  0.9680381E+03  0.7818608E-02  0.9424623E-01
          2   -1    0    0  501    0  0.00000000000E+00  0.00000000000E+00  0.19117378000E+04  0.19117378000E+04  0.25500000000E-02 0. -1.
         -2   -1    0    0    0  501 -0.00000000000E+00 -0.00000000000E+00 -0.77148693535E+03  0.77148693536E+03  0.25500000000E-02 0.  1.
    8880023    1    1    2    0    0 -0.91554494940E+02 -0.70349509254E+03 -0.34700271697E+03  0.10283524020E+04  0.65864270000E+03 0.  1.
    8880022    1    1    2    0    0  0.91554494940E+02  0.70349509254E+03  0.14872535816E+04  0.16548723334E+04  0.15294330000E+03 0.  0.
<mgrwt>
<rscale>  0 0.90076730E+03</rscale>
<asrwt>0</asrwt>
<pdfrwt beam="1">  1        2 0.29411351E+00 0.96803811E+03</pdfrwt>
<pdfrwt beam="2">  1       -2 0.11869030E+00 0.96803811E+03</pdfrwt>
<totfact> 0.40900662E+00</totfact>
</mgrwt>
</event>
<event>
 4    1  0.3032637E-007  0.7615048E+03  0.7818608E-02  0.9801227E-01
         -2   -1    0    0    0  501 -0.00000000000E+00  0.00000000000E+00  0.18271257337E+03  0.18271257339E+03  0.25500000000E-02 0.  1.
          2   -1    0    0  501    0  0.00000000000E+00 -0.00000000000E+00 -0.21920594504E+04  0.21920594504E+04  0.25500000000E-02 0. -1.
    8880023    1    1    2    0    0 -0.11713192960E+03  0.36381247718E+03 -0.83370868286E+03  0.11291411699E+04  0.65864270000E+03 0.  1.
    8880022    1    1    2    0    0  0.11713192960E+03 -0.36381247718E+03 -0.11756381942E+04  0.12456308539E+04  0.15294330000E+03 0.  0.
<mgrwt>
<rscale>  0 0.65296731E+03</rscale>
<asrwt>0</asrwt>
<pdfrwt beam="1">  1        2 0.33723990E+00 0.76150484E+03</pdfrwt>
<pdfrwt beam="2">  1       -2 0.28109628E-01 0.76150484E+03</pdfrwt>
<totfact> 0.62227421E+01</totfact>
</mgrwt>
</event>
<event>
 4    1  0.3032637E-007  0.1351137E+04  0.7818608E-02  0.9022611E-01
         -2   -1    0    0    0  501 -0.00000000000E+00  0.00000000000E+00  0.23052150932E+04  0.23052150932E+04  0.25500000000E-02 0.  1.
          2   -1    0    0  501    0  0.00000000000E+00 -0.00000000000E+00 -0.77900933432E+03  0.77900933432E+03  0.25500000000E-02 0. -1.
    8880023    1    1    2    0    0 -0.10860661850E+04  0.46067599339E+03  0.31673547903E+03  0.13877657219E+04  0.65864270000E+03 0. -1.
    8880022    1    1    2    0    0  0.10860661850E+04 -0.46067599339E+03  0.12094702799E+04  0.16964587056E+04  0.15294330000E+03 0.  0.
<mgrwt>
<rscale>  0 0.13088055E+04</rscale>
<asrwt>0</asrwt>
<pdfrwt beam="1">  1        2 0.11984759E+00 0.13511374E+04</pdfrwt>
<pdfrwt beam="2">  1       -2 0.35464847E+00 0.13511374E+04</pdfrwt>
<totfact> 0.50274413E-01</totfact>
</mgrwt>
</event>
<event>
 4    1  0.3032637E-007  0.6907579E+03  0.7818608E-02  0.1003794E+00
          2   -1    0    0  501    0  0.00000000000E+00  0.00000000000E+00  0.13221828726E+04  0.13221828726E+04  0.25500000000E-02 0. -1.
         -2   -1    0    0    0  501 -0.00000000000E+00 -0.00000000000E+00 -0.39661756331E+03  0.39661756332E+03  0.25500000000E-02 0.  1.
    8880023    1    1    2    0    0 -0.20553081464E+03  0.33066492486E+02 -0.66221855812E+02  0.69392495930E+03  0.65864270000E+03 0.  0.
    8880022    1    1    2    0    0  0.20553081464E+03 -0.33066492486E+02  0.99178716515E+03  0.10248754767E+04  0.15294330000E+03 0.  0.
<mgrwt>
<rscale>  0 0.54017302E+03</rscale>
<asrwt>0</asrwt>
<pdfrwt beam="1">  1        2 0.20341275E+00 0.69075793E+03</pdfrwt>
<pdfrwt beam="2">  1       -2 0.61018086E-01 0.69075793E+03</pdfrwt>
<totfact> 0.41157253E+01</totfact>
</mgrwt>
</event>
<event>
 4    1  0.3032637E-007  0.1356287E+04  0.7818608E-02  0.9018415E-01
          2   -1    0    0  501    0  0.00000000000E+00  0.00000000000E+00  0.23945569213E+04  0.23945569213E+04  0.25500000000E-02 0. -1.
         -2   -1    0    0    0  501 -0.00000000000E+00 -0.00000000000E+00 -0.10987156477E+04  0.10987156477E+04  0.25500000000E-02 0.  1.
    8880023    1    1    2    0    0 -0.79136066642E+03 -0.88286628247E+03 -0.40398201060E+03  0.14151735753E+04  0.65864270000E+03 0.  1.
    8880022    1    1    2    0    0  0.79136066642E+03  0.88286628247E+03  0.16998232842E+04  0.20780989937E+04  0.15294330000E+03 0.  0.
<mgrwt>
<rscale>  0 0.13141545E+04</rscale>
<asrwt>0</asrwt>
<pdfrwt beam="1">  1        2 0.36839337E+00 0.13562871E+04</pdfrwt>
<pdfrwt beam="2">  1       -2 0.16903318E+00 0.13562871E+04</pdfrwt>
<totfact> 0.82979800E-01</totfact>
</mgrwt>
</event>
<event>
 4    1  0.3032637E-007  0.1304484E+04  0.7818608E-02  0.9061698E-01
          2   -1    0    0  501    0  0.00000000000E+00  0.00000000000E+00  0.20942283808E+04  0.20942283808E+04  0.25500000000E-02 0. -1.
         -2   -1    0    0    0  501 -0.00000000000E+00 -0.00000000000E+00 -0.96370177337E+03  0.96370177337E+03  0.25500000000E-02 0.  1.
    8880023    1    1    2    0    0  0.66435207420E+03  0.90912269673E+03 -0.18727192614E+03  0.13178576315E+04  0.65864270000E+03 0.  0.
    8880022    1    1    2    0    0 -0.66435207420E+03 -0.90912269673E+03  0.13177985335E+04  0.17400725227E+04  0.15294330000E+03 0.  0.
<mgrwt>
<rscale>  0 0.12602471E+04</rscale>
<asrwt>0</asrwt>
<pdfrwt beam="1">  1        2 0.32218898E+00 0.13044838E+04</pdfrwt>
<pdfrwt beam="2">  1       -2 0.14826181E+00 0.13044838E+04</pdfrwt>
<totfact> 0.17614547E+00</totfact>
</mgrwt>
</event>
<event>
 4    1  0.3032637E-007  0.7744534E+03  0.7818608E-02  0.9769031E-01
         -2   -1    0    0    0  501 -0.00000000000E+00  0.00000000000E+00  0.59334029137E+03  0.59334029138E+03  0.25500000000E-02 0.  1.
          2   -1    0    0  501    0  0.00000000000E+00 -0.00000000000E+00 -0.15720025281E+04  0.15720025281E+04  0.25500000000E-02 0. -1.
    8880023    1    1    2    0    0  0.19542377014E+03  0.35745975597E+03  0.28780474607E+03  0.82620197603E+03  0.65864270000E+03 0.  0.
    8880022    1    1    2    0    0 -0.19542377014E+03 -0.35745975597E+03 -0.12664669828E+04  0.13391408435E+04  0.15294330000E+03 0.  0.
<mgrwt>
<rscale>  0 0.67051330E+03</rscale>
<asrwt>0</asrwt>
<pdfrwt beam="1">  1        2 0.24184654E+00 0.77445344E+03</pdfrwt>
<pdfrwt beam="2">  1       -2 0.91283123E-01 0.77445344E+03</pdfrwt>
<totfact> 0.12092195E+01</totfact>
</mgrwt>
</event>
<event>
 4    1  0.3032637E-007  0.1690221E+04  0.7818608E-02  0.8785823E-01
          2   -1    0    0  501    0  0.00000000000E+00  0.00000000000E+00  0.25236945314E+04  0.25236945314E+04  0.25500000000E-02 0. -1.
         -2   -1    0    0    0  501 -0.00000000000E+00 -0.00000000000E+00 -0.17761756004E+04  0.17761756004E+04  0.25500000000E-02 0.  1.
    8880023    1    1    2    0    0 -0.47196425630E+03 -0.14833367856E+04 -0.99259105359E+03  0.19601238442E+04  0.65864270000E+03 0.  0.
    8880022    1    1    2    0    0  0.47196425630E+03  0.14833367856E+04  0.17401099846E+04  0.23397462876E+04  0.15294330000E+03 0.  0.
<mgrwt>
<rscale>  0 0.16577701E+04</rscale>
<asrwt>0</asrwt>
<pdfrwt beam="1">  1        2 0.38826070E+00 0.16902214E+04</pdfrwt>
<pdfrwt beam="2">  1       -2 0.27325778E+00 0.16902214E+04</pdfrwt>
<totfact> 0.14315123E-01</totfact>
</mgrwt>
</event>
<event>
 4    1  0.3032637E-007  0.1173365E+04  0.7818608E-02  0.9183459E-01
          2   -1    0    0  501    0  0.00000000000E+00  0.00000000000E+00  0.16766019132E+04  0.16766019132E+04  0.25500000000E-02 0. -1.
         -2   -1    0    0    0  501 -0.00000000000E+00 -0.00000000000E+00 -0.11791326713E+04  0.11791326713E+04  0.25500000000E-02 0.  1.
    8880023    1    1    2    0    0  0.96530975024E+03  0.10560035737E+03 -0.65271725327E+03  0.13426929539E+04  0.65864270000E+03 0.  0.
    8880022    1    1    2    0    0 -0.96530975024E+03 -0.10560035737E+03  0.11501864952E+04  0.15130416306E+04  0.15294330000E+03 0.  0.
<mgrwt>
<rscale>  0 0.11225804E+04</rscale>
<asrwt>0</asrwt>
<pdfrwt beam="1">  1        2 0.25793876E+00 0.11733646E+04</pdfrwt>
<pdfrwt beam="2">  1       -2 0.18140502E+00 0.11733646E+04</pdfrwt>
<totfact> 0.17441957E+00</totfact>
</mgrwt>
</event>
<event>
 4    1  0.3032637E-007  0.1312338E+04  0.7818608E-02  0.9054978E-01
          2   -1    0    0  501    0  0.00000000000E+00  0.00000000000E+00  0.22158297657E+04  0.22158297657E+04  0.25500000000E-02 0. -1.
         -2   -1    0    0    0  501 -0.00000000000E+00 -0.00000000000E+00 -0.74226427161E+03  0.74226427161E+03  0.25500000000E-02 0.  1.
    8880023    1    1    2    0    0  0.71320409656E+03 -0.88304103475E+03  0.12050883281E+04  0.17817041385E+04  0.65864270000E+03 0.  0.
    8880022    1    1    2    0    0 -0.71320409656E+03  0.88304103475E+03  0.26847716602E+03  0.11763898988E+04  0.15294330000E+03 0.  0.
<mgrwt>
<rscale>  0 0.12684354E+04</rscale>
<asrwt>0</asrwt>
<pdfrwt beam="1">  1        2 0.34089688E+00 0.13123383E+04</pdfrwt>
<pdfrwt beam="2">  1       -2 0.11419451E+00 0.13123383E+04</pdfrwt>
<totfact> 0.29347950E+00</totfact>
</mgrwt>
</event>
<event>
 4    1  0.3032637E-007  0.7110423E+03  0.7818608E-02  0.9954151E-01
          2   -1    0    0  501    0  0.00000000000E+00  0.00000000000E+00  0.95597959173E+03  0.95597959173E+03  0.25500000000E-02 0. -1.
         -2   -1    0    0    0  501 -0.00000000000E+00 -0.00000000000E+00 -0.91152960452E+03  0.91152960452E+03  0.25500000000E-02 0.  1.
    8880023    1    1    2    0    0 -0.26070155614E+03  0.61690309113E+02 -0.73899291477E+03  0.10255202241E+04  0.65864270000E+03 0.  1.
    8880022    1    1    2    0    0  0.26070155614E+03 -0.61690309113E+02  0.78344290198E+03  0.84198897219E+03  0.15294330000E+03 0.  0.
<mgrwt>
<rscale>  0 0.57707188E+03</rscale>
<asrwt>0</asrwt>
<pdfrwt beam="1">  1        2 0.14707378E+00 0.71104233E+03</pdfrwt>
<pdfrwt beam="2">  1       -2 0.14023532E+00 0.71104233E+03</pdfrwt>
<totfact> 0.98336090E+00</totfact>
</mgrwt>
</event>
<event>
 4    1  0.3032637E-007  0.1797987E+04  0.7818608E-02  0.8723651E-01
          2   -1    0    0  501    0  0.00000000000E+00  0.00000000000E+00  0.17640627024E+04  0.17640627024E+04  0.25500000000E-02 0. -1.
         -2   -1    0    0    0  501 -0.00000000000E+00 -0.00000000000E+00 -0.25291341786E+04  0.25291341786E+04  0.25500000000E-02 0.  1.
    8880023    1    1    2    0    0  0.32850728207E+03 -0.16404356525E+04 -0.16093129420E+04  0.24130156477E+04  0.65864270000E+03 0.  1.
    8880022    1    1    2    0    0 -0.32850728207E+03  0.16404356525E+04  0.84424146585E+03  0.18801812333E+04  0.15294330000E+03 0.  0.
<mgrwt>
<rscale>  0 0.17677302E+04</rscale>
<asrwt>0</asrwt>
<pdfrwt beam="1">  1        2 0.27139426E+00 0.17979868E+04</pdfrwt>
<pdfrwt beam="2">  1       -2 0.38909757E+00 0.17979868E+04</pdfrwt>
<totfact> 0.71737556E-02</totfact>
</mgrwt>
</event>
<event>
 4    1  0.3771958E-007  0.7114205E+03  0.7818608E-02  0.9952763E-01
         -2   -1    0    0    0  501 -0.00000000000E+00  0.00000000000E+00  0.88646626042E+03  0.88646626043E+03  0.25500000000E-02 0.  1.
          2   -1    0    0  501    0  0.00000000000E+00 -0.00000000000E+00 -0.23566880847E+04  0.23566880847E+04  0.25500000000E-02 0. -1.
    8880023    1    1    2    0    0 -0.93900045994E+02 -0.25197564967E+03  0.73115317248E+03  0.10201490649E+04  0.65864270000E+03 0.  1.
    8880022    1    1    2    0    0  0.93900045994E+02  0.25197564967E+03 -0.22013749967E+04  0.22230052802E+04  0.15294330000E+03 0.  0.
<mgrwt>
<rscale>  0 0.57770898E+03</rscale>
<asrwt>0</asrwt>
<pdfrwt beam="1">  1        2 0.36256739E+00 0.71142052E+03</pdfrwt>
<pdfrwt beam="2">  1       -2 0.13637943E+00 0.71142052E+03</pdfrwt>
<totfact> 0.17072664E+00</totfact>
</mgrwt>
</event>
<event>
 4    1  0.3032637E-007  0.8138177E+03  0.7818608E-02  0.9681679E-01
          2   -1    0    0  501    0  0.00000000000E+00  0.00000000000E+00  0.94929956302E+03  0.94929956302E+03  0.25500000000E-02 0. -1.
         -2   -1    0    0    0  501 -0.00000000000E+00 -0.00000000000E+00 -0.10890694525E+04  0.10890694525E+04  0.25500000000E-02 0.  1.
    8880023    1    1    2    0    0  0.23238163768E+02 -0.47744012701E+03 -0.84475220679E+03  0.11729900188E+04  0.65864270000E+03 0.  1.
    8880022    1    1    2    0    0 -0.23238163768E+02  0.47744012701E+03  0.70498231733E+03  0.86537899668E+03  0.15294330000E+03 0.  0.
<mgrwt>
<rscale>  0 0.72118175E+03</rscale>
<asrwt>0</asrwt>
<pdfrwt beam="1">  1        2 0.14604609E+00 0.81381773E+03</pdfrwt>
<pdfrwt beam="2">  1       -2 0.16754915E+00 0.81381773E+03</pdfrwt>
<totfact> 0.60992790E+00</totfact>
</mgrwt>
</event>
<event>
 4    1  0.3032637E-007  0.8621791E+03  0.7818608E-02  0.9589699E-01
         -2   -1    0    0    0  501 -0.00000000000E+00  0.00000000000E+00  0.19077449135E+04  0.19077449135E+04  0.25500000000E-02 0.  1.
          2   -1    0    0  501    0  0.00000000000E+00 -0.00000000000E+00 -0.72277637590E+03  0.72277637591E+03  0.25500000000E-02 0. -1.
    8880023    1    1    2    0    0 -0.34230615266E+03  0.43859909458E+03  0.16682424380E+04  0.18778673292E+04  0.65864270000E+03 0.  0.
    8880022    1    1    2    0    0  0.34230615266E+03 -0.43859909458E+03 -0.48327390043E+03  0.75265396017E+03  0.15294330000E+03 0.  0.
<mgrwt>
<rscale>  0 0.77981746E+03</rscale>
<asrwt>0</asrwt>
<pdfrwt beam="1">  1        2 0.11119637E+00 0.86217914E+03</pdfrwt>
<pdfrwt beam="2">  1       -2 0.29349921E+00 0.86217914E+03</pdfrwt>
<totfact> 0.14017654E+00</totfact>
</mgrwt>
</event>
<event>
 4    1  0.3032637E-007  0.1338143E+04  0.7818608E-02  0.9033302E-01
         -2   -1    0    0    0  501 -0.00000000000E+00  0.00000000000E+00  0.96325285626E+03  0.96325285627E+03  0.25500000000E-02 0.  1.
          2   -1    0    0  501    0  0.00000000000E+00 -0.00000000000E+00 -0.27472381434E+04  0.27472381434E+04  0.25500000000E-02 0. -1.
    8880023    1    1    2    0    0  0.74080814720E+03 -0.89889848021E+03  0.25028724679E+03  0.13613482658E+04  0.65864270000E+03 0.  0.
    8880022    1    1    2    0    0 -0.74080814720E+03  0.89889848021E+03 -0.20342725339E+04  0.23491427339E+04  0.15294330000E+03 0.  0.
<mgrwt>
<rscale>  0 0.12952983E+04</rscale>
<asrwt>0</asrwt>
<pdfrwt beam="1">  1        2 0.42265202E+00 0.13381425E+04</pdfrwt>
<pdfrwt beam="2">  1       -2 0.14819275E+00 0.13381425E+04</pdfrwt>
<totfact> 0.74204208E-01</totfact>
</mgrwt>
</event>
<event>
 4    1  0.3032637E-007  0.9990313E+03  0.7818608E-02  0.9382826E-01
         -2   -1    0    0    0  501 -0.00000000000E+00  0.00000000000E+00  0.78244958942E+03  0.78244958943E+03  0.25500000000E-02 0.  1.
          2   -1    0    0  501    0  0.00000000000E+00 -0.00000000000E+00 -0.18026295666E+04  0.18026295666E+04  0.25500000000E-02 0. -1.
    8880023    1    1    2    0    0  0.74415267028E+03 -0.10242153488E+03  0.31326007637E+03  0.10469935287E+04  0.65864270000E+03 0.  0.
    8880022    1    1    2    0    0 -0.74415267028E+03  0.10242153488E+03 -0.13334400536E+04  0.15380856273E+04  0.15294330000E+03 0.  0.
<mgrwt>
<rscale>  0 0.93502605E+03</rscale>
<asrwt>0</asrwt>
<pdfrwt beam="1">  1        2 0.27732762E+00 0.99903132E+03</pdfrwt>
<pdfrwt beam="2">  1       -2 0.12037686E+00 0.99903132E+03</pdfrwt>
<totfact> 0.45163592E+00</totfact>
</mgrwt>
</event>
<event>
 4    1  0.3032637E-007  0.1352046E+04  0.7818608E-02  0.9021870E-01
          2   -1    0    0  501    0  0.00000000000E+00  0.00000000000E+00  0.93345220252E+03  0.93345220252E+03  0.25500000000E-02 0. -1.
         -2   -1    0    0    0  501 -0.00000000000E+00 -0.00000000000E+00 -0.28985211550E+04  0.28985211550E+04  0.25500000000E-02 0.  1.
    8880023    1    1    2    0    0 -0.28143681740E+03 -0.11467392707E+04 -0.22340604566E+04  0.26113318379E+04  0.65864270000E+03 0.  1.
    8880022    1    1    2    0    0  0.28143681740E+03  0.11467392707E+04  0.26899150418E+03  0.12206415197E+04  0.15294330000E+03 0.  0.
<mgrwt>
<rscale>  0 0.13097491E+04</rscale>
<asrwt>0</asrwt>
<pdfrwt beam="1">  1        2 0.14360803E+00 0.13520458E+04</pdfrwt>
<pdfrwt beam="2">  1       -2 0.44592633E+00 0.13520458E+04</pdfrwt>
<totfact> 0.99362682E-02</totfact>
</mgrwt>
</event>
<event>
 4    1  0.3032637E-007  0.6819182E+03  0.7818608E-02  0.1008259E+00
          2   -1    0    0  501    0  0.00000000000E+00  0.00000000000E+00  0.26255086167E+04  0.26255086167E+04  0.25500000000E-02 0. -1.
         -2   -1    0    0    0  501 -0.00000000000E+00 -0.00000000000E+00 -0.47305217510E+03  0.47305217511E+03  0.25500000000E-02 0.  1.
    8880023    1    1    2    0    0 -0.17457127743E+03 -0.26963564335E+02 -0.21853865539E+03  0.71608066226E+03  0.65864270000E+03 0.  0.
    8880022    1    1    2    0    0  0.17457127743E+03  0.26963564335E+02  0.23709950970E+04  0.23824801295E+04  0.15294330000E+03 0.  0.
<mgrwt>
<rscale>  0 0.52172557E+03</rscale>
<asrwt>0</asrwt>
<pdfrwt beam="1">  1        2 0.40392440E+00 0.68191816E+03</pdfrwt>
<pdfrwt beam="2">  1       -2 0.72777257E-01 0.68191816E+03</pdfrwt>
<totfact> 0.53558998E+00</totfact>
</mgrwt>
</event>
<event>
 4    1  0.3032637E-007  0.7838695E+03  0.7818608E-02  0.9746825E-01
         -2   -1    0    0    0  501 -0.00000000000E+00  0.00000000000E+00  0.39086833597E+03  0.39086833598E+03  0.25500000000E-02 0.  1.
          2   -1    0    0  501    0  0.00000000000E+00 -0.00000000000E+00 -0.23014125059E+04  0.23014125059E+04  0.25500000000E-02 0. -1.
    8880023    1    1    2    0    0  0.53478104781E+02  0.42164126230E+03 -0.58611800496E+02  0.78605776581E+03  0.65864270000E+03 0.  1.
    8880022    1    1    2    0    0 -0.53478104781E+02 -0.42164126230E+03 -0.18519323695E+04  0.19062230761E+04  0.15294330000E+03 0.  0.
<mgrwt>
<rscale>  0 0.68296017E+03</rscale>
<asrwt>0</asrwt>
<pdfrwt beam="1">  1        2 0.35406345E+00 0.78386955E+03</pdfrwt>
<pdfrwt beam="2">  1       -2 0.60133591E-01 0.78386955E+03</pdfrwt>
<totfact> 0.12099676E+01</totfact>
</mgrwt>
</event>
<event>
 4    1  0.3306039E-007  0.9678557E+03  0.7818608E-02  0.9424876E-01
         -2   -1    0    0    0  501 -0.00000000000E+00  0.00000000000E+00  0.14472928007E+04  0.14472928007E+04  0.25500000000E-02 0.  1.
          2   -1    0    0  501    0  0.00000000000E+00 -0.00000000000E+00 -0.14056315431E+04  0.14056315431E+04  0.25500000000E-02 0. -1.
    8880023    1    1    2    0    0 -0.33019094879E+03  0.62762121914E+03  0.11656814670E+04  0.15151098792E+04  0.65864270000E+03 0.  1.
    8880022    1    1    2    0    0  0.33019094879E+03 -0.62762121914E+03 -0.11240202095E+04  0.13378144646E+04  0.15294330000E+03 0.  0.
<mgrwt>
<rscale>  0 0.90056450E+03</rscale>
<asrwt>0</asrwt>
<pdfrwt beam="1">  1        2 0.21625101E+00 0.96785570E+03</pdfrwt>
<pdfrwt beam="2">  1       -2 0.22266043E+00 0.96785570E+03</pdfrwt>
<totfact> 0.13645363E+00</totfact>
</mgrwt>
</event>
<event>
 4    1  0.3032637E-007  0.7017011E+03  0.7818608E-02  0.9990216E-01
         -2   -1    0    0    0  501 -0.00000000000E+00  0.00000000000E+00  0.26841354948E+03  0.26841354949E+03  0.25500000000E-02 0.  1.
          2   -1    0    0  501    0  0.00000000000E+00 -0.00000000000E+00 -0.12083362102E+04  0.12083362102E+04  0.25500000000E-02 0. -1.
    8880023    1    1    2    0    0  0.24188564629E+03  0.80932236203E+01 -0.27654451244E+03  0.75422890409E+03  0.65864270000E+03 0.  1.
    8880022    1    1    2    0    0 -0.24188564629E+03 -0.80932236203E+01 -0.66337814831E+03  0.72252085563E+03  0.15294330000E+03 0.  0.
<mgrwt>
<rscale>  0 0.56081316E+03</rscale>
<asrwt>0</asrwt>
<pdfrwt beam="1">  1        2 0.18589787E+00 0.70170106E+03</pdfrwt>
<pdfrwt beam="2">  1       -2 0.41294393E-01 0.70170106E+03</pdfrwt>
<totfact> 0.10599404E+02</totfact>
</mgrwt>
</event>
<event>
 4    1  0.3032637E-007  0.7946444E+03  0.7818608E-02  0.9722498E-01
         -2   -1    0    0    0  501 -0.00000000000E+00  0.00000000000E+00  0.82846244324E+03  0.82846244324E+03  0.25500000000E-02 0.  1.
          2   -1    0    0  501    0  0.00000000000E+00 -0.00000000000E+00 -0.60878046231E+03  0.60878046232E+03  0.25500000000E-02 0. -1.
    8880023    1    1    2    0    0 -0.36384347225E+03  0.25547488782E+03  0.45053065087E+03  0.91347554113E+03  0.65864270000E+03 0.  1.
    8880022    1    1    2    0    0  0.36384347225E+03 -0.25547488782E+03 -0.23084866995E+03  0.52376736443E+03  0.15294330000E+03 0.  0.
<mgrwt>
<rscale>  0 0.69692935E+03</rscale>
<asrwt>0</asrwt>
<pdfrwt beam="1">  1        2 0.93658534E-01 0.79464438E+03</pdfrwt>
<pdfrwt beam="2">  1       -2 0.12745576E+00 0.79464438E+03</pdfrwt>
<totfact> 0.22457356E+01</totfact>
</mgrwt>
</event>
<event>
 4    1  0.3032637E-007  0.8431223E+03  0.7818608E-02  0.9624321E-01
          2   -1    0    0  501    0  0.00000000000E+00  0.00000000000E+00  0.41441883551E+04  0.41441883551E+04  0.25500000000E-02 0. -1.
         -2   -1    0    0    0  501 -0.00000000000E+00 -0.00000000000E+00 -0.21680806702E+03  0.21680806703E+03  0.25500000000E-02 0.  1.
    8880023    1    1    2    0    0  0.17189603009E+03  0.49749038006E+03  0.72477483688E+03  0.11118244888E+04  0.65864270000E+03 0.  0.
    8880022    1    1    2    0    0 -0.17189603009E+03 -0.49749038006E+03  0.32026054512E+04  0.32491719333E+04  0.15294330000E+03 0.  0.
<mgrwt>
<rscale>  0 0.75707170E+03</rscale>
<asrwt>0</asrwt>
<pdfrwt beam="1">  1        2 0.63756741E+00 0.84312225E+03</pdfrwt>
<pdfrwt beam="2">  1       -2 0.33355089E-01 0.84312225E+03</pdfrwt>
<totfact> 0.23818333E+00</totfact>
</mgrwt>
</event>
<event>
 4    1  0.3032637E-007  0.7994853E+03  0.7818608E-02  0.9711910E-01
          2   -1    0    0  501    0  0.00000000000E+00  0.00000000000E+00  0.31040778882E+04  0.31040778882E+04  0.25500000000E-02 0. -1.
         -2   -1    0    0    0  501 -0.00000000000E+00 -0.00000000000E+00 -0.43739938824E+03  0.43739938825E+03  0.25500000000E-02 0.  1.
    8880023    1    1    2    0    0  0.26922561028E+03 -0.36453270426E+03 -0.32602574347E+02  0.80014977087E+03  0.65864270000E+03 0.  1.
    8880022    1    1    2    0    0 -0.26922561028E+03  0.36453270426E+03  0.26992810743E+04  0.27413275056E+04  0.15294330000E+03 0.  0.
<mgrwt>
<rscale>  0 0.70312078E+03</rscale>
<asrwt>0</asrwt>
<pdfrwt beam="1">  1        2 0.47755044E+00 0.79948529E+03</pdfrwt>
<pdfrwt beam="2">  1       -2 0.67292214E-01 0.79948529E+03</pdfrwt>
<totfact> 0.32129055E+00</totfact>
</mgrwt>
</event>
<event>
 4    1  0.3032637E-007  0.1056078E+04  0.7818608E-02  0.9311610E-01
          2   -1    0    0  501    0  0.00000000000E+00  0.00000000000E+00  0.15001242285E+04  0.15001242285E+04  0.25500000000E-02 0. -1.
         -2   -1    0    0    0  501 -0.00000000000E+00 -0.00000000000E+00 -0.10283678992E+04  0.10283678992E+04  0.25500000000E-02 0.  1.
    8880023    1    1    2    0    0  0.79829768300E+03 -0.21026491705E+03 -0.56235822973E+03  0.11964729461E+04  0.65864270000E+03 0.  1.
    8880022    1    1    2    0    0 -0.79829768300E+03  0.21026491705E+03  0.10341145590E+04  0.13320191816E+04  0.15294330000E+03 0.  0.
<mgrwt>
<rscale>  0 0.99720985E+03</rscale>
<asrwt>0</asrwt>
<pdfrwt beam="1">  1        2 0.23078834E+00 0.10560780E+04</pdfrwt>
<pdfrwt beam="2">  1       -2 0.15821045E+00 0.10560780E+04</pdfrwt>
<totfact> 0.32506628E+00</totfact>
</mgrwt>
</event>
<event>
 4    1  0.3032637E-007  0.1227200E+04  0.7818608E-02  0.9131125E-01
          2   -1    0    0  501    0  0.00000000000E+00  0.00000000000E+00  0.83157609770E+03  0.83157609771E+03  0.25500000000E-02 0. -1.
         -2   -1    0    0    0  501 -0.00000000000E+00 -0.00000000000E+00 -0.20367431023E+04  0.20367431023E+04  0.25500000000E-02 0.  1.
    8880023    1    1    2    0    0  0.30742305502E+03  0.98878732694E+03 -0.13352750796E+04  0.18135542609E+04  0.65864270000E+03 0.  1.
    8880022    1    1    2    0    0 -0.30742305502E+03 -0.98878732694E+03  0.13010807499E+03  0.10547649392E+04  0.15294330000E+03 0.  0.
<mgrwt>
<rscale>  0 0.11793509E+04</rscale>
<asrwt>0</asrwt>
<pdfrwt beam="1">  1        2 0.12793478E+00 0.12271999E+04</pdfrwt>
<pdfrwt beam="2">  1       -2 0.31334509E+00 0.12271999E+04</pdfrwt>
<totfact> 0.84196745E-01</totfact>
</mgrwt>
</event>
<event>
 4    1  0.3032637E-007  0.1312403E+04  0.7818608E-02  0.9054922E-01
          2   -1    0    0  501    0  0.00000000000E+00  0.00000000000E+00  0.15149267660E+04  0.15149267660E+04  0.25500000000E-02 0. -1.
         -2   -1    0    0    0  501 -0.00000000000E+00 -0.00000000000E+00 -0.11639188082E+04  0.11639188082E+04  0.25500000000E-02 0.  1.
    8880023    1    1    2    0    0 -0.22769761025E+03 -0.11120905297E+04 -0.32067501592E+03  0.13510122946E+04  0.65864270000E+03 0.  0.
    8880022    1    1    2    0    0  0.22769761025E+03  0.11120905297E+04  0.67168297376E+03  0.13278332796E+04  0.15294330000E+03 0.  0.
<mgrwt>
<rscale>  0 0.12685029E+04</rscale>
<asrwt>0</asrwt>
<pdfrwt beam="1">  1        2 0.23306566E+00 0.13124030E+04</pdfrwt>
<pdfrwt beam="2">  1       -2 0.17906443E+00 0.13124030E+04</pdfrwt>
<totfact> 0.21990029E+00</totfact>
</mgrwt>
</event>
<event>
 4    1  0.3032637E-007  0.8177154E+03  0.7818608E-02  0.9673724E-01
          2   -1    0    0  501    0  0.00000000000E+00  0.00000000000E+00  0.13050976844E+04  0.13050976844E+04  0.25500000000E-02 0. -1.
         -2   -1    0    0    0  501 -0.00000000000E+00 -0.00000000000E+00 -0.40916165218E+03  0.40916165219E+03  0.25500000000E-02 0.  1.
    8880023    1    1    2    0    0 -0.48315688368E+03  0.37520253071E+02  0.18164832955E+03  0.83764829465E+03  0.65864270000E+03 0.  1.
    8880022    1    1    2    0    0  0.48315688368E+03 -0.37520253071E+02  0.71428770265E+03  0.87661104192E+03  0.15294330000E+03 0.  0.
<mgrwt>
<rscale>  0 0.72603004E+03</rscale>
<asrwt>0</asrwt>
<pdfrwt beam="1">  1        2 0.20078426E+00 0.81771545E+03</pdfrwt>
<pdfrwt beam="2">  1       -2 0.62947946E-01 0.81771545E+03</pdfrwt>
<totfact> 0.38893797E+01</totfact>
</mgrwt>
</event>
<event>
 4    1  0.3032637E-007  0.8287386E+03  0.7818608E-02  0.9651792E-01
         -2   -1    0    0    0  501 -0.00000000000E+00  0.00000000000E+00  0.30974915283E+03  0.30974915284E+03  0.25500000000E-02 0.  1.
          2   -1    0    0  501    0  0.00000000000E+00 -0.00000000000E+00 -0.40934448444E+04  0.40934448444E+04  0.25500000000E-02 0. -1.
    8880023    1    1    2    0    0  0.97437139312E+02  0.49346072063E+03 -0.30203007547E+03  0.88206000457E+03  0.65864270000E+03 0.  0.
    8880022    1    1    2    0    0 -0.97437139312E+02 -0.49346072063E+03 -0.34816656161E+04  0.35211339926E+04  0.15294330000E+03 0.  0.
<mgrwt>
<rscale>  0 0.73961090E+03</rscale>
<asrwt>0</asrwt>
<pdfrwt beam="1">  1        2 0.62976071E+00 0.82873861E+03</pdfrwt>
<pdfrwt beam="2">  1       -2 0.47653719E-01 0.82873861E+03</pdfrwt>
<totfact> 0.13103529E+00</totfact>
</mgrwt>
</event>
<event>
 4    1  0.3032637E-007  0.1200702E+04  0.7818608E-02  0.9156441E-01
         -2   -1    0    0    0  501 -0.00000000000E+00  0.00000000000E+00  0.11526704110E+04  0.11526704110E+04  0.25500000000E-02 0.  1.
          2   -1    0    0  501    0  0.00000000000E+00 -0.00000000000E+00 -0.27676114546E+04  0.27676114546E+04  0.25500000000E-02 0. -1.
    8880023    1    1    2    0    0 -0.99891347861E+03  0.10022936953E+03  0.70179119982E+03  0.13907534500E+04  0.65864270000E+03 0.  0.
    8880022    1    1    2    0    0  0.99891347861E+03 -0.10022936953E+03 -0.23167322435E+04  0.25295284156E+04  0.15294330000E+03 0.  0.
<mgrwt>
<rscale>  0 0.11514568E+04</rscale>
<asrwt>0</asrwt>
<pdfrwt beam="1">  1        2 0.42578638E+00 0.12007016E+04</pdfrwt>
<pdfrwt beam="2">  1       -2 0.17733391E+00 0.12007016E+04</pdfrwt>
<totfact> 0.44839309E-01</totfact>
</mgrwt>
</event>
<event>
 4    1  0.3032637E-007  0.1204456E+04  0.7818608E-02  0.9152803E-01
          2   -1    0    0  501    0  0.00000000000E+00  0.00000000000E+00  0.97834816025E+03  0.97834816025E+03  0.25500000000E-02 0. -1.
         -2   -1    0    0    0  501 -0.00000000000E+00 -0.00000000000E+00 -0.21424781653E+04  0.21424781653E+04  0.25500000000E-02 0.  1.
    8880023    1    1    2    0    0 -0.48278117794E+03  0.88533936686E+03 -0.16075042977E+04  0.20086771104E+04  0.65864270000E+03 0.  0.
    8880022    1    1    2    0    0  0.48278117794E+03 -0.88533936686E+03  0.44337429272E+03  0.11121492151E+04  0.15294330000E+03 0.  0.
<mgrwt>
<rscale>  0 0.11554142E+04</rscale>
<asrwt>0</asrwt>
<pdfrwt beam="1">  1        2 0.15051510E+00 0.12044558E+04</pdfrwt>
<pdfrwt beam="2">  1       -2 0.32961203E+00 0.12044558E+04</pdfrwt>
<totfact> 0.53249828E-01</totfact>
</mgrwt>
</event>
<event>
 4    1  0.3032637E-007  0.7841820E+03  0.7818608E-02  0.9746104E-01
         -2   -1    0    0    0  501 -0.00000000000E+00  0.00000000000E+00  0.10022384296E+04  0.10022384296E+04  0.25500000000E-02 0.  1.
          2   -1    0    0  501    0  0.00000000000E+00 -0.00000000000E+00 -0.13725696880E+04  0.13725696880E+04  0.25500000000E-02 0. -1.
    8880023    1    1    2    0    0 -0.29440142356E+03 -0.30734171297E+03  0.79993684413E+03  0.11201965397E+04  0.65864270000E+03 0.  1.
    8880022    1    1    2    0    0  0.29440142356E+03  0.30734171297E+03 -0.11702681025E+04  0.12546115780E+04  0.15294330000E+03 0.  0.
<mgrwt>
<rscale>  0 0.68336911E+03</rscale>
<asrwt>0</asrwt>
<pdfrwt beam="1">  1        2 0.21116457E+00 0.78418195E+03</pdfrwt>
<pdfrwt beam="2">  1       -2 0.15419053E+00 0.78418195E+03</pdfrwt>
<totfact> 0.42584787E+00</totfact>
</mgrwt>
</event>
<event>
 4    1  0.3032637E-007  0.1644485E+04  0.7818608E-02  0.8813821E-01
         -2   -1    0    0    0  501 -0.00000000000E+00  0.00000000000E+00  0.17406678591E+04  0.17406678591E+04  0.25500000000E-02 0.  1.
          2   -1    0    0  501    0  0.00000000000E+00 -0.00000000000E+00 -0.18065718093E+04  0.18065718093E+04  0.25500000000E-02 0. -1.
    8880023    1    1    2    0    0  0.31176802204E+03 -0.14742189463E+04  0.77163508514E+03  0.18165218722E+04  0.65864270000E+03 0. -1.
    8880022    1    1    2    0    0 -0.31176802204E+03  0.14742189463E+04 -0.83753903532E+03  0.17307177962E+04  0.15294330000E+03 0.  0.
<mgrwt>
<rscale>  0 0.16109963E+04</rscale>
<asrwt>0</asrwt>
<pdfrwt beam="1">  1        2 0.27793413E+00 0.16444850E+04</pdfrwt>
<pdfrwt beam="2">  1       -2 0.26779505E+00 0.16444850E+04</pdfrwt>
<totfact> 0.39542523E-01</totfact>
</mgrwt>
</event>
<event>
 4    1  0.3032637E-007  0.7576930E+03  0.7818608E-02  0.9811117E-01
          2   -1    0    0  501    0  0.00000000000E+00  0.00000000000E+00  0.12438954414E+04  0.12438954414E+04  0.25500000000E-02 0. -1.
         -2   -1    0    0    0  501 -0.00000000000E+00 -0.00000000000E+00 -0.10935964724E+04  0.10935964725E+04  0.25500000000E-02 0.  1.
    8880023    1    1    2    0    0 -0.20174409781E+03  0.31557534051E+03 -0.92083961014E+03  0.11924949771E+04  0.65864270000E+03 0.  1.
    8880022    1    1    2    0    0  0.20174409781E+03 -0.31557534051E+03  0.10711385791E+04  0.11449969367E+04  0.15294330000E+03 0.  0.
<mgrwt>
<rscale>  0 0.64769337E+03</rscale>
<asrwt>0</asrwt>
<pdfrwt beam="1">  1        2 0.19136853E+00 0.75769300E+03</pdfrwt>
<pdfrwt beam="2">  1       -2 0.16824561E+00 0.75769300E+03</pdfrwt>
<totfact> 0.40004005E+00</totfact>
</mgrwt>
</event>
<event>
 4    1  0.3032637E-007  0.6928465E+03  0.7818608E-02  0.1002828E+00
          2   -1    0    0  501    0  0.00000000000E+00  0.00000000000E+00  0.31164954261E+04  0.31164954261E+04  0.25500000000E-02 0. -1.
         -2   -1    0    0    0  501 -0.00000000000E+00 -0.00000000000E+00 -0.36132541600E+03  0.36132541600E+03  0.25500000000E-02 0.  1.
    8880023    1    1    2    0    0  0.10904081392E+03  0.18530019416E+03 -0.17066248813E+02  0.69305665293E+03  0.65864270000E+03 0.  1.
    8880022    1    1    2    0    0 -0.10904081392E+03 -0.18530019416E+03  0.27722362589E+04  0.27847641891E+04  0.15294330000E+03 0.  0.
<mgrwt>
<rscale>  0 0.54427419E+03</rscale>
<asrwt>0</asrwt>
<pdfrwt beam="1">  1        2 0.47946081E+00 0.69284650E+03</pdfrwt>
<pdfrwt beam="2">  1       -2 0.55588529E-01 0.69284650E+03</pdfrwt>
<totfact> 0.48358769E+00</totfact>
</mgrwt>
</event>
<event>
 4    1  0.3032637E-007  0.6774571E+03  0.7818608E-02  0.1010800E+00
         -2   -1    0    0    0  501 -0.00000000000E+00  0.00000000000E+00  0.53372403950E+03  0.53372403950E+03  0.25500000000E-02 0.  1.
          2   -1    0    0  501    0  0.00000000000E+00 -0.00000000000E+00 -0.28207084652E+04  0.28207084652E+04  0.25500000000E-02 0. -1.
    8880023    1    1    2    0    0  0.13052030747E+03 -0.90012959584E+02  0.31219693041E+03  0.74593231139E+03  0.65864270000E+03 0.  1.
    8880022    1    1    2    0    0 -0.13052030747E+03  0.90012959584E+02 -0.25991813562E+04  0.26085001934E+04  0.15294330000E+03 0.  0.
<mgrwt>
<rscale>  0 0.51157829E+03</rscale>
<asrwt>0</asrwt>
<pdfrwt beam="1">  1        2 0.43395514E+00 0.67745708E+03</pdfrwt>
<pdfrwt beam="2">  1       -2 0.82111392E-01 0.67745708E+03</pdfrwt>
<totfact> 0.31531536E+00</totfact>
</mgrwt>
</event>
<event>
 4    1  0.3032637E-007  0.8904724E+03  0.7818608E-02  0.9541503E-01
         -2   -1    0    0    0  501 -0.00000000000E+00  0.00000000000E+00  0.49173118815E+03  0.49173118816E+03  0.25500000000E-02 0.  1.
          2   -1    0    0  501    0  0.00000000000E+00 -0.00000000000E+00 -0.12101079867E+04  0.12101079867E+04  0.25500000000E-02 0. -1.
    8880023    1    1    2    0    0 -0.38489587737E+03  0.45933220739E+03 -0.24668045889E+03  0.92400885722E+03  0.65864270000E+03 0.  1.
    8880022    1    1    2    0    0  0.38489587737E+03 -0.45933220739E+03 -0.47169633965E+03  0.77783031763E+03  0.15294330000E+03 0. -1.
<mgrwt>
<rscale>  0 0.81291939E+03</rscale>
<asrwt>0</asrwt>
<pdfrwt beam="1">  1        2 0.18617046E+00 0.89047241E+03</pdfrwt>
<pdfrwt beam="2">  1       -2 0.75650952E-01 0.89047241E+03</pdfrwt>
<totfact> 0.29412484E+01</totfact>
</mgrwt>
</event>
<event>
 4    1  0.3032637E-007  0.7579476E+03  0.7818608E-02  0.9810450E-01
          2   -1    0    0  501    0  0.00000000000E+00  0.00000000000E+00  0.20038344979E+04  0.20038344979E+04  0.25500000000E-02 0. -1.
         -2   -1    0    0    0  501 -0.00000000000E+00 -0.00000000000E+00 -0.63287387918E+03  0.63287387919E+03  0.25500000000E-02 0.  1.
    8880023    1    1    2    0    0 -0.90962388306E+02  0.36386838056E+03 -0.37410913848E+03  0.84524683272E+03  0.65864270000E+03 0.  1.
    8880022    1    1    2    0    0  0.90962388306E+02 -0.36386838056E+03  0.17450697572E+04  0.17914615444E+04  0.15294330000E+03 0.  0.
<mgrwt>
<rscale>  0 0.64804731E+03</rscale>
<asrwt>0</asrwt>
<pdfrwt beam="1">  1        2 0.30828223E+00 0.75794760E+03</pdfrwt>
<pdfrwt beam="2">  1       -2 0.97365212E-01 0.75794760E+03</pdfrwt>
<totfact> 0.60519105E+00</totfact>
</mgrwt>
</event>
<event>
 4    1  0.3032637E-007  0.1286012E+04  0.7818608E-02  0.9077734E-01
          2   -1    0    0  501    0  0.00000000000E+00  0.00000000000E+00  0.23263708220E+04  0.23263708220E+04  0.25500000000E-02 0. -1.
         -2   -1    0    0    0  501 -0.00000000000E+00 -0.00000000000E+00 -0.62663283329E+03  0.62663283329E+03  0.25500000000E-02 0.  1.
    8880023    1    1    2    0    0 -0.43331312694E+03 -0.10160005796E+04  0.75315758687E+03  0.14903268100E+04  0.65864270000E+03 0.  0.
    8880022    1    1    2    0    0  0.43331312694E+03  0.10160005796E+04  0.94658040185E+03  0.14626768453E+04  0.15294330000E+03 0.  0.
<mgrwt>
<rscale>  0 0.12409680E+04</rscale>
<asrwt>0</asrwt>
<pdfrwt beam="1">  1        2 0.35790320E+00 0.12860123E+04</pdfrwt>
<pdfrwt beam="2">  1       -2 0.96405052E-01 0.12860123E+04</pdfrwt>
<totfact> 0.38380900E+00</totfact>
</mgrwt>
</event>
<event>
 4    1  0.3032637E-007  0.6652195E+03  0.7818608E-02  0.1019350E+00
         -2   -1    0    0    0  501 -0.00000000000E+00  0.00000000000E+00  0.17516491063E+03  0.17516491065E+03  0.25500000000E-02 0.  1.
          2   -1    0    0  501    0  0.00000000000E+00 -0.00000000000E+00 -0.14825402881E+04  0.14825402881E+04  0.25500000000E-02 0. -1.
    8880023    1    1    2    0    0  0.92655864388E+02 -0.11028348640E+02 -0.50397441972E+03  0.83457004240E+03  0.65864270000E+03 0.  1.
    8880022    1    1    2    0    0 -0.92655864388E+02  0.11028348640E+02 -0.80340095772E+03  0.82313515632E+03  0.15294330000E+03 0.  0.
<mgrwt>
<rscale>  0 0.47921909E+03</rscale>
<asrwt>0</asrwt>
<pdfrwt beam="1">  1        2 0.22808311E+00 0.66521947E+03</pdfrwt>
<pdfrwt beam="2">  1       -2 0.26948449E-01 0.66521947E+03</pdfrwt>
<totfact> 0.16601608E+02</totfact>
</mgrwt>
</event>
<event>
 4    1  0.3032637E-007  0.8822715E+03  0.7818608E-02  0.9555113E-01
         -2   -1    0    0    0  501 -0.00000000000E+00  0.00000000000E+00  0.17055968400E+04  0.17055968400E+04  0.25500000000E-02 0.  1.
          2   -1    0    0  501    0  0.00000000000E+00 -0.00000000000E+00 -0.10979298805E+04  0.10979298805E+04  0.25500000000E-02 0. -1.
    8880023    1    1    2    0    0  0.25565805443E+03 -0.52842389419E+03  0.14906900600E+04  0.17322124333E+04  0.65864270000E+03 0.  1.
    8880022    1    1    2    0    0 -0.25565805443E+03  0.52842389419E+03 -0.88302310059E+03  0.10713142872E+04  0.15294330000E+03 0.  0.
<mgrwt>
<rscale>  0 0.80339734E+03</rscale>
<asrwt>0</asrwt>
<pdfrwt beam="1">  1        2 0.16891229E+00 0.88227153E+03</pdfrwt>
<pdfrwt beam="2">  1       -2 0.26239951E+00 0.88227153E+03</pdfrwt>
<totfact> 0.11967972E+00</totfact>
</mgrwt>
</event>
<event>
 4    1  0.3032637E-007  0.1160382E+04  0.7818608E-02  0.9196630E-01
          2   -1    0    0  501    0  0.00000000000E+00  0.00000000000E+00  0.10892291106E+04  0.10892291106E+04  0.25500000000E-02 0. -1.
         -2   -1    0    0    0  501 -0.00000000000E+00 -0.00000000000E+00 -0.15312913051E+04  0.15312913051E+04  0.25500000000E-02 0.  1.
    8880023    1    1    2    0    0 -0.95495003570E+03 -0.27332510859E+02 -0.97528467978E+03  0.15158057427E+04  0.65864270000E+03 0.  1.
    8880022    1    1    2    0    0  0.95495003570E+03  0.27332510859E+02  0.53322248523E+03  0.11047146729E+04  0.15294330000E+03 0.  0.
<mgrwt>
<rscale>  0 0.11088281E+04</rscale>
<asrwt>0</asrwt>
<pdfrwt beam="1">  1        2 0.16757371E+00 0.11603822E+04</pdfrwt>
<pdfrwt beam="2">  1       -2 0.23558328E+00 0.11603822E+04</pdfrwt>
<totfact> 0.17050669E+00</totfact>
</mgrwt>
</event>
<event>
 4    1  0.3032637E-007  0.9560409E+03  0.7818608E-02  0.9441475E-01
          2   -1    0    0  501    0  0.00000000000E+00  0.00000000000E+00  0.36119961627E+04  0.36119961627E+04  0.25500000000E-02 0. -1.
         -2   -1    0    0    0  501 -0.00000000000E+00 -0.00000000000E+00 -0.78704624041E+03  0.78704624042E+03  0.25500000000E-02 0.  1.
    8880023    1    1    2    0    0 -0.88348813709E+02 -0.68731246523E+03 -0.44388631623E+03  0.10540631887E+04  0.65864270000E+03 0.  1.
    8880022    1    1    2    0    0  0.88348813709E+02  0.68731246523E+03  0.32688362385E+04  0.33449792144E+04  0.15294330000E+03 0.  0.
<mgrwt>
<rscale>  0 0.88739624E+03</rscale>
<asrwt>0</asrwt>
<pdfrwt beam="1">  1        2 0.55569172E+00 0.95604087E+03</pdfrwt>
<pdfrwt beam="2">  1       -2 0.12108404E+00 0.95604087E+03</pdfrwt>
<totfact> 0.36705844E-01</totfact>
</mgrwt>
</event>
<event>
 4    1  0.3032637E-007  0.1160782E+04  0.7818608E-02  0.9196221E-01
         -2   -1    0    0    0  501 -0.00000000000E+00  0.00000000000E+00  0.64966184273E+03  0.64966184274E+03  0.25500000000E-02 0.  1.
          2   -1    0    0  501    0  0.00000000000E+00 -0.00000000000E+00 -0.24504573020E+04  0.24504573021E+04  0.25500000000E-02 0. -1.
    8880023    1    1    2    0    0 -0.83572044127E+03 -0.46386966100E+03 -0.12849670328E+03  0.11678721366E+04  0.65864270000E+03 0.  1.
    8880022    1    1    2    0    0  0.83572044127E+03  0.46386966100E+03 -0.16722987560E+04  0.19322470082E+04  0.15294330000E+03 0.  0.
<mgrwt>
<rscale>  0 0.11092516E+04</rscale>
<asrwt>0</asrwt>
<pdfrwt beam="1">  1        2 0.37699343E+00 0.11607816E+04</pdfrwt>
<pdfrwt beam="2">  1       -2 0.99947977E-01 0.11607816E+04</pdfrwt>
<totfact> 0.30363024E+00</totfact>
</mgrwt>
</event>
<event>
 4    1  0.3032637E-007  0.8576941E+03  0.7818608E-02  0.9597678E-01
          2   -1    0    0  501    0  0.00000000000E+00  0.00000000000E+00  0.10107659639E+04  0.10107659639E+04  0.25500000000E-02 0. -1.
         -2   -1    0    0    0  501 -0.00000000000E+00 -0.00000000000E+00 -0.64482392384E+03  0.64482392385E+03  0.25500000000E-02 0.  1.
    8880023    1    1    2    0    0 -0.40700532703E+03  0.36901982133E+03 -0.16842326371E+03  0.87407411973E+03  0.65864270000E+03 0.  0.
    8880022    1    1    2    0    0  0.40700532703E+03 -0.36901982133E+03  0.53436530373E+03  0.78151576799E+03  0.15294330000E+03 0.  0.
<mgrwt>
<rscale>  0 0.77450027E+03</rscale>
<asrwt>0</asrwt>
<pdfrwt beam="1">  1        2 0.15550246E+00 0.85769410E+03</pdfrwt>
<pdfrwt beam="2">  1       -2 0.99203681E-01 0.85769410E+03</pdfrwt>
<totfact> 0.20994123E+01</totfact>
</mgrwt>
</event>
<event>
 4    1  0.3032637E-007  0.8695104E+03  0.7818608E-02  0.9576865E-01
         -2   -1    0    0    0  501 -0.00000000000E+00  0.00000000000E+00  0.10022695294E+04  0.10022695294E+04  0.25500000000E-02 0.  1.
          2   -1    0    0  501    0  0.00000000000E+00 -0.00000000000E+00 -0.76066386380E+03  0.76066386381E+03  0.25500000000E-02 0. -1.
    8880023    1    1    2    0    0 -0.55362397495E+03  0.12545346131E+03  0.61630373261E+03  0.10657760429E+04  0.65864270000E+03 0.  1.
    8880022    1    1    2    0    0  0.55362397495E+03 -0.12545346131E+03 -0.37469806702E+03  0.69715735027E+03  0.15294330000E+03 0.  0.
<mgrwt>
<rscale>  0 0.78846507E+03</rscale>
<asrwt>0</asrwt>
<pdfrwt beam="1">  1        2 0.11702521E+00 0.86951037E+03</pdfrwt>
<pdfrwt beam="2">  1       -2 0.15419531E+00 0.86951037E+03</pdfrwt>
<totfact> 0.10286558E+01</totfact>
</mgrwt>
</event>
<event>
 4    1  0.3032637E-007  0.1149905E+04  0.7818608E-02  0.9207427E-01
         -2   -1    0    0    0  501 -0.00000000000E+00  0.00000000000E+00  0.18553015089E+04  0.18553015089E+04  0.25500000000E-02 0.  1.
          2   -1    0    0  501    0  0.00000000000E+00 -0.00000000000E+00 -0.94511051699E+03  0.94511051699E+03  0.25500000000E-02 0. -1.
    8880023    1    1    2    0    0  0.48273190763E+03  0.80959327903E+03  0.13292359287E+04  0.17575977164E+04  0.65864270000E+03 0.  0.
    8880022    1    1    2    0    0 -0.48273190763E+03 -0.80959327903E+03 -0.41904493681E+03  0.10428143095E+04  0.15294330000E+03 0.  0.
<mgrwt>
<rscale>  0 0.10977102E+04</rscale>
<asrwt>0</asrwt>
<pdfrwt beam="1">  1        2 0.14540162E+00 0.11499050E+04</pdfrwt>
<pdfrwt beam="2">  1       -2 0.28543100E+00 0.11499050E+04</pdfrwt>
<totfact> 0.10492024E+00</totfact>
</mgrwt>
</event>
<event>
 4    1  0.3032637E-007  0.7105204E+03  0.7818608E-02  0.9956074E-01
         -2   -1    0    0    0  501 -0.00000000000E+00  0.00000000000E+00  0.31786581830E+03  0.31786581831E+03  0.25500000000E-02 0.  1.
          2   -1    0    0  501    0  0.00000000000E+00 -0.00000000000E+00 -0.16669509118E+04  0.16669509118E+04  0.25500000000E-02 0. -1.
    8880023    1    1    2    0    0 -0.88986890800E+02 -0.25121771781E+03 -0.12334431472E+03  0.72114702711E+03  0.65864270000E+03 0.  0.
    8880022    1    1    2    0    0  0.88986890800E+02  0.25121771781E+03 -0.12257407788E+04  0.12636697030E+04  0.15294330000E+03 0.  0.
<mgrwt>
<rscale>  0 0.57619009E+03</rscale>
<asrwt>0</asrwt>
<pdfrwt beam="1">  1        2 0.25645398E+00 0.71052038E+03</pdfrwt>
<pdfrwt beam="2">  1       -2 0.48902435E-01 0.71052038E+03</pdfrwt>
<totfact> 0.41717421E+01</totfact>
</mgrwt>
</event>
<event>
 4    1  0.3032637E-007  0.7311241E+03  0.7818608E-02  0.9886600E-01
          2   -1    0    0  501    0  0.00000000000E+00  0.00000000000E+00  0.10829781028E+04  0.10829781028E+04  0.25500000000E-02 0. -1.
         -2   -1    0    0    0  501 -0.00000000000E+00 -0.00000000000E+00 -0.56152005597E+03  0.56152005597E+03  0.25500000000E-02 0.  1.
    8880023    1    1    2    0    0 -0.49818877849E+02  0.31344898857E+03 -0.26903211930E+03  0.77905113857E+03  0.65864270000E+03 0.  0.
    8880022    1    1    2    0    0  0.49818877849E+02 -0.31344898857E+03  0.79049016613E+03  0.86544702021E+03  0.15294330000E+03 0.  0.
<mgrwt>
<rscale>  0 0.60915135E+03</rscale>
<asrwt>0</asrwt>
<pdfrwt beam="1">  1        2 0.16661202E+00 0.73112406E+03</pdfrwt>
<pdfrwt beam="2">  1       -2 0.86387701E-01 0.73112406E+03</pdfrwt>
<totfact> 0.26418301E+01</totfact>
</mgrwt>
</event>
<event>
 4    1  0.3032637E-007  0.1320062E+04  0.7818608E-02  0.9048425E-01
          2   -1    0    0  501    0  0.00000000000E+00  0.00000000000E+00  0.18148398151E+04  0.18148398151E+04  0.25500000000E-02 0. -1.
         -2   -1    0    0    0  501 -0.00000000000E+00 -0.00000000000E+00 -0.11244645576E+04  0.11244645576E+04  0.25500000000E-02 0.  1.
    8880023    1    1    2    0    0 -0.82109764646E+03  0.79658862464E+03 -0.37109036827E+03  0.13712304874E+04  0.65864270000E+03 0.  1.
    8880022    1    1    2    0    0  0.82109764646E+03 -0.79658862464E+03  0.10614656257E+04  0.15680738852E+04  0.15294330000E+03 0.  0.
<mgrwt>
<rscale>  0 0.12764825E+04</rscale>
<asrwt>0</asrwt>
<pdfrwt beam="1">  1        2 0.27920612E+00 0.13200625E+04</pdfrwt>
<pdfrwt beam="2">  1       -2 0.17299455E+00 0.13200625E+04</pdfrwt>
<totfact> 0.16475408E+00</totfact>
</mgrwt>
</event>
<event>
 4    1  0.3032637E-007  0.1054223E+04  0.7818608E-02  0.9313822E-01
         -2   -1    0    0    0  501 -0.00000000000E+00  0.00000000000E+00  0.42426040862E+03  0.42426040862E+03  0.25500000000E-02 0.  1.
          2   -1    0    0  501    0  0.00000000000E+00 -0.00000000000E+00 -0.22995579803E+04  0.22995579803E+04  0.25500000000E-02 0. -1.
    8880023    1    1    2    0    0 -0.51442972818E+02  0.82154077547E+03 -0.64571995775E+03  0.12362605289E+04  0.65864270000E+03 0. -1.
    8880022    1    1    2    0    0  0.51442972818E+02 -0.82154077547E+03 -0.12295776139E+04  0.14875578600E+04  0.15294330000E+03 0.  0.
<mgrwt>
<rscale>  0 0.99520269E+03</rscale>
<asrwt>0</asrwt>
<pdfrwt beam="1">  1        2 0.35377814E+00 0.10542229E+04</pdfrwt>
<pdfrwt beam="2">  1       -2 0.65270833E-01 0.10542229E+04</pdfrwt>
<totfact> 0.98296800E+00</totfact>
</mgrwt>
</event>
<event>
 4    1  0.3032637E-007  0.1181390E+04  0.7818608E-02  0.9175428E-01
          2   -1    0    0  501    0  0.00000000000E+00  0.00000000000E+00  0.25127652213E+04  0.25127652213E+04  0.25500000000E-02 0. -1.
         -2   -1    0    0    0  501 -0.00000000000E+00 -0.00000000000E+00 -0.87152462386E+03  0.87152462386E+03  0.25500000000E-02 0.  1.
    8880023    1    1    2    0    0  0.86551387561E+03  0.46125703167E+03 -0.28683260108E+03  0.12157119171E+04  0.65864270000E+03 0.  0.
    8880022    1    1    2    0    0 -0.86551387561E+03 -0.46125703167E+03  0.19280731986E+04  0.21685779281E+04  0.15294330000E+03 0. -1.
<mgrwt>
<rscale>  0 0.11310689E+04</rscale>
<asrwt>0</asrwt>
<pdfrwt beam="1">  1        2 0.38657926E+00 0.11813901E+04</pdfrwt>
<pdfrwt beam="2">  1       -2 0.13408071E+00 0.11813901E+04</pdfrwt>
<totfact> 0.13486820E+00</totfact>
</mgrwt>
</event>
<event>
 4    1  0.3032637E-007  0.1448445E+04  0.7818608E-02  0.8946925E-01
         -2   -1    0    0    0  501 -0.00000000000E+00  0.00000000000E+00  0.18095970211E+04  0.18095970211E+04  0.25500000000E-02 0.  1.
          2   -1    0    0  501    0  0.00000000000E+00 -0.00000000000E+00 -0.17180313416E+04  0.17180313416E+04  0.25500000000E-02 0. -1.
    8880023    1    1    2    0    0 -0.14667734069E+03  0.12816666991E+04  0.11519965735E+04  0.18506998896E+04  0.65864270000E+03 0.  0.
    8880022    1    1    2    0    0  0.14667734069E+03 -0.12816666991E+04 -0.10604308940E+04  0.16769284731E+04  0.15294330000E+03 0.  0.
<mgrwt>
<rscale>  0 0.14095630E+04</rscale>
<asrwt>0</asrwt>
<pdfrwt beam="1">  1        2 0.26431251E+00 0.14484454E+04</pdfrwt>
<pdfrwt beam="2">  1       -2 0.27839954E+00 0.14484454E+04</pdfrwt>
<totfact> 0.38971859E-01</totfact>
</mgrwt>
</event>
<event>
 4    1  0.3032637E-007  0.1003910E+04  0.7818608E-02  0.9376461E-01
         -2   -1    0    0    0  501 -0.00000000000E+00  0.00000000000E+00  0.76513853036E+03  0.76513853036E+03  0.25500000000E-02 0.  1.
          2   -1    0    0  501    0  0.00000000000E+00 -0.00000000000E+00 -0.18068393457E+04  0.18068393457E+04  0.25500000000E-02 0. -1.
    8880023    1    1    2    0    0 -0.43148665167E+03  0.62277071073E+03  0.27879659810E+03  0.10419029888E+04  0.65864270000E+03 0.  0.
    8880022    1    1    2    0    0  0.43148665167E+03 -0.62277071073E+03 -0.13204974135E+04  0.15300748873E+04  0.15294330000E+03 0.  0.
<mgrwt>
<rscale>  0 0.94038460E+03</rscale>
<asrwt>0</asrwt>
<pdfrwt beam="1">  1        2 0.27797528E+00 0.10039095E+04</pdfrwt>
<pdfrwt beam="2">  1       -2 0.11771362E+00 0.10039095E+04</pdfrwt>
<totfact> 0.47464479E+00</totfact>
</mgrwt>
</event>
<event>
 4    1  0.3032637E-007  0.9502786E+03  0.7818608E-02  0.9449713E-01
          2   -1    0    0  501    0  0.00000000000E+00  0.00000000000E+00  0.46489279154E+03  0.46489279155E+03  0.25500000000E-02 0. -1.
         -2   -1    0    0    0  501 -0.00000000000E+00 -0.00000000000E+00 -0.17862867785E+04  0.17862867785E+04  0.25500000000E-02 0.  1.
    8880023    1    1    2    0    0 -0.95080971915E+02 -0.67836488030E+03 -0.27152116199E+03  0.98830827666E+03  0.65864270000E+03 0. -1.
    8880022    1    1    2    0    0  0.95080971915E+02  0.67836488030E+03 -0.10498728250E+04  0.12628712934E+04  0.15294330000E+03 0.  0.
<mgrwt>
<rscale>  0 0.88094995E+03</rscale>
<asrwt>0</asrwt>
<pdfrwt beam="1">  1        2 0.71521969E-01 0.95027865E+03</pdfrwt>
<pdfrwt beam="2">  1       -2 0.27481335E+00 0.95027865E+03</pdfrwt>
<totfact> 0.30625350E+00</totfact>
</mgrwt>
</event>
<event>
 4    1  0.3032637E-007  0.7455307E+03  0.7818608E-02  0.9844120E-01
          2   -1    0    0  501    0  0.00000000000E+00  0.00000000000E+00  0.40169973715E+04  0.40169973715E+04  0.25500000000E-02 0. -1.
         -2   -1    0    0    0  501 -0.00000000000E+00 -0.00000000000E+00 -0.11222803548E+03  0.11222803551E+03  0.25500000000E-02 0.  1.
    8880023    1    1    2    0    0 -0.18443674437E+03  0.29662932369E+03  0.13158393270E+04  0.15123654350E+04  0.65864270000E+03 0.  1.
    8880022    1    1    2    0    0  0.18443674437E+03 -0.29662932369E+03  0.25889300091E+04  0.26168599720E+04  0.15294330000E+03 0.  0.
<mgrwt>
<rscale>  0 0.63047633E+03</rscale>
<asrwt>0</asrwt>
<pdfrwt beam="1">  1        2 0.61799959E+00 0.74553073E+03</pdfrwt>
<pdfrwt beam="2">  1       -2 0.17265852E-01 0.74553073E+03</pdfrwt>
<totfact> 0.10076779E+01</totfact>
</mgrwt>
</event>
<event>
 4    1  0.3032637E-007  0.9559433E+03  0.7818608E-02  0.9441614E-01
          2   -1    0    0  501    0  0.00000000000E+00  0.00000000000E+00  0.11947590669E+04  0.11947590669E+04  0.25500000000E-02 0. -1.
         -2   -1    0    0    0  501 -0.00000000000E+00 -0.00000000000E+00 -0.13913390227E+04  0.13913390227E+04  0.25500000000E-02 0.  1.
    8880023    1    1    2    0    0 -0.16105391297E+02 -0.69264561411E+03 -0.10870110079E+04  0.14475567236E+04  0.65864270000E+03 0.  0.
    8880022    1    1    2    0    0  0.16105391297E+02  0.69264561411E+03  0.89043105215E+03  0.11385413660E+04  0.15294330000E+03 0.  0.
<mgrwt>
<rscale>  0 0.88728719E+03</rscale>
<asrwt>0</asrwt>
<pdfrwt beam="1">  1        2 0.18380909E+00 0.95594327E+03</pdfrwt>
<pdfrwt beam="2">  1       -2 0.21405216E+00 0.95594327E+03</pdfrwt>
<totfact> 0.20550204E+00</totfact>
</mgrwt>
</event>
<event>
 4    1  0.3032637E-007  0.1866176E+04  0.7818608E-02  0.8686787E-01
         -2   -1    0    0    0  501 -0.00000000000E+00  0.00000000000E+00  0.18929730540E+04  0.18929730540E+04  0.25500000000E-02 0.  1.
          2   -1    0    0  501    0  0.00000000000E+00 -0.00000000000E+00 -0.23472192161E+04  0.23472192161E+04  0.25500000000E-02 0. -1.
    8880023    1    1    2    0    0 -0.25969279969E+01  0.17460802250E+04  0.85471568492E+03  0.20525964057E+04  0.65864270000E+03 0.  0.
    8880022    1    1    2    0    0  0.25969279969E+01 -0.17460802250E+04 -0.13089618470E+04  0.21875958644E+04  0.15294330000E+03 0.  0.
<mgrwt>
<rscale>  0 0.18371539E+04</rscale>
<asrwt>0</asrwt>
<pdfrwt beam="1">  1        2 0.36111065E+00 0.18661761E+04</pdfrwt>
<pdfrwt beam="2">  1       -2 0.29122662E+00 0.18661761E+04</pdfrwt>
<totfact> 0.13788737E-01</totfact>
</mgrwt>
</event>
<event>
 4    1  0.3032637E-007  0.6870140E+03  0.7818608E-02  0.1005605E+00
          2   -1    0    0  501    0  0.00000000000E+00  0.00000000000E+00  0.12734212255E+04  0.12734212255E+04  0.25500000000E-02 0. -1.
         -2   -1    0    0    0  501 -0.00000000000E+00 -0.00000000000E+00 -0.50823223262E+03  0.50823223263E+03  0.25500000000E-02 0.  1.
    8880023    1    1    2    0    0  0.11085215997E+03  0.16090310001E+03 -0.25417410462E+03  0.73252487377E+03  0.65864270000E+03 0.  1.
    8880022    1    1    2    0    0 -0.11085215997E+03 -0.16090310001E+03  0.10193630975E+04  0.10491285844E+04  0.15294330000E+03 0.  0.
<mgrwt>
<rscale>  0 0.53259248E+03</rscale>
<asrwt>0</asrwt>
<pdfrwt beam="1">  1        2 0.19591096E+00 0.68701398E+03</pdfrwt>
<pdfrwt beam="2">  1       -2 0.78189574E-01 0.68701398E+03</pdfrwt>
<totfact> 0.25616218E+01</totfact>
</mgrwt>
</event>
<event>
 4    1  0.3032637E-007  0.1603539E+04  0.7818608E-02  0.8839785E-01
         -2   -1    0    0    0  501 -0.00000000000E+00  0.00000000000E+00  0.15003762200E+04  0.15003762200E+04  0.25500000000E-02 0.  1.
          2   -1    0    0  501    0  0.00000000000E+00 -0.00000000000E+00 -0.17618883253E+04  0.17618883253E+04  0.25500000000E-02 0. -1.
    8880023    1    1    2    0    0  0.55500771604E+03  0.13525876026E+04  0.39630578770E+03  0.16517854797E+04  0.65864270000E+03 0.  0.
    8880022    1    1    2    0    0 -0.55500771604E+03 -0.13525876026E+04 -0.65781789296E+03  0.16104790656E+04  0.15294330000E+03 0.  0.
<mgrwt>
<rscale>  0 0.15690595E+04</rscale>
<asrwt>0</asrwt>
<pdfrwt beam="1">  1        2 0.27105974E+00 0.16035389E+04</pdfrwt>
<pdfrwt beam="2">  1       -2 0.23082711E+00 0.16035389E+04</pdfrwt>
<totfact> 0.71153196E-01</totfact>
</mgrwt>
</event>
<event>
 4    1  0.3032637E-007  0.1444364E+04  0.7818608E-02  0.8949956E-01
         -2   -1    0    0    0  501 -0.00000000000E+00  0.00000000000E+00  0.21070190368E+04  0.21070190368E+04  0.25500000000E-02 0.  1.
          2   -1    0    0  501    0  0.00000000000E+00 -0.00000000000E+00 -0.15303603932E+04  0.15303603932E+04  0.25500000000E-02 0. -1.
    8880023    1    1    2    0    0 -0.12173254654E+04  0.41291105484E+03  0.14728799023E+04  0.20629014132E+04  0.65864270000E+03 0.  0.
    8880022    1    1    2    0    0  0.12173254654E+04 -0.41291105484E+03 -0.89622125872E+03  0.15744780168E+04  0.15294330000E+03 0.  0.
<mgrwt>
<rscale>  0 0.14053491E+04</rscale>
<asrwt>0</asrwt>
<pdfrwt beam="1">  1        2 0.23544006E+00 0.14443639E+04</pdfrwt>
<pdfrwt beam="2">  1       -2 0.32415678E+00 0.14443639E+04</pdfrwt>
<totfact> 0.26087951E-01</totfact>
</mgrwt>
</event>
<event>
 4    1  0.3032637E-007  0.7606267E+03  0.7818608E-02  0.9803488E-01
         -2   -1    0    0    0  501 -0.00000000000E+00  0.00000000000E+00  0.60195840371E+03  0.60195840371E+03  0.25500000000E-02 0.  1.
          2   -1    0    0  501    0  0.00000000000E+00 -0.00000000000E+00 -0.13290174883E+04  0.13290174883E+04  0.25500000000E-02 0. -1.
    8880023    1    1    2    0    0 -0.11190450686E+02  0.38028608295E+03  0.30572641158E+03  0.81976922123E+03  0.65864270000E+03 0.  0.
    8880022    1    1    2    0    0  0.11190450686E+02 -0.38028608295E+03 -0.10327854962E+04  0.11112066708E+04  0.15294330000E+03 0.  0.
<mgrwt>
<rscale>  0 0.65175704E+03</rscale>
<asrwt>0</asrwt>
<pdfrwt beam="1">  1        2 0.20446423E+00 0.76062667E+03</pdfrwt>
<pdfrwt beam="2">  1       -2 0.92608986E-01 0.76062667E+03</pdfrwt>
<totfact> 0.16041654E+01</totfact>
</mgrwt>
</event>
<event>
 4    1  0.3032637E-007  0.7399437E+03  0.7818608E-02  0.9860111E-01
         -2   -1    0    0    0  501 -0.00000000000E+00  0.00000000000E+00  0.15937027936E+03  0.15937027938E+03  0.25500000000E-02 0.  1.
          2   -1    0    0  501    0  0.00000000000E+00 -0.00000000000E+00 -0.20672860932E+04  0.20672860932E+04  0.25500000000E-02 0. -1.
    8880023    1    1    2    0    0  0.11073779043E+03 -0.31850221205E+03 -0.98291145178E+03  0.12302973810E+04  0.65864270000E+03 0.  0.
    8880022    1    1    2    0    0 -0.11073779043E+03  0.31850221205E+03 -0.92500436201E+03  0.99635899156E+03  0.15294330000E+03 0.  1.
<mgrwt>
<rscale>  0 0.62234038E+03</rscale>
<asrwt>0</asrwt>
<pdfrwt beam="1">  1        2 0.31804400E+00 0.73994373E+03</pdfrwt>
<pdfrwt beam="2">  1       -2 0.24518506E-01 0.73994373E+03</pdfrwt>
<totfact> 0.93634134E+01</totfact>
</mgrwt>
</event>
<event>
 4    1  0.3032637E-007  0.8684778E+03  0.7818608E-02  0.9578657E-01
          2   -1    0    0  501    0  0.00000000000E+00  0.00000000000E+00  0.12717329511E+04  0.12717329511E+04  0.25500000000E-02 0. -1.
         -2   -1    0    0    0  501 -0.00000000000E+00 -0.00000000000E+00 -0.66265727678E+03  0.66265727678E+03  0.25500000000E-02 0.  1.
    8880023    1    1    2    0    0 -0.26147726890E+03  0.50206886650E+03 -0.24136372347E+03  0.90139345578E+03  0.65864270000E+03 0.  0.
    8880022    1    1    2    0    0  0.26147726890E+03 -0.50206886650E+03  0.85043939780E+03  0.10329967721E+04  0.15294330000E+03 0.  0.
<mgrwt>
<rscale>  0 0.78725030E+03</rscale>
<asrwt>0</asrwt>
<pdfrwt beam="1">  1        2 0.19565122E+00 0.86847781E+03</pdfrwt>
<pdfrwt beam="2">  1       -2 0.10194727E+00 0.86847781E+03</pdfrwt>
<totfact> 0.13642982E+01</totfact>
</mgrwt>
</event>
<event>
 4    1  0.3032637E-007  0.6693639E+03  0.7818608E-02  0.1016123E+00
         -2   -1    0    0    0  501 -0.00000000000E+00  0.00000000000E+00  0.21853043885E+03  0.21853043886E+03  0.25500000000E-02 0.  1.
          2   -1    0    0  501    0  0.00000000000E+00 -0.00000000000E+00 -0.18799657522E+04  0.18799657522E+04  0.25500000000E-02 0. -1.
    8880023    1    1    2    0    0 -0.11784428962E+03 -0.18724188832E+02 -0.31788102386E+03  0.74101040710E+03  0.65864270000E+03 0.  1.
    8880022    1    1    2    0    0  0.11784428962E+03  0.18724188832E+02 -0.13435542895E+04  0.13574857840E+04  0.15294330000E+03 0.  0.
<mgrwt>
<rscale>  0 0.49112023E+03</rscale>
<asrwt>0</asrwt>
<pdfrwt beam="1">  1        2 0.28922549E+00 0.66936394E+03</pdfrwt>
<pdfrwt beam="2">  1       -2 0.33620069E-01 0.66936394E+03</pdfrwt>
<totfact> 0.66754537E+01</totfact>
</mgrwt>
</event>
<event>
 4    1  0.3032637E-007  0.6630629E+03  0.7818608E-02  0.1021217E+00
          2   -1    0    0  501    0  0.00000000000E+00  0.00000000000E+00  0.17716791730E+04  0.17716791730E+04  0.25500000000E-02 0. -1.
         -2   -1    0    0    0  501 -0.00000000000E+00 -0.00000000000E+00 -0.74000617414E+03  0.74000617414E+03  0.25500000000E-02 0.  1.
    8880023    1    1    2    0    0  0.46571344809E+02  0.60607926893E+02 -0.58606122822E+03  0.88494077793E+03  0.65864270000E+03 0.  1.
    8880022    1    1    2    0    0 -0.46571344809E+02 -0.60607926893E+02  0.16177342271E+04  0.16267445692E+04  0.15294330000E+03 0.  0.
<mgrwt>
<rscale>  0 0.47250002E+03</rscale>
<asrwt>0</asrwt>
<pdfrwt beam="1">  1        2 0.27256603E+00 0.66306291E+03</pdfrwt>
<pdfrwt beam="2">  1       -2 0.11384710E+00 0.66306291E+03</pdfrwt>
<totfact> 0.56545246E+00</totfact>
</mgrwt>
</event>
<event>
 4    1  0.3032637E-007  0.1278433E+04  0.7818608E-02  0.9084411E-01
          2   -1    0    0  501    0  0.00000000000E+00  0.00000000000E+00  0.27802181934E+04  0.27802181934E+04  0.25500000000E-02 0. -1.
         -2   -1    0    0    0  501 -0.00000000000E+00 -0.00000000000E+00 -0.61551919785E+03  0.61551919786E+03  0.25500000000E-02 0.  1.
    8880023    1    1    2    0    0 -0.10954875608E+04  0.22102592509E+02  0.45041562960E+03  0.13554578437E+04  0.65864270000E+03 0.  1.
    8880022    1    1    2    0    0  0.10954875608E+04 -0.22102592509E+02  0.17142833660E+04  0.20402795476E+04  0.15294330000E+03 0.  0.
<mgrwt>
<rscale>  0 0.12330482E+04</rscale>
<asrwt>0</asrwt>
<pdfrwt beam="1">  1        2 0.42772588E+00 0.12784333E+04</pdfrwt>
<pdfrwt beam="2">  1       -2 0.94695261E-01 0.12784333E+04</pdfrwt>
<totfact> 0.21843712E+00</totfact>
</mgrwt>
</event>
<event>
 4    1  0.3032637E-007  0.6789471E+03  0.7818608E-02  0.1009926E+00
         -2   -1    0    0    0  501 -0.00000000000E+00  0.00000000000E+00  0.38753785794E+03  0.38753785795E+03  0.25500000000E-02 0.  1.
          2   -1    0    0  501    0  0.00000000000E+00 -0.00000000000E+00 -0.20396104912E+04  0.20396104912E+04  0.25500000000E-02 0. -1.
    8880023    1    1    2    0    0  0.12652929820E+02  0.16431331447E+03  0.77198896019E+02  0.68332191371E+03  0.65864270000E+03 0.  1.
    8880022    1    1    2    0    0 -0.12652929820E+02 -0.16431331447E+03 -0.17292715293E+04  0.17438264355E+04  0.15294330000E+03 0.  0.
<mgrwt>
<rscale>  0 0.51504214E+03</rscale>
<asrwt>0</asrwt>
<pdfrwt beam="1">  1        2 0.31378622E+00 0.67894710E+03</pdfrwt>
<pdfrwt beam="2">  1       -2 0.59621210E-01 0.67894710E+03</pdfrwt>
<totfact> 0.17442450E+01</totfact>
</mgrwt>
</event>
<event>
 4    1  0.3032637E-007  0.1743751E+04  0.7818608E-02  0.8754306E-01
          2   -1    0    0  501    0  0.00000000000E+00  0.00000000000E+00  0.13780154702E+04  0.13780154702E+04  0.25500000000E-02 0. -1.
         -2   -1    0    0    0  501 -0.00000000000E+00 -0.00000000000E+00 -0.23728023454E+04  0.23728023454E+04  0.25500000000E-02 0.  1.
    8880023    1    1    2    0    0 -0.13700334028E+04 -0.85432192324E+03 -0.11990218307E+04  0.21162043924E+04  0.65864270000E+03 0.  0.
    8880022    1    1    2    0    0  0.13700334028E+04  0.85432192324E+03  0.20423495562E+03  0.16346134233E+04  0.15294330000E+03 0.  0.
<mgrwt>
<rscale>  0 0.17124306E+04</rscale>
<asrwt>0</asrwt>
<pdfrwt beam="1">  1        2 0.21200238E+00 0.17437510E+04</pdfrwt>
<pdfrwt beam="2">  1       -2 0.36504651E+00 0.17437510E+04</pdfrwt>
<totfact> 0.17107020E-01</totfact>
</mgrwt>
</event>
<event>
 4    1  0.3032637E-007  0.7391511E+03  0.7818608E-02  0.9862427E-01
         -2   -1    0    0    0  501 -0.00000000000E+00  0.00000000000E+00  0.35610839605E+03  0.35610839606E+03  0.25500000000E-02 0.  1.
          2   -1    0    0  501    0  0.00000000000E+00 -0.00000000000E+00 -0.15086102823E+04  0.15086102823E+04  0.25500000000E-02 0. -1.
    8880023    1    1    2    0    0 -0.33385518260E+03  0.32785437618E+02 -0.95537994633E+02  0.74529986083E+03  0.65864270000E+03 0.  0.
    8880022    1    1    2    0    0  0.33385518260E+03 -0.32785437618E+02 -0.10569638916E+04  0.11194188175E+04  0.15294330000E+03 0.  0.
<mgrwt>
<rscale>  0 0.62117315E+03</rscale>
<asrwt>0</asrwt>
<pdfrwt beam="1">  1        2 0.23209389E+00 0.73915112E+03</pdfrwt>
<pdfrwt beam="2">  1       -2 0.54785908E-01 0.73915112E+03</pdfrwt>
<totfact> 0.40280605E+01</totfact>
</mgrwt>
</event>
<event>
 4    1  0.3032637E-007  0.1080161E+04  0.7818608E-02  0.9283472E-01
         -2   -1    0    0    0  501 -0.00000000000E+00  0.00000000000E+00  0.12955803779E+04  0.12955803779E+04  0.25500000000E-02 0.  1.
          2   -1    0    0  501    0  0.00000000000E+00 -0.00000000000E+00 -0.23951093894E+04  0.23951093894E+04  0.25500000000E-02 0. -1.
    8880023    1    1    2    0    0  0.63817400101E+03 -0.57067652354E+03  0.96627596136E+03  0.14492885116E+04  0.65864270000E+03 0.  0.
    8880022    1    1    2    0    0 -0.63817400101E+03  0.57067652354E+03 -0.20658049729E+04  0.22414012557E+04  0.15294330000E+03 0. -1.
<mgrwt>
<rscale>  0 0.10231876E+04</rscale>
<asrwt>0</asrwt>
<pdfrwt beam="1">  1        2 0.36847837E+00 0.10801611E+04</pdfrwt>
<pdfrwt beam="2">  1       -2 0.19932006E+00 0.10801611E+04</pdfrwt>
<totfact> 0.53327700E-01</totfact>
</mgrwt>
</event>
<event>
 4    1  0.3032637E-007  0.1238230E+04  0.7818608E-02  0.9120827E-01
         -2   -1    0    0    0  501 -0.00000000000E+00  0.00000000000E+00  0.13836152091E+04  0.13836152091E+04  0.25500000000E-02 0.  1.
          2   -1    0    0  501    0  0.00000000000E+00 -0.00000000000E+00 -0.96454398651E+03  0.96454398651E+03  0.25500000000E-02 0. -1.
    8880023    1    1    2    0    0 -0.55002335660E+03 -0.89268030226E+03  0.34777897605E+03  0.12861431636E+04  0.65864270000E+03 0.  0.
    8880022    1    1    2    0    0  0.55002335660E+03  0.89268030226E+03  0.71292246561E+02  0.10620160320E+04  0.15294330000E+03 0.  0.
<mgrwt>
<rscale>  0 0.11909366E+04</rscale>
<asrwt>0</asrwt>
<pdfrwt beam="1">  1        2 0.14839138E+00 0.12382302E+04</pdfrwt>
<pdfrwt beam="2">  1       -2 0.21286388E+00 0.12382302E+04</pdfrwt>
<totfact> 0.28265938E+00</totfact>
</mgrwt>
</event>
<event>
 4    1  0.3032637E-007  0.8948388E+03  0.7818608E-02  0.9534368E-01
          2   -1    0    0  501    0  0.00000000000E+00  0.00000000000E+00  0.20034349919E+04  0.20034349919E+04  0.25500000000E-02 0. -1.
         -2   -1    0    0    0  501 -0.00000000000E+00 -0.00000000000E+00 -0.37177377349E+03  0.37177377349E+03  0.25500000000E-02 0.  1.
    8880023    1    1    2    0    0  0.42294800478E+03  0.43363724896E+03  0.37191156198E+03  0.96904834484E+03  0.65864270000E+03 0.  1.
    8880022    1    1    2    0    0 -0.42294800478E+03 -0.43363724896E+03  0.12597496564E+04  0.14061604205E+04  0.15294330000E+03 0.  0.
<mgrwt>
<rscale>  0 0.81796726E+03</rscale>
<asrwt>0</asrwt>
<pdfrwt beam="1">  1        2 0.30822076E+00 0.89483880E+03</pdfrwt>
<pdfrwt beam="2">  1       -2 0.57195966E-01 0.89483880E+03</pdfrwt>
<totfact> 0.19348828E+01</totfact>
</mgrwt>
</event>
<event>
 4    1  0.3032637E-007  0.8261110E+03  0.7818608E-02  0.9656947E-01
          2   -1    0    0  501    0  0.00000000000E+00  0.00000000000E+00  0.12614591524E+04  0.12614591524E+04  0.25500000000E-02 0. -1.
         -2   -1    0    0    0  501 -0.00000000000E+00 -0.00000000000E+00 -0.80788255370E+03  0.80788255370E+03  0.25500000000E-02 0.  1.
    8880023    1    1    2    0    0  0.38261564755E+03  0.31977259782E+03 -0.51199468703E+03  0.97190432342E+03  0.65864270000E+03 0.  1.
    8880022    1    1    2    0    0 -0.38261564755E+03 -0.31977259782E+03  0.96557128570E+03  0.10974373827E+04  0.15294330000E+03 0.  0.
<mgrwt>
<rscale>  0 0.73639036E+03</rscale>
<asrwt>0</asrwt>
<pdfrwt beam="1">  1        2 0.19407064E+00 0.82611104E+03</pdfrwt>
<pdfrwt beam="2">  1       -2 0.12428962E+00 0.82611104E+03</pdfrwt>
<totfact> 0.85659250E+00</totfact>
</mgrwt>
</event>
<event>
 4    1  0.3032637E-007  0.1682831E+04  0.7818608E-02  0.8790278E-01
          2   -1    0    0  501    0  0.00000000000E+00  0.00000000000E+00  0.28879117928E+04  0.28879117928E+04  0.25500000000E-02 0. -1.
         -2   -1    0    0    0  501 -0.00000000000E+00 -0.00000000000E+00 -0.10469578481E+04  0.10469578481E+04  0.25500000000E-02 0.  1.
    8880023    1    1    2    0    0  0.15296217308E+04  0.24159219407E+03  0.23584560997E+03  0.16992771362E+04  0.65864270000E+03 0.  0.
    8880022    1    1    2    0    0 -0.15296217308E+04 -0.24159219407E+03  0.16051083347E+04  0.22355925046E+04  0.15294330000E+03 0.  0.
<mgrwt>
<rscale>  0 0.16502165E+04</rscale>
<asrwt>0</asrwt>
<pdfrwt beam="1">  1        2 0.44429412E+00 0.16828308E+04</pdfrwt>
<pdfrwt beam="2">  1       -2 0.16107044E+00 0.16828308E+04</pdfrwt>
<totfact> 0.46876293E-01</totfact>
</mgrwt>
</event>
<event>
 4    1  0.3032637E-007  0.1048295E+04  0.7818608E-02  0.9320933E-01
         -2   -1    0    0    0  501 -0.00000000000E+00  0.00000000000E+00  0.14715455128E+04  0.14715455128E+04  0.25500000000E-02 0.  1.
          2   -1    0    0  501    0  0.00000000000E+00 -0.00000000000E+00 -0.72393695315E+03  0.72393695315E+03  0.25500000000E-02 0. -1.
    8880023    1    1    2    0    0 -0.47700952261E+03  0.66149436685E+03 -0.43268602219E+02  0.10491879051E+04  0.65864270000E+03 0.  0.
    8880022    1    1    2    0    0  0.47700952261E+03 -0.66149436685E+03  0.79087716186E+03  0.11462945608E+04  0.15294330000E+03 0.  0.
<mgrwt>
<rscale>  0 0.98878322E+03</rscale>
<asrwt>0</asrwt>
<pdfrwt beam="1">  1        2 0.11137492E+00 0.10482953E+04</pdfrwt>
<pdfrwt beam="2">  1       -2 0.22639162E+00 0.10482953E+04</pdfrwt>
<totfact> 0.35017842E+00</totfact>
</mgrwt>
</event>
<event>
 4    1  0.3032637E-007  0.7234787E+03  0.7818608E-02  0.9910986E-01
          2   -1    0    0  501    0  0.00000000000E+00  0.00000000000E+00  0.21308312942E+04  0.21308312942E+04  0.25500000000E-02 0. -1.
         -2   -1    0    0    0  501 -0.00000000000E+00 -0.00000000000E+00 -0.31448359659E+03  0.31448359660E+03  0.25500000000E-02 0.  1.
    8880023    1    1    2    0    0  0.19605879619E+03  0.22621262045E+03  0.14165386123E+03  0.73721585976E+03  0.65864270000E+03 0.  0.
    8880022    1    1    2    0    0 -0.19605879619E+03 -0.22621262045E+03  0.16746938364E+04  0.17080990311E+04  0.15294330000E+03 0. -1.
<mgrwt>
<rscale>  0 0.59731783E+03</rscale>
<asrwt>0</asrwt>
<pdfrwt beam="1">  1        2 0.32782021E+00 0.72347868E+03</pdfrwt>
<pdfrwt beam="2">  1       -2 0.48382090E-01 0.72347868E+03</pdfrwt>
<totfact> 0.23767919E+01</totfact>
</mgrwt>
</event>
<event>
 4    1  0.3032637E-007  0.1024787E+04  0.7818608E-02  0.9349824E-01
         -2   -1    0    0    0  501 -0.00000000000E+00  0.00000000000E+00  0.78536924929E+03  0.78536924929E+03  0.25500000000E-02 0.  1.
          2   -1    0    0  501    0  0.00000000000E+00 -0.00000000000E+00 -0.14083050280E+04  0.14083050280E+04  0.25500000000E-02 0. -1.
    8880023    1    1    2    0    0 -0.32173431335E+03  0.71614555557E+03  0.20214364277E+03  0.10445332372E+04  0.65864270000E+03 0. -1.
    8880022    1    1    2    0    0  0.32173431335E+03 -0.71614555557E+03 -0.82507942149E+03  0.11491410400E+04  0.15294330000E+03 0.  0.
<mgrwt>
<rscale>  0 0.96322555E+03</rscale>
<asrwt>0</asrwt>
<pdfrwt beam="1">  1        2 0.21666231E+00 0.10247866E+04</pdfrwt>
<pdfrwt beam="2">  1       -2 0.12082604E+00 0.10247866E+04</pdfrwt>
<totfact> 0.74035887E+00</totfact>
</mgrwt>
</event>
<event>
 4    1  0.3047287E-007  0.1188992E+04  0.7818608E-02  0.9167897E-01
         -2   -1    0    0    0  501 -0.00000000000E+00  0.00000000000E+00  0.12064351526E+04  0.12064351526E+04  0.25500000000E-02 0.  1.
          2   -1    0    0  501    0  0.00000000000E+00 -0.00000000000E+00 -0.43420282626E+04  0.43420282626E+04  0.25500000000E-02 0. -1.
    8880023    1    1    2    0    0 -0.98222518779E+03  0.12298857704E+03  0.83537310437E+03  0.14531176619E+04  0.65864270000E+03 0.  1.
    8880022    1    1    2    0    0  0.98222518779E+03 -0.12298857704E+03 -0.39709662144E+04  0.40953457533E+04  0.15294330000E+03 0.  0.
<mgrwt>
<rscale>  0 0.11391011E+04</rscale>
<asrwt>0</asrwt>
<pdfrwt beam="1">  1        2 0.66800434E+00 0.11889923E+04</pdfrwt>
<pdfrwt beam="2">  1       -2 0.18560541E+00 0.11889923E+04</pdfrwt>
<totfact> 0.29373795E-02</totfact>
</mgrwt>
</event>
<event>
 4    1  0.3032637E-007  0.1239167E+04  0.7818608E-02  0.9119958E-01
          2   -1    0    0  501    0  0.00000000000E+00  0.00000000000E+00  0.13784826058E+04  0.13784826058E+04  0.25500000000E-02 0. -1.
         -2   -1    0    0    0  501 -0.00000000000E+00 -0.00000000000E+00 -0.10498418103E+04  0.10498418103E+04  0.25500000000E-02 0.  1.
    8880023    1    1    2    0    0  0.10459229881E+04 -0.88148680179E+02  0.53157341807E+03  0.13483714592E+04  0.65864270000E+03 0.  0.
    8880022    1    1    2    0    0 -0.10459229881E+04  0.88148680179E+02 -0.20293262254E+03  0.10799529570E+04  0.15294330000E+03 0.  0.
<mgrwt>
<rscale>  0 0.11919200E+04</rscale>
<asrwt>0</asrwt>
<pdfrwt beam="1">  1        2 0.21207425E+00 0.12391672E+04</pdfrwt>
<pdfrwt beam="2">  1       -2 0.16151412E+00 0.12391672E+04</pdfrwt>
<totfact> 0.35377652E+00</totfact>
</mgrwt>
</event>
<event>
 4    1  0.3032637E-007  0.1276227E+04  0.7818608E-02  0.9086366E-01
          2   -1    0    0  501    0  0.00000000000E+00  0.00000000000E+00  0.17105865813E+04  0.17105865813E+04  0.25500000000E-02 0. -1.
         -2   -1    0    0    0  501 -0.00000000000E+00 -0.00000000000E+00 -0.15655779699E+04  0.15655779699E+04  0.25500000000E-02 0.  1.
    8880023    1    1    2    0    0 -0.79997400706E+03  0.74497349518E+03 -0.10476217309E+04  0.16511406415E+04  0.65864270000E+03 0.  0.
    8880022    1    1    2    0    0  0.79997400706E+03 -0.74497349518E+03  0.11926303424E+04  0.16250239097E+04  0.15294330000E+03 0.  0.
<mgrwt>
<rscale>  0 0.12307411E+04</rscale>
<asrwt>0</asrwt>
<pdfrwt beam="1">  1        2 0.26316717E+00 0.12762265E+04</pdfrwt>
<pdfrwt beam="2">  1       -2 0.24085815E+00 0.12762265E+04</pdfrwt>
<totfact> 0.68116588E-01</totfact>
</mgrwt>
</event>
<event>
 4    1  0.3032637E-007  0.9621291E+03  0.7818608E-02  0.9432874E-01
          2   -1    0    0  501    0  0.00000000000E+00  0.00000000000E+00  0.27532793508E+04  0.27532793508E+04  0.25500000000E-02 0. -1.
         -2   -1    0    0    0  501 -0.00000000000E+00 -0.00000000000E+00 -0.85388513779E+03  0.85388513780E+03  0.25500000000E-02 0.  1.
    8880023    1    1    2    0    0 -0.70093716490E+03 -0.23859834217E+02 -0.51292206681E+03  0.10903125486E+04  0.65864270000E+03 0.  1.
    8880022    1    1    2    0    0  0.70093716490E+03  0.23859834217E+02  0.24123162798E+04  0.25168519399E+04  0.15294330000E+03 0.  0.
<mgrwt>
<rscale>  0 0.89418993E+03</rscale>
<asrwt>0</asrwt>
<pdfrwt beam="1">  1        2 0.42358144E+00 0.96212910E+03</pdfrwt>
<pdfrwt beam="2">  1       -2 0.13136694E+00 0.96212910E+03</pdfrwt>
<totfact> 0.10623096E+00</totfact>
</mgrwt>
</event>
<event>
 4    1  0.3032637E-007  0.8729266E+03  0.7818608E-02  0.9570971E-01
         -2   -1    0    0    0  501 -0.00000000000E+00  0.00000000000E+00  0.68523794827E+03  0.68523794827E+03  0.25500000000E-02 0.  1.
          2   -1    0    0  501    0  0.00000000000E+00 -0.00000000000E+00 -0.21438205790E+04  0.21438205790E+04  0.25500000000E-02 0. -1.
    8880023    1    1    2    0    0  0.56049430343E+03 -0.11847690279E+03  0.33882181088E+03  0.93637656232E+03  0.65864270000E+03 0.  1.
    8880022    1    1    2    0    0 -0.56049430343E+03  0.11847690279E+03 -0.17974044416E+04  0.18926819649E+04  0.15294330000E+03 0.  0.
<mgrwt>
<rscale>  0 0.79247701E+03</rscale>
<asrwt>0</asrwt>
<pdfrwt beam="1">  1        2 0.32981855E+00 0.87292660E+03</pdfrwt>
<pdfrwt beam="2">  1       -2 0.10542122E+00 0.87292660E+03</pdfrwt>
<totfact> 0.41224575E+00</totfact>
</mgrwt>
</event>
<event>
 4    1  0.3032637E-007  0.8818792E+03  0.7818608E-02  0.9555771E-01
          2   -1    0    0  501    0  0.00000000000E+00  0.00000000000E+00  0.77341985087E+03  0.77341985087E+03  0.25500000000E-02 0. -1.
         -2   -1    0    0    0  501 -0.00000000000E+00 -0.00000000000E+00 -0.74010583524E+03  0.74010583525E+03  0.25500000000E-02 0.  1.
    8880023    1    1    2    0    0  0.24491200409E+03  0.53284040454E+03 -0.11567731960E+03  0.88943365969E+03  0.65864270000E+03 0.  0.
    8880022    1    1    2    0    0 -0.24491200409E+03 -0.53284040454E+03  0.14899133523E+03  0.62409202642E+03  0.15294330000E+03 0.  1.
<mgrwt>
<rscale>  0 0.80294045E+03</rscale>
<asrwt>0</asrwt>
<pdfrwt beam="1">  1        2 0.11898767E+00 0.88187924E+03</pdfrwt>
<pdfrwt beam="2">  1       -2 0.11386244E+00 0.88187924E+03</pdfrwt>
<totfact> 0.21821353E+01</totfact>
</mgrwt>
</event>
<event>
 4    1  0.3032637E-007  0.7441876E+03  0.7818608E-02  0.9847913E-01
         -2   -1    0    0    0  501 -0.00000000000E+00  0.00000000000E+00  0.17101012338E+03  0.17101012340E+03  0.25500000000E-02 0.  1.
          2   -1    0    0  501    0  0.00000000000E+00 -0.00000000000E+00 -0.22612547247E+04  0.22612547247E+04  0.25500000000E-02 0. -1.
    8880023    1    1    2    0    0  0.34641365016E+03  0.15885223187E+01 -0.82261951744E+03  0.11092871662E+04  0.65864270000E+03 0.  0.
    8880022    1    1    2    0    0 -0.34641365016E+03 -0.15885223187E+01 -0.12676250839E+04  0.13229776818E+04  0.15294330000E+03 0.  0.
<mgrwt>
<rscale>  0 0.62853456E+03</rscale>
<asrwt>0</asrwt>
<pdfrwt beam="1">  1        2 0.34788532E+00 0.74418757E+03</pdfrwt>
<pdfrwt beam="2">  1       -2 0.26309251E-01 0.74418757E+03</pdfrwt>
<totfact> 0.64446458E+01</totfact>
</mgrwt>
</event>
<event>
 4    1  0.3032637E-007  0.9060193E+03  0.7818608E-02  0.9516437E-01
         -2   -1    0    0    0  501 -0.00000000000E+00  0.00000000000E+00  0.58100669526E+03  0.58100669527E+03  0.25500000000E-02 0.  1.
          2   -1    0    0  501    0  0.00000000000E+00 -0.00000000000E+00 -0.25899299963E+04  0.25899299963E+04  0.25500000000E-02 0. -1.
    8880023    1    1    2    0    0  0.52520815409E+03 -0.33349227147E+03  0.15054086760E+03  0.91844077617E+03  0.65864270000E+03 0.  0.
    8880022    1    1    2    0    0 -0.52520815409E+03  0.33349227147E+03 -0.21594641686E+04  0.22524959154E+04  0.15294330000E+03 0.  0.
<mgrwt>
<rscale>  0 0.83082760E+03</rscale>
<asrwt>0</asrwt>
<pdfrwt beam="1">  1        2 0.39845076E+00 0.90601926E+03</pdfrwt>
<pdfrwt beam="2">  1       -2 0.89385647E-01 0.90601926E+03</pdfrwt>
<totfact> 0.33959562E+00</totfact>
</mgrwt>
</event>
<event>
 4    1  0.3032637E-007  0.7602837E+03  0.7818608E-02  0.9804373E-01
         -2   -1    0    0    0  501 -0.00000000000E+00  0.00000000000E+00  0.64184103121E+03  0.64184103122E+03  0.25500000000E-02 0.  1.
          2   -1    0    0  501    0  0.00000000000E+00 -0.00000000000E+00 -0.16761001722E+04  0.16761001722E+04  0.25500000000E-02 0. -1.
    8880023    1    1    2    0    0  0.35703121894E+03  0.12942132445E+03  0.37691081680E+03  0.84858301928E+03  0.65864270000E+03 0.  1.
    8880022    1    1    2    0    0 -0.35703121894E+03 -0.12942132445E+03 -0.14111699578E+04  0.14693581841E+04  0.15294330000E+03 0.  0.
<mgrwt>
<rscale>  0 0.65128366E+03</rscale>
<asrwt>0</asrwt>
<pdfrwt beam="1">  1        2 0.25786156E+00 0.76028375E+03</pdfrwt>
<pdfrwt beam="2">  1       -2 0.98744775E-01 0.76028375E+03</pdfrwt>
<totfact> 0.88360353E+00</totfact>
</mgrwt>
</event>
<event>
 4    1  0.3032637E-007  0.6921003E+03  0.7818608E-02  0.1003170E+00
          2   -1    0    0  501    0  0.00000000000E+00  0.00000000000E+00  0.14252676226E+04  0.14252676226E+04  0.25500000000E-02 0. -1.
         -2   -1    0    0    0  501 -0.00000000000E+00 -0.00000000000E+00 -0.22011147943E+03  0.22011147944E+03  0.25500000000E-02 0.  1.
    8880023    1    1    2    0    0 -0.74843214261E+02 -0.19897517803E+03  0.40149780686E+03  0.80012706702E+03  0.65864270000E+03 0.  1.
    8880022    1    1    2    0    0  0.74843214261E+02  0.19897517803E+03  0.80365833635E+03  0.84525203507E+03  0.15294330000E+03 0.  0.
<mgrwt>
<rscale>  0 0.54281877E+03</rscale>
<asrwt>0</asrwt>
<pdfrwt beam="1">  1        2 0.21927194E+00 0.69210031E+03</pdfrwt>
<pdfrwt beam="2">  1       -2 0.33863305E-01 0.69210031E+03</pdfrwt>
<totfact> 0.11668461E+02</totfact>
</mgrwt>
</event>
<event>
 4    1  0.3032637E-007  0.7100463E+03  0.7818608E-02  0.9957829E-01
          2   -1    0    0  501    0  0.00000000000E+00  0.00000000000E+00  0.87536954730E+03  0.87536954730E+03  0.25500000000E-02 0. -1.
         -2   -1    0    0    0  501 -0.00000000000E+00 -0.00000000000E+00 -0.41049811517E+03  0.41049811518E+03  0.25500000000E-02 0.  1.
    8880023    1    1    2    0    0  0.25394024003E+03  0.76615087910E+02 -0.22383141938E+02  0.71039899247E+03  0.65864270000E+03 0.  1.
    8880022    1    1    2    0    0 -0.25394024003E+03 -0.76615087910E+02  0.48725457406E+03  0.57546867001E+03  0.15294330000E+03 0.  0.
<mgrwt>
<rscale>  0 0.57538663E+03</rscale>
<asrwt>0</asrwt>
<pdfrwt beam="1">  1        2 0.13467224E+00 0.71004628E+03</pdfrwt>
<pdfrwt beam="2">  1       -2 0.63153556E-01 0.71004628E+03</pdfrwt>
<totfact> 0.71973080E+01</totfact>
</mgrwt>
</event>
<event>
 4    1  0.3032637E-007  0.6971160E+03  0.7818608E-02  0.1000938E+00
         -2   -1    0    0    0  501 -0.00000000000E+00  0.00000000000E+00  0.24290139401E+03  0.24290139402E+03  0.25500000000E-02 0.  1.
          2   -1    0    0  501    0  0.00000000000E+00 -0.00000000000E+00 -0.24842717756E+04  0.24842717756E+04  0.25500000000E-02 0. -1.
    8880023    1    1    2    0    0  0.58687459409E+02 -0.22071758452E+03 -0.28751643743E+03  0.75407982208E+03  0.65864270000E+03 0.  1.
    8880022    1    1    2    0    0 -0.58687459409E+02  0.22071758452E+03 -0.19538539441E+04  0.19730933475E+04  0.15294330000E+03 0.  0.
<mgrwt>
<rscale>  0 0.55240755E+03</rscale>
<asrwt>0</asrwt>
<pdfrwt beam="1">  1        2 0.38219564E+00 0.69711597E+03</pdfrwt>
<pdfrwt beam="2">  1       -2 0.37369447E-01 0.69711597E+03</pdfrwt>
<totfact> 0.25267842E+01</totfact>
</mgrwt>
</event>
<event>
 4    1  0.3032637E-007  0.8314152E+03  0.7818608E-02  0.9646585E-01
         -2   -1    0    0    0  501 -0.00000000000E+00  0.00000000000E+00  0.95344275616E+03  0.95344275616E+03  0.25500000000E-02 0.  1.
          2   -1    0    0  501    0  0.00000000000E+00 -0.00000000000E+00 -0.18070500485E+04  0.18070500485E+04  0.25500000000E-02 0. -1.
    8880023    1    1    2    0    0  0.32081193159E+03 -0.39309119873E+03  0.72012973529E+03  0.10999263738E+04  0.65864270000E+03 0.  1.
    8880022    1    1    2    0    0 -0.32081193159E+03  0.39309119873E+03 -0.15737370277E+04  0.16605664309E+04  0.15294330000E+03 0.  0.
<mgrwt>
<rscale>  0 0.74288127E+03</rscale>
<asrwt>0</asrwt>
<pdfrwt beam="1">  1        2 0.27800770E+00 0.83141517E+03</pdfrwt>
<pdfrwt beam="2">  1       -2 0.14668350E+00 0.83141517E+03</pdfrwt>
<totfact> 0.27708046E+00</totfact>
</mgrwt>
</event>
<event>
 4    1  0.3032637E-007  0.1475837E+04  0.7818608E-02  0.8926889E-01
          2   -1    0    0  501    0  0.00000000000E+00  0.00000000000E+00  0.15688348538E+04  0.15688348538E+04  0.25500000000E-02 0. -1.
         -2   -1    0    0    0  501 -0.00000000000E+00 -0.00000000000E+00 -0.15844967962E+04  0.15844967962E+04  0.25500000000E-02 0.  1.
    8880023    1    1    2    0    0  0.35346984454E+02 -0.13202403747E+04 -0.72730417947E+03  0.16453162712E+04  0.65864270000E+03 0.  0.
    8880022    1    1    2    0    0 -0.35346984454E+02  0.13202403747E+04  0.71164223698E+03  0.15080153788E+04  0.15294330000E+03 0.  0.
<mgrwt>
<rscale>  0 0.14378185E+04</rscale>
<asrwt>0</asrwt>
<pdfrwt beam="1">  1        2 0.24135921E+00 0.14758368E+04</pdfrwt>
<pdfrwt beam="2">  1       -2 0.24376874E+00 0.14758368E+04</pdfrwt>
<totfact> 0.76792578E-01</totfact>
</mgrwt>
</event>
<event>
 4    1  0.3032637E-007  0.8844210E+03  0.7818608E-02  0.9551518E-01
         -2   -1    0    0    0  501 -0.00000000000E+00  0.00000000000E+00  0.11002638513E+04  0.11002638513E+04  0.25500000000E-02 0.  1.
          2   -1    0    0  501    0  0.00000000000E+00 -0.00000000000E+00 -0.10834417384E+04  0.10834417384E+04  0.25500000000E-02 0. -1.
    8880023    1    1    2    0    0 -0.57749658627E+03 -0.12201648285E+03  0.79903943520E+03  0.11919163370E+04  0.65864270000E+03 0.  1.
    8880022    1    1    2    0    0  0.57749658627E+03  0.12201648285E+03 -0.78221732234E+03  0.99178925263E+03  0.15294330000E+03 0.  0.
<mgrwt>
<rscale>  0 0.80589847E+03</rscale>
<asrwt>0</asrwt>
<pdfrwt beam="1">  1        2 0.16668334E+00 0.88442102E+03</pdfrwt>
<pdfrwt beam="2">  1       -2 0.16927136E+00 0.88442102E+03</pdfrwt>
<totfact> 0.48300370E+00</totfact>
</mgrwt>
</event>
<event>
 4    1  0.3032637E-007  0.8722414E+03  0.7818608E-02  0.9572149E-01
          2   -1    0    0  501    0  0.00000000000E+00  0.00000000000E+00  0.13644938333E+04  0.13644938333E+04  0.25500000000E-02 0. -1.
         -2   -1    0    0    0  501 -0.00000000000E+00 -0.00000000000E+00 -0.80530317056E+03  0.80530317056E+03  0.25500000000E-02 0.  1.
    8880023    1    1    2    0    0 -0.38737085235E+03 -0.42064088568E+03 -0.46380663340E+03  0.98788750949E+03  0.65864270000E+03 0.  1.
    8880022    1    1    2    0    0  0.38737085235E+03  0.42064088568E+03  0.10229972961E+04  0.11819094943E+04  0.15294330000E+03 0.  0.
<mgrwt>
<rscale>  0 0.79167325E+03</rscale>
<asrwt>0</asrwt>
<pdfrwt beam="1">  1        2 0.20992213E+00 0.87224144E+03</pdfrwt>
<pdfrwt beam="2">  1       -2 0.12389280E+00 0.87224144E+03</pdfrwt>
<totfact> 0.74879994E+00</totfact>
</mgrwt>
</event>
<event>
 4    1  0.3032637E-007  0.8172564E+03  0.7818608E-02  0.9674656E-01
         -2   -1    0    0    0  501 -0.00000000000E+00  0.00000000000E+00  0.41664073611E+03  0.41664073612E+03  0.25500000000E-02 0.  1.
          2   -1    0    0  501    0  0.00000000000E+00 -0.00000000000E+00 -0.13039996477E+04  0.13039996477E+04  0.25500000000E-02 0. -1.
    8880023    1    1    2    0    0 -0.41741459660E+03  0.24466902663E+03 -0.15841413194E+03  0.83246809039E+03  0.65864270000E+03 0.  1.
    8880022    1    1    2    0    0  0.41741459660E+03 -0.24466902663E+03 -0.72894477965E+03  0.88817229344E+03  0.15294330000E+03 0.  0.
<mgrwt>
<rscale>  0 0.72546040E+03</rscale>
<asrwt>0</asrwt>
<pdfrwt beam="1">  1        2 0.20061533E+00 0.81725644E+03</pdfrwt>
<pdfrwt beam="2">  1       -2 0.64098575E-01 0.81725644E+03</pdfrwt>
<totfact> 0.37471171E+01</totfact>
</mgrwt>
</event>
<event>
 4    1  0.3032637E-007  0.9085892E+03  0.7818608E-02  0.9512381E-01
          2   -1    0    0  501    0  0.00000000000E+00  0.00000000000E+00  0.20410227546E+04  0.20410227546E+04  0.25500000000E-02 0. -1.
         -2   -1    0    0    0  501 -0.00000000000E+00 -0.00000000000E+00 -0.33056307151E+03  0.33056307152E+03  0.25500000000E-02 0.  1.
    8880023    1    1    2    0    0 -0.47699110957E+03 -0.40522053287E+03  0.60343498569E+03  0.10907191147E+04  0.65864270000E+03 0.  0.
    8880022    1    1    2    0    0  0.47699110957E+03  0.40522053287E+03  0.11070246974E+04  0.12808667115E+04  0.15294330000E+03 0.  0.
<mgrwt>
<rscale>  0 0.83377114E+03</rscale>
<asrwt>0</asrwt>
<pdfrwt beam="1">  1        2 0.31400349E+00 0.90858924E+03</pdfrwt>
<pdfrwt beam="2">  1       -2 0.50855858E-01 0.90858924E+03</pdfrwt>
<totfact> 0.23500738E+01</totfact>
</mgrwt>
</event>
<event>
 4    1  0.3032637E-007  0.7163389E+03  0.7818608E-02  0.9935174E-01
          2   -1    0    0  501    0  0.00000000000E+00  0.00000000000E+00  0.80835934026E+03  0.80835934026E+03  0.25500000000E-02 0. -1.
         -2   -1    0    0    0  501 -0.00000000000E+00 -0.00000000000E+00 -0.70861210947E+03  0.70861210948E+03  0.25500000000E-02 0.  1.
    8880023    1    1    2    0    0 -0.25708364955E+03  0.11506164329E+03 -0.47456894303E+03  0.85927706392E+03  0.65864270000E+03 0.  1.
    8880022    1    1    2    0    0  0.25708364955E+03 -0.11506164329E+03  0.57431617382E+03  0.65769438582E+03  0.15294330000E+03 0.  0.
<mgrwt>
<rscale>  0 0.58586462E+03</rscale>
<asrwt>0</asrwt>
<pdfrwt beam="1">  1        2 0.12436298E+00 0.71633888E+03</pdfrwt>
<pdfrwt beam="2">  1       -2 0.10901725E+00 0.71633888E+03</pdfrwt>
<totfact> 0.23216197E+01</totfact>
</mgrwt>
</event>
<event>
 4    1  0.3032637E-007  0.9553459E+03  0.7818608E-02  0.9442464E-01
         -2   -1    0    0    0  501 -0.00000000000E+00  0.00000000000E+00  0.15087164881E+04  0.15087164881E+04  0.25500000000E-02 0.  1.
          2   -1    0    0  501    0  0.00000000000E+00 -0.00000000000E+00 -0.90200268485E+03  0.90200268485E+03  0.25500000000E-02 0. -1.
    8880023    1    1    2    0    0 -0.39262591352E+03  0.56984245117E+03  0.11663676469E+04  0.15076800792E+04  0.65864270000E+03 0.  1.
    8880022    1    1    2    0    0  0.39262591352E+03 -0.56984245117E+03 -0.55965384366E+03  0.90303909377E+03  0.15294330000E+03 0.  0.
<mgrwt>
<rscale>  0 0.88661959E+03</rscale>
<asrwt>0</asrwt>
<pdfrwt beam="1">  1        2 0.13876965E+00 0.95534587E+03</pdfrwt>
<pdfrwt beam="2">  1       -2 0.23211022E+00 0.95534587E+03</pdfrwt>
<totfact> 0.24251056E+00</totfact>
</mgrwt>
</event>
<event>
 4    1  0.3032637E-007  0.1228984E+04  0.7818608E-02  0.9129450E-01
          2   -1    0    0  501    0  0.00000000000E+00  0.00000000000E+00  0.27157294720E+04  0.27157294720E+04  0.25500000000E-02 0. -1.
         -2   -1    0    0    0  501 -0.00000000000E+00 -0.00000000000E+00 -0.56300084204E+03  0.56300084205E+03  0.25500000000E-02 0.  1.
    8880023    1    1    2    0    0  0.10186412335E+04 -0.19738558552E+03  0.51186530134E+03  0.13313178903E+04  0.65864270000E+03 0. -1.
    8880022    1    1    2    0    0 -0.10186412335E+04  0.19738558552E+03  0.16408633286E+04  0.19474124238E+04  0.15294330000E+03 0.  0.
<mgrwt>
<rscale>  0 0.11812256E+04</rscale>
<asrwt>0</asrwt>
<pdfrwt beam="1">  1        2 0.41780453E+00 0.12289838E+04</pdfrwt>
<pdfrwt beam="2">  1       -2 0.86615516E-01 0.12289838E+04</pdfrwt>
<totfact> 0.29535840E+00</totfact>
</mgrwt>
</event>
<event>
 4    1  0.3032637E-007  0.7274981E+03  0.7818608E-02  0.9897986E-01
          2   -1    0    0  501    0  0.00000000000E+00  0.00000000000E+00  0.10198569373E+04  0.10198569373E+04  0.25500000000E-02 0. -1.
         -2   -1    0    0    0  501 -0.00000000000E+00 -0.00000000000E+00 -0.39079682360E+03  0.39079682361E+03  0.25500000000E-02 0.  1.
    8880023    1    1    2    0    0  0.11229027598E+03  0.28780915170E+03  0.40567173276E+02  0.72862824245E+03  0.65864270000E+03 0.  0.
    8880022    1    1    2    0    0 -0.11229027598E+03 -0.28780915170E+03  0.58849294038E+03  0.68202551842E+03  0.15294330000E+03 0.  0.
<mgrwt>
<rscale>  0 0.60358976E+03</rscale>
<asrwt>0</asrwt>
<pdfrwt beam="1">  1        2 0.15690106E+00 0.72749806E+03</pdfrwt>
<pdfrwt beam="2">  1       -2 0.60122589E-01 0.72749806E+03</pdfrwt>
<totfact> 0.64155634E+01</totfact>
</mgrwt>
</event>
<event>
 4    1  0.3032637E-007  0.9489987E+03  0.7818608E-02  0.9451556E-01
         -2   -1    0    0    0  501 -0.00000000000E+00  0.00000000000E+00  0.49807471809E+03  0.49807471810E+03  0.25500000000E-02 0.  1.
          2   -1    0    0  501    0  0.00000000000E+00 -0.00000000000E+00 -0.37184441527E+04  0.37184441527E+04  0.25500000000E-02 0. -1.
    8880023    1    1    2    0    0  0.45661913568E+03  0.50821973998E+03 -0.29198249454E+02  0.94944777803E+03  0.65864270000E+03 0.  0.
    8880022    1    1    2    0    0 -0.45661913568E+03 -0.50821973998E+03 -0.31911711852E+04  0.32670710928E+04  0.15294330000E+03 0.  0.
<mgrwt>
<rscale>  0 0.87951584E+03</rscale>
<asrwt>0</asrwt>
<pdfrwt beam="1">  1        2 0.57206831E+00 0.94899871E+03</pdfrwt>
<pdfrwt beam="2">  1       -2 0.76626882E-01 0.94899871E+03</pdfrwt>
<totfact> 0.90639222E-01</totfact>
</mgrwt>
</event>
<event>
 4    1  0.3032637E-007  0.8455370E+03  0.7818608E-02  0.9619827E-01
         -2   -1    0    0    0  501 -0.00000000000E+00  0.00000000000E+00  0.38087180194E+03  0.38087180195E+03  0.25500000000E-02 0.  1.
          2   -1    0    0  501    0  0.00000000000E+00 -0.00000000000E+00 -0.26872959205E+04  0.26872959205E+04  0.25500000000E-02 0. -1.
    8880023    1    1    2    0    0 -0.44443284847E+03  0.28914006765E+03 -0.17107779944E+03  0.86267047895E+03  0.65864270000E+03 0.  1.
    8880022    1    1    2    0    0  0.44443284847E+03 -0.28914006765E+03 -0.21353463191E+04  0.22054972435E+04  0.15294330000E+03 0.  0.
<mgrwt>
<rscale>  0 0.75997689E+03</rscale>
<asrwt>0</asrwt>
<pdfrwt beam="1">  1        2 0.41343013E+00 0.84553695E+03</pdfrwt>
<pdfrwt beam="2">  1       -2 0.58595664E-01 0.84553695E+03</pdfrwt>
<totfact> 0.76381222E+00</totfact>
</mgrwt>
</event>
<event>
 4    1  0.3032637E-007  0.6880861E+03  0.7818608E-02  0.1005076E+00
         -2   -1    0    0    0  501 -0.00000000000E+00  0.00000000000E+00  0.20167963071E+03  0.20167963072E+03  0.25500000000E-02 0.  1.
          2   -1    0    0  501    0  0.00000000000E+00 -0.00000000000E+00 -0.30931332303E+04  0.30931332303E+04  0.25500000000E-02 0. -1.
    8880023    1    1    2    0    0 -0.15751423113E+03 -0.12182562314E+03 -0.41059514912E+03  0.80128072372E+03  0.65864270000E+03 0.  1.
    8880022    1    1    2    0    0  0.15751423113E+03  0.12182562314E+03 -0.24808584504E+04  0.24935321373E+04  0.15294330000E+03 0.  0.
<mgrwt>
<rscale>  0 0.53479511E+03</rscale>
<asrwt>0</asrwt>
<pdfrwt beam="1">  1        2 0.47586662E+00 0.68808606E+03</pdfrwt>
<pdfrwt beam="2">  1       -2 0.31027638E-01 0.68808606E+03</pdfrwt>
<totfact> 0.15736561E+01</totfact>
</mgrwt>
</event>
<event>
 4    1  0.3032637E-007  0.1183274E+04  0.7818608E-02  0.9173555E-01
         -2   -1    0    0    0  501 -0.00000000000E+00  0.00000000000E+00  0.18014730228E+04  0.18014730228E+04  0.25500000000E-02 0.  1.
          2   -1    0    0  501    0  0.00000000000E+00 -0.00000000000E+00 -0.16132161811E+04  0.16132161811E+04  0.25500000000E-02 0. -1.
    8880023    1    1    2    0    0 -0.33969933154E+03  0.92245986106E+03 -0.12140693143E+04  0.16953177688E+04  0.65864270000E+03 0.  0.
    8880022    1    1    2    0    0  0.33969933154E+03 -0.92245986106E+03  0.14023261560E+04  0.17193714351E+04  0.15294330000E+03 0.  0.
<mgrwt>
<rscale>  0 0.11330605E+04</rscale>
<asrwt>0</asrwt>
<pdfrwt beam="1">  1        2 0.24818711E+00 0.11832743E+04</pdfrwt>
<pdfrwt beam="2">  1       -2 0.27714969E+00 0.11832743E+04</pdfrwt>
<totfact> 0.46895590E-01</totfact>
</mgrwt>
</event>
<event>
 4    1  0.3032637E-007  0.8350149E+03  0.7818608E-02  0.9639653E-01
         -2   -1    0    0    0  501 -0.00000000000E+00  0.00000000000E+00  0.99407288496E+03  0.99407288497E+03  0.25500000000E-02 0.  1.
          2   -1    0    0  501    0  0.00000000000E+00 -0.00000000000E+00 -0.15946300543E+04  0.15946300543E+04  0.25500000000E-02 0. -1.
    8880023    1    1    2    0    0 -0.51253695125E+03  0.27304880125E+02  0.75840212591E+03  0.11280175857E+04  0.65864270000E+03 0.  1.
    8880022    1    1    2    0    0  0.51253695125E+03 -0.27304880125E+02 -0.13589592953E+04  0.14606853536E+04  0.15294330000E+03 0.  0.
<mgrwt>
<rscale>  0 0.74726389E+03</rscale>
<asrwt>0</asrwt>
<pdfrwt beam="1">  1        2 0.24532770E+00 0.83501490E+03</pdfrwt>
<pdfrwt beam="2">  1       -2 0.15293429E+00 0.83501490E+03</pdfrwt>
<totfact> 0.32443871E+00</totfact>
</mgrwt>
</event>
<event>
 4    1  0.3032637E-007  0.7218405E+03  0.7818608E-02  0.9916407E-01
         -2   -1    0    0    0  501 -0.00000000000E+00  0.00000000000E+00  0.31203641511E+03  0.31203641512E+03  0.25500000000E-02 0.  1.
          2   -1    0    0  501    0  0.00000000000E+00 -0.00000000000E+00 -0.14431879660E+04  0.14431879660E+04  0.25500000000E-02 0. -1.
    8880023    1    1    2    0    0  0.20725458074E+03  0.21044948531E+03 -0.17483142912E+03  0.74271103531E+03  0.65864270000E+03 0.  1.
    8880022    1    1    2    0    0 -0.20725458074E+03 -0.21044948531E+03 -0.95632012174E+03  0.10125133458E+04  0.15294330000E+03 0.  0.
<mgrwt>
<rscale>  0 0.59472683E+03</rscale>
<asrwt>0</asrwt>
<pdfrwt beam="1">  1        2 0.22202891E+00 0.72184046E+03</pdfrwt>
<pdfrwt beam="2">  1       -2 0.48005603E-01 0.72184046E+03</pdfrwt>
<totfact> 0.57513995E+01</totfact>
</mgrwt>
</event>
<event>
 4    1  0.3032637E-007  0.6948791E+03  0.7818608E-02  0.1001915E+00
          2   -1    0    0  501    0  0.00000000000E+00  0.00000000000E+00  0.22686177370E+04  0.22686177370E+04  0.25500000000E-02 0. -1.
         -2   -1    0    0    0  501 -0.00000000000E+00 -0.00000000000E+00 -0.65697343423E+03  0.65697343423E+03  0.25500000000E-02 0.  1.
    8880023    1    1    2    0    0 -0.88940359569E+02  0.20282089114E+03 -0.46206918148E+03  0.83448477289E+03  0.65864270000E+03 0.  1.
    8880022    1    1    2    0    0  0.88940359569E+02 -0.20282089114E+03  0.20737134842E+04  0.20911063983E+04  0.15294330000E+03 0.  0.
<mgrwt>
<rscale>  0 0.54818606E+03</rscale>
<asrwt>0</asrwt>
<pdfrwt beam="1">  1        2 0.34901811E+00 0.69487906E+03</pdfrwt>
<pdfrwt beam="2">  1       -2 0.10107284E+00 0.69487906E+03</pdfrwt>
<totfact> 0.40090387E+00</totfact>
</mgrwt>
</event>
<event>
 4    1  0.3032637E-007  0.1130270E+04  0.7818608E-02  0.9228080E-01
         -2   -1    0    0    0  501 -0.00000000000E+00  0.00000000000E+00  0.83846395648E+03  0.83846395649E+03  0.25500000000E-02 0.  1.
          2   -1    0    0  501    0  0.00000000000E+00 -0.00000000000E+00 -0.16626469648E+04  0.16626469648E+04  0.25500000000E-02 0. -1.
    8880023    1    1    2    0    0  0.51682365268E+03  0.75933676955E+03  0.16539223873E+03  0.11423063584E+04  0.65864270000E+03 0.  1.
    8880022    1    1    2    0    0 -0.51682365268E+03 -0.75933676955E+03 -0.98957524704E+03  0.13588045629E+04  0.15294330000E+03 0.  0.
<mgrwt>
<rscale>  0 0.10768236E+04</rscale>
<asrwt>0</asrwt>
<pdfrwt beam="1">  1        2 0.25579184E+00 0.11302695E+04</pdfrwt>
<pdfrwt beam="2">  1       -2 0.12899445E+00 0.11302695E+04</pdfrwt>
<totfact> 0.44694451E+00</totfact>
</mgrwt>
</event>
<event>
 4    1  0.3032637E-007  0.6705057E+03  0.7818608E-02  0.1015303E+00
          2   -1    0    0  501    0  0.00000000000E+00  0.00000000000E+00  0.88176949764E+03  0.88176949764E+03  0.25500000000E-02 0. -1.
         -2   -1    0    0    0  501 -0.00000000000E+00 -0.00000000000E+00 -0.87104228058E+03  0.87104228058E+03  0.25500000000E-02 0.  1.
    8880023    1    1    2    0    0 -0.80941086122E+02  0.96001271950E+02 -0.72700712399E+03  0.98899811336E+03  0.65864270000E+03 0.  1.
    8880022    1    1    2    0    0  0.80941086122E+02 -0.96001271950E+02  0.73773434105E+03  0.76381366486E+03  0.15294330000E+03 0.  0.
<mgrwt>
<rscale>  0 0.49420406E+03</rscale>
<asrwt>0</asrwt>
<pdfrwt beam="1">  1        2 0.13565685E+00 0.67050571E+03</pdfrwt>
<pdfrwt beam="2">  1       -2 0.13400651E+00 0.67050571E+03</pdfrwt>
<totfact> 0.12440775E+01</totfact>
</mgrwt>
</event>
<event>
 4    1  0.3032637E-007  0.1229729E+04  0.7818608E-02  0.9128751E-01
          2   -1    0    0  501    0  0.00000000000E+00  0.00000000000E+00  0.15648736533E+04  0.15648736533E+04  0.25500000000E-02 0. -1.
         -2   -1    0    0    0  501 -0.00000000000E+00 -0.00000000000E+00 -0.16833379204E+04  0.16833379204E+04  0.25500000000E-02 0.  1.
    8880023    1    1    2    0    0  0.10005078103E+04 -0.27822368487E+03 -0.12160761663E+04  0.17294726785E+04  0.65864270000E+03 0.  0.
    8880022    1    1    2    0    0 -0.10005078103E+04  0.27822368487E+03  0.10976118992E+04  0.15187388952E+04  0.15294330000E+03 0.  0.
<mgrwt>
<rscale>  0 0.11820091E+04</rscale>
<asrwt>0</asrwt>
<pdfrwt beam="1">  1        2 0.24074979E+00 0.12297294E+04</pdfrwt>
<pdfrwt beam="2">  1       -2 0.25897507E+00 0.12297294E+04</pdfrwt>
<totfact> 0.63979287E-01</totfact>
</mgrwt>
</event>
<event>
 4    1  0.3032637E-007  0.9626394E+03  0.7818608E-02  0.9432157E-01
         -2   -1    0    0    0  501 -0.00000000000E+00  0.00000000000E+00  0.14018560107E+04  0.14018560107E+04  0.25500000000E-02 0.  1.
          2   -1    0    0  501    0  0.00000000000E+00 -0.00000000000E+00 -0.12066508093E+04  0.12066508093E+04  0.25500000000E-02 0. -1.
    8880023    1    1    2    0    0  0.49365380454E+03  0.49916966995E+03  0.10943847855E+04  0.14575159358E+04  0.65864270000E+03 0.  1.
    8880022    1    1    2    0    0 -0.49365380454E+03 -0.49916966995E+03 -0.89917958409E+03  0.11509908842E+04  0.15294330000E+03 0.  0.
<mgrwt>
<rscale>  0 0.89475859E+03</rscale>
<asrwt>0</asrwt>
<pdfrwt beam="1">  1        2 0.18563859E+00 0.96263942E+03</pdfrwt>
<pdfrwt beam="2">  1       -2 0.21567015E+00 0.96263942E+03</pdfrwt>
<totfact> 0.19727181E+00</totfact>
</mgrwt>
</event>
<event>
 4    1  0.3032637E-007  0.1091386E+04  0.7818608E-02  0.9270708E-01
          2   -1    0    0  501    0  0.00000000000E+00  0.00000000000E+00  0.97720614986E+03  0.97720614986E+03  0.25500000000E-02 0. -1.
         -2   -1    0    0    0  501 -0.00000000000E+00 -0.00000000000E+00 -0.16721350353E+04  0.16721350353E+04  0.25500000000E-02 0.  1.
    8880023    1    1    2    0    0  0.54321506935E+03  0.67987564963E+03  0.46911527931E+03  0.11879363881E+04  0.65864270000E+03 0. -1.
    8880022    1    1    2    0    0 -0.54321506935E+03 -0.67987564963E+03 -0.11640441648E+04  0.14614047971E+04  0.15294330000E+03 0.  0.
<mgrwt>
<rscale>  0 0.10352487E+04</rscale>
<asrwt>0</asrwt>
<pdfrwt beam="1">  1        2 0.15033941E+00 0.10913861E+04</pdfrwt>
<pdfrwt beam="2">  1       -2 0.25725154E+00 0.10913861E+04</pdfrwt>
<totfact> 0.14912763E+00</totfact>
</mgrwt>
</event>
<event>
 4    1  0.3032637E-007  0.8153229E+03  0.7818608E-02  0.9678594E-01
          2   -1    0    0  501    0  0.00000000000E+00  0.00000000000E+00  0.65814550032E+03  0.65814550032E+03  0.25500000000E-02 0. -1.
         -2   -1    0    0    0  501 -0.00000000000E+00 -0.00000000000E+00 -0.36702275609E+04  0.36702275609E+04  0.25500000000E-02 0.  1.
    8880023    1    1    2    0    0  0.23708335666E+03  0.41801033982E+03 -0.35196561238E+04  0.36128562936E+04  0.65864270000E+03 0.  1.
    8880022    1    1    2    0    0 -0.23708335666E+03 -0.41801033982E+03  0.50757406316E+03  0.71551676767E+03  0.15294330000E+03 0.  0.
<mgrwt>
<rscale>  0 0.72305697E+03</rscale>
<asrwt>0</asrwt>
<pdfrwt beam="1">  1        2 0.10125316E+00 0.81532286E+03</pdfrwt>
<pdfrwt beam="2">  1       -2 0.56465038E+00 0.81532286E+03</pdfrwt>
<totfact> 0.32612190E-02</totfact>
</mgrwt>
</event>
<event>
 4    1  0.3032637E-007  0.1468249E+04  0.7818608E-02  0.8932388E-01
         -2   -1    0    0    0  501 -0.00000000000E+00  0.00000000000E+00  0.19833323150E+04  0.19833323150E+04  0.25500000000E-02 0.  1.
          2   -1    0    0  501    0  0.00000000000E+00 -0.00000000000E+00 -0.11232205428E+04  0.11232205428E+04  0.25500000000E-02 0. -1.
    8880023    1    1    2    0    0  0.86493534792E+03 -0.98682917431E+03  0.10024058789E+04  0.17777999684E+04  0.65864270000E+03 0.  0.
    8880022    1    1    2    0    0 -0.86493534792E+03  0.98682917431E+03 -0.14229410673E+03  0.13287528894E+04  0.15294330000E+03 0.  0.
<mgrwt>
<rscale>  0 0.14299956E+04</rscale>
<asrwt>0</asrwt>
<pdfrwt beam="1">  1        2 0.17280316E+00 0.14682490E+04</pdfrwt>
<pdfrwt beam="2">  1       -2 0.30512805E+00 0.14682490E+04</pdfrwt>
<totfact> 0.59137710E-01</totfact>
</mgrwt>
</event>
<event>
 4    1  0.3032637E-007  0.6797976E+03  0.7818608E-02  0.1009438E+00
          2   -1    0    0  501    0  0.00000000000E+00  0.00000000000E+00  0.20959602726E+04  0.20959602726E+04  0.25500000000E-02 0. -1.
         -2   -1    0    0    0  501 -0.00000000000E+00 -0.00000000000E+00 -0.12196290030E+03  0.12196290033E+03  0.25500000000E-02 0.  1.
    8880023    1    1    2    0    0 -0.86106830173E+02 -0.14456908382E+03  0.94505067057E+03  0.11641501546E+04  0.65864270000E+03 0.  1.
    8880022    1    1    2    0    0  0.86106830173E+02  0.14456908382E+03  0.10289467017E+04  0.10537730183E+04  0.15294330000E+03 0.  0.
<mgrwt>
<rscale>  0 0.51698462E+03</rscale>
<asrwt>0</asrwt>
<pdfrwt beam="1">  1        2 0.32245540E+00 0.67979763E+03</pdfrwt>
<pdfrwt beam="2">  1       -2 0.18763525E-01 0.67979763E+03</pdfrwt>
<totfact> 0.14578301E+02</totfact>
</mgrwt>
</event>
<event>
 4    1  0.3032637E-007  0.1195338E+04  0.7818608E-02  0.9161667E-01
         -2   -1    0    0    0  501 -0.00000000000E+00  0.00000000000E+00  0.10876768169E+04  0.10876768169E+04  0.25500000000E-02 0.  1.
          2   -1    0    0  501    0  0.00000000000E+00 -0.00000000000E+00 -0.12484428664E+04  0.12484428664E+04  0.25500000000E-02 0. -1.
    8880023    1    1    2    0    0 -0.58447420891E+03  0.80833987950E+03  0.29130858975E+03  0.12303228692E+04  0.65864270000E+03 0.  0.
    8880022    1    1    2    0    0  0.58447420891E+03 -0.80833987950E+03 -0.45207463928E+03  0.11057968141E+04  0.15294330000E+03 0.  0.
<mgrwt>
<rscale>  0 0.11457998E+04</rscale>
<asrwt>0</asrwt>
<pdfrwt beam="1">  1        2 0.19206813E+00 0.11953383E+04</pdfrwt>
<pdfrwt beam="2">  1       -2 0.16733490E+00 0.11953383E+04</pdfrwt>
<totfact> 0.38372087E+00</totfact>
</mgrwt>
</event>
<event>
 4    1  0.3032637E-007  0.1313786E+04  0.7818608E-02  0.9053745E-01
          2   -1    0    0  501    0  0.00000000000E+00  0.00000000000E+00  0.17131637757E+04  0.17131637757E+04  0.25500000000E-02 0. -1.
         -2   -1    0    0    0  501 -0.00000000000E+00 -0.00000000000E+00 -0.10623979814E+04  0.10623979814E+04  0.25500000000E-02 0.  1.
    8880023    1    1    2    0    0  0.72163709590E+03 -0.87833036640E+03  0.91184931585E+03  0.15992197197E+04  0.65864270000E+03 0. -1.
    8880022    1    1    2    0    0 -0.72163709590E+03  0.87833036640E+03 -0.26108352161E+03  0.11763420374E+04  0.15294330000E+03 0.  0.
<mgrwt>
<rscale>  0 0.12699444E+04</rscale>
<asrwt>0</asrwt>
<pdfrwt beam="1">  1        2 0.26356365E+00 0.13137863E+04</pdfrwt>
<pdfrwt beam="2">  1       -2 0.16344585E+00 0.13137863E+04</pdfrwt>
<totfact> 0.21999906E+00</totfact>
</mgrwt>
</event>
<event>
 4    1  0.3032637E-007  0.8653320E+03  0.7818608E-02  0.9584148E-01
         -2   -1    0    0    0  501 -0.00000000000E+00  0.00000000000E+00  0.53945176989E+03  0.53945176989E+03  0.25500000000E-02 0.  1.
          2   -1    0    0  501    0  0.00000000000E+00 -0.00000000000E+00 -0.26428343400E+04  0.26428343400E+04  0.25500000000E-02 0. -1.
    8880023    1    1    2    0    0  0.53842974153E+02 -0.55865029792E+03  0.12941640803E+03  0.87495601841E+03  0.65864270000E+03 0.  0.
    8880022    1    1    2    0    0 -0.53842974153E+02  0.55865029792E+03 -0.22327989782E+04  0.23073300915E+04  0.15294330000E+03 0.  0.
<mgrwt>
<rscale>  0 0.78354292E+03</rscale>
<asrwt>0</asrwt>
<pdfrwt beam="1">  1        2 0.40658989E+00 0.86533198E+03</pdfrwt>
<pdfrwt beam="2">  1       -2 0.82992581E-01 0.86533198E+03</pdfrwt>
<totfact> 0.37751794E+00</totfact>
</mgrwt>
</event>
<event>
 4    1  0.3032637E-007  0.9079378E+03  0.7818608E-02  0.9513407E-01
          2   -1    0    0  501    0  0.00000000000E+00  0.00000000000E+00  0.13392094632E+04  0.13392094632E+04  0.25500000000E-02 0. -1.
         -2   -1    0    0    0  501 -0.00000000000E+00 -0.00000000000E+00 -0.53465600460E+03  0.53465600460E+03  0.25500000000E-02 0.  1.
    8880023    1    1    2    0    0 -0.61599618461E+03  0.10530688515E+03  0.90064033278E+02  0.91239387102E+03  0.65864270000E+03 0.  1.
    8880022    1    1    2    0    0  0.61599618461E+03 -0.10530688515E+03  0.71448942534E+03  0.96147159680E+03  0.15294330000E+03 0.  0.
<mgrwt>
<rscale>  0 0.83302544E+03</rscale>
<asrwt>0</asrwt>
<pdfrwt beam="1">  1        2 0.20603222E+00 0.90793780E+03</pdfrwt>
<pdfrwt beam="2">  1       -2 0.82254770E-01 0.90793780E+03</pdfrwt>
<totfact> 0.20452907E+01</totfact>
</mgrwt>
</event>
<event>
 4    1  0.3032637E-007  0.1102189E+04  0.7818608E-02  0.9258623E-01
         -2   -1    0    0    0  501 -0.00000000000E+00  0.00000000000E+00  0.22311929944E+04  0.22311929944E+04  0.25500000000E-02 0.  1.
          2   -1    0    0  501    0  0.00000000000E+00 -0.00000000000E+00 -0.13609052163E+04  0.13609052163E+04  0.25500000000E-02 0. -1.
    8880023    1    1    2    0    0  0.86306418380E+03  0.19008173756E+03  0.19184885042E+04  0.22125594228E+04  0.65864270000E+03 0.  0.
    8880022    1    1    2    0    0 -0.86306418380E+03 -0.19008173756E+03 -0.10482007261E+04  0.13795387879E+04  0.15294330000E+03 0.  0.
<mgrwt>
<rscale>  0 0.10468303E+04</rscale>
<asrwt>0</asrwt>
<pdfrwt beam="1">  1        2 0.20937004E+00 0.11021892E+04</pdfrwt>
<pdfrwt beam="2">  1       -2 0.34326046E+00 0.11021892E+04</pdfrwt>
<totfact> 0.25991576E-01</totfact>
</mgrwt>
</event>
<event>
 4    1  0.3032637E-007  0.9628989E+03  0.7818608E-02  0.9431793E-01
          2   -1    0    0  501    0  0.00000000000E+00  0.00000000000E+00  0.13835685876E+04  0.13835685876E+04  0.25500000000E-02 0. -1.
         -2   -1    0    0    0  501 -0.00000000000E+00 -0.00000000000E+00 -0.11932292292E+04  0.11932292292E+04  0.25500000000E-02 0.  1.
    8880023    1    1    2    0    0 -0.31804440196E+03 -0.62626812609E+03 -0.86868756295E+03  0.12968393484E+04  0.65864270000E+03 0.  1.
    8880022    1    1    2    0    0  0.31804440196E+03  0.62626812609E+03  0.10590269214E+04  0.12799584683E+04  0.15294330000E+03 0.  0.
<mgrwt>
<rscale>  0 0.89504766E+03</rscale>
<asrwt>0</asrwt>
<pdfrwt beam="1">  1        2 0.21285671E+00 0.96289886E+03</pdfrwt>
<pdfrwt beam="2">  1       -2 0.18357373E+00 0.96289886E+03</pdfrwt>
<totfact> 0.25258408E+00</totfact>
</mgrwt>
</event>
<event>
 4    1  0.3032637E-007  0.8369898E+03  0.7818608E-02  0.9635883E-01
         -2   -1    0    0    0  501 -0.00000000000E+00  0.00000000000E+00  0.83974969349E+03  0.83974969349E+03  0.25500000000E-02 0.  1.
          2   -1    0    0  501    0  0.00000000000E+00 -0.00000000000E+00 -0.22277440747E+04  0.22277440747E+04  0.25500000000E-02 0. -1.
    8880023    1    1    2    0    0 -0.39803126290E+03 -0.32910920671E+03  0.58573476536E+03  0.10215856194E+04  0.65864270000E+03 0.  0.
    8880022    1    1    2    0    0  0.39803126290E+03  0.32910920671E+03 -0.19737291466E+04  0.20459081488E+04  0.15294330000E+03 0.  0.
<mgrwt>
<rscale>  0 0.74966088E+03</rscale>
<asrwt>0</asrwt>
<pdfrwt beam="1">  1        2 0.34272986E+00 0.83698982E+03</pdfrwt>
<pdfrwt beam="2">  1       -2 0.12919226E+00 0.83698982E+03</pdfrwt>
<totfact> 0.22571024E+00</totfact>
</mgrwt>
</event>
<event>
 4    1  0.3032637E-007  0.9508844E+03  0.7818608E-02  0.9448843E-01
          2   -1    0    0  501    0  0.00000000000E+00  0.00000000000E+00  0.14448184475E+04  0.14448184475E+04  0.25500000000E-02 0. -1.
         -2   -1    0    0    0  501 -0.00000000000E+00 -0.00000000000E+00 -0.11131787281E+04  0.11131787281E+04  0.25500000000E-02 0.  1.
    8880023    1    1    2    0    0 -0.66112299997E+02 -0.68264205297E+03 -0.78878211844E+03  0.12354587995E+04  0.65864270000E+03 0.  1.
    8880022    1    1    2    0    0  0.66112299997E+02  0.68264205297E+03  0.11204218378E+04  0.13225383761E+04  0.15294330000E+03 0.  0.
<mgrwt>
<rscale>  0 0.88162843E+03</rscale>
<asrwt>0</asrwt>
<pdfrwt beam="1">  1        2 0.22227976E+00 0.95088444E+03</pdfrwt>
<pdfrwt beam="2">  1       -2 0.17125827E+00 0.95088444E+03</pdfrwt>
<totfact> 0.28436054E+00</totfact>
</mgrwt>
</event>
<event>
 4    1  0.3032637E-007  0.6848767E+03  0.7818608E-02  0.1006689E+00
          2   -1    0    0  501    0  0.00000000000E+00  0.00000000000E+00  0.94094197956E+03  0.94094197956E+03  0.25500000000E-02 0. -1.
         -2   -1    0    0    0  501 -0.00000000000E+00 -0.00000000000E+00 -0.23844216783E+03  0.23844216784E+03  0.25500000000E-02 0.  1.
    8880023    1    1    2    0    0  0.49259908607E+02 -0.18116105897E+03  0.40452386936E+03  0.79542167121E+03  0.65864270000E+03 0.  0.
    8880022    1    1    2    0    0 -0.49259908607E+02  0.18116105897E+03  0.29797594237E+03  0.38396247620E+03  0.15294330000E+03 0.  1.
<mgrwt>
<rscale>  0 0.52811832E+03</rscale>
<asrwt>0</asrwt>
<pdfrwt beam="1">  1        2 0.14476031E+00 0.68487669E+03</pdfrwt>
<pdfrwt beam="2">  1       -2 0.36683410E-01 0.68487669E+03</pdfrwt>
<totfact> 0.19534572E+02</totfact>
</mgrwt>
</event>
<event>
 4    1  0.3032637E-007  0.8813493E+03  0.7818608E-02  0.9556661E-01
          2   -1    0    0  501    0  0.00000000000E+00  0.00000000000E+00  0.31863782525E+04  0.31863782525E+04  0.25500000000E-02 0. -1.
         -2   -1    0    0    0  501 -0.00000000000E+00 -0.00000000000E+00 -0.32625948641E+03  0.32625948642E+03  0.25500000000E-02 0.  1.
    8880023    1    1    2    0    0 -0.15675487683E+03 -0.56426443721E+03  0.38008913098E+03  0.95981477394E+03  0.65864270000E+03 0.  0.
    8880022    1    1    2    0    0  0.15675487683E+03  0.56426443721E+03  0.24800296351E+04  0.25528229650E+04  0.15294330000E+03 0.  0.
<mgrwt>
<rscale>  0 0.80232308E+03</rscale>
<asrwt>0</asrwt>
<pdfrwt beam="1">  1        2 0.49021205E+00 0.88134934E+03</pdfrwt>
<pdfrwt beam="2">  1       -2 0.50193766E-01 0.88134934E+03</pdfrwt>
<totfact> 0.52029517E+00</totfact>
</mgrwt>
</event>
<event>
 4    1  0.3032637E-007  0.7580153E+03  0.7818608E-02  0.9810273E-01
          2   -1    0    0  501    0  0.00000000000E+00  0.00000000000E+00  0.85256992675E+03  0.85256992676E+03  0.25500000000E-02 0. -1.
         -2   -1    0    0    0  501 -0.00000000000E+00 -0.00000000000E+00 -0.48229829182E+03  0.48229829183E+03  0.25500000000E-02 0.  1.
    8880023    1    1    2    0    0 -0.19837201813E+03  0.31847369276E+03 -0.38922202974E+02  0.75901389625E+03  0.65864270000E+03 0.  1.
    8880022    1    1    2    0    0  0.19837201813E+03 -0.31847369276E+03  0.40919383791E+03  0.57585432233E+03  0.15294330000E+03 0.  0.
<mgrwt>
<rscale>  0 0.64814135E+03</rscale>
<asrwt>0</asrwt>
<pdfrwt beam="1">  1        2 0.13116460E+00 0.75801527E+03</pdfrwt>
<pdfrwt beam="2">  1       -2 0.74199738E-01 0.75801527E+03</pdfrwt>
<totfact> 0.52377936E+01</totfact>
</mgrwt>
</event>
<event>
 4    1  0.3032637E-007  0.8013628E+03  0.7818608E-02  0.9707857E-01
         -2   -1    0    0    0  501 -0.00000000000E+00  0.00000000000E+00  0.38928920373E+03  0.38928920374E+03  0.25500000000E-02 0.  1.
          2   -1    0    0  501    0  0.00000000000E+00 -0.00000000000E+00 -0.13142010902E+04  0.13142010902E+04  0.25500000000E-02 0. -1.
    8880023    1    1    2    0    0  0.31346968537E+03  0.33182652167E+03 -0.18776751851E+03  0.82306678429E+03  0.65864270000E+03 0.  1.
    8880022    1    1    2    0    0 -0.31346968537E+03 -0.33182652167E+03 -0.73714436801E+03  0.88042350970E+03  0.15294330000E+03 0.  0.
<mgrwt>
<rscale>  0 0.70550900E+03</rscale>
<asrwt>0</asrwt>
<pdfrwt beam="1">  1        2 0.20218478E+00 0.80136277E+03</pdfrwt>
<pdfrwt beam="2">  1       -2 0.59890648E-01 0.80136277E+03</pdfrwt>
<totfact> 0.42779549E+01</totfact>
</mgrwt>
</event>
<event>
 4    1  0.3032637E-007  0.9675320E+03  0.7818608E-02  0.9425326E-01
          2   -1    0    0  501    0  0.00000000000E+00  0.00000000000E+00  0.34403995267E+04  0.34403995267E+04  0.25500000000E-02 0. -1.
         -2   -1    0    0    0  501 -0.00000000000E+00 -0.00000000000E+00 -0.80618637873E+03  0.80618637874E+03  0.25500000000E-02 0.  1.
    8880023    1    1    2    0    0 -0.70855532090E+03 -0.16041773117E+02 -0.45803383063E+03  0.10704733427E+04  0.65864270000E+03 0.  0.
    8880022    1    1    2    0    0  0.70855532090E+03  0.16041773117E+02  0.30922469786E+04  0.31761125627E+04  0.15294330000E+03 0.  0.
<mgrwt>
<rscale>  0 0.90020457E+03</rscale>
<asrwt>0</asrwt>
<pdfrwt beam="1">  1        2 0.52929224E+00 0.96753201E+03</pdfrwt>
<pdfrwt beam="2">  1       -2 0.12402867E+00 0.96753201E+03</pdfrwt>
<totfact> 0.45317799E-01</totfact>
</mgrwt>
</event>
<event>
 4    1  0.3032637E-007  0.1206604E+04  0.7818608E-02  0.9150729E-01
         -2   -1    0    0    0  501 -0.00000000000E+00  0.00000000000E+00  0.20238389706E+04  0.20238389706E+04  0.25500000000E-02 0.  1.
          2   -1    0    0  501    0  0.00000000000E+00 -0.00000000000E+00 -0.75842955496E+03  0.75842955496E+03  0.25500000000E-02 0. -1.
    8880023    1    1    2    0    0  0.55076755624E+03  0.84778481126E+03  0.12808334555E+04  0.17596671657E+04  0.65864270000E+03 0.  1.
    8880022    1    1    2    0    0 -0.55076755624E+03 -0.84778481126E+03 -0.15424039792E+02  0.10226013599E+04  0.15294330000E+03 0.  0.
<mgrwt>
<rscale>  0 0.11576784E+04</rscale>
<asrwt>0</asrwt>
<pdfrwt beam="1">  1        2 0.11668147E+00 0.12066044E+04</pdfrwt>
<pdfrwt beam="2">  1       -2 0.31135984E+00 0.12066044E+04</pdfrwt>
<totfact> 0.98197120E-01</totfact>
</mgrwt>
</event>
