<event>
 4    1  0.3950955E+000  0.2007130E+03  0.7546771E-02  0.1149139E+00
         21   -1    0    0  501  502  0.00000000000E+00  0.00000000000E+00  0.13442378839E+03  0.13442378839E+03  0.00000000000E+00 0. -1.
         21   -1    0    0  502  503 -0.00000000000E+00 -0.00000000000E+00 -0.30458421721E+03  0.30458421721E+03  0.00000000000E+00 0.  1.
          6    1    1    2  501    0  0.95836003346E+02  0.34237188515E+02 -0.57261009876E+02  0.20872122045E+03  0.17300000000E+03 0.  1.
         -6    1    1    2    0  503 -0.95836003346E+02 -0.34237188515E+02 -0.11289941895E+03  0.23028678515E+03  0.17300000000E+03 0.  1.
<mgrwt>
<rscale>  2 0.20071304E+03</rscale>
<asrwt>0</asrwt>
<pdfrwt beam="1">  1       21 0.20680583E-01 0.20071304E+03</pdfrwt>
<pdfrwt beam="2">  1       21 0.46859109E-01 0.20071304E+03</pdfrwt>
<totfact> 0.94212593E+04</totfact>
</mgrwt>
</event>
<event>
 4    1  0.3950955E+000  0.2146183E+03  0.7546771E-02  0.1137960E+00
         21   -1    0    0  501  502  0.00000000000E+00  0.00000000000E+00  0.35069492341E+03  0.35069492341E+03  0.00000000000E+00 0.  1.
         21   -1    0    0  502  503 -0.00000000000E+00 -0.00000000000E+00 -0.15953487023E+03  0.15953487023E+03  0.00000000000E+00 0.  1.
          6    1    1    2  501    0  0.10537326093E+03 -0.70911858975E+02  0.20282494025E+03  0.29529472100E+03  0.17300000000E+03 0.  1.
         -6    1    1    2    0  503 -0.10537326093E+03  0.70911858975E+02 -0.11664887063E+02  0.21493507264E+03  0.17300000000E+03 0.  1.
<mgrwt>
<rscale>  2 0.21461830E+03</rscale>
<asrwt>0</asrwt>
<pdfrwt beam="1">  1       21 0.53953065E-01 0.21461830E+03</pdfrwt>
<pdfrwt beam="2">  1       21 0.24543826E-01 0.21461830E+03</pdfrwt>
<totfact> 0.50427932E+04</totfact>
</mgrwt>
</event>
<event>
 4    1  0.3950955E+000  0.1826258E+03  0.7546771E-02  0.1165286E+00
         21   -1    0    0  503  502  0.00000000000E+00  0.00000000000E+00  0.26213077802E+03  0.26213077802E+03  0.00000000000E+00 0. -1.
         21   -1    0    0  501  503 -0.00000000000E+00 -0.00000000000E+00 -0.24430528982E+03  0.24430528982E+03  0.00000000000E+00 0. -1.
          6    1    1    2  501    0 -0.35432243639E+02  0.46559042007E+02 -0.16637505750E+03  0.24704827067E+03  0.17300000000E+03 0. -1.
         -6    1    1    2    0  502  0.35432243639E+02 -0.46559042007E+02  0.18420054571E+03  0.25938779717E+03  0.17300000000E+03 0. -1.
<mgrwt>
<rscale>  2 0.18262581E+03</rscale>
<asrwt>0</asrwt>
<pdfrwt beam="1">  1       21 0.40327812E-01 0.18262581E+03</pdfrwt>
<pdfrwt beam="2">  1       21 0.37585429E-01 0.18262581E+03</pdfrwt>
<totfact> 0.40651432E+04</totfact>
</mgrwt>
</event>
<event>
 4    1  0.3950955E+000  0.1802099E+03  0.7546771E-02  0.1167600E+00
         21   -1    0    0  501  502  0.00000000000E+00  0.00000000000E+00  0.64168267210E+02  0.64168267210E+02  0.00000000000E+00 0. -1.
         21   -1    0    0  502  503 -0.00000000000E+00 -0.00000000000E+00 -0.51226431097E+03  0.51226431097E+03  0.00000000000E+00 0. -1.
          6    1    1    2  501    0 -0.37657234142E+01  0.50323325054E+02 -0.19243383082E+03  0.26364065878E+03  0.17300000000E+03 0. -1.
         -6    1    1    2    0  503  0.37657234142E+01 -0.50323325054E+02 -0.25566221294E+03  0.31279191940E+03  0.17300000000E+03 0. -1.
<mgrwt>
<rscale>  2 0.18020993E+03</rscale>
<asrwt>0</asrwt>
<pdfrwt beam="1">  1       21 0.98720411E-02 0.18020993E+03</pdfrwt>
<pdfrwt beam="2">  1       21 0.78809894E-01 0.18020993E+03</pdfrwt>
<totfact> 0.11864540E+05</totfact>
</mgrwt>
</event>
<event>
 4    1  0.3950955E+000  0.2002335E+03  0.7546771E-02  0.1149542E+00
         21   -1    0    0  503  502  0.00000000000E+00  0.00000000000E+00  0.13923881935E+03  0.13923881935E+03  0.00000000000E+00 0.  1.
         21   -1    0    0  501  503 -0.00000000000E+00 -0.00000000000E+00 -0.99933784218E+03  0.99933784218E+03  0.00000000000E+00 0.  1.
          6    1    1    2  501    0  0.28402852726E+02  0.96735359200E+02 -0.91036892178E+03  0.93212929656E+03  0.17300000000E+03 0.  1.
         -6    1    1    2    0  502 -0.28402852726E+02 -0.96735359200E+02  0.50269898948E+02  0.20644736497E+03  0.17300000000E+03 0.  1.
<mgrwt>
<rscale>  2 0.20023349E+03</rscale>
<asrwt>0</asrwt>
<pdfrwt beam="1">  1       21 0.21421356E-01 0.20023349E+03</pdfrwt>
<pdfrwt beam="2">  1       21 0.15374429E+00 0.20023349E+03</pdfrwt>
<totfact> 0.56484350E+03</totfact>
</mgrwt>
</event>
<event>
 4    1  0.3950955E+000  0.2507815E+03  0.7546771E-02  0.1112812E+00
         21   -1    0    0  503  502  0.00000000000E+00  0.00000000000E+00  0.11475931180E+04  0.11475931180E+04  0.00000000000E+00 0.  1.
         21   -1    0    0  501  503 -0.00000000000E+00 -0.00000000000E+00 -0.70430387916E+02  0.70430387916E+02  0.00000000000E+00 0.  1.
          6    1    1    2  501    0  0.19122622376E+02  0.18054549097E+03  0.25170735043E+03  0.35531386021E+03  0.17300000000E+03 0.  1.
         -6    1    1    2    0  502 -0.19122622376E+02 -0.18054549097E+03  0.82545537966E+03  0.86270964571E+03  0.17300000000E+03 0.  1.
<mgrwt>
<rscale>  2 0.25078148E+03</rscale>
<asrwt>0</asrwt>
<pdfrwt beam="1">  1       21 0.17655277E+00 0.25078148E+03</pdfrwt>
<pdfrwt beam="2">  1       21 0.10835445E-01 0.25078148E+03</pdfrwt>
<totfact> 0.12991715E+04</totfact>
</mgrwt>
</event>
<event>
 4    1  0.3950955E+000  0.2331709E+03  0.7546771E-02  0.1124428E+00
         21   -1    0    0  501  502  0.00000000000E+00  0.00000000000E+00  0.15667420012E+03  0.15667420012E+03  0.00000000000E+00 0.  1.
         21   -1    0    0  502  503 -0.00000000000E+00 -0.00000000000E+00 -0.41072062344E+03  0.41072062344E+03  0.00000000000E+00 0.  1.
          6    1    1    2  501    0  0.13436665097E+03  0.79907895335E+02 -0.15294978704E+02  0.23367200304E+03  0.17300000000E+03 0.  1.
         -6    1    1    2    0  503 -0.13436665097E+03 -0.79907895335E+02 -0.23875144462E+03  0.33372282052E+03  0.17300000000E+03 0.  1.
<mgrwt>
<rscale>  2 0.23317090E+03</rscale>
<asrwt>0</asrwt>
<pdfrwt beam="1">  1       21 0.24103723E-01 0.23317090E+03</pdfrwt>
<pdfrwt beam="2">  1       21 0.63187788E-01 0.23317090E+03</pdfrwt>
<totfact> 0.36877941E+04</totfact>
</mgrwt>
</event>
<event>
 4    1  0.3950955E+000  0.1931352E+03  0.7546771E-02  0.1155664E+00
         21   -1    0    0  501  502  0.00000000000E+00  0.00000000000E+00  0.91183110788E+02  0.91183110788E+02  0.00000000000E+00 0. -1.
         21   -1    0    0  502  503 -0.00000000000E+00 -0.00000000000E+00 -0.49917759568E+03  0.49917759568E+03  0.00000000000E+00 0. -1.
          6    1    1    2  501    0  0.57697327126E+02 -0.63586353526E+02 -0.78591909489E+02  0.20851353469E+03  0.17300000000E+03 0.  1.
         -6    1    1    2    0  503 -0.57697327126E+02  0.63586353526E+02 -0.32940257541E+03  0.38184717178E+03  0.17300000000E+03 0.  1.
<mgrwt>
<rscale>  2 0.19313520E+03</rscale>
<asrwt>0</asrwt>
<pdfrwt beam="1">  1       21 0.14028171E-01 0.19313520E+03</pdfrwt>
<pdfrwt beam="2">  1       21 0.76796555E-01 0.19313520E+03</pdfrwt>
<totfact> 0.66793786E+04</totfact>
</mgrwt>
</event>
<event>
 4    1  0.3950955E+000  0.2268689E+03  0.7546771E-02  0.1128863E+00
         21   -1    0    0  503  502  0.00000000000E+00  0.00000000000E+00  0.79755608475E+03  0.79755608475E+03  0.00000000000E+00 0.  1.
         21   -1    0    0  501  503 -0.00000000000E+00 -0.00000000000E+00 -0.67262001439E+02  0.67262001439E+02  0.00000000000E+00 0. -1.
          6    1    1    2  501    0  0.10863490448E+03 -0.98686090744E+02  0.27806433632E+03  0.35887220861E+03  0.17300000000E+03 0. -1.
         -6    1    1    2    0  502 -0.10863490448E+03  0.98686090744E+02  0.45222974699E+03  0.50594587758E+03  0.17300000000E+03 0.  1.
<mgrwt>
<rscale>  2 0.22686888E+03</rscale>
<asrwt>0</asrwt>
<pdfrwt beam="1">  1       21 0.12270093E+00 0.22686888E+03</pdfrwt>
<pdfrwt beam="2">  1       21 0.10348001E-01 0.22686888E+03</pdfrwt>
<totfact> 0.37461764E+04</totfact>
</mgrwt>
</event>
<event>
 4    1  0.3950955E+000  0.1821294E+03  0.7546771E-02  0.1165758E+00
         21   -1    0    0  501  502  0.00000000000E+00  0.00000000000E+00  0.67761330431E+02  0.67761330431E+02  0.00000000000E+00 0.  1.
         21   -1    0    0  502  503 -0.00000000000E+00 -0.00000000000E+00 -0.49064028327E+03  0.49064028327E+03  0.00000000000E+00 0. -1.
          6    1    1    2  501    0  0.55249256556E+02 -0.13770672529E+02 -0.19814968247E+03  0.26913641232E+03  0.17300000000E+03 0.  1.
         -6    1    1    2    0  503 -0.55249256556E+02  0.13770672529E+02 -0.22472927037E+03  0.28926520139E+03  0.17300000000E+03 0. -1.
<mgrwt>
<rscale>  2 0.18212938E+03</rscale>
<asrwt>0</asrwt>
<pdfrwt beam="1">  1       21 0.10424820E-01 0.18212938E+03</pdfrwt>
<pdfrwt beam="2">  1       21 0.75483122E-01 0.18212938E+03</pdfrwt>
<totfact> 0.11861147E+05</totfact>
</mgrwt>
</event>
<event>
 4    1  0.3950955E+000  0.1980912E+03  0.7546771E-02  0.1151360E+00
         21   -1    0    0  503  502  0.00000000000E+00  0.00000000000E+00  0.23005351960E+03  0.23005351960E+03  0.00000000000E+00 0.  1.
         21   -1    0    0  501  503 -0.00000000000E+00 -0.00000000000E+00 -0.29692751092E+03  0.29692751092E+03  0.00000000000E+00 0. -1.
          6    1    1    2  501    0 -0.56982643517E+02  0.77872344313E+02 -0.20532322502E+03  0.28530290991E+03  0.17300000000E+03 0. -1.
         -6    1    1    2    0  502  0.56982643517E+02 -0.77872344313E+02  0.13844923369E+03  0.24167812061E+03  0.17300000000E+03 0.  1.
<mgrwt>
<rscale>  2 0.19809120E+03</rscale>
<asrwt>0</asrwt>
<pdfrwt beam="1">  1       21 0.35392849E-01 0.19809120E+03</pdfrwt>
<pdfrwt beam="2">  1       21 0.45681155E-01 0.19809120E+03</pdfrwt>
<totfact> 0.35261713E+04</totfact>
</mgrwt>
</event>
<event>
 4    1  0.3950955E+000  0.2281004E+03  0.7546771E-02  0.1127984E+00
         21   -1    0    0  503  502  0.00000000000E+00  0.00000000000E+00  0.80050557109E+02  0.80050557109E+02  0.00000000000E+00 0. -1.
         21   -1    0    0  501  503 -0.00000000000E+00 -0.00000000000E+00 -0.71959719058E+03  0.71959719058E+03  0.00000000000E+00 0. -1.
          6    1    1    2  501    0  0.14215357109E+03  0.43510188898E+02 -0.44415034183E+03  0.49929880879E+03  0.17300000000E+03 0. -1.
         -6    1    1    2    0  502 -0.14215357109E+03 -0.43510188898E+02 -0.19539629164E+03  0.30034893890E+03  0.17300000000E+03 0. -1.
<mgrwt>
<rscale>  2 0.22810036E+03</rscale>
<asrwt>0</asrwt>
<pdfrwt beam="1">  1       21 0.12315470E-01 0.22810036E+03</pdfrwt>
<pdfrwt beam="2">  1       21 0.11070726E+00 0.22810036E+03</pdfrwt>
<totfact> 0.35342023E+04</totfact>
</mgrwt>
</event>
<event>
 4    1  0.3950955E+000  0.4280966E+03  0.7546771E-02  0.1034463E+00
         21   -1    0    0  501  502  0.00000000000E+00  0.00000000000E+00  0.15213209792E+04  0.15213209792E+04  0.00000000000E+00 0. -1.
         21   -1    0    0  502  503 -0.00000000000E+00 -0.00000000000E+00 -0.12859740403E+03  0.12859740403E+03  0.00000000000E+00 0. -1.
          6    1    1    2  501    0  0.36755077038E+03  0.13507069758E+03  0.48891198851E+03  0.64984736258E+03  0.17300000000E+03 0. -1.
         -6    1    1    2    0  503 -0.36755077038E+03 -0.13507069758E+03  0.90381158665E+03  0.10000710206E+04  0.17300000000E+03 0. -1.
<mgrwt>
<rscale>  2 0.42809656E+03</rscale>
<asrwt>0</asrwt>
<pdfrwt beam="1">  1       21 0.23404937E+00 0.42809656E+03</pdfrwt>
<pdfrwt beam="2">  1       21 0.19784217E-01 0.42809656E+03</pdfrwt>
<totfact> 0.16398910E+03</totfact>
</mgrwt>
</event>
<event>
 4    1  0.3950955E+000  0.2240368E+03  0.7546771E-02  0.1130909E+00
         21   -1    0    0  501  502  0.00000000000E+00  0.00000000000E+00  0.30302623874E+03  0.30302623874E+03  0.00000000000E+00 0. -1.
         21   -1    0    0  502  503 -0.00000000000E+00 -0.00000000000E+00 -0.26033424118E+03  0.26033424118E+03  0.00000000000E+00 0. -1.
          6    1    1    2  501    0  0.29838556630E+02 -0.13918737904E+03  0.19123238374E+03  0.29455439317E+03  0.17300000000E+03 0. -1.
         -6    1    1    2    0  503 -0.29838556630E+02  0.13918737904E+03 -0.14854038618E+03  0.26880608675E+03  0.17300000000E+03 0. -1.
<mgrwt>
<rscale>  2 0.22403675E+03</rscale>
<asrwt>0</asrwt>
<pdfrwt beam="1">  1       21 0.46619422E-01 0.22403675E+03</pdfrwt>
<pdfrwt beam="2">  1       21 0.40051421E-01 0.22403675E+03</pdfrwt>
<totfact> 0.26021022E+04</totfact>
</mgrwt>
</event>
<event>
 4    1  0.3950955E+000  0.1979553E+03  0.7546771E-02  0.1151476E+00
         21   -1    0    0  503  502  0.00000000000E+00  0.00000000000E+00  0.27934773600E+03  0.27934773600E+03  0.00000000000E+00 0. -1.
         21   -1    0    0  501  503 -0.00000000000E+00 -0.00000000000E+00 -0.14757389350E+03  0.14757389350E+03  0.00000000000E+00 0. -1.
          6    1    1    2  501    0 -0.64756580185E+02  0.71161098354E+02  0.11334993528E+03  0.22811077227E+03  0.17300000000E+03 0. -1.
         -6    1    1    2    0  502  0.64756580185E+02 -0.71161098354E+02  0.18423907230E+02  0.19881085723E+03  0.17300000000E+03 0. -1.
<mgrwt>
<rscale>  2 0.19795534E+03</rscale>
<asrwt>0</asrwt>
<pdfrwt beam="1">  1       21 0.42976575E-01 0.19795534E+03</pdfrwt>
<pdfrwt beam="2">  1       21 0.22703676E-01 0.19795534E+03</pdfrwt>
<totfact> 0.94500106E+04</totfact>
</mgrwt>
</event>
<event>
 4    1  0.3950955E+000  0.1878834E+03  0.7546771E-02  0.1160384E+00
         21   -1    0    0  501  502  0.00000000000E+00  0.00000000000E+00  0.21770382103E+03  0.21770382103E+03  0.00000000000E+00 0.  1.
         21   -1    0    0  502  503 -0.00000000000E+00 -0.00000000000E+00 -0.48368617158E+03  0.48368617158E+03  0.00000000000E+00 0. -1.
          6    1    1    2  501    0 -0.46485123810E+02 -0.56659609202E+02  0.15294176643E+03  0.24226300165E+03  0.17300000000E+03 0.  1.
         -6    1    1    2    0  503  0.46485123810E+02  0.56659609202E+02 -0.41892411697E+03  0.45912699097E+03  0.17300000000E+03 0. -1.
<mgrwt>
<rscale>  2 0.18788342E+03</rscale>
<asrwt>0</asrwt>
<pdfrwt beam="1">  1       21 0.33492896E-01 0.18788342E+03</pdfrwt>
<pdfrwt beam="2">  1       21 0.74413257E-01 0.18788342E+03</pdfrwt>
<totfact> 0.13934995E+04</totfact>
</mgrwt>
</event>
<event>
 4    1  0.3950955E+000  0.2041148E+03  0.7546771E-02  0.1146313E+00
         21   -1    0    0  503  502  0.00000000000E+00  0.00000000000E+00  0.23694628872E+03  0.23694628872E+03  0.00000000000E+00 0. -1.
         21   -1    0    0  501  503 -0.00000000000E+00 -0.00000000000E+00 -0.20517323036E+03  0.20517323036E+03  0.00000000000E+00 0. -1.
          6    1    1    2  501    0 -0.43316315330E+02  0.99285229504E+02 -0.67709327629E+02  0.21505211698E+03  0.17300000000E+03 0. -1.
         -6    1    1    2    0  502  0.43316315330E+02 -0.99285229504E+02  0.99482385988E+02  0.22706740209E+03  0.17300000000E+03 0. -1.
<mgrwt>
<rscale>  2 0.20411482E+03</rscale>
<asrwt>0</asrwt>
<pdfrwt beam="1">  1       21 0.36453275E-01 0.20411482E+03</pdfrwt>
<pdfrwt beam="2">  1       21 0.31565112E-01 0.20411482E+03</pdfrwt>
<totfact> 0.69661322E+04</totfact>
</mgrwt>
</event>
<event>
 4    1  0.3950955E+000  0.2296947E+03  0.7546771E-02  0.1126855E+00
         21   -1    0    0  501  502  0.00000000000E+00  0.00000000000E+00  0.25844862825E+03  0.25844862825E+03  0.00000000000E+00 0.  1.
         21   -1    0    0  502  503 -0.00000000000E+00 -0.00000000000E+00 -0.63246645171E+03  0.63246645171E+03  0.00000000000E+00 0. -1.
          6    1    1    2  501    0 -0.52498082478E+02 -0.14168492850E+03  0.17957642088E+03  0.29156021430E+03  0.17300000000E+03 0.  1.
         -6    1    1    2    0  503  0.52498082478E+02  0.14168492850E+03 -0.55359424434E+03  0.59935486566E+03  0.17300000000E+03 0. -1.
<mgrwt>
<rscale>  2 0.22969473E+03</rscale>
<asrwt>0</asrwt>
<pdfrwt beam="1">  1       21 0.39761328E-01 0.22969473E+03</pdfrwt>
<pdfrwt beam="2">  1       21 0.97302531E-01 0.22969473E+03</pdfrwt>
<totfact> 0.51941965E+03</totfact>
</mgrwt>
</event>
<event>
 4    1  0.3950955E+000  0.2669230E+03  0.7546771E-02  0.1103054E+00
         21   -1    0    0  503  502  0.00000000000E+00  0.00000000000E+00  0.51855555832E+03  0.51855555832E+03  0.00000000000E+00 0. -1.
         21   -1    0    0  501  503 -0.00000000000E+00 -0.00000000000E+00 -0.16660858309E+03  0.16660858309E+03  0.00000000000E+00 0.  1.
          6    1    1    2  501    0  0.16421249901E+03  0.11980464956E+03  0.32525445116E+02  0.26889738464E+03  0.17300000000E+03 0.  1.
         -6    1    1    2    0  502 -0.16421249901E+03 -0.11980464956E+03  0.31942153011E+03  0.41626675676E+03  0.17300000000E+03 0. -1.
<mgrwt>
<rscale>  2 0.26692302E+03</rscale>
<asrwt>0</asrwt>
<pdfrwt beam="1">  1       21 0.79777778E-01 0.26692302E+03</pdfrwt>
<pdfrwt beam="2">  1       21 0.25632090E-01 0.26692302E+03</pdfrwt>
<totfact> 0.19204359E+04</totfact>
</mgrwt>
</event>
<event>
 4    1  0.3950955E+000  0.1763561E+03  0.7546771E-02  0.1171377E+00
         21   -1    0    0  501  502  0.00000000000E+00  0.00000000000E+00  0.53340515413E+03  0.53340515413E+03  0.00000000000E+00 0.  1.
         21   -1    0    0  502  503 -0.00000000000E+00 -0.00000000000E+00 -0.87537170862E+02  0.87537170862E+02  0.00000000000E+00 0.  1.
          6    1    1    2  501    0 -0.33988100944E+02  0.41555786652E+01  0.40234034933E+03  0.43929399784E+03  0.17300000000E+03 0.  1.
         -6    1    1    2    0  503  0.33988100944E+02 -0.41555786652E+01  0.43527633935E+02  0.18164832715E+03  0.17300000000E+03 0.  1.
<mgrwt>
<rscale>  2 0.17635606E+03</rscale>
<asrwt>0</asrwt>
<pdfrwt beam="1">  1       21 0.82062329E-01 0.17635606E+03</pdfrwt>
<pdfrwt beam="2">  1       21 0.13467257E-01 0.17635606E+03</pdfrwt>
<totfact> 0.62387876E+04</totfact>
</mgrwt>
</event>
<event>
 4    1  0.3950955E+000  0.1972286E+03  0.7546771E-02  0.1152099E+00
         21   -1    0    0  501  502  0.00000000000E+00  0.00000000000E+00  0.14071303761E+03  0.14071303761E+03  0.00000000000E+00 0.  1.
         21   -1    0    0  502  503 -0.00000000000E+00 -0.00000000000E+00 -0.28371790483E+03  0.28371790483E+03  0.00000000000E+00 0. -1.
          6    1    1    2  501    0  0.59847888953E+02 -0.73405433907E+02 -0.37520447881E+02  0.20076581270E+03  0.17300000000E+03 0. -1.
         -6    1    1    2    0  503 -0.59847888953E+02  0.73405433907E+02 -0.10548441933E+03  0.22366512974E+03  0.17300000000E+03 0. -1.
<mgrwt>
<rscale>  2 0.19722862E+03</rscale>
<asrwt>0</asrwt>
<pdfrwt beam="1">  1       21 0.21648160E-01 0.19722862E+03</pdfrwt>
<pdfrwt beam="2">  1       21 0.43648908E-01 0.19722862E+03</pdfrwt>
<totfact> 0.10018607E+05</totfact>
</mgrwt>
</event>
<event>
 4    1  0.3950955E+000  0.2961600E+03  0.7546771E-02  0.1087176E+00
         21   -1    0    0  503  502  0.00000000000E+00  0.00000000000E+00  0.16651046072E+03  0.16651046072E+03  0.00000000000E+00 0.  1.
         21   -1    0    0  501  503 -0.00000000000E+00 -0.00000000000E+00 -0.55147694665E+03  0.55147694665E+03  0.00000000000E+00 0. -1.
          6    1    1    2  501    0  0.51903804042E+02  0.23470778366E+03 -0.26848724810E+03  0.39974510751E+03  0.17300000000E+03 0. -1.
         -6    1    1    2    0  502 -0.51903804042E+02 -0.23470778366E+03 -0.11647923783E+03  0.31824229987E+03  0.17300000000E+03 0.  1.
<mgrwt>
<rscale>  2 0.29616001E+03</rscale>
<asrwt>0</asrwt>
<pdfrwt beam="1">  1       21 0.25616994E-01 0.29616001E+03</pdfrwt>
<pdfrwt beam="2">  1       21 0.84842609E-01 0.29616001E+03</pdfrwt>
<totfact> 0.16478156E+04</totfact>
</mgrwt>
</event>
<event>
 4    1  0.3950955E+000  0.2564306E+03  0.7546771E-02  0.1109307E+00
         21   -1    0    0  503  502  0.00000000000E+00  0.00000000000E+00  0.44818254557E+03  0.44818254557E+03  0.00000000000E+00 0. -1.
         21   -1    0    0  501  503 -0.00000000000E+00 -0.00000000000E+00 -0.27251765269E+03  0.27251765269E+03  0.00000000000E+00 0. -1.
          6    1    1    2  501    0  0.27507110523E+02  0.18727254355E+03 -0.15699848058E+03  0.30067452436E+03  0.17300000000E+03 0. -1.
         -6    1    1    2    0  502 -0.27507110523E+02 -0.18727254355E+03  0.33266337345E+03  0.42002567390E+03  0.17300000000E+03 0. -1.
<mgrwt>
<rscale>  2 0.25643059E+03</rscale>
<asrwt>0</asrwt>
<pdfrwt beam="1">  1       21 0.68951161E-01 0.25643059E+03</pdfrwt>
<pdfrwt beam="2">  1       21 0.41925793E-01 0.25643059E+03</pdfrwt>
<totfact> 0.10086044E+04</totfact>
</mgrwt>
</event>
<event>
 4    1  0.3950955E+000  0.2412305E+03  0.7546771E-02  0.1118976E+00
         21   -1    0    0  503  502  0.00000000000E+00  0.00000000000E+00  0.16754497248E+03  0.16754497248E+03  0.00000000000E+00 0. -1.
         21   -1    0    0  501  503 -0.00000000000E+00 -0.00000000000E+00 -0.40251763855E+03  0.40251763855E+03  0.00000000000E+00 0. -1.
          6    1    1    2  501    0 -0.11895332476E+03 -0.11879916630E+03 -0.22303447579E+03  0.32853692756E+03  0.17300000000E+03 0. -1.
         -6    1    1    2    0  502  0.11895332476E+03  0.11879916630E+03 -0.11938190284E+02  0.24152568346E+03  0.17300000000E+03 0. -1.
<mgrwt>
<rscale>  2 0.24123046E+03</rscale>
<asrwt>0</asrwt>
<pdfrwt beam="1">  1       21 0.25776150E-01 0.24123046E+03</pdfrwt>
<pdfrwt beam="2">  1       21 0.61925790E-01 0.24123046E+03</pdfrwt>
<totfact> 0.33756326E+04</totfact>
</mgrwt>
</event>
<event>
 4    1  0.3950955E+000  0.4445401E+03  0.7546771E-02  0.1029363E+00
         21   -1    0    0  501  502  0.00000000000E+00  0.00000000000E+00  0.14595883261E+04  0.14595883261E+04  0.00000000000E+00 0. -1.
         21   -1    0    0  502  503 -0.00000000000E+00 -0.00000000000E+00 -0.14245433672E+03  0.14245433672E+03  0.00000000000E+00 0.  1.
          6    1    1    2  501    0 -0.39662216175E+03  0.10187112843E+03  0.83692620892E+03  0.94766098641E+03  0.17300000000E+03 0. -1.
         -6    1    1    2    0  503  0.39662216175E+03 -0.10187112843E+03  0.48020778047E+03  0.65438167641E+03  0.17300000000E+03 0.  1.
<mgrwt>
<rscale>  2 0.44454006E+03</rscale>
<asrwt>0</asrwt>
<pdfrwt beam="1">  1       21 0.22455204E+00 0.44454006E+03</pdfrwt>
<pdfrwt beam="2">  1       21 0.21916053E-01 0.44454006E+03</pdfrwt>
<totfact> 0.15357169E+03</totfact>
</mgrwt>
</event>
<event>
 4    1  0.3950955E+000  0.1737200E+03  0.7546771E-02  0.1174023E+00
         21   -1    0    0  503  502  0.00000000000E+00  0.00000000000E+00  0.31350794893E+03  0.31350794893E+03  0.00000000000E+00 0. -1.
         21   -1    0    0  501  503 -0.00000000000E+00 -0.00000000000E+00 -0.96309166798E+03  0.96309166798E+03  0.00000000000E+00 0. -1.
          6    1    1    2  501    0 -0.23749953523E+01 -0.15620298313E+02 -0.93035300080E+03  0.94643295611E+03  0.17300000000E+03 0. -1.
         -6    1    1    2    0  502  0.23749953523E+01  0.15620298313E+02  0.28076928176E+03  0.33016666080E+03  0.17300000000E+03 0. -1.
<mgrwt>
<rscale>  2 0.17371999E+03</rscale>
<asrwt>0</asrwt>
<pdfrwt beam="1">  1       21 0.48231991E-01 0.17371999E+03</pdfrwt>
<pdfrwt beam="2">  1       21 0.14816795E+00 0.17371999E+03</pdfrwt>
<totfact> 0.12934095E+03</totfact>
</mgrwt>
</event>
<event>
 4    1  0.3950955E+000  0.2179665E+03  0.7546771E-02  0.1135408E+00
         21   -1    0    0  503  502  0.00000000000E+00  0.00000000000E+00  0.13344562227E+04  0.13344562227E+04  0.00000000000E+00 0. -1.
         21   -1    0    0  501  503 -0.00000000000E+00 -0.00000000000E+00 -0.36661705996E+02  0.36661705996E+02  0.00000000000E+00 0.  1.
          6    1    1    2  501    0 -0.10723317840E+02 -0.13215674158E+03  0.53234562604E+03  0.57524017545E+03  0.17300000000E+03 0.  1.
         -6    1    1    2    0  502  0.10723317840E+02  0.13215674158E+03  0.76544889064E+03  0.79587775322E+03  0.17300000000E+03 0. -1.
<mgrwt>
<rscale>  2 0.21796650E+03</rscale>
<asrwt>0</asrwt>
<pdfrwt beam="1">  1       21 0.20530092E+00 0.21796650E+03</pdfrwt>
<pdfrwt beam="2">  1       21 0.56402635E-02 0.21796650E+03</pdfrwt>
<totfact> 0.26734628E+04</totfact>
</mgrwt>
</event>
<event>
 4    1  0.3950955E+000  0.2194846E+03  0.7546771E-02  0.1134268E+00
         21   -1    0    0  503  502  0.00000000000E+00  0.00000000000E+00  0.16749182650E+03  0.16749182650E+03  0.00000000000E+00 0.  1.
         21   -1    0    0  501  503 -0.00000000000E+00 -0.00000000000E+00 -0.35206708310E+03  0.35206708310E+03  0.00000000000E+00 0.  1.
          6    1    1    2  501    0  0.13115054516E+03 -0.32311208366E+02 -0.20343627323E+03  0.29926542892E+03  0.17300000000E+03 0.  1.
         -6    1    1    2    0  502 -0.13115054516E+03  0.32311208366E+02  0.18861016626E+02  0.22029348068E+03  0.17300000000E+03 0.  1.
<mgrwt>
<rscale>  2 0.21948458E+03</rscale>
<asrwt>0</asrwt>
<pdfrwt beam="1">  1       21 0.25767973E-01 0.21948458E+03</pdfrwt>
<pdfrwt beam="2">  1       21 0.54164167E-01 0.21948458E+03</pdfrwt>
<totfact> 0.45458338E+04</totfact>
</mgrwt>
</event>
<event>
 4    1  0.3950955E+000  0.1772847E+03  0.7546771E-02  0.1170457E+00
         21   -1    0    0  501  502  0.00000000000E+00  0.00000000000E+00  0.13031473080E+03  0.13031473080E+03  0.00000000000E+00 0.  1.
         21   -1    0    0  502  503 -0.00000000000E+00 -0.00000000000E+00 -0.41774115661E+03  0.41774115661E+03  0.00000000000E+00 0.  1.
          6    1    1    2  501    0  0.28031359037E+02  0.26741667415E+02  0.34435812099E+02  0.18059817004E+03  0.17300000000E+03 0.  1.
         -6    1    1    2    0  503 -0.28031359037E+02 -0.26741667415E+02 -0.32186223791E+03  0.36745771738E+03  0.17300000000E+03 0.  1.
<mgrwt>
<rscale>  2 0.17728473E+03</rscale>
<asrwt>0</asrwt>
<pdfrwt beam="1">  1       21 0.20048420E-01 0.17728473E+03</pdfrwt>
<pdfrwt beam="2">  1       21 0.64267870E-01 0.17728473E+03</pdfrwt>
<totfact> 0.51706843E+04</totfact>
</mgrwt>
</event>
<event>
 4    1  0.3950955E+000  0.1836534E+03  0.7546771E-02  0.1164313E+00
         21   -1    0    0  503  502  0.00000000000E+00  0.00000000000E+00  0.36412023119E+02  0.36412023119E+02  0.00000000000E+00 0. -1.
         21   -1    0    0  501  503 -0.00000000000E+00 -0.00000000000E+00 -0.10521493124E+04  0.10521493124E+04  0.00000000000E+00 0. -1.
          6    1    1    2  501    0 -0.58792926419E+02 -0.18519289762E+02 -0.69610529323E+03  0.71992440683E+03  0.17300000000E+03 0. -1.
         -6    1    1    2    0  502  0.58792926419E+02  0.18519289762E+02 -0.31963199603E+03  0.36863692867E+03  0.17300000000E+03 0. -1.
<mgrwt>
<rscale>  2 0.18365340E+03</rscale>
<asrwt>0</asrwt>
<pdfrwt beam="1">  1       21 0.56018505E-02 0.18365340E+03</pdfrwt>
<pdfrwt beam="2">  1       21 0.16186910E+00 0.18365340E+03</pdfrwt>
<totfact> 0.54359102E+04</totfact>
</mgrwt>
</event>
<event>
 4    1  0.3950955E+000  0.2532935E+03  0.7546771E-02  0.1111241E+00
         21   -1    0    0  501  502  0.00000000000E+00  0.00000000000E+00  0.22410887914E+02  0.22410887914E+02  0.00000000000E+00 0. -1.
         21   -1    0    0  502  503 -0.00000000000E+00 -0.00000000000E+00 -0.28875486442E+04  0.28875486442E+04  0.00000000000E+00 0. -1.
          6    1    1    2  501    0  0.33992351526E+02 -0.18186022480E+03 -0.15673016166E+04  0.15876372314E+04  0.17300000000E+03 0. -1.
         -6    1    1    2    0  503 -0.33992351526E+02  0.18186022480E+03 -0.12978361397E+04  0.13223223007E+04  0.17300000000E+03 0. -1.
<mgrwt>
<rscale>  2 0.25329355E+03</rscale>
<asrwt>0</asrwt>
<pdfrwt beam="1">  1       21 0.34478273E-02 0.25329355E+03</pdfrwt>
<pdfrwt beam="2">  1       21 0.44423846E+00 0.25329355E+03</pdfrwt>
<totfact> 0.21077171E+03</totfact>
</mgrwt>
</event>
<event>
 4    1  0.3950955E+000  0.1905387E+03  0.7546771E-02  0.1157976E+00
         21   -1    0    0  503  502  0.00000000000E+00  0.00000000000E+00  0.87210314217E+02  0.87210314217E+02  0.00000000000E+00 0.  1.
         21   -1    0    0  501  503 -0.00000000000E+00 -0.00000000000E+00 -0.41898517663E+03  0.41898517663E+03  0.00000000000E+00 0.  1.
          6    1    1    2  501    0  0.76985675076E+02  0.21194629399E+02 -0.18617709287E+03  0.26639616437E+03  0.17300000000E+03 0.  1.
         -6    1    1    2    0  502 -0.76985675076E+02 -0.21194629399E+02 -0.14559776955E+03  0.23979932648E+03  0.17300000000E+03 0.  1.
<mgrwt>
<rscale>  2 0.19053873E+03</rscale>
<asrwt>0</asrwt>
<pdfrwt beam="1">  1       21 0.13416971E-01 0.19053873E+03</pdfrwt>
<pdfrwt beam="2">  1       21 0.64459259E-01 0.19053873E+03</pdfrwt>
<totfact> 0.10666307E+05</totfact>
</mgrwt>
</event>
<event>
 4    1  0.3950955E+000  0.1841338E+03  0.7546771E-02  0.1163861E+00
         21   -1    0    0  501  502  0.00000000000E+00  0.00000000000E+00  0.63735044983E+02  0.63735044983E+02  0.00000000000E+00 0. -1.
         21   -1    0    0  502  503 -0.00000000000E+00 -0.00000000000E+00 -0.86769007272E+03  0.86769007272E+03  0.00000000000E+00 0. -1.
          6    1    1    2  501    0 -0.43604365835E+02  0.45551386942E+02 -0.11229459206E+03  0.21567416391E+03  0.17300000000E+03 0. -1.
         -6    1    1    2    0  503  0.43604365835E+02 -0.45551386942E+02 -0.69166043568E+03  0.71575095380E+03  0.17300000000E+03 0. -1.
<mgrwt>
<rscale>  2 0.18413384E+03</rscale>
<asrwt>0</asrwt>
<pdfrwt beam="1">  1       21 0.98053917E-02 0.18413384E+03</pdfrwt>
<pdfrwt beam="2">  1       21 0.13349078E+00 0.18413384E+03</pdfrwt>
<totfact> 0.34127154E+04</totfact>
</mgrwt>
</event>
<event>
 4    1  0.3950955E+000  0.1801245E+03  0.7546771E-02  0.1167683E+00
         21   -1    0    0  501  502  0.00000000000E+00  0.00000000000E+00  0.52506226436E+03  0.52506226436E+03  0.00000000000E+00 0. -1.
         21   -1    0    0  502  503 -0.00000000000E+00 -0.00000000000E+00 -0.67428957098E+02  0.67428957098E+02  0.00000000000E+00 0. -1.
          6    1    1    2  501    0 -0.12531648650E+02 -0.48567342875E+02  0.14316460674E+03  0.23008896896E+03  0.17300000000E+03 0. -1.
         -6    1    1    2    0  503  0.12531648650E+02  0.48567342875E+02  0.31446870052E+03  0.36240225250E+03  0.17300000000E+03 0. -1.
<mgrwt>
<rscale>  2 0.18012448E+03</rscale>
<asrwt>0</asrwt>
<pdfrwt beam="1">  1       21 0.80778807E-01 0.18012448E+03</pdfrwt>
<pdfrwt beam="2">  1       21 0.10373686E-01 0.18012448E+03</pdfrwt>
<totfact> 0.10282629E+05</totfact>
</mgrwt>
</event>
<event>
 4    1  0.3950955E+000  0.1903531E+03  0.7546771E-02  0.1158143E+00
         21   -1    0    0  501  502  0.00000000000E+00  0.00000000000E+00  0.33608561150E+02  0.33608561150E+02  0.00000000000E+00 0. -1.
         21   -1    0    0  502  503 -0.00000000000E+00 -0.00000000000E+00 -0.10868265419E+04  0.10868265419E+04  0.00000000000E+00 0. -1.
          6    1    1    2  501    0  0.22972791257E+02  0.76010180321E+02 -0.57673062166E+03  0.60733228682E+03  0.17300000000E+03 0. -1.
         -6    1    1    2    0  503 -0.22972791257E+02 -0.76010180321E+02 -0.47648735905E+03  0.51310281619E+03  0.17300000000E+03 0. -1.
<mgrwt>
<rscale>  2 0.19035308E+03</rscale>
<asrwt>0</asrwt>
<pdfrwt beam="1">  1       21 0.51705492E-02 0.19035308E+03</pdfrwt>
<pdfrwt beam="2">  1       21 0.16720404E+00 0.19035308E+03</pdfrwt>
<totfact> 0.56821147E+04</totfact>
</mgrwt>
</event>
<event>
 4    1  0.3950955E+000  0.1904568E+03  0.7546771E-02  0.1158050E+00
         21   -1    0    0  503  502  0.00000000000E+00  0.00000000000E+00  0.74781883399E+03  0.74781883399E+03  0.00000000000E+00 0.  1.
         21   -1    0    0  501  503 -0.00000000000E+00 -0.00000000000E+00 -0.36672058038E+03  0.36672058038E+03  0.00000000000E+00 0. -1.
          6    1    1    2  501    0 -0.21062844173E+02 -0.76818922202E+02 -0.32855890626E+03  0.37976933143E+03  0.17300000000E+03 0. -1.
         -6    1    1    2    0  502  0.21062844173E+02  0.76818922202E+02  0.70965715988E+03  0.73477008294E+03  0.17300000000E+03 0.  1.
<mgrwt>
<rscale>  2 0.19045679E+03</rscale>
<asrwt>0</asrwt>
<pdfrwt beam="1">  1       21 0.11504905E+00 0.19045679E+03</pdfrwt>
<pdfrwt beam="2">  1       21 0.56418551E-01 0.19045679E+03</pdfrwt>
<totfact> 0.17344138E+03</totfact>
</mgrwt>
</event>
<event>
 4    1  0.3950955E+000  0.2017169E+03  0.7546771E-02  0.1148298E+00
         21   -1    0    0  501  502  0.00000000000E+00  0.00000000000E+00  0.35229230328E+03  0.35229230328E+03  0.00000000000E+00 0.  1.
         21   -1    0    0  502  503 -0.00000000000E+00 -0.00000000000E+00 -0.13349856107E+03  0.13349856107E+03  0.00000000000E+00 0. -1.
          6    1    1    2  501    0 -0.98511329184E+02  0.32499914322E+02  0.19858378448E+03  0.28306403139E+03  0.17300000000E+03 0.  1.
         -6    1    1    2    0  503  0.98511329184E+02 -0.32499914322E+02  0.20209957736E+02  0.20272683296E+03  0.17300000000E+03 0. -1.
<mgrwt>
<rscale>  2 0.20171695E+03</rscale>
<asrwt>0</asrwt>
<pdfrwt beam="1">  1       21 0.54198815E-01 0.20171695E+03</pdfrwt>
<pdfrwt beam="2">  1       21 0.20538240E-01 0.20171695E+03</pdfrwt>
<totfact> 0.70382463E+04</totfact>
</mgrwt>
</event>
<event>
 4    1  0.3950955E+000  0.1994407E+03  0.7546771E-02  0.1150212E+00
         21   -1    0    0  503  502  0.00000000000E+00  0.00000000000E+00  0.30673641870E+03  0.30673641870E+03  0.00000000000E+00 0. -1.
         21   -1    0    0  501  503 -0.00000000000E+00 -0.00000000000E+00 -0.15526298621E+03  0.15526298621E+03  0.00000000000E+00 0. -1.
          6    1    1    2  501    0 -0.47494457594E+02  0.87131339255E+02 -0.18036827023E+02  0.20025464017E+03  0.17300000000E+03 0. -1.
         -6    1    1    2    0  502  0.47494457594E+02 -0.87131339255E+02  0.16951025952E+03  0.26174476473E+03  0.17300000000E+03 0. -1.
<mgrwt>
<rscale>  2 0.19944070E+03</rscale>
<asrwt>0</asrwt>
<pdfrwt beam="1">  1       21 0.47190218E-01 0.19944070E+03</pdfrwt>
<pdfrwt beam="2">  1       21 0.23886613E-01 0.19944070E+03</pdfrwt>
<totfact> 0.70764574E+04</totfact>
</mgrwt>
</event>
<event>
 4    1  0.3950955E+000  0.1978670E+03  0.7546771E-02  0.1151551E+00
         21   -1    0    0  503  502  0.00000000000E+00  0.00000000000E+00  0.20502890410E+02  0.20502890410E+02  0.00000000000E+00 0. -1.
         21   -1    0    0  501  503 -0.00000000000E+00 -0.00000000000E+00 -0.22594719827E+04  0.22594719827E+04  0.00000000000E+00 0. -1.
          6    1    1    2  501    0  0.51187690380E+02 -0.81253744417E+02 -0.15681064724E+04  0.15805408123E+04  0.17300000000E+03 0. -1.
         -6    1    1    2    0  502 -0.51187690380E+02  0.81253744417E+02 -0.67086261993E+03  0.69943406083E+03  0.17300000000E+03 0. -1.
<mgrwt>
<rscale>  2 0.19786700E+03</rscale>
<asrwt>0</asrwt>
<pdfrwt beam="1">  1       21 0.31542920E-02 0.19786700E+03</pdfrwt>
<pdfrwt beam="2">  1       21 0.34761095E+00 0.19786700E+03</pdfrwt>
<totfact> 0.10453990E+04</totfact>
</mgrwt>
</event>
<event>
 4    1  0.3950955E+000  0.2039373E+03  0.7546771E-02  0.1146459E+00
         21   -1    0    0  503  502  0.00000000000E+00  0.00000000000E+00  0.21375147765E+02  0.21375147765E+02  0.00000000000E+00 0. -1.
         21   -1    0    0  501  503 -0.00000000000E+00 -0.00000000000E+00 -0.21250280082E+04  0.21250280082E+04  0.00000000000E+00 0. -1.
          6    1    1    2  501    0  0.67474549227E+02  0.84312567111E+02 -0.13635558430E+04  0.13787222203E+04  0.17300000000E+03 0. -1.
         -6    1    1    2    0  502 -0.67474549227E+02 -0.84312567111E+02 -0.74009701736E+03  0.76768093559E+03  0.17300000000E+03 0. -1.
<mgrwt>
<rscale>  2 0.20393730E+03</rscale>
<asrwt>0</asrwt>
<pdfrwt beam="1">  1       21 0.32884840E-02 0.20393730E+03</pdfrwt>
<pdfrwt beam="2">  1       21 0.32692741E+00 0.20393730E+03</pdfrwt>
<totfact> 0.12807741E+04</totfact>
</mgrwt>
</event>
<event>
 4    1  0.3950955E+000  0.1811609E+03  0.7546771E-02  0.1166684E+00
         21   -1    0    0  501  502  0.00000000000E+00  0.00000000000E+00  0.13088075479E+03  0.13088075479E+03  0.00000000000E+00 0. -1.
         21   -1    0    0  502  503 -0.00000000000E+00 -0.00000000000E+00 -0.30433016382E+03  0.30433016382E+03  0.00000000000E+00 0. -1.
          6    1    1    2  501    0  0.56208680828E+01  0.53466542638E+02  0.45753290290E+01  0.18121864963E+03  0.17300000000E+03 0. -1.
         -6    1    1    2    0  503 -0.56208680828E+01 -0.53466542638E+02 -0.17802473806E+03  0.25399226898E+03  0.17300000000E+03 0. -1.
<mgrwt>
<rscale>  2 0.18116088E+03</rscale>
<asrwt>0</asrwt>
<pdfrwt beam="1">  1       21 0.20135501E-01 0.18116088E+03</pdfrwt>
<pdfrwt beam="2">  1       21 0.46820024E-01 0.18116088E+03</pdfrwt>
<totfact> 0.99974857E+04</totfact>
</mgrwt>
</event>
<event>
 4    1  0.3950955E+000  0.2247204E+03  0.7546771E-02  0.1130412E+00
         21   -1    0    0  503  502  0.00000000000E+00  0.00000000000E+00  0.22243545042E+03  0.22243545042E+03  0.00000000000E+00 0. -1.
         21   -1    0    0  501  503 -0.00000000000E+00 -0.00000000000E+00 -0.23097449711E+03  0.23097449711E+03  0.00000000000E+00 0. -1.
          6    1    1    2  501    0  0.67978884382E+02 -0.12628991839E+03  0.25360790245E+02  0.22614694756E+03  0.17300000000E+03 0. -1.
         -6    1    1    2    0  502 -0.67978884382E+02  0.12628991839E+03 -0.33899836941E+02  0.22726299997E+03  0.17300000000E+03 0. -1.
<mgrwt>
<rscale>  2 0.22472043E+03</rscale>
<asrwt>0</asrwt>
<pdfrwt beam="1">  1       21 0.34220839E-01 0.22472043E+03</pdfrwt>
<pdfrwt beam="2">  1       21 0.35534538E-01 0.22472043E+03</pdfrwt>
<totfact> 0.61945547E+04</totfact>
</mgrwt>
</event>
<event>
 4    1  0.3950955E+000  0.2151735E+03  0.7546771E-02  0.1137533E+00
         21   -1    0    0  501  502  0.00000000000E+00  0.00000000000E+00  0.65199126465E+03  0.65199126465E+03  0.00000000000E+00 0.  1.
         21   -1    0    0  502  503 -0.00000000000E+00 -0.00000000000E+00 -0.91202548609E+02  0.91202548609E+02  0.00000000000E+00 0.  1.
          6    1    1    2  501    0 -0.36439934834E+02 -0.12264893423E+03  0.45523227815E+03  0.50352364094E+03  0.17300000000E+03 0.  1.
         -6    1    1    2    0  503  0.36439934834E+02  0.12264893423E+03  0.10555643789E+03  0.23967017231E+03  0.17300000000E+03 0.  1.
<mgrwt>
<rscale>  2 0.21517349E+03</rscale>
<asrwt>0</asrwt>
<pdfrwt beam="1">  1       21 0.10030635E+00 0.21517349E+03</pdfrwt>
<pdfrwt beam="2">  1       21 0.14031162E-01 0.21517349E+03</pdfrwt>
<totfact> 0.35655642E+04</totfact>
</mgrwt>
</event>
<event>
 4    1  0.3950955E+000  0.2247839E+03  0.7546771E-02  0.1130366E+00
         21   -1    0    0  503  502  0.00000000000E+00  0.00000000000E+00  0.97717995175E+02  0.97717995175E+02  0.00000000000E+00 0.  1.
         21   -1    0    0  501  503 -0.00000000000E+00 -0.00000000000E+00 -0.91111541498E+03  0.91111541498E+03  0.00000000000E+00 0.  1.
          6    1    1    2  501    0 -0.52362609759E+02 -0.13362993986E+03 -0.73841867972E+03  0.77187430990E+03  0.17300000000E+03 0.  1.
         -6    1    1    2    0  502  0.52362609759E+02  0.13362993986E+03 -0.74978740085E+02  0.23695910025E+03  0.17300000000E+03 0.  1.
<mgrwt>
<rscale>  2 0.22478390E+03</rscale>
<asrwt>0</asrwt>
<pdfrwt beam="1">  1       21 0.15033538E-01 0.22478390E+03</pdfrwt>
<pdfrwt beam="2">  1       21 0.14017160E+00 0.22478390E+03</pdfrwt>
<totfact> 0.13636017E+04</totfact>
</mgrwt>
</event>
<event>
 4    1  0.3950955E+000  0.2662276E+03  0.7546771E-02  0.1103458E+00
         21   -1    0    0  503  502  0.00000000000E+00  0.00000000000E+00  0.33877071927E+03  0.33877071927E+03  0.00000000000E+00 0. -1.
         21   -1    0    0  501  503 -0.00000000000E+00 -0.00000000000E+00 -0.23092976271E+03  0.23092976271E+03  0.00000000000E+00 0.  1.
          6    1    1    2  501    0  0.20150685607E+03 -0.18524245336E+02  0.14126133278E+03  0.30138335197E+03  0.17300000000E+03 0. -1.
         -6    1    1    2    0  502 -0.20150685607E+03  0.18524245336E+02 -0.33420376216E+02  0.26831713000E+03  0.17300000000E+03 0.  1.
<mgrwt>
<rscale>  2 0.26622765E+03</rscale>
<asrwt>0</asrwt>
<pdfrwt beam="1">  1       21 0.52118572E-01 0.26622765E+03</pdfrwt>
<pdfrwt beam="2">  1       21 0.35527656E-01 0.26622765E+03</pdfrwt>
<totfact> 0.25723186E+04</totfact>
</mgrwt>
</event>
<event>
 4    1  0.3950955E+000  0.1967456E+03  0.7546771E-02  0.1152514E+00
         21   -1    0    0  501  502  0.00000000000E+00  0.00000000000E+00  0.24097563449E+03  0.24097563449E+03  0.00000000000E+00 0. -1.
         21   -1    0    0  502  503 -0.00000000000E+00 -0.00000000000E+00 -0.40632873821E+03  0.40632873821E+03  0.00000000000E+00 0. -1.
          6    1    1    2  501    0  0.93629884582E+02  0.36454435458E+01  0.16899714788E+03  0.25936245013E+03  0.17300000000E+03 0. -1.
         -6    1    1    2    0  503 -0.93629884582E+02 -0.36454435458E+01 -0.33435025160E+03  0.38794192257E+03  0.17300000000E+03 0. -1.
<mgrwt>
<rscale>  2 0.19674563E+03</rscale>
<asrwt>0</asrwt>
<pdfrwt beam="1">  1       21 0.37073175E-01 0.19674563E+03</pdfrwt>
<pdfrwt beam="2">  1       21 0.62512113E-01 0.19674563E+03</pdfrwt>
<totfact> 0.16602439E+04</totfact>
</mgrwt>
</event>
<event>
 4    1  0.3950955E+000  0.2455125E+03  0.7546771E-02  0.1116174E+00
         21   -1    0    0  501  502  0.00000000000E+00  0.00000000000E+00  0.12382827877E+03  0.12382827877E+03  0.00000000000E+00 0. -1.
         21   -1    0    0  502  503 -0.00000000000E+00 -0.00000000000E+00 -0.51854479607E+03  0.51854479607E+03  0.00000000000E+00 0. -1.
          6    1    1    2  501    0  0.17360359829E+03  0.14462483690E+02 -0.27686043239E+03  0.37003793292E+03  0.17300000000E+03 0. -1.
         -6    1    1    2    0  503 -0.17360359829E+03 -0.14462483690E+02 -0.11785608491E+03  0.27233514192E+03  0.17300000000E+03 0. -1.
<mgrwt>
<rscale>  2 0.24551247E+03</rscale>
<asrwt>0</asrwt>
<pdfrwt beam="1">  1       21 0.19050505E-01 0.24551247E+03</pdfrwt>
<pdfrwt beam="2">  1       21 0.79776122E-01 0.24551247E+03</pdfrwt>
<totfact> 0.34067321E+04</totfact>
</mgrwt>
</event>
<event>
 4    1  0.3950955E+000  0.1875136E+03  0.7546771E-02  0.1160723E+00
         21   -1    0    0  501  502  0.00000000000E+00  0.00000000000E+00  0.72268112346E+03  0.72268112346E+03  0.00000000000E+00 0. -1.
         21   -1    0    0  502  503 -0.00000000000E+00 -0.00000000000E+00 -0.51445819350E+02  0.51445819350E+02  0.00000000000E+00 0. -1.
          6    1    1    2  501    0  0.56931873109E+02  0.44621755996E+02  0.42578504617E+03  0.46524643451E+03  0.17300000000E+03 0. -1.
         -6    1    1    2    0  503 -0.56931873109E+02 -0.44621755996E+02  0.24545025794E+03  0.30888050830E+03  0.17300000000E+03 0. -1.
<mgrwt>
<rscale>  2 0.18751357E+03</rscale>
<asrwt>0</asrwt>
<pdfrwt beam="1">  1       21 0.11118170E+00 0.18751357E+03</pdfrwt>
<pdfrwt beam="2">  1       21 0.79147419E-02 0.18751357E+03</pdfrwt>
<totfact> 0.77989833E+04</totfact>
</mgrwt>
</event>
<event>
 4    1  0.3950955E+000  0.1924404E+03  0.7546771E-02  0.1156278E+00
         21   -1    0    0  503  502  0.00000000000E+00  0.00000000000E+00  0.11854031583E+04  0.11854031583E+04  0.00000000000E+00 0. -1.
         21   -1    0    0  501  503 -0.00000000000E+00 -0.00000000000E+00 -0.31334052294E+02  0.31334052294E+02  0.00000000000E+00 0.  1.
          6    1    1    2  501    0  0.20562409731E+02  0.81740395003E+02  0.61016873318E+03  0.63979620804E+03  0.17300000000E+03 0.  1.
         -6    1    1    2    0  502 -0.20562409731E+02 -0.81740395003E+02  0.54390037281E+03  0.57694100254E+03  0.17300000000E+03 0. -1.
<mgrwt>
<rscale>  2 0.19244039E+03</rscale>
<asrwt>0</asrwt>
<pdfrwt beam="1">  1       21 0.18236968E+00 0.19244039E+03</pdfrwt>
<pdfrwt beam="2">  1       21 0.48206243E-02 0.19244039E+03</pdfrwt>
<totfact> 0.50187556E+04</totfact>
</mgrwt>
</event>
<event>
 4    1  0.3950955E+000  0.3157455E+03  0.7546771E-02  0.1077624E+00
         21   -1    0    0  503  502  0.00000000000E+00  0.00000000000E+00  0.14244581108E+04  0.14244581108E+04  0.00000000000E+00 0. -1.
         21   -1    0    0  501  503 -0.00000000000E+00 -0.00000000000E+00 -0.92043327831E+02  0.92043327831E+02  0.00000000000E+00 0.  1.
          6    1    1    2  501    0 -0.23483853197E+03  0.12090101204E+03  0.29503818635E+03  0.43213738813E+03  0.17300000000E+03 0.  1.
         -6    1    1    2    0  502  0.23483853197E+03 -0.12090101204E+03  0.10373765966E+04  0.10843640505E+04  0.17300000000E+03 0. -1.
<mgrwt>
<rscale>  2 0.31574545E+03</rscale>
<asrwt>0</asrwt>
<pdfrwt beam="1">  1       21 0.21914739E+00 0.31574545E+03</pdfrwt>
<pdfrwt beam="2">  1       21 0.14160513E-01 0.31574545E+03</pdfrwt>
<totfact> 0.40319943E+03</totfact>
</mgrwt>
</event>
<event>
 4    1  0.3950955E+000  0.1959235E+03  0.7546771E-02  0.1153225E+00
         21   -1    0    0  503  502  0.00000000000E+00  0.00000000000E+00  0.64296130333E+03  0.64296130333E+03  0.00000000000E+00 0. -1.
         21   -1    0    0  501  503 -0.00000000000E+00 -0.00000000000E+00 -0.69485882365E+02  0.69485882365E+02  0.00000000000E+00 0. -1.
          6    1    1    2  501    0 -0.87107744392E+02  0.29483461235E+02  0.15306847748E+03  0.24862822128E+03  0.17300000000E+03 0. -1.
         -6    1    1    2    0  502  0.87107744392E+02 -0.29483461235E+02  0.42040694349E+03  0.46381896441E+03  0.17300000000E+03 0. -1.
<mgrwt>
<rscale>  2 0.19592354E+03</rscale>
<asrwt>0</asrwt>
<pdfrwt beam="1">  1       21 0.98917119E-01 0.19592354E+03</pdfrwt>
<pdfrwt beam="2">  1       21 0.10690136E-01 0.19592354E+03</pdfrwt>
<totfact> 0.60641628E+04</totfact>
</mgrwt>
</event>
<event>
 4    1  0.3950955E+000  0.2172784E+03  0.7546771E-02  0.1135928E+00
         21   -1    0    0  501  502  0.00000000000E+00  0.00000000000E+00  0.67313146163E+03  0.67313146163E+03  0.00000000000E+00 0. -1.
         21   -1    0    0  502  503 -0.00000000000E+00 -0.00000000000E+00 -0.70479906895E+02  0.70479906895E+02  0.00000000000E+00 0. -1.
          6    1    1    2  501    0 -0.30028419647E+02 -0.12798131217E+03  0.32734397330E+03  0.39289184149E+03  0.17300000000E+03 0. -1.
         -6    1    1    2    0  503  0.30028419647E+02  0.12798131217E+03  0.27530758143E+03  0.35071952703E+03  0.17300000000E+03 0. -1.
<mgrwt>
<rscale>  2 0.21727844E+03</rscale>
<asrwt>0</asrwt>
<pdfrwt beam="1">  1       21 0.10355868E+00 0.21727844E+03</pdfrwt>
<pdfrwt beam="2">  1       21 0.10843063E-01 0.21727844E+03</pdfrwt>
<totfact> 0.52449242E+04</totfact>
</mgrwt>
</event>
<event>
 4    1  0.3950955E+000  0.1944118E+03  0.7546771E-02  0.1154541E+00
         21   -1    0    0  503  502  0.00000000000E+00  0.00000000000E+00  0.19448911318E+03  0.19448911318E+03  0.00000000000E+00 0.  1.
         21   -1    0    0  501  503 -0.00000000000E+00 -0.00000000000E+00 -0.34161939389E+03  0.34161939389E+03  0.00000000000E+00 0.  1.
          6    1    1    2  501    0 -0.88440326877E+02  0.67285117426E+01 -0.24957232566E+03  0.31635788282E+03  0.17300000000E+03 0.  1.
         -6    1    1    2    0  502  0.88440326877E+02 -0.67285117426E+01  0.10244204495E+03  0.21975062426E+03  0.17300000000E+03 0.  1.
<mgrwt>
<rscale>  2 0.19441184E+03</rscale>
<asrwt>0</asrwt>
<pdfrwt beam="1">  1       21 0.29921402E-01 0.19441184E+03</pdfrwt>
<pdfrwt beam="2">  1       21 0.52556830E-01 0.19441184E+03</pdfrwt>
<totfact> 0.36735462E+04</totfact>
</mgrwt>
</event>
<event>
 4    1  0.3950955E+000  0.2391989E+03  0.7546771E-02  0.1120328E+00
         21   -1    0    0  501  502  0.00000000000E+00  0.00000000000E+00  0.92976052836E+02  0.92976052836E+02  0.00000000000E+00 0.  1.
         21   -1    0    0  502  503 -0.00000000000E+00 -0.00000000000E+00 -0.87306603374E+03  0.87306603374E+03  0.00000000000E+00 0. -1.
          6    1    1    2  501    0 -0.61814942284E+02 -0.15318623591E+03 -0.65245678701E+03  0.69492155591E+03  0.17300000000E+03 0. -1.
         -6    1    1    2    0  503  0.61814942284E+02  0.15318623591E+03 -0.12763319390E+03  0.27112053067E+03  0.17300000000E+03 0.  1.
<mgrwt>
<rscale>  2 0.23919889E+03</rscale>
<asrwt>0</asrwt>
<pdfrwt beam="1">  1       21 0.14304008E-01 0.23919889E+03</pdfrwt>
<pdfrwt beam="2">  1       21 0.13431785E+00 0.23919889E+03</pdfrwt>
<totfact> 0.16527376E+04</totfact>
</mgrwt>
</event>
<event>
 4    1  0.3950955E+000  0.2206709E+03  0.7546771E-02  0.1133384E+00
         21   -1    0    0  501  502  0.00000000000E+00  0.00000000000E+00  0.10900146769E+03  0.10900146769E+03  0.00000000000E+00 0. -1.
         21   -1    0    0  502  503 -0.00000000000E+00 -0.00000000000E+00 -0.48295238261E+03  0.48295238261E+03  0.00000000000E+00 0. -1.
          6    1    1    2  501    0 -0.78686867840E+02 -0.11213850534E+03 -0.10593257315E+03  0.24478026392E+03  0.17300000000E+03 0. -1.
         -6    1    1    2    0  503  0.78686867840E+02  0.11213850534E+03 -0.26801834177E+03  0.34717358637E+03  0.17300000000E+03 0. -1.
<mgrwt>
<rscale>  2 0.22067095E+03</rscale>
<asrwt>0</asrwt>
<pdfrwt beam="1">  1       21 0.16769456E-01 0.22067095E+03</pdfrwt>
<pdfrwt beam="2">  1       21 0.74300367E-01 0.22067095E+03</pdfrwt>
<totfact> 0.51243992E+04</totfact>
</mgrwt>
</event>
<event>
 4    1  0.3950955E+000  0.2244444E+03  0.7546771E-02  0.1130612E+00
         21   -1    0    0  501  502  0.00000000000E+00  0.00000000000E+00  0.15683387103E+03  0.15683387103E+03  0.00000000000E+00 0.  1.
         21   -1    0    0  502  503 -0.00000000000E+00 -0.00000000000E+00 -0.35043624256E+03  0.35043624256E+03  0.00000000000E+00 0. -1.
          6    1    1    2  501    0 -0.50155234846E+01  0.14290250930E+03 -0.23543359107E+02  0.22567581261E+03  0.17300000000E+03 0.  1.
         -6    1    1    2    0  503  0.50155234846E+01 -0.14290250930E+03 -0.17005901242E+03  0.28159430098E+03  0.17300000000E+03 0. -1.
<mgrwt>
<rscale>  2 0.22444439E+03</rscale>
<asrwt>0</asrwt>
<pdfrwt beam="1">  1       21 0.24128288E-01 0.22444439E+03</pdfrwt>
<pdfrwt beam="2">  1       21 0.53913267E-01 0.22444439E+03</pdfrwt>
<totfact> 0.51951559E+04</totfact>
</mgrwt>
</event>
<event>
 4    1  0.3950955E+000  0.1734764E+03  0.7546771E-02  0.1174270E+00
         21   -1    0    0  501  502  0.00000000000E+00  0.00000000000E+00  0.15061038271E+04  0.15061038271E+04  0.00000000000E+00 0.  1.
         21   -1    0    0  502  503 -0.00000000000E+00 -0.00000000000E+00 -0.26255891437E+02  0.26255891437E+02  0.00000000000E+00 0.  1.
          6    1    1    2  501    0  0.12807831706E+02  0.10111920592E+01  0.11144712169E+04  0.11278919081E+04  0.17300000000E+03 0.  1.
         -6    1    1    2    0  503 -0.12807831706E+02 -0.10111920592E+01  0.36537671873E+03  0.40446781040E+03  0.17300000000E+03 0.  1.
<mgrwt>
<rscale>  2 0.17347640E+03</rscale>
<asrwt>0</asrwt>
<pdfrwt beam="1">  1       21 0.23170821E+00 0.17347640E+03</pdfrwt>
<pdfrwt beam="2">  1       21 0.40393691E-02 0.17347640E+03</pdfrwt>
<totfact> 0.33427351E+04</totfact>
</mgrwt>
</event>
<event>
 4    1  0.3950955E+000  0.1840063E+03  0.7546771E-02  0.1163981E+00
         21   -1    0    0  501  502  0.00000000000E+00  0.00000000000E+00  0.11742198957E+03  0.11742198957E+03  0.00000000000E+00 0. -1.
         21   -1    0    0  502  503 -0.00000000000E+00 -0.00000000000E+00 -0.32484712450E+03  0.32484712450E+03  0.00000000000E+00 0.  1.
          6    1    1    2  501    0 -0.62679933322E+02 -0.74917874008E+00 -0.29588132962E+02  0.18637004298E+03  0.17300000000E+03 0.  1.
         -6    1    1    2    0  503  0.62679933322E+02  0.74917874008E+00 -0.17783700198E+03  0.25589907108E+03  0.17300000000E+03 0.  1.
<mgrwt>
<rscale>  2 0.18400635E+03</rscale>
<asrwt>0</asrwt>
<pdfrwt beam="1">  1       21 0.18064922E-01 0.18400635E+03</pdfrwt>
<pdfrwt beam="2">  1       21 0.49976480E-01 0.18400635E+03</pdfrwt>
<totfact> 0.10671437E+05</totfact>
</mgrwt>
</event>
<event>
 4    1  0.3950955E+000  0.1977973E+03  0.7546771E-02  0.1151611E+00
         21   -1    0    0  503  502  0.00000000000E+00  0.00000000000E+00  0.13231380481E+03  0.13231380481E+03  0.00000000000E+00 0.  1.
         21   -1    0    0  501  503 -0.00000000000E+00 -0.00000000000E+00 -0.30980491370E+03  0.30980491370E+03  0.00000000000E+00 0.  1.
          6    1    1    2  501    0  0.38087786764E+02  0.88000455020E+02 -0.13593192618E+03  0.24000260027E+03  0.17300000000E+03 0.  1.
         -6    1    1    2    0  502 -0.38087786764E+02 -0.88000455020E+02 -0.41559182709E+02  0.20211611824E+03  0.17300000000E+03 0.  1.
<mgrwt>
<rscale>  2 0.19779727E+03</rscale>
<asrwt>0</asrwt>
<pdfrwt beam="1">  1       21 0.20355970E-01 0.19779727E+03</pdfrwt>
<pdfrwt beam="2">  1       21 0.47662294E-01 0.19779727E+03</pdfrwt>
<totfact> 0.93807435E+04</totfact>
</mgrwt>
</event>
<event>
 4    1  0.3950955E+000  0.2078121E+03  0.7546771E-02  0.1143310E+00
         21   -1    0    0  501  502  0.00000000000E+00  0.00000000000E+00  0.44721948823E+03  0.44721948823E+03  0.00000000000E+00 0. -1.
         21   -1    0    0  502  503 -0.00000000000E+00 -0.00000000000E+00 -0.97378791577E+02  0.97378791577E+02  0.00000000000E+00 0. -1.
          6    1    1    2  501    0  0.11229130777E+03 -0.25446508850E+02  0.19980911647E+03  0.28828726236E+03  0.17300000000E+03 0. -1.
         -6    1    1    2    0  503 -0.11229130777E+03  0.25446508850E+02  0.15003158019E+03  0.25631101745E+03  0.17300000000E+03 0. -1.
<mgrwt>
<rscale>  2 0.20781208E+03</rscale>
<asrwt>0</asrwt>
<pdfrwt beam="1">  1       21 0.68802997E-01 0.20781208E+03</pdfrwt>
<pdfrwt beam="2">  1       21 0.14981353E-01 0.20781208E+03</pdfrwt>
<totfact> 0.75163478E+04</totfact>
</mgrwt>
</event>
<event>
 4    1  0.3950955E+000  0.1905663E+03  0.7546771E-02  0.1157952E+00
         21   -1    0    0  501  502  0.00000000000E+00  0.00000000000E+00  0.10447163561E+03  0.10447163561E+03  0.00000000000E+00 0.  1.
         21   -1    0    0  502  503 -0.00000000000E+00 -0.00000000000E+00 -0.44502982208E+03  0.44502982208E+03  0.00000000000E+00 0.  1.
          6    1    1    2  501    0 -0.27791672795E+02 -0.74927480594E+02 -0.41731065069E+02  0.19508199870E+03  0.17300000000E+03 0.  1.
         -6    1    1    2    0  503  0.27791672795E+02  0.74927480594E+02 -0.29882712141E+03  0.35441945899E+03  0.17300000000E+03 0.  1.
<mgrwt>
<rscale>  2 0.19056627E+03</rscale>
<asrwt>0</asrwt>
<pdfrwt beam="1">  1       21 0.16072559E-01 0.19056627E+03</pdfrwt>
<pdfrwt beam="2">  1       21 0.68466128E-01 0.19056627E+03</pdfrwt>
<totfact> 0.67339340E+04</totfact>
</mgrwt>
</event>
<event>
 4    1  0.3950955E+000  0.1744978E+03  0.7546771E-02  0.1173237E+00
         21   -1    0    0  503  502  0.00000000000E+00  0.00000000000E+00  0.56823618847E+02  0.56823618847E+02  0.00000000000E+00 0.  1.
         21   -1    0    0  501  503 -0.00000000000E+00 -0.00000000000E+00 -0.20441955502E+04  0.20441955502E+04  0.00000000000E+00 0.  1.
          6    1    1    2  501    0  0.22813488548E+02  0.11003757287E+00 -0.18960626744E+04  0.19040754010E+04  0.17300000000E+03 0.  1.
         -6    1    1    2    0  502 -0.22813488548E+02 -0.11003757287E+00 -0.91309256920E+02  0.19694376803E+03  0.17300000000E+03 0.  1.
<mgrwt>
<rscale>  2 0.17449776E+03</rscale>
<asrwt>0</asrwt>
<pdfrwt beam="1">  1       21 0.87420931E-02 0.17449776E+03</pdfrwt>
<pdfrwt beam="2">  1       21 0.31449170E+00 0.17449776E+03</pdfrwt>
<totfact> 0.29649179E+03</totfact>
</mgrwt>
</event>
<event>
 4    1  0.3950955E+000  0.2165543E+03  0.7546771E-02  0.1136478E+00
         21   -1    0    0  503  502  0.00000000000E+00  0.00000000000E+00  0.15038831759E+04  0.15038831759E+04  0.00000000000E+00 0. -1.
         21   -1    0    0  501  503 -0.00000000000E+00 -0.00000000000E+00 -0.45269641758E+02  0.45269641758E+02  0.00000000000E+00 0. -1.
          6    1    1    2  501    0 -0.31514383655E+02  0.12638682222E+03  0.29722846131E+03  0.36775065387E+03  0.17300000000E+03 0.  1.
         -6    1    1    2    0  502  0.31514383655E+02 -0.12638682222E+03  0.11613850729E+04  0.11814021638E+04  0.17300000000E+03 0.  1.
<mgrwt>
<rscale>  2 0.21655435E+03</rscale>
<asrwt>0</asrwt>
<pdfrwt beam="1">  1       21 0.23136660E+00 0.21655435E+03</pdfrwt>
<pdfrwt beam="2">  1       21 0.69645614E-02 0.21655435E+03</pdfrwt>
<totfact> 0.12831330E+04</totfact>
</mgrwt>
</event>
<event>
 4    1  0.3950955E+000  0.1972068E+03  0.7546771E-02  0.1152117E+00
         21   -1    0    0  503  502  0.00000000000E+00  0.00000000000E+00  0.38898769928E+02  0.38898769928E+02  0.00000000000E+00 0. -1.
         21   -1    0    0  501  503 -0.00000000000E+00 -0.00000000000E+00 -0.10708612992E+04  0.10708612992E+04  0.00000000000E+00 0. -1.
          6    1    1    2  501    0 -0.79004404989E+02  0.52151981440E+02 -0.65893173353E+03  0.68780924291E+03  0.17300000000E+03 0. -1.
         -6    1    1    2    0  502  0.79004404989E+02 -0.52151981440E+02 -0.37303079573E+03  0.42195082621E+03  0.17300000000E+03 0. -1.
<mgrwt>
<rscale>  2 0.19720681E+03</rscale>
<asrwt>0</asrwt>
<pdfrwt beam="1">  1       21 0.59844257E-02 0.19720681E+03</pdfrwt>
<pdfrwt beam="2">  1       21 0.16474790E+00 0.19720681E+03</pdfrwt>
<totfact> 0.45926163E+04</totfact>
</mgrwt>
</event>
<event>
 4    1  0.3950955E+000  0.3402465E+03  0.7546771E-02  0.1066691E+00
         21   -1    0    0  501  502  0.00000000000E+00  0.00000000000E+00  0.37860300324E+03  0.37860300324E+03  0.00000000000E+00 0.  1.
         21   -1    0    0  502  503 -0.00000000000E+00 -0.00000000000E+00 -0.31324178457E+03  0.31324178457E+03  0.00000000000E+00 0.  1.
          6    1    1    2  501    0  0.28836854764E+03 -0.51790645403E+02  0.86085155321E+02  0.35096772527E+03  0.17300000000E+03 0.  1.
         -6    1    1    2    0  503 -0.28836854764E+03  0.51790645403E+02 -0.20723936650E+02  0.34087706254E+03  0.17300000000E+03 0.  1.
<mgrwt>
<rscale>  2 0.34024651E+03</rscale>
<asrwt>0</asrwt>
<pdfrwt beam="1">  1       21 0.58246616E-01 0.34024651E+03</pdfrwt>
<pdfrwt beam="2">  1       21 0.48191044E-01 0.34024651E+03</pdfrwt>
<totfact> 0.10522908E+04</totfact>
</mgrwt>
</event>
<event>
 4    1  0.3950955E+000  0.2881798E+03  0.7546771E-02  0.1091303E+00
         21   -1    0    0  501  502  0.00000000000E+00  0.00000000000E+00  0.14046716918E+03  0.14046716918E+03  0.00000000000E+00 0. -1.
         21   -1    0    0  502  503 -0.00000000000E+00 -0.00000000000E+00 -0.59141878202E+03  0.59141878202E+03  0.00000000000E+00 0.  1.
          6    1    1    2  501    0  0.22485324961E+02 -0.22937526627E+03 -0.21883967775E+03  0.36185412416E+03  0.17300000000E+03 0. -1.
         -6    1    1    2    0  503 -0.22485324961E+02  0.22937526627E+03 -0.23211193509E+03  0.37003182704E+03  0.17300000000E+03 0.  1.
<mgrwt>
<rscale>  2 0.28817981E+03</rscale>
<asrwt>0</asrwt>
<pdfrwt beam="1">  1       21 0.21610334E-01 0.28817981E+03</pdfrwt>
<pdfrwt beam="2">  1       21 0.90987506E-01 0.28817981E+03</pdfrwt>
<totfact> 0.19460311E+04</totfact>
</mgrwt>
</event>
<event>
 4    1  0.3950955E+000  0.1767940E+03  0.7546771E-02  0.1170942E+00
         21   -1    0    0  501  502  0.00000000000E+00  0.00000000000E+00  0.15193151178E+03  0.15193151178E+03  0.00000000000E+00 0. -1.
         21   -1    0    0  502  503 -0.00000000000E+00 -0.00000000000E+00 -0.27913549328E+03  0.27913549328E+03  0.00000000000E+00 0. -1.
          6    1    1    2  501    0  0.10702517248E+02 -0.34821900067E+02  0.46929584330E+02  0.18291663261E+03  0.17300000000E+03 0. -1.
         -6    1    1    2    0  503 -0.10702517248E+02  0.34821900067E+02 -0.17413356583E+03  0.24815037245E+03  0.17300000000E+03 0. -1.
<mgrwt>
<rscale>  2 0.17679397E+03</rscale>
<asrwt>0</asrwt>
<pdfrwt beam="1">  1       21 0.23374079E-01 0.17679397E+03</pdfrwt>
<pdfrwt beam="2">  1       21 0.42943921E-01 0.17679397E+03</pdfrwt>
<totfact> 0.90327635E+04</totfact>
</mgrwt>
</event>
<event>
 4    1  0.3950955E+000  0.2208232E+03  0.7546771E-02  0.1133271E+00
         21   -1    0    0  503  502  0.00000000000E+00  0.00000000000E+00  0.30224354103E+03  0.30224354103E+03  0.00000000000E+00 0. -1.
         21   -1    0    0  501  503 -0.00000000000E+00 -0.00000000000E+00 -0.20435902253E+03  0.20435902253E+03  0.00000000000E+00 0.  1.
          6    1    1    2  501    0  0.12478979048E+03 -0.57108663441E+02  0.16516438431E+03  0.27575743887E+03  0.17300000000E+03 0. -1.
         -6    1    1    2    0  502 -0.12478979048E+03  0.57108663441E+02 -0.67279865814E+02  0.23084512469E+03  0.17300000000E+03 0.  1.
<mgrwt>
<rscale>  2 0.22082321E+03</rscale>
<asrwt>0</asrwt>
<pdfrwt beam="1">  1       21 0.46499006E-01 0.22082321E+03</pdfrwt>
<pdfrwt beam="2">  1       21 0.31439850E-01 0.22082321E+03</pdfrwt>
<totfact> 0.42477245E+04</totfact>
</mgrwt>
</event>
<event>
 4    1  0.3950955E+000  0.1878097E+03  0.7546771E-02  0.1160452E+00
         21   -1    0    0  503  502  0.00000000000E+00  0.00000000000E+00  0.23072705814E+02  0.23072705814E+02  0.00000000000E+00 0.  1.
         21   -1    0    0  501  503 -0.00000000000E+00 -0.00000000000E+00 -0.21677084448E+04  0.21677084448E+04  0.00000000000E+00 0.  1.
          6    1    1    2  501    0 -0.70962157352E+02 -0.17545634338E+02 -0.16670257902E+04  0.16775718948E+04  0.17300000000E+03 0.  1.
         -6    1    1    2    0  502  0.70962157352E+02  0.17545634338E+02 -0.47760994873E+03  0.51320925575E+03  0.17300000000E+03 0.  1.
<mgrwt>
<rscale>  2 0.18780968E+03</rscale>
<asrwt>0</asrwt>
<pdfrwt beam="1">  1       21 0.35496461E-02 0.18780968E+03</pdfrwt>
<pdfrwt beam="2">  1       21 0.33349370E+00 0.18780968E+03</pdfrwt>
<totfact> 0.10514990E+04</totfact>
</mgrwt>
</event>
<event>
 4    1  0.3950955E+000  0.3124686E+03  0.7546771E-02  0.1079169E+00
         21   -1    0    0  503  502  0.00000000000E+00  0.00000000000E+00  0.38433410393E+03  0.38433410393E+03  0.00000000000E+00 0. -1.
         21   -1    0    0  501  503 -0.00000000000E+00 -0.00000000000E+00 -0.35329142369E+03  0.35329142369E+03  0.00000000000E+00 0.  1.
          6    1    1    2  501    0 -0.32464345736E+02 -0.25817379240E+03 -0.17996006942E+03  0.36058600557E+03  0.17300000000E+03 0.  1.
         -6    1    1    2    0  502  0.32464345736E+02  0.25817379240E+03  0.21100274966E+03  0.37703952205E+03  0.17300000000E+03 0. -1.
<mgrwt>
<rscale>  2 0.31246862E+03</rscale>
<asrwt>0</asrwt>
<pdfrwt beam="1">  1       21 0.59128323E-01 0.31246862E+03</pdfrwt>
<pdfrwt beam="2">  1       21 0.54352527E-01 0.31246862E+03</pdfrwt>
<totfact> 0.79860264E+03</totfact>
</mgrwt>
</event>
<event>
 4    1  0.3950955E+000  0.2279516E+03  0.7546771E-02  0.1128090E+00
         21   -1    0    0  503  502  0.00000000000E+00  0.00000000000E+00  0.83986533485E+02  0.83986533485E+02  0.00000000000E+00 0. -1.
         21   -1    0    0  501  503 -0.00000000000E+00 -0.00000000000E+00 -0.10100782552E+04  0.10100782552E+04  0.00000000000E+00 0. -1.
          6    1    1    2  501    0 -0.53444369508E+02 -0.13847971683E+03 -0.80356177947E+03  0.83526849937E+03  0.17300000000E+03 0. -1.
         -6    1    1    2    0  502  0.53444369508E+02  0.13847971683E+03 -0.12252994220E+03  0.25879628927E+03  0.17300000000E+03 0. -1.
<mgrwt>
<rscale>  2 0.22795160E+03</rscale>
<asrwt>0</asrwt>
<pdfrwt beam="1">  1       21 0.12921005E-01 0.22795160E+03</pdfrwt>
<pdfrwt beam="2">  1       21 0.15539665E+00 0.22795160E+03</pdfrwt>
<totfact> 0.13652015E+04</totfact>
</mgrwt>
</event>
<event>
 4    1  0.3950955E+000  0.1995230E+03  0.7546771E-02  0.1150142E+00
         21   -1    0    0  503  502  0.00000000000E+00  0.00000000000E+00  0.86688651931E+03  0.86688651931E+03  0.00000000000E+00 0. -1.
         21   -1    0    0  501  503 -0.00000000000E+00 -0.00000000000E+00 -0.10289728846E+03  0.10289728846E+03  0.00000000000E+00 0. -1.
          6    1    1    2  501    0 -0.72306690772E+02  0.68206825701E+02  0.21179215684E+02  0.20064393283E+03  0.17300000000E+03 0. -1.
         -6    1    1    2    0  502  0.72306690772E+02 -0.68206825701E+02  0.74281001517E+03  0.76913987495E+03  0.17300000000E+03 0. -1.
<mgrwt>
<rscale>  2 0.19952300E+03</rscale>
<asrwt>0</asrwt>
<pdfrwt beam="1">  1       21 0.13336715E+00 0.19952300E+03</pdfrwt>
<pdfrwt beam="2">  1       21 0.15830353E-01 0.19952300E+03</pdfrwt>
<totfact> 0.14337305E+04</totfact>
</mgrwt>
</event>
<event>
 4    1  0.3950955E+000  0.2196605E+03  0.7546771E-02  0.1134136E+00
         21   -1    0    0  503  502  0.00000000000E+00  0.00000000000E+00  0.37907148920E+02  0.37907148920E+02  0.00000000000E+00 0. -1.
         21   -1    0    0  501  503 -0.00000000000E+00 -0.00000000000E+00 -0.15457927487E+04  0.15457927487E+04  0.00000000000E+00 0.  1.
          6    1    1    2  501    0  0.70687559124E+02 -0.11543389866E+03 -0.10866716176E+04  0.11086504952E+04  0.17300000000E+03 0.  1.
         -6    1    1    2    0  502 -0.70687559124E+02  0.11543389866E+03 -0.42121398223E+03  0.47504940248E+03  0.17300000000E+03 0.  1.
<mgrwt>
<rscale>  2 0.21966046E+03</rscale>
<asrwt>0</asrwt>
<pdfrwt beam="1">  1       21 0.58318701E-02 0.21966046E+03</pdfrwt>
<pdfrwt beam="2">  1       21 0.23781423E+00 0.21966046E+03</pdfrwt>
<totfact> 0.15888247E+04</totfact>
</mgrwt>
</event>
<event>
 4    1  0.3950955E+000  0.2130747E+03  0.7546771E-02  0.1139154E+00
         21   -1    0    0  501  502  0.00000000000E+00  0.00000000000E+00  0.23139251373E+03  0.23139251373E+03  0.00000000000E+00 0. -1.
         21   -1    0    0  502  503 -0.00000000000E+00 -0.00000000000E+00 -0.37548198849E+03  0.37548198849E+03  0.00000000000E+00 0. -1.
          6    1    1    2  501    0  0.23881117954E+02 -0.12207173313E+03  0.13762428565E+03  0.25365579005E+03  0.17300000000E+03 0. -1.
         -6    1    1    2    0  503 -0.23881117954E+02  0.12207173313E+03 -0.28171376041E+03  0.35321871217E+03  0.17300000000E+03 0. -1.
<mgrwt>
<rscale>  2 0.21307467E+03</rscale>
<asrwt>0</asrwt>
<pdfrwt beam="1">  1       21 0.35598848E-01 0.21307467E+03</pdfrwt>
<pdfrwt beam="2">  1       21 0.57766460E-01 0.21307467E+03</pdfrwt>
<totfact> 0.21129047E+04</totfact>
</mgrwt>
</event>
<event>
 4    1  0.3950955E+000  0.1836866E+03  0.7546771E-02  0.1164282E+00
         21   -1    0    0  501  502  0.00000000000E+00  0.00000000000E+00  0.19815208242E+03  0.19815208242E+03  0.00000000000E+00 0.  1.
         21   -1    0    0  502  503 -0.00000000000E+00 -0.00000000000E+00 -0.18880589018E+03  0.18880589018E+03  0.00000000000E+00 0.  1.
          6    1    1    2  501    0  0.54871157354E+02  0.28300710963E+02  0.65283732533E+02  0.19494291442E+03  0.17300000000E+03 0. -1.
         -6    1    1    2    0  503 -0.54871157354E+02 -0.28300710963E+02 -0.55937540290E+02  0.19201505817E+03  0.17300000000E+03 0. -1.
<mgrwt>
<rscale>  2 0.18368662E+03</rscale>
<asrwt>0</asrwt>
<pdfrwt beam="1">  1       21 0.30484936E-01 0.18368662E+03</pdfrwt>
<pdfrwt beam="2">  1       21 0.29047060E-01 0.18368662E+03</pdfrwt>
<totfact> 0.11756083E+05</totfact>
</mgrwt>
</event>
<event>
 4    1  0.3950955E+000  0.1756161E+03  0.7546771E-02  0.1172115E+00
         21   -1    0    0  503  502  0.00000000000E+00  0.00000000000E+00  0.86459749038E+02  0.86459749038E+02  0.00000000000E+00 0. -1.
         21   -1    0    0  501  503 -0.00000000000E+00 -0.00000000000E+00 -0.96778077657E+03  0.96778077657E+03  0.00000000000E+00 0. -1.
          6    1    1    2  501    0 -0.30075808577E+02 -0.27306672053E+01 -0.85951884972E+03  0.87727627566E+03  0.17300000000E+03 0. -1.
         -6    1    1    2    0  502  0.30075808577E+02  0.27306672053E+01 -0.21802177816E+02  0.17696424996E+03  0.17300000000E+03 0. -1.
<mgrwt>
<rscale>  2 0.17561609E+03</rscale>
<asrwt>0</asrwt>
<pdfrwt beam="1">  1       21 0.13301500E-01 0.17561609E+03</pdfrwt>
<pdfrwt beam="2">  1       21 0.14888935E+00 0.17561609E+03</pdfrwt>
<totfact> 0.15049594E+04</totfact>
</mgrwt>
</event>
<event>
 4    1  0.3950955E+000  0.1927433E+03  0.7546771E-02  0.1156010E+00
         21   -1    0    0  501  502  0.00000000000E+00  0.00000000000E+00  0.15685990616E+04  0.15685990616E+04  0.00000000000E+00 0. -1.
         21   -1    0    0  502  503 -0.00000000000E+00 -0.00000000000E+00 -0.34550812986E+02  0.34550812986E+02  0.00000000000E+00 0. -1.
          6    1    1    2  501    0  0.34003142331E+02  0.77876517907E+02  0.12165714794E+04  0.12317451563E+04  0.17300000000E+03 0. -1.
         -6    1    1    2    0  503 -0.34003142331E+02 -0.77876517907E+02  0.31747676923E+03  0.37140471824E+03  0.17300000000E+03 0. -1.
<mgrwt>
<rscale>  2 0.19274326E+03</rscale>
<asrwt>0</asrwt>
<pdfrwt beam="1">  1       21 0.24132288E+00 0.19274326E+03</pdfrwt>
<pdfrwt beam="2">  1       21 0.53155109E-02 0.19274326E+03</pdfrwt>
<totfact> 0.18138728E+04</totfact>
</mgrwt>
</event>
<event>
 4    1  0.3950955E+000  0.1738119E+03  0.7546771E-02  0.1173930E+00
         21   -1    0    0  503  502  0.00000000000E+00  0.00000000000E+00  0.96051895052E+02  0.96051895052E+02  0.00000000000E+00 0. -1.
         21   -1    0    0  501  503 -0.00000000000E+00 -0.00000000000E+00 -0.45082771872E+03  0.45082771872E+03  0.00000000000E+00 0. -1.
          6    1    1    2  501    0  0.12143390228E+02  0.11580387729E+02 -0.32774062284E+03  0.37097773945E+03  0.17300000000E+03 0.  1.
         -6    1    1    2    0  502 -0.12143390228E+02 -0.11580387729E+02 -0.27035200825E+02  0.17590187432E+03  0.17300000000E+03 0.  1.
<mgrwt>
<rscale>  2 0.17381187E+03</rscale>
<asrwt>0</asrwt>
<pdfrwt beam="1">  1       21 0.14777215E-01 0.17381187E+03</pdfrwt>
<pdfrwt beam="2">  1       21 0.69358110E-01 0.17381187E+03</pdfrwt>
<totfact> 0.76840555E+04</totfact>
</mgrwt>
</event>
<event>
 4    1  0.3950955E+000  0.1740770E+03  0.7546771E-02  0.1173662E+00
         21   -1    0    0  503  502  0.00000000000E+00  0.00000000000E+00  0.88425628577E+03  0.88425628577E+03  0.00000000000E+00 0.  1.
         21   -1    0    0  501  503 -0.00000000000E+00 -0.00000000000E+00 -0.36057599360E+02  0.36057599360E+02  0.00000000000E+00 0.  1.
          6    1    1    2  501    0 -0.19120876133E+02  0.28641683911E+01  0.32162098541E+03  0.36570872237E+03  0.17300000000E+03 0.  1.
         -6    1    1    2    0  502  0.19120876133E+02 -0.28641683911E+01  0.52657770100E+03  0.55460516276E+03  0.17300000000E+03 0.  1.
<mgrwt>
<rscale>  2 0.17407703E+03</rscale>
<asrwt>0</asrwt>
<pdfrwt beam="1">  1       21 0.13603941E+00 0.17407703E+03</pdfrwt>
<pdfrwt beam="2">  1       21 0.55473236E-02 0.17407703E+03</pdfrwt>
<totfact> 0.87623238E+04</totfact>
</mgrwt>
</event>
<event>
 4    1  0.3950955E+000  0.1847109E+03  0.7546771E-02  0.1163320E+00
         21   -1    0    0  503  502  0.00000000000E+00  0.00000000000E+00  0.64530373083E+03  0.64530373083E+03  0.00000000000E+00 0.  1.
         21   -1    0    0  501  503 -0.00000000000E+00 -0.00000000000E+00 -0.52949899412E+02  0.52949899412E+02  0.00000000000E+00 0. -1.
          6    1    1    2  501    0  0.71755437221E+01 -0.64324432737E+02  0.28273554565E+03  0.33772401432E+03  0.17300000000E+03 0.  1.
         -6    1    1    2    0  502 -0.71755437221E+01  0.64324432737E+02  0.30961828576E+03  0.36052961592E+03  0.17300000000E+03 0. -1.
<mgrwt>
<rscale>  2 0.18471091E+03</rscale>
<asrwt>0</asrwt>
<pdfrwt beam="1">  1       21 0.99277491E-01 0.18471091E+03</pdfrwt>
<pdfrwt beam="2">  1       21 0.81461389E-02 0.18471091E+03</pdfrwt>
<totfact> 0.97430465E+04</totfact>
</mgrwt>
</event>
<event>
 4    1  0.3950955E+000  0.2066798E+03  0.7546771E-02  0.1144222E+00
         21   -1    0    0  503  502  0.00000000000E+00  0.00000000000E+00  0.94520612880E+02  0.94520612880E+02  0.00000000000E+00 0. -1.
         21   -1    0    0  501  503 -0.00000000000E+00 -0.00000000000E+00 -0.50969548086E+03  0.50969548086E+03  0.00000000000E+00 0. -1.
          6    1    1    2  501    0 -0.11252304314E+03 -0.11230455639E+02 -0.30929347601E+03  0.37199329654E+03  0.17300000000E+03 0. -1.
         -6    1    1    2    0  502  0.11252304314E+03  0.11230455639E+02 -0.10588139198E+03  0.23222279720E+03  0.17300000000E+03 0. -1.
<mgrwt>
<rscale>  2 0.20667985E+03</rscale>
<asrwt>0</asrwt>
<pdfrwt beam="1">  1       21 0.14541633E-01 0.20667985E+03</pdfrwt>
<pdfrwt beam="2">  1       21 0.78414688E-01 0.20667985E+03</pdfrwt>
<totfact> 0.59324007E+04</totfact>
</mgrwt>
</event>
<event>
 4    1  0.3950955E+000  0.2054105E+03  0.7546771E-02  0.1145253E+00
         21   -1    0    0  501  502  0.00000000000E+00  0.00000000000E+00  0.70558794170E+02  0.70558794170E+02  0.00000000000E+00 0. -1.
         21   -1    0    0  502  503 -0.00000000000E+00 -0.00000000000E+00 -0.13630711222E+04  0.13630711222E+04  0.00000000000E+00 0.  1.
          6    1    1    2  501    0 -0.66840428200E+02 -0.88299586189E+02 -0.10922249039E+03  0.23264353025E+03  0.17300000000E+03 0. -1.
         -6    1    1    2    0  503  0.66840428200E+02  0.88299586189E+02 -0.11832898377E+04  0.12009863861E+04  0.17300000000E+03 0.  1.
<mgrwt>
<rscale>  2 0.20541047E+03</rscale>
<asrwt>0</asrwt>
<pdfrwt beam="1">  1       21 0.10855200E-01 0.20541047E+03</pdfrwt>
<pdfrwt beam="2">  1       21 0.20970323E+00 0.20541047E+03</pdfrwt>
<totfact> 0.80862525E+03</totfact>
</mgrwt>
</event>
<event>
 4    1  0.3950955E+000  0.1828220E+03  0.7546771E-02  0.1165100E+00
         21   -1    0    0  501  502  0.00000000000E+00  0.00000000000E+00  0.13614525098E+03  0.13614525098E+03  0.00000000000E+00 0. -1.
         21   -1    0    0  502  503 -0.00000000000E+00 -0.00000000000E+00 -0.76298279004E+03  0.76298279004E+03  0.00000000000E+00 0. -1.
          6    1    1    2  501    0  0.58274708923E+02  0.99466375240E+01  0.56819628820E+02  0.19144802824E+03  0.17300000000E+03 0. -1.
         -6    1    1    2    0  503 -0.58274708923E+02 -0.99466375240E+01 -0.68365716788E+03  0.70768001278E+03  0.17300000000E+03 0. -1.
<mgrwt>
<rscale>  2 0.18282198E+03</rscale>
<asrwt>0</asrwt>
<pdfrwt beam="1">  1       21 0.20945424E-01 0.18282198E+03</pdfrwt>
<pdfrwt beam="2">  1       21 0.11738196E+00 0.18282198E+03</pdfrwt>
<totfact> 0.11887092E+04</totfact>
</mgrwt>
</event>
<event>
 4    1  0.3950955E+000  0.2621000E+03  0.7546771E-02  0.1105888E+00
         21   -1    0    0  501  502  0.00000000000E+00  0.00000000000E+00  0.22268111254E+03  0.22268111254E+03  0.00000000000E+00 0.  1.
         21   -1    0    0  502  503 -0.00000000000E+00 -0.00000000000E+00 -0.12311968285E+04  0.12311968285E+04  0.00000000000E+00 0.  1.
          6    1    1    2  501    0  0.16438594389E+03  0.10837291589E+03  0.12505188682E+03  0.29040385989E+03  0.17300000000E+03 0.  1.
         -6    1    1    2    0  503 -0.16438594389E+03 -0.10837291589E+03 -0.11335676028E+04  0.11634740811E+04  0.17300000000E+03 0.  1.
<mgrwt>
<rscale>  2 0.26210003E+03</rscale>
<asrwt>0</asrwt>
<pdfrwt beam="1">  1       21 0.34258632E-01 0.26210003E+03</pdfrwt>
<pdfrwt beam="2">  1       21 0.18941490E+00 0.26210003E+03</pdfrwt>
<totfact> 0.12105590E+03</totfact>
</mgrwt>
</event>
<event>
 4    1  0.3950955E+000  0.1891296E+03  0.7546771E-02  0.1159249E+00
         21   -1    0    0  503  502  0.00000000000E+00  0.00000000000E+00  0.58488380109E+03  0.58488380109E+03  0.00000000000E+00 0.  1.
         21   -1    0    0  501  503 -0.00000000000E+00 -0.00000000000E+00 -0.78361890558E+02  0.78361890558E+02  0.00000000000E+00 0.  1.
          6    1    1    2  501    0 -0.74629976015E+02 -0.16473050352E+02  0.97874764478E+02  0.21295413645E+03  0.17300000000E+03 0.  1.
         -6    1    1    2    0  502  0.74629976015E+02  0.16473050352E+02  0.40864714606E+03  0.45029155521E+03  0.17300000000E+03 0.  1.
<mgrwt>
<rscale>  2 0.18912957E+03</rscale>
<asrwt>0</asrwt>
<pdfrwt beam="1">  1       21 0.89982120E-01 0.18912957E+03</pdfrwt>
<pdfrwt beam="2">  1       21 0.12055676E-01 0.18912957E+03</pdfrwt>
<totfact> 0.61270482E+04</totfact>
</mgrwt>
</event>
<event>
 4    1  0.3950955E+000  0.1786767E+03  0.7546771E-02  0.1169090E+00
         21   -1    0    0  501  502  0.00000000000E+00  0.00000000000E+00  0.30177107704E+03  0.30177107704E+03  0.00000000000E+00 0.  1.
         21   -1    0    0  502  503 -0.00000000000E+00 -0.00000000000E+00 -0.11594157707E+03  0.11594157707E+03  0.00000000000E+00 0. -1.
          6    1    1    2  501    0 -0.44657733941E+02 -0.14357582172E+01  0.15470543662E+03  0.23634539708E+03  0.17300000000E+03 0.  1.
         -6    1    1    2    0  503  0.44657733941E+02  0.14357582172E+01  0.31124063360E+02  0.18136725703E+03  0.17300000000E+03 0. -1.
<mgrwt>
<rscale>  2 0.17867673E+03</rscale>
<asrwt>0</asrwt>
<pdfrwt beam="1">  1       21 0.46426319E-01 0.17867673E+03</pdfrwt>
<pdfrwt beam="2">  1       21 0.17837166E-01 0.17867673E+03</pdfrwt>
<totfact> 0.12749414E+05</totfact>
</mgrwt>
</event>
<event>
 4    1  0.3950955E+000  0.1894062E+03  0.7546771E-02  0.1158998E+00
         21   -1    0    0  501  502  0.00000000000E+00  0.00000000000E+00  0.16552496683E+03  0.16552496683E+03  0.00000000000E+00 0.  1.
         21   -1    0    0  502  503 -0.00000000000E+00 -0.00000000000E+00 -0.44447074459E+03  0.44447074459E+03  0.00000000000E+00 0.  1.
          6    1    1    2  501    0  0.73529214974E+02  0.23219495594E+02  0.78846792512E+02  0.20516214836E+03  0.17300000000E+03 0.  1.
         -6    1    1    2    0  503 -0.73529214974E+02 -0.23219495594E+02 -0.35779257028E+03  0.40483356305E+03  0.17300000000E+03 0.  1.
<mgrwt>
<rscale>  2 0.18940615E+03</rscale>
<asrwt>0</asrwt>
<pdfrwt beam="1">  1       21 0.25465380E-01 0.18940615E+03</pdfrwt>
<pdfrwt beam="2">  1       21 0.68380114E-01 0.18940615E+03</pdfrwt>
<totfact> 0.28577240E+04</totfact>
</mgrwt>
</event>
<event>
 4    1  0.3950955E+000  0.2157944E+03  0.7546771E-02  0.1137058E+00
         21   -1    0    0  501  502  0.00000000000E+00  0.00000000000E+00  0.54616060323E+03  0.54616060323E+03  0.00000000000E+00 0.  1.
         21   -1    0    0  502  503 -0.00000000000E+00 -0.00000000000E+00 -0.18040464335E+03  0.18040464335E+03  0.00000000000E+00 0. -1.
          6    1    1    2  501    0 -0.66250169226E+02 -0.11067587286E+03  0.44669714097E+03  0.49609028362E+03  0.17300000000E+03 0.  1.
         -6    1    1    2    0  503  0.66250169226E+02  0.11067587286E+03 -0.80941181080E+02  0.23047496296E+03  0.17300000000E+03 0. -1.
<mgrwt>
<rscale>  2 0.21579442E+03</rscale>
<asrwt>0</asrwt>
<pdfrwt beam="1">  1       21 0.84024707E-01 0.21579442E+03</pdfrwt>
<pdfrwt beam="2">  1       21 0.27754561E-01 0.21579442E+03</pdfrwt>
<totfact> 0.15025301E+04</totfact>
</mgrwt>
</event>
<event>
 4    1  0.3950955E+000  0.1800794E+03  0.7546771E-02  0.1167726E+00
         21   -1    0    0  503  502  0.00000000000E+00  0.00000000000E+00  0.14277154128E+03  0.14277154128E+03  0.00000000000E+00 0. -1.
         21   -1    0    0  501  503 -0.00000000000E+00 -0.00000000000E+00 -0.28324540826E+03  0.28324540826E+03  0.00000000000E+00 0. -1.
          6    1    1    2  501    0 -0.24817565255E+02  0.43401441956E+02 -0.16504214382E+03  0.24426933075E+03  0.17300000000E+03 0. -1.
         -6    1    1    2    0  502  0.24817565255E+02 -0.43401441956E+02  0.24568276843E+02  0.18174761879E+03  0.17300000000E+03 0. -1.
<mgrwt>
<rscale>  2 0.18007942E+03</rscale>
<asrwt>0</asrwt>
<pdfrwt beam="1">  1       21 0.21964853E-01 0.18007942E+03</pdfrwt>
<pdfrwt beam="2">  1       21 0.43576216E-01 0.18007942E+03</pdfrwt>
<totfact> 0.98462528E+04</totfact>
</mgrwt>
</event>
<event>
 4    1  0.3950955E+000  0.2052593E+03  0.7546771E-02  0.1145376E+00
         21   -1    0    0  501  502  0.00000000000E+00  0.00000000000E+00  0.12165353555E+03  0.12165353555E+03  0.00000000000E+00 0.  1.
         21   -1    0    0  502  503 -0.00000000000E+00 -0.00000000000E+00 -0.35003968745E+03  0.35003968745E+03  0.00000000000E+00 0.  1.
          6    1    1    2  501    0 -0.59926043092E+02  0.92796896989E+02 -0.89890075222E+02  0.22407949561E+03  0.17300000000E+03 0.  1.
         -6    1    1    2    0  503  0.59926043092E+02 -0.92796896989E+02 -0.13849607668E+03  0.24761372738E+03  0.17300000000E+03 0.  1.
<mgrwt>
<rscale>  2 0.20525934E+03</rscale>
<asrwt>0</asrwt>
<pdfrwt beam="1">  1       21 0.18715929E-01 0.20525934E+03</pdfrwt>
<pdfrwt beam="2">  1       21 0.53852259E-01 0.20525934E+03</pdfrwt>
<totfact> 0.84725419E+04</totfact>
</mgrwt>
</event>
<event>
 4    1  0.3950955E+000  0.1840036E+03  0.7546771E-02  0.1163984E+00
         21   -1    0    0  501  502  0.00000000000E+00  0.00000000000E+00  0.12585190697E+02  0.12585190697E+02  0.00000000000E+00 0. -1.
         21   -1    0    0  502  503 -0.00000000000E+00 -0.00000000000E+00 -0.27282144489E+04  0.27282144489E+04  0.00000000000E+00 0. -1.
          6    1    1    2  501    0  0.55305693130E+02 -0.29488814626E+02 -0.11961569591E+04  0.12102267477E+04  0.17300000000E+03 0. -1.
         -6    1    1    2    0  503 -0.55305693130E+02  0.29488814626E+02 -0.15194722991E+04  0.15305728920E+04  0.17300000000E+03 0. -1.
<mgrwt>
<rscale>  2 0.18400356E+03</rscale>
<asrwt>0</asrwt>
<pdfrwt beam="1">  1       21 0.19361861E-02 0.18400356E+03</pdfrwt>
<pdfrwt beam="2">  1       21 0.41972467E+00 0.18400356E+03</pdfrwt>
<totfact> 0.85948176E+03</totfact>
</mgrwt>
</event>
<event>
 4    1  0.3950955E+000  0.2145195E+03  0.7546771E-02  0.1138036E+00
         21   -1    0    0  503  502  0.00000000000E+00  0.00000000000E+00  0.36717405484E+03  0.36717405484E+03  0.00000000000E+00 0.  1.
         21   -1    0    0  501  503 -0.00000000000E+00 -0.00000000000E+00 -0.14151621281E+03  0.14151621281E+03  0.00000000000E+00 0. -1.
          6    1    1    2  501    0 -0.74935705788E+02  0.10234390488E+03  0.26815347117E+02  0.21618903235E+03  0.17300000000E+03 0. -1.
         -6    1    1    2    0  502  0.74935705788E+02 -0.10234390488E+03  0.19884249491E+03  0.29250123530E+03  0.17300000000E+03 0. -1.
<mgrwt>
<rscale>  2 0.21451954E+03</rscale>
<asrwt>0</asrwt>
<pdfrwt beam="1">  1       21 0.56488316E-01 0.21451954E+03</pdfrwt>
<pdfrwt beam="2">  1       21 0.21771725E-01 0.21451954E+03</pdfrwt>
<totfact> 0.57438290E+04</totfact>
</mgrwt>
</event>
<event>
 4    1  0.3950955E+000  0.1753054E+03  0.7546771E-02  0.1172425E+00
         21   -1    0    0  503  502  0.00000000000E+00  0.00000000000E+00  0.61807149500E+02  0.61807149500E+02  0.00000000000E+00 0. -1.
         21   -1    0    0  501  503 -0.00000000000E+00 -0.00000000000E+00 -0.10661674292E+04  0.10661674292E+04  0.00000000000E+00 0. -1.
          6    1    1    2  501    0 -0.90026730799E+01  0.26868808796E+02 -0.91417448912E+03  0.93083133680E+03  0.17300000000E+03 0. -1.
         -6    1    1    2    0  502  0.90026730799E+01 -0.26868808796E+02 -0.90185790599E+02  0.19714324192E+03  0.17300000000E+03 0. -1.
<mgrwt>
<rscale>  2 0.17530539E+03</rscale>
<asrwt>0</asrwt>
<pdfrwt beam="1">  1       21 0.95087927E-02 0.17530539E+03</pdfrwt>
<pdfrwt beam="2">  1       21 0.16402575E+00 0.17530539E+03</pdfrwt>
<totfact> 0.21123893E+04</totfact>
</mgrwt>
</event>
<event>
 4    1  0.3950955E+000  0.2503569E+03  0.7546771E-02  0.1113079E+00
         21   -1    0    0  501  502  0.00000000000E+00  0.00000000000E+00  0.11413383919E+04  0.11413383919E+04  0.00000000000E+00 0.  1.
         21   -1    0    0  502  503 -0.00000000000E+00 -0.00000000000E+00 -0.65796028897E+02  0.65796028897E+02  0.00000000000E+00 0. -1.
          6    1    1    2  501    0  0.73726750027E+02 -0.16526929593E+03  0.78320037728E+03  0.82224169489E+03  0.17300000000E+03 0.  1.
         -6    1    1    2    0  503 -0.73726750027E+02  0.16526929593E+03  0.29234198576E+03  0.38489272595E+03  0.17300000000E+03 0. -1.
<mgrwt>
<rscale>  2 0.25035689E+03</rscale>
<asrwt>0</asrwt>
<pdfrwt beam="1">  1       21 0.17559051E+00 0.25035689E+03</pdfrwt>
<pdfrwt beam="2">  1       21 0.10122467E-01 0.25035689E+03</pdfrwt>
<totfact> 0.14900120E+04</totfact>
</mgrwt>
</event>
<event>
 4    1  0.3950955E+000  0.1781850E+03  0.7546771E-02  0.1169571E+00
         21   -1    0    0  501  502  0.00000000000E+00  0.00000000000E+00  0.11330286458E+04  0.11330286458E+04  0.00000000000E+00 0.  1.
         21   -1    0    0  502  503 -0.00000000000E+00 -0.00000000000E+00 -0.29162190391E+02  0.29162190391E+02  0.00000000000E+00 0.  1.
          6    1    1    2  501    0  0.39007465862E+02  0.17300286770E+02  0.43703846073E+03  0.47196662855E+03  0.17300000000E+03 0. -1.
         -6    1    1    2    0  503 -0.39007465862E+02 -0.17300286770E+02  0.66682799472E+03  0.69022420767E+03  0.17300000000E+03 0. -1.
<mgrwt>
<rscale>  2 0.17818497E+03</rscale>
<asrwt>0</asrwt>
<pdfrwt beam="1">  1       21 0.17431207E+00 0.17818497E+03</pdfrwt>
<pdfrwt beam="2">  1       21 0.44864917E-02 0.17818497E+03</pdfrwt>
<totfact> 0.64863379E+04</totfact>
</mgrwt>
</event>
<event>
 4    1  0.3950955E+000  0.1928627E+03  0.7546771E-02  0.1155904E+00
         21   -1    0    0  501  502  0.00000000000E+00  0.00000000000E+00  0.10929770819E+03  0.10929770819E+03  0.00000000000E+00 0.  1.
         21   -1    0    0  502  503 -0.00000000000E+00 -0.00000000000E+00 -0.34689409144E+03  0.34689409144E+03  0.00000000000E+00 0.  1.
          6    1    1    2  501    0  0.79995374598E+02 -0.29458031648E+02 -0.87394161475E+02  0.21173987590E+03  0.17300000000E+03 0.  1.
         -6    1    1    2    0  503 -0.79995374598E+02  0.29458031648E+02 -0.15020222178E+03  0.24445192372E+03  0.17300000000E+03 0.  1.
<mgrwt>
<rscale>  2 0.19286274E+03</rscale>
<asrwt>0</asrwt>
<pdfrwt beam="1">  1       21 0.16815033E-01 0.19286274E+03</pdfrwt>
<pdfrwt beam="2">  1       21 0.53368320E-01 0.19286274E+03</pdfrwt>
<totfact> 0.10580128E+05</totfact>
</mgrwt>
</event>
<event>
 4    1  0.3950955E+000  0.2367734E+03  0.7546771E-02  0.1121961E+00
         21   -1    0    0  501  502  0.00000000000E+00  0.00000000000E+00  0.31885484124E+03  0.31885484124E+03  0.00000000000E+00 0. -1.
         21   -1    0    0  502  503 -0.00000000000E+00 -0.00000000000E+00 -0.17930336584E+03  0.17930336584E+03  0.00000000000E+00 0.  1.
          6    1    1    2  501    0  0.52721945554E+01 -0.16157000953E+03  0.35068173042E+02  0.23935630507E+03  0.17300000000E+03 0. -1.
         -6    1    1    2    0  503 -0.52721945554E+01  0.16157000953E+03  0.10448330235E+03  0.25880190201E+03  0.17300000000E+03 0. -1.
<mgrwt>
<rscale>  2 0.23677344E+03</rscale>
<asrwt>0</asrwt>
<pdfrwt beam="1">  1       21 0.49054591E-01 0.23677344E+03</pdfrwt>
<pdfrwt beam="2">  1       21 0.27585133E-01 0.23677344E+03</pdfrwt>
<totfact> 0.48720346E+04</totfact>
</mgrwt>
</event>
<event>
 4    1  0.3950955E+000  0.1949701E+03  0.7546771E-02  0.1154054E+00
         21   -1    0    0  503  502  0.00000000000E+00  0.00000000000E+00  0.19803280625E+03  0.19803280625E+03  0.00000000000E+00 0.  1.
         21   -1    0    0  501  503 -0.00000000000E+00 -0.00000000000E+00 -0.20023983252E+03  0.20023983252E+03  0.00000000000E+00 0.  1.
          6    1    1    2  501    0  0.63136960403E+02  0.64016051292E+02  0.39402977095E+02  0.19891185283E+03  0.17300000000E+03 0.  1.
         -6    1    1    2    0  502 -0.63136960403E+02 -0.64016051292E+02 -0.41610003367E+02  0.19936078594E+03  0.17300000000E+03 0.  1.
<mgrwt>
<rscale>  2 0.19497008E+03</rscale>
<asrwt>0</asrwt>
<pdfrwt beam="1">  1       21 0.30466585E-01 0.19497008E+03</pdfrwt>
<pdfrwt beam="2">  1       21 0.30806128E-01 0.19497008E+03</pdfrwt>
<totfact> 0.10453811E+05</totfact>
</mgrwt>
</event>
<event>
 4    1  0.3950955E+000  0.2083602E+03  0.7546771E-02  0.1142871E+00
         21   -1    0    0  501  502  0.00000000000E+00  0.00000000000E+00  0.50945689616E+03  0.50945689616E+03  0.00000000000E+00 0.  1.
         21   -1    0    0  502  503 -0.00000000000E+00 -0.00000000000E+00 -0.16834473391E+03  0.16834473391E+03  0.00000000000E+00 0.  1.
          6    1    1    2  501    0  0.49309429920E+02  0.10513595805E+03  0.40870458693E+03  0.45875203425E+03  0.17300000000E+03 0.  1.
         -6    1    1    2    0  503 -0.49309429920E+02 -0.10513595805E+03 -0.67592424675E+02  0.21904959582E+03  0.17300000000E+03 0.  1.
<mgrwt>
<rscale>  2 0.20836024E+03</rscale>
<asrwt>0</asrwt>
<pdfrwt beam="1">  1       21 0.78377983E-01 0.20836024E+03</pdfrwt>
<pdfrwt beam="2">  1       21 0.25899190E-01 0.20836024E+03</pdfrwt>
<totfact> 0.20199467E+04</totfact>
</mgrwt>
</event>
<event>
 4    1  0.3950955E+000  0.1804488E+03  0.7546771E-02  0.1167369E+00
         21   -1    0    0  501  502  0.00000000000E+00  0.00000000000E+00  0.11097609187E+04  0.11097609187E+04  0.00000000000E+00 0.  1.
         21   -1    0    0  502  503 -0.00000000000E+00 -0.00000000000E+00 -0.79701688926E+02  0.79701688926E+02  0.00000000000E+00 0.  1.
          6    1    1    2  501    0  0.17451681341E+02 -0.48251500297E+02  0.98777990640E+03  0.10041269402E+04  0.17300000000E+03 0.  1.
         -6    1    1    2    0  503 -0.17451681341E+02  0.48251500297E+02  0.42279323413E+02  0.18533566751E+03  0.17300000000E+03 0.  1.
<mgrwt>
<rscale>  2 0.18044880E+03</rscale>
<asrwt>0</asrwt>
<pdfrwt beam="1">  1       21 0.17073244E+00 0.18044880E+03</pdfrwt>
<pdfrwt beam="2">  1       21 0.12261799E-01 0.18044880E+03</pdfrwt>
<totfact> 0.12018732E+04</totfact>
</mgrwt>
</event>
<event>
 4    1  0.3950955E+000  0.2203643E+03  0.7546771E-02  0.1133612E+00
         21   -1    0    0  503  502  0.00000000000E+00  0.00000000000E+00  0.11933832822E+03  0.11933832822E+03  0.00000000000E+00 0.  1.
         21   -1    0    0  501  503 -0.00000000000E+00 -0.00000000000E+00 -0.40894799798E+03  0.40894799798E+03  0.00000000000E+00 0. -1.
          6    1    1    2  501    0 -0.11471294611E+03 -0.73975477826E+02 -0.12617602077E+03  0.25393073769E+03  0.17300000000E+03 0.  1.
         -6    1    1    2    0  502  0.11471294611E+03  0.73975477826E+02 -0.16343364899E+03  0.27435558851E+03  0.17300000000E+03 0. -1.
<mgrwt>
<rscale>  2 0.22036431E+03</rscale>
<asrwt>0</asrwt>
<pdfrwt beam="1">  1       21 0.18359742E-01 0.22036431E+03</pdfrwt>
<pdfrwt beam="2">  1       21 0.62915078E-01 0.22036431E+03</pdfrwt>
<totfact> 0.62527804E+04</totfact>
</mgrwt>
</event>
<event>
 4    1  0.3950955E+000  0.1802681E+03  0.7546771E-02  0.1167544E+00
         21   -1    0    0  501  502  0.00000000000E+00  0.00000000000E+00  0.34086391216E+03  0.34086391216E+03  0.00000000000E+00 0. -1.
         21   -1    0    0  502  503 -0.00000000000E+00 -0.00000000000E+00 -0.24438783962E+03  0.24438783962E+03  0.00000000000E+00 0. -1.
          6    1    1    2  501    0 -0.47632156833E+02 -0.17285090596E+02  0.27676719612E+03  0.33029786189E+03  0.17300000000E+03 0. -1.
         -6    1    1    2    0  503  0.47632156833E+02  0.17285090596E+02 -0.18029112359E+03  0.25495388988E+03  0.17300000000E+03 0. -1.
<mgrwt>
<rscale>  2 0.18026812E+03</rscale>
<asrwt>0</asrwt>
<pdfrwt beam="1">  1       21 0.52440602E-01 0.18026812E+03</pdfrwt>
<pdfrwt beam="2">  1       21 0.37598129E-01 0.18026812E+03</pdfrwt>
<totfact> 0.23696366E+04</totfact>
</mgrwt>
</event>
<event>
 4    1  0.3950955E+000  0.2014193E+03  0.7546771E-02  0.1148547E+00
         21   -1    0    0  503  502  0.00000000000E+00  0.00000000000E+00  0.35673522108E+03  0.35673522108E+03  0.00000000000E+00 0. -1.
         21   -1    0    0  501  503 -0.00000000000E+00 -0.00000000000E+00 -0.22160871274E+03  0.22160871274E+03  0.00000000000E+00 0.  1.
          6    1    1    2  501    0 -0.44449844855E+02  0.93085639075E+02 -0.13419933774E+03  0.24203137640E+03  0.17300000000E+03 0.  1.
         -6    1    1    2    0  502  0.44449844855E+02 -0.93085639075E+02  0.26932584609E+03  0.33631255742E+03  0.17300000000E+03 0. -1.
<mgrwt>
<rscale>  2 0.20141928E+03</rscale>
<asrwt>0</asrwt>
<pdfrwt beam="1">  1       21 0.54882342E-01 0.20141928E+03</pdfrwt>
<pdfrwt beam="2">  1       21 0.34093648E-01 0.20141928E+03</pdfrwt>
<totfact> 0.25843766E+04</totfact>
</mgrwt>
</event>
<event>
 4    1  0.3950955E+000  0.3121737E+03  0.7546771E-02  0.1079309E+00
         21   -1    0    0  501  502  0.00000000000E+00  0.00000000000E+00  0.14658351403E+04  0.14658351403E+04  0.00000000000E+00 0. -1.
         21   -1    0    0  502  503 -0.00000000000E+00 -0.00000000000E+00 -0.67855632124E+02  0.67855632124E+02  0.00000000000E+00 0.  1.
          6    1    1    2  501    0  0.20613674561E+03  0.15821213433E+03  0.80807483159E+03  0.86627788312E+03  0.17300000000E+03 0. -1.
         -6    1    1    2    0  503 -0.20613674561E+03 -0.15821213433E+03  0.58990467655E+03  0.66741288926E+03  0.17300000000E+03 0. -1.
<mgrwt>
<rscale>  2 0.31217373E+03</rscale>
<asrwt>0</asrwt>
<pdfrwt beam="1">  1       21 0.22551307E+00 0.31217373E+03</pdfrwt>
<pdfrwt beam="2">  1       21 0.10439329E-01 0.31217373E+03</pdfrwt>
<totfact> 0.64029692E+03</totfact>
</mgrwt>
</event>
<event>
 4    1  0.3950955E+000  0.2147614E+03  0.7546771E-02  0.1137850E+00
         21   -1    0    0  503  502  0.00000000000E+00  0.00000000000E+00  0.95187775429E+02  0.95187775429E+02  0.00000000000E+00 0.  1.
         21   -1    0    0  501  503 -0.00000000000E+00 -0.00000000000E+00 -0.68664299885E+03  0.68664299885E+03  0.00000000000E+00 0. -1.
          6    1    1    2  501    0  0.12654851951E+03  0.13375876714E+02 -0.50780866524E+03  0.55135476996E+03  0.17300000000E+03 0. -1.
         -6    1    1    2    0  502 -0.12654851951E+03 -0.13375876714E+02 -0.83646558181E+02  0.23047600431E+03  0.17300000000E+03 0.  1.
<mgrwt>
<rscale>  2 0.21476136E+03</rscale>
<asrwt>0</asrwt>
<pdfrwt beam="1">  1       21 0.14644273E-01 0.21476136E+03</pdfrwt>
<pdfrwt beam="2">  1       21 0.10563739E+00 0.21476136E+03</pdfrwt>
<totfact> 0.29138201E+04</totfact>
</mgrwt>
</event>
<event>
 4    1  0.3950955E+000  0.1845638E+03  0.7546771E-02  0.1163458E+00
         21   -1    0    0  501  502  0.00000000000E+00  0.00000000000E+00  0.40597449959E+03  0.40597449959E+03  0.00000000000E+00 0.  1.
         21   -1    0    0  502  503 -0.00000000000E+00 -0.00000000000E+00 -0.20200006270E+03  0.20200006270E+03  0.00000000000E+00 0.  1.
          6    1    1    2  501    0 -0.43079200038E+02  0.47738588975E+02  0.33441779902E+03  0.38196734763E+03  0.17300000000E+03 0.  1.
         -6    1    1    2    0  503  0.43079200038E+02 -0.47738588975E+02 -0.13044336213E+03  0.22600721466E+03  0.17300000000E+03 0.  1.
<mgrwt>
<rscale>  2 0.18456378E+03</rscale>
<asrwt>0</asrwt>
<pdfrwt beam="1">  1       21 0.62457615E-01 0.18456378E+03</pdfrwt>
<pdfrwt beam="2">  1       21 0.31076933E-01 0.18456378E+03</pdfrwt>
<totfact> 0.23748490E+04</totfact>
</mgrwt>
</event>
<event>
 4    1  0.3950955E+000  0.1772932E+03  0.7546771E-02  0.1170449E+00
         21   -1    0    0  501  502  0.00000000000E+00  0.00000000000E+00  0.78952847944E+02  0.78952847944E+02  0.00000000000E+00 0. -1.
         21   -1    0    0  502  503 -0.00000000000E+00 -0.00000000000E+00 -0.74199749856E+03  0.74199749856E+03  0.00000000000E+00 0. -1.
          6    1    1    2  501    0 -0.38241904215E+02  0.64358858037E+01 -0.52083783929E+02  0.18478523862E+03  0.17300000000E+03 0. -1.
         -6    1    1    2    0  503  0.38241904215E+02 -0.64358858037E+01 -0.61096086669E+03  0.63616510788E+03  0.17300000000E+03 0. -1.
<mgrwt>
<rscale>  2 0.17729316E+03</rscale>
<asrwt>0</asrwt>
<pdfrwt beam="1">  1       21 0.12146592E-01 0.17729316E+03</pdfrwt>
<pdfrwt beam="2">  1       21 0.11415346E+00 0.17729316E+03</pdfrwt>
<totfact> 0.34573057E+04</totfact>
</mgrwt>
</event>
<event>
 4    1  0.3950955E+000  0.2057987E+03  0.7546771E-02  0.1144937E+00
         21   -1    0    0  501  502  0.00000000000E+00  0.00000000000E+00  0.19579663299E+03  0.19579663299E+03  0.00000000000E+00 0.  1.
         21   -1    0    0  502  503 -0.00000000000E+00 -0.00000000000E+00 -0.22549668256E+03  0.22549668256E+03  0.00000000000E+00 0.  1.
          6    1    1    2  501    0  0.38091205546E+02 -0.10475283780E+03  0.27663227990E+02  0.20764958740E+03  0.17300000000E+03 0.  1.
         -6    1    1    2    0  503 -0.38091205546E+02  0.10475283780E+03 -0.57363277554E+02  0.21364372815E+03  0.17300000000E+03 0.  1.
<mgrwt>
<rscale>  2 0.20579868E+03</rscale>
<asrwt>0</asrwt>
<pdfrwt beam="1">  1       21 0.30122559E-01 0.20579868E+03</pdfrwt>
<pdfrwt beam="2">  1       21 0.34691797E-01 0.20579868E+03</pdfrwt>
<totfact> 0.84197674E+04</totfact>
</mgrwt>
</event>
<event>
 4    1  0.3950955E+000  0.1854560E+03  0.7546771E-02  0.1162625E+00
         21   -1    0    0  503  502  0.00000000000E+00  0.00000000000E+00  0.32055494156E+03  0.32055494156E+03  0.00000000000E+00 0. -1.
         21   -1    0    0  501  503 -0.00000000000E+00 -0.00000000000E+00 -0.13345856646E+03  0.13345856646E+03  0.00000000000E+00 0. -1.
          6    1    1    2  501    0 -0.12290916851E+02 -0.65680086035E+02 -0.69629244329E+01  0.18558669849E+03  0.17300000000E+03 0. -1.
         -6    1    1    2    0  502  0.12290916851E+02  0.65680086035E+02  0.19405929953E+03  0.26842680953E+03  0.17300000000E+03 0. -1.
<mgrwt>
<rscale>  2 0.18545603E+03</rscale>
<asrwt>0</asrwt>
<pdfrwt beam="1">  1       21 0.49316145E-01 0.18545603E+03</pdfrwt>
<pdfrwt beam="2">  1       21 0.20532087E-01 0.18545603E+03</pdfrwt>
<totfact> 0.86424534E+04</totfact>
</mgrwt>
</event>
<event>
 4    1  0.3950955E+000  0.1997952E+03  0.7546771E-02  0.1149912E+00
         21   -1    0    0  501  502  0.00000000000E+00  0.00000000000E+00  0.33905735057E+03  0.33905735057E+03  0.00000000000E+00 0.  1.
         21   -1    0    0  502  503 -0.00000000000E+00 -0.00000000000E+00 -0.55401860525E+03  0.55401860525E+03  0.00000000000E+00 0.  1.
          6    1    1    2  501    0 -0.40569111515E+02 -0.91341418027E+02  0.28878085686E+03  0.35115878281E+03  0.17300000000E+03 0.  1.
         -6    1    1    2    0  503  0.40569111515E+02  0.91341418027E+02 -0.50374211155E+03  0.54191717301E+03  0.17300000000E+03 0.  1.
<mgrwt>
<rscale>  2 0.19979516E+03</rscale>
<asrwt>0</asrwt>
<pdfrwt beam="1">  1       21 0.52162670E-01 0.19979516E+03</pdfrwt>
<pdfrwt beam="2">  1       21 0.85233631E-01 0.19979516E+03</pdfrwt>
<totfact> 0.41287480E+03</totfact>
</mgrwt>
</event>
<event>
 4    1  0.3950955E+000  0.2065797E+03  0.7546771E-02  0.1144303E+00
         21   -1    0    0  501  502  0.00000000000E+00  0.00000000000E+00  0.18639436060E+03  0.18639436060E+03  0.00000000000E+00 0.  1.
         21   -1    0    0  502  503 -0.00000000000E+00 -0.00000000000E+00 -0.26665509658E+03  0.26665509658E+03  0.00000000000E+00 0.  1.
          6    1    1    2  501    0 -0.11175000457E+03 -0.16065703971E+02  0.45049133688E+02  0.21143461119E+03  0.17300000000E+03 0.  1.
         -6    1    1    2    0  503  0.11175000457E+03  0.16065703971E+02 -0.12530986966E+03  0.24161484598E+03  0.17300000000E+03 0.  1.
<mgrwt>
<rscale>  2 0.20657969E+03</rscale>
<asrwt>0</asrwt>
<pdfrwt beam="1">  1       21 0.28676056E-01 0.20657969E+03</pdfrwt>
<pdfrwt beam="2">  1       21 0.41023861E-01 0.20657969E+03</pdfrwt>
<totfact> 0.66162251E+04</totfact>
</mgrwt>
</event>
<event>
 4    1  0.3950955E+000  0.1997875E+03  0.7546771E-02  0.1149918E+00
         21   -1    0    0  503  502  0.00000000000E+00  0.00000000000E+00  0.99123372447E+02  0.99123372447E+02  0.00000000000E+00 0. -1.
         21   -1    0    0  501  503 -0.00000000000E+00 -0.00000000000E+00 -0.40290744318E+03  0.40290744318E+03  0.00000000000E+00 0. -1.
          6    1    1    2  501    0  0.37415441051E+02  0.92661311161E+02 -0.15785146314E+03  0.25462151957E+03  0.17300000000E+03 0.  1.
         -6    1    1    2    0  502 -0.37415441051E+02 -0.92661311161E+02 -0.14593260760E+03  0.24740929606E+03  0.17300000000E+03 0.  1.
<mgrwt>
<rscale>  2 0.19978747E+03</rscale>
<asrwt>0</asrwt>
<pdfrwt beam="1">  1       21 0.15249750E-01 0.19978747E+03</pdfrwt>
<pdfrwt beam="2">  1       21 0.61985758E-01 0.19978747E+03</pdfrwt>
<totfact> 0.91682806E+04</totfact>
</mgrwt>
</event>
<event>
 4    1  0.3950955E+000  0.1775475E+03  0.7546771E-02  0.1170198E+00
         21   -1    0    0  503  502  0.00000000000E+00  0.00000000000E+00  0.64161304726E+03  0.64161304726E+03  0.00000000000E+00 0.  1.
         21   -1    0    0  501  503 -0.00000000000E+00 -0.00000000000E+00 -0.12354083612E+03  0.12354083612E+03  0.00000000000E+00 0.  1.
          6    1    1    2  501    0  0.24018847547E+00 -0.39925515942E+02 -0.37876498380E+02  0.18154264965E+03  0.17300000000E+03 0.  1.
         -6    1    1    2    0  502 -0.24018847547E+00  0.39925515942E+02  0.55594870952E+03  0.58361123373E+03  0.17300000000E+03 0.  1.
<mgrwt>
<rscale>  2 0.17754747E+03</rscale>
<asrwt>0</asrwt>
<pdfrwt beam="1">  1       21 0.98709697E-01 0.17754747E+03</pdfrwt>
<pdfrwt beam="2">  1       21 0.19006283E-01 0.17754747E+03</pdfrwt>
<totfact> 0.21687384E+04</totfact>
</mgrwt>
</event>
<event>
 4    1  0.3950955E+000  0.1735976E+03  0.7546771E-02  0.1174147E+00
         21   -1    0    0  501  502  0.00000000000E+00  0.00000000000E+00  0.29200455356E+02  0.29200455356E+02  0.00000000000E+00 0. -1.
         21   -1    0    0  502  503 -0.00000000000E+00 -0.00000000000E+00 -0.11227723995E+04  0.11227723995E+04  0.00000000000E+00 0. -1.
          6    1    1    2  501    0 -0.12399278259E+02  0.73060400758E+01 -0.71052071115E+03  0.73142039983E+03  0.17300000000E+03 0. -1.
         -6    1    1    2    0  503  0.12399278259E+02 -0.73060400758E+01 -0.38305123297E+03  0.42055245499E+03  0.17300000000E+03 0. -1.
<mgrwt>
<rscale>  2 0.17359758E+03</rscale>
<asrwt>0</asrwt>
<pdfrwt beam="1">  1       21 0.44923782E-02 0.17359758E+03</pdfrwt>
<pdfrwt beam="2">  1       21 0.17273420E+00 0.17359758E+03</pdfrwt>
<totfact> 0.66549503E+04</totfact>
</mgrwt>
</event>
<event>
 4    1  0.3950955E+000  0.2542497E+03  0.7546771E-02  0.1110648E+00
         21   -1    0    0  501  502  0.00000000000E+00  0.00000000000E+00  0.70826056994E+02  0.70826056994E+02  0.00000000000E+00 0.  1.
         21   -1    0    0  502  503 -0.00000000000E+00 -0.00000000000E+00 -0.17831337827E+04  0.17831337827E+04  0.00000000000E+00 0. -1.
          6    1    1    2  501    0 -0.17918833035E+03  0.51043854966E+02 -0.20849507212E+03  0.32880560816E+03  0.17300000000E+03 0.  1.
         -6    1    1    2    0  503  0.17918833035E+03 -0.51043854966E+02 -0.15038126536E+04  0.15251542315E+04  0.17300000000E+03 0. -1.
<mgrwt>
<rscale>  2 0.25424975E+03</rscale>
<asrwt>0</asrwt>
<pdfrwt beam="1">  1       21 0.10896317E-01 0.25424975E+03</pdfrwt>
<pdfrwt beam="2">  1       21 0.27432826E+00 0.25424975E+03</pdfrwt>
<totfact> 0.31431098E+03</totfact>
</mgrwt>
</event>
<event>
 4    1  0.3950955E+000  0.1892701E+03  0.7546771E-02  0.1159121E+00
         21   -1    0    0  501  502  0.00000000000E+00  0.00000000000E+00  0.27253814077E+04  0.27253814077E+04  0.00000000000E+00 0. -1.
         21   -1    0    0  502  503 -0.00000000000E+00 -0.00000000000E+00 -0.13153814272E+02  0.13153814272E+02  0.00000000000E+00 0. -1.
          6    1    1    2  501    0 -0.75963540502E+02 -0.11122768891E+02  0.13192488671E+04  0.13327568228E+04  0.17300000000E+03 0. -1.
         -6    1    1    2    0  503  0.75963540502E+02  0.11122768891E+02  0.13929787264E+04  0.14057783992E+04  0.17300000000E+03 0. -1.
<mgrwt>
<rscale>  2 0.18927011E+03</rscale>
<asrwt>0</asrwt>
<pdfrwt beam="1">  1       21 0.41928900E+00 0.18927011E+03</pdfrwt>
<pdfrwt beam="2">  1       21 0.20236659E-02 0.18927011E+03</pdfrwt>
<totfact> 0.79909300E+03</totfact>
</mgrwt>
</event>
<event>
 4    1  0.3950955E+000  0.1796829E+03  0.7546771E-02  0.1168110E+00
         21   -1    0    0  501  502  0.00000000000E+00  0.00000000000E+00  0.28804228666E+03  0.28804228666E+03  0.00000000000E+00 0. -1.
         21   -1    0    0  502  503 -0.00000000000E+00 -0.00000000000E+00 -0.12530585552E+03  0.12530585552E+03  0.00000000000E+00 0. -1.
          6    1    1    2  501    0  0.47972332758E+02  0.74571296611E+01  0.14849382552E+03  0.23310162958E+03  0.17300000000E+03 0. -1.
         -6    1    1    2    0  503 -0.47972332758E+02 -0.74571296611E+01  0.14242605619E+02  0.18024651261E+03  0.17300000000E+03 0. -1.
<mgrwt>
<rscale>  2 0.17968292E+03</rscale>
<asrwt>0</asrwt>
<pdfrwt beam="1">  1       21 0.44314198E-01 0.17968292E+03</pdfrwt>
<pdfrwt beam="2">  1       21 0.19277824E-01 0.17968292E+03</pdfrwt>
<totfact> 0.12144897E+05</totfact>
</mgrwt>
</event>
<event>
 4    1  0.3950955E+000  0.1911176E+03  0.7546771E-02  0.1157457E+00
         21   -1    0    0  503  502  0.00000000000E+00  0.00000000000E+00  0.13071663934E+03  0.13071663934E+03  0.00000000000E+00 0.  1.
         21   -1    0    0  501  503 -0.00000000000E+00 -0.00000000000E+00 -0.36460789876E+03  0.36460789876E+03  0.00000000000E+00 0.  1.
          6    1    1    2  501    0  0.77983542299E+02 -0.22704575199E+02 -0.23665125550E+03  0.30418702690E+03  0.17300000000E+03 0.  1.
         -6    1    1    2    0  502 -0.77983542299E+02  0.22704575199E+02  0.27599960852E+01  0.19113751119E+03  0.17300000000E+03 0.  1.
<mgrwt>
<rscale>  2 0.19111758E+03</rscale>
<asrwt>0</asrwt>
<pdfrwt beam="1">  1       21 0.20110252E-01 0.19111758E+03</pdfrwt>
<pdfrwt beam="2">  1       21 0.56093523E-01 0.19111758E+03</pdfrwt>
<totfact> 0.68400659E+04</totfact>
</mgrwt>
</event>
<event>
 4    1  0.3950955E+000  0.1822433E+03  0.7546771E-02  0.1165649E+00
         21   -1    0    0  503  502  0.00000000000E+00  0.00000000000E+00  0.22115920917E+03  0.22115920917E+03  0.00000000000E+00 0. -1.
         21   -1    0    0  501  503 -0.00000000000E+00 -0.00000000000E+00 -0.25090322765E+03  0.25090322765E+03  0.00000000000E+00 0. -1.
          6    1    1    2  501    0 -0.57114097002E+02  0.46463656039E+01 -0.16442382181E+03  0.24545427674E+03  0.17300000000E+03 0. -1.
         -6    1    1    2    0  502  0.57114097002E+02 -0.46463656039E+01  0.13467980334E+03  0.22660816008E+03  0.17300000000E+03 0. -1.
<mgrwt>
<rscale>  2 0.18224327E+03</rscale>
<asrwt>0</asrwt>
<pdfrwt beam="1">  1       21 0.34024494E-01 0.18224327E+03</pdfrwt>
<pdfrwt beam="2">  1       21 0.38600496E-01 0.18224327E+03</pdfrwt>
<totfact> 0.54118789E+04</totfact>
</mgrwt>
</event>
<event>
 4    1  0.3950955E+000  0.1970169E+03  0.7546771E-02  0.1152281E+00
         21   -1    0    0  501  502  0.00000000000E+00  0.00000000000E+00  0.10049890499E+03  0.10049890499E+03  0.00000000000E+00 0.  1.
         21   -1    0    0  502  503 -0.00000000000E+00 -0.00000000000E+00 -0.40259732709E+03  0.40259732709E+03  0.00000000000E+00 0.  1.
          6    1    1    2  501    0 -0.13100951496E+02 -0.93354236671E+02 -0.10032909169E+03  0.22109177975E+03  0.17300000000E+03 0.  1.
         -6    1    1    2    0  503  0.13100951496E+02  0.93354236671E+02 -0.20176933042E+03  0.28200445233E+03  0.17300000000E+03 0.  1.
<mgrwt>
<rscale>  2 0.19701687E+03</rscale>
<asrwt>0</asrwt>
<pdfrwt beam="1">  1       21 0.15461370E-01 0.19701687E+03</pdfrwt>
<pdfrwt beam="2">  1       21 0.61938050E-01 0.19701687E+03</pdfrwt>
<totfact> 0.89660181E+04</totfact>
</mgrwt>
</event>
<event>
 4    1  0.3950955E+000  0.1965795E+03  0.7546771E-02  0.1152657E+00
         21   -1    0    0  501  502  0.00000000000E+00  0.00000000000E+00  0.14317675157E+03  0.14317675157E+03  0.00000000000E+00 0.  1.
         21   -1    0    0  502  503 -0.00000000000E+00 -0.00000000000E+00 -0.29543000109E+03  0.29543000109E+03  0.00000000000E+00 0. -1.
          6    1    1    2  501    0 -0.24143797089E+01 -0.93320282619E+02 -0.14059363768E+03  0.24168176458E+03  0.17300000000E+03 0. -1.
         -6    1    1    2    0  503  0.24143797089E+01  0.93320282619E+02 -0.11659611844E+02  0.19692498807E+03  0.17300000000E+03 0.  1.
<mgrwt>
<rscale>  2 0.19657951E+03</rscale>
<asrwt>0</asrwt>
<pdfrwt beam="1">  1       21 0.22027193E-01 0.19657951E+03</pdfrwt>
<pdfrwt beam="2">  1       21 0.45450769E-01 0.19657951E+03</pdfrwt>
<totfact> 0.89263731E+04</totfact>
</mgrwt>
</event>
<event>
 4    1  0.3950955E+000  0.1857190E+03  0.7546771E-02  0.1162380E+00
         21   -1    0    0  501  502  0.00000000000E+00  0.00000000000E+00  0.27891521231E+03  0.27891521231E+03  0.00000000000E+00 0. -1.
         21   -1    0    0  502  503 -0.00000000000E+00 -0.00000000000E+00 -0.17211649021E+03  0.17211649021E+03  0.00000000000E+00 0.  1.
          6    1    1    2  501    0 -0.66813520305E+02 -0.99255646021E+01  0.17305336002E+03  0.25384843656E+03  0.17300000000E+03 0. -1.
         -6    1    1    2    0  503  0.66813520305E+02  0.99255646021E+01 -0.66254637919E+02  0.19718326596E+03  0.17300000000E+03 0.  1.
<mgrwt>
<rscale>  2 0.18571904E+03</rscale>
<asrwt>0</asrwt>
<pdfrwt beam="1">  1       21 0.42910033E-01 0.18571904E+03</pdfrwt>
<pdfrwt beam="2">  1       21 0.26479460E-01 0.18571904E+03</pdfrwt>
<totfact> 0.71072468E+04</totfact>
</mgrwt>
</event>
<event>
 4    1  0.3950955E+000  0.2025037E+03  0.7546771E-02  0.1147644E+00
         21   -1    0    0  503  502  0.00000000000E+00  0.00000000000E+00  0.14894644295E+04  0.14894644295E+04  0.00000000000E+00 0. -1.
         21   -1    0    0  501  503 -0.00000000000E+00 -0.00000000000E+00 -0.27962805653E+02  0.27962805653E+02  0.00000000000E+00 0. -1.
          6    1    1    2  501    0 -0.40545803573E+02  0.97132824421E+02  0.63656370773E+03  0.66799783066E+03  0.17300000000E+03 0. -1.
         -6    1    1    2    0  502  0.40545803573E+02 -0.97132824421E+02  0.82493791607E+03  0.84942940445E+03  0.17300000000E+03 0. -1.
<mgrwt>
<rscale>  2 0.20250370E+03</rscale>
<asrwt>0</asrwt>
<pdfrwt beam="1">  1       21 0.22914831E+00 0.20250370E+03</pdfrwt>
<pdfrwt beam="2">  1       21 0.43019713E-02 0.20250370E+03</pdfrwt>
<totfact> 0.30455780E+04</totfact>
</mgrwt>
</event>
<event>
 4    1  0.3950955E+000  0.1754707E+03  0.7546771E-02  0.1172260E+00
         21   -1    0    0  503  502  0.00000000000E+00  0.00000000000E+00  0.13592456886E+03  0.13592456886E+03  0.00000000000E+00 0. -1.
         21   -1    0    0  501  503 -0.00000000000E+00 -0.00000000000E+00 -0.32524602245E+03  0.32524602245E+03  0.00000000000E+00 0. -1.
          6    1    1    2  501    0  0.23752233786E+02 -0.17228146431E+02 -0.22169937405E+03  0.28273767010E+03  0.17300000000E+03 0. -1.
         -6    1    1    2    0  502 -0.23752233786E+02  0.17228146431E+02  0.32377920457E+02  0.17843292121E+03  0.17300000000E+03 0. -1.
<mgrwt>
<rscale>  2 0.17547073E+03</rscale>
<asrwt>0</asrwt>
<pdfrwt beam="1">  1       21 0.20911473E-01 0.17547073E+03</pdfrwt>
<pdfrwt beam="2">  1       21 0.50037849E-01 0.17547073E+03</pdfrwt>
<totfact> 0.81360393E+04</totfact>
</mgrwt>
</event>
<event>
 4    1  0.3950955E+000  0.2093281E+03  0.7546771E-02  0.1142099E+00
         21   -1    0    0  503  502  0.00000000000E+00  0.00000000000E+00  0.14412855096E+03  0.14412855096E+03  0.00000000000E+00 0. -1.
         21   -1    0    0  501  503 -0.00000000000E+00 -0.00000000000E+00 -0.40876082741E+03  0.40876082741E+03  0.00000000000E+00 0. -1.
          6    1    1    2  501    0  0.81574711936E+02  0.85057637772E+02 -0.27225156771E+03  0.34342270090E+03  0.17300000000E+03 0. -1.
         -6    1    1    2    0  502 -0.81574711936E+02 -0.85057637772E+02  0.76192912587E+01  0.20946667747E+03  0.17300000000E+03 0. -1.
<mgrwt>
<rscale>  2 0.20932806E+03</rscale>
<asrwt>0</asrwt>
<pdfrwt beam="1">  1       21 0.22173624E-01 0.20932806E+03</pdfrwt>
<pdfrwt beam="2">  1       21 0.62886280E-01 0.20932806E+03</pdfrwt>
<totfact> 0.44163664E+04</totfact>
</mgrwt>
</event>
<event>
 4    1  0.3950955E+000  0.2942564E+03  0.7546771E-02  0.1088148E+00
         21   -1    0    0  501  502  0.00000000000E+00  0.00000000000E+00  0.13214900585E+03  0.13214900585E+03  0.00000000000E+00 0.  1.
         21   -1    0    0  502  503 -0.00000000000E+00 -0.00000000000E+00 -0.69808819233E+03  0.69808819233E+03  0.00000000000E+00 0.  1.
          6    1    1    2  501    0  0.20517625991E+03  0.12066701249E+03 -0.38583722251E+03  0.48523930983E+03  0.17300000000E+03 0.  1.
         -6    1    1    2    0  503 -0.20517625991E+03 -0.12066701249E+03 -0.18010196398E+03  0.34499788835E+03  0.17300000000E+03 0.  1.
<mgrwt>
<rscale>  2 0.29425639E+03</rscale>
<asrwt>0</asrwt>
<pdfrwt beam="1">  1       21 0.20330616E-01 0.29425639E+03</pdfrwt>
<pdfrwt beam="2">  1       21 0.10739818E+00 0.29425639E+03</pdfrwt>
<totfact> 0.14648415E+04</totfact>
</mgrwt>
</event>
<event>
 4    1  0.3950955E+000  0.2127811E+03  0.7546771E-02  0.1139382E+00
         21   -1    0    0  501  502  0.00000000000E+00  0.00000000000E+00  0.27312901957E+02  0.27312901957E+02  0.00000000000E+00 0.  1.
         21   -1    0    0  502  503 -0.00000000000E+00 -0.00000000000E+00 -0.19806312066E+04  0.19806312066E+04  0.00000000000E+00 0.  1.
          6    1    1    2  501    0 -0.73218631697E+02  0.99929152050E+02 -0.57124923070E+03  0.60959124586E+03  0.17300000000E+03 0.  1.
         -6    1    1    2    0  503  0.73218631697E+02 -0.99929152050E+02 -0.13820690739E+04  0.13983528627E+04  0.17300000000E+03 0.  1.
<mgrwt>
<rscale>  2 0.21278112E+03</rscale>
<asrwt>0</asrwt>
<pdfrwt beam="1">  1       21 0.42019838E-02 0.21278112E+03</pdfrwt>
<pdfrwt beam="2">  1       21 0.30471258E+00 0.21278112E+03</pdfrwt>
<totfact> 0.11331127E+04</totfact>
</mgrwt>
</event>
<event>
 4    1  0.3950955E+000  0.1796126E+03  0.7546771E-02  0.1168178E+00
         21   -1    0    0  503  502  0.00000000000E+00  0.00000000000E+00  0.52410936011E+03  0.52410936011E+03  0.00000000000E+00 0.  1.
         21   -1    0    0  501  503 -0.00000000000E+00 -0.00000000000E+00 -0.78193202641E+02  0.78193202641E+02  0.00000000000E+00 0.  1.
          6    1    1    2  501    0  0.47602495842E+02  0.81049298468E+01  0.84034827903E+02  0.19829911699E+03  0.17300000000E+03 0.  1.
         -6    1    1    2    0  502 -0.47602495842E+02 -0.81049298468E+01  0.36188132957E+03  0.40400344576E+03  0.17300000000E+03 0.  1.
<mgrwt>
<rscale>  2 0.17961260E+03</rscale>
<asrwt>0</asrwt>
<pdfrwt beam="1">  1       21 0.80632207E-01 0.17961260E+03</pdfrwt>
<pdfrwt beam="2">  1       21 0.12029724E-01 0.17961260E+03</pdfrwt>
<totfact> 0.79372426E+04</totfact>
</mgrwt>
</event>
<event>
 4    1  0.3950955E+000  0.2224684E+03  0.7546771E-02  0.1132056E+00
         21   -1    0    0  501  502  0.00000000000E+00  0.00000000000E+00  0.12856597755E+04  0.12856597755E+04  0.00000000000E+00 0. -1.
         21   -1    0    0  502  503 -0.00000000000E+00 -0.00000000000E+00 -0.25806402645E+03  0.25806402645E+03  0.00000000000E+00 0. -1.
          6    1    1    2  501    0  0.12921095559E+03 -0.53550960341E+02  0.12257665187E+04  0.12457912083E+04  0.17300000000E+03 0. -1.
         -6    1    1    2    0  503 -0.12921095559E+03  0.53550960341E+02 -0.19817076965E+03  0.29793259362E+03  0.17300000000E+03 0. -1.
<mgrwt>
<rscale>  2 0.22246837E+03</rscale>
<asrwt>0</asrwt>
<pdfrwt beam="1">  1       21 0.19779381E+00 0.22246837E+03</pdfrwt>
<pdfrwt beam="2">  1       21 0.39702159E-01 0.22246837E+03</pdfrwt>
<totfact> 0.82130948E+02</totfact>
</mgrwt>
</event>
<event>
 4    1  0.3950955E+000  0.1852471E+03  0.7546771E-02  0.1162819E+00
         21   -1    0    0  503  502  0.00000000000E+00  0.00000000000E+00  0.15512696761E+03  0.15512696761E+03  0.00000000000E+00 0.  1.
         21   -1    0    0  501  503 -0.00000000000E+00 -0.00000000000E+00 -0.29480445092E+03  0.29480445092E+03  0.00000000000E+00 0.  1.
          6    1    1    2  501    0  0.64349153817E+02 -0.15705998483E+02 -0.18223596163E+03  0.25985849552E+03  0.17300000000E+03 0.  1.
         -6    1    1    2    0  502 -0.64349153817E+02  0.15705998483E+02  0.42558478321E+02  0.19007292301E+03  0.17300000000E+03 0.  1.
<mgrwt>
<rscale>  2 0.18524711E+03</rscale>
<asrwt>0</asrwt>
<pdfrwt beam="1">  1       21 0.23865687E-01 0.18524711E+03</pdfrwt>
<pdfrwt beam="2">  1       21 0.45354531E-01 0.18524711E+03</pdfrwt>
<totfact> 0.77392082E+04</totfact>
</mgrwt>
</event>
<event>
 4    1  0.3950955E+000  0.2883259E+03  0.7546771E-02  0.1091226E+00
         21   -1    0    0  501  502  0.00000000000E+00  0.00000000000E+00  0.11631586329E+03  0.11631586329E+03  0.00000000000E+00 0.  1.
         21   -1    0    0  502  503 -0.00000000000E+00 -0.00000000000E+00 -0.71637586249E+03  0.71637586249E+03  0.00000000000E+00 0.  1.
          6    1    1    2  501    0 -0.22244132747E+03 -0.61013552622E+02 -0.32012341241E+03  0.43082571528E+03  0.17300000000E+03 0.  1.
         -6    1    1    2    0  503  0.22244132747E+03  0.61013552622E+02 -0.27993658679E+03  0.40186601050E+03  0.17300000000E+03 0.  1.
<mgrwt>
<rscale>  2 0.28832585E+03</rscale>
<asrwt>0</asrwt>
<pdfrwt beam="1">  1       21 0.17894748E-01 0.28832585E+03</pdfrwt>
<pdfrwt beam="2">  1       21 0.11021167E+00 0.28832585E+03</pdfrwt>
<totfact> 0.17518743E+04</totfact>
</mgrwt>
</event>
<event>
 4    1  0.3950955E+000  0.3548990E+03  0.7546771E-02  0.1060622E+00
         21   -1    0    0  501  502  0.00000000000E+00  0.00000000000E+00  0.68446165750E+02  0.68446165750E+02  0.00000000000E+00 0. -1.
         21   -1    0    0  502  503 -0.00000000000E+00 -0.00000000000E+00 -0.18402398291E+04  0.18402398291E+04  0.00000000000E+00 0.  1.
          6    1    1    2  501    0 -0.30707619535E+03  0.41575702067E+02 -0.89129606501E+03  0.95935499387E+03  0.17300000000E+03 0.  1.
         -6    1    1    2    0  503  0.30707619535E+03 -0.41575702067E+02 -0.88049759836E+03  0.94933100100E+03  0.17300000000E+03 0. -1.
<mgrwt>
<rscale>  2 0.35489904E+03</rscale>
<asrwt>0</asrwt>
<pdfrwt beam="1">  1       21 0.10530180E-01 0.35489904E+03</pdfrwt>
<pdfrwt beam="2">  1       21 0.28311381E+00 0.35489904E+03</pdfrwt>
<totfact> 0.27533067E+03</totfact>
</mgrwt>
</event>
<event>
 4    1  0.3950955E+000  0.2749708E+03  0.7546771E-02  0.1098468E+00
         21   -1    0    0  501  502  0.00000000000E+00  0.00000000000E+00  0.66855114165E+02  0.66855114165E+02  0.00000000000E+00 0. -1.
         21   -1    0    0  502  503 -0.00000000000E+00 -0.00000000000E+00 -0.14596142161E+04  0.14596142161E+04  0.00000000000E+00 0. -1.
          6    1    1    2  501    0 -0.19758820474E+03 -0.81479158802E+02 -0.33420031259E+03  0.43278031483E+03  0.17300000000E+03 0. -1.
         -6    1    1    2    0  503  0.19758820474E+03  0.81479158802E+02 -0.10585587894E+04  0.10936890154E+04  0.17300000000E+03 0. -1.
<mgrwt>
<rscale>  2 0.27497082E+03</rscale>
<asrwt>0</asrwt>
<pdfrwt beam="1">  1       21 0.10285403E-01 0.27497082E+03</pdfrwt>
<pdfrwt beam="2">  1       21 0.22455602E+00 0.27497082E+03</pdfrwt>
<totfact> 0.68217133E+03</totfact>
</mgrwt>
</event>
<event>
 4    1  0.3950955E+000  0.2124884E+03  0.7546771E-02  0.1139610E+00
         21   -1    0    0  503  502  0.00000000000E+00  0.00000000000E+00  0.19533987755E+04  0.19533987755E+04  0.00000000000E+00 0.  1.
         21   -1    0    0  501  503 -0.00000000000E+00 -0.00000000000E+00 -0.38923095065E+02  0.38923095065E+02  0.00000000000E+00 0.  1.
          6    1    1    2  501    0  0.11975253179E+03  0.29692514099E+02  0.32238052290E+03  0.38610946092E+03  0.17300000000E+03 0.  1.
         -6    1    1    2    0  502 -0.11975253179E+03 -0.29692514099E+02  0.15920951576E+04  0.16062124097E+04  0.17300000000E+03 0.  1.
<mgrwt>
<rscale>  2 0.21248839E+03</rscale>
<asrwt>0</asrwt>
<pdfrwt beam="1">  1       21 0.30052281E+00 0.21248839E+03</pdfrwt>
<pdfrwt beam="2">  1       21 0.59881700E-02 0.21248839E+03</pdfrwt>
<totfact> 0.65645485E+03</totfact>
</mgrwt>
</event>
<event>
 4    1  0.3950955E+000  0.2160544E+03  0.7546771E-02  0.1136859E+00
         21   -1    0    0  503  502  0.00000000000E+00  0.00000000000E+00  0.25892170577E+03  0.25892170577E+03  0.00000000000E+00 0. -1.
         21   -1    0    0  501  503 -0.00000000000E+00 -0.00000000000E+00 -0.40512303881E+03  0.40512303881E+03  0.00000000000E+00 0. -1.
          6    1    1    2  501    0  0.11927822856E+03 -0.50231546707E+02 -0.32044929203E+03  0.38648059829E+03  0.17300000000E+03 0. -1.
         -6    1    1    2    0  502 -0.11927822856E+03  0.50231546707E+02  0.17424795899E+03  0.27756414629E+03  0.17300000000E+03 0. -1.
<mgrwt>
<rscale>  2 0.21605440E+03</rscale>
<asrwt>0</asrwt>
<pdfrwt beam="1">  1       21 0.39834108E-01 0.21605440E+03</pdfrwt>
<pdfrwt beam="2">  1       21 0.62326622E-01 0.21605440E+03</pdfrwt>
<totfact> 0.14289385E+04</totfact>
</mgrwt>
</event>
<event>
 4    1  0.3950955E+000  0.1740692E+03  0.7546771E-02  0.1173670E+00
         21   -1    0    0  501  502  0.00000000000E+00  0.00000000000E+00  0.10319196833E+03  0.10319196833E+03  0.00000000000E+00 0.  1.
         21   -1    0    0  502  503 -0.00000000000E+00 -0.00000000000E+00 -0.30025011939E+03  0.30025011939E+03  0.00000000000E+00 0.  1.
          6    1    1    2  501    0 -0.19251987979E+02 -0.67486792455E+00 -0.68572346953E+02  0.18708891270E+03  0.17300000000E+03 0.  1.
         -6    1    1    2    0  503  0.19251987979E+02  0.67486792455E+00 -0.12848580411E+03  0.21635317503E+03  0.17300000000E+03 0.  1.
<mgrwt>
<rscale>  2 0.17406922E+03</rscale>
<asrwt>0</asrwt>
<pdfrwt beam="1">  1       21 0.15875688E-01 0.17406922E+03</pdfrwt>
<pdfrwt beam="2">  1       21 0.46192326E-01 0.17406922E+03</pdfrwt>
<totfact> 0.15976962E+05</totfact>
</mgrwt>
</event>
<event>
 4    1  0.3950955E+000  0.2204249E+03  0.7546771E-02  0.1133567E+00
         21   -1    0    0  501  502  0.00000000000E+00  0.00000000000E+00  0.68827879758E+03  0.68827879758E+03  0.00000000000E+00 0. -1.
         21   -1    0    0  502  503 -0.00000000000E+00 -0.00000000000E+00 -0.10812148056E+03  0.10812148056E+03  0.00000000000E+00 0.  1.
          6    1    1    2  501    0 -0.89727468517E+02 -0.10299080327E+03  0.52467997986E+03  0.56910122600E+03  0.17300000000E+03 0. -1.
         -6    1    1    2    0  503  0.89727468517E+02  0.10299080327E+03  0.55477337162E+02  0.22729905214E+03  0.17300000000E+03 0.  1.
<mgrwt>
<rscale>  2 0.22042487E+03</rscale>
<asrwt>0</asrwt>
<pdfrwt beam="1">  1       21 0.10588904E+00 0.22042487E+03</pdfrwt>
<pdfrwt beam="2">  1       21 0.16634074E-01 0.22042487E+03</pdfrwt>
<totfact> 0.22868761E+04</totfact>
</mgrwt>
</event>
<event>
 4    1  0.3950955E+000  0.1761363E+03  0.7546771E-02  0.1171596E+00
         21   -1    0    0  503  502  0.00000000000E+00  0.00000000000E+00  0.28769125124E+03  0.28769125124E+03  0.00000000000E+00 0.  1.
         21   -1    0    0  501  503 -0.00000000000E+00 -0.00000000000E+00 -0.13006045669E+03  0.13006045669E+03  0.00000000000E+00 0.  1.
          6    1    1    2  501    0  0.78930438037E+01  0.32135508600E+02 -0.75249137380E+01  0.17629695227E+03  0.17300000000E+03 0.  1.
         -6    1    1    2    0  502 -0.78930438037E+01 -0.32135508600E+02  0.16515570828E+03  0.24145475566E+03  0.17300000000E+03 0.  1.
<mgrwt>
<rscale>  2 0.17613629E+03</rscale>
<asrwt>0</asrwt>
<pdfrwt beam="1">  1       21 0.44260192E-01 0.17613629E+03</pdfrwt>
<pdfrwt beam="2">  1       21 0.20009301E-01 0.17613629E+03</pdfrwt>
<totfact> 0.11374707E+05</totfact>
</mgrwt>
</event>
<event>
 4    1  0.3950955E+000  0.2037155E+03  0.7546771E-02  0.1146642E+00
         21   -1    0    0  501  502  0.00000000000E+00  0.00000000000E+00  0.29908154944E+03  0.29908154944E+03  0.00000000000E+00 0. -1.
         21   -1    0    0  502  503 -0.00000000000E+00 -0.00000000000E+00 -0.14006698126E+03  0.14006698126E+03  0.00000000000E+00 0. -1.
          6    1    1    2  501    0 -0.10713440434E+03 -0.96557183318E+01  0.58282206457E+02  0.21188871862E+03  0.17300000000E+03 0. -1.
         -6    1    1    2    0  503  0.10713440434E+03  0.96557183318E+01  0.10073236172E+03  0.22725981208E+03  0.17300000000E+03 0. -1.
<mgrwt>
<rscale>  2 0.20371552E+03</rscale>
<asrwt>0</asrwt>
<pdfrwt beam="1">  1       21 0.46012546E-01 0.20371552E+03</pdfrwt>
<pdfrwt beam="2">  1       21 0.21548766E-01 0.20371552E+03</pdfrwt>
<totfact> 0.90438285E+04</totfact>
</mgrwt>
</event>
<event>
 4    1  0.3950955E+000  0.2244772E+03  0.7546771E-02  0.1130588E+00
         21   -1    0    0  501  502  0.00000000000E+00  0.00000000000E+00  0.63764040161E+02  0.63764040161E+02  0.00000000000E+00 0. -1.
         21   -1    0    0  502  503 -0.00000000000E+00 -0.00000000000E+00 -0.80180650681E+03  0.80180650681E+03  0.00000000000E+00 0.  1.
          6    1    1    2  501    0 -0.14012948336E+03  0.28717971967E+02 -0.42096279491E+03  0.47707407048E+03  0.17300000000E+03 0.  1.
         -6    1    1    2    0  503  0.14012948336E+03 -0.28717971967E+02 -0.31707967174E+03  0.38849647650E+03  0.17300000000E+03 0. -1.
<mgrwt>
<rscale>  2 0.22447716E+03</rscale>
<asrwt>0</asrwt>
<pdfrwt beam="1">  1       21 0.98098521E-02 0.22447716E+03</pdfrwt>
<pdfrwt beam="2">  1       21 0.12335485E+00 0.22447716E+03</pdfrwt>
<totfact> 0.40688448E+04</totfact>
</mgrwt>
</event>
<event>
 4    1  0.3950955E+000  0.1874816E+03  0.7546771E-02  0.1160753E+00
         21   -1    0    0  503  502  0.00000000000E+00  0.00000000000E+00  0.35742065568E+03  0.35742065568E+03  0.00000000000E+00 0.  1.
         21   -1    0    0  501  503 -0.00000000000E+00 -0.00000000000E+00 -0.12130117410E+03  0.12130117410E+03  0.00000000000E+00 0.  1.
          6    1    1    2  501    0 -0.71315652224E+02 -0.11593962737E+02  0.13923466141E+02  0.18799788598E+03  0.17300000000E+03 0.  1.
         -6    1    1    2    0  502  0.71315652224E+02  0.11593962737E+02  0.22219601543E+03  0.29072394380E+03  0.17300000000E+03 0.  1.
<mgrwt>
<rscale>  2 0.18748158E+03</rscale>
<asrwt>0</asrwt>
<pdfrwt beam="1">  1       21 0.54987793E-01 0.18748158E+03</pdfrwt>
<pdfrwt beam="2">  1       21 0.18661719E-01 0.18748158E+03</pdfrwt>
<totfact> 0.82120415E+04</totfact>
</mgrwt>
</event>
<event>
 4    1  0.3950955E+000  0.1738056E+03  0.7546771E-02  0.1173936E+00
         21   -1    0    0  501  502  0.00000000000E+00  0.00000000000E+00  0.75231923736E+02  0.75231923736E+02  0.00000000000E+00 0. -1.
         21   -1    0    0  502  503 -0.00000000000E+00 -0.00000000000E+00 -0.44696261407E+03  0.44696261407E+03  0.00000000000E+00 0. -1.
          6    1    1    2  501    0 -0.15737538598E+02 -0.56316281336E+01 -0.10262801824E+03  0.20184374027E+03  0.17300000000E+03 0.  1.
         -6    1    1    2    0  503  0.15737538598E+02  0.56316281336E+01 -0.26910267209E+03  0.32035079754E+03  0.17300000000E+03 0.  1.
<mgrwt>
<rscale>  2 0.17380560E+03</rscale>
<asrwt>0</asrwt>
<pdfrwt beam="1">  1       21 0.11574142E-01 0.17380560E+03</pdfrwt>
<pdfrwt beam="2">  1       21 0.68763480E-01 0.17380560E+03</pdfrwt>
<totfact> 0.12146096E+05</totfact>
</mgrwt>
</event>
<event>
 4    1  0.3950955E+000  0.2011115E+03  0.7546771E-02  0.1148805E+00
         21   -1    0    0  501  502  0.00000000000E+00  0.00000000000E+00  0.49193972800E+03  0.49193972800E+03  0.00000000000E+00 0. -1.
         21   -1    0    0  502  503 -0.00000000000E+00 -0.00000000000E+00 -0.86979849418E+02  0.86979849418E+02  0.00000000000E+00 0.  1.
          6    1    1    2  501    0  0.95568037000E+01  0.10210527067E+03  0.27021466825E+03  0.33684089082E+03  0.17300000000E+03 0. -1.
         -6    1    1    2    0  503 -0.95568037000E+01 -0.10210527067E+03  0.13474521034E+03  0.24207868660E+03  0.17300000000E+03 0.  1.
<mgrwt>
<rscale>  2 0.20111146E+03</rscale>
<asrwt>0</asrwt>
<pdfrwt beam="1">  1       21 0.75683034E-01 0.20111146E+03</pdfrwt>
<pdfrwt beam="2">  1       21 0.13381516E-01 0.20111146E+03</pdfrwt>
<totfact> 0.74887203E+04</totfact>
</mgrwt>
</event>
<event>
 4    1  0.3950955E+000  0.2168223E+03  0.7546771E-02  0.1136275E+00
         21   -1    0    0  503  502  0.00000000000E+00  0.00000000000E+00  0.16925362307E+04  0.16925362307E+04  0.00000000000E+00 0.  1.
         21   -1    0    0  501  503 -0.00000000000E+00 -0.00000000000E+00 -0.30762029680E+02  0.30762029680E+02  0.00000000000E+00 0.  1.
          6    1    1    2  501    0  0.10286657308E+03  0.80631209240E+02  0.56243400694E+03  0.60278017213E+03  0.17300000000E+03 0.  1.
         -6    1    1    2    0  502 -0.10286657308E+03 -0.80631209240E+02  0.10993401941E+04  0.11205180883E+04  0.17300000000E+03 0.  1.
<mgrwt>
<rscale>  2 0.21682233E+03</rscale>
<asrwt>0</asrwt>
<pdfrwt beam="1">  1       21 0.26039012E+00 0.21682233E+03</pdfrwt>
<pdfrwt beam="2">  1       21 0.47326213E-02 0.21682233E+03</pdfrwt>
<totfact> 0.16704665E+04</totfact>
</mgrwt>
</event>
<event>
 4    1  0.3950955E+000  0.2194277E+03  0.7546771E-02  0.1134310E+00
         21   -1    0    0  501  502  0.00000000000E+00  0.00000000000E+00  0.40491098795E+03  0.40491098795E+03  0.00000000000E+00 0.  1.
         21   -1    0    0  502  503 -0.00000000000E+00 -0.00000000000E+00 -0.12052586236E+03  0.12052586236E+03  0.00000000000E+00 0.  1.
          6    1    1    2  501    0  0.92505011454E+02 -0.98297093960E+02  0.17259977020E+03  0.27917588810E+03  0.17300000000E+03 0.  1.
         -6    1    1    2    0  503 -0.92505011454E+02  0.98297093960E+02  0.11178535540E+03  0.24626096221E+03  0.17300000000E+03 0.  1.
<mgrwt>
<rscale>  2 0.21942766E+03</rscale>
<asrwt>0</asrwt>
<pdfrwt beam="1">  1       21 0.62293998E-01 0.21942766E+03</pdfrwt>
<pdfrwt beam="2">  1       21 0.18542441E-01 0.21942766E+03</pdfrwt>
<totfact> 0.62748539E+04</totfact>
</mgrwt>
</event>
<event>
 4    1  0.3950955E+000  0.2087925E+03  0.7546771E-02  0.1142526E+00
         21   -1    0    0  501  502  0.00000000000E+00  0.00000000000E+00  0.41182340300E+03  0.41182340300E+03  0.00000000000E+00 0. -1.
         21   -1    0    0  502  503 -0.00000000000E+00 -0.00000000000E+00 -0.57252958655E+03  0.57252958655E+03  0.00000000000E+00 0.  1.
          6    1    1    2  501    0 -0.10923382941E+03 -0.41632673141E+02  0.36399993039E+03  0.41963109785E+03  0.17300000000E+03 0. -1.
         -6    1    1    2    0  503  0.10923382941E+03  0.41632673141E+02 -0.52470611394E+03  0.56472189170E+03  0.17300000000E+03 0.  1.
<mgrwt>
<rscale>  2 0.20879250E+03</rscale>
<asrwt>0</asrwt>
<pdfrwt beam="1">  1       21 0.63357447E-01 0.20879250E+03</pdfrwt>
<pdfrwt beam="2">  1       21 0.88081475E-01 0.20879250E+03</pdfrwt>
<totfact> 0.25089742E+03</totfact>
</mgrwt>
</event>
<event>
 4    1  0.3950955E+000  0.2157349E+03  0.7546771E-02  0.1137103E+00
         21   -1    0    0  501  502  0.00000000000E+00  0.00000000000E+00  0.61440253507E+03  0.61440253507E+03  0.00000000000E+00 0.  1.
         21   -1    0    0  502  503 -0.00000000000E+00 -0.00000000000E+00 -0.88246151394E+02  0.88246151394E+02  0.00000000000E+00 0. -1.
          6    1    1    2  501    0 -0.12874083564E+03 -0.61921254055E+01  0.39527861643E+03  0.45031847595E+03  0.17300000000E+03 0.  1.
         -6    1    1    2    0  503  0.12874083564E+03  0.61921254055E+01  0.13087776725E+03  0.25233021051E+03  0.17300000000E+03 0. -1.
<mgrwt>
<rscale>  2 0.21573490E+03</rscale>
<asrwt>0</asrwt>
<pdfrwt beam="1">  1       21 0.94523464E-01 0.21573490E+03</pdfrwt>
<pdfrwt beam="2">  1       21 0.13576331E-01 0.21573490E+03</pdfrwt>
<totfact> 0.43538868E+04</totfact>
</mgrwt>
</event>
<event>
 4    1  0.3950955E+000  0.2058812E+03  0.7546771E-02  0.1144870E+00
         21   -1    0    0  503  502  0.00000000000E+00  0.00000000000E+00  0.62814255697E+02  0.62814255697E+02  0.00000000000E+00 0. -1.
         21   -1    0    0  501  503 -0.00000000000E+00 -0.00000000000E+00 -0.68707432688E+03  0.68707432688E+03  0.00000000000E+00 0.  1.
          6    1    1    2  501    0  0.71017421575E+02  0.86107950335E+02 -0.26201528784E+03  0.33322524565E+03  0.17300000000E+03 0. -1.
         -6    1    1    2    0  502 -0.71017421575E+02 -0.86107950335E+02 -0.36224478334E+03  0.41666333693E+03  0.17300000000E+03 0.  1.
<mgrwt>
<rscale>  2 0.20588116E+03</rscale>
<asrwt>0</asrwt>
<pdfrwt beam="1">  1       21 0.96637318E-02 0.20588116E+03</pdfrwt>
<pdfrwt beam="2">  1       21 0.10570374E+00 0.20588116E+03</pdfrwt>
<totfact> 0.61569151E+04</totfact>
</mgrwt>
</event>
<event>
 4    1  0.3950955E+000  0.1852062E+03  0.7546771E-02  0.1162857E+00
         21   -1    0    0  503  502  0.00000000000E+00  0.00000000000E+00  0.20297009584E+04  0.20297009584E+04  0.00000000000E+00 0. -1.
         21   -1    0    0  501  503 -0.00000000000E+00 -0.00000000000E+00 -0.18272668257E+02  0.18272668257E+02  0.00000000000E+00 0. -1.
          6    1    1    2  501    0  0.39942374786E+02  0.52696629340E+02  0.72502582110E+03  0.74830726931E+03  0.17300000000E+03 0. -1.
         -6    1    1    2    0  502 -0.39942374786E+02 -0.52696629340E+02  0.12864024691E+04  0.12996663574E+04  0.17300000000E+03 0. -1.
<mgrwt>
<rscale>  2 0.18520618E+03</rscale>
<asrwt>0</asrwt>
<pdfrwt beam="1">  1       21 0.31226151E+00 0.18520618E+03</pdfrwt>
<pdfrwt beam="2">  1       21 0.28111813E-02 0.18520618E+03</pdfrwt>
<totfact> 0.20597992E+04</totfact>
</mgrwt>
</event>
<event>
 4    1  0.3950955E+000  0.1871090E+03  0.7546771E-02  0.1161095E+00
         21   -1    0    0  501  502  0.00000000000E+00  0.00000000000E+00  0.61121139481E+02  0.61121139481E+02  0.00000000000E+00 0. -1.
         21   -1    0    0  502  503 -0.00000000000E+00 -0.00000000000E+00 -0.61690468590E+03  0.61690468590E+03  0.00000000000E+00 0. -1.
          6    1    1    2  501    0  0.70787961388E+02  0.83563617321E+01 -0.18723844375E+03  0.26470360609E+03  0.17300000000E+03 0. -1.
         -6    1    1    2    0  503 -0.70787961388E+02 -0.83563617321E+01 -0.36854510266E+03  0.41332221929E+03  0.17300000000E+03 0. -1.
<mgrwt>
<rscale>  2 0.18710896E+03</rscale>
<asrwt>0</asrwt>
<pdfrwt beam="1">  1       21 0.94032516E-02 0.18710896E+03</pdfrwt>
<pdfrwt beam="2">  1       21 0.94908420E-01 0.18710896E+03</pdfrwt>
<totfact> 0.84169366E+04</totfact>
</mgrwt>
</event>
<event>
 4    1  0.3950955E+000  0.2255248E+03  0.7546771E-02  0.1129830E+00
         21   -1    0    0  501  502  0.00000000000E+00  0.00000000000E+00  0.54353938541E+02  0.54353938541E+02  0.00000000000E+00 0.  1.
         21   -1    0    0  502  503 -0.00000000000E+00 -0.00000000000E+00 -0.10525625228E+04  0.10525625228E+04  0.00000000000E+00 0.  1.
          6    1    1    2  501    0  0.42906840096E+02 -0.13817170495E+03 -0.31472369739E+03  0.38718525628E+03  0.17300000000E+03 0.  1.
         -6    1    1    2    0  503 -0.42906840096E+02  0.13817170495E+03 -0.68348488689E+03  0.71973120510E+03  0.17300000000E+03 0.  1.
<mgrwt>
<rscale>  2 0.22552476E+03</rscale>
<asrwt>0</asrwt>
<pdfrwt beam="1">  1       21 0.83621448E-02 0.22552476E+03</pdfrwt>
<pdfrwt beam="2">  1       21 0.16193269E+00 0.22552476E+03</pdfrwt>
<totfact> 0.26511522E+04</totfact>
</mgrwt>
</event>
<event>
 4    1  0.3950955E+000  0.1819908E+03  0.7546771E-02  0.1165890E+00
         21   -1    0    0  501  502  0.00000000000E+00  0.00000000000E+00  0.29228967155E+03  0.29228967155E+03  0.00000000000E+00 0. -1.
         21   -1    0    0  502  503 -0.00000000000E+00 -0.00000000000E+00 -0.12690604962E+03  0.12690604962E+03  0.00000000000E+00 0. -1.
          6    1    1    2  501    0  0.38591136790E+02 -0.41260066909E+02  0.15128477505E+03  0.23665957010E+03  0.17300000000E+03 0. -1.
         -6    1    1    2    0  503 -0.38591136790E+02  0.41260066909E+02  0.14098846882E+02  0.18253615106E+03  0.17300000000E+03 0. -1.
<mgrwt>
<rscale>  2 0.18199085E+03</rscale>
<asrwt>0</asrwt>
<pdfrwt beam="1">  1       21 0.44967642E-01 0.18199085E+03</pdfrwt>
<pdfrwt beam="2">  1       21 0.19524008E-01 0.18199085E+03</pdfrwt>
<totfact> 0.11501776E+05</totfact>
</mgrwt>
</event>
<event>
 4    1  0.3950955E+000  0.4092595E+03  0.7546771E-02  0.1040620E+00
         21   -1    0    0  501  502  0.00000000000E+00  0.00000000000E+00  0.16931219711E+04  0.16931219711E+04  0.00000000000E+00 0. -1.
         21   -1    0    0  502  503 -0.00000000000E+00 -0.00000000000E+00 -0.29303064279E+03  0.29303064279E+03  0.00000000000E+00 0.  1.
          6    1    1    2  501    0 -0.21218012351E+03 -0.30421036734E+03  0.15082931243E+04  0.15628312453E+04  0.17300000000E+03 0. -1.
         -6    1    1    2    0  503  0.21218012351E+03  0.30421036734E+03 -0.10820179605E+03  0.42332136856E+03  0.17300000000E+03 0.  1.
<mgrwt>
<rscale>  2 0.40925952E+03</rscale>
<asrwt>0</asrwt>
<pdfrwt beam="1">  1       21 0.26048030E+00 0.40925952E+03</pdfrwt>
<pdfrwt beam="2">  1       21 0.45081638E-01 0.40925952E+03</pdfrwt>
<totfact> 0.22203475E+02</totfact>
</mgrwt>
</event>
<event>
 4    1  0.3950955E+000  0.2524755E+03  0.7546771E-02  0.1111750E+00
         21   -1    0    0  501  502  0.00000000000E+00  0.00000000000E+00  0.15380339500E+03  0.15380339500E+03  0.00000000000E+00 0.  1.
         21   -1    0    0  502  503 -0.00000000000E+00 -0.00000000000E+00 -0.41527286972E+03  0.41527286972E+03  0.00000000000E+00 0.  1.
          6    1    1    2  501    0 -0.34267820262E+02 -0.18066702044E+03 -0.11807068243E+03  0.27871946798E+03  0.17300000000E+03 0.  1.
         -6    1    1    2    0  503  0.34267820262E+02  0.18066702044E+03 -0.14339879230E+03  0.29035679674E+03  0.17300000000E+03 0.  1.
<mgrwt>
<rscale>  2 0.25247546E+03</rscale>
<asrwt>0</asrwt>
<pdfrwt beam="1">  1       21 0.23662061E-01 0.25247546E+03</pdfrwt>
<pdfrwt beam="2">  1       21 0.63888133E-01 0.25247546E+03</pdfrwt>
<totfact> 0.36983556E+04</totfact>
</mgrwt>
</event>
<event>
 4    1  0.3950955E+000  0.1829229E+03  0.7546771E-02  0.1165004E+00
         21   -1    0    0  501  502  0.00000000000E+00  0.00000000000E+00  0.38346877687E+03  0.38346877687E+03  0.00000000000E+00 0. -1.
         21   -1    0    0  502  503 -0.00000000000E+00 -0.00000000000E+00 -0.10476755210E+03  0.10476755210E+03  0.00000000000E+00 0. -1.
          6    1    1    2  501    0  0.28350922110E+02  0.52230493987E+02  0.23914855869E+03  0.30108608804E+03  0.17300000000E+03 0. -1.
         -6    1    1    2    0  503 -0.28350922110E+02 -0.52230493987E+02  0.39552666077E+02  0.18715024093E+03  0.17300000000E+03 0. -1.
<mgrwt>
<rscale>  2 0.18292293E+03</rscale>
<asrwt>0</asrwt>
<pdfrwt beam="1">  1       21 0.58995196E-01 0.18292293E+03</pdfrwt>
<pdfrwt beam="2">  1       21 0.16118085E-01 0.18292293E+03</pdfrwt>
<totfact> 0.92781332E+04</totfact>
</mgrwt>
</event>
<event>
 4    1  0.3950955E+000  0.1982026E+03  0.7546771E-02  0.1151264E+00
         21   -1    0    0  503  502  0.00000000000E+00  0.00000000000E+00  0.49416963457E+02  0.49416963457E+02  0.00000000000E+00 0. -1.
         21   -1    0    0  501  503 -0.00000000000E+00 -0.00000000000E+00 -0.11576599837E+04  0.11576599837E+04  0.00000000000E+00 0. -1.
          6    1    1    2  501    0  0.62099170131E+02 -0.74155110621E+02 -0.89194582589E+03  0.91370216356E+03  0.17300000000E+03 0. -1.
         -6    1    1    2    0  502 -0.62099170131E+02  0.74155110621E+02 -0.21629719431E+03  0.29337478356E+03  0.17300000000E+03 0. -1.
<mgrwt>
<rscale>  2 0.19820264E+03</rscale>
<asrwt>0</asrwt>
<pdfrwt beam="1">  1       21 0.76026102E-02 0.19820264E+03</pdfrwt>
<pdfrwt beam="2">  1       21 0.17810153E+00 0.19820264E+03</pdfrwt>
<totfact> 0.24485400E+04</totfact>
</mgrwt>
</event>
<event>
 4    1  0.3950955E+000  0.2166615E+03  0.7546771E-02  0.1136397E+00
         21   -1    0    0  501  502  0.00000000000E+00  0.00000000000E+00  0.46581387213E+03  0.46581387213E+03  0.00000000000E+00 0.  1.
         21   -1    0    0  502  503 -0.00000000000E+00 -0.00000000000E+00 -0.11759918307E+03  0.11759918307E+03  0.00000000000E+00 0.  1.
          6    1    1    2  501    0  0.89169674087E+02 -0.95194325322E+02  0.28444318356E+03  0.35756134442E+03  0.17300000000E+03 0.  1.
         -6    1    1    2    0  503 -0.89169674087E+02  0.95194325322E+02  0.63771505499E+02  0.22585171078E+03  0.17300000000E+03 0.  1.
<mgrwt>
<rscale>  2 0.21666146E+03</rscale>
<asrwt>0</asrwt>
<pdfrwt beam="1">  1       21 0.71663672E-01 0.21666146E+03</pdfrwt>
<pdfrwt beam="2">  1       21 0.18092182E-01 0.21666146E+03</pdfrwt>
<totfact> 0.48356020E+04</totfact>
</mgrwt>
</event>
<event>
 4    1  0.3950955E+000  0.2104394E+03  0.7546771E-02  0.1141219E+00
         21   -1    0    0  501  502  0.00000000000E+00  0.00000000000E+00  0.15353859330E+03  0.15353859330E+03  0.00000000000E+00 0. -1.
         21   -1    0    0  502  503 -0.00000000000E+00 -0.00000000000E+00 -0.41012771967E+03  0.41012771967E+03  0.00000000000E+00 0. -1.
          6    1    1    2  501    0 -0.61036496341E+02  0.10310320461E+03 -0.28181935909E+03  0.35171988264E+03  0.17300000000E+03 0. -1.
         -6    1    1    2    0  503  0.61036496341E+02 -0.10310320461E+03  0.25230232725E+02  0.21194643033E+03  0.17300000000E+03 0. -1.
<mgrwt>
<rscale>  2 0.21043936E+03</rscale>
<asrwt>0</asrwt>
<pdfrwt beam="1">  1       21 0.23621322E-01 0.21043936E+03</pdfrwt>
<pdfrwt beam="2">  1       21 0.63096573E-01 0.21043936E+03</pdfrwt>
<totfact> 0.38868757E+04</totfact>
</mgrwt>
</event>
<event>
 4    1  0.3950955E+000  0.2734090E+03  0.7546771E-02  0.1099344E+00
         21   -1    0    0  501  502  0.00000000000E+00  0.00000000000E+00  0.11049825298E+03  0.11049825298E+03  0.00000000000E+00 0. -1.
         21   -1    0    0  502  503 -0.00000000000E+00 -0.00000000000E+00 -0.74514633060E+03  0.74514633060E+03  0.00000000000E+00 0. -1.
          6    1    1    2  501    0 -0.18416810551E+03 -0.10442980219E+03 -0.18747472711E+03  0.33151055485E+03  0.17300000000E+03 0. -1.
         -6    1    1    2    0  503  0.18416810551E+03  0.10442980219E+03 -0.44717335051E+03  0.52413402873E+03  0.17300000000E+03 0. -1.
<mgrwt>
<rscale>  2 0.27340899E+03</rscale>
<asrwt>0</asrwt>
<pdfrwt beam="1">  1       21 0.16999730E-01 0.27340899E+03</pdfrwt>
<pdfrwt beam="2">  1       21 0.11463791E+00 0.27340899E+03</pdfrwt>
<totfact> 0.17615723E+04</totfact>
</mgrwt>
</event>
<event>
 4    1  0.3950955E+000  0.2299892E+03  0.7546771E-02  0.1126647E+00
         21   -1    0    0  501  502  0.00000000000E+00  0.00000000000E+00  0.23578286962E+03  0.23578286962E+03  0.00000000000E+00 0.  1.
         21   -1    0    0  502  503 -0.00000000000E+00 -0.00000000000E+00 -0.22434299038E+03  0.22434299038E+03  0.00000000000E+00 0. -1.
          6    1    1    2  501    0  0.29508367877E+02 -0.14864486571E+03  0.68130595985E+01  0.23009010769E+03  0.17300000000E+03 0. -1.
         -6    1    1    2    0  503 -0.29508367877E+02  0.14864486571E+03  0.46268196429E+01  0.23003575230E+03  0.17300000000E+03 0.  1.
<mgrwt>
<rscale>  2 0.22998922E+03</rscale>
<asrwt>0</asrwt>
<pdfrwt beam="1">  1       21 0.36274288E-01 0.22998922E+03</pdfrwt>
<pdfrwt beam="2">  1       21 0.34514306E-01 0.22998922E+03</pdfrwt>
<totfact> 0.58317732E+04</totfact>
</mgrwt>
</event>
<event>
 4    1  0.3950955E+000  0.1860092E+03  0.7546771E-02  0.1162111E+00
         21   -1    0    0  501  502  0.00000000000E+00  0.00000000000E+00  0.77603499336E+02  0.77603499336E+02  0.00000000000E+00 0. -1.
         21   -1    0    0  502  503 -0.00000000000E+00 -0.00000000000E+00 -0.50308205437E+03  0.50308205437E+03  0.00000000000E+00 0.  1.
          6    1    1    2  501    0  0.62509393242E+02 -0.27622174478E+02 -0.11480905800E+03  0.21858757642E+03  0.17300000000E+03 0. -1.
         -6    1    1    2    0  503 -0.62509393242E+02  0.27622174478E+02 -0.31066949703E+03  0.36209797728E+03  0.17300000000E+03 0.  1.
<mgrwt>
<rscale>  2 0.18600916E+03</rscale>
<asrwt>0</asrwt>
<pdfrwt beam="1">  1       21 0.11939000E-01 0.18600916E+03</pdfrwt>
<pdfrwt beam="2">  1       21 0.77397240E-01 0.18600916E+03</pdfrwt>
<totfact> 0.87986478E+04</totfact>
</mgrwt>
</event>
<event>
 4    1  0.3950955E+000  0.1946963E+03  0.7546771E-02  0.1154293E+00
         21   -1    0    0  501  502  0.00000000000E+00  0.00000000000E+00  0.10695868715E+03  0.10695868715E+03  0.00000000000E+00 0. -1.
         21   -1    0    0  502  503 -0.00000000000E+00 -0.00000000000E+00 -0.95414845446E+03  0.95414845446E+03  0.00000000000E+00 0. -1.
          6    1    1    2  501    0 -0.58447104753E+02  0.67539410190E+02 -0.29610333181E+01  0.19471878107E+03  0.17300000000E+03 0. -1.
         -6    1    1    2    0  503  0.58447104753E+02 -0.67539410190E+02 -0.84422873399E+03  0.86638836054E+03  0.17300000000E+03 0. -1.
<mgrwt>
<rscale>  2 0.19469627E+03</rscale>
<asrwt>0</asrwt>
<pdfrwt beam="1">  1       21 0.16455183E-01 0.19469627E+03</pdfrwt>
<pdfrwt beam="2">  1       21 0.14679207E+00 0.19469627E+03</pdfrwt>
<totfact> 0.10462111E+04</totfact>
</mgrwt>
</event>
<event>
 4    1  0.3950955E+000  0.1744487E+03  0.7546771E-02  0.1173286E+00
         21   -1    0    0  503  502  0.00000000000E+00  0.00000000000E+00  0.32486498345E+03  0.32486498345E+03  0.00000000000E+00 0.  1.
         21   -1    0    0  501  503 -0.00000000000E+00 -0.00000000000E+00 -0.98072494307E+02  0.98072494307E+02  0.00000000000E+00 0.  1.
          6    1    1    2  501    0 -0.21785692621E+02 -0.53597142168E+01  0.68626809558E+02  0.18746194795E+03  0.17300000000E+03 0.  1.
         -6    1    1    2    0  502  0.21785692621E+02  0.53597142168E+01  0.15816567959E+03  0.23547552981E+03  0.17300000000E+03 0.  1.
<mgrwt>
<rscale>  2 0.17444868E+03</rscale>
<asrwt>0</asrwt>
<pdfrwt beam="1">  1       21 0.49979228E-01 0.17444868E+03</pdfrwt>
<pdfrwt beam="2">  1       21 0.15088076E-01 0.17444868E+03</pdfrwt>
<totfact> 0.14891124E+05</totfact>
</mgrwt>
</event>
<event>
 4    1  0.3950955E+000  0.2080653E+03  0.7546771E-02  0.1143107E+00
         21   -1    0    0  503  502  0.00000000000E+00  0.00000000000E+00  0.51055003965E+03  0.51055003965E+03  0.00000000000E+00 0. -1.
         21   -1    0    0  501  503 -0.00000000000E+00 -0.00000000000E+00 -0.87040469933E+02  0.87040469933E+02  0.00000000000E+00 0. -1.
          6    1    1    2  501    0 -0.14789512737E+02 -0.11464475502E+03  0.25976624149E+03  0.33282074719E+03  0.17300000000E+03 0. -1.
         -6    1    1    2    0  502  0.14789512737E+02  0.11464475502E+03  0.16374332823E+03  0.26476976239E+03  0.17300000000E+03 0. -1.
<mgrwt>
<rscale>  2 0.20806525E+03</rscale>
<asrwt>0</asrwt>
<pdfrwt beam="1">  1       21 0.78546158E-01 0.20806525E+03</pdfrwt>
<pdfrwt beam="2">  1       21 0.13390842E-01 0.20806525E+03</pdfrwt>
<totfact> 0.68588500E+04</totfact>
</mgrwt>
</event>
<event>
 4    1  0.3950955E+000  0.1980085E+03  0.7546771E-02  0.1151430E+00
         21   -1    0    0  501  502  0.00000000000E+00  0.00000000000E+00  0.98950541950E+03  0.98950541950E+03  0.00000000000E+00 0. -1.
         21   -1    0    0  502  503 -0.00000000000E+00 -0.00000000000E+00 -0.46021245244E+02  0.46021245244E+02  0.00000000000E+00 0. -1.
          6    1    1    2  501    0  0.44399332540E+02  0.85481430635E+02  0.66479466466E+03  0.69365648694E+03  0.17300000000E+03 0. -1.
         -6    1    1    2    0  503 -0.44399332540E+02 -0.85481430635E+02  0.27868950960E+03  0.34187017781E+03  0.17300000000E+03 0. -1.
<mgrwt>
<rscale>  2 0.19800852E+03</rscale>
<asrwt>0</asrwt>
<pdfrwt beam="1">  1       21 0.15223159E+00 0.19800852E+03</pdfrwt>
<pdfrwt beam="2">  1       21 0.70801923E-02 0.19800852E+03</pdfrwt>
<totfact> 0.42504189E+04</totfact>
</mgrwt>
</event>
<event>
 4    1  0.3950955E+000  0.2024924E+03  0.7546771E-02  0.1147653E+00
         21   -1    0    0  501  502  0.00000000000E+00  0.00000000000E+00  0.10561171183E+04  0.10561171183E+04  0.00000000000E+00 0. -1.
         21   -1    0    0  502  503 -0.00000000000E+00 -0.00000000000E+00 -0.84869455539E+02  0.84869455539E+02  0.00000000000E+00 0.  1.
          6    1    1    2  501    0  0.98066136438E+02 -0.38173141617E+02  0.90583359736E+03  0.92819053106E+03  0.17300000000E+03 0. -1.
         -6    1    1    2    0  503 -0.98066136438E+02  0.38173141617E+02  0.65414065366E+02  0.21279604274E+03  0.17300000000E+03 0.  1.
<mgrwt>
<rscale>  2 0.20249236E+03</rscale>
<asrwt>0</asrwt>
<pdfrwt beam="1">  1       21 0.16247955E+00 0.20249236E+03</pdfrwt>
<pdfrwt beam="2">  1       21 0.13056840E-01 0.20249236E+03</pdfrwt>
<totfact> 0.12087092E+04</totfact>
</mgrwt>
</event>
<event>
 4    1  0.3950955E+000  0.2417371E+03  0.7546771E-02  0.1118641E+00
         21   -1    0    0  503  502  0.00000000000E+00  0.00000000000E+00  0.54145456334E+03  0.54145456334E+03  0.00000000000E+00 0.  1.
         21   -1    0    0  501  503 -0.00000000000E+00 -0.00000000000E+00 -0.16938089419E+03  0.16938089419E+03  0.00000000000E+00 0.  1.
          6    1    1    2  501    0  0.11616357545E+03  0.12253107022E+03 -0.28048208493E+02  0.24335887374E+03  0.17300000000E+03 0.  1.
         -6    1    1    2    0  502 -0.11616357545E+03 -0.12253107022E+03  0.40012187764E+03  0.46747658380E+03  0.17300000000E+03 0.  1.
<mgrwt>
<rscale>  2 0.24173713E+03</rscale>
<asrwt>0</asrwt>
<pdfrwt beam="1">  1       21 0.83300701E-01 0.24173713E+03</pdfrwt>
<pdfrwt beam="2">  1       21 0.26058599E-01 0.24173713E+03</pdfrwt>
<totfact> 0.17062008E+04</totfact>
</mgrwt>
</event>
<event>
 4    1  0.3950955E+000  0.2239865E+03  0.7546771E-02  0.1130945E+00
         21   -1    0    0  501  502  0.00000000000E+00  0.00000000000E+00  0.69786982604E+02  0.69786982604E+02  0.00000000000E+00 0. -1.
         21   -1    0    0  502  503 -0.00000000000E+00 -0.00000000000E+00 -0.93635730617E+03  0.93635730617E+03  0.00000000000E+00 0. -1.
          6    1    1    2  501    0  0.13848282578E+03 -0.32610764711E+02 -0.19085026314E+03  0.29426820751E+03  0.17300000000E+03 0. -1.
         -6    1    1    2    0  503 -0.13848282578E+03  0.32610764711E+02 -0.67572006043E+03  0.71187608126E+03  0.17300000000E+03 0. -1.
<mgrwt>
<rscale>  2 0.22398651E+03</rscale>
<asrwt>0</asrwt>
<pdfrwt beam="1">  1       21 0.10736458E-01 0.22398651E+03</pdfrwt>
<pdfrwt beam="2">  1       21 0.14405498E+00 0.22398651E+03</pdfrwt>
<totfact> 0.23315128E+04</totfact>
</mgrwt>
</event>
<event>
 4    1  0.3950955E+000  0.1837006E+03  0.7546771E-02  0.1164269E+00
         21   -1    0    0  503  502  0.00000000000E+00  0.00000000000E+00  0.25581184942E+04  0.25581184942E+04  0.00000000000E+00 0. -1.
         21   -1    0    0  501  503 -0.00000000000E+00 -0.00000000000E+00 -0.47985260157E+02  0.47985260157E+02  0.00000000000E+00 0. -1.
          6    1    1    2  501    0 -0.39865899355E+02 -0.47197591418E+02  0.14549002782E+03  0.23433576501E+03  0.17300000000E+03 0. -1.
         -6    1    1    2    0  502  0.39865899355E+02  0.47197591418E+02  0.23646432062E+04  0.23717679894E+04  0.17300000000E+03 0. -1.
<mgrwt>
<rscale>  2 0.18370058E+03</rscale>
<asrwt>0</asrwt>
<pdfrwt beam="1">  1       21 0.39355658E+00 0.18370058E+03</pdfrwt>
<pdfrwt beam="2">  1       21 0.73823497E-02 0.18370058E+03</pdfrwt>
<totfact> 0.13363415E+03</totfact>
</mgrwt>
</event>
<event>
 4    1  0.3950955E+000  0.2046239E+03  0.7546771E-02  0.1145895E+00
         21   -1    0    0  503  502  0.00000000000E+00  0.00000000000E+00  0.66678233063E+02  0.66678233063E+02  0.00000000000E+00 0.  1.
         21   -1    0    0  501  503 -0.00000000000E+00 -0.00000000000E+00 -0.74221827451E+03  0.74221827451E+03  0.00000000000E+00 0. -1.
          6    1    1    2  501    0 -0.40382278080E+02 -0.10154420166E+03 -0.49646011135E+03  0.53697634533E+03  0.17300000000E+03 0. -1.
         -6    1    1    2    0  502  0.40382278080E+02  0.10154420166E+03 -0.17907993009E+03  0.27192016225E+03  0.17300000000E+03 0.  1.
<mgrwt>
<rscale>  2 0.20462393E+03</rscale>
<asrwt>0</asrwt>
<pdfrwt beam="1">  1       21 0.10258189E-01 0.20462393E+03</pdfrwt>
<pdfrwt beam="2">  1       21 0.11418744E+00 0.20462393E+03</pdfrwt>
<totfact> 0.45972971E+04</totfact>
</mgrwt>
</event>
<event>
 4    1  0.3950955E+000  0.1997388E+03  0.7546771E-02  0.1149960E+00
         21   -1    0    0  503  502  0.00000000000E+00  0.00000000000E+00  0.69905434143E+02  0.69905434143E+02  0.00000000000E+00 0. -1.
         21   -1    0    0  501  503 -0.00000000000E+00 -0.00000000000E+00 -0.58599276898E+03  0.58599276898E+03  0.00000000000E+00 0.  1.
          6    1    1    2  501    0  0.40025657721E+02 -0.91457793924E+02 -0.31100898964E+03  0.36962436741E+03  0.17300000000E+03 0.  1.
         -6    1    1    2    0  502 -0.40025657721E+02  0.91457793924E+02 -0.20507834520E+03  0.28627383571E+03  0.17300000000E+03 0. -1.
<mgrwt>
<rscale>  2 0.19973878E+03</rscale>
<asrwt>0</asrwt>
<pdfrwt beam="1">  1       21 0.10754682E-01 0.19973878E+03</pdfrwt>
<pdfrwt beam="2">  1       21 0.90152736E-01 0.19973878E+03</pdfrwt>
<totfact> 0.74407342E+04</totfact>
</mgrwt>
</event>
<event>
 4    1  0.3950955E+000  0.1825813E+03  0.7546771E-02  0.1165328E+00
         21   -1    0    0  503  502  0.00000000000E+00  0.00000000000E+00  0.52534657750E+03  0.52534657750E+03  0.00000000000E+00 0.  1.
         21   -1    0    0  501  503 -0.00000000000E+00 -0.00000000000E+00 -0.83678767962E+02  0.83678767962E+02  0.00000000000E+00 0.  1.
          6    1    1    2  501    0  0.28036850963E+02 -0.51194241789E+02  0.71131843036E+02  0.19594809134E+03  0.17300000000E+03 0.  1.
         -6    1    1    2    0  502 -0.28036850963E+02  0.51194241789E+02  0.37053596650E+03  0.41307725412E+03  0.17300000000E+03 0.  1.
<mgrwt>
<rscale>  2 0.18258126E+03</rscale>
<asrwt>0</asrwt>
<pdfrwt beam="1">  1       21 0.80822548E-01 0.18258126E+03</pdfrwt>
<pdfrwt beam="2">  1       21 0.12873657E-01 0.18258126E+03</pdfrwt>
<totfact> 0.69830754E+04</totfact>
</mgrwt>
</event>
<event>
 4    1  0.3950955E+000  0.3037271E+03  0.7546771E-02  0.1083392E+00
         21   -1    0    0  503  502  0.00000000000E+00  0.00000000000E+00  0.41888904723E+03  0.41888904723E+03  0.00000000000E+00 0.  1.
         21   -1    0    0  501  503 -0.00000000000E+00 -0.00000000000E+00 -0.35324913483E+03  0.35324913483E+03  0.00000000000E+00 0. -1.
          6    1    1    2  501    0 -0.24645793114E+03 -0.39744982348E+02 -0.20409277291E+03  0.36592900323E+03  0.17300000000E+03 0. -1.
         -6    1    1    2    0  502  0.24645793114E+03  0.39744982348E+02  0.26973268531E+03  0.40620917883E+03  0.17300000000E+03 0.  1.
<mgrwt>
<rscale>  2 0.30372714E+03</rscale>
<asrwt>0</asrwt>
<pdfrwt beam="1">  1       21 0.64444469E-01 0.30372714E+03</pdfrwt>
<pdfrwt beam="2">  1       21 0.54346021E-01 0.30372714E+03</pdfrwt>
<totfact> 0.66462126E+03</totfact>
</mgrwt>
</event>
<event>
 4    1  0.3950955E+000  0.2061212E+03  0.7546771E-02  0.1144675E+00
         21   -1    0    0  503  502  0.00000000000E+00  0.00000000000E+00  0.19003249537E+03  0.19003249537E+03  0.00000000000E+00 0. -1.
         21   -1    0    0  501  503 -0.00000000000E+00 -0.00000000000E+00 -0.23039895655E+03  0.23039895655E+03  0.00000000000E+00 0.  1.
          6    1    1    2  501    0 -0.91358539576E+02  0.64888810084E+02  0.16002662159E+02  0.20674144631E+03  0.17300000000E+03 0. -1.
         -6    1    1    2    0  502  0.91358539576E+02 -0.64888810084E+02 -0.56369123343E+02  0.21369000560E+03  0.17300000000E+03 0.  1.
<mgrwt>
<rscale>  2 0.20612118E+03</rscale>
<asrwt>0</asrwt>
<pdfrwt beam="1">  1       21 0.29235769E-01 0.20612118E+03</pdfrwt>
<pdfrwt beam="2">  1       21 0.35445993E-01 0.20612118E+03</pdfrwt>
<totfact> 0.85500823E+04</totfact>
</mgrwt>
</event>
<event>
 4    1  0.3950955E+000  0.2093225E+03  0.7546771E-02  0.1142104E+00
         21   -1    0    0  503  502  0.00000000000E+00  0.00000000000E+00  0.24951165909E+03  0.24951165909E+03  0.00000000000E+00 0. -1.
         21   -1    0    0  501  503 -0.00000000000E+00 -0.00000000000E+00 -0.19831003415E+03  0.19831003415E+03  0.00000000000E+00 0. -1.
          6    1    1    2  501    0 -0.10561697370E+03  0.52268295655E+02 -0.50160515290E+02  0.21524868678E+03  0.17300000000E+03 0. -1.
         -6    1    1    2    0  502  0.10561697370E+03 -0.52268295655E+02  0.10136214023E+03  0.23257300647E+03  0.17300000000E+03 0. -1.
<mgrwt>
<rscale>  2 0.20932253E+03</rscale>
<asrwt>0</asrwt>
<pdfrwt beam="1">  1       21 0.38386409E-01 0.20932253E+03</pdfrwt>
<pdfrwt beam="2">  1       21 0.30509236E-01 0.20932253E+03</pdfrwt>
<totfact> 0.66983362E+04</totfact>
</mgrwt>
</event>
<event>
 4    1  0.3950955E+000  0.2054170E+03  0.7546771E-02  0.1145247E+00
         21   -1    0    0  501  502  0.00000000000E+00  0.00000000000E+00  0.41718464877E+02  0.41718464877E+02  0.00000000000E+00 0. -1.
         21   -1    0    0  502  503 -0.00000000000E+00 -0.00000000000E+00 -0.10143676079E+04  0.10143676079E+04  0.00000000000E+00 0.  1.
          6    1    1    2  501    0 -0.31152499885E+02 -0.10628577739E+03 -0.45800550126E+03  0.50196133706E+03  0.17300000000E+03 0.  1.
         -6    1    1    2    0  503  0.31152499885E+02  0.10628577739E+03 -0.51464364180E+03  0.55412473575E+03  0.17300000000E+03 0. -1.
<mgrwt>
<rscale>  2 0.20541700E+03</rscale>
<asrwt>0</asrwt>
<pdfrwt beam="1">  1       21 0.64182256E-02 0.20541700E+03</pdfrwt>
<pdfrwt beam="2">  1       21 0.15605655E+00 0.20541700E+03</pdfrwt>
<totfact> 0.46927389E+04</totfact>
</mgrwt>
</event>
<event>
 4    1  0.3950955E+000  0.2192267E+03  0.7546771E-02  0.1134461E+00
         21   -1    0    0  503  502  0.00000000000E+00  0.00000000000E+00  0.25162669119E+03  0.25162669119E+03  0.00000000000E+00 0.  1.
         21   -1    0    0  501  503 -0.00000000000E+00 -0.00000000000E+00 -0.52712801205E+03  0.52712801205E+03  0.00000000000E+00 0.  1.
          6    1    1    2  501    0  0.10147764894E+03 -0.88507828766E+02 -0.44868299572E+03  0.49937639075E+03  0.17300000000E+03 0.  1.
         -6    1    1    2    0  502 -0.10147764894E+03  0.88507828766E+02  0.17318167486E+03  0.27937831250E+03  0.17300000000E+03 0.  1.
<mgrwt>
<rscale>  2 0.21922671E+03</rscale>
<asrwt>0</asrwt>
<pdfrwt beam="1">  1       21 0.38711798E-01 0.21922671E+03</pdfrwt>
<pdfrwt beam="2">  1       21 0.81096618E-01 0.21922671E+03</pdfrwt>
<totfact> 0.84243016E+03</totfact>
</mgrwt>
</event>
<event>
 4    1  0.3950955E+000  0.3824817E+03  0.7546771E-02  0.1050020E+00
         21   -1    0    0  501  502  0.00000000000E+00  0.00000000000E+00  0.69045563924E+03  0.69045563924E+03  0.00000000000E+00 0. -1.
         21   -1    0    0  502  503 -0.00000000000E+00 -0.00000000000E+00 -0.31406465921E+03  0.31406465921E+03  0.00000000000E+00 0.  1.
          6    1    1    2  501    0 -0.12331913660E+03  0.31804978751E+03  0.47469015765E+03  0.60960890952E+03  0.17300000000E+03 0. -1.
         -6    1    1    2    0  503  0.12331913660E+03 -0.31804978751E+03 -0.98299177629E+02  0.39491138894E+03  0.17300000000E+03 0.  1.
<mgrwt>
<rscale>  2 0.38248173E+03</rscale>
<asrwt>0</asrwt>
<pdfrwt beam="1">  1       21 0.10622394E+00 0.38248173E+03</pdfrwt>
<pdfrwt beam="2">  1       21 0.48317640E-01 0.38248173E+03</pdfrwt>
<totfact> 0.25864114E+03</totfact>
</mgrwt>
</event>
<event>
 4    1  0.3950955E+000  0.2271653E+03  0.7546771E-02  0.1128651E+00
         21   -1    0    0  501  502  0.00000000000E+00  0.00000000000E+00  0.28476915272E+03  0.28476915272E+03  0.00000000000E+00 0. -1.
         21   -1    0    0  502  503 -0.00000000000E+00 -0.00000000000E+00 -0.24857844810E+03  0.24857844810E+03  0.00000000000E+00 0. -1.
          6    1    1    2  501    0 -0.14653587715E+03 -0.14224306651E+02  0.15691940087E+03  0.27609381116E+03  0.17300000000E+03 0. -1.
         -6    1    1    2    0  503  0.14653587715E+03  0.14224306651E+02 -0.12072869626E+03  0.25725378966E+03  0.17300000000E+03 0. -1.
<mgrwt>
<rscale>  2 0.22716535E+03</rscale>
<asrwt>0</asrwt>
<pdfrwt beam="1">  1       21 0.43810639E-01 0.22716535E+03</pdfrwt>
<pdfrwt beam="2">  1       21 0.38242838E-01 0.22716535E+03</pdfrwt>
<totfact> 0.32425918E+04</totfact>
</mgrwt>
</event>
<event>
 4    1  0.3950955E+000  0.2272032E+03  0.7546771E-02  0.1128624E+00
         21   -1    0    0  503  502  0.00000000000E+00  0.00000000000E+00  0.39677930259E+03  0.39677930259E+03  0.00000000000E+00 0.  1.
         21   -1    0    0  501  503 -0.00000000000E+00 -0.00000000000E+00 -0.30084533132E+03  0.30084533132E+03  0.00000000000E+00 0. -1.
          6    1    1    2  501    0  0.13911855709E+03  0.48356351071E+02 -0.21481377140E+03  0.31267597605E+03  0.17300000000E+03 0. -1.
         -6    1    1    2    0  502 -0.13911855709E+03 -0.48356351071E+02  0.31074774267E+03  0.38494865786E+03  0.17300000000E+03 0.  1.
<mgrwt>
<rscale>  2 0.22720323E+03</rscale>
<asrwt>0</asrwt>
<pdfrwt beam="1">  1       21 0.61042970E-01 0.22720323E+03</pdfrwt>
<pdfrwt beam="2">  1       21 0.46283897E-01 0.22720323E+03</pdfrwt>
<totfact> 0.10920137E+04</totfact>
</mgrwt>
</event>
<event>
 4    1  0.3950955E+000  0.3908988E+03  0.7546771E-02  0.1046977E+00
         21   -1    0    0  503  502  0.00000000000E+00  0.00000000000E+00  0.75353826718E+03  0.75353826718E+03  0.00000000000E+00 0.  1.
         21   -1    0    0  501  503 -0.00000000000E+00 -0.00000000000E+00 -0.32014538684E+03  0.32014538684E+03  0.00000000000E+00 0. -1.
          6    1    1    2  501    0 -0.13743684685E+03 -0.32246545792E+03 -0.10834915803E+03  0.40563702798E+03  0.17300000000E+03 0. -1.
         -6    1    1    2    0  502  0.13743684685E+03  0.32246545792E+03  0.54174203837E+03  0.66804662604E+03  0.17300000000E+03 0.  1.
<mgrwt>
<rscale>  2 0.39089878E+03</rscale>
<asrwt>0</asrwt>
<pdfrwt beam="1">  1       21 0.11592896E+00 0.39089878E+03</pdfrwt>
<pdfrwt beam="2">  1       21 0.49253137E-01 0.39089878E+03</pdfrwt>
<totfact> 0.19930433E+03</totfact>
</mgrwt>
</event>
<event>
 4    1  0.3950955E+000  0.2639440E+03  0.7546771E-02  0.1104797E+00
         21   -1    0    0  503  502  0.00000000000E+00  0.00000000000E+00  0.95200321884E+02  0.95200321884E+02  0.00000000000E+00 0. -1.
         21   -1    0    0  501  503 -0.00000000000E+00 -0.00000000000E+00 -0.79944684454E+03  0.79944684454E+03  0.00000000000E+00 0. -1.
          6    1    1    2  501    0 -0.19897979489E+03  0.12018823329E+02 -0.48225724118E+03  0.54976218273E+03  0.17300000000E+03 0. -1.
         -6    1    1    2    0  502  0.19897979489E+03 -0.12018823329E+02 -0.22198928148E+03  0.34488498370E+03  0.17300000000E+03 0. -1.
<mgrwt>
<rscale>  2 0.26394395E+03</rscale>
<asrwt>0</asrwt>
<pdfrwt beam="1">  1       21 0.14646204E-01 0.26394395E+03</pdfrwt>
<pdfrwt beam="2">  1       21 0.12299182E+00 0.26394395E+03</pdfrwt>
<totfact> 0.19543546E+04</totfact>
</mgrwt>
</event>
<event>
 4    1  0.3950955E+000  0.1880902E+03  0.7546771E-02  0.1160195E+00
         21   -1    0    0  501  502  0.00000000000E+00  0.00000000000E+00  0.14968712898E+03  0.14968712898E+03  0.00000000000E+00 0.  1.
         21   -1    0    0  502  503 -0.00000000000E+00 -0.00000000000E+00 -0.34898402073E+03  0.34898402073E+03  0.00000000000E+00 0.  1.
          6    1    1    2  501    0 -0.13005093067E+02  0.72662141555E+02  0.42004115377E+02  0.19272328601E+03  0.17300000000E+03 0.  1.
         -6    1    1    2    0  503  0.13005093067E+02 -0.72662141555E+02 -0.24130100713E+03  0.30594786370E+03  0.17300000000E+03 0.  1.
<mgrwt>
<rscale>  2 0.18809019E+03</rscale>
<asrwt>0</asrwt>
<pdfrwt beam="1">  1       21 0.23028789E-01 0.18809019E+03</pdfrwt>
<pdfrwt beam="2">  1       21 0.53689849E-01 0.18809019E+03</pdfrwt>
<totfact> 0.58234013E+04</totfact>
</mgrwt>
</event>
<event>
 4    1  0.3950955E+000  0.1813011E+03  0.7546771E-02  0.1166550E+00
         21   -1    0    0  503  502  0.00000000000E+00  0.00000000000E+00  0.47099839212E+03  0.47099839212E+03  0.00000000000E+00 0.  1.
         21   -1    0    0  501  503 -0.00000000000E+00 -0.00000000000E+00 -0.89416946126E+02  0.89416946126E+02  0.00000000000E+00 0.  1.
          6    1    1    2  501    0 -0.46834903033E+02 -0.27341600313E+02  0.59504921604E+02  0.19081642210E+03  0.17300000000E+03 0.  1.
         -6    1    1    2    0  502  0.46834903033E+02  0.27341600313E+02  0.32207652440E+03  0.36959891615E+03  0.17300000000E+03 0.  1.
<mgrwt>
<rscale>  2 0.18130105E+03</rscale>
<asrwt>0</asrwt>
<pdfrwt beam="1">  1       21 0.72461290E-01 0.18130105E+03</pdfrwt>
<pdfrwt beam="2">  1       21 0.13756454E-01 0.18130105E+03</pdfrwt>
<totfact> 0.79164092E+04</totfact>
</mgrwt>
</event>
<event>
 4    1  0.3950955E+000  0.1773218E+03  0.7546771E-02  0.1170420E+00
         21   -1    0    0  503  502  0.00000000000E+00  0.00000000000E+00  0.80699111073E+03  0.80699111073E+03  0.00000000000E+00 0.  1.
         21   -1    0    0  501  503 -0.00000000000E+00 -0.00000000000E+00 -0.19627437667E+03  0.19627437667E+03  0.00000000000E+00 0.  1.
          6    1    1    2  501    0  0.38535472673E+02  0.53900012733E+01 -0.14373198878E+03  0.22825844862E+03  0.17300000000E+03 0.  1.
         -6    1    1    2    0  502 -0.38535472673E+02 -0.53900012733E+01  0.75444872284E+03  0.77500703878E+03  0.17300000000E+03 0.  1.
<mgrwt>
<rscale>  2 0.17732184E+03</rscale>
<asrwt>0</asrwt>
<pdfrwt beam="1">  1       21 0.12415248E+00 0.17732184E+03</pdfrwt>
<pdfrwt beam="2">  1       21 0.30196058E-01 0.17732184E+03</pdfrwt>
<totfact> 0.51704385E+03</totfact>
</mgrwt>
</event>
<event>
 4    1  0.3950955E+000  0.2685495E+03  0.7546771E-02  0.1102113E+00
         21   -1    0    0  501  502  0.00000000000E+00  0.00000000000E+00  0.42593891659E+03  0.42593891659E+03  0.00000000000E+00 0.  1.
         21   -1    0    0  502  503 -0.00000000000E+00 -0.00000000000E+00 -0.24312596184E+03  0.24312596184E+03  0.00000000000E+00 0. -1.
          6    1    1    2  501    0 -0.11100587223E+03 -0.17282230558E+03  0.27572800340E+03  0.38489581036E+03  0.17300000000E+03 0.  1.
         -6    1    1    2    0  503  0.11100587223E+03  0.17282230558E+03 -0.92915048654E+02  0.28416906806E+03  0.17300000000E+03 0. -1.
<mgrwt>
<rscale>  2 0.26854954E+03</rscale>
<asrwt>0</asrwt>
<pdfrwt beam="1">  1       21 0.65529064E-01 0.26854954E+03</pdfrwt>
<pdfrwt beam="2">  1       21 0.37403994E-01 0.26854954E+03</pdfrwt>
<totfact> 0.14144061E+04</totfact>
</mgrwt>
</event>
<event>
 4    1  0.3950955E+000  0.1945686E+03  0.7546771E-02  0.1154404E+00
         21   -1    0    0  503  502  0.00000000000E+00  0.00000000000E+00  0.61274876785E+02  0.61274876785E+02  0.00000000000E+00 0. -1.
         21   -1    0    0  501  503 -0.00000000000E+00 -0.00000000000E+00 -0.87985292664E+03  0.87985292664E+03  0.00000000000E+00 0. -1.
          6    1    1    2  501    0 -0.24301421816E+02  0.85658419942E+02 -0.66608630733E+03  0.69392210861E+03  0.17300000000E+03 0. -1.
         -6    1    1    2    0  502  0.24301421816E+02 -0.85658419942E+02 -0.15249174253E+03  0.24720569481E+03  0.17300000000E+03 0. -1.
<mgrwt>
<rscale>  2 0.19456856E+03</rscale>
<asrwt>0</asrwt>
<pdfrwt beam="1">  1       21 0.94269040E-02 0.19456856E+03</pdfrwt>
<pdfrwt beam="2">  1       21 0.13536199E+00 0.19456856E+03</pdfrwt>
<totfact> 0.35093698E+04</totfact>
</mgrwt>
</event>
<event>
 4    1  0.3950955E+000  0.2326938E+03  0.7546771E-02  0.1124758E+00
         21   -1    0    0  501  502  0.00000000000E+00  0.00000000000E+00  0.32070929274E+03  0.32070929274E+03  0.00000000000E+00 0.  1.
         21   -1    0    0  502  503 -0.00000000000E+00 -0.00000000000E+00 -0.17076828062E+03  0.17076828062E+03  0.00000000000E+00 0. -1.
          6    1    1    2  501    0 -0.14546312546E+03  0.55298341629E+02  0.10112833470E+03  0.25371907207E+03  0.17300000000E+03 0.  1.
         -6    1    1    2    0  503  0.14546312546E+03 -0.55298341629E+02  0.48812677420E+02  0.23775850128E+03  0.17300000000E+03 0. -1.
<mgrwt>
<rscale>  2 0.23269385E+03</rscale>
<asrwt>0</asrwt>
<pdfrwt beam="1">  1       21 0.49339891E-01 0.23269385E+03</pdfrwt>
<pdfrwt beam="2">  1       21 0.26272043E-01 0.23269385E+03</pdfrwt>
<totfact> 0.52983713E+04</totfact>
</mgrwt>
</event>
<event>
 4    1  0.3950955E+000  0.1737898E+03  0.7546771E-02  0.1173952E+00
         21   -1    0    0  503  502  0.00000000000E+00  0.00000000000E+00  0.24616659835E+03  0.24616659835E+03  0.00000000000E+00 0.  1.
         21   -1    0    0  501  503 -0.00000000000E+00 -0.00000000000E+00 -0.12285672370E+03  0.12285672370E+03  0.00000000000E+00 0.  1.
          6    1    1    2  501    0  0.56220773353E+01  0.15565344216E+02  0.68393166529E+02  0.18676325367E+03  0.17300000000E+03 0.  1.
         -6    1    1    2    0  502 -0.56220773353E+01 -0.15565344216E+02  0.54916708124E+02  0.18226006838E+03  0.17300000000E+03 0.  1.
<mgrwt>
<rscale>  2 0.17378978E+03</rscale>
<asrwt>0</asrwt>
<pdfrwt beam="1">  1       21 0.37871784E-01 0.17378978E+03</pdfrwt>
<pdfrwt beam="2">  1       21 0.18901034E-01 0.17378978E+03</pdfrwt>
<totfact> 0.17344249E+05</totfact>
</mgrwt>
</event>
<event>
 4    1  0.3950955E+000  0.1732921E+03  0.7546771E-02  0.1174458E+00
         21   -1    0    0  501  502  0.00000000000E+00  0.00000000000E+00  0.85219712399E+02  0.85219712399E+02  0.00000000000E+00 0.  1.
         21   -1    0    0  502  503 -0.00000000000E+00 -0.00000000000E+00 -0.37961980966E+03  0.37961980966E+03  0.00000000000E+00 0.  1.
          6    1    1    2  501    0 -0.63327786571E+01  0.78125149776E+01 -0.84946857349E+02  0.19299250775E+03  0.17300000000E+03 0.  1.
         -6    1    1    2    0  503  0.63327786571E+01 -0.78125149776E+01 -0.20945323991E+03  0.27184701430E+03  0.17300000000E+03 0.  1.
<mgrwt>
<rscale>  2 0.17329206E+03</rscale>
<asrwt>0</asrwt>
<pdfrwt beam="1">  1       21 0.13110725E-01 0.17329206E+03</pdfrwt>
<pdfrwt beam="2">  1       21 0.58403047E-01 0.17329206E+03</pdfrwt>
<totfact> 0.13835338E+05</totfact>
</mgrwt>
</event>
<event>
 4    1  0.3950955E+000  0.2954275E+03  0.7546771E-02  0.1087549E+00
         21   -1    0    0  501  502  0.00000000000E+00  0.00000000000E+00  0.62310424884E+02  0.62310424884E+02  0.00000000000E+00 0. -1.
         21   -1    0    0  502  503 -0.00000000000E+00 -0.00000000000E+00 -0.14166668873E+04  0.14166668873E+04  0.00000000000E+00 0. -1.
          6    1    1    2  501    0 -0.23946730614E+03 -0.19498287367E+01 -0.75571745128E+03  0.81141004351E+03  0.17300000000E+03 0. -1.
         -6    1    1    2    0  503  0.23946730614E+03  0.19498287367E+01 -0.59863901110E+03  0.66756726864E+03  0.17300000000E+03 0. -1.
<mgrwt>
<rscale>  2 0.29542747E+03</rscale>
<asrwt>0</asrwt>
<pdfrwt beam="1">  1       21 0.95862195E-02 0.29542747E+03</pdfrwt>
<pdfrwt beam="2">  1       21 0.21794875E+00 0.29542747E+03</pdfrwt>
<totfact> 0.83960685E+03</totfact>
</mgrwt>
</event>
<event>
 4    1  0.3950955E+000  0.1782368E+03  0.7546771E-02  0.1169520E+00
         21   -1    0    0  503  502  0.00000000000E+00  0.00000000000E+00  0.35079587110E+03  0.35079587110E+03  0.00000000000E+00 0.  1.
         21   -1    0    0  501  503 -0.00000000000E+00 -0.00000000000E+00 -0.92227121653E+02  0.92227121653E+02  0.00000000000E+00 0.  1.
          6    1    1    2  501    0 -0.51796982716E+01  0.42573693668E+02  0.15905915824E+03  0.23888943988E+03  0.17300000000E+03 0. -1.
         -6    1    1    2    0  502  0.51796982716E+01 -0.42573693668E+02  0.99509591213E+02  0.20413355288E+03  0.17300000000E+03 0. -1.
<mgrwt>
<rscale>  2 0.17823678E+03</rscale>
<asrwt>0</asrwt>
<pdfrwt beam="1">  1       21 0.53968595E-01 0.17823678E+03</pdfrwt>
<pdfrwt beam="2">  1       21 0.14188788E-01 0.17823678E+03</pdfrwt>
<totfact> 0.14157283E+05</totfact>
</mgrwt>
</event>
<event>
 4    1  0.3950955E+000  0.2312815E+03  0.7546771E-02  0.1125741E+00
         21   -1    0    0  503  502  0.00000000000E+00  0.00000000000E+00  0.67130481165E+03  0.67130481165E+03  0.00000000000E+00 0. -1.
         21   -1    0    0  501  503 -0.00000000000E+00 -0.00000000000E+00 -0.10343413031E+03  0.10343413031E+03  0.00000000000E+00 0. -1.
          6    1    1    2  501    0  0.15335940117E+03 -0.65581895903E+01  0.98308002072E+02  0.25130773774E+03  0.17300000000E+03 0. -1.
         -6    1    1    2    0  502 -0.15335940117E+03  0.65581895903E+01  0.46956267927E+03  0.52343120422E+03  0.17300000000E+03 0. -1.
<mgrwt>
<rscale>  2 0.23128146E+03</rscale>
<asrwt>0</asrwt>
<pdfrwt beam="1">  1       21 0.10327766E+00 0.23128146E+03</pdfrwt>
<pdfrwt beam="2">  1       21 0.15912944E-01 0.23128146E+03</pdfrwt>
<totfact> 0.26197534E+04</totfact>
</mgrwt>
</event>
<event>
 4    1  0.3950955E+000  0.3495547E+03  0.7546771E-02  0.1062798E+00
         21   -1    0    0  501  502  0.00000000000E+00  0.00000000000E+00  0.15383049243E+03  0.15383049243E+03  0.00000000000E+00 0. -1.
         21   -1    0    0  502  503 -0.00000000000E+00 -0.00000000000E+00 -0.10870239180E+04  0.10870239180E+04  0.00000000000E+00 0.  1.
          6    1    1    2  501    0 -0.12842395545E+03 -0.27525763223E+03 -0.14464112352E+03  0.37829820386E+03  0.17300000000E+03 0. -1.
         -6    1    1    2    0  503  0.12842395545E+03  0.27525763223E+03 -0.78855230203E+03  0.86255620656E+03  0.17300000000E+03 0.  1.
<mgrwt>
<rscale>  2 0.34955468E+03</rscale>
<asrwt>0</asrwt>
<pdfrwt beam="1">  1       21 0.23666230E-01 0.34955468E+03</pdfrwt>
<pdfrwt beam="2">  1       21 0.16723445E+00 0.34955468E+03</pdfrwt>
<totfact> 0.33748723E+03</totfact>
</mgrwt>
</event>
<event>
 4    1  0.3950955E+000  0.3504811E+03  0.7546771E-02  0.1062418E+00
         21   -1    0    0  501  502  0.00000000000E+00  0.00000000000E+00  0.26955067480E+03  0.26955067480E+03  0.00000000000E+00 0.  1.
         21   -1    0    0  502  503 -0.00000000000E+00 -0.00000000000E+00 -0.50832319450E+03  0.50832319450E+03  0.00000000000E+00 0. -1.
          6    1    1    2  501    0 -0.30401470074E+03 -0.21978124302E+02  0.57421641338E+01  0.35052809967E+03  0.17300000000E+03 0. -1.
         -6    1    1    2    0  503  0.30401470074E+03  0.21978124302E+02 -0.24451468384E+03  0.42734576963E+03  0.17300000000E+03 0.  1.
<mgrwt>
<rscale>  2 0.35048106E+03</rscale>
<asrwt>0</asrwt>
<pdfrwt beam="1">  1       21 0.41469335E-01 0.35048106E+03</pdfrwt>
<pdfrwt beam="2">  1       21 0.78203567E-01 0.35048106E+03</pdfrwt>
<totfact> 0.74390404E+03</totfact>
</mgrwt>
</event>
<event>
 4    1  0.3950955E+000  0.2264234E+03  0.7546771E-02  0.1129183E+00
         21   -1    0    0  501  502  0.00000000000E+00  0.00000000000E+00  0.25628099635E+03  0.25628099635E+03  0.00000000000E+00 0.  1.
         21   -1    0    0  502  503 -0.00000000000E+00 -0.00000000000E+00 -0.20568034151E+03  0.20568034151E+03  0.00000000000E+00 0.  1.
          6    1    1    2  501    0  0.47342691900E+02  0.13819277806E+03  0.63535499291E+02  0.23516873528E+03  0.17300000000E+03 0.  1.
         -6    1    1    2    0  503 -0.47342691900E+02 -0.13819277806E+03 -0.12934844445E+02  0.22679260258E+03  0.17300000000E+03 0.  1.
<mgrwt>
<rscale>  2 0.22642344E+03</rscale>
<asrwt>0</asrwt>
<pdfrwt beam="1">  1       21 0.39427845E-01 0.22642344E+03</pdfrwt>
<pdfrwt beam="2">  1       21 0.31643130E-01 0.22642344E+03</pdfrwt>
<totfact> 0.58645779E+04</totfact>
</mgrwt>
</event>
<event>
 4    1  0.3950955E+000  0.2273618E+03  0.7546771E-02  0.1128511E+00
         21   -1    0    0  503  502  0.00000000000E+00  0.00000000000E+00  0.19669511174E+03  0.19669511174E+03  0.00000000000E+00 0. -1.
         21   -1    0    0  501  503 -0.00000000000E+00 -0.00000000000E+00 -0.72757641854E+03  0.72757641854E+03  0.00000000000E+00 0. -1.
          6    1    1    2  501    0  0.41128000030E+02 -0.14167874138E+03 -0.63479889649E+03  0.67428704358E+03  0.17300000000E+03 0. -1.
         -6    1    1    2    0  502 -0.41128000030E+02  0.14167874138E+03  0.10391758969E+03  0.24998448671E+03  0.17300000000E+03 0. -1.
<mgrwt>
<rscale>  2 0.22736178E+03</rscale>
<asrwt>0</asrwt>
<pdfrwt beam="1">  1       21 0.30260787E-01 0.22736178E+03</pdfrwt>
<pdfrwt beam="2">  1       21 0.11193483E+00 0.22736178E+03</pdfrwt>
<totfact> 0.63954186E+03</totfact>
</mgrwt>
</event>
<event>
 4    1  0.3950955E+000  0.2665567E+03  0.7546771E-02  0.1103267E+00
         21   -1    0    0  503  502  0.00000000000E+00  0.00000000000E+00  0.24096025762E+03  0.24096025762E+03  0.00000000000E+00 0.  1.
         21   -1    0    0  501  503 -0.00000000000E+00 -0.00000000000E+00 -0.70259602235E+03  0.70259602235E+03  0.00000000000E+00 0. -1.
          6    1    1    2  501    0  0.19713574277E+03  0.47549435347E+02 -0.59020961571E+03  0.64761087110E+03  0.17300000000E+03 0. -1.
         -6    1    1    2    0  502 -0.19713574277E+03 -0.47549435347E+02  0.12857385098E+03  0.29594540888E+03  0.17300000000E+03 0.  1.
<mgrwt>
<rscale>  2 0.26655665E+03</rscale>
<asrwt>0</asrwt>
<pdfrwt beam="1">  1       21 0.37070810E-01 0.26655665E+03</pdfrwt>
<pdfrwt beam="2">  1       21 0.10809169E+00 0.26655665E+03</pdfrwt>
<totfact> 0.45392358E+03</totfact>
</mgrwt>
</event>
<event>
 4    1  0.3950955E+000  0.1741566E+03  0.7546771E-02  0.1173581E+00
         21   -1    0    0  501  502  0.00000000000E+00  0.00000000000E+00  0.13116816360E+04  0.13116816360E+04  0.00000000000E+00 0.  1.
         21   -1    0    0  502  503 -0.00000000000E+00 -0.00000000000E+00 -0.25328231814E+02  0.25328231814E+02  0.00000000000E+00 0.  1.
          6    1    1    2  501    0 -0.10547055938E+02 -0.17037205050E+02  0.84041549991E+03  0.85827077268E+03  0.17300000000E+03 0.  1.
         -6    1    1    2    0  503  0.10547055938E+02  0.17037205050E+02  0.44593790432E+03  0.47873909518E+03  0.17300000000E+03 0.  1.
<mgrwt>
<rscale>  2 0.17415656E+03</rscale>
<asrwt>0</asrwt>
<pdfrwt beam="1">  1       21 0.20179712E+00 0.17415656E+03</pdfrwt>
<pdfrwt beam="2">  1       21 0.38966521E-02 0.17415656E+03</pdfrwt>
<totfact> 0.54194238E+04</totfact>
</mgrwt>
</event>
<event>
 4    1  0.3950955E+000  0.2469183E+03  0.7546771E-02  0.1115268E+00
         21   -1    0    0  501  502  0.00000000000E+00  0.00000000000E+00  0.44288279643E+03  0.44288279643E+03  0.00000000000E+00 0. -1.
         21   -1    0    0  502  503 -0.00000000000E+00 -0.00000000000E+00 -0.15518096054E+03  0.15518096054E+03  0.00000000000E+00 0.  1.
          6    1    1    2  501    0 -0.11262487937E+03 -0.13548158822E+03  0.24432143778E+03  0.34736377065E+03  0.17300000000E+03 0.  1.
         -6    1    1    2    0  503  0.11262487937E+03  0.13548158822E+03  0.43380398111E+02  0.25069998632E+03  0.17300000000E+03 0.  1.
<mgrwt>
<rscale>  2 0.24691825E+03</rscale>
<asrwt>0</asrwt>
<pdfrwt beam="1">  1       21 0.68135814E-01 0.24691825E+03</pdfrwt>
<pdfrwt beam="2">  1       21 0.23873994E-01 0.24691825E+03</pdfrwt>
<totfact> 0.31640487E+04</totfact>
</mgrwt>
</event>
<event>
 4    1  0.3950955E+000  0.1906088E+03  0.7546771E-02  0.1157913E+00
         21   -1    0    0  501  502  0.00000000000E+00  0.00000000000E+00  0.89411253249E+02  0.89411253249E+02  0.00000000000E+00 0. -1.
         21   -1    0    0  502  503 -0.00000000000E+00 -0.00000000000E+00 -0.50145165560E+03  0.50145165560E+03  0.00000000000E+00 0. -1.
          6    1    1    2  501    0  0.68222463665E+02 -0.41813956359E+02 -0.77358196507E+02  0.20570853668E+03  0.17300000000E+03 0. -1.
         -6    1    1    2    0  503 -0.68222463665E+02  0.41813956359E+02 -0.33468220584E+03  0.38515437217E+03  0.17300000000E+03 0. -1.
<mgrwt>
<rscale>  2 0.19060879E+03</rscale>
<asrwt>0</asrwt>
<pdfrwt beam="1">  1       21 0.13755578E-01 0.19060879E+03</pdfrwt>
<pdfrwt beam="2">  1       21 0.77146407E-01 0.19060879E+03</pdfrwt>
<totfact> 0.68580226E+04</totfact>
</mgrwt>
</event>
<event>
 4    1  0.3950955E+000  0.2023866E+03  0.7546771E-02  0.1147741E+00
         21   -1    0    0  501  502  0.00000000000E+00  0.00000000000E+00  0.70291960790E+03  0.70291960790E+03  0.00000000000E+00 0. -1.
         21   -1    0    0  502  503 -0.00000000000E+00 -0.00000000000E+00 -0.15139980613E+03  0.15139980613E+03  0.00000000000E+00 0. -1.
          6    1    1    2  501    0  0.85676376776E+02 -0.60752829748E+02  0.61077772630E+03  0.64343591662E+03  0.17300000000E+03 0. -1.
         -6    1    1    2    0  503 -0.85676376776E+02  0.60752829748E+02 -0.59257924521E+02  0.21088349741E+03  0.17300000000E+03 0. -1.
<mgrwt>
<rscale>  2 0.20238663E+03</rscale>
<asrwt>0</asrwt>
<pdfrwt beam="1">  1       21 0.10814148E+00 0.20238663E+03</pdfrwt>
<pdfrwt beam="2">  1       21 0.23292278E-01 0.20238663E+03</pdfrwt>
<totfact> 0.11714165E+04</totfact>
</mgrwt>
</event>
<event>
 4    1  0.3950955E+000  0.2335539E+03  0.7546771E-02  0.1124163E+00
         21   -1    0    0  501  502  0.00000000000E+00  0.00000000000E+00  0.56597952935E+02  0.56597952935E+02  0.00000000000E+00 0. -1.
         21   -1    0    0  502  503 -0.00000000000E+00 -0.00000000000E+00 -0.10507134375E+04  0.10507134375E+04  0.00000000000E+00 0. -1.
          6    1    1    2  501    0  0.81876196818E+02 -0.13384585975E+03 -0.65632089032E+03  0.69663802426E+03  0.17300000000E+03 0. -1.
         -6    1    1    2    0  503 -0.81876196818E+02  0.13384585975E+03 -0.33779459422E+03  0.41067336614E+03  0.17300000000E+03 0. -1.
<mgrwt>
<rscale>  2 0.23355390E+03</rscale>
<asrwt>0</asrwt>
<pdfrwt beam="1">  1       21 0.87073771E-02 0.23355390E+03</pdfrwt>
<pdfrwt beam="2">  1       21 0.16164823E+00 0.23355390E+03</pdfrwt>
<totfact> 0.24696838E+04</totfact>
</mgrwt>
</event>
<event>
 4    1  0.3950955E+000  0.2917988E+03  0.7546771E-02  0.1089414E+00
         21   -1    0    0  503  502  0.00000000000E+00  0.00000000000E+00  0.87758555673E+02  0.87758555673E+02  0.00000000000E+00 0.  1.
         21   -1    0    0  501  503 -0.00000000000E+00 -0.00000000000E+00 -0.11661987034E+04  0.11661987034E+04  0.00000000000E+00 0.  1.
          6    1    1    2  501    0 -0.12576482696E+03 -0.19849623681E+03 -0.28220849116E+03  0.40594110437E+03  0.17300000000E+03 0.  1.
         -6    1    1    2    0  502  0.12576482696E+03  0.19849623681E+03 -0.79623165660E+03  0.84801615474E+03  0.17300000000E+03 0.  1.
<mgrwt>
<rscale>  2 0.29179881E+03</rscale>
<asrwt>0</asrwt>
<pdfrwt beam="1">  1       21 0.13501316E-01 0.29179881E+03</pdfrwt>
<pdfrwt beam="2">  1       21 0.17941518E+00 0.29179881E+03</pdfrwt>
<totfact> 0.81476119E+03</totfact>
</mgrwt>
</event>
<event>
 4    1  0.3950955E+000  0.2590957E+03  0.7546771E-02  0.1107688E+00
         21   -1    0    0  501  502  0.00000000000E+00  0.00000000000E+00  0.63110837897E+03  0.63110837897E+03  0.00000000000E+00 0. -1.
         21   -1    0    0  502  503 -0.00000000000E+00 -0.00000000000E+00 -0.10672577660E+03  0.10672577660E+03  0.00000000000E+00 0.  1.
          6    1    1    2  501    0 -0.11223042450E+03  0.15686273609E+03  0.24087160657E+03  0.35376505906E+03  0.17300000000E+03 0.  1.
         -6    1    1    2    0  503  0.11223042450E+03 -0.15686273609E+03  0.28351099580E+03  0.38406909651E+03  0.17300000000E+03 0. -1.
<mgrwt>
<rscale>  2 0.25909571E+03</rscale>
<asrwt>0</asrwt>
<pdfrwt beam="1">  1       21 0.97093595E-01 0.25909571E+03</pdfrwt>
<pdfrwt beam="2">  1       21 0.16419351E-01 0.25909571E+03</pdfrwt>
<totfact> 0.28283212E+04</totfact>
</mgrwt>
</event>
<event>
 4    1  0.3950955E+000  0.2133499E+03  0.7546771E-02  0.1138940E+00
         21   -1    0    0  501  502  0.00000000000E+00  0.00000000000E+00  0.89844334452E+03  0.89844334452E+03  0.00000000000E+00 0. -1.
         21   -1    0    0  502  503 -0.00000000000E+00 -0.00000000000E+00 -0.28075598508E+03  0.28075598508E+03  0.00000000000E+00 0. -1.
          6    1    1    2  501    0  0.73868250104E+02  0.10066109069E+03  0.84260125297E+03  0.86919217959E+03  0.17300000000E+03 0. -1.
         -6    1    1    2    0  503 -0.73868250104E+02 -0.10066109069E+03 -0.22491389353E+03  0.31000715000E+03  0.17300000000E+03 0. -1.
<mgrwt>
<rscale>  2 0.21334989E+03</rscale>
<asrwt>0</asrwt>
<pdfrwt beam="1">  1       21 0.13822205E+00 0.21334989E+03</pdfrwt>
<pdfrwt beam="2">  1       21 0.43193229E-01 0.21334989E+03</pdfrwt>
<totfact> 0.18697432E+03</totfact>
</mgrwt>
</event>
<event>
 4    1  0.3950955E+000  0.1837818E+03  0.7546771E-02  0.1164192E+00
         21   -1    0    0  503  502  0.00000000000E+00  0.00000000000E+00  0.25334685043E+04  0.25334685043E+04  0.00000000000E+00 0. -1.
         21   -1    0    0  501  503 -0.00000000000E+00 -0.00000000000E+00 -0.14779248836E+02  0.14779248836E+02  0.00000000000E+00 0. -1.
          6    1    1    2  501    0 -0.18927982553E+02 -0.59063412013E+02  0.86061037402E+03  0.88001475615E+03  0.17300000000E+03 0. -1.
         -6    1    1    2    0  502  0.18927982553E+02  0.59063412013E+02  0.16580788815E+04  0.16682329970E+04  0.17300000000E+03 0. -1.
<mgrwt>
<rscale>  2 0.18378181E+03</rscale>
<asrwt>0</asrwt>
<pdfrwt beam="1">  1       21 0.38976404E+00 0.18378181E+03</pdfrwt>
<pdfrwt beam="2">  1       21 0.22737326E-02 0.18378181E+03</pdfrwt>
<totfact> 0.10180400E+04</totfact>
</mgrwt>
</event>
<event>
 4    1  0.3950955E+000  0.2236011E+03  0.7546771E-02  0.1131226E+00
         21   -1    0    0  503  502  0.00000000000E+00  0.00000000000E+00  0.12404353706E+04  0.12404353706E+04  0.00000000000E+00 0. -1.
         21   -1    0    0  501  503 -0.00000000000E+00 -0.00000000000E+00 -0.87117556030E+02  0.87117556030E+02  0.00000000000E+00 0.  1.
          6    1    1    2  501    0  0.11781265316E+03 -0.78667984467E+02  0.10632271188E+04  0.10864848730E+04  0.17300000000E+03 0. -1.
         -6    1    1    2    0  502 -0.11781265316E+03  0.78667984467E+02  0.90090695740E+02  0.24106805364E+03  0.17300000000E+03 0. -1.
<mgrwt>
<rscale>  2 0.22360115E+03</rscale>
<asrwt>0</asrwt>
<pdfrwt beam="1">  1       21 0.19083620E+00 0.22360115E+03</pdfrwt>
<pdfrwt beam="2">  1       21 0.13402702E-01 0.22360115E+03</pdfrwt>
<totfact> 0.72229058E+03</totfact>
</mgrwt>
</event>
<event>
 4    1  0.3950955E+000  0.2869547E+03  0.7546771E-02  0.1091950E+00
         21   -1    0    0  501  502  0.00000000000E+00  0.00000000000E+00  0.42798251200E+03  0.42798251200E+03  0.00000000000E+00 0.  1.
         21   -1    0    0  502  503 -0.00000000000E+00 -0.00000000000E+00 -0.30205573635E+03  0.30205573635E+03  0.00000000000E+00 0. -1.
          6    1    1    2  501    0 -0.35030815070E+02 -0.22624509105E+03 -0.15697023142E+03  0.32708202760E+03  0.17300000000E+03 0.  1.
         -6    1    1    2    0  503  0.35030815070E+02  0.22624509105E+03  0.28289700707E+03  0.40295622074E+03  0.17300000000E+03 0. -1.
<mgrwt>
<rscale>  2 0.28695470E+03</rscale>
<asrwt>0</asrwt>
<pdfrwt beam="1">  1       21 0.65843464E-01 0.28695470E+03</pdfrwt>
<pdfrwt beam="2">  1       21 0.46470113E-01 0.28695470E+03</pdfrwt>
<totfact> 0.88903000E+03</totfact>
</mgrwt>
</event>
<event>
 4    1  0.3950955E+000  0.2061563E+03  0.7546771E-02  0.1144646E+00
         21   -1    0    0  503  502  0.00000000000E+00  0.00000000000E+00  0.29404583551E+03  0.29404583551E+03  0.00000000000E+00 0.  1.
         21   -1    0    0  501  503 -0.00000000000E+00 -0.00000000000E+00 -0.15653265873E+03  0.15653265873E+03  0.00000000000E+00 0.  1.
          6    1    1    2  501    0 -0.85856635661E+02  0.72111387346E+02  0.13112368169E+03  0.24432321619E+03  0.17300000000E+03 0.  1.
         -6    1    1    2    0  502  0.85856635661E+02 -0.72111387346E+02  0.63894950935E+01  0.20625527804E+03  0.17300000000E+03 0.  1.
<mgrwt>
<rscale>  2 0.20615629E+03</rscale>
<asrwt>0</asrwt>
<pdfrwt beam="1">  1       21 0.45237821E-01 0.20615629E+03</pdfrwt>
<pdfrwt beam="2">  1       21 0.24081947E-01 0.20615629E+03</pdfrwt>
<totfact> 0.75800830E+04</totfact>
</mgrwt>
</event>
<event>
 4    1  0.3950955E+000  0.2114533E+03  0.7546771E-02  0.1140420E+00
         21   -1    0    0  503  502  0.00000000000E+00  0.00000000000E+00  0.61848179416E+02  0.61848179416E+02  0.00000000000E+00 0. -1.
         21   -1    0    0  501  503 -0.00000000000E+00 -0.00000000000E+00 -0.17078029250E+04  0.17078029250E+04  0.00000000000E+00 0.  1.
          6    1    1    2  501    0 -0.20182468432E+02 -0.11990068305E+03 -0.14949115543E+04  0.15097923900E+04  0.17300000000E+03 0.  1.
         -6    1    1    2    0  502  0.20182468432E+02  0.11990068305E+03 -0.15104319138E+03  0.25985871447E+03  0.17300000000E+03 0. -1.
<mgrwt>
<rscale>  2 0.21145332E+03</rscale>
<asrwt>0</asrwt>
<pdfrwt beam="1">  1       21 0.95151050E-02 0.21145332E+03</pdfrwt>
<pdfrwt beam="2">  1       21 0.26273890E+00 0.21145332E+03</pdfrwt>
<totfact> 0.48661466E+03</totfact>
</mgrwt>
</event>
<event>
 4    1  0.3950955E+000  0.1740386E+03  0.7546771E-02  0.1173701E+00
         21   -1    0    0  503  502  0.00000000000E+00  0.00000000000E+00  0.56761374177E+03  0.56761374177E+03  0.00000000000E+00 0. -1.
         21   -1    0    0  501  503 -0.00000000000E+00 -0.00000000000E+00 -0.79904146720E+02  0.79904146720E+02  0.00000000000E+00 0. -1.
          6    1    1    2  501    0  0.11368704633E+01 -0.18950870944E+02  0.57260213171E+02  0.18321615648E+03  0.17300000000E+03 0. -1.
         -6    1    1    2    0  502 -0.11368704633E+01  0.18950870944E+02  0.43044938188E+03  0.46430173201E+03  0.17300000000E+03 0. -1.
<mgrwt>
<rscale>  2 0.17403858E+03</rscale>
<asrwt>0</asrwt>
<pdfrwt beam="1">  1       21 0.87325188E-01 0.17403858E+03</pdfrwt>
<pdfrwt beam="2">  1       21 0.12292946E-01 0.17403858E+03</pdfrwt>
<totfact> 0.63849118E+04</totfact>
</mgrwt>
</event>
<event>
 4    1  0.3950955E+000  0.1973634E+03  0.7546771E-02  0.1151983E+00
         21   -1    0    0  503  502  0.00000000000E+00  0.00000000000E+00  0.13084933176E+04  0.13084933176E+04  0.00000000000E+00 0.  1.
         21   -1    0    0  501  503 -0.00000000000E+00 -0.00000000000E+00 -0.44518740172E+02  0.44518740172E+02  0.00000000000E+00 0.  1.
          6    1    1    2  501    0  0.13077601341E+02  0.94086681081E+02  0.24258832616E+03  0.31273219086E+03  0.17300000000E+03 0.  1.
         -6    1    1    2    0  502 -0.13077601341E+02 -0.94086681081E+02  0.10213862513E+04  0.10402798669E+04  0.17300000000E+03 0.  1.
<mgrwt>
<rscale>  2 0.19736344E+03</rscale>
<asrwt>0</asrwt>
<pdfrwt beam="1">  1       21 0.20130663E+00 0.19736344E+03</pdfrwt>
<pdfrwt beam="2">  1       21 0.68490380E-02 0.19736344E+03</pdfrwt>
<totfact> 0.20612571E+04</totfact>
</mgrwt>
</event>
<event>
 4    1  0.3950955E+000  0.2786432E+03  0.7546771E-02  0.1096432E+00
         21   -1    0    0  501  502  0.00000000000E+00  0.00000000000E+00  0.80598590382E+02  0.80598590382E+02  0.00000000000E+00 0.  1.
         21   -1    0    0  502  503 -0.00000000000E+00 -0.00000000000E+00 -0.12318138213E+04  0.12318138213E+04  0.00000000000E+00 0. -1.
          6    1    1    2  501    0 -0.21839699447E+03 -0.39751306062E+01 -0.26924426983E+03  0.38747196762E+03  0.17300000000E+03 0. -1.
         -6    1    1    2    0  503  0.21839699447E+03  0.39751306062E+01 -0.88197096106E+03  0.92494044403E+03  0.17300000000E+03 0. -1.
<mgrwt>
<rscale>  2 0.27864323E+03</rscale>
<asrwt>0</asrwt>
<pdfrwt beam="1">  1       21 0.12399785E-01 0.27864323E+03</pdfrwt>
<pdfrwt beam="2">  1       21 0.18950979E+00 0.27864323E+03</pdfrwt>
<totfact> 0.81755784E+03</totfact>
</mgrwt>
</event>
<event>
 4    1  0.3950955E+000  0.1787355E+03  0.7546771E-02  0.1169032E+00
         21   -1    0    0  503  502  0.00000000000E+00  0.00000000000E+00  0.18673843001E+03  0.18673843001E+03  0.00000000000E+00 0.  1.
         21   -1    0    0  501  503 -0.00000000000E+00 -0.00000000000E+00 -0.31993047144E+03  0.31993047144E+03  0.00000000000E+00 0.  1.
          6    1    1    2  501    0  0.23570441996E+02  0.38233807530E+02 -0.23939770442E+03  0.29876018921E+03  0.17300000000E+03 0.  1.
         -6    1    1    2    0  502 -0.23570441996E+02 -0.38233807530E+02  0.10620566300E+03  0.20790871224E+03  0.17300000000E+03 0.  1.
<mgrwt>
<rscale>  2 0.17873553E+03</rscale>
<asrwt>0</asrwt>
<pdfrwt beam="1">  1       21 0.28728989E-01 0.17873553E+03</pdfrwt>
<pdfrwt beam="2">  1       21 0.49220073E-01 0.17873553E+03</pdfrwt>
<totfact> 0.45948599E+04</totfact>
</mgrwt>
</event>
<event>
 4    1  0.3950955E+000  0.2718513E+03  0.7546771E-02  0.1100225E+00
         21   -1    0    0  503  502  0.00000000000E+00  0.00000000000E+00  0.90049307734E+03  0.90049307734E+03  0.00000000000E+00 0.  1.
         21   -1    0    0  501  503 -0.00000000000E+00 -0.00000000000E+00 -0.82250417418E+02  0.82250417418E+02  0.00000000000E+00 0. -1.
          6    1    1    2  501    0  0.20969867056E+03 -0.77906636380E+00  0.38608477036E+03  0.47219126346E+03  0.17300000000E+03 0. -1.
         -6    1    1    2    0  502 -0.20969867056E+03  0.77906636380E+00  0.43215788956E+03  0.51055223130E+03  0.17300000000E+03 0.  1.
<mgrwt>
<rscale>  2 0.27185132E+03</rscale>
<asrwt>0</asrwt>
<pdfrwt beam="1">  1       21 0.13853739E+00 0.27185132E+03</pdfrwt>
<pdfrwt beam="2">  1       21 0.12653911E-01 0.27185132E+03</pdfrwt>
<totfact> 0.18740252E+04</totfact>
</mgrwt>
</event>
<event>
 4    1  0.3950955E+000  0.2105562E+03  0.7546771E-02  0.1141126E+00
         21   -1    0    0  503  502  0.00000000000E+00  0.00000000000E+00  0.11166641441E+03  0.11166641441E+03  0.00000000000E+00 0.  1.
         21   -1    0    0  501  503 -0.00000000000E+00 -0.00000000000E+00 -0.10191000478E+04  0.10191000478E+04  0.00000000000E+00 0. -1.
          6    1    1    2  501    0 -0.11010685816E+03 -0.47763913578E+02 -0.89544722745E+03  0.91986936508E+03  0.17300000000E+03 0. -1.
         -6    1    1    2    0  502  0.11010685816E+03  0.47763913578E+02 -0.11986405947E+02  0.21089709714E+03  0.17300000000E+03 0.  1.
<mgrwt>
<rscale>  2 0.21055620E+03</rscale>
<asrwt>0</asrwt>
<pdfrwt beam="1">  1       21 0.17179448E-01 0.21055620E+03</pdfrwt>
<pdfrwt beam="2">  1       21 0.15678463E+00 0.21055620E+03</pdfrwt>
<totfact> 0.80210887E+03</totfact>
</mgrwt>
</event>
<event>
 4    1  0.3950955E+000  0.1853908E+03  0.7546771E-02  0.1162685E+00
         21   -1    0    0  503  502  0.00000000000E+00  0.00000000000E+00  0.78512398535E+03  0.78512398535E+03  0.00000000000E+00 0. -1.
         21   -1    0    0  501  503 -0.00000000000E+00 -0.00000000000E+00 -0.46831700138E+02  0.46831700138E+02  0.00000000000E+00 0. -1.
          6    1    1    2  501    0  0.30973999718E+02  0.59003114152E+02  0.47539893349E+03  0.51026846082E+03  0.17300000000E+03 0. -1.
         -6    1    1    2    0  502 -0.30973999718E+02 -0.59003114152E+02  0.26289335172E+03  0.32168722467E+03  0.17300000000E+03 0. -1.
<mgrwt>
<rscale>  2 0.18539082E+03</rscale>
<asrwt>0</asrwt>
<pdfrwt beam="1">  1       21 0.12078830E+00 0.18539082E+03</pdfrwt>
<pdfrwt beam="2">  1       21 0.72048776E-02 0.18539082E+03</pdfrwt>
<totfact> 0.75026347E+04</totfact>
</mgrwt>
</event>
<event>
 4    1  0.3950955E+000  0.1838964E+03  0.7546771E-02  0.1164085E+00
         21   -1    0    0  503  502  0.00000000000E+00  0.00000000000E+00  0.52420704480E+03  0.52420704480E+03  0.00000000000E+00 0.  1.
         21   -1    0    0  501  503 -0.00000000000E+00 -0.00000000000E+00 -0.12956497571E+03  0.12956497571E+03  0.00000000000E+00 0. -1.
          6    1    1    2  501    0 -0.69602281104E+01  0.61971200176E+02 -0.34303546808E+02  0.18706845739E+03  0.17300000000E+03 0. -1.
         -6    1    1    2    0  502  0.69602281104E+01 -0.61971200176E+02  0.42894561591E+03  0.46670356312E+03  0.17300000000E+03 0.  1.
<mgrwt>
<rscale>  2 0.18389637E+03</rscale>
<asrwt>0</asrwt>
<pdfrwt beam="1">  1       21 0.80647237E-01 0.18389637E+03</pdfrwt>
<pdfrwt beam="2">  1       21 0.19933073E-01 0.18389637E+03</pdfrwt>
<totfact> 0.31518973E+04</totfact>
</mgrwt>
</event>
<event>
 4    1  0.3950955E+000  0.2508543E+03  0.7546771E-02  0.1112766E+00
         21   -1    0    0  503  502  0.00000000000E+00  0.00000000000E+00  0.23467666644E+03  0.23467666644E+03  0.00000000000E+00 0.  1.
         21   -1    0    0  501  503 -0.00000000000E+00 -0.00000000000E+00 -0.32329078730E+03  0.32329078730E+03  0.00000000000E+00 0. -1.
          6    1    1    2  501    0 -0.18036458675E+03  0.21621506757E+02  0.70913505802E+02  0.26068486533E+03  0.17300000000E+03 0.  1.
         -6    1    1    2    0  502  0.18036458675E+03 -0.21621506757E+02 -0.15952762666E+03  0.29728258841E+03  0.17300000000E+03 0. -1.
<mgrwt>
<rscale>  2 0.25085429E+03</rscale>
<asrwt>0</asrwt>
<pdfrwt beam="1">  1       21 0.36104102E-01 0.25085429E+03</pdfrwt>
<pdfrwt beam="2">  1       21 0.49737044E-01 0.25085429E+03</pdfrwt>
<totfact> 0.27670497E+04</totfact>
</mgrwt>
</event>
<event>
 4    1  0.3950955E+000  0.1885398E+03  0.7546771E-02  0.1159785E+00
         21   -1    0    0  501  502  0.00000000000E+00  0.00000000000E+00  0.49923544890E+02  0.49923544890E+02  0.00000000000E+00 0.  1.
         21   -1    0    0  502  503 -0.00000000000E+00 -0.00000000000E+00 -0.94979664600E+03  0.94979664600E+03  0.00000000000E+00 0.  1.
          6    1    1    2  501    0  0.16113272333E+00  0.74954750148E+02 -0.19984135683E+03  0.27474316813E+03  0.17300000000E+03 0.  1.
         -6    1    1    2    0  503 -0.16113272333E+00 -0.74954750148E+02 -0.70003174428E+03  0.72497702276E+03  0.17300000000E+03 0.  1.
<mgrwt>
<rscale>  2 0.18853976E+03</rscale>
<asrwt>0</asrwt>
<pdfrwt beam="1">  1       21 0.76805457E-02 0.18853976E+03</pdfrwt>
<pdfrwt beam="2">  1       21 0.14612256E+00 0.18853976E+03</pdfrwt>
<totfact> 0.41337890E+04</totfact>
</mgrwt>
</event>
<event>
 4    1  0.3950955E+000  0.1758461E+03  0.7546771E-02  0.1171885E+00
         21   -1    0    0  501  502  0.00000000000E+00  0.00000000000E+00  0.68610862380E+03  0.68610862380E+03  0.00000000000E+00 0.  1.
         21   -1    0    0  502  503 -0.00000000000E+00 -0.00000000000E+00 -0.52032012955E+02  0.52032012955E+02  0.00000000000E+00 0.  1.
          6    1    1    2  501    0  0.43582182072E+01 -0.31206571245E+02  0.45205576264E+03  0.48505283907E+03  0.17300000000E+03 0.  1.
         -6    1    1    2    0  503 -0.43582182072E+01  0.31206571245E+02  0.18202084820E+03  0.25308779768E+03  0.17300000000E+03 0.  1.
<mgrwt>
<rscale>  2 0.17584608E+03</rscale>
<asrwt>0</asrwt>
<pdfrwt beam="1">  1       21 0.10555517E+00 0.17584608E+03</pdfrwt>
<pdfrwt beam="2">  1       21 0.80049255E-02 0.17584608E+03</pdfrwt>
<totfact> 0.87117326E+04</totfact>
</mgrwt>
</event>
<event>
 4    1  0.3950955E+000  0.2198417E+03  0.7546771E-02  0.1134001E+00
         21   -1    0    0  503  502  0.00000000000E+00  0.00000000000E+00  0.12989484461E+03  0.12989484461E+03  0.00000000000E+00 0. -1.
         21   -1    0    0  501  503 -0.00000000000E+00 -0.00000000000E+00 -0.38333399312E+03  0.38333399312E+03  0.00000000000E+00 0.  1.
          6    1    1    2  501    0 -0.30371032886E+01 -0.13561759316E+03 -0.17070229217E+03  0.27833366330E+03  0.17300000000E+03 0.  1.
         -6    1    1    2    0  502  0.30371032886E+01  0.13561759316E+03 -0.82736856341E+02  0.23489517443E+03  0.17300000000E+03 0.  1.
<mgrwt>
<rscale>  2 0.21984166E+03</rscale>
<asrwt>0</asrwt>
<pdfrwt beam="1">  1       21 0.19983823E-01 0.21984166E+03</pdfrwt>
<pdfrwt beam="2">  1       21 0.58974459E-01 0.21984166E+03</pdfrwt>
<totfact> 0.61398060E+04</totfact>
</mgrwt>
</event>
<event>
 4    1  0.3950955E+000  0.2025849E+03  0.7546771E-02  0.1147576E+00
         21   -1    0    0  501  502  0.00000000000E+00  0.00000000000E+00  0.15328150494E+03  0.15328150494E+03  0.00000000000E+00 0. -1.
         21   -1    0    0  502  503 -0.00000000000E+00 -0.00000000000E+00 -0.30982194423E+03  0.30982194423E+03  0.00000000000E+00 0. -1.
          6    1    1    2  501    0  0.99164984438E+02  0.35748665243E+02  0.70601782615E+01  0.20270793601E+03  0.17300000000E+03 0. -1.
         -6    1    1    2    0  503 -0.99164984438E+02 -0.35748665243E+02 -0.16360061756E+03  0.26039551315E+03  0.17300000000E+03 0. -1.
<mgrwt>
<rscale>  2 0.20258495E+03</rscale>
<asrwt>0</asrwt>
<pdfrwt beam="1">  1       21 0.23581770E-01 0.20258495E+03</pdfrwt>
<pdfrwt beam="2">  1       21 0.47664914E-01 0.20258495E+03</pdfrwt>
<totfact> 0.70925829E+04</totfact>
</mgrwt>
</event>
<event>
 4    1  0.3950955E+000  0.2491463E+03  0.7546771E-02  0.1113846E+00
         21   -1    0    0  503  502  0.00000000000E+00  0.00000000000E+00  0.66276845381E+03  0.66276845381E+03  0.00000000000E+00 0. -1.
         21   -1    0    0  501  503 -0.00000000000E+00 -0.00000000000E+00 -0.95436133425E+02  0.95436133425E+02  0.00000000000E+00 0. -1.
          6    1    1    2  501    0 -0.14439042302E+03  0.10628392135E+03  0.23192606940E+03  0.34038737912E+03  0.17300000000E+03 0. -1.
         -6    1    1    2    0  502  0.14439042302E+03 -0.10628392135E+03  0.33540625098E+03  0.41781720811E+03  0.17300000000E+03 0. -1.
<mgrwt>
<rscale>  2 0.24914627E+03</rscale>
<asrwt>0</asrwt>
<pdfrwt beam="1">  1       21 0.10196437E+00 0.24914627E+03</pdfrwt>
<pdfrwt beam="2">  1       21 0.14682483E-01 0.24914627E+03</pdfrwt>
<totfact> 0.31041684E+04</totfact>
</mgrwt>
</event>
<event>
 4    1  0.3950955E+000  0.2046134E+03  0.7546771E-02  0.1145904E+00
         21   -1    0    0  503  502  0.00000000000E+00  0.00000000000E+00  0.95737971962E+02  0.95737971962E+02  0.00000000000E+00 0.  1.
         21   -1    0    0  501  503 -0.00000000000E+00 -0.00000000000E+00 -0.54373833074E+03  0.54373833074E+03  0.00000000000E+00 0.  1.
          6    1    1    2  501    0  0.10925445661E+03  0.10561825599E+01 -0.36546198818E+03  0.41884259170E+03  0.17300000000E+03 0.  1.
         -6    1    1    2    0  502 -0.10925445661E+03 -0.10561825599E+01 -0.82538370592E+02  0.22063371100E+03  0.17300000000E+03 0.  1.
<mgrwt>
<rscale>  2 0.20461342E+03</rscale>
<asrwt>0</asrwt>
<pdfrwt beam="1">  1       21 0.14728919E-01 0.20461342E+03</pdfrwt>
<pdfrwt beam="2">  1       21 0.83652050E-01 0.20461342E+03</pdfrwt>
<totfact> 0.50097399E+04</totfact>
</mgrwt>
</event>
<event>
 4    1  0.3950955E+000  0.1846292E+03  0.7546771E-02  0.1163397E+00
         21   -1    0    0  501  502  0.00000000000E+00  0.00000000000E+00  0.51717720389E+02  0.51717720389E+02  0.00000000000E+00 0. -1.
         21   -1    0    0  502  503 -0.00000000000E+00 -0.00000000000E+00 -0.66450857258E+03  0.66450857258E+03  0.00000000000E+00 0. -1.
          6    1    1    2  501    0 -0.62251062409E+02 -0.16844569760E+02 -0.27413268918E+03  0.33050970573E+03  0.17300000000E+03 0. -1.
         -6    1    1    2    0  503  0.62251062409E+02  0.16844569760E+02 -0.33865816301E+03  0.38571658725E+03  0.17300000000E+03 0. -1.
<mgrwt>
<rscale>  2 0.18462918E+03</rscale>
<asrwt>0</asrwt>
<pdfrwt beam="1">  1       21 0.79565729E-02 0.18462918E+03</pdfrwt>
<pdfrwt beam="2">  1       21 0.10223208E+00 0.18462918E+03</pdfrwt>
<totfact> 0.94675175E+04</totfact>
</mgrwt>
</event>
<event>
 4    1  0.3950955E+000  0.1851772E+03  0.7546771E-02  0.1162884E+00
         21   -1    0    0  503  502  0.00000000000E+00  0.00000000000E+00  0.20850147353E+03  0.20850147353E+03  0.00000000000E+00 0.  1.
         21   -1    0    0  501  503 -0.00000000000E+00 -0.00000000000E+00 -0.19713327907E+03  0.19713327907E+03  0.00000000000E+00 0.  1.
          6    1    1    2  501    0 -0.10833074084E+02  0.65147946338E+02 -0.76882986738E+02  0.20050337667E+03  0.17300000000E+03 0.  1.
         -6    1    1    2    0  502  0.10833074084E+02 -0.65147946338E+02  0.88251181195E+02  0.20513137592E+03  0.17300000000E+03 0.  1.
<mgrwt>
<rscale>  2 0.18517724E+03</rscale>
<asrwt>0</asrwt>
<pdfrwt beam="1">  1       21 0.32077150E-01 0.18517724E+03</pdfrwt>
<pdfrwt beam="2">  1       21 0.30328197E-01 0.18517724E+03</pdfrwt>
<totfact> 0.97797276E+04</totfact>
</mgrwt>
</event>
<event>
 4    1  0.3950955E+000  0.2032022E+03  0.7546771E-02  0.1147065E+00
         21   -1    0    0  503  502  0.00000000000E+00  0.00000000000E+00  0.28766444418E+03  0.28766444418E+03  0.00000000000E+00 0. -1.
         21   -1    0    0  501  503 -0.00000000000E+00 -0.00000000000E+00 -0.32403961151E+03  0.32403961151E+03  0.00000000000E+00 0.  1.
          6    1    1    2  501    0  0.15980519086E+02 -0.10538862522E+03 -0.24645890240E+03  0.31942625109E+03  0.17300000000E+03 0.  1.
         -6    1    1    2    0  502 -0.15980519086E+02  0.10538862522E+03  0.21008373507E+03  0.29227780459E+03  0.17300000000E+03 0. -1.
<mgrwt>
<rscale>  2 0.20320221E+03</rscale>
<asrwt>0</asrwt>
<pdfrwt beam="1">  1       21 0.44256068E-01 0.20320221E+03</pdfrwt>
<pdfrwt beam="2">  1       21 0.49852248E-01 0.20320221E+03</pdfrwt>
<totfact> 0.18679484E+04</totfact>
</mgrwt>
</event>
<event>
 4    1  0.3950955E+000  0.2438732E+03  0.7546771E-02  0.1117239E+00
         21   -1    0    0  501  502  0.00000000000E+00  0.00000000000E+00  0.15449728892E+03  0.15449728892E+03  0.00000000000E+00 0.  1.
         21   -1    0    0  502  503 -0.00000000000E+00 -0.00000000000E+00 -0.42478393140E+03  0.42478393140E+03  0.00000000000E+00 0.  1.
          6    1    1    2  501    0  0.15686750631E+03  0.70268985920E+02 -0.22383592545E+03  0.33102366447E+03  0.17300000000E+03 0.  1.
         -6    1    1    2    0  503 -0.15686750631E+03 -0.70268985920E+02 -0.46450717031E+02  0.24825755584E+03  0.17300000000E+03 0.  1.
<mgrwt>
<rscale>  2 0.24387321E+03</rscale>
<asrwt>0</asrwt>
<pdfrwt beam="1">  1       21 0.23768814E-01 0.24387321E+03</pdfrwt>
<pdfrwt beam="2">  1       21 0.65351372E-01 0.24387321E+03</pdfrwt>
<totfact> 0.35023554E+04</totfact>
</mgrwt>
</event>
<event>
 4    1  0.3950955E+000  0.1822192E+03  0.7546771E-02  0.1165672E+00
         21   -1    0    0  503  502  0.00000000000E+00  0.00000000000E+00  0.10817416071E+03  0.10817416071E+03  0.00000000000E+00 0.  1.
         21   -1    0    0  501  503 -0.00000000000E+00 -0.00000000000E+00 -0.32966014115E+03  0.32966014115E+03  0.00000000000E+00 0.  1.
          6    1    1    2  501    0 -0.25465261505E+02 -0.51248114210E+02 -0.16820423564E+03  0.24798490607E+03  0.17300000000E+03 0. -1.
         -6    1    1    2    0  502  0.25465261505E+02  0.51248114210E+02 -0.53281744801E+02  0.18984939579E+03  0.17300000000E+03 0. -1.
<mgrwt>
<rscale>  2 0.18221923E+03</rscale>
<asrwt>0</asrwt>
<pdfrwt beam="1">  1       21 0.16642178E-01 0.18221923E+03</pdfrwt>
<pdfrwt beam="2">  1       21 0.50716945E-01 0.18221923E+03</pdfrwt>
<totfact> 0.12043818E+05</totfact>
</mgrwt>
</event>
<event>
 4    1  0.3950955E+000  0.1946858E+03  0.7546771E-02  0.1154302E+00
         21   -1    0    0  501  502  0.00000000000E+00  0.00000000000E+00  0.13534849384E+04  0.13534849384E+04  0.00000000000E+00 0.  1.
         21   -1    0    0  502  503 -0.00000000000E+00 -0.00000000000E+00 -0.34586154733E+02  0.34586154733E+02  0.00000000000E+00 0. -1.
          6    1    1    2  501    0  0.56720849521E+02 -0.68966112393E+02  0.96222764508E+03  0.98172532838E+03  0.17300000000E+03 0.  1.
         -6    1    1    2    0  503 -0.56720849521E+02  0.68966112393E+02  0.35667113856E+03  0.40634576473E+03  0.17300000000E+03 0. -1.
<mgrwt>
<rscale>  2 0.19468585E+03</rscale>
<asrwt>0</asrwt>
<pdfrwt beam="1">  1       21 0.20822841E+00 0.19468585E+03</pdfrwt>
<pdfrwt beam="2">  1       21 0.53209479E-02 0.19468585E+03</pdfrwt>
<totfact> 0.28769477E+04</totfact>
</mgrwt>
</event>
<event>
 4    1  0.3950955E+000  0.3324104E+03  0.7546771E-02  0.1070075E+00
         21   -1    0    0  501  502  0.00000000000E+00  0.00000000000E+00  0.61932385290E+03  0.61932385290E+03  0.00000000000E+00 0.  1.
         21   -1    0    0  502  503 -0.00000000000E+00 -0.00000000000E+00 -0.25433222873E+03  0.25433222873E+03  0.00000000000E+00 0. -1.
          6    1    1    2  501    0  0.82359786597E+02  0.27163305997E+03  0.42115603202E+03  0.53653430181E+03  0.17300000000E+03 0.  1.
         -6    1    1    2    0  503 -0.82359786597E+02 -0.27163305997E+03 -0.56164407846E+02  0.33712177981E+03  0.17300000000E+03 0. -1.
<mgrwt>
<rscale>  2 0.33241037E+03</rscale>
<asrwt>0</asrwt>
<pdfrwt beam="1">  1       21 0.95280592E-01 0.33241037E+03</pdfrwt>
<pdfrwt beam="2">  1       21 0.39128035E-01 0.33241037E+03</pdfrwt>
<totfact> 0.53288784E+03</totfact>
</mgrwt>
</event>
<event>
 4    1  0.3950955E+000  0.1955512E+03  0.7546771E-02  0.1153548E+00
         21   -1    0    0  503  502  0.00000000000E+00  0.00000000000E+00  0.15323619591E+03  0.15323619591E+03  0.00000000000E+00 0. -1.
         21   -1    0    0  501  503 -0.00000000000E+00 -0.00000000000E+00 -0.25002483138E+03  0.25002483138E+03  0.00000000000E+00 0. -1.
          6    1    1    2  501    0  0.54920337752E+02  0.72767046599E+02 -0.57169476998E+02  0.20373668219E+03  0.17300000000E+03 0. -1.
         -6    1    1    2    0  502 -0.54920337752E+02 -0.72767046599E+02 -0.39619158474E+02  0.19952434510E+03  0.17300000000E+03 0. -1.
<mgrwt>
<rscale>  2 0.19555124E+03</rscale>
<asrwt>0</asrwt>
<pdfrwt beam="1">  1       21 0.23574800E-01 0.19555124E+03</pdfrwt>
<pdfrwt beam="2">  1       21 0.38465358E-01 0.19555124E+03</pdfrwt>
<totfact> 0.11026648E+05</totfact>
</mgrwt>
</event>
<event>
 4    1  0.3950955E+000  0.2478285E+03  0.7546771E-02  0.1114685E+00
         21   -1    0    0  503  502  0.00000000000E+00  0.00000000000E+00  0.30723422100E+03  0.30723422100E+03  0.00000000000E+00 0.  1.
         21   -1    0    0  501  503 -0.00000000000E+00 -0.00000000000E+00 -0.39113118295E+03  0.39113118295E+03  0.00000000000E+00 0. -1.
          6    1    1    2  501    0 -0.15372133832E+03 -0.88654921703E+02 -0.28610055498E+03  0.37851350380E+03  0.17300000000E+03 0. -1.
         -6    1    1    2    0  502  0.15372133832E+03  0.88654921703E+02  0.20220359303E+03  0.31985190015E+03  0.17300000000E+03 0.  1.
<mgrwt>
<rscale>  2 0.24782846E+03</rscale>
<asrwt>0</asrwt>
<pdfrwt beam="1">  1       21 0.47266803E-01 0.24782846E+03</pdfrwt>
<pdfrwt beam="2">  1       21 0.60174028E-01 0.24782846E+03</pdfrwt>
<totfact> 0.10657199E+04</totfact>
</mgrwt>
</event>
<event>
 4    1  0.3950955E+000  0.1941167E+03  0.7546771E-02  0.1154800E+00
         21   -1    0    0  501  502  0.00000000000E+00  0.00000000000E+00  0.32637580871E+03  0.32637580871E+03  0.00000000000E+00 0.  1.
         21   -1    0    0  502  503 -0.00000000000E+00 -0.00000000000E+00 -0.38146563706E+03  0.38146563706E+03  0.00000000000E+00 0.  1.
          6    1    1    2  501    0 -0.61176592729E+02  0.63322262186E+02  0.26800366093E+03  0.33091879164E+03  0.17300000000E+03 0.  1.
         -6    1    1    2    0  503  0.61176592729E+02 -0.63322262186E+02 -0.32309348928E+03  0.37692265414E+03  0.17300000000E+03 0.  1.
<mgrwt>
<rscale>  2 0.19411668E+03</rscale>
<asrwt>0</asrwt>
<pdfrwt beam="1">  1       21 0.50211663E-01 0.19411668E+03</pdfrwt>
<pdfrwt beam="2">  1       21 0.58687021E-01 0.19411668E+03</pdfrwt>
<totfact> 0.10252501E+04</totfact>
</mgrwt>
</event>
<event>
 4    1  0.3950955E+000  0.2324720E+03  0.7546771E-02  0.1124912E+00
         21   -1    0    0  503  502  0.00000000000E+00  0.00000000000E+00  0.15392244627E+04  0.15392244627E+04  0.00000000000E+00 0.  1.
         21   -1    0    0  501  503 -0.00000000000E+00 -0.00000000000E+00 -0.71787428126E+02  0.71787428126E+02  0.00000000000E+00 0.  1.
          6    1    1    2  501    0 -0.14885007929E+03 -0.44247860731E+02  0.15796054813E+03  0.28106005417E+03  0.17300000000E+03 0.  1.
         -6    1    1    2    0  502  0.14885007929E+03  0.44247860731E+02  0.13094764865E+04  0.13299518367E+04  0.17300000000E+03 0.  1.
<mgrwt>
<rscale>  2 0.23247198E+03</rscale>
<asrwt>0</asrwt>
<pdfrwt beam="1">  1       21 0.23680374E+00 0.23247198E+03</pdfrwt>
<pdfrwt beam="2">  1       21 0.11044221E-01 0.23247198E+03</pdfrwt>
<totfact> 0.52193080E+03</totfact>
</mgrwt>
</event>
<event>
 4    1  0.3950955E+000  0.2185140E+03  0.7546771E-02  0.1134996E+00
         21   -1    0    0  501  502  0.00000000000E+00  0.00000000000E+00  0.10290026607E+04  0.10290026607E+04  0.00000000000E+00 0. -1.
         21   -1    0    0  502  503 -0.00000000000E+00 -0.00000000000E+00 -0.54354443105E+02  0.54354443105E+02  0.00000000000E+00 0.  1.
          6    1    1    2  501    0 -0.84731457843E+02  0.10315004780E+03  0.69450955797E+03  0.72807408855E+03  0.17300000000E+03 0.  1.
         -6    1    1    2    0  503  0.84731457843E+02 -0.10315004780E+03  0.28013865962E+03  0.35528301525E+03  0.17300000000E+03 0.  1.
<mgrwt>
<rscale>  2 0.21851396E+03</rscale>
<asrwt>0</asrwt>
<pdfrwt beam="1">  1       21 0.15830809E+00 0.21851396E+03</pdfrwt>
<pdfrwt beam="2">  1       21 0.83622228E-02 0.21851396E+03</pdfrwt>
<totfact> 0.28308737E+04</totfact>
</mgrwt>
</event>
<event>
 4    1  0.3950955E+000  0.1913771E+03  0.7546771E-02  0.1157225E+00
         21   -1    0    0  501  502  0.00000000000E+00  0.00000000000E+00  0.41939483656E+02  0.41939483656E+02  0.00000000000E+00 0. -1.
         21   -1    0    0  502  503 -0.00000000000E+00 -0.00000000000E+00 -0.10804344546E+04  0.10804344546E+04  0.00000000000E+00 0. -1.
          6    1    1    2  501    0 -0.70572793953E+02 -0.41420657873E+02 -0.27352292953E+03  0.33382627686E+03  0.17300000000E+03 0. -1.
         -6    1    1    2    0  503  0.70572793953E+02  0.41420657873E+02 -0.76497204139E+03  0.78854766138E+03  0.17300000000E+03 0. -1.
<mgrwt>
<rscale>  2 0.19137709E+03</rscale>
<asrwt>0</asrwt>
<pdfrwt beam="1">  1       21 0.64522289E-02 0.19137709E+03</pdfrwt>
<pdfrwt beam="2">  1       21 0.16622067E+00 0.19137709E+03</pdfrwt>
<totfact> 0.39535645E+04</totfact>
</mgrwt>
</event>
<event>
 4    1  0.3950955E+000  0.2011651E+03  0.7546771E-02  0.1148760E+00
         21   -1    0    0  501  502  0.00000000000E+00  0.00000000000E+00  0.10959210138E+03  0.10959210138E+03  0.00000000000E+00 0.  1.
         21   -1    0    0  502  503 -0.00000000000E+00 -0.00000000000E+00 -0.53546229924E+03  0.53546229924E+03  0.00000000000E+00 0.  1.
          6    1    1    2  501    0 -0.28845311767E+02  0.98520749842E+02 -0.33243639785E+02  0.20389342742E+03  0.17300000000E+03 0.  1.
         -6    1    1    2    0  503  0.28845311767E+02 -0.98520749842E+02 -0.39262655808E+03  0.44116097319E+03  0.17300000000E+03 0.  1.
<mgrwt>
<rscale>  2 0.20116508E+03</rscale>
<asrwt>0</asrwt>
<pdfrwt beam="1">  1       21 0.16860323E-01 0.20116508E+03</pdfrwt>
<pdfrwt beam="2">  1       21 0.82378816E-01 0.20116508E+03</pdfrwt>
<totfact> 0.40581419E+04</totfact>
</mgrwt>
</event>
<event>
 4    1  0.3950955E+000  0.2739980E+03  0.7546771E-02  0.1099013E+00
         21   -1    0    0  503  502  0.00000000000E+00  0.00000000000E+00  0.29939584899E+04  0.29939584899E+04  0.00000000000E+00 0.  1.
         21   -1    0    0  501  503 -0.00000000000E+00 -0.00000000000E+00 -0.38306119547E+02  0.38306119547E+02  0.00000000000E+00 0. -1.
          6    1    1    2  501    0 -0.20831038492E+03  0.41864918190E+02  0.58679324278E+03  0.64761191899E+03  0.17300000000E+03 0. -1.
         -6    1    1    2    0  502  0.20831038492E+03 -0.41864918190E+02  0.23688591276E+04  0.23846526905E+04  0.17300000000E+03 0.  1.
<mgrwt>
<rscale>  2 0.27399797E+03</rscale>
<asrwt>0</asrwt>
<pdfrwt beam="1">  1       21 0.46060881E+00 0.27399797E+03</pdfrwt>
<pdfrwt beam="2">  1       21 0.58932515E-02 0.27399797E+03</pdfrwt>
<totfact> 0.64330445E+02</totfact>
</mgrwt>
</event>
<event>
 4    1  0.3950955E+000  0.2000150E+03  0.7546771E-02  0.1149726E+00
         21   -1    0    0  503  502  0.00000000000E+00  0.00000000000E+00  0.36184898017E+03  0.36184898017E+03  0.00000000000E+00 0. -1.
         21   -1    0    0  501  503 -0.00000000000E+00 -0.00000000000E+00 -0.12167073362E+03  0.12167073362E+03  0.00000000000E+00 0. -1.
          6    1    1    2  501    0  0.70634997256E+02 -0.71328086273E+02  0.19314645705E+03  0.27804955062E+03  0.17300000000E+03 0. -1.
         -6    1    1    2    0  502 -0.70634997256E+02  0.71328086273E+02  0.47031789497E+02  0.20547016317E+03  0.17300000000E+03 0. -1.
<mgrwt>
<rscale>  2 0.20001500E+03</rscale>
<asrwt>0</asrwt>
<pdfrwt beam="1">  1       21 0.55669073E-01 0.20001500E+03</pdfrwt>
<pdfrwt beam="2">  1       21 0.18718575E-01 0.20001500E+03</pdfrwt>
<totfact> 0.79136061E+04</totfact>
</mgrwt>
</event>
<event>
 4    1  0.3950955E+000  0.3188047E+03  0.7546771E-02  0.1076201E+00
         21   -1    0    0  503  502  0.00000000000E+00  0.00000000000E+00  0.46990868445E+03  0.46990868445E+03  0.00000000000E+00 0. -1.
         21   -1    0    0  501  503 -0.00000000000E+00 -0.00000000000E+00 -0.28320015312E+03  0.28320015312E+03  0.00000000000E+00 0.  1.
          6    1    1    2  501    0  0.20041633358E+02 -0.26703144251E+03 -0.89677996254E+02  0.33117759792E+03  0.17300000000E+03 0.  1.
         -6    1    1    2    0  502 -0.20041633358E+02  0.26703144251E+03  0.27638652759E+03  0.42193123964E+03  0.17300000000E+03 0. -1.
<mgrwt>
<rscale>  2 0.31880473E+03</rscale>
<asrwt>0</asrwt>
<pdfrwt beam="1">  1       21 0.72293644E-01 0.31880473E+03</pdfrwt>
<pdfrwt beam="2">  1       21 0.43569254E-01 0.31880473E+03</pdfrwt>
<totfact> 0.81352441E+03</totfact>
</mgrwt>
</event>
<event>
 4    1  0.3950955E+000  0.2065530E+03  0.7546771E-02  0.1144325E+00
         21   -1    0    0  503  502  0.00000000000E+00  0.00000000000E+00  0.55557540598E+02  0.55557540598E+02  0.00000000000E+00 0. -1.
         21   -1    0    0  501  503 -0.00000000000E+00 -0.00000000000E+00 -0.76897691976E+03  0.76897691976E+03  0.00000000000E+00 0. -1.
          6    1    1    2  501    0  0.10858166473E+03  0.30743468793E+02 -0.37194277554E+03  0.42544749037E+03  0.17300000000E+03 0.  1.
         -6    1    1    2    0  502 -0.10858166473E+03 -0.30743468793E+02 -0.34147660362E+03  0.39908696999E+03  0.17300000000E+03 0.  1.
<mgrwt>
<rscale>  2 0.20655299E+03</rscale>
<asrwt>0</asrwt>
<pdfrwt beam="1">  1       21 0.85473142E-02 0.20655299E+03</pdfrwt>
<pdfrwt beam="2">  1       21 0.11830414E+00 0.20655299E+03</pdfrwt>
<totfact> 0.58076176E+04</totfact>
</mgrwt>
</event>
<event>
 4    1  0.3950955E+000  0.1890545E+03  0.7546771E-02  0.1159317E+00
         21   -1    0    0  503  502  0.00000000000E+00  0.00000000000E+00  0.40384377701E+03  0.40384377701E+03  0.00000000000E+00 0. -1.
         21   -1    0    0  501  503 -0.00000000000E+00 -0.00000000000E+00 -0.10934788794E+03  0.10934788794E+03  0.00000000000E+00 0. -1.
          6    1    1    2  501    0  0.57270016866E+02  0.50326610436E+02  0.35216980236E+02  0.19230667759E+03  0.17300000000E+03 0. -1.
         -6    1    1    2    0  502 -0.57270016866E+02 -0.50326610436E+02  0.25927890883E+03  0.32088498736E+03  0.17300000000E+03 0. -1.
<mgrwt>
<rscale>  2 0.18905455E+03</rscale>
<asrwt>0</asrwt>
<pdfrwt beam="1">  1       21 0.62129811E-01 0.18905455E+03</pdfrwt>
<pdfrwt beam="2">  1       21 0.16822752E-01 0.18905455E+03</pdfrwt>
<totfact> 0.76563263E+04</totfact>
</mgrwt>
</event>
<event>
 4    1  0.3950955E+000  0.1914910E+03  0.7546771E-02  0.1157123E+00
         21   -1    0    0  501  502  0.00000000000E+00  0.00000000000E+00  0.20891299335E+03  0.20891299335E+03  0.00000000000E+00 0.  1.
         21   -1    0    0  502  503 -0.00000000000E+00 -0.00000000000E+00 -0.37559408291E+03  0.37559408291E+03  0.00000000000E+00 0.  1.
          6    1    1    2  501    0  0.75499501659E+02 -0.32243408051E+02  0.12996086594E+03  0.23142739421E+03  0.17300000000E+03 0.  1.
         -6    1    1    2    0  503 -0.75499501659E+02  0.32243408051E+02 -0.29664195551E+03  0.35307968206E+03  0.17300000000E+03 0.  1.
<mgrwt>
<rscale>  2 0.19149102E+03</rscale>
<asrwt>0</asrwt>
<pdfrwt beam="1">  1       21 0.32140461E-01 0.19149102E+03</pdfrwt>
<pdfrwt beam="2">  1       21 0.57783705E-01 0.19149102E+03</pdfrwt>
<totfact> 0.26171363E+04</totfact>
</mgrwt>
</event>
<event>
 4    1  0.3950955E+000  0.2236193E+03  0.7546771E-02  0.1131213E+00
         21   -1    0    0  503  502  0.00000000000E+00  0.00000000000E+00  0.11919270962E+03  0.11919270962E+03  0.00000000000E+00 0. -1.
         21   -1    0    0  501  503 -0.00000000000E+00 -0.00000000000E+00 -0.10515847663E+04  0.10515847663E+04  0.00000000000E+00 0. -1.
          6    1    1    2  501    0 -0.13344233140E+03 -0.47641805976E+02 -0.92003064098E+03  0.94681676043E+03  0.17300000000E+03 0. -1.
         -6    1    1    2    0  502  0.13344233140E+03  0.47641805976E+02 -0.12361415703E+02  0.22396071550E+03  0.17300000000E+03 0. -1.
<mgrwt>
<rscale>  2 0.22361931E+03</rscale>
<asrwt>0</asrwt>
<pdfrwt beam="1">  1       21 0.18337339E-01 0.22361931E+03</pdfrwt>
<pdfrwt beam="2">  1       21 0.16178228E+00 0.22361931E+03</pdfrwt>
<totfact> 0.64661830E+03</totfact>
</mgrwt>
</event>
<event>
 4    1  0.3950955E+000  0.2271452E+03  0.7546771E-02  0.1128665E+00
         21   -1    0    0  503  502  0.00000000000E+00  0.00000000000E+00  0.36889194852E+03  0.36889194852E+03  0.00000000000E+00 0.  1.
         21   -1    0    0  501  503 -0.00000000000E+00 -0.00000000000E+00 -0.17804564717E+03  0.17804564717E+03  0.00000000000E+00 0. -1.
          6    1    1    2  501    0  0.14327765612E+03  0.33726071584E+02 -0.31215381292E+02  0.22928003550E+03  0.17300000000E+03 0.  1.
         -6    1    1    2    0  502 -0.14327765612E+03 -0.33726071584E+02  0.22206168264E+03  0.31765756019E+03  0.17300000000E+03 0. -1.
<mgrwt>
<rscale>  2 0.22714518E+03</rscale>
<asrwt>0</asrwt>
<pdfrwt beam="1">  1       21 0.56752607E-01 0.22714518E+03</pdfrwt>
<pdfrwt beam="2">  1       21 0.27391638E-01 0.22714518E+03</pdfrwt>
<totfact> 0.36457185E+04</totfact>
</mgrwt>
</event>
<event>
 4    1  0.3950955E+000  0.2694584E+03  0.7546771E-02  0.1101590E+00
         21   -1    0    0  501  502  0.00000000000E+00  0.00000000000E+00  0.42500987645E+03  0.42500987645E+03  0.00000000000E+00 0. -1.
         21   -1    0    0  502  503 -0.00000000000E+00 -0.00000000000E+00 -0.17116247167E+03  0.17116247167E+03  0.00000000000E+00 0.  1.
          6    1    1    2  501    0  0.10111658815E+03  0.18015070254E+03  0.11394528857E+03  0.29256002600E+03  0.17300000000E+03 0.  1.
         -6    1    1    2    0  503 -0.10111658815E+03 -0.18015070254E+03  0.13990211620E+03  0.30361232212E+03  0.17300000000E+03 0. -1.
<mgrwt>
<rscale>  2 0.26945842E+03</rscale>
<asrwt>0</asrwt>
<pdfrwt beam="1">  1       21 0.65386134E-01 0.26945842E+03</pdfrwt>
<pdfrwt beam="2">  1       21 0.26332688E-01 0.26945842E+03</pdfrwt>
<totfact> 0.28416432E+04</totfact>
</mgrwt>
</event>
<event>
 4    1  0.3950955E+000  0.1848215E+03  0.7546771E-02  0.1163217E+00
         21   -1    0    0  501  502  0.00000000000E+00  0.00000000000E+00  0.13352424426E+03  0.13352424426E+03  0.00000000000E+00 0. -1.
         21   -1    0    0  502  503 -0.00000000000E+00 -0.00000000000E+00 -0.36256720381E+03  0.36256720381E+03  0.00000000000E+00 0. -1.
          6    1    1    2  501    0  0.98146150070E+01  0.64293619776E+02  0.20065542810E+02  0.18590756364E+03  0.17300000000E+03 0. -1.
         -6    1    1    2    0  503 -0.98146150070E+01 -0.64293619776E+02 -0.24910850236E+03  0.31018388443E+03  0.17300000000E+03 0. -1.
<mgrwt>
<rscale>  2 0.18482153E+03</rscale>
<asrwt>0</asrwt>
<pdfrwt beam="1">  1       21 0.20542192E-01 0.18482153E+03</pdfrwt>
<pdfrwt beam="2">  1       21 0.55779569E-01 0.18482153E+03</pdfrwt>
<totfact> 0.66700846E+04</totfact>
</mgrwt>
</event>
<event>
 4    1  0.3950955E+000  0.2486435E+03  0.7546771E-02  0.1114165E+00
         21   -1    0    0  501  502  0.00000000000E+00  0.00000000000E+00  0.16531980424E+03  0.16531980424E+03  0.00000000000E+00 0. -1.
         21   -1    0    0  502  503 -0.00000000000E+00 -0.00000000000E+00 -0.80332398914E+03  0.80332398914E+03  0.00000000000E+00 0. -1.
          6    1    1    2  501    0  0.16789568263E+03  0.60874061863E+02  0.35076487943E+02  0.25110549906E+03  0.17300000000E+03 0. -1.
         -6    1    1    2    0  503 -0.16789568263E+03 -0.60874061863E+02 -0.67308067285E+03  0.71753829432E+03  0.17300000000E+03 0. -1.
<mgrwt>
<rscale>  2 0.24864354E+03</rscale>
<asrwt>0</asrwt>
<pdfrwt beam="1">  1       21 0.25433816E-01 0.24864354E+03</pdfrwt>
<pdfrwt beam="2">  1       21 0.12358831E+00 0.24864354E+03</pdfrwt>
<totfact> 0.69177022E+03</totfact>
</mgrwt>
</event>
<event>
 4    1  0.3950955E+000  0.6107785E+03  0.7546771E-02  0.9883293E-01
         21   -1    0    0  501  502  0.00000000000E+00  0.00000000000E+00  0.14698334121E+04  0.14698334121E+04  0.00000000000E+00 0.  1.
         21   -1    0    0  502  503 -0.00000000000E+00 -0.00000000000E+00 -0.36248290824E+03  0.36248290824E+03  0.00000000000E+00 0. -1.
          6    1    1    2  501    0  0.58564847561E+03 -0.11716556397E+02  0.52028259874E+02  0.61299050115E+03  0.17300000000E+03 0. -1.
         -6    1    1    2    0  503 -0.58564847561E+03  0.11716556397E+02  0.10553222439E+04  0.12193258191E+04  0.17300000000E+03 0.  1.
<mgrwt>
<rscale>  2 0.61077853E+03</rscale>
<asrwt>0</asrwt>
<pdfrwt beam="1">  1       21 0.22612821E+00 0.61077853E+03</pdfrwt>
<pdfrwt beam="2">  1       21 0.55766602E-01 0.61077853E+03</pdfrwt>
<totfact> 0.20865162E+02</totfact>
</mgrwt>
</event>
<event>
 4    1  0.3950955E+000  0.3088993E+03  0.7546771E-02  0.1080875E+00
         21   -1    0    0  503  502  0.00000000000E+00  0.00000000000E+00  0.19846561387E+03  0.19846561387E+03  0.00000000000E+00 0.  1.
         21   -1    0    0  501  503 -0.00000000000E+00 -0.00000000000E+00 -0.54157356068E+03  0.54157356068E+03  0.00000000000E+00 0. -1.
          6    1    1    2  501    0  0.20805699185E+03  0.14900355946E+03 -0.47584078461E+02  0.31254282445E+03  0.17300000000E+03 0.  1.
         -6    1    1    2    0  502 -0.20805699185E+03 -0.14900355946E+03 -0.29552386835E+03  0.42749635011E+03  0.17300000000E+03 0. -1.
<mgrwt>
<rscale>  2 0.30889929E+03</rscale>
<asrwt>0</asrwt>
<pdfrwt beam="1">  1       21 0.30533171E-01 0.30889929E+03</pdfrwt>
<pdfrwt beam="2">  1       21 0.83319011E-01 0.30889929E+03</pdfrwt>
<totfact> 0.12127456E+04</totfact>
</mgrwt>
</event>
<event>
 4    1  0.3950955E+000  0.2583494E+03  0.7546771E-02  0.1108139E+00
         21   -1    0    0  501  502  0.00000000000E+00  0.00000000000E+00  0.13876945990E+04  0.13876945990E+04  0.00000000000E+00 0.  1.
         21   -1    0    0  502  503 -0.00000000000E+00 -0.00000000000E+00 -0.49710954754E+02  0.49710954754E+02  0.00000000000E+00 0.  1.
          6    1    1    2  501    0  0.15565062676E+03  0.11219755348E+03  0.53950540912E+03  0.59817262984E+03  0.17300000000E+03 0.  1.
         -6    1    1    2    0  503 -0.15565062676E+03 -0.11219755348E+03  0.79847823516E+03  0.83923292395E+03  0.17300000000E+03 0.  1.
<mgrwt>
<rscale>  2 0.25834939E+03</rscale>
<asrwt>0</asrwt>
<pdfrwt beam="1">  1       21 0.21349145E+00 0.25834939E+03</pdfrwt>
<pdfrwt beam="2">  1       21 0.76478403E-02 0.25834939E+03</pdfrwt>
<totfact> 0.13646077E+04</totfact>
</mgrwt>
</event>
<event>
 4    1  0.3950955E+000  0.2646649E+03  0.7546771E-02  0.1104372E+00
         21   -1    0    0  503  502  0.00000000000E+00  0.00000000000E+00  0.12424202104E+03  0.12424202104E+03  0.00000000000E+00 0. -1.
         21   -1    0    0  501  503 -0.00000000000E+00 -0.00000000000E+00 -0.56704795629E+03  0.56704795629E+03  0.00000000000E+00 0.  1.
          6    1    1    2  501    0 -0.85411262212E+02 -0.18117235730E+03 -0.19523901776E+03  0.32888566527E+03  0.17300000000E+03 0. -1.
         -6    1    1    2    0  502  0.85411262212E+02  0.18117235730E+03 -0.24756691749E+03  0.36240431206E+03  0.17300000000E+03 0.  1.
<mgrwt>
<rscale>  2 0.26466490E+03</rscale>
<asrwt>0</asrwt>
<pdfrwt beam="1">  1       21 0.19114157E-01 0.26466490E+03</pdfrwt>
<pdfrwt beam="2">  1       21 0.87238147E-01 0.26466490E+03</pdfrwt>
<totfact> 0.27338126E+04</totfact>
</mgrwt>
</event>
<event>
 4    1  0.3950955E+000  0.2702857E+03  0.7546771E-02  0.1101116E+00
         21   -1    0    0  503  502  0.00000000000E+00  0.00000000000E+00  0.12425399730E+04  0.12425399730E+04  0.00000000000E+00 0. -1.
         21   -1    0    0  501  503 -0.00000000000E+00 -0.00000000000E+00 -0.60500961361E+02  0.60500961361E+02  0.00000000000E+00 0.  1.
          6    1    1    2  501    0  0.15001724985E+03  0.14359724367E+03  0.48159543922E+03  0.55225764886E+03  0.17300000000E+03 0.  1.
         -6    1    1    2    0  502 -0.15001724985E+03 -0.14359724367E+03  0.70044357239E+03  0.75078328548E+03  0.17300000000E+03 0. -1.
<mgrwt>
<rscale>  2 0.27028567E+03</rscale>
<asrwt>0</asrwt>
<pdfrwt beam="1">  1       21 0.19115998E+00 0.27028567E+03</pdfrwt>
<pdfrwt beam="2">  1       21 0.93078412E-02 0.27028567E+03</pdfrwt>
<totfact> 0.13383447E+04</totfact>
</mgrwt>
</event>
<event>
 4    1  0.3950955E+000  0.2261380E+03  0.7546771E-02  0.1129388E+00
         21   -1    0    0  501  502  0.00000000000E+00  0.00000000000E+00  0.49660344714E+02  0.49660344714E+02  0.00000000000E+00 0. -1.
         21   -1    0    0  502  503 -0.00000000000E+00 -0.00000000000E+00 -0.13925631799E+04  0.13925631799E+04  0.00000000000E+00 0. -1.
          6    1    1    2  501    0 -0.12355574673E+03  0.77093222455E+02 -0.30338275006E+03  0.37839064541E+03  0.17300000000E+03 0. -1.
         -6    1    1    2    0  503  0.12355574673E+03 -0.77093222455E+02 -0.10395200851E+04  0.10638328792E+04  0.17300000000E+03 0. -1.
<mgrwt>
<rscale>  2 0.22613798E+03</rscale>
<asrwt>0</asrwt>
<pdfrwt beam="1">  1       21 0.76400532E-02 0.22613798E+03</pdfrwt>
<pdfrwt beam="2">  1       21 0.21424048E+00 0.22613798E+03</pdfrwt>
<totfact> 0.13822303E+04</totfact>
</mgrwt>
</event>
<event>
 4    1  0.3950955E+000  0.1835374E+03  0.7546771E-02  0.1164423E+00
         21   -1    0    0  501  502  0.00000000000E+00  0.00000000000E+00  0.60768743958E+03  0.60768743958E+03  0.00000000000E+00 0. -1.
         21   -1    0    0  502  503 -0.00000000000E+00 -0.00000000000E+00 -0.27919196847E+03  0.27919196847E+03  0.00000000000E+00 0. -1.
          6    1    1    2  501    0 -0.33964542962E+02  0.51023388564E+02  0.56123198793E+03  0.59048058447E+03  0.17300000000E+03 0. -1.
         -6    1    1    2    0  503  0.33964542962E+02 -0.51023388564E+02 -0.23273651682E+03  0.29639882358E+03  0.17300000000E+03 0. -1.
<mgrwt>
<rscale>  2 0.18353740E+03</rscale>
<asrwt>0</asrwt>
<pdfrwt beam="1">  1       21 0.93490375E-01 0.18353740E+03</pdfrwt>
<pdfrwt beam="2">  1       21 0.42952611E-01 0.18353740E+03</pdfrwt>
<totfact> 0.50492904E+03</totfact>
</mgrwt>
</event>
<event>
 4    1  0.3950955E+000  0.1942289E+03  0.7546771E-02  0.1154701E+00
         21   -1    0    0  501  502  0.00000000000E+00  0.00000000000E+00  0.39439245234E+03  0.39439245234E+03  0.00000000000E+00 0. -1.
         21   -1    0    0  502  503 -0.00000000000E+00 -0.00000000000E+00 -0.10094677327E+03  0.10094677327E+03  0.00000000000E+00 0. -1.
          6    1    1    2  501    0  0.49844354001E+01  0.88153468089E+02  0.20343852880E+03  0.28126875676E+03  0.17300000000E+03 0. -1.
         -6    1    1    2    0  503 -0.49844354001E+01 -0.88153468089E+02  0.90007150276E+02  0.21407046885E+03  0.17300000000E+03 0. -1.
<mgrwt>
<rscale>  2 0.19422893E+03</rscale>
<asrwt>0</asrwt>
<pdfrwt beam="1">  1       21 0.60675761E-01 0.19422893E+03</pdfrwt>
<pdfrwt beam="2">  1       21 0.15530273E-01 0.19422893E+03</pdfrwt>
<totfact> 0.93084026E+04</totfact>
</mgrwt>
</event>
<event>
 4    1  0.3950955E+000  0.3160204E+03  0.7546771E-02  0.1077496E+00
         21   -1    0    0  501  502  0.00000000000E+00  0.00000000000E+00  0.80461080884E+03  0.80461080884E+03  0.00000000000E+00 0.  1.
         21   -1    0    0  502  503 -0.00000000000E+00 -0.00000000000E+00 -0.12412082385E+03  0.12412082385E+03  0.00000000000E+00 0.  1.
          6    1    1    2  501    0  0.19973677925E+03 -0.17333521351E+03  0.34065863661E+03  0.46466889709E+03  0.17300000000E+03 0.  1.
         -6    1    1    2    0  503 -0.19973677925E+03  0.17333521351E+03  0.33983134839E+03  0.46406273560E+03  0.17300000000E+03 0.  1.
<mgrwt>
<rscale>  2 0.31602037E+03</rscale>
<asrwt>0</asrwt>
<pdfrwt beam="1">  1       21 0.12378627E+00 0.31602037E+03</pdfrwt>
<pdfrwt beam="2">  1       21 0.19095512E-01 0.31602037E+03</pdfrwt>
<totfact> 0.11475536E+04</totfact>
</mgrwt>
</event>
<event>
 4    1  0.3950955E+000  0.1879550E+03  0.7546771E-02  0.1160319E+00
         21   -1    0    0  501  502  0.00000000000E+00  0.00000000000E+00  0.59858339965E+02  0.59858339965E+02  0.00000000000E+00 0.  1.
         21   -1    0    0  502  503 -0.00000000000E+00 -0.00000000000E+00 -0.81587619674E+03  0.81587619674E+03  0.00000000000E+00 0. -1.
          6    1    1    2  501    0  0.53552199463E+02  0.50301520571E+02 -0.14770873436E+03  0.23905010196E+03  0.17300000000E+03 0.  1.
         -6    1    1    2    0  503 -0.53552199463E+02 -0.50301520571E+02 -0.60830912241E+03  0.63668443475E+03  0.17300000000E+03 0. -1.
<mgrwt>
<rscale>  2 0.18795500E+03</rscale>
<asrwt>0</asrwt>
<pdfrwt beam="1">  1       21 0.92089770E-02 0.18795500E+03</pdfrwt>
<pdfrwt beam="2">  1       21 0.12551939E+00 0.18795500E+03</pdfrwt>
<totfact> 0.44406296E+04</totfact>
</mgrwt>
</event>
<event>
 4    1  0.3950955E+000  0.1895916E+03  0.7546771E-02  0.1158830E+00
         21   -1    0    0  501  502  0.00000000000E+00  0.00000000000E+00  0.82577127021E+02  0.82577127021E+02  0.00000000000E+00 0.  1.
         21   -1    0    0  502  503 -0.00000000000E+00 -0.00000000000E+00 -0.12990458265E+04  0.12990458265E+04  0.00000000000E+00 0.  1.
          6    1    1    2  501    0 -0.38083884969E+02 -0.67569189161E+02 -0.44930312367E+02  0.19484278428E+03  0.17300000000E+03 0.  1.
         -6    1    1    2    0  503  0.38083884969E+02  0.67569189161E+02 -0.11715383871E+04  0.11867801693E+04  0.17300000000E+03 0.  1.
<mgrwt>
<rscale>  2 0.18959161E+03</rscale>
<asrwt>0</asrwt>
<pdfrwt beam="1">  1       21 0.12704173E-01 0.18959161E+03</pdfrwt>
<pdfrwt beam="2">  1       21 0.19985321E+00 0.18959161E+03</pdfrwt>
<totfact> 0.71483978E+03</totfact>
</mgrwt>
</event>
<event>
 4    1  0.3950955E+000  0.3003480E+03  0.7546771E-02  0.1085067E+00
         21   -1    0    0  501  502  0.00000000000E+00  0.00000000000E+00  0.78119134575E+03  0.78119134575E+03  0.00000000000E+00 0. -1.
         21   -1    0    0  502  503 -0.00000000000E+00 -0.00000000000E+00 -0.29104638365E+03  0.29104638365E+03  0.00000000000E+00 0. -1.
          6    1    1    2  501    0 -0.24476951593E+02  0.24429653611E+03 -0.17132252164E+03  0.34577496314E+03  0.17300000000E+03 0. -1.
         -6    1    1    2    0  503  0.24476951593E+02 -0.24429653611E+03  0.66146748374E+03  0.72646276626E+03  0.17300000000E+03 0. -1.
<mgrwt>
<rscale>  2 0.30034800E+03</rscale>
<asrwt>0</asrwt>
<pdfrwt beam="1">  1       21 0.12018328E+00 0.30034800E+03</pdfrwt>
<pdfrwt beam="2">  1       21 0.44776367E-01 0.30034800E+03</pdfrwt>
<totfact> 0.23282089E+03</totfact>
</mgrwt>
</event>
<event>
 4    1  0.3950955E+000  0.2236132E+03  0.7546771E-02  0.1131218E+00
         21   -1    0    0  501  502  0.00000000000E+00  0.00000000000E+00  0.13189209159E+04  0.13189209159E+04  0.00000000000E+00 0.  1.
         21   -1    0    0  502  503 -0.00000000000E+00 -0.00000000000E+00 -0.56350114627E+02  0.56350114627E+02  0.00000000000E+00 0.  1.
          6    1    1    2  501    0 -0.30263948632E+02 -0.13841225897E+03  0.10246269058E+04  0.10487436084E+04  0.17300000000E+03 0.  1.
         -6    1    1    2    0  503  0.30263948632E+02  0.13841225897E+03  0.23794389546E+03  0.32652742214E+03  0.17300000000E+03 0.  1.
<mgrwt>
<rscale>  2 0.22361319E+03</rscale>
<asrwt>0</asrwt>
<pdfrwt beam="1">  1       21 0.20291089E+00 0.22361319E+03</pdfrwt>
<pdfrwt beam="2">  1       21 0.86692494E-02 0.22361319E+03</pdfrwt>
<totfact> 0.13097335E+04</totfact>
</mgrwt>
</event>
<event>
 4    1  0.3950955E+000  0.1812647E+03  0.7546771E-02  0.1166585E+00
         21   -1    0    0  501  502  0.00000000000E+00  0.00000000000E+00  0.28052796979E+03  0.28052796979E+03  0.00000000000E+00 0. -1.
         21   -1    0    0  502  503 -0.00000000000E+00 -0.00000000000E+00 -0.19375113147E+03  0.19375113147E+03  0.00000000000E+00 0. -1.
          6    1    1    2  501    0 -0.27468123582E+02  0.46619745183E+02  0.19252003142E+03  0.26442553007E+03  0.17300000000E+03 0. -1.
         -6    1    1    2    0  503  0.27468123582E+02 -0.46619745183E+02 -0.10574319310E+03  0.20985357119E+03  0.17300000000E+03 0. -1.
<mgrwt>
<rscale>  2 0.18126472E+03</rscale>
<asrwt>0</asrwt>
<pdfrwt beam="1">  1       21 0.43158149E-01 0.18126472E+03</pdfrwt>
<pdfrwt beam="2">  1       21 0.29807866E-01 0.18126472E+03</pdfrwt>
<totfact> 0.55988822E+04</totfact>
</mgrwt>
</event>
<event>
 4    1  0.3950955E+000  0.2175234E+03  0.7546771E-02  0.1135743E+00
         21   -1    0    0  501  502  0.00000000000E+00  0.00000000000E+00  0.83248400824E+03  0.83248400824E+03  0.00000000000E+00 0.  1.
         21   -1    0    0  502  503 -0.00000000000E+00 -0.00000000000E+00 -0.17181496330E+03  0.17181496330E+03  0.00000000000E+00 0.  1.
          6    1    1    2  501    0 -0.13978226600E+02 -0.13111840188E+03  0.74111389573E+03  0.77237700158E+03  0.17300000000E+03 0.  1.
         -6    1    1    2    0  503  0.13978226600E+02  0.13111840188E+03 -0.80444850789E+02  0.23192196996E+03  0.17300000000E+03 0.  1.
<mgrwt>
<rscale>  2 0.21752339E+03</rscale>
<asrwt>0</asrwt>
<pdfrwt beam="1">  1       21 0.12807446E+00 0.21752339E+03</pdfrwt>
<pdfrwt beam="2">  1       21 0.26433072E-01 0.21752339E+03</pdfrwt>
<totfact> 0.59941951E+03</totfact>
</mgrwt>
</event>
<event>
 4    1  0.3950955E+000  0.1743246E+03  0.7546771E-02  0.1173412E+00
         21   -1    0    0  501  502  0.00000000000E+00  0.00000000000E+00  0.67139756381E+02  0.67139756381E+02  0.00000000000E+00 0.  1.
         21   -1    0    0  502  503 -0.00000000000E+00 -0.00000000000E+00 -0.45365957295E+03  0.45365957295E+03  0.00000000000E+00 0.  1.
          6    1    1    2  501    0 -0.10339601652E+02 -0.18792916275E+02 -0.18082003836E+03  0.25116720991E+03  0.17300000000E+03 0. -1.
         -6    1    1    2    0  503  0.10339601652E+02  0.18792916275E+02 -0.20569977821E+03  0.26963211941E+03  0.17300000000E+03 0. -1.
<mgrwt>
<rscale>  2 0.17432464E+03</rscale>
<asrwt>0</asrwt>
<pdfrwt beam="1">  1       21 0.10329193E-01 0.17432464E+03</pdfrwt>
<pdfrwt beam="2">  1       21 0.69793784E-01 0.17432464E+03</pdfrwt>
<totfact> 0.14381622E+05</totfact>
</mgrwt>
</event>
<event>
 4    1  0.3950955E+000  0.3407819E+03  0.7546771E-02  0.1066463E+00
         21   -1    0    0  501  502  0.00000000000E+00  0.00000000000E+00  0.11498234312E+04  0.11498234312E+04  0.00000000000E+00 0. -1.
         21   -1    0    0  502  503 -0.00000000000E+00 -0.00000000000E+00 -0.19684236534E+03  0.19684236534E+03  0.00000000000E+00 0.  1.
          6    1    1    2  501    0  0.38439975881E+02 -0.29107676869E+03  0.94632947701E+03  0.10058189678E+04  0.17300000000E+03 0. -1.
         -6    1    1    2    0  503 -0.38439975881E+02  0.29107676869E+03  0.66515888886E+01  0.34084682872E+03  0.17300000000E+03 0.  1.
<mgrwt>
<rscale>  2 0.34078192E+03</rscale>
<asrwt>0</asrwt>
<pdfrwt beam="1">  1       21 0.17689591E+00 0.34078192E+03</pdfrwt>
<pdfrwt beam="2">  1       21 0.30283441E-01 0.34078192E+03</pdfrwt>
<totfact> 0.17877685E+03</totfact>
</mgrwt>
</event>
<event>
 4    1  0.3950955E+000  0.2015320E+03  0.7546771E-02  0.1148453E+00
         21   -1    0    0  501  502  0.00000000000E+00  0.00000000000E+00  0.83957898618E+03  0.83957898618E+03  0.00000000000E+00 0.  1.
         21   -1    0    0  502  503 -0.00000000000E+00 -0.00000000000E+00 -0.57027893368E+02  0.57027893368E+02  0.00000000000E+00 0. -1.
          6    1    1    2  501    0 -0.27472180276E+02  0.99656482957E+02  0.21665550684E+03  0.29589650881E+03  0.17300000000E+03 0. -1.
         -6    1    1    2    0  503  0.27472180276E+02 -0.99656482957E+02  0.56589558597E+03  0.60071037073E+03  0.17300000000E+03 0.  1.
<mgrwt>
<rscale>  2 0.20153197E+03</rscale>
<asrwt>0</asrwt>
<pdfrwt beam="1">  1       21 0.12916599E+00 0.20153197E+03</pdfrwt>
<pdfrwt beam="2">  1       21 0.87735226E-02 0.20153197E+03</pdfrwt>
<totfact> 0.44653852E+04</totfact>
</mgrwt>
</event>
<event>
 4    1  0.3950955E+000  0.1814348E+03  0.7546771E-02  0.1166422E+00
         21   -1    0    0  503  502  0.00000000000E+00  0.00000000000E+00  0.60730423788E+02  0.60730423788E+02  0.00000000000E+00 0. -1.
         21   -1    0    0  501  503 -0.00000000000E+00 -0.00000000000E+00 -0.54378574138E+03  0.54378574138E+03  0.00000000000E+00 0. -1.
          6    1    1    2  501    0  0.21583613218E+02  0.50236923660E+02 -0.25863079356E+03  0.31592481421E+03  0.17300000000E+03 0. -1.
         -6    1    1    2    0  502 -0.21583613218E+02 -0.50236923660E+02 -0.22442452403E+03  0.28859135095E+03  0.17300000000E+03 0. -1.
<mgrwt>
<rscale>  2 0.18143484E+03</rscale>
<asrwt>0</asrwt>
<pdfrwt beam="1">  1       21 0.93431424E-02 0.18143484E+03</pdfrwt>
<pdfrwt beam="2">  1       21 0.83659342E-01 0.18143484E+03</pdfrwt>
<totfact> 0.11414021E+05</totfact>
</mgrwt>
</event>
<event>
 4    1  0.3950955E+000  0.2319002E+03  0.7546771E-02  0.1125309E+00
         21   -1    0    0  501  502  0.00000000000E+00  0.00000000000E+00  0.13745159072E+03  0.13745159072E+03  0.00000000000E+00 0.  1.
         21   -1    0    0  502  503 -0.00000000000E+00 -0.00000000000E+00 -0.52853219741E+03  0.52853219741E+03  0.00000000000E+00 0. -1.
          6    1    1    2  501    0  0.14673201923E+03  0.48149754481E+02 -0.25830108742E+02  0.23333426418E+03  0.17300000000E+03 0.  1.
         -6    1    1    2    0  503 -0.14673201923E+03 -0.48149754481E+02 -0.36525049794E+03  0.43264952395E+03  0.17300000000E+03 0.  1.
<mgrwt>
<rscale>  2 0.23190016E+03</rscale>
<asrwt>0</asrwt>
<pdfrwt beam="1">  1       21 0.21146399E-01 0.23190016E+03</pdfrwt>
<pdfrwt beam="2">  1       21 0.81312643E-01 0.23190016E+03</pdfrwt>
<totfact> 0.26984911E+04</totfact>
</mgrwt>
</event>
<event>
 4    1  0.3950955E+000  0.2941809E+03  0.7546771E-02  0.1088186E+00
         21   -1    0    0  503  502  0.00000000000E+00  0.00000000000E+00  0.13421659324E+03  0.13421659324E+03  0.00000000000E+00 0.  1.
         21   -1    0    0  501  503 -0.00000000000E+00 -0.00000000000E+00 -0.66250280247E+03  0.66250280247E+03  0.00000000000E+00 0. -1.
          6    1    1    2  501    0 -0.23787023493E+03 -0.55794761813E+01 -0.32926790710E+03  0.44154244854E+03  0.17300000000E+03 0.  1.
         -6    1    1    2    0  502  0.23787023493E+03  0.55794761813E+01 -0.19901830213E+03  0.35517694717E+03  0.17300000000E+03 0. -1.
<mgrwt>
<rscale>  2 0.29418086E+03</rscale>
<asrwt>0</asrwt>
<pdfrwt beam="1">  1       21 0.20648707E-01 0.29418086E+03</pdfrwt>
<pdfrwt beam="2">  1       21 0.10192351E+00 0.29418086E+03</pdfrwt>
<totfact> 0.16153819E+04</totfact>
</mgrwt>
</event>
<event>
 4    1  0.3950955E+000  0.1826530E+03  0.7546771E-02  0.1165260E+00
         21   -1    0    0  501  502  0.00000000000E+00  0.00000000000E+00  0.10752609617E+03  0.10752609617E+03  0.00000000000E+00 0.  1.
         21   -1    0    0  502  503 -0.00000000000E+00 -0.00000000000E+00 -0.36536441423E+03  0.36536441423E+03  0.00000000000E+00 0.  1.
          6    1    1    2  501    0 -0.56086681582E+02 -0.16952504206E+02 -0.22073591568E+03  0.28650732577E+03  0.17300000000E+03 0.  1.
         -6    1    1    2    0  503  0.56086681582E+02  0.16952504206E+02 -0.37102402379E+02  0.18638318463E+03  0.17300000000E+03 0.  1.
<mgrwt>
<rscale>  2 0.18265296E+03</rscale>
<asrwt>0</asrwt>
<pdfrwt beam="1">  1       21 0.16542477E-01 0.18265296E+03</pdfrwt>
<pdfrwt beam="2">  1       21 0.56209909E-01 0.18265296E+03</pdfrwt>
<totfact> 0.98075329E+04</totfact>
</mgrwt>
</event>
<event>
 4    1  0.3950955E+000  0.2205387E+03  0.7546771E-02  0.1133482E+00
         21   -1    0    0  503  502  0.00000000000E+00  0.00000000000E+00  0.13346020392E+03  0.13346020392E+03  0.00000000000E+00 0.  1.
         21   -1    0    0  501  503 -0.00000000000E+00 -0.00000000000E+00 -0.67473786703E+03  0.67473786703E+03  0.00000000000E+00 0. -1.
          6    1    1    2  501    0  0.22914491126E+02  0.13484519625E+03 -0.54467921984E+03  0.58763317927E+03  0.17300000000E+03 0. -1.
         -6    1    1    2    0  502 -0.22914491126E+02 -0.13484519625E+03  0.34015567339E+01  0.22056489168E+03  0.17300000000E+03 0.  1.
<mgrwt>
<rscale>  2 0.22053866E+03</rscale>
<asrwt>0</asrwt>
<pdfrwt beam="1">  1       21 0.20532339E-01 0.22053866E+03</pdfrwt>
<pdfrwt beam="2">  1       21 0.10380582E+00 0.22053866E+03</pdfrwt>
<totfact> 0.16216130E+04</totfact>
</mgrwt>
</event>
<event>
 4    1  0.3950955E+000  0.2244812E+03  0.7546771E-02  0.1130586E+00
         21   -1    0    0  503  502  0.00000000000E+00  0.00000000000E+00  0.60227080714E+02  0.60227080714E+02  0.00000000000E+00 0.  1.
         21   -1    0    0  501  503 -0.00000000000E+00 -0.00000000000E+00 -0.10054235413E+04  0.10054235413E+04  0.00000000000E+00 0. -1.
          6    1    1    2  501    0 -0.64682003841E+02  0.12758939682E+03 -0.69087225983E+03  0.72642707494E+03  0.17300000000E+03 0. -1.
         -6    1    1    2    0  502  0.64682003841E+02 -0.12758939682E+03 -0.25432420077E+03  0.33922354709E+03  0.17300000000E+03 0. -1.
<mgrwt>
<rscale>  2 0.22448121E+03</rscale>
<asrwt>0</asrwt>
<pdfrwt beam="1">  1       21 0.92657054E-02 0.22448121E+03</pdfrwt>
<pdfrwt beam="2">  1       21 0.15468053E+00 0.22448121E+03</pdfrwt>
<totfact> 0.25071944E+04</totfact>
</mgrwt>
</event>
<event>
 4    1  0.3950955E+000  0.1731129E+03  0.7546771E-02  0.1174640E+00
         21   -1    0    0  501  502  0.00000000000E+00  0.00000000000E+00  0.36964144141E+02  0.36964144141E+02  0.00000000000E+00 0.  1.
         21   -1    0    0  502  503 -0.00000000000E+00 -0.00000000000E+00 -0.10699259174E+04  0.10699259174E+04  0.00000000000E+00 0.  1.
          6    1    1    2  501    0 -0.56895057325E+01  0.25869457392E+01 -0.24407972982E+03  0.29923732600E+03  0.17300000000E+03 0.  1.
         -6    1    1    2    0  503  0.56895057325E+01 -0.25869457392E+01 -0.78888204349E+03  0.80765273559E+03  0.17300000000E+03 0.  1.
<mgrwt>
<rscale>  2 0.17311286E+03</rscale>
<asrwt>0</asrwt>
<pdfrwt beam="1">  1       21 0.56867911E-02 0.17311286E+03</pdfrwt>
<pdfrwt beam="2">  1       21 0.16460400E+00 0.17311286E+03</pdfrwt>
<totfact> 0.50954399E+04</totfact>
</mgrwt>
</event>
<event>
 4    1  0.3950955E+000  0.2306713E+03  0.7546771E-02  0.1126168E+00
         21   -1    0    0  501  502  0.00000000000E+00  0.00000000000E+00  0.40538758920E+03  0.40538758920E+03  0.00000000000E+00 0.  1.
         21   -1    0    0  502  503 -0.00000000000E+00 -0.00000000000E+00 -0.15209848380E+03  0.15209848380E+03  0.00000000000E+00 0.  1.
          6    1    1    2  501    0  0.13627921357E+03 -0.68616557531E+02  0.23457795706E+02  0.23186100189E+03  0.17300000000E+03 0.  1.
         -6    1    1    2    0  503 -0.13627921357E+03  0.68616557531E+02  0.22983130969E+03  0.32562507111E+03  0.17300000000E+03 0.  1.
<mgrwt>
<rscale>  2 0.23067132E+03</rscale>
<asrwt>0</asrwt>
<pdfrwt beam="1">  1       21 0.62367321E-01 0.23067132E+03</pdfrwt>
<pdfrwt beam="2">  1       21 0.23399767E-01 0.23067132E+03</pdfrwt>
<totfact> 0.40193677E+04</totfact>
</mgrwt>
</event>
<event>
 4    1  0.3950955E+000  0.1757468E+03  0.7546771E-02  0.1171984E+00
         21   -1    0    0  503  502  0.00000000000E+00  0.00000000000E+00  0.73491871876E+02  0.73491871876E+02  0.00000000000E+00 0.  1.
         21   -1    0    0  501  503 -0.00000000000E+00 -0.00000000000E+00 -0.46926918044E+03  0.46926918044E+03  0.00000000000E+00 0.  1.
          6    1    1    2  501    0  0.28854550963E+02  0.11195733659E+02 -0.28557498250E+03  0.33532074227E+03  0.17300000000E+03 0.  1.
         -6    1    1    2    0  502 -0.28854550963E+02 -0.11195733659E+02 -0.11020232606E+03  0.20744031005E+03  0.17300000000E+03 0.  1.
<mgrwt>
<rscale>  2 0.17574678E+03</rscale>
<asrwt>0</asrwt>
<pdfrwt beam="1">  1       21 0.11306442E-01 0.17574678E+03</pdfrwt>
<pdfrwt beam="2">  1       21 0.72195255E-01 0.17574678E+03</pdfrwt>
<totfact> 0.11366462E+05</totfact>
</mgrwt>
</event>
<event>
 4    1  0.3950955E+000  0.1734199E+03  0.7546771E-02  0.1174328E+00
         21   -1    0    0  503  502  0.00000000000E+00  0.00000000000E+00  0.87658830861E+02  0.87658830861E+02  0.00000000000E+00 0. -1.
         21   -1    0    0  501  503 -0.00000000000E+00 -0.00000000000E+00 -0.41610708475E+03  0.41610708475E+03  0.00000000000E+00 0. -1.
          6    1    1    2  501    0  0.93553098746E+01 -0.76107559640E+01 -0.58707033593E+02  0.18308730492E+03  0.17300000000E+03 0. -1.
         -6    1    1    2    0  502 -0.93553098746E+01  0.76107559640E+01 -0.26974122030E+03  0.32067861069E+03  0.17300000000E+03 0. -1.
<mgrwt>
<rscale>  2 0.17341985E+03</rscale>
<asrwt>0</asrwt>
<pdfrwt beam="1">  1       21 0.13485974E-01 0.17341985E+03</pdfrwt>
<pdfrwt beam="2">  1       21 0.64016474E-01 0.17341985E+03</pdfrwt>
<totfact> 0.10797111E+05</totfact>
</mgrwt>
</event>
<event>
 4    1  0.3950955E+000  0.1891183E+03  0.7546771E-02  0.1159259E+00
         21   -1    0    0  503  502  0.00000000000E+00  0.00000000000E+00  0.19523543746E+03  0.19523543746E+03  0.00000000000E+00 0. -1.
         21   -1    0    0  501  503 -0.00000000000E+00 -0.00000000000E+00 -0.62666279263E+03  0.62666279263E+03  0.00000000000E+00 0. -1.
          6    1    1    2  501    0  0.54309934307E+02 -0.53732185751E+02 -0.56141674921E+03  0.59241411449E+03  0.17300000000E+03 0. -1.
         -6    1    1    2    0  502 -0.54309934307E+02  0.53732185751E+02  0.12998939404E+03  0.22948411560E+03  0.17300000000E+03 0. -1.
<mgrwt>
<rscale>  2 0.18911826E+03</rscale>
<asrwt>0</asrwt>
<pdfrwt beam="1">  1       21 0.30036221E-01 0.18911826E+03</pdfrwt>
<pdfrwt beam="2">  1       21 0.96409660E-01 0.18911826E+03</pdfrwt>
<totfact> 0.95377748E+03</totfact>
</mgrwt>
</event>
<event>
 4    1  0.3950955E+000  0.2211436E+03  0.7546771E-02  0.1133033E+00
         21   -1    0    0  503  502  0.00000000000E+00  0.00000000000E+00  0.11744696740E+04  0.11744696740E+04  0.00000000000E+00 0. -1.
         21   -1    0    0  501  503 -0.00000000000E+00 -0.00000000000E+00 -0.14789532455E+03  0.14789532455E+03  0.00000000000E+00 0. -1.
          6    1    1    2  501    0  0.10319575058E+03 -0.91247516585E+02 -0.47141376957E+02  0.22611232085E+03  0.17300000000E+03 0. -1.
         -6    1    1    2    0  502 -0.10319575058E+03  0.91247516585E+02  0.10737157265E+04  0.10962526777E+04  0.17300000000E+03 0. -1.
<mgrwt>
<rscale>  2 0.22114356E+03</rscale>
<asrwt>0</asrwt>
<pdfrwt beam="1">  1       21 0.18068764E+00 0.22114356E+03</pdfrwt>
<pdfrwt beam="2">  1       21 0.22753128E-01 0.22114356E+03</pdfrwt>
<totfact> 0.31778873E+03</totfact>
</mgrwt>
</event>
<event>
 4    1  0.3950955E+000  0.2035853E+03  0.7546771E-02  0.1146749E+00
         21   -1    0    0  501  502  0.00000000000E+00  0.00000000000E+00  0.17571917938E+03  0.17571917938E+03  0.00000000000E+00 0. -1.
         21   -1    0    0  502  503 -0.00000000000E+00 -0.00000000000E+00 -0.37737413994E+03  0.37737413994E+03  0.00000000000E+00 0. -1.
          6    1    1    2  501    0 -0.10051966027E+03 -0.37599917632E+02  0.68515143306E+02  0.21480521588E+03  0.17300000000E+03 0. -1.
         -6    1    1    2    0  503  0.10051966027E+03  0.37599917632E+02 -0.27017010386E+03  0.33828810344E+03  0.17300000000E+03 0. -1.
<mgrwt>
<rscale>  2 0.20358525E+03</rscale>
<asrwt>0</asrwt>
<pdfrwt beam="1">  1       21 0.27033720E-01 0.20358525E+03</pdfrwt>
<pdfrwt beam="2">  1       21 0.58057560E-01 0.20358525E+03</pdfrwt>
<totfact> 0.36041233E+04</totfact>
</mgrwt>
</event>
<event>
 4    1  0.3950955E+000  0.2005802E+03  0.7546771E-02  0.1149250E+00
         21   -1    0    0  501  502  0.00000000000E+00  0.00000000000E+00  0.54438394768E+02  0.54438394768E+02  0.00000000000E+00 0. -1.
         21   -1    0    0  502  503 -0.00000000000E+00 -0.00000000000E+00 -0.74936358493E+03  0.74936358493E+03  0.00000000000E+00 0. -1.
          6    1    1    2  501    0  0.24260249909E+02 -0.98563987050E+02 -0.39462375475E+03  0.44267406416E+03  0.17300000000E+03 0.  1.
         -6    1    1    2    0  503 -0.24260249909E+02  0.98563987050E+02 -0.30030143541E+03  0.36112791553E+03  0.17300000000E+03 0.  1.
<mgrwt>
<rscale>  2 0.20058021E+03</rscale>
<asrwt>0</asrwt>
<pdfrwt beam="1">  1       21 0.83751381E-02 0.20058021E+03</pdfrwt>
<pdfrwt beam="2">  1       21 0.11528670E+00 0.20058021E+03</pdfrwt>
<totfact> 0.64303309E+04</totfact>
</mgrwt>
</event>
<event>
 4    1  0.3950955E+000  0.2061476E+03  0.7546771E-02  0.1144653E+00
         21   -1    0    0  501  502  0.00000000000E+00  0.00000000000E+00  0.16006698744E+03  0.16006698744E+03  0.00000000000E+00 0.  1.
         21   -1    0    0  502  503 -0.00000000000E+00 -0.00000000000E+00 -0.55236789808E+03  0.55236789808E+03  0.00000000000E+00 0.  1.
          6    1    1    2  501    0  0.10393647521E+03 -0.42012574325E+02  0.60561666927E+02  0.21485940236E+03  0.17300000000E+03 0.  1.
         -6    1    1    2    0  503 -0.10393647521E+03  0.42012574325E+02 -0.45286257757E+03  0.49757548316E+03  0.17300000000E+03 0.  1.
<mgrwt>
<rscale>  2 0.20614763E+03</rscale>
<asrwt>0</asrwt>
<pdfrwt beam="1">  1       21 0.24625690E-01 0.20614763E+03</pdfrwt>
<pdfrwt beam="2">  1       21 0.84979677E-01 0.20614763E+03</pdfrwt>
<totfact> 0.18534501E+04</totfact>
</mgrwt>
</event>
<event>
 4    1  0.3950955E+000  0.4421840E+03  0.7546771E-02  0.1030079E+00
         21   -1    0    0  503  502  0.00000000000E+00  0.00000000000E+00  0.98571788811E+03  0.98571788811E+03  0.00000000000E+00 0.  1.
         21   -1    0    0  501  503 -0.00000000000E+00 -0.00000000000E+00 -0.25239478415E+03  0.25239478415E+03  0.00000000000E+00 0.  1.
          6    1    1    2  501    0 -0.25817904112E+03  0.31454935930E+03  0.80225386161E+02  0.44940274731E+03  0.17300000000E+03 0.  1.
         -6    1    1    2    0  502  0.25817904112E+03 -0.31454935930E+03  0.65309771780E+03  0.78870992494E+03  0.17300000000E+03 0.  1.
<mgrwt>
<rscale>  2 0.44218403E+03</rscale>
<asrwt>0</asrwt>
<pdfrwt beam="1">  1       21 0.15164890E+00 0.44218403E+03</pdfrwt>
<pdfrwt beam="2">  1       21 0.38829967E-01 0.44218403E+03</pdfrwt>
<totfact> 0.15874367E+03</totfact>
</mgrwt>
</event>
<event>
 4    1  0.3950955E+000  0.3070281E+03  0.7546771E-02  0.1081779E+00
         21   -1    0    0  503  502  0.00000000000E+00  0.00000000000E+00  0.79564187876E+03  0.79564187876E+03  0.00000000000E+00 0.  1.
         21   -1    0    0  501  503 -0.00000000000E+00 -0.00000000000E+00 -0.16155621614E+03  0.16155621614E+03  0.00000000000E+00 0.  1.
          6    1    1    2  501    0  0.22372215979E+03 -0.11952249345E+03  0.69905840252E+02  0.31488578520E+03  0.17300000000E+03 0.  1.
         -6    1    1    2    0  502 -0.22372215979E+03  0.11952249345E+03  0.56417982236E+03  0.64231230969E+03  0.17300000000E+03 0.  1.
<mgrwt>
<rscale>  2 0.30702806E+03</rscale>
<asrwt>0</asrwt>
<pdfrwt beam="1">  1       21 0.12240644E+00 0.30702806E+03</pdfrwt>
<pdfrwt beam="2">  1       21 0.24854803E-01 0.30702806E+03</pdfrwt>
<totfact> 0.71764151E+03</totfact>
</mgrwt>
</event>
<event>
 4    1  0.3950955E+000  0.2230517E+03  0.7546771E-02  0.1131628E+00
         21   -1    0    0  501  502  0.00000000000E+00  0.00000000000E+00  0.15291686430E+03  0.15291686430E+03  0.00000000000E+00 0. -1.
         21   -1    0    0  502  503 -0.00000000000E+00 -0.00000000000E+00 -0.45645333521E+03  0.45645333521E+03  0.00000000000E+00 0.  1.
          6    1    1    2  501    0 -0.13628348788E+03 -0.35353712768E+02  0.11519548524E+02  0.22334899613E+03  0.17300000000E+03 0. -1.
         -6    1    1    2    0  503  0.13628348788E+03  0.35353712768E+02 -0.31505601943E+03  0.38602120337E+03  0.17300000000E+03 0.  1.
<mgrwt>
<rscale>  2 0.22305173E+03</rscale>
<asrwt>0</asrwt>
<pdfrwt beam="1">  1       21 0.23525671E-01 0.22305173E+03</pdfrwt>
<pdfrwt beam="2">  1       21 0.70223591E-01 0.22305173E+03</pdfrwt>
<totfact> 0.30783780E+04</totfact>
</mgrwt>
</event>
<event>
 4    1  0.3950955E+000  0.2239899E+03  0.7546771E-02  0.1130943E+00
         21   -1    0    0  503  502  0.00000000000E+00  0.00000000000E+00  0.11603096854E+04  0.11603096854E+04  0.00000000000E+00 0.  1.
         21   -1    0    0  501  503 -0.00000000000E+00 -0.00000000000E+00 -0.57720856914E+02  0.57720856914E+02  0.00000000000E+00 0.  1.
          6    1    1    2  501    0  0.13642668701E+03  0.40376394222E+02  0.24625022062E+03  0.33288235954E+03  0.17300000000E+03 0.  1.
         -6    1    1    2    0  502 -0.13642668701E+03 -0.40376394222E+02  0.85633860789E+03  0.88514818280E+03  0.17300000000E+03 0.  1.
<mgrwt>
<rscale>  2 0.22398994E+03</rscale>
<asrwt>0</asrwt>
<pdfrwt beam="1">  1       21 0.17850916E+00 0.22398994E+03</pdfrwt>
<pdfrwt beam="2">  1       21 0.88801327E-02 0.22398994E+03</pdfrwt>
<totfact> 0.18224008E+04</totfact>
</mgrwt>
</event>
<event>
 4    1  0.3950955E+000  0.1943614E+03  0.7546771E-02  0.1154585E+00
         21   -1    0    0  501  502  0.00000000000E+00  0.00000000000E+00  0.84864949209E+03  0.84864949209E+03  0.00000000000E+00 0.  1.
         21   -1    0    0  502  503 -0.00000000000E+00 -0.00000000000E+00 -0.48268755008E+02  0.48268755008E+02  0.00000000000E+00 0.  1.
          6    1    1    2  501    0  0.36991242540E+02 -0.80492342211E+02  0.52527641031E+03  0.56008184796E+03  0.17300000000E+03 0.  1.
         -6    1    1    2    0  503 -0.36991242540E+02  0.80492342211E+02  0.27510432676E+03  0.33683639914E+03  0.17300000000E+03 0.  1.
<mgrwt>
<rscale>  2 0.19436144E+03</rscale>
<asrwt>0</asrwt>
<pdfrwt beam="1">  1       21 0.13056145E+00 0.19436144E+03</pdfrwt>
<pdfrwt beam="2">  1       21 0.74259629E-02 0.19436144E+03</pdfrwt>
<totfact> 0.58343971E+04</totfact>
</mgrwt>
</event>
<event>
 4    1  0.3950955E+000  0.2180171E+03  0.7546771E-02  0.1135370E+00
         21   -1    0    0  501  502  0.00000000000E+00  0.00000000000E+00  0.63591875648E+02  0.63591875648E+02  0.00000000000E+00 0.  1.
         21   -1    0    0  502  503 -0.00000000000E+00 -0.00000000000E+00 -0.78830506275E+03  0.78830506275E+03  0.00000000000E+00 0.  1.
          6    1    1    2  501    0  0.74975865763E+02  0.10945819306E+03 -0.26538255283E+03  0.34345214488E+03  0.17300000000E+03 0.  1.
         -6    1    1    2    0  503 -0.74975865763E+02 -0.10945819306E+03 -0.45933063427E+03  0.50844479352E+03  0.17300000000E+03 0.  1.
<mgrwt>
<rscale>  2 0.21801715E+03</rscale>
<asrwt>0</asrwt>
<pdfrwt beam="1">  1       21 0.97833655E-02 0.21801715E+03</pdfrwt>
<pdfrwt beam="2">  1       21 0.12127770E+00 0.21801715E+03</pdfrwt>
<totfact> 0.42799000E+04</totfact>
</mgrwt>
</event>
<event>
 4    1  0.3950955E+000  0.1747291E+03  0.7546771E-02  0.1173004E+00
         21   -1    0    0  501  502  0.00000000000E+00  0.00000000000E+00  0.36724689323E+03  0.36724689323E+03  0.00000000000E+00 0.  1.
         21   -1    0    0  502  503 -0.00000000000E+00 -0.00000000000E+00 -0.10093457831E+03  0.10093457831E+03  0.00000000000E+00 0.  1.
          6    1    1    2  501    0  0.55422750057E+00  0.24514354482E+02  0.34846542847E+02  0.17816998146E+03  0.17300000000E+03 0.  1.
         -6    1    1    2    0  503 -0.55422750057E+00 -0.24514354482E+02  0.23146577206E+03  0.29001149008E+03  0.17300000000E+03 0.  1.
<mgrwt>
<rscale>  2 0.17472911E+03</rscale>
<asrwt>0</asrwt>
<pdfrwt beam="1">  1       21 0.56499522E-01 0.17472911E+03</pdfrwt>
<pdfrwt beam="2">  1       21 0.15528397E-01 0.17472911E+03</pdfrwt>
<totfact> 0.10923575E+05</totfact>
</mgrwt>
</event>
<event>
 4    1  0.3950955E+000  0.2015855E+03  0.7546771E-02  0.1148408E+00
         21   -1    0    0  503  502  0.00000000000E+00  0.00000000000E+00  0.38391474572E+03  0.38391474572E+03  0.00000000000E+00 0.  1.
         21   -1    0    0  501  503 -0.00000000000E+00 -0.00000000000E+00 -0.10587097454E+03  0.10587097454E+03  0.00000000000E+00 0.  1.
          6    1    1    2  501    0  0.10309793953E+03  0.88612863391E+01  0.13543475756E+03  0.24285650308E+03  0.17300000000E+03 0.  1.
         -6    1    1    2    0  502 -0.10309793953E+03 -0.88612863391E+01  0.14260901362E+03  0.24692921718E+03  0.17300000000E+03 0.  1.
<mgrwt>
<rscale>  2 0.20158548E+03</rscale>
<asrwt>0</asrwt>
<pdfrwt beam="1">  1       21 0.59063807E-01 0.20158548E+03</pdfrwt>
<pdfrwt beam="2">  1       21 0.16287842E-01 0.20158548E+03</pdfrwt>
<totfact> 0.90106989E+04</totfact>
</mgrwt>
</event>
<event>
 4    1  0.3950955E+000  0.2191610E+03  0.7546771E-02  0.1134510E+00
         21   -1    0    0  501  502  0.00000000000E+00  0.00000000000E+00  0.13012610743E+03  0.13012610743E+03  0.00000000000E+00 0.  1.
         21   -1    0    0  502  503 -0.00000000000E+00 -0.00000000000E+00 -0.37390842791E+03  0.37390842791E+03  0.00000000000E+00 0.  1.
          6    1    1    2  501    0 -0.90357360255E+02 -0.99689905558E+02 -0.93357351719E+02  0.23821655052E+03  0.17300000000E+03 0.  1.
         -6    1    1    2    0  503  0.90357360255E+02  0.99689905558E+02 -0.15042496876E+03  0.26581798481E+03  0.17300000000E+03 0.  1.
<mgrwt>
<rscale>  2 0.21916097E+03</rscale>
<asrwt>0</asrwt>
<pdfrwt beam="1">  1       21 0.20019401E-01 0.21916097E+03</pdfrwt>
<pdfrwt beam="2">  1       21 0.57524373E-01 0.21916097E+03</pdfrwt>
<totfact> 0.64567459E+04</totfact>
</mgrwt>
</event>
<event>
 4    1  0.3950955E+000  0.1873364E+03  0.7546771E-02  0.1160886E+00
         21   -1    0    0  503  502  0.00000000000E+00  0.00000000000E+00  0.29104523143E+03  0.29104523143E+03  0.00000000000E+00 0.  1.
         21   -1    0    0  501  503 -0.00000000000E+00 -0.00000000000E+00 -0.12058247847E+03  0.12058247847E+03  0.00000000000E+00 0.  1.
          6    1    1    2  501    0  0.70997156250E+02  0.11195705426E+02  0.85367427926E+02  0.20587019640E+03  0.17300000000E+03 0.  1.
         -6    1    1    2    0  502 -0.70997156250E+02 -0.11195705426E+02  0.85095325035E+02  0.20575751349E+03  0.17300000000E+03 0.  1.
<mgrwt>
<rscale>  2 0.18733644E+03</rscale>
<asrwt>0</asrwt>
<pdfrwt beam="1">  1       21 0.44776189E-01 0.18733644E+03</pdfrwt>
<pdfrwt beam="2">  1       21 0.18551151E-01 0.18733644E+03</pdfrwt>
<totfact> 0.12734405E+05</totfact>
</mgrwt>
</event>
<event>
 4    1  0.3950955E+000  0.1982729E+03  0.7546771E-02  0.1151204E+00
         21   -1    0    0  503  502  0.00000000000E+00  0.00000000000E+00  0.40500302168E+03  0.40500302168E+03  0.00000000000E+00 0. -1.
         21   -1    0    0  501  503 -0.00000000000E+00 -0.00000000000E+00 -0.11215245054E+03  0.11215245054E+03  0.00000000000E+00 0. -1.
          6    1    1    2  501    0 -0.96814243760E+02  0.31875519563E+01  0.24126177836E+03  0.31228096961E+03  0.17300000000E+03 0. -1.
         -6    1    1    2    0  502  0.96814243760E+02 -0.31875519563E+01  0.51588792777E+02  0.20487450262E+03  0.17300000000E+03 0. -1.
<mgrwt>
<rscale>  2 0.19827294E+03</rscale>
<asrwt>0</asrwt>
<pdfrwt beam="1">  1       21 0.62308157E-01 0.19827294E+03</pdfrwt>
<pdfrwt beam="2">  1       21 0.17254223E-01 0.19827294E+03</pdfrwt>
<totfact> 0.72334414E+04</totfact>
</mgrwt>
</event>
<event>
 4    1  0.3950955E+000  0.1787969E+03  0.7546771E-02  0.1168973E+00
         21   -1    0    0  503  502  0.00000000000E+00  0.00000000000E+00  0.79797467984E+02  0.79797467984E+02  0.00000000000E+00 0.  1.
         21   -1    0    0  501  503 -0.00000000000E+00 -0.00000000000E+00 -0.47923129625E+03  0.47923129625E+03  0.00000000000E+00 0.  1.
          6    1    1    2  501    0 -0.44543748267E+02  0.74282481957E+01 -0.31292535325E+03  0.36040338662E+03  0.17300000000E+03 0.  1.
         -6    1    1    2    0  502  0.44543748267E+02 -0.74282481957E+01 -0.86508475009E+02  0.19862537761E+03  0.17300000000E+03 0.  1.
<mgrwt>
<rscale>  2 0.17879688E+03</rscale>
<asrwt>0</asrwt>
<pdfrwt beam="1">  1       21 0.12276534E-01 0.17879688E+03</pdfrwt>
<pdfrwt beam="2">  1       21 0.73727892E-01 0.17879688E+03</pdfrwt>
<totfact> 0.93568673E+04</totfact>
</mgrwt>
</event>
<event>
 4    1  0.3950955E+000  0.1822232E+03  0.7546771E-02  0.1165669E+00
         21   -1    0    0  503  502  0.00000000000E+00  0.00000000000E+00  0.97048337115E+03  0.97048337115E+03  0.00000000000E+00 0. -1.
         21   -1    0    0  501  503 -0.00000000000E+00 -0.00000000000E+00 -0.57384778094E+02  0.57384778094E+02  0.00000000000E+00 0. -1.
          6    1    1    2  501    0 -0.56464268284E+02 -0.93856192496E+01  0.12998558625E+03  0.22383376885E+03  0.17300000000E+03 0. -1.
         -6    1    1    2    0  502  0.56464268284E+02  0.93856192496E+01  0.78311300681E+03  0.80403438040E+03  0.17300000000E+03 0. -1.
<mgrwt>
<rscale>  2 0.18222322E+03</rscale>
<asrwt>0</asrwt>
<pdfrwt beam="1">  1       21 0.14930512E+00 0.18222322E+03</pdfrwt>
<pdfrwt beam="2">  1       21 0.88284281E-02 0.18222322E+03</pdfrwt>
<totfact> 0.30768658E+04</totfact>
</mgrwt>
</event>
<event>
 4    1  0.3950955E+000  0.1754268E+03  0.7546771E-02  0.1172304E+00
         21   -1    0    0  503  502  0.00000000000E+00  0.00000000000E+00  0.11936338958E+04  0.11936338958E+04  0.00000000000E+00 0.  1.
         21   -1    0    0  501  503 -0.00000000000E+00 -0.00000000000E+00 -0.26793748819E+02  0.26793748819E+02  0.00000000000E+00 0.  1.
          6    1    1    2  501    0  0.19544227266E+02 -0.21531167861E+02  0.70198272417E+03  0.72357053080E+03  0.17300000000E+03 0.  1.
         -6    1    1    2    0  502 -0.19544227266E+02  0.21531167861E+02  0.46485742279E+03  0.49685711379E+03  0.17300000000E+03 0.  1.
<mgrwt>
<rscale>  2 0.17542682E+03</rscale>
<asrwt>0</asrwt>
<pdfrwt beam="1">  1       21 0.18363594E+00 0.17542682E+03</pdfrwt>
<pdfrwt beam="2">  1       21 0.41221161E-02 0.17542682E+03</pdfrwt>
<totfact> 0.64725328E+04</totfact>
</mgrwt>
</event>
<event>
 4    1  0.3950955E+000  0.2301616E+03  0.7546771E-02  0.1126526E+00
         21   -1    0    0  503  502  0.00000000000E+00  0.00000000000E+00  0.47609932680E+03  0.47609932680E+03  0.00000000000E+00 0. -1.
         21   -1    0    0  501  503 -0.00000000000E+00 -0.00000000000E+00 -0.13447739529E+03  0.13447739529E+03  0.00000000000E+00 0. -1.
          6    1    1    2  501    0  0.33262427700E+02  0.14811811929E+03  0.43980818106E+02  0.23432600948E+03  0.17300000000E+03 0. -1.
         -6    1    1    2    0  502 -0.33262427700E+02 -0.14811811929E+03  0.29764111340E+03  0.37625071262E+03  0.17300000000E+03 0. -1.
<mgrwt>
<rscale>  2 0.23016161E+03</rscale>
<asrwt>0</asrwt>
<pdfrwt beam="1">  1       21 0.73246049E-01 0.23016161E+03</pdfrwt>
<pdfrwt beam="2">  1       21 0.20688830E-01 0.23016161E+03</pdfrwt>
<totfact> 0.35624172E+04</totfact>
</mgrwt>
</event>
<event>
 4    1  0.3950955E+000  0.2422673E+03  0.7546771E-02  0.1118292E+00
         21   -1    0    0  501  502  0.00000000000E+00  0.00000000000E+00  0.11000757941E+04  0.11000757941E+04  0.00000000000E+00 0.  1.
         21   -1    0    0  502  503 -0.00000000000E+00 -0.00000000000E+00 -0.53399201802E+02  0.53399201802E+02  0.00000000000E+00 0.  1.
          6    1    1    2  501    0  0.15346672686E+03 -0.72196964285E+02  0.54011918445E+03  0.59196467067E+03  0.17300000000E+03 0.  1.
         -6    1    1    2    0  503 -0.15346672686E+03  0.72196964285E+02  0.50655740787E+03  0.56151032526E+03  0.17300000000E+03 0.  1.
<mgrwt>
<rscale>  2 0.24226729E+03</rscale>
<asrwt>0</asrwt>
<pdfrwt beam="1">  1       21 0.16924241E+00 0.24226729E+03</pdfrwt>
<pdfrwt beam="2">  1       21 0.82152626E-02 0.24226729E+03</pdfrwt>
<totfact> 0.23989364E+04</totfact>
</mgrwt>
</event>
<event>
 4    1  0.3950955E+000  0.2256506E+03  0.7546771E-02  0.1129739E+00
         21   -1    0    0  501  502  0.00000000000E+00  0.00000000000E+00  0.54630349341E+02  0.54630349341E+02  0.00000000000E+00 0.  1.
         21   -1    0    0  502  503 -0.00000000000E+00 -0.00000000000E+00 -0.99410440656E+03  0.99410440656E+03  0.00000000000E+00 0.  1.
          6    1    1    2  501    0  0.64924223711E+02  0.12951454444E+03 -0.33872569563E+03  0.40700524435E+03  0.17300000000E+03 0.  1.
         -6    1    1    2    0  503 -0.64924223711E+02 -0.12951454444E+03 -0.60074836159E+03  0.64172951155E+03  0.17300000000E+03 0.  1.
<mgrwt>
<rscale>  2 0.22565055E+03</rscale>
<asrwt>0</asrwt>
<pdfrwt beam="1">  1       21 0.84046694E-02 0.22565055E+03</pdfrwt>
<pdfrwt beam="2">  1       21 0.15293913E+00 0.22565055E+03</pdfrwt>
<totfact> 0.30652903E+04</totfact>
</mgrwt>
</event>
<event>
 4    1  0.3950955E+000  0.2464787E+03  0.7546771E-02  0.1115551E+00
         21   -1    0    0  503  502  0.00000000000E+00  0.00000000000E+00  0.70526060408E+03  0.70526060408E+03  0.00000000000E+00 0.  1.
         21   -1    0    0  501  503 -0.00000000000E+00 -0.00000000000E+00 -0.89986568846E+02  0.89986568846E+02  0.00000000000E+00 0.  1.
          6    1    1    2  501    0 -0.17418927360E+03 -0.21927843147E+02  0.22543675154E+03  0.33402614012E+03  0.17300000000E+03 0.  1.
         -6    1    1    2    0  502  0.17418927360E+03  0.21927843147E+02  0.38983728370E+03  0.46122103280E+03  0.17300000000E+03 0.  1.
<mgrwt>
<rscale>  2 0.24647867E+03</rscale>
<asrwt>0</asrwt>
<pdfrwt beam="1">  1       21 0.10850163E+00 0.24647867E+03</pdfrwt>
<pdfrwt beam="2">  1       21 0.13844088E-01 0.24647867E+03</pdfrwt>
<totfact> 0.29768185E+04</totfact>
</mgrwt>
</event>
<event>
 4    1  0.3950955E+000  0.1739221E+03  0.7546771E-02  0.1173818E+00
         21   -1    0    0  501  502  0.00000000000E+00  0.00000000000E+00  0.21616151133E+04  0.21616151133E+04  0.00000000000E+00 0.  1.
         21   -1    0    0  502  503 -0.00000000000E+00 -0.00000000000E+00 -0.38755564894E+02  0.38755564894E+02  0.00000000000E+00 0.  1.
          6    1    1    2  501    0  0.17315197622E+02  0.44819243796E+01  0.19408386737E+04  0.19486158320E+04  0.17300000000E+03 0.  1.
         -6    1    1    2    0  503 -0.17315197622E+02 -0.44819243796E+01  0.18202087473E+03  0.25175484614E+03  0.17300000000E+03 0.  1.
<mgrwt>
<rscale>  2 0.17392212E+03</rscale>
<asrwt>0</asrwt>
<pdfrwt beam="1">  1       21 0.33255608E+00 0.17392212E+03</pdfrwt>
<pdfrwt beam="2">  1       21 0.59623963E-02 0.17392212E+03</pdfrwt>
<totfact> 0.45201889E+03</totfact>
</mgrwt>
</event>
<event>
 4    1  0.3950955E+000  0.1745260E+03  0.7546771E-02  0.1173208E+00
         21   -1    0    0  501  502  0.00000000000E+00  0.00000000000E+00  0.56573415546E+02  0.56573415546E+02  0.00000000000E+00 0. -1.
         21   -1    0    0  502  503 -0.00000000000E+00 -0.00000000000E+00 -0.64054150319E+03  0.64054150319E+03  0.00000000000E+00 0. -1.
          6    1    1    2  501    0 -0.13895612933E+02 -0.18364129251E+02 -0.15279845804E+03  0.23196270839E+03  0.17300000000E+03 0. -1.
         -6    1    1    2    0  503  0.13895612933E+02  0.18364129251E+02 -0.43116962960E+03  0.46515221035E+03  0.17300000000E+03 0. -1.
<mgrwt>
<rscale>  2 0.17452601E+03</rscale>
<asrwt>0</asrwt>
<pdfrwt beam="1">  1       21 0.87036026E-02 0.17452601E+03</pdfrwt>
<pdfrwt beam="2">  1       21 0.98544844E-01 0.17452601E+03</pdfrwt>
<totfact> 0.88726686E+04</totfact>
</mgrwt>
</event>
<event>
 4    1  0.3950955E+000  0.1743915E+03  0.7546771E-02  0.1173344E+00
         21   -1    0    0  503  502  0.00000000000E+00  0.00000000000E+00  0.89275430631E+02  0.89275430631E+02  0.00000000000E+00 0. -1.
         21   -1    0    0  501  503 -0.00000000000E+00 -0.00000000000E+00 -0.38594890527E+03  0.38594890527E+03  0.00000000000E+00 0. -1.
          6    1    1    2  501    0 -0.61369928663E+01  0.21112150531E+02 -0.22973394170E+03  0.28842688771E+03  0.17300000000E+03 0. -1.
         -6    1    1    2    0  502  0.61369928663E+01 -0.21112150531E+02 -0.66939532933E+02  0.18679744819E+03  0.17300000000E+03 0. -1.
<mgrwt>
<rscale>  2 0.17439147E+03</rscale>
<asrwt>0</asrwt>
<pdfrwt beam="1">  1       21 0.13734682E-01 0.17439147E+03</pdfrwt>
<pdfrwt beam="2">  1       21 0.59376755E-01 0.17439147E+03</pdfrwt>
<totfact> 0.12278033E+05</totfact>
</mgrwt>
</event>
<event>
 4    1  0.3950955E+000  0.1895513E+03  0.7546771E-02  0.1158867E+00
         21   -1    0    0  501  502  0.00000000000E+00  0.00000000000E+00  0.30434299172E+02  0.30434299172E+02  0.00000000000E+00 0.  1.
         21   -1    0    0  502  503 -0.00000000000E+00 -0.00000000000E+00 -0.15999387206E+04  0.15999387206E+04  0.00000000000E+00 0.  1.
          6    1    1    2  501    0  0.13787443463E+02  0.76227393976E+02 -0.36739759399E+03  0.41341347493E+03  0.17300000000E+03 0. -1.
         -6    1    1    2    0  503 -0.13787443463E+02 -0.76227393976E+02 -0.12021068274E+04  0.12169595448E+04  0.17300000000E+03 0. -1.
<mgrwt>
<rscale>  2 0.18955134E+03</rscale>
<asrwt>0</asrwt>
<pdfrwt beam="1">  1       21 0.46821995E-02 0.18955134E+03</pdfrwt>
<pdfrwt beam="2">  1       21 0.24614444E+00 0.18955134E+03</pdfrwt>
<totfact> 0.21118973E+04</totfact>
</mgrwt>
</event>
<event>
 4    1  0.3950955E+000  0.2020705E+03  0.7546771E-02  0.1148004E+00
         21   -1    0    0  501  502  0.00000000000E+00  0.00000000000E+00  0.81834230794E+03  0.81834230794E+03  0.00000000000E+00 0.  1.
         21   -1    0    0  502  503 -0.00000000000E+00 -0.00000000000E+00 -0.77373574877E+02  0.77373574877E+02  0.00000000000E+00 0.  1.
          6    1    1    2  501    0 -0.51697649215E+02 -0.90724049410E+02  0.63737196518E+03  0.66863706304E+03  0.17300000000E+03 0.  1.
         -6    1    1    2    0  503  0.51697649215E+02  0.90724049410E+02  0.10359676789E+03  0.22707881978E+03  0.17300000000E+03 0.  1.
<mgrwt>
<rscale>  2 0.20207053E+03</rscale>
<asrwt>0</asrwt>
<pdfrwt beam="1">  1       21 0.12589881E+00 0.20207053E+03</pdfrwt>
<pdfrwt beam="2">  1       21 0.11903627E-01 0.20207053E+03</pdfrwt>
<totfact> 0.27735390E+04</totfact>
</mgrwt>
</event>
<event>
 4    1  0.3950955E+000  0.1931468E+03  0.7546771E-02  0.1155653E+00
         21   -1    0    0  501  502  0.00000000000E+00  0.00000000000E+00  0.55555370033E+03  0.55555370033E+03  0.00000000000E+00 0.  1.
         21   -1    0    0  502  503 -0.00000000000E+00 -0.00000000000E+00 -0.88850701731E+02  0.88850701731E+02  0.00000000000E+00 0.  1.
          6    1    1    2  501    0  0.84844541451E+02 -0.13344411550E+02  0.39258361436E+03  0.43752435794E+03  0.17300000000E+03 0.  1.
         -6    1    1    2    0  503 -0.84844541451E+02  0.13344411550E+02  0.74119384246E+02  0.20688004412E+03  0.17300000000E+03 0.  1.
<mgrwt>
<rscale>  2 0.19314676E+03</rscale>
<asrwt>0</asrwt>
<pdfrwt beam="1">  1       21 0.85469798E-01 0.19314676E+03</pdfrwt>
<pdfrwt beam="2">  1       21 0.13669339E-01 0.19314676E+03</pdfrwt>
<totfact> 0.54927162E+04</totfact>
</mgrwt>
</event>
<event>
 4    1  0.3950955E+000  0.2040120E+03  0.7546771E-02  0.1146398E+00
         21   -1    0    0  501  502  0.00000000000E+00  0.00000000000E+00  0.35843962148E+03  0.35843962148E+03  0.00000000000E+00 0.  1.
         21   -1    0    0  502  503 -0.00000000000E+00 -0.00000000000E+00 -0.20100098541E+03  0.20100098541E+03  0.00000000000E+00 0.  1.
          6    1    1    2  501    0  0.91771736950E+02 -0.57182602054E+02  0.26049593048E+03  0.33087615731E+03  0.17300000000E+03 0.  1.
         -6    1    1    2    0  503 -0.91771736950E+02  0.57182602054E+02 -0.10305729441E+03  0.22856444958E+03  0.17300000000E+03 0.  1.
<mgrwt>
<rscale>  2 0.20401201E+03</rscale>
<asrwt>0</asrwt>
<pdfrwt beam="1">  1       21 0.55144557E-01 0.20401201E+03</pdfrwt>
<pdfrwt beam="2">  1       21 0.30923229E-01 0.20401201E+03</pdfrwt>
<totfact> 0.30962026E+04</totfact>
</mgrwt>
</event>
<event>
 4    1  0.3950955E+000  0.2512153E+03  0.7546771E-02  0.1112539E+00
         21   -1    0    0  503  502  0.00000000000E+00  0.00000000000E+00  0.43125351896E+03  0.43125351896E+03  0.00000000000E+00 0.  1.
         21   -1    0    0  501  503 -0.00000000000E+00 -0.00000000000E+00 -0.33517892735E+03  0.33517892735E+03  0.00000000000E+00 0.  1.
          6    1    1    2  501    0 -0.16916807749E+03  0.67544584625E+02 -0.23960497602E+03  0.34715940702E+03  0.17300000000E+03 0.  1.
         -6    1    1    2    0  502  0.16916807749E+03 -0.67544584625E+02  0.33567956763E+03  0.41927303929E+03  0.17300000000E+03 0.  1.
<mgrwt>
<rscale>  2 0.25121526E+03</rscale>
<asrwt>0</asrwt>
<pdfrwt beam="1">  1       21 0.66346695E-01 0.25121526E+03</pdfrwt>
<pdfrwt beam="2">  1       21 0.51565989E-01 0.25121526E+03</pdfrwt>
<totfact> 0.71639528E+03</totfact>
</mgrwt>
</event>
<event>
 4    1  0.3950955E+000  0.1903912E+03  0.7546771E-02  0.1158109E+00
         21   -1    0    0  501  502  0.00000000000E+00  0.00000000000E+00  0.85703941208E+03  0.85703941208E+03  0.00000000000E+00 0.  1.
         21   -1    0    0  502  503 -0.00000000000E+00 -0.00000000000E+00 -0.43150232207E+02  0.43150232207E+02  0.00000000000E+00 0. -1.
          6    1    1    2  501    0 -0.78466056632E+02  0.12762099294E+02  0.47029686726E+03  0.50737356709E+03  0.17300000000E+03 0.  1.
         -6    1    1    2    0  503  0.78466056632E+02 -0.12762099294E+02  0.34359231261E+03  0.39281607720E+03  0.17300000000E+03 0.  1.
<mgrwt>
<rscale>  2 0.19039116E+03</rscale>
<asrwt>0</asrwt>
<pdfrwt beam="1">  1       21 0.13185220E+00 0.19039116E+03</pdfrwt>
<pdfrwt beam="2">  1       21 0.66384979E-02 0.19039116E+03</pdfrwt>
<totfact> 0.69208170E+04</totfact>
</mgrwt>
</event>
<event>
 4    1  0.3950955E+000  0.2058258E+03  0.7546771E-02  0.1144915E+00
         21   -1    0    0  503  502  0.00000000000E+00  0.00000000000E+00  0.31523384645E+02  0.31523384645E+02  0.00000000000E+00 0. -1.
         21   -1    0    0  501  503 -0.00000000000E+00 -0.00000000000E+00 -0.13955529133E+04  0.13955529133E+04  0.00000000000E+00 0.  1.
          6    1    1    2  501    0 -0.10968057841E+03 -0.20135378732E+02 -0.81929034942E+03  0.84474903930E+03  0.17300000000E+03 0.  1.
         -6    1    1    2    0  502  0.10968057841E+03  0.20135378732E+02 -0.54473917920E+03  0.58232725860E+03  0.17300000000E+03 0. -1.
<mgrwt>
<rscale>  2 0.20582581E+03</rscale>
<asrwt>0</asrwt>
<pdfrwt beam="1">  1       21 0.48497517E-02 0.20582581E+03</pdfrwt>
<pdfrwt beam="2">  1       21 0.21470044E+00 0.20582581E+03</pdfrwt>
<totfact> 0.30427648E+04</totfact>
</mgrwt>
</event>
<event>
 4    1  0.3950955E+000  0.2088833E+03  0.7546771E-02  0.1142453E+00
         21   -1    0    0  501  502  0.00000000000E+00  0.00000000000E+00  0.60823302170E+03  0.60823302170E+03  0.00000000000E+00 0.  1.
         21   -1    0    0  502  503 -0.00000000000E+00 -0.00000000000E+00 -0.71740235787E+02  0.71740235787E+02  0.00000000000E+00 0.  1.
          6    1    1    2  501    0 -0.11583433500E+03  0.16901268358E+02  0.27083746163E+03  0.34203095863E+03  0.17300000000E+03 0.  1.
         -6    1    1    2    0  503  0.11583433500E+03 -0.16901268358E+02  0.26565532428E+03  0.33794229885E+03  0.17300000000E+03 0.  1.
<mgrwt>
<rscale>  2 0.20888333E+03</rscale>
<asrwt>0</asrwt>
<pdfrwt beam="1">  1       21 0.93574308E-01 0.20888333E+03</pdfrwt>
<pdfrwt beam="2">  1       21 0.11036960E-01 0.20888333E+03</pdfrwt>
<totfact> 0.64876869E+04</totfact>
</mgrwt>
</event>
<event>
 4    1  0.3950955E+000  0.1781622E+03  0.7546771E-02  0.1169594E+00
         21   -1    0    0  503  502  0.00000000000E+00  0.00000000000E+00  0.12281786278E+04  0.12281786278E+04  0.00000000000E+00 0. -1.
         21   -1    0    0  501  503 -0.00000000000E+00 -0.00000000000E+00 -0.25864969862E+02  0.25864969862E+02  0.00000000000E+00 0. -1.
          6    1    1    2  501    0 -0.40440030083E+00 -0.42574602320E+02  0.58355174421E+03  0.61014293282E+03  0.17300000000E+03 0. -1.
         -6    1    1    2    0  502  0.40440030083E+00  0.42574602320E+02  0.61876191378E+03  0.64390066489E+03  0.17300000000E+03 0. -1.
<mgrwt>
<rscale>  2 0.17816217E+03</rscale>
<asrwt>0</asrwt>
<pdfrwt beam="1">  1       21 0.18895051E+00 0.17816217E+03</pdfrwt>
<pdfrwt beam="2">  1       21 0.39792271E-02 0.17816217E+03</pdfrwt>
<totfact> 0.63199416E+04</totfact>
</mgrwt>
</event>
<event>
 4    1  0.3950955E+000  0.2840189E+03  0.7546771E-02  0.1093514E+00
         21   -1    0    0  501  502  0.00000000000E+00  0.00000000000E+00  0.77122247278E+03  0.77122247278E+03  0.00000000000E+00 0.  1.
         21   -1    0    0  502  503 -0.00000000000E+00 -0.00000000000E+00 -0.10461700561E+03  0.10461700561E+03  0.00000000000E+00 0.  1.
          6    1    1    2  501    0 -0.18132604899E+03  0.13363602965E+03  0.33951973691E+03  0.44265152910E+03  0.17300000000E+03 0.  1.
         -6    1    1    2    0  503  0.18132604899E+03 -0.13363602965E+03  0.32708573026E+03  0.43318794928E+03  0.17300000000E+03 0.  1.
<mgrwt>
<rscale>  2 0.28401888E+03</rscale>
<asrwt>0</asrwt>
<pdfrwt beam="1">  1       21 0.11864961E+00 0.28401888E+03</pdfrwt>
<pdfrwt beam="2">  1       21 0.16094924E-01 0.28401888E+03</pdfrwt>
<totfact> 0.17814044E+04</totfact>
</mgrwt>
</event>
<event>
 4    1  0.3950955E+000  0.2301969E+03  0.7546771E-02  0.1126501E+00
         21   -1    0    0  501  502  0.00000000000E+00  0.00000000000E+00  0.30255718704E+03  0.30255718704E+03  0.00000000000E+00 0. -1.
         21   -1    0    0  502  503 -0.00000000000E+00 -0.00000000000E+00 -0.17855741271E+03  0.17855741271E+03  0.00000000000E+00 0. -1.
          6    1    1    2  501    0  0.23149099618E+02  0.15008577098E+03  0.28732402741E+02  0.23198312531E+03  0.17300000000E+03 0. -1.
         -6    1    1    2    0  503 -0.23149099618E+02 -0.15008577098E+03  0.95267371590E+02  0.24913147443E+03  0.17300000000E+03 0. -1.
<mgrwt>
<rscale>  2 0.23019691E+03</rscale>
<asrwt>0</asrwt>
<pdfrwt beam="1">  1       21 0.46547260E-01 0.23019691E+03</pdfrwt>
<pdfrwt beam="2">  1       21 0.27470371E-01 0.23019691E+03</pdfrwt>
<totfact> 0.54933741E+04</totfact>
</mgrwt>
</event>
<event>
 4    1  0.3950955E+000  0.1809091E+03  0.7546771E-02  0.1166926E+00
         21   -1    0    0  503  502  0.00000000000E+00  0.00000000000E+00  0.21863263586E+03  0.21863263586E+03  0.00000000000E+00 0. -1.
         21   -1    0    0  501  503 -0.00000000000E+00 -0.00000000000E+00 -0.32274830726E+03  0.32274830726E+03  0.00000000000E+00 0. -1.
          6    1    1    2  501    0 -0.26431757744E+02 -0.45831002138E+02 -0.25027053346E+03  0.30880974481E+03  0.17300000000E+03 0. -1.
         -6    1    1    2    0  502  0.26431757744E+02  0.45831002138E+02  0.14615486206E+03  0.23257119830E+03  0.17300000000E+03 0. -1.
<mgrwt>
<rscale>  2 0.18090914E+03</rscale>
<asrwt>0</asrwt>
<pdfrwt beam="1">  1       21 0.33635790E-01 0.18090914E+03</pdfrwt>
<pdfrwt beam="2">  1       21 0.49653586E-01 0.18090914E+03</pdfrwt>
<totfact> 0.33119118E+04</totfact>
</mgrwt>
</event>
<event>
 4    1  0.3950955E+000  0.2692258E+03  0.7546771E-02  0.1101724E+00
         21   -1    0    0  501  502  0.00000000000E+00  0.00000000000E+00  0.19781179811E+03  0.19781179811E+03  0.00000000000E+00 0.  1.
         21   -1    0    0  502  503 -0.00000000000E+00 -0.00000000000E+00 -0.52089667648E+03  0.52089667648E+03  0.00000000000E+00 0.  1.
          6    1    1    2  501    0 -0.15944525844E+03  0.13088445064E+03  0.34150918464E+02  0.27138315182E+03  0.17300000000E+03 0.  1.
         -6    1    1    2    0  503  0.15944525844E+03 -0.13088445064E+03 -0.35723579683E+03  0.44732532278E+03  0.17300000000E+03 0.  1.
<mgrwt>
<rscale>  2 0.26922580E+03</rscale>
<asrwt>0</asrwt>
<pdfrwt beam="1">  1       21 0.30432584E-01 0.26922580E+03</pdfrwt>
<pdfrwt beam="2">  1       21 0.80137950E-01 0.26922580E+03</pdfrwt>
<totfact> 0.13589904E+04</totfact>
</mgrwt>
</event>
<event>
 4    1  0.3950955E+000  0.2223929E+03  0.7546771E-02  0.1132112E+00
         21   -1    0    0  503  502  0.00000000000E+00  0.00000000000E+00  0.61336774471E+03  0.61336774471E+03  0.00000000000E+00 0.  1.
         21   -1    0    0  501  503 -0.00000000000E+00 -0.00000000000E+00 -0.90333225523E+02  0.90333225523E+02  0.00000000000E+00 0. -1.
          6    1    1    2  501    0  0.10016932773E+03 -0.97445822638E+02  0.37680746621E+03  0.43754136851E+03  0.17300000000E+03 0.  1.
         -6    1    1    2    0  502 -0.10016932773E+03  0.97445822638E+02  0.14622705298E+03  0.26615960172E+03  0.17300000000E+03 0. -1.
<mgrwt>
<rscale>  2 0.22239286E+03</rscale>
<asrwt>0</asrwt>
<pdfrwt beam="1">  1       21 0.94364266E-01 0.22239286E+03</pdfrwt>
<pdfrwt beam="2">  1       21 0.13897420E-01 0.22239286E+03</pdfrwt>
<totfact> 0.41761190E+04</totfact>
</mgrwt>
</event>
<event>
 4    1  0.3950955E+000  0.1927076E+03  0.7546771E-02  0.1156042E+00
         21   -1    0    0  503  502  0.00000000000E+00  0.00000000000E+00  0.10095196825E+04  0.10095196825E+04  0.00000000000E+00 0. -1.
         21   -1    0    0  501  503 -0.00000000000E+00 -0.00000000000E+00 -0.48052567978E+02  0.48052567978E+02  0.00000000000E+00 0.  1.
          6    1    1    2  501    0  0.52320325350E+02  0.66856519751E+02  0.22468802859E+03  0.29600831216E+03  0.17300000000E+03 0.  1.
         -6    1    1    2    0  502 -0.52320325350E+02 -0.66856519751E+02  0.73677908597E+03  0.76156393835E+03  0.17300000000E+03 0. -1.
<mgrwt>
<rscale>  2 0.19270758E+03</rscale>
<asrwt>0</asrwt>
<pdfrwt beam="1">  1       21 0.15531071E+00 0.19270758E+03</pdfrwt>
<pdfrwt beam="2">  1       21 0.73927035E-02 0.19270758E+03</pdfrwt>
<totfact> 0.37522427E+04</totfact>
</mgrwt>
</event>
<event>
 4    1  0.3950955E+000  0.2326313E+03  0.7546771E-02  0.1124801E+00
         21   -1    0    0  503  502  0.00000000000E+00  0.00000000000E+00  0.72853375361E+02  0.72853375361E+02  0.00000000000E+00 0.  1.
         21   -1    0    0  501  503 -0.00000000000E+00 -0.00000000000E+00 -0.74724394898E+03  0.74724394898E+03  0.00000000000E+00 0. -1.
          6    1    1    2  501    0 -0.43467420996E+02  0.14932816554E+03 -0.36872772193E+03  0.43597872727E+03  0.17300000000E+03 0.  1.
         -6    1    1    2    0  502  0.43467420996E+02 -0.14932816554E+03 -0.30566285169E+03  0.38411859707E+03  0.17300000000E+03 0.  1.
<mgrwt>
<rscale>  2 0.23263129E+03</rscale>
<asrwt>0</asrwt>
<pdfrwt beam="1">  1       21 0.11208211E-01 0.23263129E+03</pdfrwt>
<pdfrwt beam="2">  1       21 0.11496061E+00 0.23263129E+03</pdfrwt>
<totfact> 0.38079692E+04</totfact>
</mgrwt>
</event>
<event>
 4    1  0.3950955E+000  0.1926931E+03  0.7546771E-02  0.1156054E+00
         21   -1    0    0  501  502  0.00000000000E+00  0.00000000000E+00  0.12933259956E+03  0.12933259956E+03  0.00000000000E+00 0. -1.
         21   -1    0    0  502  503 -0.00000000000E+00 -0.00000000000E+00 -0.29008935164E+03  0.29008935164E+03  0.00000000000E+00 0.  1.
          6    1    1    2  501    0  0.17008937195E+02 -0.83140484833E+02 -0.59069433637E+02  0.20154364826E+03  0.17300000000E+03 0.  1.
         -6    1    1    2    0  503 -0.17008937195E+02  0.83140484833E+02 -0.10168731844E+03  0.21787830294E+03  0.17300000000E+03 0.  1.
<mgrwt>
<rscale>  2 0.19269313E+03</rscale>
<asrwt>0</asrwt>
<pdfrwt beam="1">  1       21 0.19897323E-01 0.19269313E+03</pdfrwt>
<pdfrwt beam="2">  1       21 0.44629131E-01 0.19269313E+03</pdfrwt>
<totfact> 0.11233656E+05</totfact>
</mgrwt>
</event>
<event>
 4    1  0.3950955E+000  0.1844708E+03  0.7546771E-02  0.1163545E+00
         21   -1    0    0  503  502  0.00000000000E+00  0.00000000000E+00  0.62437523735E+03  0.62437523735E+03  0.00000000000E+00 0. -1.
         21   -1    0    0  501  503 -0.00000000000E+00 -0.00000000000E+00 -0.55666044611E+02  0.55666044611E+02  0.00000000000E+00 0. -1.
          6    1    1    2  501    0  0.37910937445E+01 -0.63922702820E+02  0.33353126404E+03  0.38114641337E+03  0.17300000000E+03 0.  1.
         -6    1    1    2    0  502 -0.37910937445E+01  0.63922702820E+02  0.23517792870E+03  0.29889486860E+03  0.17300000000E+03 0.  1.
<mgrwt>
<rscale>  2 0.18447082E+03</rscale>
<asrwt>0</asrwt>
<pdfrwt beam="1">  1       21 0.96057724E-01 0.18447082E+03</pdfrwt>
<pdfrwt beam="2">  1       21 0.85640073E-02 0.18447082E+03</pdfrwt>
<totfact> 0.96502104E+04</totfact>
</mgrwt>
</event>
<event>
 4    1  0.3950955E+000  0.1778764E+03  0.7546771E-02  0.1169874E+00
         21   -1    0    0  501  502  0.00000000000E+00  0.00000000000E+00  0.43368239305E+02  0.43368239305E+02  0.00000000000E+00 0.  1.
         21   -1    0    0  502  503 -0.00000000000E+00 -0.00000000000E+00 -0.80609958312E+03  0.80609958312E+03  0.00000000000E+00 0.  1.
          6    1    1    2  501    0  0.40286234144E+02  0.93830761128E+01 -0.25049369717E+03  0.30722486081E+03  0.17300000000E+03 0.  1.
         -6    1    1    2    0  503 -0.40286234144E+02 -0.93830761128E+01 -0.51223764665E+03  0.54224296162E+03  0.17300000000E+03 0.  1.
<mgrwt>
<rscale>  2 0.17787643E+03</rscale>
<asrwt>0</asrwt>
<pdfrwt beam="1">  1       21 0.66720375E-02 0.17787643E+03</pdfrwt>
<pdfrwt beam="2">  1       21 0.12401531E+00 0.17787643E+03</pdfrwt>
<totfact> 0.80502869E+04</totfact>
</mgrwt>
</event>
<event>
 4    1  0.3950955E+000  0.2426580E+03  0.7546771E-02  0.1118035E+00
         21   -1    0    0  503  502  0.00000000000E+00  0.00000000000E+00  0.14692539223E+04  0.14692539223E+04  0.00000000000E+00 0.  1.
         21   -1    0    0  501  503 -0.00000000000E+00 -0.00000000000E+00 -0.86184400761E+02  0.86184400761E+02  0.00000000000E+00 0. -1.
          6    1    1    2  501    0  0.54733524062E+02  0.16111538642E+03  0.12268844465E+03  0.27191061187E+03  0.17300000000E+03 0. -1.
         -6    1    1    2    0  502 -0.54733524062E+02 -0.16111538642E+03  0.12603810769E+04  0.12835277112E+04  0.17300000000E+03 0.  1.
<mgrwt>
<rscale>  2 0.24265804E+03</rscale>
<asrwt>0</asrwt>
<pdfrwt beam="1">  1       21 0.22603905E+00 0.24265804E+03</pdfrwt>
<pdfrwt beam="2">  1       21 0.13259140E-01 0.24265804E+03</pdfrwt>
<totfact> 0.43326812E+03</totfact>
</mgrwt>
</event>
<event>
 4    1  0.3950955E+000  0.1913402E+03  0.7546771E-02  0.1157258E+00
         21   -1    0    0  501  502  0.00000000000E+00  0.00000000000E+00  0.79832716257E+02  0.79832716257E+02  0.00000000000E+00 0.  1.
         21   -1    0    0  502  503 -0.00000000000E+00 -0.00000000000E+00 -0.13456504237E+04  0.13456504237E+04  0.00000000000E+00 0.  1.
          6    1    1    2  501    0  0.40349351988E+02  0.71091539169E+02 -0.54225819105E+02  0.19887563100E+03  0.17300000000E+03 0.  1.
         -6    1    1    2    0  503 -0.40349351988E+02 -0.71091539169E+02 -0.12115918883E+04  0.12266075090E+04  0.17300000000E+03 0.  1.
<mgrwt>
<rscale>  2 0.19134021E+03</rscale>
<asrwt>0</asrwt>
<pdfrwt beam="1">  1       21 0.12281957E-01 0.19134021E+03</pdfrwt>
<pdfrwt beam="2">  1       21 0.20702313E+00 0.19134021E+03</pdfrwt>
<totfact> 0.68277447E+03</totfact>
</mgrwt>
</event>
<event>
 4    1  0.3950955E+000  0.2180997E+03  0.7546771E-02  0.1135308E+00
         21   -1    0    0  503  502  0.00000000000E+00  0.00000000000E+00  0.18578174631E+03  0.18578174631E+03  0.00000000000E+00 0.  1.
         21   -1    0    0  501  503 -0.00000000000E+00 -0.00000000000E+00 -0.27706170641E+03  0.27706170641E+03  0.00000000000E+00 0.  1.
          6    1    1    2  501    0  0.79968714281E+02 -0.10603520800E+03  0.18106365626E+02  0.21884995105E+03  0.17300000000E+03 0.  1.
         -6    1    1    2    0  502 -0.79968714281E+02  0.10603520800E+03 -0.10938632573E+03  0.24399350167E+03  0.17300000000E+03 0.  1.
<mgrwt>
<rscale>  2 0.21809966E+03</rscale>
<asrwt>0</asrwt>
<pdfrwt beam="1">  1       21 0.28581807E-01 0.21809966E+03</pdfrwt>
<pdfrwt beam="2">  1       21 0.42624878E-01 0.21809966E+03</pdfrwt>
<totfact> 0.61281144E+04</totfact>
</mgrwt>
</event>
<event>
 4    1  0.3950955E+000  0.2211970E+03  0.7546771E-02  0.1132994E+00
         21   -1    0    0  501  502  0.00000000000E+00  0.00000000000E+00  0.27889125260E+02  0.27889125260E+02  0.00000000000E+00 0. -1.
         21   -1    0    0  502  503 -0.00000000000E+00 -0.00000000000E+00 -0.21245530941E+04  0.21245530941E+04  0.00000000000E+00 0.  1.
          6    1    1    2  501    0 -0.13076834860E+03  0.43574880715E+02 -0.59910071804E+03  0.63863119372E+03  0.17300000000E+03 0. -1.
         -6    1    1    2    0  503  0.13076834860E+03 -0.43574880715E+02 -0.14975632507E+04  0.15138110256E+04  0.17300000000E+03 0.  1.
<mgrwt>
<rscale>  2 0.22119704E+03</rscale>
<asrwt>0</asrwt>
<pdfrwt beam="1">  1       21 0.42906335E-02 0.22119704E+03</pdfrwt>
<pdfrwt beam="2">  1       21 0.32685441E+00 0.22119704E+03</pdfrwt>
<totfact> 0.80623022E+03</totfact>
</mgrwt>
</event>
<event>
 4    1  0.3950955E+000  0.2052624E+03  0.7546771E-02  0.1145374E+00
         21   -1    0    0  503  502  0.00000000000E+00  0.00000000000E+00  0.96281057830E+02  0.96281057830E+02  0.00000000000E+00 0.  1.
         21   -1    0    0  501  503 -0.00000000000E+00 -0.00000000000E+00 -0.50026351573E+03  0.50026351573E+03  0.00000000000E+00 0.  1.
          6    1    1    2  501    0 -0.10926626877E+03  0.16264508345E+02 -0.96426538596E+02  0.22678344090E+03  0.17300000000E+03 0.  1.
         -6    1    1    2    0  502  0.10926626877E+03 -0.16264508345E+02 -0.30755591930E+03  0.36976113266E+03  0.17300000000E+03 0.  1.
<mgrwt>
<rscale>  2 0.20526240E+03</rscale>
<asrwt>0</asrwt>
<pdfrwt beam="1">  1       21 0.14812471E-01 0.20526240E+03</pdfrwt>
<pdfrwt beam="2">  1       21 0.76963616E-01 0.20526240E+03</pdfrwt>
<totfact> 0.59867696E+04</totfact>
</mgrwt>
</event>
<event>
 4    1  0.3950955E+000  0.4369445E+03  0.7546771E-02  0.1031688E+00
         21   -1    0    0  501  502  0.00000000000E+00  0.00000000000E+00  0.30037445339E+03  0.30037445339E+03  0.00000000000E+00 0.  1.
         21   -1    0    0  502  503 -0.00000000000E+00 -0.00000000000E+00 -0.71220187284E+03  0.71220187284E+03  0.00000000000E+00 0. -1.
          6    1    1    2  501    0  0.18082247057E+03 -0.35818259654E+03 -0.37194577871E+03  0.57381547612E+03  0.17300000000E+03 0. -1.
         -6    1    1    2    0  503 -0.18082247057E+03  0.35818259654E+03 -0.39881640735E+02  0.43876085012E+03  0.17300000000E+03 0.  1.
<mgrwt>
<rscale>  2 0.43694455E+03</rscale>
<asrwt>0</asrwt>
<pdfrwt beam="1">  1       21 0.46211454E-01 0.43694455E+03</pdfrwt>
<pdfrwt beam="2">  1       21 0.10956952E+00 0.43694455E+03</pdfrwt>
<totfact> 0.25738717E+03</totfact>
</mgrwt>
</event>
<event>
 4    1  0.3950955E+000  0.2405571E+03  0.7546771E-02  0.1119422E+00
         21   -1    0    0  503  502  0.00000000000E+00  0.00000000000E+00  0.96830588039E+02  0.96830588039E+02  0.00000000000E+00 0. -1.
         21   -1    0    0  501  503 -0.00000000000E+00 -0.00000000000E+00 -0.97360105848E+03  0.97360105848E+03  0.00000000000E+00 0.  1.
          6    1    1    2  501    0  0.15811036771E+03 -0.54220396432E+02 -0.77098530879E+03  0.80764230086E+03  0.17300000000E+03 0. -1.
         -6    1    1    2    0  502 -0.15811036771E+03  0.54220396432E+02 -0.10578516166E+03  0.26278934567E+03  0.17300000000E+03 0.  1.
<mgrwt>
<rscale>  2 0.24055714E+03</rscale>
<asrwt>0</asrwt>
<pdfrwt beam="1">  1       21 0.14897013E-01 0.24055714E+03</pdfrwt>
<pdfrwt beam="2">  1       21 0.14978478E+00 0.24055714E+03</pdfrwt>
<totfact> 0.11534676E+04</totfact>
</mgrwt>
</event>
<event>
 4    1  0.3950955E+000  0.2213364E+03  0.7546771E-02  0.1132891E+00
         21   -1    0    0  503  502  0.00000000000E+00  0.00000000000E+00  0.74600190079E+03  0.74600190079E+03  0.00000000000E+00 0.  1.
         21   -1    0    0  501  503 -0.00000000000E+00 -0.00000000000E+00 -0.11536957010E+03  0.11536957010E+03  0.00000000000E+00 0. -1.
          6    1    1    2  501    0 -0.64457139920E+02 -0.12209037362E+03  0.32638094248E+02  0.22372980895E+03  0.17300000000E+03 0. -1.
         -6    1    1    2    0  502  0.64457139920E+02  0.12209037362E+03  0.59799423644E+03  0.63764166193E+03  0.17300000000E+03 0.  1.
<mgrwt>
<rscale>  2 0.22133636E+03</rscale>
<asrwt>0</asrwt>
<pdfrwt beam="1">  1       21 0.11476952E+00 0.22133636E+03</pdfrwt>
<pdfrwt beam="2">  1       21 0.17749165E-01 0.22133636E+03</pdfrwt>
<totfact> 0.16669421E+04</totfact>
</mgrwt>
</event>
<event>
 4    1  0.3950955E+000  0.2078254E+03  0.7546771E-02  0.1143300E+00
         21   -1    0    0  501  502  0.00000000000E+00  0.00000000000E+00  0.20064045026E+04  0.20064045026E+04  0.00000000000E+00 0.  1.
         21   -1    0    0  502  503 -0.00000000000E+00 -0.00000000000E+00 -0.21539983947E+02  0.21539983947E+02  0.00000000000E+00 0. -1.
          6    1    1    2  501    0 -0.11507266183E+03  0.45459222499E+01  0.96730604021E+03  0.98937978468E+03  0.17300000000E+03 0.  1.
         -6    1    1    2    0  503  0.11507266183E+03 -0.45459222499E+01  0.10175584785E+04  0.10385647019E+04  0.17300000000E+03 0.  1.
<mgrwt>
<rscale>  2 0.20782537E+03</rscale>
<asrwt>0</asrwt>
<pdfrwt beam="1">  1       21 0.30867747E+00 0.20782537E+03</pdfrwt>
<pdfrwt beam="2">  1       21 0.33138453E-02 0.20782537E+03</pdfrwt>
<totfact> 0.16073362E+04</totfact>
</mgrwt>
</event>
<event>
 4    1  0.3950955E+000  0.1732999E+03  0.7546771E-02  0.1174450E+00
         21   -1    0    0  501  502  0.00000000000E+00  0.00000000000E+00  0.24352719367E+03  0.24352719367E+03  0.00000000000E+00 0. -1.
         21   -1    0    0  502  503 -0.00000000000E+00 -0.00000000000E+00 -0.64361126767E+03  0.64361126767E+03  0.00000000000E+00 0. -1.
          6    1    1    2  501    0 -0.49230878675E+01  0.89230565670E+01  0.19877252148E+03  0.26371077533E+03  0.17300000000E+03 0. -1.
         -6    1    1    2    0  503  0.49230878675E+01 -0.89230565670E+01 -0.59885659548E+03  0.62342768601E+03  0.17300000000E+03 0. -1.
<mgrwt>
<rscale>  2 0.17329991E+03</rscale>
<asrwt>0</asrwt>
<pdfrwt beam="1">  1       21 0.37465722E-01 0.17329991E+03</pdfrwt>
<pdfrwt beam="2">  1       21 0.99017117E-01 0.17329991E+03</pdfrwt>
<totfact> 0.58637126E+03</totfact>
</mgrwt>
</event>
<event>
 4    1  0.3950955E+000  0.2240583E+03  0.7546771E-02  0.1130893E+00
         21   -1    0    0  503  502  0.00000000000E+00  0.00000000000E+00  0.15039831628E+03  0.15039831628E+03  0.00000000000E+00 0.  1.
         21   -1    0    0  501  503 -0.00000000000E+00 -0.00000000000E+00 -0.34598051698E+03  0.34598051698E+03  0.00000000000E+00 0.  1.
          6    1    1    2  501    0 -0.14234249900E+03  0.34228473472E+01 -0.51211942829E+02  0.22983638962E+03  0.17300000000E+03 0.  1.
         -6    1    1    2    0  502  0.14234249900E+03 -0.34228473472E+01 -0.14437025787E+03  0.26654244365E+03  0.17300000000E+03 0.  1.
<mgrwt>
<rscale>  2 0.22405826E+03</rscale>
<asrwt>0</asrwt>
<pdfrwt beam="1">  1       21 0.23138203E-01 0.22405826E+03</pdfrwt>
<pdfrwt beam="2">  1       21 0.53227771E-01 0.22405826E+03</pdfrwt>
<totfact> 0.57821808E+04</totfact>
</mgrwt>
</event>
<event>
 4    1  0.3950955E+000  0.1917276E+03  0.7546771E-02  0.1156912E+00
         21   -1    0    0  501  502  0.00000000000E+00  0.00000000000E+00  0.79739548699E+02  0.79739548699E+02  0.00000000000E+00 0.  1.
         21   -1    0    0  502  503 -0.00000000000E+00 -0.00000000000E+00 -0.47792842739E+03  0.47792842739E+03  0.00000000000E+00 0.  1.
          6    1    1    2  501    0 -0.70005644378E+02  0.43928044932E+02 -0.14660789858E+03  0.24135728558E+03  0.17300000000E+03 0.  1.
         -6    1    1    2    0  503  0.70005644378E+02 -0.43928044932E+02 -0.25158098011E+03  0.31631069051E+03  0.17300000000E+03 0.  1.
<mgrwt>
<rscale>  2 0.19172758E+03</rscale>
<asrwt>0</asrwt>
<pdfrwt beam="1">  1       21 0.12267623E-01 0.19172758E+03</pdfrwt>
<pdfrwt beam="2">  1       21 0.73527450E-01 0.19172758E+03</pdfrwt>
<totfact> 0.93778073E+04</totfact>
</mgrwt>
</event>
<event>
 4    1  0.3950955E+000  0.3028155E+03  0.7546771E-02  0.1083842E+00
         21   -1    0    0  501  502  0.00000000000E+00  0.00000000000E+00  0.76226969472E+03  0.76226969472E+03  0.00000000000E+00 0. -1.
         21   -1    0    0  502  503 -0.00000000000E+00 -0.00000000000E+00 -0.85481638084E+03  0.85481638084E+03  0.00000000000E+00 0.  1.
          6    1    1    2  501    0  0.16525783705E+03  0.18562885285E+03  0.70322201672E+03  0.76564902437E+03  0.17300000000E+03 0. -1.
         -6    1    1    2    0  503 -0.16525783705E+03 -0.18562885285E+03 -0.79576870285E+03  0.85143705119E+03  0.17300000000E+03 0.  1.
<mgrwt>
<rscale>  2 0.30281549E+03</rscale>
<asrwt>0</asrwt>
<pdfrwt beam="1">  1       21 0.11727226E+00 0.30281549E+03</pdfrwt>
<pdfrwt beam="2">  1       21 0.13151021E+00 0.30281549E+03</pdfrwt>
<totfact> 0.21028562E+02</totfact>
</mgrwt>
</event>
<event>
 4    1  0.3950955E+000  0.2184684E+03  0.7546771E-02  0.1135030E+00
         21   -1    0    0  503  502  0.00000000000E+00  0.00000000000E+00  0.46148303078E+03  0.46148303078E+03  0.00000000000E+00 0. -1.
         21   -1    0    0  501  503 -0.00000000000E+00 -0.00000000000E+00 -0.15771509513E+03  0.15771509513E+03  0.00000000000E+00 0. -1.
          6    1    1    2  501    0 -0.38420883371E+02 -0.12776251810E+03 -0.29762630763E+02  0.22048637033E+03  0.17300000000E+03 0. -1.
         -6    1    1    2    0  502  0.38420883371E+02  0.12776251810E+03  0.33353056641E+03  0.39871175559E+03  0.17300000000E+03 0. -1.
<mgrwt>
<rscale>  2 0.21846836E+03</rscale>
<asrwt>0</asrwt>
<pdfrwt beam="1">  1       21 0.70997389E-01 0.21846836E+03</pdfrwt>
<pdfrwt beam="2">  1       21 0.24263861E-01 0.21846836E+03</pdfrwt>
<totfact> 0.28392879E+04</totfact>
</mgrwt>
</event>
<event>
 4    1  0.3950955E+000  0.1867853E+03  0.7546771E-02  0.1161393E+00
         21   -1    0    0  503  502  0.00000000000E+00  0.00000000000E+00  0.88994625700E+02  0.88994625700E+02  0.00000000000E+00 0.  1.
         21   -1    0    0  501  503 -0.00000000000E+00 -0.00000000000E+00 -0.71409981041E+03  0.71409981041E+03  0.00000000000E+00 0.  1.
          6    1    1    2  501    0  0.49465920790E+02 -0.50128592858E+02 -0.58222141043E+03  0.61144952687E+03  0.17300000000E+03 0.  1.
         -6    1    1    2    0  502 -0.49465920790E+02  0.50128592858E+02 -0.42883774275E+02  0.19164490924E+03  0.17300000000E+03 0.  1.
<mgrwt>
<rscale>  2 0.18678531E+03</rscale>
<asrwt>0</asrwt>
<pdfrwt beam="1">  1       21 0.13691481E-01 0.18678531E+03</pdfrwt>
<pdfrwt beam="2">  1       21 0.10986151E+00 0.18678531E+03</pdfrwt>
<totfact> 0.30428193E+04</totfact>
</mgrwt>
</event>
<event>
 4    1  0.3950955E+000  0.2673576E+03  0.7546771E-02  0.1102801E+00
         21   -1    0    0  501  502  0.00000000000E+00  0.00000000000E+00  0.39271580756E+03  0.39271580756E+03  0.00000000000E+00 0. -1.
         21   -1    0    0  502  503 -0.00000000000E+00 -0.00000000000E+00 -0.22610821868E+03  0.22610821868E+03  0.00000000000E+00 0.  1.
          6    1    1    2  501    0  0.20337293360E+03  0.13804377325E+02  0.21993994244E+03  0.34619891571E+03  0.17300000000E+03 0. -1.
         -6    1    1    2    0  503 -0.20337293360E+03 -0.13804377325E+02 -0.53332353561E+02  0.27262511053E+03  0.17300000000E+03 0.  1.
<mgrwt>
<rscale>  2 0.26735765E+03</rscale>
<asrwt>0</asrwt>
<pdfrwt beam="1">  1       21 0.60417816E-01 0.26735765E+03</pdfrwt>
<pdfrwt beam="2">  1       21 0.34785880E-01 0.26735765E+03</pdfrwt>
<totfact> 0.19547239E+04</totfact>
</mgrwt>
</event>
<event>
 4    1  0.3950955E+000  0.2143589E+03  0.7546771E-02  0.1138160E+00
         21   -1    0    0  501  502  0.00000000000E+00  0.00000000000E+00  0.16243605565E+04  0.16243605565E+04  0.00000000000E+00 0.  1.
         21   -1    0    0  502  503 -0.00000000000E+00 -0.00000000000E+00 -0.30921296479E+02  0.30921296479E+02  0.00000000000E+00 0. -1.
          6    1    1    2  501    0 -0.97445993140E+02 -0.80777516660E+02  0.55518897344E+03  0.59513403953E+03  0.17300000000E+03 0. -1.
         -6    1    1    2    0  503  0.97445993140E+02  0.80777516660E+02  0.10382502866E+04  0.10601478134E+04  0.17300000000E+03 0.  1.
<mgrwt>
<rscale>  2 0.21435888E+03</rscale>
<asrwt>0</asrwt>
<pdfrwt beam="1">  1       21 0.24990156E+00 0.21435888E+03</pdfrwt>
<pdfrwt beam="2">  1       21 0.47571238E-02 0.21435888E+03</pdfrwt>
<totfact> 0.19129425E+04</totfact>
</mgrwt>
</event>
<event>
 4    1  0.3950955E+000  0.1760088E+03  0.7546771E-02  0.1171723E+00
         21   -1    0    0  501  502  0.00000000000E+00  0.00000000000E+00  0.15817954421E+04  0.15817954421E+04  0.00000000000E+00 0. -1.
         21   -1    0    0  502  503 -0.00000000000E+00 -0.00000000000E+00 -0.13585738142E+03  0.13585738142E+03  0.00000000000E+00 0. -1.
          6    1    1    2  501    0  0.23958443152E+02 -0.21819250836E+02  0.15174847625E+04  0.15276580413E+04  0.17300000000E+03 0. -1.
         -6    1    1    2    0  503 -0.23958443152E+02  0.21819250836E+02 -0.71546701875E+02  0.18999478218E+03  0.17300000000E+03 0. -1.
<mgrwt>
<rscale>  2 0.17600877E+03</rscale>
<asrwt>0</asrwt>
<pdfrwt beam="1">  1       21 0.24335313E+00 0.17600877E+03</pdfrwt>
<pdfrwt beam="2">  1       21 0.20901137E-01 0.17600877E+03</pdfrwt>
<totfact> 0.15784550E+03</totfact>
</mgrwt>
</event>
<event>
 4    1  0.3950955E+000  0.1950959E+03  0.7546771E-02  0.1153944E+00
         21   -1    0    0  503  502  0.00000000000E+00  0.00000000000E+00  0.31014252536E+02  0.31014252536E+02  0.00000000000E+00 0. -1.
         21   -1    0    0  501  503 -0.00000000000E+00 -0.00000000000E+00 -0.12889783883E+04  0.12889783883E+04  0.00000000000E+00 0. -1.
          6    1    1    2  501    0 -0.89601057808E+02 -0.10249666424E+02 -0.77340713764E+03  0.79763463176E+03  0.17300000000E+03 0. -1.
         -6    1    1    2    0  502  0.89601057808E+02  0.10249666424E+02 -0.48455699815E+03  0.52235800910E+03  0.17300000000E+03 0. -1.
<mgrwt>
<rscale>  2 0.19509589E+03</rscale>
<asrwt>0</asrwt>
<pdfrwt beam="1">  1       21 0.47714224E-02 0.19509589E+03</pdfrwt>
<pdfrwt beam="2">  1       21 0.19830441E+00 0.19509589E+03</pdfrwt>
<totfact> 0.40023885E+04</totfact>
</mgrwt>
</event>
<event>
 4    1  0.3950955E+000  0.2061678E+03  0.7546771E-02  0.1144637E+00
         21   -1    0    0  503  502  0.00000000000E+00  0.00000000000E+00  0.17346892748E+03  0.17346892748E+03  0.00000000000E+00 0. -1.
         21   -1    0    0  501  503 -0.00000000000E+00 -0.00000000000E+00 -0.26547886341E+03  0.26547886341E+03  0.00000000000E+00 0. -1.
          6    1    1    2  501    0  0.81924725594E+02  0.76579915008E+02 -0.10691646247E+03  0.23224184376E+03  0.17300000000E+03 0. -1.
         -6    1    1    2    0  502 -0.81924725594E+02 -0.76579915008E+02  0.14906526535E+02  0.20670594713E+03  0.17300000000E+03 0. -1.
<mgrwt>
<rscale>  2 0.20616776E+03</rscale>
<asrwt>0</asrwt>
<pdfrwt beam="1">  1       21 0.26687527E-01 0.20616776E+03</pdfrwt>
<pdfrwt beam="2">  1       21 0.40842902E-01 0.20616776E+03</pdfrwt>
<totfact> 0.76727897E+04</totfact>
</mgrwt>
</event>
<event>
 4    1  0.3950955E+000  0.1939439E+03  0.7546771E-02  0.1154952E+00
         21   -1    0    0  503  502  0.00000000000E+00  0.00000000000E+00  0.14987250852E+03  0.14987250852E+03  0.00000000000E+00 0. -1.
         21   -1    0    0  501  503 -0.00000000000E+00 -0.00000000000E+00 -0.29363522040E+03  0.29363522040E+03  0.00000000000E+00 0. -1.
          6    1    1    2  501    0  0.53015854081E+02 -0.69818099053E+02 -0.15640512290E+03  0.24915218283E+03  0.17300000000E+03 0. -1.
         -6    1    1    2    0  502 -0.53015854081E+02  0.69818099053E+02  0.12642411027E+02  0.19435554609E+03  0.17300000000E+03 0. -1.
<mgrwt>
<rscale>  2 0.19394393E+03</rscale>
<asrwt>0</asrwt>
<pdfrwt beam="1">  1       21 0.23057309E-01 0.19394393E+03</pdfrwt>
<pdfrwt beam="2">  1       21 0.45174649E-01 0.19394393E+03</pdfrwt>
<totfact> 0.83004751E+04</totfact>
</mgrwt>
</event>
<event>
 4    1  0.3950955E+000  0.2348150E+03  0.7546771E-02  0.1123296E+00
         21   -1    0    0  501  502  0.00000000000E+00  0.00000000000E+00  0.12656929381E+04  0.12656929381E+04  0.00000000000E+00 0.  1.
         21   -1    0    0  502  503 -0.00000000000E+00 -0.00000000000E+00 -0.80216861527E+02  0.80216861527E+02  0.00000000000E+00 0. -1.
          6    1    1    2  501    0 -0.22844309052E+02  0.15712174417E+03  0.10476314087E+04  0.10736245495E+04  0.17300000000E+03 0.  1.
         -6    1    1    2    0  503  0.22844309052E+02 -0.15712174417E+03  0.13784466792E+03  0.27228525010E+03  0.17300000000E+03 0. -1.
<mgrwt>
<rscale>  2 0.23481504E+03</rscale>
<asrwt>0</asrwt>
<pdfrwt beam="1">  1       21 0.19472198E+00 0.23481504E+03</pdfrwt>
<pdfrwt beam="2">  1       21 0.12341057E-01 0.23481504E+03</pdfrwt>
<totfact> 0.78364076E+03</totfact>
</mgrwt>
</event>
<event>
 4    1  0.3950955E+000  0.1762333E+03  0.7546771E-02  0.1171499E+00
         21   -1    0    0  501  502  0.00000000000E+00  0.00000000000E+00  0.25368561051E+03  0.25368561051E+03  0.00000000000E+00 0. -1.
         21   -1    0    0  502  503 -0.00000000000E+00 -0.00000000000E+00 -0.12256709542E+03  0.12256709542E+03  0.00000000000E+00 0. -1.
          6    1    1    2  501    0 -0.33600978761E+02  0.40063241181E+00  0.59218541027E+02  0.18591670684E+03  0.17300000000E+03 0. -1.
         -6    1    1    2    0  503  0.33600978761E+02 -0.40063241181E+00  0.71899974063E+02  0.19033599909E+03  0.17300000000E+03 0. -1.
<mgrwt>
<rscale>  2 0.17623333E+03</rscale>
<asrwt>0</asrwt>
<pdfrwt beam="1">  1       21 0.39028555E-01 0.17623333E+03</pdfrwt>
<pdfrwt beam="2">  1       21 0.18856476E-01 0.17623333E+03</pdfrwt>
<totfact> 0.16388339E+05</totfact>
</mgrwt>
</event>
<event>
 4    1  0.3950955E+000  0.2775527E+03  0.7546771E-02  0.1097033E+00
         21   -1    0    0  501  502  0.00000000000E+00  0.00000000000E+00  0.98573086073E+02  0.98573086073E+02  0.00000000000E+00 0. -1.
         21   -1    0    0  502  503 -0.00000000000E+00 -0.00000000000E+00 -0.96070129706E+03  0.96070129706E+03  0.00000000000E+00 0.  1.
          6    1    1    2  501    0  0.13360095921E+03  0.17104762813E+03 -0.20232154162E+03  0.34346690320E+03  0.17300000000E+03 0. -1.
         -6    1    1    2    0  503 -0.13360095921E+03 -0.17104762813E+03 -0.65980666936E+03  0.71580747993E+03  0.17300000000E+03 0.  1.
<mgrwt>
<rscale>  2 0.27755271E+03</rscale>
<asrwt>0</asrwt>
<pdfrwt beam="1">  1       21 0.15165090E-01 0.27755271E+03</pdfrwt>
<pdfrwt beam="2">  1       21 0.14780020E+00 0.27755271E+03</pdfrwt>
<totfact> 0.11325406E+04</totfact>
</mgrwt>
</event>
<event>
 4    1  0.3950955E+000  0.1881429E+03  0.7546771E-02  0.1160147E+00
         21   -1    0    0  501  502  0.00000000000E+00  0.00000000000E+00  0.11443687377E+03  0.11443687377E+03  0.00000000000E+00 0.  1.
         21   -1    0    0  502  503 -0.00000000000E+00 -0.00000000000E+00 -0.32969937628E+03  0.32969937628E+03  0.00000000000E+00 0.  1.
          6    1    1    2  501    0 -0.72395824648E+02 -0.15085765484E+02 -0.52422077003E+02  0.19530952333E+03  0.17300000000E+03 0.  1.
         -6    1    1    2    0  503  0.72395824648E+02  0.15085765484E+02 -0.16284042551E+03  0.24882672672E+03  0.17300000000E+03 0.  1.
<mgrwt>
<rscale>  2 0.18814286E+03</rscale>
<asrwt>0</asrwt>
<pdfrwt beam="1">  1       21 0.17605673E-01 0.18814286E+03</pdfrwt>
<pdfrwt beam="2">  1       21 0.50722981E-01 0.18814286E+03</pdfrwt>
<totfact> 0.10833845E+05</totfact>
</mgrwt>
</event>
<event>
 4    1  0.3950955E+000  0.1738063E+03  0.7546771E-02  0.1173936E+00
         21   -1    0    0  501  502  0.00000000000E+00  0.00000000000E+00  0.17472923071E+03  0.17472923071E+03  0.00000000000E+00 0.  1.
         21   -1    0    0  502  503 -0.00000000000E+00 -0.00000000000E+00 -0.17295241899E+03  0.17295241899E+03  0.00000000000E+00 0.  1.
          6    1    1    2  501    0  0.65889767856E+01  0.15368798210E+02  0.42393519881E+01  0.17385794971E+03  0.17300000000E+03 0.  1.
         -6    1    1    2    0  503 -0.65889767856E+01 -0.15368798210E+02 -0.24625402671E+01  0.17382369999E+03  0.17300000000E+03 0.  1.
<mgrwt>
<rscale>  2 0.17380626E+03</rscale>
<asrwt>0</asrwt>
<pdfrwt beam="1">  1       21 0.26881420E-01 0.17380626E+03</pdfrwt>
<pdfrwt beam="2">  1       21 0.26608064E-01 0.17380626E+03</pdfrwt>
<totfact> 0.17817863E+05</totfact>
</mgrwt>
</event>
<event>
 4    1  0.3950955E+000  0.1879150E+03  0.7546771E-02  0.1160355E+00
         21   -1    0    0  501  502  0.00000000000E+00  0.00000000000E+00  0.30773761399E+03  0.30773761399E+03  0.00000000000E+00 0. -1.
         21   -1    0    0  502  503 -0.00000000000E+00 -0.00000000000E+00 -0.18584569645E+03  0.18584569645E+03  0.00000000000E+00 0. -1.
          6    1    1    2  501    0  0.35229341271E+02  0.64357833760E+02  0.21359157910E+03  0.28448796093E+03  0.17300000000E+03 0. -1.
         -6    1    1    2    0  503 -0.35229341271E+02 -0.64357833760E+02 -0.91699661559E+02  0.20909534950E+03  0.17300000000E+03 0. -1.
<mgrwt>
<rscale>  2 0.18791497E+03</rscale>
<asrwt>0</asrwt>
<pdfrwt beam="1">  1       21 0.47344248E-01 0.18791497E+03</pdfrwt>
<pdfrwt beam="2">  1       21 0.28591646E-01 0.18791497E+03</pdfrwt>
<totfact> 0.50044348E+04</totfact>
</mgrwt>
</event>
<event>
 4    1  0.3950955E+000  0.1911152E+03  0.7546771E-02  0.1157459E+00
         21   -1    0    0  503  502  0.00000000000E+00  0.00000000000E+00  0.12524127387E+03  0.12524127387E+03  0.00000000000E+00 0.  1.
         21   -1    0    0  501  503 -0.00000000000E+00 -0.00000000000E+00 -0.12165142347E+04  0.12165142347E+04  0.00000000000E+00 0.  1.
          6    1    1    2  501    0 -0.70647899698E+02 -0.40061021501E+02 -0.11305973263E+04  0.11466365272E+04  0.17300000000E+03 0.  1.
         -6    1    1    2    0  502  0.70647899698E+02  0.40061021501E+02  0.39324365489E+02  0.19511898138E+03  0.17300000000E+03 0.  1.
<mgrwt>
<rscale>  2 0.19111518E+03</rscale>
<asrwt>0</asrwt>
<pdfrwt beam="1">  1       21 0.19267888E-01 0.19111518E+03</pdfrwt>
<pdfrwt beam="2">  1       21 0.18715604E+00 0.19111518E+03</pdfrwt>
<totfact> 0.40363101E+03</totfact>
</mgrwt>
</event>
<event>
 4    1  0.3950955E+000  0.2657084E+03  0.7546771E-02  0.1103761E+00
         21   -1    0    0  501  502  0.00000000000E+00  0.00000000000E+00  0.22552443732E+03  0.22552443732E+03  0.00000000000E+00 0. -1.
         21   -1    0    0  502  503 -0.00000000000E+00 -0.00000000000E+00 -0.98617581031E+03  0.98617581031E+03  0.00000000000E+00 0.  1.
          6    1    1    2  501    0 -0.16207767956E+03 -0.12001151600E+03  0.12021042567E+03  0.29163587678E+03  0.17300000000E+03 0. -1.
         -6    1    1    2    0  503  0.16207767956E+03  0.12001151600E+03 -0.88086179865E+03  0.92006437085E+03  0.17300000000E+03 0.  1.
<mgrwt>
<rscale>  2 0.26570837E+03</rscale>
<asrwt>0</asrwt>
<pdfrwt beam="1">  1       21 0.34696068E-01 0.26570837E+03</pdfrwt>
<pdfrwt beam="2">  1       21 0.15171935E+00 0.26570837E+03</pdfrwt>
<totfact> 0.21873852E+03</totfact>
</mgrwt>
</event>
<event>
 4    1  0.3950955E+000  0.1767287E+03  0.7546771E-02  0.1171007E+00
         21   -1    0    0  501  502  0.00000000000E+00  0.00000000000E+00  0.55261351628E+03  0.55261351628E+03  0.00000000000E+00 0. -1.
         21   -1    0    0  502  503 -0.00000000000E+00 -0.00000000000E+00 -0.70961448090E+02  0.70961448090E+02  0.00000000000E+00 0. -1.
          6    1    1    2  501    0  0.12402367863E+02 -0.33914860472E+02  0.38148625616E+03  0.42043406157E+03  0.17300000000E+03 0. -1.
         -6    1    1    2    0  503 -0.12402367863E+02  0.33914860472E+02  0.10016581202E+03  0.20314090279E+03  0.17300000000E+03 0. -1.
<mgrwt>
<rscale>  2 0.17672871E+03</rscale>
<asrwt>0</asrwt>
<pdfrwt beam="1">  1       21 0.85017461E-01 0.17672871E+03</pdfrwt>
<pdfrwt beam="2">  1       21 0.10917146E-01 0.17672871E+03</pdfrwt>
<totfact> 0.83754939E+04</totfact>
</mgrwt>
</event>
<event>
 4    1  0.3950955E+000  0.2289228E+03  0.7546771E-02  0.1127400E+00
         21   -1    0    0  501  502  0.00000000000E+00  0.00000000000E+00  0.35870557522E+03  0.35870557522E+03  0.00000000000E+00 0.  1.
         21   -1    0    0  502  503 -0.00000000000E+00 -0.00000000000E+00 -0.15862246769E+03  0.15862246769E+03  0.00000000000E+00 0. -1.
          6    1    1    2  501    0 -0.13743510606E+03  0.59901746547E+02  0.17272899620E+03  0.28677680127E+03  0.17300000000E+03 0.  1.
         -6    1    1    2    0  503  0.13743510606E+03 -0.59901746547E+02  0.27354111329E+02  0.23055124164E+03  0.17300000000E+03 0.  1.
<mgrwt>
<rscale>  2 0.22892275E+03</rscale>
<asrwt>0</asrwt>
<pdfrwt beam="1">  1       21 0.55185473E-01 0.22892275E+03</pdfrwt>
<pdfrwt beam="2">  1       21 0.24403457E-01 0.22892275E+03</pdfrwt>
<totfact> 0.48289122E+04</totfact>
</mgrwt>
</event>
<event>
 4    1  0.3950955E+000  0.1931160E+03  0.7546771E-02  0.1155681E+00
         21   -1    0    0  503  502  0.00000000000E+00  0.00000000000E+00  0.14142792858E+03  0.14142792858E+03  0.00000000000E+00 0. -1.
         21   -1    0    0  501  503 -0.00000000000E+00 -0.00000000000E+00 -0.31297464993E+03  0.31297464993E+03  0.00000000000E+00 0.  1.
          6    1    1    2  501    0  0.47384225654E+02  0.71550785148E+02 -0.17592877680E+03  0.26123689288E+03  0.17300000000E+03 0. -1.
         -6    1    1    2    0  502 -0.47384225654E+02 -0.71550785148E+02  0.43820554503E+01  0.19316568563E+03  0.17300000000E+03 0. -1.
<mgrwt>
<rscale>  2 0.19311597E+03</rscale>
<asrwt>0</asrwt>
<pdfrwt beam="1">  1       21 0.21758143E-01 0.19311597E+03</pdfrwt>
<pdfrwt beam="2">  1       21 0.48149946E-01 0.19311597E+03</pdfrwt>
<totfact> 0.81215979E+04</totfact>
</mgrwt>
</event>
<event>
 4    1  0.3950955E+000  0.1774926E+03  0.7546771E-02  0.1170252E+00
         21   -1    0    0  503  502  0.00000000000E+00  0.00000000000E+00  0.20671845973E+03  0.20671845973E+03  0.00000000000E+00 0.  1.
         21   -1    0    0  501  503 -0.00000000000E+00 -0.00000000000E+00 -0.15295990803E+03  0.15295990803E+03  0.00000000000E+00 0.  1.
          6    1    1    2  501    0 -0.27541823910E+02  0.28566904384E+02  0.37772733807E+02  0.18146735108E+03  0.17300000000E+03 0. -1.
         -6    1    1    2    0  502  0.27541823910E+02 -0.28566904384E+02  0.15985817890E+02  0.17821101667E+03  0.17300000000E+03 0. -1.
<mgrwt>
<rscale>  2 0.17749259E+03</rscale>
<asrwt>0</asrwt>
<pdfrwt beam="1">  1       21 0.31802840E-01 0.17749259E+03</pdfrwt>
<pdfrwt beam="2">  1       21 0.23532294E-01 0.17749259E+03</pdfrwt>
<totfact> 0.16233747E+05</totfact>
</mgrwt>
</event>
<event>
 4    1  0.3950955E+000  0.1850782E+03  0.7546771E-02  0.1162977E+00
         21   -1    0    0  503  502  0.00000000000E+00  0.00000000000E+00  0.33122240755E+03  0.33122240755E+03  0.00000000000E+00 0. -1.
         21   -1    0    0  501  503 -0.00000000000E+00 -0.00000000000E+00 -0.11782005676E+03  0.11782005676E+03  0.00000000000E+00 0. -1.
          6    1    1    2  501    0 -0.65694022359E+02 -0.30399970321E+01  0.28199513331E+02  0.18721420541E+03  0.17300000000E+03 0. -1.
         -6    1    1    2    0  502  0.65694022359E+02  0.30399970321E+01  0.18520283746E+03  0.26182825890E+03  0.17300000000E+03 0. -1.
<mgrwt>
<rscale>  2 0.18507822E+03</rscale>
<asrwt>0</asrwt>
<pdfrwt beam="1">  1       21 0.50957293E-01 0.18507822E+03</pdfrwt>
<pdfrwt beam="2">  1       21 0.18126163E-01 0.18507822E+03</pdfrwt>
<totfact> 0.10179575E+05</totfact>
</mgrwt>
</event>
<event>
 4    1  0.3950955E+000  0.1917123E+03  0.7546771E-02  0.1156926E+00
         21   -1    0    0  501  502  0.00000000000E+00  0.00000000000E+00  0.46217490977E+03  0.46217490977E+03  0.00000000000E+00 0.  1.
         21   -1    0    0  502  503 -0.00000000000E+00 -0.00000000000E+00 -0.22497160269E+03  0.22497160269E+03  0.00000000000E+00 0.  1.
          6    1    1    2  501    0  0.74660450322E+02 -0.35361429584E+02  0.39485657516E+03  0.43893658823E+03  0.17300000000E+03 0.  1.
         -6    1    1    2    0  503 -0.74660450322E+02  0.35361429584E+02 -0.15765326808E+03  0.24820992422E+03  0.17300000000E+03 0.  1.
<mgrwt>
<rscale>  2 0.19171232E+03</rscale>
<asrwt>0</asrwt>
<pdfrwt beam="1">  1       21 0.71103832E-01 0.19171232E+03</pdfrwt>
<pdfrwt beam="2">  1       21 0.34611016E-01 0.19171232E+03</pdfrwt>
<totfact> 0.14411249E+04</totfact>
</mgrwt>
</event>
<event>
 4    1  0.3950955E+000  0.2144360E+03  0.7546771E-02  0.1138101E+00
         21   -1    0    0  503  502  0.00000000000E+00  0.00000000000E+00  0.41148023498E+02  0.41148023498E+02  0.00000000000E+00 0. -1.
         21   -1    0    0  501  503 -0.00000000000E+00 -0.00000000000E+00 -0.13767419465E+04  0.13767419465E+04  0.00000000000E+00 0. -1.
          6    1    1    2  501    0 -0.10672215200E+03  0.68294742288E+02 -0.36015789952E+03  0.41916166587E+03  0.17300000000E+03 0. -1.
         -6    1    1    2    0  502  0.10672215200E+03 -0.68294742288E+02 -0.97543602351E+03  0.99872830415E+03  0.17300000000E+03 0. -1.
<mgrwt>
<rscale>  2 0.21443598E+03</rscale>
<asrwt>0</asrwt>
<pdfrwt beam="1">  1       21 0.63304654E-02 0.21443598E+03</pdfrwt>
<pdfrwt beam="2">  1       21 0.21180645E+00 0.21443598E+03</pdfrwt>
<totfact> 0.19999641E+04</totfact>
</mgrwt>
</event>
<event>
 4    1  0.3950955E+000  0.1773933E+03  0.7546771E-02  0.1170350E+00
         21   -1    0    0  501  502  0.00000000000E+00  0.00000000000E+00  0.40397166079E+02  0.40397166079E+02  0.00000000000E+00 0.  1.
         21   -1    0    0  502  503 -0.00000000000E+00 -0.00000000000E+00 -0.10240214549E+04  0.10240214549E+04  0.00000000000E+00 0.  1.
          6    1    1    2  501    0  0.33751846673E+02  0.20005256185E+02 -0.23146559667E+03  0.29162427861E+03  0.17300000000E+03 0.  1.
         -6    1    1    2    0  503 -0.33751846673E+02 -0.20005256185E+02 -0.75215869210E+03  0.77279434233E+03  0.17300000000E+03 0.  1.
<mgrwt>
<rscale>  2 0.17739334E+03</rscale>
<asrwt>0</asrwt>
<pdfrwt beam="1">  1       21 0.62149488E-02 0.17739334E+03</pdfrwt>
<pdfrwt beam="2">  1       21 0.15754176E+00 0.17739334E+03</pdfrwt>
<totfact> 0.49144736E+04</totfact>
</mgrwt>
</event>
<event>
 4    1  0.3950955E+000  0.2169990E+03  0.7546771E-02  0.1136140E+00
         21   -1    0    0  501  502  0.00000000000E+00  0.00000000000E+00  0.74986039518E+03  0.74986039518E+03  0.00000000000E+00 0.  1.
         21   -1    0    0  502  503 -0.00000000000E+00 -0.00000000000E+00 -0.18524984545E+03  0.18524984545E+03  0.00000000000E+00 0. -1.
          6    1    1    2  501    0 -0.95884964791E+02 -0.89250541716E+02  0.66244151171E+03  0.69707771598E+03  0.17300000000E+03 0.  1.
         -6    1    1    2    0  503  0.95884964791E+02  0.89250541716E+02 -0.97830961981E+02  0.23803252465E+03  0.17300000000E+03 0. -1.
<mgrwt>
<rscale>  2 0.21699905E+03</rscale>
<asrwt>0</asrwt>
<pdfrwt beam="1">  1       21 0.11536314E+00 0.21699905E+03</pdfrwt>
<pdfrwt beam="2">  1       21 0.28499976E-01 0.21699905E+03</pdfrwt>
<totfact> 0.67262288E+03</totfact>
</mgrwt>
</event>
<event>
 4    1  0.3950955E+000  0.1819264E+03  0.7546771E-02  0.1165952E+00
         21   -1    0    0  503  502  0.00000000000E+00  0.00000000000E+00  0.14871952964E+03  0.14871952964E+03  0.00000000000E+00 0.  1.
         21   -1    0    0  501  503 -0.00000000000E+00 -0.00000000000E+00 -0.22825832978E+03  0.22825832978E+03  0.00000000000E+00 0.  1.
          6    1    1    2  501    0  0.55521818437E+02  0.92481295014E+01 -0.69582815556E+02  0.19477928135E+03  0.17300000000E+03 0. -1.
         -6    1    1    2    0  502 -0.55521818437E+02 -0.92481295014E+01 -0.99559845799E+01  0.18219857807E+03  0.17300000000E+03 0. -1.
<mgrwt>
<rscale>  2 0.18192636E+03</rscale>
<asrwt>0</asrwt>
<pdfrwt beam="1">  1       21 0.22879928E-01 0.18192636E+03</pdfrwt>
<pdfrwt beam="2">  1       21 0.35116666E-01 0.18192636E+03</pdfrwt>
<totfact> 0.14062651E+05</totfact>
</mgrwt>
</event>
<event>
 4    1  0.3950955E+000  0.1762752E+03  0.7546771E-02  0.1171457E+00
         21   -1    0    0  503  502  0.00000000000E+00  0.00000000000E+00  0.65389335971E+03  0.65389335971E+03  0.00000000000E+00 0. -1.
         21   -1    0    0  501  503 -0.00000000000E+00 -0.00000000000E+00 -0.56324293496E+02  0.56324293496E+02  0.00000000000E+00 0. -1.
          6    1    1    2  501    0 -0.22728773156E+02  0.25047019357E+02  0.15838579944E+03  0.23697892685E+03  0.17300000000E+03 0. -1.
         -6    1    1    2    0  502  0.22728773156E+02 -0.25047019357E+02  0.43918326677E+03  0.47323872636E+03  0.17300000000E+03 0. -1.
<mgrwt>
<rscale>  2 0.17627521E+03</rscale>
<asrwt>0</asrwt>
<pdfrwt beam="1">  1       21 0.10059897E+00 0.17627521E+03</pdfrwt>
<pdfrwt beam="2">  1       21 0.86652764E-02 0.17627521E+03</pdfrwt>
<totfact> 0.85094593E+04</totfact>
</mgrwt>
</event>
<event>
 4    1  0.3950955E+000  0.2087397E+03  0.7546771E-02  0.1142568E+00
         21   -1    0    0  501  502  0.00000000000E+00  0.00000000000E+00  0.25945912222E+03  0.25945912222E+03  0.00000000000E+00 0. -1.
         21   -1    0    0  502  503 -0.00000000000E+00 -0.00000000000E+00 -0.18213906171E+03  0.18213906171E+03  0.00000000000E+00 0. -1.
          6    1    1    2  501    0 -0.11586709944E+03 -0.14767546526E+02  0.10031983707E+03  0.23159519613E+03  0.17300000000E+03 0. -1.
         -6    1    1    2    0  503  0.11586709944E+03  0.14767546526E+02 -0.22999776563E+02  0.21000298780E+03  0.17300000000E+03 0. -1.
<mgrwt>
<rscale>  2 0.20873971E+03</rscale>
<asrwt>0</asrwt>
<pdfrwt beam="1">  1       21 0.39916788E-01 0.20873971E+03</pdfrwt>
<pdfrwt beam="2">  1       21 0.28021394E-01 0.20873971E+03</pdfrwt>
<totfact> 0.73071751E+04</totfact>
</mgrwt>
</event>
<event>
 4    1  0.3950955E+000  0.1996573E+03  0.7546771E-02  0.1150029E+00
         21   -1    0    0  501  502  0.00000000000E+00  0.00000000000E+00  0.42166168923E+03  0.42166168923E+03  0.00000000000E+00 0. -1.
         21   -1    0    0  502  503 -0.00000000000E+00 -0.00000000000E+00 -0.12718378303E+03  0.12718378303E+03  0.00000000000E+00 0. -1.
          6    1    1    2  501    0 -0.72052749788E+02  0.68865254419E+02  0.82058388077E+01  0.19982581867E+03  0.17300000000E+03 0. -1.
         -6    1    1    2    0  503  0.72052749788E+02 -0.68865254419E+02  0.28627206739E+03  0.34901965358E+03  0.17300000000E+03 0. -1.
<mgrwt>
<rscale>  2 0.19965726E+03</rscale>
<asrwt>0</asrwt>
<pdfrwt beam="1">  1       21 0.64871028E-01 0.19965726E+03</pdfrwt>
<pdfrwt beam="2">  1       21 0.19566736E-01 0.19965726E+03</pdfrwt>
<totfact> 0.52455649E+04</totfact>
</mgrwt>
</event>
<event>
 4    1  0.3950955E+000  0.1843739E+03  0.7546771E-02  0.1163636E+00
         21   -1    0    0  501  502  0.00000000000E+00  0.00000000000E+00  0.53298758679E+02  0.53298758679E+02  0.00000000000E+00 0. -1.
         21   -1    0    0  502  503 -0.00000000000E+00 -0.00000000000E+00 -0.69476463821E+03  0.69476463821E+03  0.00000000000E+00 0. -1.
          6    1    1    2  501    0 -0.59348934324E+02 -0.23290302347E+02 -0.21362848370E+03  0.28218941021E+03  0.17300000000E+03 0. -1.
         -6    1    1    2    0  503  0.59348934324E+02  0.23290302347E+02 -0.42783739584E+03  0.46587398668E+03  0.17300000000E+03 0. -1.
<mgrwt>
<rscale>  2 0.18437390E+03</rscale>
<asrwt>0</asrwt>
<pdfrwt beam="1">  1       21 0.81998099E-02 0.18437390E+03</pdfrwt>
<pdfrwt beam="2">  1       21 0.10688686E+00 0.18437390E+03</pdfrwt>
<totfact> 0.80761201E+04</totfact>
</mgrwt>
</event>
<event>
 4    1  0.3950955E+000  0.2287029E+03  0.7546771E-02  0.1127556E+00
         21   -1    0    0  501  502  0.00000000000E+00  0.00000000000E+00  0.22130222311E+03  0.22130222311E+03  0.00000000000E+00 0. -1.
         21   -1    0    0  502  503 -0.00000000000E+00 -0.00000000000E+00 -0.24825131057E+03  0.24825131057E+03  0.00000000000E+00 0. -1.
          6    1    1    2  501    0 -0.13958177107E+03  0.53786249337E+02  0.37928169292E+02  0.23182661076E+03  0.17300000000E+03 0. -1.
         -6    1    1    2    0  503  0.13958177107E+03 -0.53786249337E+02 -0.64877256751E+02  0.23772692291E+03  0.17300000000E+03 0. -1.
<mgrwt>
<rscale>  2 0.22870293E+03</rscale>
<asrwt>0</asrwt>
<pdfrwt beam="1">  1       21 0.34046496E-01 0.22870293E+03</pdfrwt>
<pdfrwt beam="2">  1       21 0.38192509E-01 0.22870293E+03</pdfrwt>
<totfact> 0.54058455E+04</totfact>
</mgrwt>
</event>
<event>
 4    1  0.3950955E+000  0.1900318E+03  0.7546771E-02  0.1158433E+00
         21   -1    0    0  501  502  0.00000000000E+00  0.00000000000E+00  0.40637749116E+03  0.40637749116E+03  0.00000000000E+00 0.  1.
         21   -1    0    0  502  503 -0.00000000000E+00 -0.00000000000E+00 -0.90518661984E+02  0.90518661984E+02  0.00000000000E+00 0.  1.
          6    1    1    2  501    0 -0.78612326443E+02  0.17839801048E+01  0.12433233016E+03  0.22709163079E+03  0.17300000000E+03 0.  1.
         -6    1    1    2    0  503  0.78612326443E+02 -0.17839801048E+01  0.19152649901E+03  0.26980452235E+03  0.17300000000E+03 0.  1.
<mgrwt>
<rscale>  2 0.19003179E+03</rscale>
<asrwt>0</asrwt>
<pdfrwt beam="1">  1       21 0.62519613E-01 0.19003179E+03</pdfrwt>
<pdfrwt beam="2">  1       21 0.13925948E-01 0.19003179E+03</pdfrwt>
<totfact> 0.10656795E+05</totfact>
</mgrwt>
</event>
<event>
 4    1  0.3950955E+000  0.2731547E+03  0.7546771E-02  0.1099488E+00
         21   -1    0    0  503  502  0.00000000000E+00  0.00000000000E+00  0.54322270599E+03  0.54322270599E+03  0.00000000000E+00 0. -1.
         21   -1    0    0  501  503 -0.00000000000E+00 -0.00000000000E+00 -0.13888736109E+03  0.13888736109E+03  0.00000000000E+00 0.  1.
          6    1    1    2  501    0  0.19346363756E+03  0.85184008094E+02  0.16632519561E+03  0.31980863808E+03  0.17300000000E+03 0. -1.
         -6    1    1    2    0  502 -0.19346363756E+03 -0.85184008094E+02  0.23801014929E+03  0.36230142900E+03  0.17300000000E+03 0. -1.
<mgrwt>
<rscale>  2 0.27315471E+03</rscale>
<asrwt>0</asrwt>
<pdfrwt beam="1">  1       21 0.83572723E-01 0.27315471E+03</pdfrwt>
<pdfrwt beam="2">  1       21 0.21367287E-01 0.27315471E+03</pdfrwt>
<totfact> 0.24381268E+04</totfact>
</mgrwt>
</event>
<event>
 4    1  0.3950955E+000  0.2921578E+03  0.7546771E-02  0.1089228E+00
         21   -1    0    0  503  502  0.00000000000E+00  0.00000000000E+00  0.61060792994E+03  0.61060792994E+03  0.00000000000E+00 0. -1.
         21   -1    0    0  501  503 -0.00000000000E+00 -0.00000000000E+00 -0.14615329709E+03  0.14615329709E+03  0.00000000000E+00 0. -1.
          6    1    1    2  501    0  0.26307047827E+02 -0.23395539541E+03  0.15326779804E+03  0.32991999897E+03  0.17300000000E+03 0. -1.
         -6    1    1    2    0  502 -0.26307047827E+02  0.23395539541E+03  0.31118683482E+03  0.42684122806E+03  0.17300000000E+03 0. -1.
<mgrwt>
<rscale>  2 0.29215781E+03</rscale>
<asrwt>0</asrwt>
<pdfrwt beam="1">  1       21 0.93939680E-01 0.29215781E+03</pdfrwt>
<pdfrwt beam="2">  1       21 0.22485123E-01 0.29215781E+03</pdfrwt>
<totfact> 0.16709145E+04</totfact>
</mgrwt>
</event>
<event>
 4    1  0.3950955E+000  0.1743016E+03  0.7546771E-02  0.1173435E+00
         21   -1    0    0  501  502  0.00000000000E+00  0.00000000000E+00  0.52736677289E+02  0.52736677289E+02  0.00000000000E+00 0.  1.
         21   -1    0    0  502  503 -0.00000000000E+00 -0.00000000000E+00 -0.14699529239E+04  0.14699529239E+04  0.00000000000E+00 0.  1.
          6    1    1    2  501    0  0.20445363173E+02 -0.58326833217E+01 -0.11491049214E+03  0.20877129658E+03  0.17300000000E+03 0.  1.
         -6    1    1    2    0  503 -0.20445363173E+02  0.58326833217E+01 -0.13023057544E+04  0.13139183046E+04  0.17300000000E+03 0.  1.
<mgrwt>
<rscale>  2 0.17430156E+03</rscale>
<asrwt>0</asrwt>
<pdfrwt beam="1">  1       21 0.81133348E-02 0.17430156E+03</pdfrwt>
<pdfrwt beam="2">  1       21 0.22614661E+00 0.17430156E+03</pdfrwt>
<totfact> 0.10989316E+04</totfact>
</mgrwt>
</event>
<event>
 4    1  0.3950955E+000  0.2117421E+03  0.7546771E-02  0.1140194E+00
         21   -1    0    0  503  502  0.00000000000E+00  0.00000000000E+00  0.11973442666E+03  0.11973442666E+03  0.00000000000E+00 0.  1.
         21   -1    0    0  501  503 -0.00000000000E+00 -0.00000000000E+00 -0.39525397834E+03  0.39525397834E+03  0.00000000000E+00 0.  1.
          6    1    1    2  501    0  0.52986055154E+02  0.10999176655E+03 -0.19683277786E+03  0.28909834519E+03  0.17300000000E+03 0.  1.
         -6    1    1    2    0  502 -0.52986055154E+02 -0.10999176655E+03 -0.78686773811E+02  0.22589005981E+03  0.17300000000E+03 0.  1.
<mgrwt>
<rscale>  2 0.21174209E+03</rscale>
<asrwt>0</asrwt>
<pdfrwt beam="1">  1       21 0.18420681E-01 0.21174209E+03</pdfrwt>
<pdfrwt beam="2">  1       21 0.60808304E-01 0.21174209E+03</pdfrwt>
<totfact> 0.67148156E+04</totfact>
</mgrwt>
</event>
<event>
 4    1  0.3950955E+000  0.1828830E+03  0.7546771E-02  0.1165042E+00
         21   -1    0    0  503  502  0.00000000000E+00  0.00000000000E+00  0.10603597238E+04  0.10603597238E+04  0.00000000000E+00 0. -1.
         21   -1    0    0  501  503 -0.00000000000E+00 -0.00000000000E+00 -0.37558064015E+02  0.37558064015E+02  0.00000000000E+00 0. -1.
          6    1    1    2  501    0  0.57405877370E+02  0.14891927847E+02  0.29169936634E+03  0.34428872272E+03  0.17300000000E+03 0. -1.
         -6    1    1    2    0  502 -0.57405877370E+02 -0.14891927847E+02  0.73110229347E+03  0.75362906512E+03  0.17300000000E+03 0. -1.
<mgrwt>
<rscale>  2 0.18288303E+03</rscale>
<asrwt>0</asrwt>
<pdfrwt beam="1">  1       21 0.16313224E+00 0.18288303E+03</pdfrwt>
<pdfrwt beam="2">  1       21 0.57781645E-02 0.18288303E+03</pdfrwt>
<totfact> 0.50511714E+04</totfact>
</mgrwt>
</event>
<event>
 4    1  0.3950955E+000  0.3005904E+03  0.7546771E-02  0.1084946E+00
         21   -1    0    0  501  502  0.00000000000E+00  0.00000000000E+00  0.57174130751E+03  0.57174130751E+03  0.00000000000E+00 0.  1.
         21   -1    0    0  502  503 -0.00000000000E+00 -0.00000000000E+00 -0.32927681733E+03  0.32927681733E+03  0.00000000000E+00 0.  1.
          6    1    1    2  501    0  0.10202451230E+03 -0.22364392350E+03  0.44611678684E+03  0.53793567750E+03  0.17300000000E+03 0.  1.
         -6    1    1    2    0  503 -0.10202451230E+03  0.22364392350E+03 -0.20365229666E+03  0.36308244734E+03  0.17300000000E+03 0.  1.
<mgrwt>
<rscale>  2 0.30059043E+03</rscale>
<asrwt>0</asrwt>
<pdfrwt beam="1">  1       21 0.87960201E-01 0.30059043E+03</pdfrwt>
<pdfrwt beam="2">  1       21 0.50657972E-01 0.30059043E+03</pdfrwt>
<totfact> 0.38232225E+03</totfact>
</mgrwt>
</event>
<event>
 4    1  0.3950955E+000  0.2155524E+03  0.7546771E-02  0.1137243E+00
         21   -1    0    0  503  502  0.00000000000E+00  0.00000000000E+00  0.48297599282E+03  0.48297599282E+03  0.00000000000E+00 0.  1.
         21   -1    0    0  501  503 -0.00000000000E+00 -0.00000000000E+00 -0.74970278891E+03  0.74970278891E+03  0.00000000000E+00 0.  1.
          6    1    1    2  501    0  0.12655369200E+03 -0.22759659108E+02 -0.70880162200E+03  0.74085260234E+03  0.17300000000E+03 0.  1.
         -6    1    1    2    0  502 -0.12655369200E+03  0.22759659108E+02  0.44207482590E+03  0.49182617939E+03  0.17300000000E+03 0.  1.
<mgrwt>
<rscale>  2 0.21555240E+03</rscale>
<asrwt>0</asrwt>
<pdfrwt beam="1">  1       21 0.74303999E-01 0.21555240E+03</pdfrwt>
<pdfrwt beam="2">  1       21 0.11533889E+00 0.21555240E+03</pdfrwt>
<totfact> 0.92371737E+02</totfact>
</mgrwt>
</event>
<event>
 4    1  0.3950955E+000  0.2203357E+03  0.7546771E-02  0.1133633E+00
         21   -1    0    0  503  502  0.00000000000E+00  0.00000000000E+00  0.32925130798E+03  0.32925130798E+03  0.00000000000E+00 0.  1.
         21   -1    0    0  501  503 -0.00000000000E+00 -0.00000000000E+00 -0.14775443012E+03  0.14775443012E+03  0.00000000000E+00 0.  1.
          6    1    1    2  501    0  0.12947179049E+03 -0.43079873028E+02  0.10158981741E+03  0.24262792707E+03  0.17300000000E+03 0.  1.
         -6    1    1    2    0  502 -0.12947179049E+03  0.43079873028E+02  0.79907060448E+02  0.23437781103E+03  0.17300000000E+03 0.  1.
<mgrwt>
<rscale>  2 0.22033570E+03</rscale>
<asrwt>0</asrwt>
<pdfrwt beam="1">  1       21 0.50654047E-01 0.22033570E+03</pdfrwt>
<pdfrwt beam="2">  1       21 0.22731451E-01 0.22033570E+03</pdfrwt>
<totfact> 0.66481122E+04</totfact>
</mgrwt>
</event>
<event>
 4    1  0.3950955E+000  0.2200280E+03  0.7546771E-02  0.1133862E+00
         21   -1    0    0  501  502  0.00000000000E+00  0.00000000000E+00  0.45099995962E+03  0.45099995962E+03  0.00000000000E+00 0. -1.
         21   -1    0    0  502  503 -0.00000000000E+00 -0.00000000000E+00 -0.17586308723E+03  0.17586308723E+03  0.00000000000E+00 0. -1.
          6    1    1    2  501    0  0.13539491178E+03  0.12310575395E+02  0.33320938361E+03  0.39930042039E+03  0.17300000000E+03 0. -1.
         -6    1    1    2    0  503 -0.13539491178E+03 -0.12310575395E+02 -0.58072511210E+02  0.22756262646E+03  0.17300000000E+03 0. -1.
<mgrwt>
<rscale>  2 0.22002803E+03</rscale>
<asrwt>0</asrwt>
<pdfrwt beam="1">  1       21 0.69384609E-01 0.22002803E+03</pdfrwt>
<pdfrwt beam="2">  1       21 0.27055860E-01 0.22002803E+03</pdfrwt>
<totfact> 0.24217100E+04</totfact>
</mgrwt>
</event>
<event>
 4    1  0.3950955E+000  0.1818146E+03  0.7546771E-02  0.1166058E+00
         21   -1    0    0  501  502  0.00000000000E+00  0.00000000000E+00  0.78582025699E+03  0.78582025699E+03  0.00000000000E+00 0. -1.
         21   -1    0    0  502  503 -0.00000000000E+00 -0.00000000000E+00 -0.48775177157E+02  0.48775177157E+02  0.00000000000E+00 0.  1.
          6    1    1    2  501    0  0.51223907968E+02  0.22442624515E+02  0.52328695514E+03  0.55397274081E+03  0.17300000000E+03 0. -1.
         -6    1    1    2    0  503 -0.51223907968E+02 -0.22442624515E+02  0.21375812470E+03  0.28062269334E+03  0.17300000000E+03 0.  1.
<mgrwt>
<rscale>  2 0.18181463E+03</rscale>
<asrwt>0</asrwt>
<pdfrwt beam="1">  1       21 0.12089541E+00 0.18181463E+03</pdfrwt>
<pdfrwt beam="2">  1       21 0.75038740E-02 0.18181463E+03</pdfrwt>
<totfact> 0.69894895E+04</totfact>
</mgrwt>
</event>
<event>
 4    1  0.3950955E+000  0.1784794E+03  0.7546771E-02  0.1169283E+00
         21   -1    0    0  503  502  0.00000000000E+00  0.00000000000E+00  0.72744440087E+02  0.72744440087E+02  0.00000000000E+00 0. -1.
         21   -1    0    0  501  503 -0.00000000000E+00 -0.00000000000E+00 -0.94747982656E+03  0.94747982656E+03  0.00000000000E+00 0. -1.
          6    1    1    2  501    0  0.29786135718E+01  0.43783818920E+02 -0.81146636662E+03  0.83086253923E+03  0.17300000000E+03 0. -1.
         -6    1    1    2    0  502 -0.29786135718E+01 -0.43783818920E+02 -0.63269019854E+02  0.18936172742E+03  0.17300000000E+03 0. -1.
<mgrwt>
<rscale>  2 0.17847940E+03</rscale>
<asrwt>0</asrwt>
<pdfrwt beam="1">  1       21 0.11191452E-01 0.17847940E+03</pdfrwt>
<pdfrwt beam="2">  1       21 0.14576613E+00 0.17847940E+03</pdfrwt>
<totfact> 0.21616520E+04</totfact>
</mgrwt>
</event>
<event>
 4    1  0.3950955E+000  0.1788827E+03  0.7546771E-02  0.1168889E+00
         21   -1    0    0  503  502  0.00000000000E+00  0.00000000000E+00  0.28770120154E+03  0.28770120154E+03  0.00000000000E+00 0.  1.
         21   -1    0    0  501  503 -0.00000000000E+00 -0.00000000000E+00 -0.15123717539E+03  0.15123717539E+03  0.00000000000E+00 0.  1.
          6    1    1    2  501    0  0.22841184732E+02  0.39348473995E+02 -0.44656726116E+02  0.18437257202E+03  0.17300000000E+03 0.  1.
         -6    1    1    2    0  502 -0.22841184732E+02 -0.39348473995E+02  0.18112075227E+03  0.25456580491E+03  0.17300000000E+03 0.  1.
<mgrwt>
<rscale>  2 0.17888270E+03</rscale>
<asrwt>0</asrwt>
<pdfrwt beam="1">  1       21 0.44261723E-01 0.17888270E+03</pdfrwt>
<pdfrwt beam="2">  1       21 0.23267258E-01 0.17888270E+03</pdfrwt>
<totfact> 0.85591881E+04</totfact>
</mgrwt>
</event>
<event>
 4    1  0.3950955E+000  0.1914277E+03  0.7546771E-02  0.1157180E+00
         21   -1    0    0  503  502  0.00000000000E+00  0.00000000000E+00  0.78250244216E+03  0.78250244216E+03  0.00000000000E+00 0.  1.
         21   -1    0    0  501  503 -0.00000000000E+00 -0.00000000000E+00 -0.60999206469E+02  0.60999206469E+02  0.00000000000E+00 0.  1.
          6    1    1    2  501    0 -0.33505127541E+02  0.74786046919E+02  0.15748434823E+03  0.24788276729E+03  0.17300000000E+03 0.  1.
         -6    1    1    2    0  502  0.33505127541E+02 -0.74786046919E+02  0.56401888746E+03  0.59561888133E+03  0.17300000000E+03 0.  1.
<mgrwt>
<rscale>  2 0.19142765E+03</rscale>
<asrwt>0</asrwt>
<pdfrwt beam="1">  1       21 0.12038498E+00 0.19142765E+03</pdfrwt>
<pdfrwt beam="2">  1       21 0.93844939E-02 0.19142765E+03</pdfrwt>
<totfact> 0.47583397E+04</totfact>
</mgrwt>
</event>
<event>
 4    1  0.3950955E+000  0.1786338E+03  0.7546771E-02  0.1169132E+00
         21   -1    0    0  501  502  0.00000000000E+00  0.00000000000E+00  0.30607192616E+03  0.30607192616E+03  0.00000000000E+00 0.  1.
         21   -1    0    0  502  503 -0.00000000000E+00 -0.00000000000E+00 -0.19447782805E+03  0.19447782805E+03  0.00000000000E+00 0.  1.
          6    1    1    2  501    0  0.43675871706E+02  0.85695859393E+01  0.22626257654E+03  0.28827898486E+03  0.17300000000E+03 0.  1.
         -6    1    1    2    0  503 -0.43675871706E+02 -0.85695859393E+01 -0.11466847842E+03  0.21227076934E+03  0.17300000000E+03 0.  1.
<mgrwt>
<rscale>  2 0.17863376E+03</rscale>
<asrwt>0</asrwt>
<pdfrwt beam="1">  1       21 0.47087989E-01 0.17863376E+03</pdfrwt>
<pdfrwt beam="2">  1       21 0.29919666E-01 0.17863376E+03</pdfrwt>
<totfact> 0.46545432E+04</totfact>
</mgrwt>
</event>
<event>
 4    1  0.3950955E+000  0.1807090E+03  0.7546771E-02  0.1167119E+00
         21   -1    0    0  501  502  0.00000000000E+00  0.00000000000E+00  0.31325823282E+03  0.31325823282E+03  0.00000000000E+00 0.  1.
         21   -1    0    0  502  503 -0.00000000000E+00 -0.00000000000E+00 -0.20007948192E+03  0.20007948192E+03  0.00000000000E+00 0.  1.
          6    1    1    2  501    0  0.47138139810E+02  0.22466650396E+02  0.23422567354E+03  0.29583343413E+03  0.17300000000E+03 0.  1.
         -6    1    1    2    0  503 -0.47138139810E+02 -0.22466650396E+02 -0.12104692263E+03  0.21750428061E+03  0.17300000000E+03 0.  1.
<mgrwt>
<rscale>  2 0.18070903E+03</rscale>
<asrwt>0</asrwt>
<pdfrwt beam="1">  1       21 0.48193574E-01 0.18070903E+03</pdfrwt>
<pdfrwt beam="2">  1       21 0.30781459E-01 0.18070903E+03</pdfrwt>
<totfact> 0.41934563E+04</totfact>
</mgrwt>
</event>
<event>
 4    1  0.3950955E+000  0.1850438E+03  0.7546771E-02  0.1163009E+00
         21   -1    0    0  501  502  0.00000000000E+00  0.00000000000E+00  0.10140874345E+03  0.10140874345E+03  0.00000000000E+00 0.  1.
         21   -1    0    0  502  503 -0.00000000000E+00 -0.00000000000E+00 -0.75231138843E+03  0.75231138843E+03  0.00000000000E+00 0.  1.
          6    1    1    2  501    0  0.90859287616E+01 -0.65035688165E+02 -0.85451067957E+01  0.18524096115E+03  0.17300000000E+03 0.  1.
         -6    1    1    2    0  503 -0.90859287616E+01  0.65035688165E+02 -0.64235753819E+03  0.66847917073E+03  0.17300000000E+03 0.  1.
<mgrwt>
<rscale>  2 0.18504376E+03</rscale>
<asrwt>0</asrwt>
<pdfrwt beam="1">  1       21 0.15601345E-01 0.18504376E+03</pdfrwt>
<pdfrwt beam="2">  1       21 0.11574022E+00 0.18504376E+03</pdfrwt>
<totfact> 0.21174449E+04</totfact>
</mgrwt>
</event>
<event>
 4    1  0.3950955E+000  0.1796266E+03  0.7546771E-02  0.1168165E+00
         21   -1    0    0  503  502  0.00000000000E+00  0.00000000000E+00  0.88906117222E+03  0.88906117222E+03  0.00000000000E+00 0. -1.
         21   -1    0    0  501  503 -0.00000000000E+00 -0.00000000000E+00 -0.38810544891E+02  0.38810544891E+02  0.00000000000E+00 0. -1.
          6    1    1    2  501    0  0.67646654626E+01 -0.47863916431E+02  0.30693907118E+03  0.35563648381E+03  0.17300000000E+03 0.  1.
         -6    1    1    2    0  502 -0.67646654626E+01  0.47863916431E+02  0.54331155615E+03  0.57223523331E+03  0.17300000000E+03 0.  1.
<mgrwt>
<rscale>  2 0.17962660E+03</rscale>
<asrwt>0</asrwt>
<pdfrwt beam="1">  1       21 0.13677863E+00 0.17962660E+03</pdfrwt>
<pdfrwt beam="2">  1       21 0.59708537E-02 0.17962660E+03</pdfrwt>
<totfact> 0.76028116E+04</totfact>
</mgrwt>
</event>
<event>
 4    1  0.3950955E+000  0.1753029E+03  0.7546771E-02  0.1172428E+00
         21   -1    0    0  503  502  0.00000000000E+00  0.00000000000E+00  0.16844252080E+04  0.16844252080E+04  0.00000000000E+00 0.  1.
         21   -1    0    0  501  503 -0.00000000000E+00 -0.00000000000E+00 -0.13459942921E+03  0.13459942921E+03  0.00000000000E+00 0.  1.
          6    1    1    2  501    0  0.16613358951E+02 -0.22936822893E+02 -0.70715990097E+02  0.18902870892E+03  0.17300000000E+03 0.  1.
         -6    1    1    2    0  502 -0.16613358951E+02  0.22936822893E+02  0.16205417689E+04  0.16299959283E+04  0.17300000000E+03 0.  1.
<mgrwt>
<rscale>  2 0.17530289E+03</rscale>
<asrwt>0</asrwt>
<pdfrwt beam="1">  1       21 0.25914232E+00 0.17530289E+03</pdfrwt>
<pdfrwt beam="2">  1       21 0.20707606E-01 0.17530289E+03</pdfrwt>
<totfact> 0.12999774E+03</totfact>
</mgrwt>
</event>
<event>
 4    1  0.3950955E+000  0.2307983E+03  0.7546771E-02  0.1126079E+00
         21   -1    0    0  501  502  0.00000000000E+00  0.00000000000E+00  0.83084221250E+02  0.83084221250E+02  0.00000000000E+00 0. -1.
         21   -1    0    0  502  503 -0.00000000000E+00 -0.00000000000E+00 -0.78263337430E+03  0.78263337430E+03  0.00000000000E+00 0.  1.
          6    1    1    2  501    0 -0.12257834741E+03 -0.91177781162E+02 -0.16571877981E+03  0.28413122499E+03  0.17300000000E+03 0. -1.
         -6    1    1    2    0  503  0.12257834741E+03  0.91177781162E+02 -0.53383037324E+03  0.58158637056E+03  0.17300000000E+03 0.  1.
<mgrwt>
<rscale>  2 0.23079826E+03</rscale>
<asrwt>0</asrwt>
<pdfrwt beam="1">  1       21 0.12782188E-01 0.23079826E+03</pdfrwt>
<pdfrwt beam="2">  1       21 0.12040513E+00 0.23079826E+03</pdfrwt>
<totfact> 0.26848263E+04</totfact>
</mgrwt>
</event>
<event>
 4    1  0.3950955E+000  0.1755313E+03  0.7546771E-02  0.1172199E+00
         21   -1    0    0  501  502  0.00000000000E+00  0.00000000000E+00  0.12224459001E+03  0.12224459001E+03  0.00000000000E+00 0. -1.
         21   -1    0    0  502  503 -0.00000000000E+00 -0.00000000000E+00 -0.55737684465E+03  0.55737684465E+03  0.00000000000E+00 0. -1.
          6    1    1    2  501    0  0.29670690242E+02  0.13677384079E+01  0.33939773708E+02  0.17878235038E+03  0.17300000000E+03 0. -1.
         -6    1    1    2    0  503 -0.29670690242E+02 -0.13677384079E+01 -0.46907202835E+03  0.50083908429E+03  0.17300000000E+03 0. -1.
<mgrwt>
<rscale>  2 0.17553125E+03</rscale>
<asrwt>0</asrwt>
<pdfrwt beam="1">  1       21 0.18806860E-01 0.17553125E+03</pdfrwt>
<pdfrwt beam="2">  1       21 0.85750282E-01 0.17553125E+03</pdfrwt>
<totfact> 0.30690507E+04</totfact>
</mgrwt>
</event>
<event>
 4    1  0.3950955E+000  0.1801317E+03  0.7546771E-02  0.1167676E+00
         21   -1    0    0  501  502  0.00000000000E+00  0.00000000000E+00  0.10668763637E+03  0.10668763637E+03  0.00000000000E+00 0.  1.
         21   -1    0    0  502  503 -0.00000000000E+00 -0.00000000000E+00 -0.36082976994E+03  0.36082976994E+03  0.00000000000E+00 0.  1.
          6    1    1    2  501    0  0.11682124489E+02  0.48805460474E+02 -0.34411965954E+02  0.18338928105E+03  0.17300000000E+03 0.  1.
         -6    1    1    2    0  503 -0.11682124489E+02 -0.48805460474E+02 -0.21973016761E+03  0.28412812526E+03  0.17300000000E+03 0.  1.
<mgrwt>
<rscale>  2 0.18013174E+03</rscale>
<asrwt>0</asrwt>
<pdfrwt beam="1">  1       21 0.16413483E-01 0.18013174E+03</pdfrwt>
<pdfrwt beam="2">  1       21 0.55512271E-01 0.18013174E+03</pdfrwt>
<totfact> 0.10225758E+05</totfact>
</mgrwt>
</event>
<event>
 4    1  0.3950955E+000  0.1972378E+03  0.7546771E-02  0.1152091E+00
         21   -1    0    0  503  502  0.00000000000E+00  0.00000000000E+00  0.43964333833E+02  0.43964333833E+02  0.00000000000E+00 0.  1.
         21   -1    0    0  501  503 -0.00000000000E+00 -0.00000000000E+00 -0.19507836556E+04  0.19507836556E+04  0.00000000000E+00 0.  1.
          6    1    1    2  501    0 -0.53594045001E+02  0.78111663140E+02 -0.21616040307E+03  0.29262274934E+03  0.17300000000E+03 0.  1.
         -6    1    1    2    0  502  0.53594045001E+02 -0.78111663140E+02 -0.16906589187E+04  0.17021252401E+04  0.17300000000E+03 0.  1.
<mgrwt>
<rscale>  2 0.19723781E+03</rscale>
<asrwt>0</asrwt>
<pdfrwt beam="1">  1       21 0.67637429E-02 0.19723781E+03</pdfrwt>
<pdfrwt beam="2">  1       21 0.30012060E+00 0.19723781E+03</pdfrwt>
<totfact> 0.54414632E+03</totfact>
</mgrwt>
</event>
<event>
 4    1  0.3950955E+000  0.3179912E+03  0.7546771E-02  0.1076578E+00
         21   -1    0    0  503  502  0.00000000000E+00  0.00000000000E+00  0.67172424290E+03  0.67172424290E+03  0.00000000000E+00 0.  1.
         21   -1    0    0  501  503 -0.00000000000E+00 -0.00000000000E+00 -0.15061606265E+03  0.15061606265E+03  0.00000000000E+00 0.  1.
          6    1    1    2  501    0  0.16078770037E+03 -0.21292424812E+03  0.27005686825E+03  0.41719196075E+03  0.17300000000E+03 0.  1.
         -6    1    1    2    0  502 -0.16078770037E+03  0.21292424812E+03  0.25105131201E+03  0.40514834479E+03  0.17300000000E+03 0.  1.
<mgrwt>
<rscale>  2 0.31799123E+03</rscale>
<asrwt>0</asrwt>
<pdfrwt beam="1">  1       21 0.10334219E+00 0.31799123E+03</pdfrwt>
<pdfrwt beam="2">  1       21 0.23171702E-01 0.31799123E+03</pdfrwt>
<totfact> 0.12415267E+04</totfact>
</mgrwt>
</event>
<event>
 4    1  0.3950955E+000  0.1755470E+03  0.7546771E-02  0.1172184E+00
         21   -1    0    0  503  502  0.00000000000E+00  0.00000000000E+00  0.26985635427E+03  0.26985635427E+03  0.00000000000E+00 0.  1.
         21   -1    0    0  501  503 -0.00000000000E+00 -0.00000000000E+00 -0.11763752225E+03  0.11763752225E+03  0.00000000000E+00 0.  1.
          6    1    1    2  501    0  0.17037974004E+02  0.24442867830E+02  0.42974689184E+02  0.18073065666E+03  0.17300000000E+03 0. -1.
         -6    1    1    2    0  502 -0.17037974004E+02 -0.24442867830E+02  0.10924414283E+03  0.20676321987E+03  0.17300000000E+03 0. -1.
<mgrwt>
<rscale>  2 0.17554699E+03</rscale>
<asrwt>0</asrwt>
<pdfrwt beam="1">  1       21 0.41516362E-01 0.17554699E+03</pdfrwt>
<pdfrwt beam="2">  1       21 0.18098080E-01 0.17554699E+03</pdfrwt>
<totfact> 0.15612014E+05</totfact>
</mgrwt>
</event>
<event>
 4    1  0.3950955E+000  0.2319137E+03  0.7546771E-02  0.1125300E+00
         21   -1    0    0  503  502  0.00000000000E+00  0.00000000000E+00  0.75809909585E+03  0.75809909585E+03  0.00000000000E+00 0. -1.
         21   -1    0    0  501  503 -0.00000000000E+00 -0.00000000000E+00 -0.92199847160E+02  0.92199847160E+02  0.00000000000E+00 0.  1.
          6    1    1    2  501    0  0.23440994756E+02  0.15266130742E+03  0.53707512015E+03  0.58500738432E+03  0.17300000000E+03 0. -1.
         -6    1    1    2    0  502 -0.23440994756E+02 -0.15266130742E+03  0.12882412853E+03  0.26529155869E+03  0.17300000000E+03 0. -1.
<mgrwt>
<rscale>  2 0.23191368E+03</rscale>
<asrwt>0</asrwt>
<pdfrwt beam="1">  1       21 0.11663063E+00 0.23191368E+03</pdfrwt>
<pdfrwt beam="2">  1       21 0.14184592E-01 0.23191368E+03</pdfrwt>
<totfact> 0.24041698E+04</totfact>
</mgrwt>
</event>
<event>
 4    1  0.3950955E+000  0.1807573E+03  0.7546771E-02  0.1167072E+00
         21   -1    0    0  501  502  0.00000000000E+00  0.00000000000E+00  0.23520172357E+02  0.23520172357E+02  0.00000000000E+00 0.  1.
         21   -1    0    0  502  503 -0.00000000000E+00 -0.00000000000E+00 -0.14226351991E+04  0.14226351991E+04  0.00000000000E+00 0.  1.
          6    1    1    2  501    0  0.43702194471E+02  0.28884561940E+02 -0.58863425100E+03  0.61576252011E+03  0.17300000000E+03 0.  1.
         -6    1    1    2    0  503 -0.43702194471E+02 -0.28884561940E+02 -0.81048077573E+03  0.83039285133E+03  0.17300000000E+03 0.  1.
<mgrwt>
<rscale>  2 0.18075730E+03</rscale>
<asrwt>0</asrwt>
<pdfrwt beam="1">  1       21 0.36184889E-02 0.18075730E+03</pdfrwt>
<pdfrwt beam="2">  1       21 0.21886690E+00 0.18075730E+03</pdfrwt>
<totfact> 0.47769121E+04</totfact>
</mgrwt>
</event>
<event>
 4    1  0.3950955E+000  0.2442194E+03  0.7546771E-02  0.1117013E+00
         21   -1    0    0  503  502  0.00000000000E+00  0.00000000000E+00  0.12367580339E+04  0.12367580339E+04  0.00000000000E+00 0.  1.
         21   -1    0    0  501  503 -0.00000000000E+00 -0.00000000000E+00 -0.50039033318E+02  0.50039033318E+02  0.00000000000E+00 0. -1.
          6    1    1    2  501    0  0.16913569684E+03  0.33275160792E+02  0.47086874350E+03  0.53043425029E+03  0.17300000000E+03 0. -1.
         -6    1    1    2    0  502 -0.16913569684E+03 -0.33275160792E+02  0.71585025709E+03  0.75636281694E+03  0.17300000000E+03 0.  1.
<mgrwt>
<rscale>  2 0.24421941E+03</rscale>
<asrwt>0</asrwt>
<pdfrwt beam="1">  1       21 0.19027044E+00 0.24421941E+03</pdfrwt>
<pdfrwt beam="2">  1       21 0.76983137E-02 0.24421941E+03</pdfrwt>
<totfact> 0.19239375E+04</totfact>
</mgrwt>
</event>
<event>
 4    1  0.3950955E+000  0.2436545E+03  0.7546771E-02  0.1117382E+00
         21   -1    0    0  501  502  0.00000000000E+00  0.00000000000E+00  0.89578618752E+02  0.89578618752E+02  0.00000000000E+00 0. -1.
         21   -1    0    0  502  503 -0.00000000000E+00 -0.00000000000E+00 -0.23205862736E+04  0.23205862736E+04  0.00000000000E+00 0. -1.
          6    1    1    2  501    0  0.12060331527E+03 -0.12203841299E+03 -0.96936509962E+02  0.26222932876E+03  0.17300000000E+03 0. -1.
         -6    1    1    2    0  503 -0.12060331527E+03  0.12203841299E+03 -0.21340711449E+04  0.21479355636E+04  0.17300000000E+03 0. -1.
<mgrwt>
<rscale>  2 0.24365454E+03</rscale>
<asrwt>0</asrwt>
<pdfrwt beam="1">  1       21 0.13781328E-01 0.24365454E+03</pdfrwt>
<pdfrwt beam="2">  1       21 0.35701323E+00 0.24365454E+03</pdfrwt>
<totfact> 0.67860127E+02</totfact>
</mgrwt>
</event>
<event>
 4    1  0.3950955E+000  0.1985996E+03  0.7546771E-02  0.1150926E+00
         21   -1    0    0  501  502  0.00000000000E+00  0.00000000000E+00  0.65622443444E+03  0.65622443444E+03  0.00000000000E+00 0.  1.
         21   -1    0    0  502  503 -0.00000000000E+00 -0.00000000000E+00 -0.61494274806E+02  0.61494274806E+02  0.00000000000E+00 0. -1.
          6    1    1    2  501    0  0.43930318170E+02  0.87080095468E+02  0.24340993476E+03  0.31414998364E+03  0.17300000000E+03 0. -1.
         -6    1    1    2    0  503 -0.43930318170E+02 -0.87080095468E+02  0.35132022488E+03  0.40356872561E+03  0.17300000000E+03 0. -1.
<mgrwt>
<rscale>  2 0.19859964E+03</rscale>
<asrwt>0</asrwt>
<pdfrwt beam="1">  1       21 0.10095760E+00 0.19859964E+03</pdfrwt>
<pdfrwt beam="2">  1       21 0.94606581E-02 0.19859964E+03</pdfrwt>
<totfact> 0.71610628E+04</totfact>
</mgrwt>
</event>
<event>
 4    1  0.3950955E+000  0.2683112E+03  0.7546771E-02  0.1102250E+00
         21   -1    0    0  503  502  0.00000000000E+00  0.00000000000E+00  0.35518137050E+03  0.35518137050E+03  0.00000000000E+00 0. -1.
         21   -1    0    0  501  503 -0.00000000000E+00 -0.00000000000E+00 -0.38112862096E+03  0.38112862096E+03  0.00000000000E+00 0.  1.
          6    1    1    2  501    0  0.59550563207E+02  0.19625400512E+03 -0.26488171428E+03  0.37703212948E+03  0.17300000000E+03 0.  1.
         -6    1    1    2    0  502 -0.59550563207E+02 -0.19625400512E+03  0.23893446382E+03  0.35927786197E+03  0.17300000000E+03 0. -1.
<mgrwt>
<rscale>  2 0.26831121E+03</rscale>
<asrwt>0</asrwt>
<pdfrwt beam="1">  1       21 0.54643288E-01 0.26831121E+03</pdfrwt>
<pdfrwt beam="2">  1       21 0.58635173E-01 0.26831121E+03</pdfrwt>
<totfact> 0.82140719E+03</totfact>
</mgrwt>
</event>
<event>
 4    1  0.3950955E+000  0.1792979E+03  0.7546771E-02  0.1168484E+00
         21   -1    0    0  501  502  0.00000000000E+00  0.00000000000E+00  0.68510665733E+02  0.68510665733E+02  0.00000000000E+00 0. -1.
         21   -1    0    0  502  503 -0.00000000000E+00 -0.00000000000E+00 -0.47328566360E+03  0.47328566360E+03  0.00000000000E+00 0. -1.
          6    1    1    2  501    0  0.34006664939E+02 -0.32592522705E+02 -0.17733155481E+03  0.25217891690E+03  0.17300000000E+03 0. -1.
         -6    1    1    2    0  503 -0.34006664939E+02  0.32592522705E+02 -0.22744344306E+03  0.28961741244E+03  0.17300000000E+03 0. -1.
<mgrwt>
<rscale>  2 0.17929787E+03</rscale>
<asrwt>0</asrwt>
<pdfrwt beam="1">  1       21 0.10540103E-01 0.17929787E+03</pdfrwt>
<pdfrwt beam="2">  1       21 0.72813178E-01 0.17929787E+03</pdfrwt>
<totfact> 0.12615738E+05</totfact>
</mgrwt>
</event>
<event>
 4    1  0.3950955E+000  0.2285055E+03  0.7546771E-02  0.1127696E+00
         21   -1    0    0  503  502  0.00000000000E+00  0.00000000000E+00  0.18140829230E+04  0.18140829230E+04  0.00000000000E+00 0.  1.
         21   -1    0    0  501  503 -0.00000000000E+00 -0.00000000000E+00 -0.35178964653E+02  0.35178964653E+02  0.00000000000E+00 0. -1.
          6    1    1    2  501    0  0.12999355688E+03  0.73399063407E+02  0.49519449072E+03  0.54537357012E+03  0.17300000000E+03 0. -1.
         -6    1    1    2    0  502 -0.12999355688E+03 -0.73399063407E+02  0.12837094676E+04  0.13038883175E+04  0.17300000000E+03 0. -1.
<mgrwt>
<rscale>  2 0.22850546E+03</rscale>
<asrwt>0</asrwt>
<pdfrwt beam="1">  1       21 0.27908961E+00 0.22850546E+03</pdfrwt>
<pdfrwt beam="2">  1       21 0.54121498E-02 0.22850546E+03</pdfrwt>
<totfact> 0.10232966E+04</totfact>
</mgrwt>
</event>
<event>
 4    1  0.3950955E+000  0.2013129E+03  0.7546771E-02  0.1148636E+00
         21   -1    0    0  501  502  0.00000000000E+00  0.00000000000E+00  0.31043650414E+02  0.31043650414E+02  0.00000000000E+00 0. -1.
         21   -1    0    0  502  503 -0.00000000000E+00 -0.00000000000E+00 -0.13438242653E+04  0.13438242653E+04  0.00000000000E+00 0. -1.
          6    1    1    2  501    0  0.10106927045E+03  0.19567697569E+02 -0.54027086539E+03  0.57655832333E+03  0.17300000000E+03 0. -1.
         -6    1    1    2    0  503 -0.10106927045E+03 -0.19567697569E+02 -0.77250974949E+03  0.79830959238E+03  0.17300000000E+03 0. -1.
<mgrwt>
<rscale>  2 0.20131292E+03</rscale>
<asrwt>0</asrwt>
<pdfrwt beam="1">  1       21 0.47759455E-02 0.20131292E+03</pdfrwt>
<pdfrwt beam="2">  1       21 0.20674222E+00 0.20131292E+03</pdfrwt>
<totfact> 0.35145484E+04</totfact>
</mgrwt>
</event>
<event>
 4    1  0.3950955E+000  0.1822282E+03  0.7546771E-02  0.1165664E+00
         21   -1    0    0  503  502  0.00000000000E+00  0.00000000000E+00  0.13854768296E+03  0.13854768296E+03  0.00000000000E+00 0. -1.
         21   -1    0    0  501  503 -0.00000000000E+00 -0.00000000000E+00 -0.27380511329E+03  0.27380511329E+03  0.00000000000E+00 0. -1.
          6    1    1    2  501    0 -0.49822765527E+02  0.28209779888E+02 -0.14041601951E+03  0.23005164242E+03  0.17300000000E+03 0. -1.
         -6    1    1    2    0  502  0.49822765527E+02 -0.28209779888E+02  0.51585891746E+01  0.18230115383E+03  0.17300000000E+03 0. -1.
<mgrwt>
<rscale>  2 0.18222815E+03</rscale>
<asrwt>0</asrwt>
<pdfrwt beam="1">  1       21 0.21315028E-01 0.18222815E+03</pdfrwt>
<pdfrwt beam="2">  1       21 0.42123863E-01 0.18222815E+03</pdfrwt>
<totfact> 0.11153359E+05</totfact>
</mgrwt>
</event>
<event>
 4    1  0.3950955E+000  0.2210591E+03  0.7546771E-02  0.1133096E+00
         21   -1    0    0  503  502  0.00000000000E+00  0.00000000000E+00  0.96457544165E+02  0.96457544165E+02  0.00000000000E+00 0.  1.
         21   -1    0    0  501  503 -0.00000000000E+00 -0.00000000000E+00 -0.59108675177E+03  0.59108675177E+03  0.00000000000E+00 0.  1.
          6    1    1    2  501    0  0.12196775158E+03 -0.63733680271E+02 -0.37726974873E+03  0.43726373933E+03  0.17300000000E+03 0.  1.
         -6    1    1    2    0  502 -0.12196775158E+03  0.63733680271E+02 -0.11735945888E+03  0.25028055661E+03  0.17300000000E+03 0.  1.
<mgrwt>
<rscale>  2 0.22105907E+03</rscale>
<asrwt>0</asrwt>
<pdfrwt beam="1">  1       21 0.14839622E-01 0.22105907E+03</pdfrwt>
<pdfrwt beam="2">  1       21 0.90936424E-01 0.22105907E+03</pdfrwt>
<totfact> 0.40435236E+04</totfact>
</mgrwt>
</event>
<event>
 4    1  0.3950955E+000  0.1735706E+03  0.7546771E-02  0.1174175E+00
         21   -1    0    0  501  502  0.00000000000E+00  0.00000000000E+00  0.11569739452E+03  0.11569739452E+03  0.00000000000E+00 0. -1.
         21   -1    0    0  502  503 -0.00000000000E+00 -0.00000000000E+00 -0.93452756315E+03  0.93452756315E+03  0.00000000000E+00 0. -1.
          6    1    1    2  501    0  0.47898093203E+01 -0.13221860230E+02  0.36579584163E+02  0.17738327384E+03  0.17300000000E+03 0. -1.
         -6    1    1    2    0  503 -0.47898093203E+01  0.13221860230E+02 -0.85540975279E+03  0.87284168383E+03  0.17300000000E+03 0. -1.
<mgrwt>
<rscale>  2 0.17357062E+03</rscale>
<asrwt>0</asrwt>
<pdfrwt beam="1">  1       21 0.17799599E-01 0.17357062E+03</pdfrwt>
<pdfrwt beam="2">  1       21 0.14377347E+00 0.17357062E+03</pdfrwt>
<totfact> 0.97151355E+03</totfact>
</mgrwt>
</event>
<event>
 4    1  0.3950955E+000  0.2083018E+03  0.7546771E-02  0.1142918E+00
         21   -1    0    0  503  502  0.00000000000E+00  0.00000000000E+00  0.88840550242E+03  0.88840550242E+03  0.00000000000E+00 0. -1.
         21   -1    0    0  501  503 -0.00000000000E+00 -0.00000000000E+00 -0.63340177550E+02  0.63340177550E+02  0.00000000000E+00 0.  1.
          6    1    1    2  501    0  0.24330906376E+02 -0.11344013926E+03  0.64022009605E+03  0.67325435728E+03  0.17300000000E+03 0. -1.
         -6    1    1    2    0  502 -0.24330906376E+02  0.11344013926E+03  0.18484522882E+03  0.27849132270E+03  0.17300000000E+03 0.  1.
<mgrwt>
<rscale>  2 0.20830184E+03</rscale>
<asrwt>0</asrwt>
<pdfrwt beam="1">  1       21 0.13667776E+00 0.20830184E+03</pdfrwt>
<pdfrwt beam="2">  1       21 0.97446433E-02 0.20830184E+03</pdfrwt>
<totfact> 0.32031657E+04</totfact>
</mgrwt>
</event>
<event>
 4    1  0.3950955E+000  0.2233960E+03  0.7546771E-02  0.1131376E+00
         21   -1    0    0  501  502  0.00000000000E+00  0.00000000000E+00  0.18928611973E+04  0.18928611973E+04  0.00000000000E+00 0. -1.
         21   -1    0    0  502  503 -0.00000000000E+00 -0.00000000000E+00 -0.79583835760E+02  0.79583835760E+02  0.00000000000E+00 0.  1.
          6    1    1    2  501    0 -0.29280254575E+02 -0.13827306046E+03  0.17131196336E+04  0.17276239902E+04  0.17300000000E+03 0. -1.
         -6    1    1    2    0  503  0.29280254575E+02  0.13827306046E+03  0.10015772796E+03  0.24482104286E+03  0.17300000000E+03 0.  1.
<mgrwt>
<rscale>  2 0.22339600E+03</rscale>
<asrwt>0</asrwt>
<pdfrwt beam="1">  1       21 0.29120938E+00 0.22339600E+03</pdfrwt>
<pdfrwt beam="2">  1       21 0.12243668E-01 0.22339600E+03</pdfrwt>
<totfact> 0.20946368E+03</totfact>
</mgrwt>
</event>
<event>
 4    1  0.3950955E+000  0.2193783E+03  0.7546771E-02  0.1134347E+00
         21   -1    0    0  503  502  0.00000000000E+00  0.00000000000E+00  0.19826035436E+03  0.19826035436E+03  0.00000000000E+00 0.  1.
         21   -1    0    0  501  503 -0.00000000000E+00 -0.00000000000E+00 -0.30342362349E+03  0.30342362349E+03  0.00000000000E+00 0.  1.
          6    1    1    2  501    0 -0.13226695922E+03  0.26519698506E+02 -0.16475532197E+03  0.27435589848E+03  0.17300000000E+03 0.  1.
         -6    1    1    2    0  502  0.13226695922E+03 -0.26519698506E+02  0.59592052834E+02  0.22732807937E+03  0.17300000000E+03 0.  1.
<mgrwt>
<rscale>  2 0.21937831E+03</rscale>
<asrwt>0</asrwt>
<pdfrwt beam="1">  1       21 0.30501593E-01 0.21937831E+03</pdfrwt>
<pdfrwt beam="2">  1       21 0.46680557E-01 0.21937831E+03</pdfrwt>
<totfact> 0.44747050E+04</totfact>
</mgrwt>
</event>
<event>
 4    1  0.3950955E+000  0.2093255E+03  0.7546771E-02  0.1142101E+00
         21   -1    0    0  501  502  0.00000000000E+00  0.00000000000E+00  0.65353789658E+02  0.65353789658E+02  0.00000000000E+00 0.  1.
         21   -1    0    0  502  503 -0.00000000000E+00 -0.00000000000E+00 -0.70757161802E+03  0.70757161802E+03  0.00000000000E+00 0.  1.
          6    1    1    2  501    0  0.74682796063E+02 -0.91162648968E+02 -0.23260282678E+03  0.31292367060E+03  0.17300000000E+03 0.  1.
         -6    1    1    2    0  503 -0.74682796063E+02  0.91162648968E+02 -0.40961500158E+03  0.46000173708E+03  0.17300000000E+03 0.  1.
<mgrwt>
<rscale>  2 0.20932546E+03</rscale>
<asrwt>0</asrwt>
<pdfrwt beam="1">  1       21 0.10054430E-01 0.20932546E+03</pdfrwt>
<pdfrwt beam="2">  1       21 0.10885716E+00 0.20932546E+03</pdfrwt>
<totfact> 0.53377944E+04</totfact>
</mgrwt>
</event>
<event>
 4    1  0.3950955E+000  0.3252282E+03  0.7546771E-02  0.1073268E+00
         21   -1    0    0  503  502  0.00000000000E+00  0.00000000000E+00  0.16607002975E+03  0.16607002975E+03  0.00000000000E+00 0. -1.
         21   -1    0    0  501  503 -0.00000000000E+00 -0.00000000000E+00 -0.66675737583E+03  0.66675737583E+03  0.00000000000E+00 0. -1.
          6    1    1    2  501    0 -0.12677903179E+03  0.24448200606E+03 -0.16225517964E+03  0.36345579856E+03  0.17300000000E+03 0. -1.
         -6    1    1    2    0  502  0.12677903179E+03 -0.24448200606E+03 -0.33843216644E+03  0.46937160702E+03  0.17300000000E+03 0. -1.
<mgrwt>
<rscale>  2 0.32522819E+03</rscale>
<asrwt>0</asrwt>
<pdfrwt beam="1">  1       21 0.25549235E-01 0.32522819E+03</pdfrwt>
<pdfrwt beam="2">  1       21 0.10257806E+00 0.32522819E+03</pdfrwt>
<totfact> 0.10440612E+04</totfact>
</mgrwt>
</event>
<event>
 4    1  0.3950955E+000  0.1813486E+03  0.7546771E-02  0.1166504E+00
         21   -1    0    0  501  502  0.00000000000E+00  0.00000000000E+00  0.14128567679E+03  0.14128567679E+03  0.00000000000E+00 0. -1.
         21   -1    0    0  502  503 -0.00000000000E+00 -0.00000000000E+00 -0.23505262024E+03  0.23505262024E+03  0.00000000000E+00 0. -1.
          6    1    1    2  501    0 -0.20457118218E+02 -0.50396460070E+02 -0.65419977034E+02  0.19278762997E+03  0.17300000000E+03 0. -1.
         -6    1    1    2    0  503  0.20457118218E+02  0.50396460070E+02 -0.28346966415E+02  0.18355066706E+03  0.17300000000E+03 0. -1.
<mgrwt>
<rscale>  2 0.18134855E+03</rscale>
<asrwt>0</asrwt>
<pdfrwt beam="1">  1       21 0.21736258E-01 0.18134855E+03</pdfrwt>
<pdfrwt beam="2">  1       21 0.36161941E-01 0.18134855E+03</pdfrwt>
<totfact> 0.14615638E+05</totfact>
</mgrwt>
</event>
<event>
 4    1  0.3950955E+000  0.1903525E+03  0.7546771E-02  0.1158144E+00
         21   -1    0    0  501  502  0.00000000000E+00  0.00000000000E+00  0.44288503447E+03  0.44288503447E+03  0.00000000000E+00 0.  1.
         21   -1    0    0  502  503 -0.00000000000E+00 -0.00000000000E+00 -0.84937633536E+02  0.84937633536E+02  0.00000000000E+00 0. -1.
          6    1    1    2  501    0  0.54233220127E+02 -0.57998397316E+02  0.22958645439E+03  0.29823480061E+03  0.17300000000E+03 0.  1.
         -6    1    1    2    0  503 -0.54233220127E+02  0.57998397316E+02  0.12836094654E+03  0.22958786739E+03  0.17300000000E+03 0. -1.
<mgrwt>
<rscale>  2 0.19035245E+03</rscale>
<asrwt>0</asrwt>
<pdfrwt beam="1">  1       21 0.68136158E-01 0.19035245E+03</pdfrwt>
<pdfrwt beam="2">  1       21 0.13067329E-01 0.19035245E+03</pdfrwt>
<totfact> 0.99110842E+04</totfact>
</mgrwt>
</event>
<event>
 4    1  0.3950955E+000  0.1917261E+03  0.7546771E-02  0.1156914E+00
         21   -1    0    0  501  502  0.00000000000E+00  0.00000000000E+00  0.36949600619E+03  0.36949600619E+03  0.00000000000E+00 0.  1.
         21   -1    0    0  502  503 -0.00000000000E+00 -0.00000000000E+00 -0.10948481581E+03  0.10948481581E+03  0.00000000000E+00 0.  1.
          6    1    1    2  501    0  0.72535491662E+02  0.39604139312E+02  0.20238785635E+03  0.27878258518E+03  0.17300000000E+03 0.  1.
         -6    1    1    2    0  503 -0.72535491662E+02 -0.39604139312E+02  0.57623334027E+02  0.20019823682E+03  0.17300000000E+03 0.  1.
<mgrwt>
<rscale>  2 0.19172607E+03</rscale>
<asrwt>0</asrwt>
<pdfrwt beam="1">  1       21 0.56845539E-01 0.19172607E+03</pdfrwt>
<pdfrwt beam="2">  1       21 0.16843818E-01 0.19172607E+03</pdfrwt>
<totfact> 0.92320820E+04</totfact>
</mgrwt>
</event>
<event>
 4    1  0.3950955E+000  0.2489836E+03  0.7546771E-02  0.1113949E+00
         21   -1    0    0  501  502  0.00000000000E+00  0.00000000000E+00  0.54710294670E+02  0.54710294670E+02  0.00000000000E+00 0.  1.
         21   -1    0    0  502  503 -0.00000000000E+00 -0.00000000000E+00 -0.14061379144E+04  0.14061379144E+04  0.00000000000E+00 0. -1.
          6    1    1    2  501    0 -0.15797218011E+03 -0.84312579724E+02 -0.35385596468E+03  0.43267408580E+03  0.17300000000E+03 0.  1.
         -6    1    1    2    0  503  0.15797218011E+03  0.84312579724E+02 -0.99757165504E+03  0.10281741232E+04  0.17300000000E+03 0. -1.
<mgrwt>
<rscale>  2 0.24898358E+03</rscale>
<asrwt>0</asrwt>
<pdfrwt beam="1">  1       21 0.84169692E-02 0.24898358E+03</pdfrwt>
<pdfrwt beam="2">  1       21 0.21632889E+00 0.24898358E+03</pdfrwt>
<totfact> 0.11141180E+04</totfact>
</mgrwt>
</event>
<event>
 4    1  0.3950955E+000  0.1960355E+03  0.7546771E-02  0.1153128E+00
         21   -1    0    0  503  502  0.00000000000E+00  0.00000000000E+00  0.13641889520E+04  0.13641889520E+04  0.00000000000E+00 0. -1.
         21   -1    0    0  501  503 -0.00000000000E+00 -0.00000000000E+00 -0.29063678745E+02  0.29063678745E+02  0.00000000000E+00 0. -1.
          6    1    1    2  501    0 -0.20412552203E+02 -0.89912356809E+02  0.54544164270E+03  0.57960028449E+03  0.17300000000E+03 0. -1.
         -6    1    1    2    0  502  0.20412552203E+02  0.89912356809E+02  0.78968363059E+03  0.81365234629E+03  0.17300000000E+03 0. -1.
<mgrwt>
<rscale>  2 0.19603547E+03</rscale>
<asrwt>0</asrwt>
<pdfrwt beam="1">  1       21 0.20987517E+00 0.19603547E+03</pdfrwt>
<pdfrwt beam="2">  1       21 0.44713363E-02 0.19603547E+03</pdfrwt>
<totfact> 0.37682736E+04</totfact>
</mgrwt>
</event>
<event>
 4    1  0.3950955E+000  0.2266808E+03  0.7546771E-02  0.1128998E+00
         21   -1    0    0  503  502  0.00000000000E+00  0.00000000000E+00  0.95854211283E+03  0.95854211283E+03  0.00000000000E+00 0. -1.
         21   -1    0    0  501  503 -0.00000000000E+00 -0.00000000000E+00 -0.68314422227E+02  0.68314422227E+02  0.00000000000E+00 0. -1.
          6    1    1    2  501    0 -0.12090801838E+03  0.82682734896E+02  0.20688312552E+03  0.30689544015E+03  0.17300000000E+03 0. -1.
         -6    1    1    2    0  502  0.12090801838E+03 -0.82682734896E+02  0.68334456508E+03  0.71996109491E+03  0.17300000000E+03 0. -1.
<mgrwt>
<rscale>  2 0.22668080E+03</rscale>
<asrwt>0</asrwt>
<pdfrwt beam="1">  1       21 0.14746801E+00 0.22668080E+03</pdfrwt>
<pdfrwt beam="2">  1       21 0.10509912E-01 0.22668080E+03</pdfrwt>
<totfact> 0.22736195E+04</totfact>
</mgrwt>
</event>
<event>
 4    1  0.3950955E+000  0.2651359E+03  0.7546771E-02  0.1104096E+00
         21   -1    0    0  503  502  0.00000000000E+00  0.00000000000E+00  0.25204930853E+03  0.25204930853E+03  0.00000000000E+00 0. -1.
         21   -1    0    0  501  503 -0.00000000000E+00 -0.00000000000E+00 -0.60789647845E+03  0.60789647845E+03  0.00000000000E+00 0.  1.
          6    1    1    2  501    0  0.20001418303E+03 -0.19036280523E+02 -0.49423915941E+03  0.56086486793E+03  0.17300000000E+03 0.  1.
         -6    1    1    2    0  502 -0.20001418303E+03  0.19036280523E+02  0.13839198948E+03  0.29908091905E+03  0.17300000000E+03 0. -1.
<mgrwt>
<rscale>  2 0.26513591E+03</rscale>
<asrwt>0</asrwt>
<pdfrwt beam="1">  1       21 0.38776817E-01 0.26513591E+03</pdfrwt>
<pdfrwt beam="2">  1       21 0.93522534E-01 0.26513591E+03</pdfrwt>
<totfact> 0.58699310E+03</totfact>
</mgrwt>
</event>
<event>
 4    1  0.3950955E+000  0.1794909E+03  0.7546771E-02  0.1168297E+00
         21   -1    0    0  501  502  0.00000000000E+00  0.00000000000E+00  0.12586453954E+03  0.12586453954E+03  0.00000000000E+00 0. -1.
         21   -1    0    0  502  503 -0.00000000000E+00 -0.00000000000E+00 -0.38332493294E+03  0.38332493294E+03  0.00000000000E+00 0. -1.
          6    1    1    2  501    0  0.44515506659E+02 -0.17502558238E+02  0.18020975489E+02  0.18039325219E+03  0.17300000000E+03 0. -1.
         -6    1    1    2    0  503 -0.44515506659E+02  0.17502558238E+02 -0.27548136889E+03  0.32879622030E+03  0.17300000000E+03 0. -1.
<mgrwt>
<rscale>  2 0.17949086E+03</rscale>
<asrwt>0</asrwt>
<pdfrwt beam="1">  1       21 0.19363776E-01 0.17949086E+03</pdfrwt>
<pdfrwt beam="2">  1       21 0.58973065E-01 0.17949086E+03</pdfrwt>
<totfact> 0.66306091E+04</totfact>
</mgrwt>
</event>
<event>
 4    1  0.3950955E+000  0.2965538E+03  0.7546771E-02  0.1086976E+00
         21   -1    0    0  503  502  0.00000000000E+00  0.00000000000E+00  0.31667454017E+03  0.31667454017E+03  0.00000000000E+00 0.  1.
         21   -1    0    0  501  503 -0.00000000000E+00 -0.00000000000E+00 -0.28018990596E+03  0.28018990596E+03  0.00000000000E+00 0. -1.
          6    1    1    2  501    0 -0.13949808306E+03 -0.19635536102E+03 -0.98256420335E+01  0.29671650817E+03  0.17300000000E+03 0.  1.
         -6    1    1    2    0  502  0.13949808306E+03  0.19635536102E+03  0.46310276236E+02  0.30014793796E+03  0.17300000000E+03 0.  1.
<mgrwt>
<rscale>  2 0.29655378E+03</rscale>
<asrwt>0</asrwt>
<pdfrwt beam="1">  1       21 0.48719160E-01 0.29655378E+03</pdfrwt>
<pdfrwt beam="2">  1       21 0.43106139E-01 0.29655378E+03</pdfrwt>
<totfact> 0.19764721E+04</totfact>
</mgrwt>
</event>
<event>
 4    1  0.3950955E+000  0.2291315E+03  0.7546771E-02  0.1127253E+00
         21   -1    0    0  501  502  0.00000000000E+00  0.00000000000E+00  0.79158517380E+02  0.79158517380E+02  0.00000000000E+00 0. -1.
         21   -1    0    0  502  503 -0.00000000000E+00 -0.00000000000E+00 -0.82650022508E+03  0.82650022508E+03  0.00000000000E+00 0. -1.
          6    1    1    2  501    0 -0.43982070446E+01 -0.15017622876E+03 -0.17241394660E+03  0.28675392394E+03  0.17300000000E+03 0. -1.
         -6    1    1    2    0  503  0.43982070446E+01  0.15017622876E+03 -0.57492776110E+03  0.61890481852E+03  0.17300000000E+03 0. -1.
<mgrwt>
<rscale>  2 0.22913150E+03</rscale>
<asrwt>0</asrwt>
<pdfrwt beam="1">  1       21 0.12178234E-01 0.22913150E+03</pdfrwt>
<pdfrwt beam="2">  1       21 0.12715388E+00 0.22913150E+03</pdfrwt>
<totfact> 0.25566806E+04</totfact>
</mgrwt>
</event>
<event>
 4    1  0.3950955E+000  0.2232759E+03  0.7546771E-02  0.1131464E+00
         21   -1    0    0  503  502  0.00000000000E+00  0.00000000000E+00  0.31577453004E+03  0.31577453004E+03  0.00000000000E+00 0.  1.
         21   -1    0    0  501  503 -0.00000000000E+00 -0.00000000000E+00 -0.53724495249E+03  0.53724495249E+03  0.00000000000E+00 0.  1.
          6    1    1    2  501    0 -0.11251074523E+03  0.85231835133E+02 -0.46914151890E+03  0.51956318024E+03  0.17300000000E+03 0.  1.
         -6    1    1    2    0  502  0.11251074523E+03 -0.85231835133E+02  0.24767109645E+03  0.33345630228E+03  0.17300000000E+03 0.  1.
<mgrwt>
<rscale>  2 0.22327591E+03</rscale>
<asrwt>0</asrwt>
<pdfrwt beam="1">  1       21 0.48580697E-01 0.22327591E+03</pdfrwt>
<pdfrwt beam="2">  1       21 0.82653069E-01 0.22327591E+03</pdfrwt>
<totfact> 0.50503828E+03</totfact>
</mgrwt>
</event>
<event>
 4    1  0.3950955E+000  0.1874776E+03  0.7546771E-02  0.1160756E+00
         21   -1    0    0  501  502  0.00000000000E+00  0.00000000000E+00  0.87809506070E+02  0.87809506070E+02  0.00000000000E+00 0.  1.
         21   -1    0    0  502  503 -0.00000000000E+00 -0.00000000000E+00 -0.41312354651E+03  0.41312354651E+03  0.00000000000E+00 0.  1.
          6    1    1    2  501    0 -0.26134803204E+02  0.67348589324E+02 -0.20682972237E+03  0.27915299475E+03  0.17300000000E+03 0.  1.
         -6    1    1    2    0  503  0.26134803204E+02 -0.67348589324E+02 -0.11848431807E+03  0.22178005783E+03  0.17300000000E+03 0.  1.
<mgrwt>
<rscale>  2 0.18747763E+03</rscale>
<asrwt>0</asrwt>
<pdfrwt beam="1">  1       21 0.13509155E-01 0.18747763E+03</pdfrwt>
<pdfrwt beam="2">  1       21 0.63557469E-01 0.18747763E+03</pdfrwt>
<totfact> 0.10874460E+05</totfact>
</mgrwt>
</event>
<event>
 4    1  0.3950955E+000  0.1979825E+03  0.7546771E-02  0.1151452E+00
         21   -1    0    0  503  502  0.00000000000E+00  0.00000000000E+00  0.31250341465E+03  0.31250341465E+03  0.00000000000E+00 0.  1.
         21   -1    0    0  501  503 -0.00000000000E+00 -0.00000000000E+00 -0.13574765289E+03  0.13574765289E+03  0.00000000000E+00 0. -1.
          6    1    1    2  501    0  0.88988675205E+02  0.36729707294E+02  0.26585873710E+02  0.19975951640E+03  0.17300000000E+03 0. -1.
         -6    1    1    2    0  502 -0.88988675205E+02 -0.36729707294E+02  0.15016988804E+03  0.24849155114E+03  0.17300000000E+03 0. -1.
<mgrwt>
<rscale>  2 0.19798246E+03</rscale>
<asrwt>0</asrwt>
<pdfrwt beam="1">  1       21 0.48077448E-01 0.19798246E+03</pdfrwt>
<pdfrwt beam="2">  1       21 0.20884254E-01 0.19798246E+03</pdfrwt>
<totfact> 0.87808620E+04</totfact>
</mgrwt>
</event>
<event>
 4    1  0.3950955E+000  0.2213565E+03  0.7546771E-02  0.1132876E+00
         21   -1    0    0  503  502  0.00000000000E+00  0.00000000000E+00  0.63962256861E+02  0.63962256861E+02  0.00000000000E+00 0.  1.
         21   -1    0    0  501  503 -0.00000000000E+00 -0.00000000000E+00 -0.11471614209E+04  0.11471614209E+04  0.00000000000E+00 0. -1.
          6    1    1    2  501    0 -0.93093968928E+02 -0.10199622065E+03 -0.89063410969E+03  0.91772971697E+03  0.17300000000E+03 0. -1.
         -6    1    1    2    0  502  0.93093968928E+02  0.10199622065E+03 -0.19256505440E+03  0.29339396083E+03  0.17300000000E+03 0.  1.
<mgrwt>
<rscale>  2 0.22135654E+03</rscale>
<asrwt>0</asrwt>
<pdfrwt beam="1">  1       21 0.98403477E-02 0.22135654E+03</pdfrwt>
<pdfrwt beam="2">  1       21 0.17648636E+00 0.22135654E+03</pdfrwt>
<totfact> 0.15728931E+04</totfact>
</mgrwt>
</event>
<event>
 4    1  0.3950955E+000  0.1944679E+03  0.7546771E-02  0.1154492E+00
         21   -1    0    0  503  502  0.00000000000E+00  0.00000000000E+00  0.12072622196E+04  0.12072622196E+04  0.00000000000E+00 0.  1.
         21   -1    0    0  501  503 -0.00000000000E+00 -0.00000000000E+00 -0.31854299066E+02  0.31854299066E+02  0.00000000000E+00 0.  1.
          6    1    1    2  501    0  0.54893506048E+02  0.69824591458E+02  0.66754992824E+03  0.69529898409E+03  0.17300000000E+03 0.  1.
         -6    1    1    2    0  502 -0.54893506048E+02 -0.69824591458E+02  0.50785799227E+03  0.54381753456E+03  0.17300000000E+03 0.  1.
<mgrwt>
<rscale>  2 0.19446792E+03</rscale>
<asrwt>0</asrwt>
<pdfrwt beam="1">  1       21 0.18573261E+00 0.19446792E+03</pdfrwt>
<pdfrwt beam="2">  1       21 0.49006623E-02 0.19446792E+03</pdfrwt>
<totfact> 0.46275282E+04</totfact>
</mgrwt>
</event>
<event>
 4    1  0.3950955E+000  0.2344983E+03  0.7546771E-02  0.1123513E+00
         21   -1    0    0  501  502  0.00000000000E+00  0.00000000000E+00  0.10093918924E+03  0.10093918924E+03  0.00000000000E+00 0. -1.
         21   -1    0    0  502  503 -0.00000000000E+00 -0.00000000000E+00 -0.61734405207E+03  0.61734405207E+03  0.00000000000E+00 0. -1.
          6    1    1    2  501    0 -0.10609340882E+03  0.11749321287E+03 -0.13507116303E+03  0.27061723070E+03  0.17300000000E+03 0. -1.
         -6    1    1    2    0  503  0.10609340882E+03 -0.11749321287E+03 -0.38133369980E+03  0.44766601062E+03  0.17300000000E+03 0. -1.
<mgrwt>
<rscale>  2 0.23449833E+03</rscale>
<asrwt>0</asrwt>
<pdfrwt beam="1">  1       21 0.15529106E-01 0.23449833E+03</pdfrwt>
<pdfrwt beam="2">  1       21 0.94976008E-01 0.23449833E+03</pdfrwt>
<totfact> 0.33392436E+04</totfact>
</mgrwt>
</event>
<event>
 4    1  0.3950955E+000  0.2269120E+03  0.7546771E-02  0.1128832E+00
         21   -1    0    0  503  502  0.00000000000E+00  0.00000000000E+00  0.10551727851E+04  0.10551727851E+04  0.00000000000E+00 0. -1.
         21   -1    0    0  501  503 -0.00000000000E+00 -0.00000000000E+00 -0.54121625528E+02  0.54121625528E+02  0.00000000000E+00 0. -1.
          6    1    1    2  501    0 -0.11453276460E+03  0.91881909651E+02  0.67449972750E+03  0.71164522192E+03  0.17300000000E+03 0.  1.
         -6    1    1    2    0  502  0.11453276460E+03 -0.91881909651E+02  0.32655143207E+03  0.39764918870E+03  0.17300000000E+03 0.  1.
<mgrwt>
<rscale>  2 0.22691196E+03</rscale>
<asrwt>0</asrwt>
<pdfrwt beam="1">  1       21 0.16233426E+00 0.22691196E+03</pdfrwt>
<pdfrwt beam="2">  1       21 0.83264047E-02 0.22691196E+03</pdfrwt>
<totfact> 0.26509570E+04</totfact>
</mgrwt>
</event>
<event>
 4    1  0.3950955E+000  0.2424472E+03  0.7546771E-02  0.1118173E+00
         21   -1    0    0  503  502  0.00000000000E+00  0.00000000000E+00  0.10933228610E+04  0.10933228610E+04  0.00000000000E+00 0. -1.
         21   -1    0    0  501  503 -0.00000000000E+00 -0.00000000000E+00 -0.56300845704E+02  0.56300845704E+02  0.00000000000E+00 0. -1.
          6    1    1    2  501    0  0.15820474592E+03  0.61829557440E+02  0.39647839481E+03  0.46473191557E+03  0.17300000000E+03 0. -1.
         -6    1    1    2    0  502 -0.15820474592E+03 -0.61829557440E+02  0.64054362049E+03  0.68489179113E+03  0.17300000000E+03 0. -1.
<mgrwt>
<rscale>  2 0.24244718E+03</rscale>
<asrwt>0</asrwt>
<pdfrwt beam="1">  1       21 0.16820350E+00 0.24244718E+03</pdfrwt>
<pdfrwt beam="2">  1       21 0.86616694E-02 0.24244718E+03</pdfrwt>
<totfact> 0.22235380E+04</totfact>
</mgrwt>
</event>
<event>
 4    1  0.3950955E+000  0.1960037E+03  0.7546771E-02  0.1153155E+00
         21   -1    0    0  501  502  0.00000000000E+00  0.00000000000E+00  0.14356434173E+04  0.14356434173E+04  0.00000000000E+00 0.  1.
         21   -1    0    0  502  503 -0.00000000000E+00 -0.00000000000E+00 -0.27818597038E+02  0.27818597038E+02  0.00000000000E+00 0. -1.
          6    1    1    2  501    0 -0.80304879617E+02 -0.45161804651E+02  0.84667025417E+03  0.86906155224E+03  0.17300000000E+03 0.  1.
         -6    1    1    2    0  503  0.80304879617E+02  0.45161804651E+02  0.56115456604E+03  0.59440046205E+03  0.17300000000E+03 0. -1.
<mgrwt>
<rscale>  2 0.19600373E+03</rscale>
<asrwt>0</asrwt>
<pdfrwt beam="1">  1       21 0.22086816E+00 0.19600373E+03</pdfrwt>
<pdfrwt beam="2">  1       21 0.42797853E-02 0.19600373E+03</pdfrwt>
<totfact> 0.34673682E+04</totfact>
</mgrwt>
</event>
<event>
 4    1  0.3950955E+000  0.1931503E+03  0.7546771E-02  0.1155650E+00
         21   -1    0    0  503  502  0.00000000000E+00  0.00000000000E+00  0.51673075027E+03  0.51673075027E+03  0.00000000000E+00 0. -1.
         21   -1    0    0  501  503 -0.00000000000E+00 -0.00000000000E+00 -0.11100724829E+03  0.11100724829E+03  0.00000000000E+00 0. -1.
          6    1    1    2  501    0  0.85652879043E+02  0.64512793868E+01  0.17278319694E+02  0.19392156926E+03  0.17300000000E+03 0. -1.
         -6    1    1    2    0  502 -0.85652879043E+02 -0.64512793868E+01  0.38844518228E+03  0.43381642930E+03  0.17300000000E+03 0. -1.
<mgrwt>
<rscale>  2 0.19315029E+03</rscale>
<asrwt>0</asrwt>
<pdfrwt beam="1">  1       21 0.79497037E-01 0.19315029E+03</pdfrwt>
<pdfrwt beam="2">  1       21 0.17078039E-01 0.19315029E+03</pdfrwt>
<totfact> 0.43149406E+04</totfact>
</mgrwt>
</event>
<event>
 4    1  0.3950955E+000  0.1814830E+03  0.7546771E-02  0.1166375E+00
         21   -1    0    0  503  502  0.00000000000E+00  0.00000000000E+00  0.39261868911E+03  0.39261868911E+03  0.00000000000E+00 0.  1.
         21   -1    0    0  501  503 -0.00000000000E+00 -0.00000000000E+00 -0.86246646216E+02  0.86246646216E+02  0.00000000000E+00 0.  1.
          6    1    1    2  501    0  0.54596880492E+02 -0.51259967496E+01  0.19277921874E+03  0.26476389932E+03  0.17300000000E+03 0.  1.
         -6    1    1    2    0  502 -0.54596880492E+02  0.51259967496E+01  0.11359282415E+03  0.21410143600E+03  0.17300000000E+03 0.  1.
<mgrwt>
<rscale>  2 0.18148304E+03</rscale>
<asrwt>0</asrwt>
<pdfrwt beam="1">  1       21 0.60402874E-01 0.18148304E+03</pdfrwt>
<pdfrwt beam="2">  1       21 0.13268715E-01 0.18148304E+03</pdfrwt>
<totfact> 0.12562703E+05</totfact>
</mgrwt>
</event>
<event>
 4    1  0.3950955E+000  0.3684475E+03  0.7546771E-02  0.1055288E+00
         21   -1    0    0  501  502  0.00000000000E+00  0.00000000000E+00  0.70735128639E+02  0.70735128639E+02  0.00000000000E+00 0.  1.
         21   -1    0    0  502  503 -0.00000000000E+00 -0.00000000000E+00 -0.22382516355E+04  0.22382516355E+04  0.00000000000E+00 0.  1.
          6    1    1    2  501    0  0.13081629472E+02 -0.32504376089E+03 -0.64786532040E+03  0.74530735197E+03  0.17300000000E+03 0.  1.
         -6    1    1    2    0  503 -0.13081629472E+02  0.32504376089E+03 -0.15196511865E+04  0.15636794122E+04  0.17300000000E+03 0.  1.
<mgrwt>
<rscale>  2 0.36844752E+03</rscale>
<asrwt>0</asrwt>
<pdfrwt beam="1">  1       21 0.10882328E-01 0.36844752E+03</pdfrwt>
<pdfrwt beam="2">  1       21 0.34434637E+00 0.36844752E+03</pdfrwt>
<totfact> 0.11069836E+03</totfact>
</mgrwt>
</event>
<event>
 4    1  0.3950955E+000  0.1806511E+03  0.7546771E-02  0.1167174E+00
         21   -1    0    0  501  502  0.00000000000E+00  0.00000000000E+00  0.15920166381E+04  0.15920166381E+04  0.00000000000E+00 0. -1.
         21   -1    0    0  502  503 -0.00000000000E+00 -0.00000000000E+00 -0.20621383414E+02  0.20621383414E+02  0.00000000000E+00 0. -1.
          6    1    1    2  501    0  0.40362379639E+02  0.32813143111E+02  0.84780250259E+03  0.86683557117E+03  0.17300000000E+03 0. -1.
         -6    1    1    2    0  503 -0.40362379639E+02 -0.32813143111E+02  0.72359275210E+03  0.74580245035E+03  0.17300000000E+03 0. -1.
<mgrwt>
<rscale>  2 0.18065111E+03</rscale>
<asrwt>0</asrwt>
<pdfrwt beam="1">  1       21 0.24492554E+00 0.18065111E+03</pdfrwt>
<pdfrwt beam="2">  1       21 0.31725218E-02 0.18065111E+03</pdfrwt>
<totfact> 0.41477814E+04</totfact>
</mgrwt>
</event>
<event>
 4    1  0.3950955E+000  0.3164426E+03  0.7546771E-02  0.1077298E+00
         21   -1    0    0  501  502  0.00000000000E+00  0.00000000000E+00  0.27204365776E+04  0.27204365776E+04  0.00000000000E+00 0. -1.
         21   -1    0    0  502  503 -0.00000000000E+00 -0.00000000000E+00 -0.39522096126E+02  0.39522096126E+02  0.00000000000E+00 0.  1.
          6    1    1    2  501    0  0.84176853151E+02 -0.25123930488E+03  0.17020364090E+04  0.17312030119E+04  0.17300000000E+03 0. -1.
         -6    1    1    2    0  503 -0.84176853151E+02  0.25123930488E+03  0.97887807244E+03  0.10287556618E+04  0.17300000000E+03 0.  1.
<mgrwt>
<rscale>  2 0.31644262E+03</rscale>
<asrwt>0</asrwt>
<pdfrwt beam="1">  1       21 0.41852856E+00 0.31644262E+03</pdfrwt>
<pdfrwt beam="2">  1       21 0.60803246E-02 0.31644262E+03</pdfrwt>
<totfact> 0.11096738E+03</totfact>
</mgrwt>
</event>
<event>
 4    1  0.3950955E+000  0.1858668E+03  0.7546771E-02  0.1162243E+00
         21   -1    0    0  501  502  0.00000000000E+00  0.00000000000E+00  0.32700146741E+03  0.32700146741E+03  0.00000000000E+00 0.  1.
         21   -1    0    0  502  503 -0.00000000000E+00 -0.00000000000E+00 -0.10569704950E+03  0.10569704950E+03  0.00000000000E+00 0.  1.
          6    1    1    2  501    0  0.36494972769E+02  0.57320058829E+02  0.10590826107E+03  0.21392295797E+03  0.17300000000E+03 0. -1.
         -6    1    1    2    0  503 -0.36494972769E+02 -0.57320058829E+02  0.11539615683E+03  0.21877555895E+03  0.17300000000E+03 0. -1.
<mgrwt>
<rscale>  2 0.18586681E+03</rscale>
<asrwt>0</asrwt>
<pdfrwt beam="1">  1       21 0.50307918E-01 0.18586681E+03</pdfrwt>
<pdfrwt beam="2">  1       21 0.16261085E-01 0.18586681E+03</pdfrwt>
<totfact> 0.12763895E+05</totfact>
</mgrwt>
</event>
<event>
 4    1  0.3950955E+000  0.2190121E+03  0.7546771E-02  0.1134622E+00
         21   -1    0    0  503  502  0.00000000000E+00  0.00000000000E+00  0.77469443716E+02  0.77469443716E+02  0.00000000000E+00 0. -1.
         21   -1    0    0  501  503 -0.00000000000E+00 -0.00000000000E+00 -0.90272638855E+03  0.90272638855E+03  0.00000000000E+00 0.  1.
          6    1    1    2  501    0 -0.11484264035E+03 -0.69630986104E+02 -0.68730967840E+03  0.72136045102E+03  0.17300000000E+03 0.  1.
         -6    1    1    2    0  502  0.11484264035E+03  0.69630986104E+02 -0.13794726643E+03  0.25883538124E+03  0.17300000000E+03 0. -1.
<mgrwt>
<rscale>  2 0.21901211E+03</rscale>
<asrwt>0</asrwt>
<pdfrwt beam="1">  1       21 0.11918377E-01 0.21901211E+03</pdfrwt>
<pdfrwt beam="2">  1       21 0.13888097E+00 0.21901211E+03</pdfrwt>
<totfact> 0.21342116E+04</totfact>
</mgrwt>
</event>
<event>
 4    1  0.3950955E+000  0.1984237E+03  0.7546771E-02  0.1151076E+00
         21   -1    0    0  501  502  0.00000000000E+00  0.00000000000E+00  0.39927427172E+02  0.39927427172E+02  0.00000000000E+00 0. -1.
         21   -1    0    0  502  503 -0.00000000000E+00 -0.00000000000E+00 -0.10183258403E+04  0.10183258403E+04  0.00000000000E+00 0.  1.
          6    1    1    2  501    0 -0.88657717410E+02 -0.39783956794E+02 -0.39505368397E+03  0.44208524890E+03  0.17300000000E+03 0. -1.
         -6    1    1    2    0  503  0.88657717410E+02  0.39783956794E+02 -0.58334472911E+03  0.61616801852E+03  0.17300000000E+03 0. -1.
<mgrwt>
<rscale>  2 0.19842367E+03</rscale>
<asrwt>0</asrwt>
<pdfrwt beam="1">  1       21 0.61426817E-02 0.19842367E+03</pdfrwt>
<pdfrwt beam="2">  1       21 0.15666550E+00 0.19842367E+03</pdfrwt>
<totfact> 0.50279373E+04</totfact>
</mgrwt>
</event>
<event>
 4    1  0.3950955E+000  0.1896863E+03  0.7546771E-02  0.1158745E+00
         21   -1    0    0  501  502  0.00000000000E+00  0.00000000000E+00  0.85772632982E+03  0.85772632982E+03  0.00000000000E+00 0. -1.
         21   -1    0    0  502  503 -0.00000000000E+00 -0.00000000000E+00 -0.56049901317E+02  0.56049901317E+02  0.00000000000E+00 0. -1.
          6    1    1    2  501    0  0.15089205606E+02  0.76316557910E+02  0.63000061875E+03  0.65793744442E+03  0.17300000000E+03 0. -1.
         -6    1    1    2    0  503 -0.15089205606E+02 -0.76316557910E+02  0.17167580975E+03  0.25583878672E+03  0.17300000000E+03 0. -1.
<mgrwt>
<rscale>  2 0.18968632E+03</rscale>
<asrwt>0</asrwt>
<pdfrwt beam="1">  1       21 0.13195789E+00 0.18968632E+03</pdfrwt>
<pdfrwt beam="2">  1       21 0.86230624E-02 0.18968632E+03</pdfrwt>
<totfact> 0.43893593E+04</totfact>
</mgrwt>
</event>
<event>
 4    1  0.3950955E+000  0.2420626E+03  0.7546771E-02  0.1118426E+00
         21   -1    0    0  503  502  0.00000000000E+00  0.00000000000E+00  0.24202338786E+03  0.24202338786E+03  0.00000000000E+00 0.  1.
         21   -1    0    0  501  503 -0.00000000000E+00 -0.00000000000E+00 -0.44713312200E+03  0.44713312200E+03  0.00000000000E+00 0.  1.
          6    1    1    2  501    0 -0.13356372005E+03  0.10404815453E+03 -0.33588971536E+03  0.41402437930E+03  0.17300000000E+03 0.  1.
         -6    1    1    2    0  502  0.13356372005E+03 -0.10404815453E+03  0.13077998123E+03  0.27513213055E+03  0.17300000000E+03 0.  1.
<mgrwt>
<rscale>  2 0.24206257E+03</rscale>
<asrwt>0</asrwt>
<pdfrwt beam="1">  1       21 0.37234368E-01 0.24206257E+03</pdfrwt>
<pdfrwt beam="2">  1       21 0.68789710E-01 0.24206257E+03</pdfrwt>
<totfact> 0.12999029E+04</totfact>
</mgrwt>
</event>
<event>
 4    1  0.3950955E+000  0.2419558E+03  0.7546771E-02  0.1118497E+00
         21   -1    0    0  503  502  0.00000000000E+00  0.00000000000E+00  0.85179143448E+03  0.85179143448E+03  0.00000000000E+00 0. -1.
         21   -1    0    0  501  503 -0.00000000000E+00 -0.00000000000E+00 -0.16703446286E+03  0.16703446286E+03  0.00000000000E+00 0.  1.
          6    1    1    2  501    0  0.12300845398E+03  0.11611420382E+03 -0.48423034564E+02  0.24675367952E+03  0.17300000000E+03 0.  1.
         -6    1    1    2    0  502 -0.12300845398E+03 -0.11611420382E+03  0.73318000618E+03  0.77207221783E+03  0.17300000000E+03 0. -1.
<mgrwt>
<rscale>  2 0.24195576E+03</rscale>
<asrwt>0</asrwt>
<pdfrwt beam="1">  1       21 0.13104483E+00 0.24195576E+03</pdfrwt>
<pdfrwt beam="2">  1       21 0.25697610E-01 0.24195576E+03</pdfrwt>
<totfact> 0.58712341E+03</totfact>
</mgrwt>
</event>
<event>
 4    1  0.3950955E+000  0.2059000E+03  0.7546771E-02  0.1144854E+00
         21   -1    0    0  503  502  0.00000000000E+00  0.00000000000E+00  0.60378216367E+03  0.60378216367E+03  0.00000000000E+00 0.  1.
         21   -1    0    0  501  503 -0.00000000000E+00 -0.00000000000E+00 -0.25722808869E+03  0.25722808869E+03  0.00000000000E+00 0. -1.
          6    1    1    2  501    0 -0.68437781873E+02 -0.88216170474E+02 -0.19379781836E+03  0.28275858453E+03  0.17300000000E+03 0. -1.
         -6    1    1    2    0  502  0.68437781873E+02  0.88216170474E+02  0.54035189334E+03  0.57825166784E+03  0.17300000000E+03 0.  1.
<mgrwt>
<rscale>  2 0.20590003E+03</rscale>
<asrwt>0</asrwt>
<pdfrwt beam="1">  1       21 0.92889563E-01 0.20590003E+03</pdfrwt>
<pdfrwt beam="2">  1       21 0.39573552E-01 0.20590003E+03</pdfrwt>
<totfact> 0.59488816E+03</totfact>
</mgrwt>
</event>
<event>
 4    1  0.3950955E+000  0.1861373E+03  0.7546771E-02  0.1161992E+00
         21   -1    0    0  503  502  0.00000000000E+00  0.00000000000E+00  0.88126059598E+02  0.88126059598E+02  0.00000000000E+00 0. -1.
         21   -1    0    0  501  503 -0.00000000000E+00 -0.00000000000E+00 -0.12206027136E+04  0.12206027136E+04  0.00000000000E+00 0. -1.
          6    1    1    2  501    0  0.42973874254E+02  0.53584845181E+02 -0.11050079503E+04  0.11205755931E+04  0.17300000000E+03 0. -1.
         -6    1    1    2    0  502 -0.42973874254E+02 -0.53584845181E+02 -0.27468703648E+02  0.18815318010E+03  0.17300000000E+03 0. -1.
<mgrwt>
<rscale>  2 0.18613729E+03</rscale>
<asrwt>0</asrwt>
<pdfrwt beam="1">  1       21 0.13557855E-01 0.18613729E+03</pdfrwt>
<pdfrwt beam="2">  1       21 0.18778504E+00 0.18613729E+03</pdfrwt>
<totfact> 0.76441856E+03</totfact>
</mgrwt>
</event>
<event>
 4    1  0.3950955E+000  0.2728719E+03  0.7546771E-02  0.1099647E+00
         21   -1    0    0  503  502  0.00000000000E+00  0.00000000000E+00  0.43882902413E+03  0.43882902413E+03  0.00000000000E+00 0. -1.
         21   -1    0    0  501  503 -0.00000000000E+00 -0.00000000000E+00 -0.31725828022E+03  0.31725828022E+03  0.00000000000E+00 0.  1.
          6    1    1    2  501    0  0.94818661374E+01 -0.21080841019E+03  0.31862605424E+03  0.41950167346E+03  0.17300000000E+03 0. -1.
         -6    1    1    2    0  502 -0.94818661374E+01  0.21080841019E+03 -0.19705531034E+03  0.33658563090E+03  0.17300000000E+03 0.  1.
<mgrwt>
<rscale>  2 0.27287193E+03</rscale>
<asrwt>0</asrwt>
<pdfrwt beam="1">  1       21 0.67512158E-01 0.27287193E+03</pdfrwt>
<pdfrwt beam="2">  1       21 0.48808966E-01 0.27287193E+03</pdfrwt>
<totfact> 0.76463327E+03</totfact>
</mgrwt>
</event>
<event>
 4    1  0.3950955E+000  0.1808755E+03  0.7546771E-02  0.1166958E+00
         21   -1    0    0  503  502  0.00000000000E+00  0.00000000000E+00  0.86994254474E+02  0.86994254474E+02  0.00000000000E+00 0. -1.
         21   -1    0    0  501  503 -0.00000000000E+00 -0.00000000000E+00 -0.46575992304E+03  0.46575992304E+03  0.00000000000E+00 0. -1.
          6    1    1    2  501    0 -0.21042187919E+02  0.48416525919E+02 -0.31066381038E+03  0.35948287405E+03  0.17300000000E+03 0. -1.
         -6    1    1    2    0  502  0.21042187919E+02 -0.48416525919E+02 -0.68101858184E+02  0.19327130346E+03  0.17300000000E+03 0. -1.
<mgrwt>
<rscale>  2 0.18087546E+03</rscale>
<asrwt>0</asrwt>
<pdfrwt beam="1">  1       21 0.13383731E-01 0.18087546E+03</pdfrwt>
<pdfrwt beam="2">  1       21 0.71655374E-01 0.18087546E+03</pdfrwt>
<totfact> 0.85284873E+04</totfact>
</mgrwt>
</event>
<event>
 4    1  0.3950955E+000  0.2478195E+03  0.7546771E-02  0.1114691E+00
         21   -1    0    0  503  502  0.00000000000E+00  0.00000000000E+00  0.30893607677E+03  0.30893607677E+03  0.00000000000E+00 0. -1.
         21   -1    0    0  501  503 -0.00000000000E+00 -0.00000000000E+00 -0.22316301225E+03  0.22316301225E+03  0.00000000000E+00 0. -1.
          6    1    1    2  501    0  0.76622145345E+02 -0.16004540128E+03 -0.45030868698E+02  0.25187747570E+03  0.17300000000E+03 0. -1.
         -6    1    1    2    0  502 -0.76622145345E+02  0.16004540128E+03  0.13080393322E+03  0.28022161332E+03  0.17300000000E+03 0. -1.
<mgrwt>
<rscale>  2 0.24781946E+03</rscale>
<asrwt>0</asrwt>
<pdfrwt beam="1">  1       21 0.47528627E-01 0.24781946E+03</pdfrwt>
<pdfrwt beam="2">  1       21 0.34332771E-01 0.24781946E+03</pdfrwt>
<totfact> 0.33688890E+04</totfact>
</mgrwt>
</event>
<event>
 4    1  0.3950955E+000  0.2047046E+03  0.7546771E-02  0.1145829E+00
         21   -1    0    0  501  502  0.00000000000E+00  0.00000000000E+00  0.19100114398E+03  0.19100114398E+03  0.00000000000E+00 0.  1.
         21   -1    0    0  502  503 -0.00000000000E+00 -0.00000000000E+00 -0.23091809885E+03  0.23091809885E+03  0.00000000000E+00 0.  1.
          6    1    1    2  501    0 -0.86099102535E+02  0.67541903333E+02  0.27174750684E+02  0.20650043883E+03  0.17300000000E+03 0.  1.
         -6    1    1    2    0  503  0.86099102535E+02 -0.67541903333E+02 -0.67091705552E+02  0.21541880400E+03  0.17300000000E+03 0.  1.
<mgrwt>
<rscale>  2 0.20470458E+03</rscale>
<asrwt>0</asrwt>
<pdfrwt beam="1">  1       21 0.29384792E-01 0.20470458E+03</pdfrwt>
<pdfrwt beam="2">  1       21 0.35525861E-01 0.20470458E+03</pdfrwt>
<totfact> 0.84329768E+04</totfact>
</mgrwt>
</event>
<event>
 4    1  0.3950955E+000  0.1763143E+03  0.7546771E-02  0.1171419E+00
         21   -1    0    0  501  502  0.00000000000E+00  0.00000000000E+00  0.82648598911E+03  0.82648598911E+03  0.00000000000E+00 0.  1.
         21   -1    0    0  502  503 -0.00000000000E+00 -0.00000000000E+00 -0.45392014102E+02  0.45392014102E+02  0.00000000000E+00 0. -1.
          6    1    1    2  501    0  0.16912787166E+02 -0.29524108961E+02  0.57101281295E+03  0.59761387863E+03  0.17300000000E+03 0.  1.
         -6    1    1    2    0  503 -0.16912787166E+02  0.29524108961E+02  0.21008116206E+03  0.27426412458E+03  0.17300000000E+03 0. -1.
<mgrwt>
<rscale>  2 0.17631425E+03</rscale>
<asrwt>0</asrwt>
<pdfrwt beam="1">  1       21 0.12715168E+00 0.17631425E+03</pdfrwt>
<pdfrwt beam="2">  1       21 0.69833874E-02 0.17631425E+03</pdfrwt>
<totfact> 0.69977605E+04</totfact>
</mgrwt>
</event>
<event>
 4    1  0.3950955E+000  0.2082890E+03  0.7546771E-02  0.1142928E+00
         21   -1    0    0  503  502  0.00000000000E+00  0.00000000000E+00  0.35883339153E+03  0.35883339153E+03  0.00000000000E+00 0.  1.
         21   -1    0    0  501  503 -0.00000000000E+00 -0.00000000000E+00 -0.16999361202E+03  0.16999361202E+03  0.00000000000E+00 0.  1.
          6    1    1    2  501    0  0.31099887707E+02 -0.11175021219E+03 -0.47669976629E+02  0.21367437753E+03  0.17300000000E+03 0.  1.
         -6    1    1    2    0  502 -0.31099887707E+02  0.11175021219E+03  0.23650975614E+03  0.31515262602E+03  0.17300000000E+03 0.  1.
<mgrwt>
<rscale>  2 0.20828901E+03</rscale>
<asrwt>0</asrwt>
<pdfrwt beam="1">  1       21 0.55205137E-01 0.20828901E+03</pdfrwt>
<pdfrwt beam="2">  1       21 0.26152863E-01 0.20828901E+03</pdfrwt>
<totfact> 0.42661792E+04</totfact>
</mgrwt>
</event>
<event>
 4    1  0.3950955E+000  0.1783183E+03  0.7546771E-02  0.1169441E+00
         21   -1    0    0  503  502  0.00000000000E+00  0.00000000000E+00  0.90668463988E+02  0.90668463988E+02  0.00000000000E+00 0. -1.
         21   -1    0    0  501  503 -0.00000000000E+00 -0.00000000000E+00 -0.67037123044E+03  0.67037123044E+03  0.00000000000E+00 0. -1.
          6    1    1    2  501    0 -0.23160598983E+02 -0.36496527435E+02 -0.55261882891E+03  0.58067631252E+03  0.17300000000E+03 0. -1.
         -6    1    1    2    0  502  0.23160598983E+02  0.36496527435E+02 -0.27083937545E+02  0.18036338191E+03  0.17300000000E+03 0. -1.
<mgrwt>
<rscale>  2 0.17831828E+03</rscale>
<asrwt>0</asrwt>
<pdfrwt beam="1">  1       21 0.13948995E-01 0.17831828E+03</pdfrwt>
<pdfrwt beam="2">  1       21 0.10313403E+00 0.17831828E+03</pdfrwt>
<totfact> 0.34409203E+04</totfact>
</mgrwt>
</event>
<event>
 4    1  0.3950955E+000  0.1825121E+03  0.7546771E-02  0.1165394E+00
         21   -1    0    0  503  502  0.00000000000E+00  0.00000000000E+00  0.13413750461E+03  0.13413750461E+03  0.00000000000E+00 0. -1.
         21   -1    0    0  501  503 -0.00000000000E+00 -0.00000000000E+00 -0.39352218587E+03  0.39352218587E+03  0.00000000000E+00 0. -1.
          6    1    1    2  501    0  0.42894105356E+01 -0.57993717165E+02 -0.28994584924E+03  0.34260657577E+03  0.17300000000E+03 0. -1.
         -6    1    1    2    0  502 -0.42894105356E+01  0.57993717165E+02  0.30561167981E+02  0.18505311470E+03  0.17300000000E+03 0. -1.
<mgrwt>
<rscale>  2 0.18251211E+03</rscale>
<asrwt>0</asrwt>
<pdfrwt beam="1">  1       21 0.20636539E-01 0.18251211E+03</pdfrwt>
<pdfrwt beam="2">  1       21 0.60541875E-01 0.18251211E+03</pdfrwt>
<totfact> 0.55586633E+04</totfact>
</mgrwt>
</event>
<event>
 4    1  0.3950955E+000  0.1734690E+03  0.7546771E-02  0.1174278E+00
         21   -1    0    0  501  502  0.00000000000E+00  0.00000000000E+00  0.86292247891E+02  0.86292247891E+02  0.00000000000E+00 0. -1.
         21   -1    0    0  502  503 -0.00000000000E+00 -0.00000000000E+00 -0.92877246359E+03  0.92877246359E+03  0.00000000000E+00 0. -1.
          6    1    1    2  501    0  0.39785144176E+01  0.12110345685E+02 -0.20147925402E+02  0.17463512805E+03  0.17300000000E+03 0. -1.
         -6    1    1    2    0  503 -0.39785144176E+01 -0.12110345685E+02 -0.82233229030E+03  0.84042958344E+03  0.17300000000E+03 0. -1.
<mgrwt>
<rscale>  2 0.17346899E+03</rscale>
<asrwt>0</asrwt>
<pdfrwt beam="1">  1       21 0.13275730E-01 0.17346899E+03</pdfrwt>
<pdfrwt beam="2">  1       21 0.14288808E+00 0.17346899E+03</pdfrwt>
<totfact> 0.16835514E+04</totfact>
</mgrwt>
</event>
<event>
 4    1  0.3950955E+000  0.1911238E+03  0.7546771E-02  0.1157452E+00
         21   -1    0    0  501  502  0.00000000000E+00  0.00000000000E+00  0.18677506049E+04  0.18677506049E+04  0.00000000000E+00 0.  1.
         21   -1    0    0  502  503 -0.00000000000E+00 -0.00000000000E+00 -0.42547378525E+02  0.42547378525E+02  0.00000000000E+00 0. -1.
          6    1    1    2  501    0 -0.81203147541E+02  0.23164473945E+01  0.16147099750E+04  0.16259817406E+04  0.17300000000E+03 0.  1.
         -6    1    1    2    0  503  0.81203147541E+02 -0.23164473945E+01  0.21049325128E+03  0.28431624283E+03  0.17300000000E+03 0. -1.
<mgrwt>
<rscale>  2 0.19112383E+03</rscale>
<asrwt>0</asrwt>
<pdfrwt beam="1">  1       21 0.28734618E+00 0.19112383E+03</pdfrwt>
<pdfrwt beam="2">  1       21 0.65457520E-02 0.19112383E+03</pdfrwt>
<totfact> 0.68665547E+03</totfact>
</mgrwt>
</event>
<event>
 4    1  0.3950955E+000  0.2074800E+03  0.7546771E-02  0.1143577E+00
         21   -1    0    0  503  502  0.00000000000E+00  0.00000000000E+00  0.44872333579E+03  0.44872333579E+03  0.00000000000E+00 0.  1.
         21   -1    0    0  501  503 -0.00000000000E+00 -0.00000000000E+00 -0.16494997906E+03  0.16494997906E+03  0.00000000000E+00 0.  1.
          6    1    1    2  501    0 -0.76414948111E+02  0.85321204896E+02 -0.56587969986E+02  0.21505848192E+03  0.17300000000E+03 0.  1.
         -6    1    1    2    0  502  0.76414948111E+02 -0.85321204896E+02  0.34036132672E+03  0.39861483292E+03  0.17300000000E+03 0.  1.
<mgrwt>
<rscale>  2 0.20748000E+03</rscale>
<asrwt>0</asrwt>
<pdfrwt beam="1">  1       21 0.69034359E-01 0.20748000E+03</pdfrwt>
<pdfrwt beam="2">  1       21 0.25376920E-01 0.20748000E+03</pdfrwt>
<totfact> 0.27888729E+04</totfact>
</mgrwt>
</event>
<event>
 4    1  0.3950955E+000  0.3079738E+03  0.7546771E-02  0.1081321E+00
         21   -1    0    0  501  502  0.00000000000E+00  0.00000000000E+00  0.55673714848E+03  0.55673714848E+03  0.00000000000E+00 0. -1.
         21   -1    0    0  502  503 -0.00000000000E+00 -0.00000000000E+00 -0.22031065269E+03  0.22031065269E+03  0.00000000000E+00 0.  1.
          6    1    1    2  501    0 -0.23839513653E+03  0.89925510886E+02  0.35320577815E+03  0.46861728558E+03  0.17300000000E+03 0. -1.
         -6    1    1    2    0  503  0.23839513653E+03 -0.89925510886E+02 -0.16779282363E+02  0.30843051558E+03  0.17300000000E+03 0.  1.
<mgrwt>
<rscale>  2 0.30797376E+03</rscale>
<asrwt>0</asrwt>
<pdfrwt beam="1">  1       21 0.85651868E-01 0.30797376E+03</pdfrwt>
<pdfrwt beam="2">  1       21 0.33893947E-01 0.30797376E+03</pdfrwt>
<totfact> 0.92488214E+03</totfact>
</mgrwt>
</event>
<event>
 4    1  0.3950955E+000  0.2246092E+03  0.7546771E-02  0.1130493E+00
         21   -1    0    0  503  502  0.00000000000E+00  0.00000000000E+00  0.36772853388E+03  0.36772853388E+03  0.00000000000E+00 0. -1.
         21   -1    0    0  501  503 -0.00000000000E+00 -0.00000000000E+00 -0.40881327751E+03  0.40881327751E+03  0.00000000000E+00 0. -1.
          6    1    1    2  501    0  0.47385067110E+02 -0.13518482342E+03 -0.33702839349E+03  0.40501533191E+03  0.17300000000E+03 0. -1.
         -6    1    1    2    0  502 -0.47385067110E+02  0.13518482342E+03  0.29594364986E+03  0.37152647948E+03  0.17300000000E+03 0. -1.
<mgrwt>
<rscale>  2 0.22460917E+03</rscale>
<asrwt>0</asrwt>
<pdfrwt beam="1">  1       21 0.56573621E-01 0.22460917E+03</pdfrwt>
<pdfrwt beam="2">  1       21 0.62894350E-01 0.22460917E+03</pdfrwt>
<totfact> 0.67240665E+03</totfact>
</mgrwt>
</event>
<event>
 4    1  0.3950955E+000  0.1745795E+03  0.7546771E-02  0.1173155E+00
         21   -1    0    0  503  502  0.00000000000E+00  0.00000000000E+00  0.85594000490E+02  0.85594000490E+02  0.00000000000E+00 0.  1.
         21   -1    0    0  501  503 -0.00000000000E+00 -0.00000000000E+00 -0.36020068267E+03  0.36020068267E+03  0.00000000000E+00 0.  1.
          6    1    1    2  501    0 -0.19766684862E+02  0.12580803308E+02 -0.16115452717E+03  0.23758952012E+03  0.17300000000E+03 0.  1.
         -6    1    1    2    0  502  0.19766684862E+02 -0.12580803308E+02 -0.11345215502E+03  0.20820516305E+03  0.17300000000E+03 0.  1.
<mgrwt>
<rscale>  2 0.17457949E+03</rscale>
<asrwt>0</asrwt>
<pdfrwt beam="1">  1       21 0.13168308E-01 0.17457949E+03</pdfrwt>
<pdfrwt beam="2">  1       21 0.55415490E-01 0.17457949E+03</pdfrwt>
<totfact> 0.15337760E+05</totfact>
</mgrwt>
</event>
<event>
 4    1  0.3950955E+000  0.1859263E+03  0.7546771E-02  0.1162188E+00
         21   -1    0    0  503  502  0.00000000000E+00  0.00000000000E+00  0.82869394802E+03  0.82869394802E+03  0.00000000000E+00 0.  1.
         21   -1    0    0  501  503 -0.00000000000E+00 -0.00000000000E+00 -0.68637575362E+02  0.68637575362E+02  0.00000000000E+00 0. -1.
          6    1    1    2  501    0 -0.32600169724E+02 -0.59806505203E+02  0.99029719107E+02  0.21065487034E+03  0.17300000000E+03 0. -1.
         -6    1    1    2    0  502  0.32600169724E+02  0.59806505203E+02  0.66102665355E+03  0.68667665304E+03  0.17300000000E+03 0.  1.
<mgrwt>
<rscale>  2 0.18592630E+03</rscale>
<asrwt>0</asrwt>
<pdfrwt beam="1">  1       21 0.12749137E+00 0.18592630E+03</pdfrwt>
<pdfrwt beam="2">  1       21 0.10559628E-01 0.18592630E+03</pdfrwt>
<totfact> 0.33584171E+04</totfact>
</mgrwt>
</event>
<event>
 4    1  0.3950955E+000  0.2060100E+03  0.7546771E-02  0.1144765E+00
         21   -1    0    0  503  502  0.00000000000E+00  0.00000000000E+00  0.30275775114E+03  0.30275775114E+03  0.00000000000E+00 0. -1.
         21   -1    0    0  501  503 -0.00000000000E+00 -0.00000000000E+00 -0.14073966803E+03  0.14073966803E+03  0.00000000000E+00 0.  1.
          6    1    1    2  501    0  0.16149096866E+02 -0.11068111776E+03  0.95012338689E+02  0.22686438165E+03  0.17300000000E+03 0. -1.
         -6    1    1    2    0  502 -0.16149096866E+02  0.11068111776E+03  0.67005744424E+02  0.21663303752E+03  0.17300000000E+03 0. -1.
<mgrwt>
<rscale>  2 0.20600996E+03</rscale>
<asrwt>0</asrwt>
<pdfrwt beam="1">  1       21 0.46578115E-01 0.20600996E+03</pdfrwt>
<pdfrwt beam="2">  1       21 0.21652257E-01 0.20600996E+03</pdfrwt>
<totfact> 0.87309843E+04</totfact>
</mgrwt>
</event>
<event>
 4    1  0.3950955E+000  0.2169719E+03  0.7546771E-02  0.1136161E+00
         21   -1    0    0  503  502  0.00000000000E+00  0.00000000000E+00  0.13498035504E+04  0.13498035504E+04  0.00000000000E+00 0.  1.
         21   -1    0    0  501  503 -0.00000000000E+00 -0.00000000000E+00 -0.10550097882E+03  0.10550097882E+03  0.00000000000E+00 0.  1.
          6    1    1    2  501    0  0.11722418433E+03  0.58363549933E+02  0.26801254486E+02  0.21862095187E+03  0.17300000000E+03 0.  1.
         -6    1    1    2    0  502 -0.11722418433E+03 -0.58363549933E+02  0.12175013171E+04  0.12366835774E+04  0.17300000000E+03 0.  1.
<mgrwt>
<rscale>  2 0.21697192E+03</rscale>
<asrwt>0</asrwt>
<pdfrwt beam="1">  1       21 0.20766207E+00 0.21697192E+03</pdfrwt>
<pdfrwt beam="2">  1       21 0.16230921E-01 0.21697192E+03</pdfrwt>
<totfact> 0.39853350E+03</totfact>
</mgrwt>
</event>
<event>
 4    1  0.3950955E+000  0.2968777E+03  0.7546771E-02  0.1086812E+00
         21   -1    0    0  503  502  0.00000000000E+00  0.00000000000E+00  0.70565879800E+02  0.70565879800E+02  0.00000000000E+00 0. -1.
         21   -1    0    0  501  503 -0.00000000000E+00 -0.00000000000E+00 -0.12895650336E+04  0.12895650336E+04  0.00000000000E+00 0. -1.
          6    1    1    2  501    0  0.66676640298E+02  0.23186550632E+03 -0.48887519904E+03  0.57195747011E+03  0.17300000000E+03 0. -1.
         -6    1    1    2    0  502 -0.66676640298E+02 -0.23186550632E+03 -0.73012395475E+03  0.78817344327E+03  0.17300000000E+03 0. -1.
<mgrwt>
<rscale>  2 0.29687773E+03</rscale>
<asrwt>0</asrwt>
<pdfrwt beam="1">  1       21 0.10856290E-01 0.29687773E+03</pdfrwt>
<pdfrwt beam="2">  1       21 0.19839460E+00 0.29687773E+03</pdfrwt>
<totfact> 0.89724512E+03</totfact>
</mgrwt>
</event>
<event>
 4    1  0.3950955E+000  0.2153978E+03  0.7546771E-02  0.1137361E+00
         21   -1    0    0  501  502  0.00000000000E+00  0.00000000000E+00  0.47378996892E+03  0.47378996892E+03  0.00000000000E+00 0. -1.
         21   -1    0    0  502  503 -0.00000000000E+00 -0.00000000000E+00 -0.11902026621E+03  0.11902026621E+03  0.00000000000E+00 0.  1.
          6    1    1    2  501    0 -0.12312567910E+03  0.36156222946E+02  0.30216937775E+03  0.37108292626E+03  0.17300000000E+03 0. -1.
         -6    1    1    2    0  503  0.12312567910E+03 -0.36156222946E+02  0.52600324967E+02  0.22172730887E+03  0.17300000000E+03 0.  1.
<mgrwt>
<rscale>  2 0.21539778E+03</rscale>
<asrwt>0</asrwt>
<pdfrwt beam="1">  1       21 0.72890764E-01 0.21539778E+03</pdfrwt>
<pdfrwt beam="2">  1       21 0.18310810E-01 0.21539778E+03</pdfrwt>
<totfact> 0.45564621E+04</totfact>
</mgrwt>
</event>
<event>
 4    1  0.3950955E+000  0.2770697E+03  0.7546771E-02  0.1097300E+00
         21   -1    0    0  503  502  0.00000000000E+00  0.00000000000E+00  0.20406825464E+03  0.20406825464E+03  0.00000000000E+00 0.  1.
         21   -1    0    0  501  503 -0.00000000000E+00 -0.00000000000E+00 -0.42986551315E+03  0.42986551315E+03  0.00000000000E+00 0.  1.
          6    1    1    2  501    0  0.13449832094E+03 -0.16955469872E+03 -0.22490749324E+03  0.35686268327E+03  0.17300000000E+03 0.  1.
         -6    1    1    2    0  502 -0.13449832094E+03  0.16955469872E+03 -0.88976527413E+00  0.27707108452E+03  0.17300000000E+03 0.  1.
<mgrwt>
<rscale>  2 0.27706966E+03</rscale>
<asrwt>0</asrwt>
<pdfrwt beam="1">  1       21 0.31395116E-01 0.27706966E+03</pdfrwt>
<pdfrwt beam="2">  1       21 0.66133155E-01 0.27706966E+03</pdfrwt>
<totfact> 0.19586087E+04</totfact>
</mgrwt>
</event>
<event>
 4    1  0.3950955E+000  0.1841646E+03  0.7546771E-02  0.1163832E+00
         21   -1    0    0  501  502  0.00000000000E+00  0.00000000000E+00  0.27274567925E+03  0.27274567925E+03  0.00000000000E+00 0.  1.
         21   -1    0    0  502  503 -0.00000000000E+00 -0.00000000000E+00 -0.18542776047E+03  0.18542776047E+03  0.00000000000E+00 0.  1.
          6    1    1    2  501    0 -0.62951952725E+02  0.49655216345E+01  0.17513458061E+03  0.25414312125E+03  0.17300000000E+03 0.  1.
         -6    1    1    2    0  503  0.62951952725E+02 -0.49655216345E+01 -0.87816661824E+02  0.20403031846E+03  0.17300000000E+03 0.  1.
<mgrwt>
<rscale>  2 0.18416461E+03</rscale>
<asrwt>0</asrwt>
<pdfrwt beam="1">  1       21 0.41960874E-01 0.18416461E+03</pdfrwt>
<pdfrwt beam="2">  1       21 0.28527348E-01 0.18416461E+03</pdfrwt>
<totfact> 0.64475984E+04</totfact>
</mgrwt>
</event>
<event>
 4    1  0.3950955E+000  0.2367637E+03  0.7546771E-02  0.1121968E+00
         21   -1    0    0  501  502  0.00000000000E+00  0.00000000000E+00  0.12680552150E+04  0.12680552150E+04  0.00000000000E+00 0.  1.
         21   -1    0    0  502  503 -0.00000000000E+00 -0.00000000000E+00 -0.70537672050E+02  0.70537672050E+02  0.00000000000E+00 0. -1.
          6    1    1    2  501    0  0.16146658478E+03 -0.75213761246E+01  0.18983891641E+03  0.30347296960E+03  0.17300000000E+03 0. -1.
         -6    1    1    2    0  503 -0.16146658478E+03  0.75213761246E+01  0.10076786265E+04  0.10351199174E+04  0.17300000000E+03 0.  1.
<mgrwt>
<rscale>  2 0.23676366E+03</rscale>
<asrwt>0</asrwt>
<pdfrwt beam="1">  1       21 0.19508540E+00 0.23676366E+03</pdfrwt>
<pdfrwt beam="2">  1       21 0.10851950E-01 0.23676366E+03</pdfrwt>
<totfact> 0.98005711E+03</totfact>
</mgrwt>
</event>
<event>
 4    1  0.3950955E+000  0.2021364E+03  0.7546771E-02  0.1147949E+00
         21   -1    0    0  501  502  0.00000000000E+00  0.00000000000E+00  0.10582707963E+04  0.10582707963E+04  0.00000000000E+00 0. -1.
         21   -1    0    0  502  503 -0.00000000000E+00 -0.00000000000E+00 -0.42849883560E+02  0.42849883560E+02  0.00000000000E+00 0. -1.
          6    1    1    2  501    0 -0.49749172244E+02 -0.91951789291E+02  0.68090814372E+03  0.71027812290E+03  0.17300000000E+03 0. -1.
         -6    1    1    2    0  503  0.49749172244E+02  0.91951789291E+02  0.33451276905E+03  0.39084255698E+03  0.17300000000E+03 0. -1.
<mgrwt>
<rscale>  2 0.20213637E+03</rscale>
<asrwt>0</asrwt>
<pdfrwt beam="1">  1       21 0.16281087E+00 0.20213637E+03</pdfrwt>
<pdfrwt beam="2">  1       21 0.65922906E-02 0.20213637E+03</pdfrwt>
<totfact> 0.40046697E+04</totfact>
</mgrwt>
</event>
<event>
 4    1  0.3950955E+000  0.2039986E+03  0.7546771E-02  0.1146409E+00
         21   -1    0    0  501  502  0.00000000000E+00  0.00000000000E+00  0.13897835578E+03  0.13897835578E+03  0.00000000000E+00 0.  1.
         21   -1    0    0  502  503 -0.00000000000E+00 -0.00000000000E+00 -0.34851882072E+03  0.34851882072E+03  0.00000000000E+00 0.  1.
          6    1    1    2  501    0  0.27664178535E+02 -0.10450419489E+03 -0.13299141142E+02  0.20443165283E+03  0.17300000000E+03 0.  1.
         -6    1    1    2    0  503 -0.27664178535E+02  0.10450419489E+03 -0.19624132380E+03  0.28306552367E+03  0.17300000000E+03 0.  1.
<mgrwt>
<rscale>  2 0.20399861E+03</rscale>
<asrwt>0</asrwt>
<pdfrwt beam="1">  1       21 0.21381286E-01 0.20399861E+03</pdfrwt>
<pdfrwt beam="2">  1       21 0.53618279E-01 0.20399861E+03</pdfrwt>
<totfact> 0.66692700E+04</totfact>
</mgrwt>
</event>
<event>
 4    1  0.3950955E+000  0.2132350E+03  0.7546771E-02  0.1139030E+00
         21   -1    0    0  501  502  0.00000000000E+00  0.00000000000E+00  0.46199285798E+02  0.46199285798E+02  0.00000000000E+00 0. -1.
         21   -1    0    0  502  503 -0.00000000000E+00 -0.00000000000E+00 -0.15931018805E+04  0.15931018805E+04  0.00000000000E+00 0. -1.
          6    1    1    2  501    0  0.46128641053E+02 -0.11581145457E+03 -0.26671487487E+03  0.34147616170E+03  0.17300000000E+03 0. -1.
         -6    1    1    2    0  503 -0.46128641053E+02  0.11581145457E+03 -0.12801877198E+04  0.12978250046E+04  0.17300000000E+03 0. -1.
<mgrwt>
<rscale>  2 0.21323495E+03</rscale>
<asrwt>0</asrwt>
<pdfrwt beam="1">  1       21 0.71075817E-02 0.21323495E+03</pdfrwt>
<pdfrwt beam="2">  1       21 0.24509262E+00 0.21323495E+03</pdfrwt>
<totfact> 0.10277322E+04</totfact>
</mgrwt>
</event>
<event>
 4    1  0.3950955E+000  0.2197457E+03  0.7546771E-02  0.1134073E+00
         21   -1    0    0  501  502  0.00000000000E+00  0.00000000000E+00  0.39133390116E+03  0.39133390116E+03  0.00000000000E+00 0.  1.
         21   -1    0    0  502  503 -0.00000000000E+00 -0.00000000000E+00 -0.17706556369E+03  0.17706556369E+03  0.00000000000E+00 0.  1.
          6    1    1    2  501    0  0.11937269544E+03  0.64104136525E+02  0.26360360132E+03  0.34318368167E+03  0.17300000000E+03 0.  1.
         -6    1    1    2    0  503 -0.11937269544E+03 -0.64104136525E+02 -0.49335263843E+02  0.22521578318E+03  0.17300000000E+03 0.  1.
<mgrwt>
<rscale>  2 0.21974572E+03</rscale>
<asrwt>0</asrwt>
<pdfrwt beam="1">  1       21 0.60205215E-01 0.21974572E+03</pdfrwt>
<pdfrwt beam="2">  1       21 0.27240856E-01 0.21974572E+03</pdfrwt>
<totfact> 0.32579157E+04</totfact>
</mgrwt>
</event>
<event>
 4    1  0.3950955E+000  0.3083989E+03  0.7546771E-02  0.1081116E+00
         21   -1    0    0  501  502  0.00000000000E+00  0.00000000000E+00  0.52746057482E+03  0.52746057482E+03  0.00000000000E+00 0. -1.
         21   -1    0    0  502  503 -0.00000000000E+00 -0.00000000000E+00 -0.36664985539E+03  0.36664985539E+03  0.00000000000E+00 0. -1.
          6    1    1    2  501    0  0.17723769503E+03  0.18375990636E+03  0.39910426994E+03  0.50437498155E+03  0.17300000000E+03 0. -1.
         -6    1    1    2    0  503 -0.17723769503E+03 -0.18375990636E+03 -0.23829355052E+03  0.38973544866E+03  0.17300000000E+03 0. -1.
<mgrwt>
<rscale>  2 0.30839894E+03</rscale>
<asrwt>0</asrwt>
<pdfrwt beam="1">  1       21 0.81147780E-01 0.30839894E+03</pdfrwt>
<pdfrwt beam="2">  1       21 0.56407670E-01 0.30839894E+03</pdfrwt>
<totfact> 0.36491947E+03</totfact>
</mgrwt>
</event>
<event>
 4    1  0.3950955E+000  0.3020331E+03  0.7546771E-02  0.1084229E+00
         21   -1    0    0  503  502  0.00000000000E+00  0.00000000000E+00  0.16412645259E+04  0.16412645259E+04  0.00000000000E+00 0. -1.
         21   -1    0    0  501  503 -0.00000000000E+00 -0.00000000000E+00 -0.55852425327E+02  0.55852425327E+02  0.00000000000E+00 0. -1.
          6    1    1    2  501    0  0.94546015521E+02  0.22881442927E+03  0.85180260919E+03  0.90376527767E+03  0.17300000000E+03 0. -1.
         -6    1    1    2    0  502 -0.94546015521E+02 -0.22881442927E+03  0.73360949134E+03  0.79335167352E+03  0.17300000000E+03 0. -1.
<mgrwt>
<rscale>  2 0.30203310E+03</rscale>
<asrwt>0</asrwt>
<pdfrwt beam="1">  1       21 0.25250220E+00 0.30203310E+03</pdfrwt>
<pdfrwt beam="2">  1       21 0.85926821E-02 0.30203310E+03</pdfrwt>
<totfact> 0.62314231E+03</totfact>
</mgrwt>
</event>
<event>
 4    1  0.3950955E+000  0.1778428E+03  0.7546771E-02  0.1169907E+00
         21   -1    0    0  501  502  0.00000000000E+00  0.00000000000E+00  0.71176991751E+03  0.71176991751E+03  0.00000000000E+00 0.  1.
         21   -1    0    0  502  503 -0.00000000000E+00 -0.00000000000E+00 -0.44612498611E+02  0.44612498611E+02  0.00000000000E+00 0.  1.
          6    1    1    2  501    0 -0.28223062587E+02  0.30042057562E+02  0.30977753600E+03  0.35719768798E+03  0.17300000000E+03 0.  1.
         -6    1    1    2    0  503  0.28223062587E+02 -0.30042057562E+02  0.35737988289E+03  0.39918472814E+03  0.17300000000E+03 0.  1.
<mgrwt>
<rscale>  2 0.17784281E+03</rscale>
<asrwt>0</asrwt>
<pdfrwt beam="1">  1       21 0.10950306E+00 0.17784281E+03</pdfrwt>
<pdfrwt beam="2">  1       21 0.68634618E-02 0.17784281E+03</pdfrwt>
<totfact> 0.10397684E+05</totfact>
</mgrwt>
</event>
<event>
 4    1  0.3950955E+000  0.1843977E+03  0.7546771E-02  0.1163613E+00
         21   -1    0    0  501  502  0.00000000000E+00  0.00000000000E+00  0.21179540324E+03  0.21179540324E+03  0.00000000000E+00 0.  1.
         21   -1    0    0  502  503 -0.00000000000E+00 -0.00000000000E+00 -0.11079159957E+04  0.11079159957E+04  0.00000000000E+00 0.  1.
          6    1    1    2  501    0  0.20413271631E+02 -0.60471678345E+02  0.16211662800E+03  0.24552866761E+03  0.17300000000E+03 0.  1.
         -6    1    1    2    0  503 -0.20413271631E+02  0.60471678345E+02 -0.10582372205E+04  0.10741827314E+04  0.17300000000E+03 0.  1.
<mgrwt>
<rscale>  2 0.18439774E+03</rscale>
<asrwt>0</asrwt>
<pdfrwt beam="1">  1       21 0.32583908E-01 0.18439774E+03</pdfrwt>
<pdfrwt beam="2">  1       21 0.17044862E+00 0.18439774E+03</pdfrwt>
<totfact> 0.19362527E+03</totfact>
</mgrwt>
</event>
<event>
 4    1  0.3950955E+000  0.2215047E+03  0.7546771E-02  0.1132766E+00
         21   -1    0    0  503  502  0.00000000000E+00  0.00000000000E+00  0.48330272818E+02  0.48330272818E+02  0.00000000000E+00 0. -1.
         21   -1    0    0  501  503 -0.00000000000E+00 -0.00000000000E+00 -0.11819424118E+04  0.11819424118E+04  0.00000000000E+00 0.  1.
          6    1    1    2  501    0 -0.37807311430E+02  0.13306362895E+03 -0.79785908850E+03  0.82803589732E+03  0.17300000000E+03 0.  1.
         -6    1    1    2    0  502  0.37807311430E+02 -0.13306362895E+03 -0.33575305046E+03  0.40223678728E+03  0.17300000000E+03 0. -1.
<mgrwt>
<rscale>  2 0.22150468E+03</rscale>
<asrwt>0</asrwt>
<pdfrwt beam="1">  1       21 0.74354275E-02 0.22150468E+03</pdfrwt>
<pdfrwt beam="2">  1       21 0.18183727E+00 0.22150468E+03</pdfrwt>
<totfact> 0.23625282E+04</totfact>
</mgrwt>
</event>
<event>
 4    1  0.3950955E+000  0.2539358E+03  0.7546771E-02  0.1110842E+00
         21   -1    0    0  503  502  0.00000000000E+00  0.00000000000E+00  0.13458730168E+03  0.13458730168E+03  0.00000000000E+00 0.  1.
         21   -1    0    0  501  503 -0.00000000000E+00 -0.00000000000E+00 -0.47971231287E+03  0.47971231287E+03  0.00000000000E+00 0. -1.
          6    1    1    2  501    0  0.56487586754E+02  0.17709750497E+03 -0.16176329537E+03  0.30108260902E+03  0.17300000000E+03 0.  1.
         -6    1    1    2    0  502 -0.56487586754E+02 -0.17709750497E+03 -0.18336171582E+03  0.31321700553E+03  0.17300000000E+03 0.  1.
<mgrwt>
<rscale>  2 0.25393577E+03</rscale>
<asrwt>0</asrwt>
<pdfrwt beam="1">  1       21 0.20705739E-01 0.25393577E+03</pdfrwt>
<pdfrwt beam="2">  1       21 0.73801895E-01 0.25393577E+03</pdfrwt>
<totfact> 0.34602975E+04</totfact>
</mgrwt>
</event>
<event>
 4    1  0.3950955E+000  0.1781914E+03  0.7546771E-02  0.1169565E+00
         21   -1    0    0  501  502  0.00000000000E+00  0.00000000000E+00  0.99129922671E+02  0.99129922671E+02  0.00000000000E+00 0. -1.
         21   -1    0    0  502  503 -0.00000000000E+00 -0.00000000000E+00 -0.53014715947E+03  0.53014715947E+03  0.00000000000E+00 0. -1.
          6    1    1    2  501    0 -0.28261536595E+02 -0.32007241209E+02 -0.17558287754E+02  0.17905438115E+03  0.17300000000E+03 0. -1.
         -6    1    1    2    0  503  0.28261536595E+02  0.32007241209E+02 -0.41345894905E+03  0.45022270099E+03  0.17300000000E+03 0. -1.
<mgrwt>
<rscale>  2 0.17819141E+03</rscale>
<asrwt>0</asrwt>
<pdfrwt beam="1">  1       21 0.15250757E-01 0.17819141E+03</pdfrwt>
<pdfrwt beam="2">  1       21 0.81561102E-01 0.17819141E+03</pdfrwt>
<totfact> 0.50459038E+04</totfact>
</mgrwt>
</event>
<event>
 4    1  0.3950955E+000  0.2007109E+03  0.7546771E-02  0.1149141E+00
         21   -1    0    0  503  502  0.00000000000E+00  0.00000000000E+00  0.13554903671E+03  0.13554903671E+03  0.00000000000E+00 0. -1.
         21   -1    0    0  501  503 -0.00000000000E+00 -0.00000000000E+00 -0.68849502744E+03  0.68849502744E+03  0.00000000000E+00 0. -1.
          6    1    1    2  501    0 -0.36776971919E+02 -0.94885879255E+02 -0.58708870738E+03  0.62044985783E+03  0.17300000000E+03 0. -1.
         -6    1    1    2    0  502  0.36776971919E+02  0.94885879255E+02  0.34142716655E+02  0.20359420632E+03  0.17300000000E+03 0. -1.
<mgrwt>
<rscale>  2 0.20071093E+03</rscale>
<asrwt>0</asrwt>
<pdfrwt beam="1">  1       21 0.20853698E-01 0.20071093E+03</pdfrwt>
<pdfrwt beam="2">  1       21 0.10592231E+00 0.20071093E+03</pdfrwt>
<totfact> 0.15190348E+04</totfact>
</mgrwt>
</event>
<event>
 4    1  0.3950955E+000  0.1889350E+03  0.7546771E-02  0.1159425E+00
         21   -1    0    0  501  502  0.00000000000E+00  0.00000000000E+00  0.29160216826E+02  0.29160216826E+02  0.00000000000E+00 0. -1.
         21   -1    0    0  502  503 -0.00000000000E+00 -0.00000000000E+00 -0.13289006746E+04  0.13289006746E+04  0.00000000000E+00 0. -1.
          6    1    1    2  501    0  0.63320062935E+02  0.41928369993E+02 -0.45922509435E+03  0.49657235712E+03  0.17300000000E+03 0. -1.
         -6    1    1    2    0  503 -0.63320062935E+02 -0.41928369993E+02 -0.84051536345E+03  0.86148853432E+03  0.17300000000E+03 0. -1.
<mgrwt>
<rscale>  2 0.18893496E+03</rscale>
<asrwt>0</asrwt>
<pdfrwt beam="1">  1       21 0.44861871E-02 0.18893496E+03</pdfrwt>
<pdfrwt beam="2">  1       21 0.20444626E+00 0.18893496E+03</pdfrwt>
<totfact> 0.40744891E+04</totfact>
</mgrwt>
</event>
<event>
 4    1  0.3950955E+000  0.2325228E+03  0.7546771E-02  0.1124877E+00
         21   -1    0    0  501  502  0.00000000000E+00  0.00000000000E+00  0.15738201285E+03  0.15738201285E+03  0.00000000000E+00 0. -1.
         21   -1    0    0  502  503 -0.00000000000E+00 -0.00000000000E+00 -0.38551897418E+03  0.38551897418E+03  0.00000000000E+00 0. -1.
          6    1    1    2  501    0  0.28484787717E+02  0.15273012590E+03 -0.24493166197E+02  0.23380930195E+03  0.17300000000E+03 0. -1.
         -6    1    1    2    0  503 -0.28484787717E+02 -0.15273012590E+03 -0.20364379513E+03  0.30909168508E+03  0.17300000000E+03 0. -1.
<mgrwt>
<rscale>  2 0.23252285E+03</rscale>
<asrwt>0</asrwt>
<pdfrwt beam="1">  1       21 0.24212618E-01 0.23252285E+03</pdfrwt>
<pdfrwt beam="2">  1       21 0.59310610E-01 0.23252285E+03</pdfrwt>
<totfact> 0.41946178E+04</totfact>
</mgrwt>
</event>
<event>
 4    1  0.3950955E+000  0.2046784E+03  0.7546771E-02  0.1145851E+00
         21   -1    0    0  501  502  0.00000000000E+00  0.00000000000E+00  0.49884786811E+02  0.49884786811E+02  0.00000000000E+00 0. -1.
         21   -1    0    0  502  503 -0.00000000000E+00 -0.00000000000E+00 -0.10632838823E+04  0.10632838823E+04  0.00000000000E+00 0. -1.
          6    1    1    2  501    0 -0.49602160058E+02 -0.97487744117E+02 -0.25152952605E+03  0.32428434592E+03  0.17300000000E+03 0. -1.
         -6    1    1    2    0  503  0.49602160058E+02  0.97487744117E+02 -0.76186956946E+03  0.78888432321E+03  0.17300000000E+03 0. -1.
<mgrwt>
<rscale>  2 0.20467837E+03</rscale>
<asrwt>0</asrwt>
<pdfrwt beam="1">  1       21 0.76745827E-02 0.20467837E+03</pdfrwt>
<pdfrwt beam="2">  1       21 0.16358213E+00 0.20467837E+03</pdfrwt>
<totfact> 0.30340741E+04</totfact>
</mgrwt>
</event>
<event>
 4    1  0.3950955E+000  0.1756212E+03  0.7546771E-02  0.1172109E+00
         21   -1    0    0  501  502  0.00000000000E+00  0.00000000000E+00  0.28988946155E+03  0.28988946155E+03  0.00000000000E+00 0.  1.
         21   -1    0    0  502  503 -0.00000000000E+00 -0.00000000000E+00 -0.66533533146E+03  0.66533533146E+03  0.00000000000E+00 0.  1.
          6    1    1    2  501    0 -0.22331704015E+02  0.20374316725E+02  0.25003898761E+03  0.30555247194E+03  0.17300000000E+03 0.  1.
         -6    1    1    2    0  503  0.22331704015E+02 -0.20374316725E+02 -0.62548485752E+03  0.64967232107E+03  0.17300000000E+03 0.  1.
<mgrwt>
<rscale>  2 0.17562123E+03</rscale>
<asrwt>0</asrwt>
<pdfrwt beam="1">  1       21 0.44598378E-01 0.17562123E+03</pdfrwt>
<pdfrwt beam="2">  1       21 0.10235928E+00 0.17562123E+03</pdfrwt>
<totfact> 0.38032120E+03</totfact>
</mgrwt>
</event>
<event>
 4    1  0.3950955E+000  0.1739607E+03  0.7546771E-02  0.1173779E+00
         21   -1    0    0  501  502  0.00000000000E+00  0.00000000000E+00  0.13188632793E+03  0.13188632793E+03  0.00000000000E+00 0.  1.
         21   -1    0    0  502  503 -0.00000000000E+00 -0.00000000000E+00 -0.33763612908E+03  0.33763612908E+03  0.00000000000E+00 0.  1.
          6    1    1    2  501    0  0.68381626230E+01  0.16928192547E+02  0.30009008077E+02  0.17653006751E+03  0.17300000000E+03 0.  1.
         -6    1    1    2    0  503 -0.68381626230E+01 -0.16928192547E+02 -0.23575880923E+03  0.29299238949E+03  0.17300000000E+03 0.  1.
<mgrwt>
<rscale>  2 0.17396070E+03</rscale>
<asrwt>0</asrwt>
<pdfrwt beam="1">  1       21 0.20290204E-01 0.17396070E+03</pdfrwt>
<pdfrwt beam="2">  1       21 0.51944020E-01 0.17396070E+03</pdfrwt>
<totfact> 0.79671018E+04</totfact>
</mgrwt>
</event>
<event>
 4    1  0.3950955E+000  0.3746808E+03  0.7546771E-02  0.1052917E+00
         21   -1    0    0  503  502  0.00000000000E+00  0.00000000000E+00  0.89361982372E+03  0.89361982372E+03  0.00000000000E+00 0.  1.
         21   -1    0    0  501  503 -0.00000000000E+00 -0.00000000000E+00 -0.18162802289E+03  0.18162802289E+03  0.00000000000E+00 0.  1.
          6    1    1    2  501    0 -0.12932800888E+03 -0.30615519431E+03  0.55357346259E+03  0.66845292681E+03  0.17300000000E+03 0.  1.
         -6    1    1    2    0  502  0.12932800888E+03  0.30615519431E+03  0.15841833825E+03  0.40679491980E+03  0.17300000000E+03 0.  1.
<mgrwt>
<rscale>  2 0.37468085E+03</rscale>
<asrwt>0</asrwt>
<pdfrwt beam="1">  1       21 0.13747997E+00 0.37468085E+03</pdfrwt>
<pdfrwt beam="2">  1       21 0.27942773E-01 0.37468085E+03</pdfrwt>
<totfact> 0.41091140E+03</totfact>
</mgrwt>
</event>
<event>
 4    1  0.3950955E+000  0.2427733E+03  0.7546771E-02  0.1117959E+00
         21   -1    0    0  501  502  0.00000000000E+00  0.00000000000E+00  0.28145784986E+03  0.28145784986E+03  0.00000000000E+00 0. -1.
         21   -1    0    0  502  503 -0.00000000000E+00 -0.00000000000E+00 -0.20959562562E+03  0.20959562562E+03  0.00000000000E+00 0.  1.
          6    1    1    2  501    0  0.90857975928E+02  0.14406497806E+03  0.43321244829E+02  0.24660823171E+03  0.17300000000E+03 0. -1.
         -6    1    1    2    0  503 -0.90857975928E+02 -0.14406497806E+03  0.28540979417E+02  0.24444524377E+03  0.17300000000E+03 0. -1.
<mgrwt>
<rscale>  2 0.24277333E+03</rscale>
<asrwt>0</asrwt>
<pdfrwt beam="1">  1       21 0.43301208E-01 0.24277333E+03</pdfrwt>
<pdfrwt beam="2">  1       21 0.32245481E-01 0.24277333E+03</pdfrwt>
<totfact> 0.46359525E+04</totfact>
</mgrwt>
</event>
<event>
 4    1  0.3950955E+000  0.2535183E+03  0.7546771E-02  0.1111101E+00
         21   -1    0    0  503  502  0.00000000000E+00  0.00000000000E+00  0.77542738160E+03  0.77542738160E+03  0.00000000000E+00 0. -1.
         21   -1    0    0  501  503 -0.00000000000E+00 -0.00000000000E+00 -0.88762370192E+02  0.88762370192E+02  0.00000000000E+00 0. -1.
          6    1    1    2  501    0  0.14286393662E+03  0.11803562926E+03  0.23214757766E+03  0.34374992651E+03  0.17300000000E+03 0. -1.
         -6    1    1    2    0  502 -0.14286393662E+03 -0.11803562926E+03  0.45451743375E+03  0.52043982529E+03  0.17300000000E+03 0. -1.
<mgrwt>
<rscale>  2 0.25351827E+03</rscale>
<asrwt>0</asrwt>
<pdfrwt beam="1">  1       21 0.11929652E+00 0.25351827E+03</pdfrwt>
<pdfrwt beam="2">  1       21 0.13655750E-01 0.25351827E+03</pdfrwt>
<totfact> 0.24096506E+04</totfact>
</mgrwt>
</event>
<event>
 4    1  0.3950955E+000  0.3220275E+03  0.7546771E-02  0.1074720E+00
         21   -1    0    0  501  502  0.00000000000E+00  0.00000000000E+00  0.86500240229E+03  0.86500240229E+03  0.00000000000E+00 0. -1.
         21   -1    0    0  502  503 -0.00000000000E+00 -0.00000000000E+00 -0.27979459393E+03  0.27979459393E+03  0.00000000000E+00 0.  1.
          6    1    1    2  501    0  0.46626254236E+02 -0.26757935411E+03  0.72533157295E+03  0.79360418916E+03  0.17300000000E+03 0. -1.
         -6    1    1    2    0  503 -0.46626254236E+02  0.26757935411E+03 -0.14012376459E+03  0.35119280707E+03  0.17300000000E+03 0.  1.
<mgrwt>
<rscale>  2 0.32202751E+03</rscale>
<asrwt>0</asrwt>
<pdfrwt beam="1">  1       21 0.13307729E+00 0.32202751E+03</pdfrwt>
<pdfrwt beam="2">  1       21 0.43045323E-01 0.32202751E+03</pdfrwt>
<totfact> 0.19242388E+03</totfact>
</mgrwt>
</event>
<event>
 4    1  0.3950955E+000  0.1760198E+03  0.7546771E-02  0.1171712E+00
         21   -1    0    0  501  502  0.00000000000E+00  0.00000000000E+00  0.32510072856E+03  0.32510072856E+03  0.00000000000E+00 0.  1.
         21   -1    0    0  502  503 -0.00000000000E+00 -0.00000000000E+00 -0.10655695552E+03  0.10655695552E+03  0.00000000000E+00 0.  1.
          6    1    1    2  501    0 -0.14925928378E+02 -0.28830361303E+02  0.17941373547E+03  0.25134092693E+03  0.17300000000E+03 0.  1.
         -6    1    1    2    0  503  0.14925928378E+02  0.28830361303E+02  0.39130037566E+02  0.18031675715E+03  0.17300000000E+03 0.  1.
<mgrwt>
<rscale>  2 0.17601981E+03</rscale>
<asrwt>0</asrwt>
<pdfrwt beam="1">  1       21 0.50015496E-01 0.17601981E+03</pdfrwt>
<pdfrwt beam="2">  1       21 0.16393378E-01 0.17601981E+03</pdfrwt>
<totfact> 0.12773694E+05</totfact>
</mgrwt>
</event>
<event>
 4    1  0.3950955E+000  0.2106065E+03  0.7546771E-02  0.1141087E+00
         21   -1    0    0  501  502  0.00000000000E+00  0.00000000000E+00  0.16271535037E+03  0.16271535037E+03  0.00000000000E+00 0.  1.
         21   -1    0    0  502  503 -0.00000000000E+00 -0.00000000000E+00 -0.42991355227E+03  0.42991355227E+03  0.00000000000E+00 0.  1.
          6    1    1    2  501    0 -0.12008392269E+03  0.24365329032E+01 -0.31284731161E+03  0.37713197367E+03  0.17300000000E+03 0.  1.
         -6    1    1    2    0  503  0.12008392269E+03 -0.24365329032E+01  0.45649109706E+02  0.21549692898E+03  0.17300000000E+03 0.  1.
<mgrwt>
<rscale>  2 0.21060647E+03</rscale>
<asrwt>0</asrwt>
<pdfrwt beam="1">  1       21 0.25033131E-01 0.21060647E+03</pdfrwt>
<pdfrwt beam="2">  1       21 0.66140546E-01 0.21060647E+03</pdfrwt>
<totfact> 0.31396227E+04</totfact>
</mgrwt>
</event>
<event>
 4    1  0.3950955E+000  0.2460511E+03  0.7546771E-02  0.1115826E+00
         21   -1    0    0  501  502  0.00000000000E+00  0.00000000000E+00  0.46491151849E+03  0.46491151849E+03  0.00000000000E+00 0.  1.
         21   -1    0    0  502  503 -0.00000000000E+00 -0.00000000000E+00 -0.17021280062E+03  0.17021280062E+03  0.00000000000E+00 0. -1.
          6    1    1    2  501    0  0.95695084002E+02 -0.14647384519E+03  0.30127797335E+03  0.38898528719E+03  0.17300000000E+03 0. -1.
         -6    1    1    2    0  503 -0.95695084002E+02  0.14647384519E+03 -0.65792554759E+01  0.24613903191E+03  0.17300000000E+03 0. -1.
<mgrwt>
<rscale>  2 0.24605108E+03</rscale>
<asrwt>0</asrwt>
<pdfrwt beam="1">  1       21 0.71524848E-01 0.24605108E+03</pdfrwt>
<pdfrwt beam="2">  1       21 0.26186585E-01 0.24605108E+03</pdfrwt>
<totfact> 0.23798333E+04</totfact>
</mgrwt>
</event>
<event>
 4    1  0.3950955E+000  0.3299671E+03  0.7546771E-02  0.1071151E+00
         21   -1    0    0  501  502  0.00000000000E+00  0.00000000000E+00  0.15904981305E+03  0.15904981305E+03  0.00000000000E+00 0. -1.
         21   -1    0    0  502  503 -0.00000000000E+00 -0.00000000000E+00 -0.77425492748E+03  0.77425492748E+03  0.00000000000E+00 0.  1.
          6    1    1    2  501    0 -0.24553683626E+03 -0.13660505670E+03 -0.14876670888E+03  0.36195277751E+03  0.17300000000E+03 0. -1.
         -6    1    1    2    0  503  0.24553683626E+03  0.13660505670E+03 -0.46643840555E+03  0.57135196302E+03  0.17300000000E+03 0.  1.
<mgrwt>
<rscale>  2 0.32996709E+03</rscale>
<asrwt>0</asrwt>
<pdfrwt beam="1">  1       21 0.24469202E-01 0.32996709E+03</pdfrwt>
<pdfrwt beam="2">  1       21 0.11911614E+00 0.32996709E+03</pdfrwt>
<totfact> 0.78383982E+03</totfact>
</mgrwt>
</event>
<event>
 4    1  0.3950955E+000  0.1786235E+03  0.7546771E-02  0.1169142E+00
         21   -1    0    0  503  502  0.00000000000E+00  0.00000000000E+00  0.15402074976E+04  0.15402074976E+04  0.00000000000E+00 0.  1.
         21   -1    0    0  501  503 -0.00000000000E+00 -0.00000000000E+00 -0.20836146640E+02  0.20836146640E+02  0.00000000000E+00 0. -1.
          6    1    1    2  501    0  0.28460770687E+02  0.34166289747E+02  0.70032201121E+03  0.72274287974E+03  0.17300000000E+03 0.  1.
         -6    1    1    2    0  502 -0.28460770687E+02 -0.34166289747E+02  0.81904933971E+03  0.83830076446E+03  0.17300000000E+03 0. -1.
<mgrwt>
<rscale>  2 0.17862349E+03</rscale>
<asrwt>0</asrwt>
<pdfrwt beam="1">  1       21 0.23695491E+00 0.17862349E+03</pdfrwt>
<pdfrwt beam="2">  1       21 0.32055622E-02 0.17862349E+03</pdfrwt>
<totfact> 0.45519990E+04</totfact>
</mgrwt>
</event>
<event>
 4    1  0.3950955E+000  0.1839194E+03  0.7546771E-02  0.1164063E+00
         21   -1    0    0  501  502  0.00000000000E+00  0.00000000000E+00  0.30339093971E+02  0.30339093971E+02  0.00000000000E+00 0.  1.
         21   -1    0    0  502  503 -0.00000000000E+00 -0.00000000000E+00 -0.16498333874E+04  0.16498333874E+04  0.00000000000E+00 0.  1.
          6    1    1    2  501    0 -0.11749522379E+02 -0.61313218899E+02 -0.33140769398E+03  0.37902166392E+03  0.17300000000E+03 0.  1.
         -6    1    1    2    0  503  0.11749522379E+02  0.61313218899E+02 -0.12880865995E+04  0.13011508175E+04  0.17300000000E+03 0.  1.
<mgrwt>
<rscale>  2 0.18391944E+03</rscale>
<asrwt>0</asrwt>
<pdfrwt beam="1">  1       21 0.46675533E-02 0.18391944E+03</pdfrwt>
<pdfrwt beam="2">  1       21 0.25382050E+00 0.18391944E+03</pdfrwt>
<totfact> 0.19234484E+04</totfact>
</mgrwt>
</event>
<event>
 4    1  0.3950955E+000  0.2336986E+03  0.7546771E-02  0.1124063E+00
         21   -1    0    0  501  502  0.00000000000E+00  0.00000000000E+00  0.69844115215E+02  0.69844115215E+02  0.00000000000E+00 0. -1.
         21   -1    0    0  502  503 -0.00000000000E+00 -0.00000000000E+00 -0.11532527109E+04  0.11532527109E+04  0.00000000000E+00 0.  1.
          6    1    1    2  501    0  0.15425582496E+03  0.29852934043E+02 -0.19470477111E+03  0.30417923186E+03  0.17300000000E+03 0. -1.
         -6    1    1    2    0  503 -0.15425582496E+03 -0.29852934043E+02 -0.88870382456E+03  0.91891759423E+03  0.17300000000E+03 0.  1.
<mgrwt>
<rscale>  2 0.23369865E+03</rscale>
<asrwt>0</asrwt>
<pdfrwt beam="1">  1       21 0.10745249E-01 0.23369865E+03</pdfrwt>
<pdfrwt beam="2">  1       21 0.17742348E+00 0.23369865E+03</pdfrwt>
<totfact> 0.13143967E+04</totfact>
</mgrwt>
</event>
<event>
 4    1  0.3950955E+000  0.2121587E+03  0.7546771E-02  0.1139868E+00
         21   -1    0    0  503  502  0.00000000000E+00  0.00000000000E+00  0.22510910228E+03  0.22510910228E+03  0.00000000000E+00 0. -1.
         21   -1    0    0  501  503 -0.00000000000E+00 -0.00000000000E+00 -0.29790595871E+03  0.29790595871E+03  0.00000000000E+00 0. -1.
          6    1    1    2  501    0 -0.41064952673E+01  0.12274131623E+03 -0.18635063280E+03  0.28237891628E+03  0.17300000000E+03 0. -1.
         -6    1    1    2    0  502  0.41064952673E+01 -0.12274131623E+03  0.11355377637E+03  0.24063614471E+03  0.17300000000E+03 0. -1.
<mgrwt>
<rscale>  2 0.21215865E+03</rscale>
<asrwt>0</asrwt>
<pdfrwt beam="1">  1       21 0.34632169E-01 0.21215865E+03</pdfrwt>
<pdfrwt beam="2">  1       21 0.45831686E-01 0.21215865E+03</pdfrwt>
<totfact> 0.36302927E+04</totfact>
</mgrwt>
</event>
<event>
 4    1  0.3950955E+000  0.2846303E+03  0.7546771E-02  0.1093187E+00
         21   -1    0    0  501  502  0.00000000000E+00  0.00000000000E+00  0.66888829552E+03  0.66888829552E+03  0.00000000000E+00 0. -1.
         21   -1    0    0  502  503 -0.00000000000E+00 -0.00000000000E+00 -0.12130818447E+03  0.12130818447E+03  0.00000000000E+00 0.  1.
          6    1    1    2  501    0  0.43093098148E+02 -0.22187466693E+03  0.28943586976E+03  0.40594027348E+03  0.17300000000E+03 0. -1.
         -6    1    1    2    0  503 -0.43093098148E+02  0.22187466693E+03  0.25814424129E+03  0.38425620651E+03  0.17300000000E+03 0.  1.
<mgrwt>
<rscale>  2 0.28463026E+03</rscale>
<asrwt>0</asrwt>
<pdfrwt beam="1">  1       21 0.10290589E+00 0.28463026E+03</pdfrwt>
<pdfrwt beam="2">  1       21 0.18662798E-01 0.28463026E+03</pdfrwt>
<totfact> 0.19172000E+04</totfact>
</mgrwt>
</event>
<event>
 4    1  0.3950955E+000  0.2560799E+03  0.7546771E-02  0.1109522E+00
         21   -1    0    0  501  502  0.00000000000E+00  0.00000000000E+00  0.45540615541E+02  0.45540615541E+02  0.00000000000E+00 0.  1.
         21   -1    0    0  502  503 -0.00000000000E+00 -0.00000000000E+00 -0.14609847909E+04  0.14609847909E+04  0.00000000000E+00 0. -1.
          6    1    1    2  501    0 -0.17029875014E+03  0.81524454124E+02 -0.61737047819E+03  0.66837355443E+03  0.17300000000E+03 0.  1.
         -6    1    1    2    0  503  0.17029875014E+03 -0.81524454124E+02 -0.79807369716E+03  0.83815185201E+03  0.17300000000E+03 0. -1.
<mgrwt>
<rscale>  2 0.25607987E+03</rscale>
<asrwt>0</asrwt>
<pdfrwt beam="1">  1       21 0.70062476E-02 0.25607987E+03</pdfrwt>
<pdfrwt beam="2">  1       21 0.22476692E+00 0.25607987E+03</pdfrwt>
<totfact> 0.13539357E+04</totfact>
</mgrwt>
</event>
<event>
 4    1  0.3950955E+000  0.2149530E+03  0.7546771E-02  0.1137703E+00
         21   -1    0    0  503  502  0.00000000000E+00  0.00000000000E+00  0.13873299644E+03  0.13873299644E+03  0.00000000000E+00 0. -1.
         21   -1    0    0  501  503 -0.00000000000E+00 -0.00000000000E+00 -0.33565894939E+03  0.33565894939E+03  0.00000000000E+00 0. -1.
          6    1    1    2  501    0 -0.53176607549E+02  0.11596566604E+03 -0.77544345154E+02  0.22851239082E+03  0.17300000000E+03 0. -1.
         -6    1    1    2    0  502  0.53176607549E+02 -0.11596566604E+03 -0.11938160780E+03  0.24587955501E+03  0.17300000000E+03 0. -1.
<mgrwt>
<rscale>  2 0.21495299E+03</rscale>
<asrwt>0</asrwt>
<pdfrwt beam="1">  1       21 0.21343538E-01 0.21495299E+03</pdfrwt>
<pdfrwt beam="2">  1       21 0.51639838E-01 0.21495299E+03</pdfrwt>
<totfact> 0.72083811E+04</totfact>
</mgrwt>
</event>
<event>
 4    1  0.3950955E+000  0.1740458E+03  0.7546771E-02  0.1173693E+00
         21   -1    0    0  503  502  0.00000000000E+00  0.00000000000E+00  0.75669175456E+03  0.75669175456E+03  0.00000000000E+00 0.  1.
         21   -1    0    0  501  503 -0.00000000000E+00 -0.00000000000E+00 -0.40738643272E+02  0.40738643272E+02  0.00000000000E+00 0.  1.
          6    1    1    2  501    0 -0.14459682292E+02  0.12404407362E+02  0.41048537400E+03  0.44585893958E+03  0.17300000000E+03 0.  1.
         -6    1    1    2    0  502  0.14459682292E+02 -0.12404407362E+02  0.30546773729E+03  0.35157145825E+03  0.17300000000E+03 0.  1.
<mgrwt>
<rscale>  2 0.17404583E+03</rscale>
<asrwt>0</asrwt>
<pdfrwt beam="1">  1       21 0.11641411E+00 0.17404583E+03</pdfrwt>
<pdfrwt beam="2">  1       21 0.62674842E-02 0.17404583E+03</pdfrwt>
<totfact> 0.10495044E+05</totfact>
</mgrwt>
</event>
<event>
 4    1  0.3950955E+000  0.1741113E+03  0.7546771E-02  0.1173627E+00
         21   -1    0    0  501  502  0.00000000000E+00  0.00000000000E+00  0.57977574095E+02  0.57977574095E+02  0.00000000000E+00 0.  1.
         21   -1    0    0  502  503 -0.00000000000E+00 -0.00000000000E+00 -0.15334629766E+04  0.15334629766E+04  0.00000000000E+00 0.  1.
          6    1    1    2  501    0  0.14787205056E+01  0.19584425294E+02 -0.91773359407E+02  0.19681739208E+03  0.17300000000E+03 0.  1.
         -6    1    1    2    0  503 -0.14787205056E+01 -0.19584425294E+02 -0.13837120431E+04  0.13946231586E+04  0.17300000000E+03 0.  1.
<mgrwt>
<rscale>  2 0.17411128E+03</rscale>
<asrwt>0</asrwt>
<pdfrwt beam="1">  1       21 0.89196264E-02 0.17411128E+03</pdfrwt>
<pdfrwt beam="2">  1       21 0.23591739E+00 0.17411128E+03</pdfrwt>
<totfact> 0.81432143E+03</totfact>
</mgrwt>
</event>
<event>
 4    1  0.3950955E+000  0.1764910E+03  0.7546771E-02  0.1171243E+00
         21   -1    0    0  503  502  0.00000000000E+00  0.00000000000E+00  0.10267019037E+02  0.10267019037E+02  0.00000000000E+00 0.  1.
         21   -1    0    0  501  503 -0.00000000000E+00 -0.00000000000E+00 -0.32851868584E+04  0.32851868584E+04  0.00000000000E+00 0.  1.
          6    1    1    2  501    0  0.11578531799E+02  0.32954561194E+02 -0.20931753752E+04  0.21006028223E+04  0.17300000000E+03 0.  1.
         -6    1    1    2    0  502 -0.11578531799E+02 -0.32954561194E+02 -0.11817444642E+04  0.11948510552E+04  0.17300000000E+03 0.  1.
<mgrwt>
<rscale>  2 0.17649098E+03</rscale>
<asrwt>0</asrwt>
<pdfrwt beam="1">  1       21 0.15795417E-02 0.17649098E+03</pdfrwt>
<pdfrwt beam="2">  1       21 0.50541327E+00 0.17649098E+03</pdfrwt>
<totfact> 0.32079291E+03</totfact>
</mgrwt>
</event>
<event>
 4    1  0.3950955E+000  0.2248238E+03  0.7546771E-02  0.1130337E+00
         21   -1    0    0  501  502  0.00000000000E+00  0.00000000000E+00  0.11831490663E+04  0.11831490663E+04  0.00000000000E+00 0.  1.
         21   -1    0    0  502  503 -0.00000000000E+00 -0.00000000000E+00 -0.44507437833E+02  0.44507437833E+02  0.00000000000E+00 0. -1.
          6    1    1    2  501    0  0.11381221088E+03 -0.87541669184E+02  0.69228484636E+03  0.72787641237E+03  0.17300000000E+03 0. -1.
         -6    1    1    2    0  503 -0.11381221088E+03  0.87541669184E+02  0.44635678214E+03  0.49978009179E+03  0.17300000000E+03 0. -1.
<mgrwt>
<rscale>  2 0.22482385E+03</rscale>
<asrwt>0</asrwt>
<pdfrwt beam="1">  1       21 0.18202291E+00 0.22482385E+03</pdfrwt>
<pdfrwt beam="2">  1       21 0.68472990E-02 0.22482385E+03</pdfrwt>
<totfact> 0.27119477E+04</totfact>
</mgrwt>
</event>
<event>
 4    1  0.3950955E+000  0.1983559E+03  0.7546771E-02  0.1151134E+00
         21   -1    0    0  501  502  0.00000000000E+00  0.00000000000E+00  0.31971304472E+03  0.31971304472E+03  0.00000000000E+00 0. -1.
         21   -1    0    0  502  503 -0.00000000000E+00 -0.00000000000E+00 -0.12674794770E+03  0.12674794770E+03  0.00000000000E+00 0.  1.
          6    1    1    2  501    0  0.20006705445E+02 -0.94951511715E+02  0.13454175680E+03  0.23968008295E+03  0.17300000000E+03 0. -1.
         -6    1    1    2    0  503 -0.20006705445E+02  0.94951511715E+02  0.58423340218E+02  0.20678090947E+03  0.17300000000E+03 0.  1.
<mgrwt>
<rscale>  2 0.19835589E+03</rscale>
<asrwt>0</asrwt>
<pdfrwt beam="1">  1       21 0.49186622E-01 0.19835589E+03</pdfrwt>
<pdfrwt beam="2">  1       21 0.19499684E-01 0.19835589E+03</pdfrwt>
<totfact> 0.95195288E+04</totfact>
</mgrwt>
</event>
<event>
 4    1  0.3950955E+000  0.1892298E+03  0.7546771E-02  0.1159158E+00
         21   -1    0    0  501  502  0.00000000000E+00  0.00000000000E+00  0.14595808874E+03  0.14595808874E+03  0.00000000000E+00 0.  1.
         21   -1    0    0  502  503 -0.00000000000E+00 -0.00000000000E+00 -0.25188248254E+03  0.25188248254E+03  0.00000000000E+00 0.  1.
          6    1    1    2  501    0 -0.70146933547E+02 -0.30956945527E+02 -0.85045341671E+02  0.20746236985E+03  0.17300000000E+03 0.  1.
         -6    1    1    2    0  503  0.70146933547E+02  0.30956945527E+02 -0.20879052127E+02  0.19037820143E+03  0.17300000000E+03 0.  1.
<mgrwt>
<rscale>  2 0.18922982E+03</rscale>
<asrwt>0</asrwt>
<pdfrwt beam="1">  1       21 0.22455091E-01 0.18922982E+03</pdfrwt>
<pdfrwt beam="2">  1       21 0.38751151E-01 0.18922982E+03</pdfrwt>
<totfact> 0.11939786E+05</totfact>
</mgrwt>
</event>
<event>
 4    1  0.3950955E+000  0.1805968E+03  0.7546771E-02  0.1167227E+00
         21   -1    0    0  503  502  0.00000000000E+00  0.00000000000E+00  0.13965260200E+03  0.13965260200E+03  0.00000000000E+00 0.  1.
         21   -1    0    0  501  503 -0.00000000000E+00 -0.00000000000E+00 -0.51897723954E+03  0.51897723954E+03  0.00000000000E+00 0.  1.
          6    1    1    2  501    0  0.51607421067E+02 -0.47838998569E+01 -0.43388642095E+03  0.46997089048E+03  0.17300000000E+03 0.  1.
         -6    1    1    2    0  502 -0.51607421067E+02  0.47838998569E+01  0.54561783413E+02  0.18865895106E+03  0.17300000000E+03 0.  1.
<mgrwt>
<rscale>  2 0.18059682E+03</rscale>
<asrwt>0</asrwt>
<pdfrwt beam="1">  1       21 0.21485015E-01 0.18059682E+03</pdfrwt>
<pdfrwt beam="2">  1       21 0.79842654E-01 0.18059682E+03</pdfrwt>
<totfact> 0.28071896E+04</totfact>
</mgrwt>
</event>
<event>
 4    1  0.3950955E+000  0.3803916E+03  0.7546771E-02  0.1050789E+00
         21   -1    0    0  503  502  0.00000000000E+00  0.00000000000E+00  0.28372106908E+03  0.28372106908E+03  0.00000000000E+00 0. -1.
         21   -1    0    0  501  503 -0.00000000000E+00 -0.00000000000E+00 -0.15147159831E+04  0.15147159831E+04  0.00000000000E+00 0.  1.
          6    1    1    2  501    0 -0.68799949928E+02  0.33171570578E+03 -0.13478518641E+04  0.14005007641E+04  0.17300000000E+03 0.  1.
         -6    1    1    2    0  502  0.68799949928E+02 -0.33171570578E+03  0.11685695013E+03  0.39793628807E+03  0.17300000000E+03 0. -1.
<mgrwt>
<rscale>  2 0.38039156E+03</rscale>
<asrwt>0</asrwt>
<pdfrwt beam="1">  1       21 0.43649394E-01 0.38039156E+03</pdfrwt>
<pdfrwt beam="2">  1       21 0.23303324E+00 0.38039156E+03</pdfrwt>
<totfact> 0.35648895E+02</totfact>
</mgrwt>
</event>
<event>
 4    1  0.3950955E+000  0.3008286E+03  0.7546771E-02  0.1084827E+00
         21   -1    0    0  501  502  0.00000000000E+00  0.00000000000E+00  0.49219998164E+02  0.49219998164E+02  0.00000000000E+00 0. -1.
         21   -1    0    0  502  503 -0.00000000000E+00 -0.00000000000E+00 -0.22069344056E+04  0.22069344056E+04  0.00000000000E+00 0.  1.
          6    1    1    2  501    0  0.24541432213E+03  0.18457260580E+02 -0.61802625268E+03  0.68735311811E+03  0.17300000000E+03 0. -1.
         -6    1    1    2    0  503 -0.24541432213E+03 -0.18457260580E+02 -0.15396881548E+04  0.15688012857E+04  0.17300000000E+03 0.  1.
<mgrwt>
<rscale>  2 0.30082862E+03</rscale>
<asrwt>0</asrwt>
<pdfrwt beam="1">  1       21 0.75723079E-02 0.30082862E+03</pdfrwt>
<pdfrwt beam="2">  1       21 0.33952835E+00 0.30082862E+03</pdfrwt>
<totfact> 0.23741369E+03</totfact>
</mgrwt>
</event>
<event>
 4    1  0.3950955E+000  0.1945257E+03  0.7546771E-02  0.1154442E+00
         21   -1    0    0  501  502  0.00000000000E+00  0.00000000000E+00  0.59314371408E+02  0.59314371408E+02  0.00000000000E+00 0. -1.
         21   -1    0    0  502  503 -0.00000000000E+00 -0.00000000000E+00 -0.67774227437E+03  0.67774227437E+03  0.00000000000E+00 0. -1.
          6    1    1    2  501    0 -0.88942781100E+02 -0.66516269984E+00 -0.39849873778E+03  0.44344278635E+03  0.17300000000E+03 0. -1.
         -6    1    1    2    0  503  0.88942781100E+02  0.66516269984E+00 -0.21992916518E+03  0.29361385943E+03  0.17300000000E+03 0. -1.
<mgrwt>
<rscale>  2 0.19452573E+03</rscale>
<asrwt>0</asrwt>
<pdfrwt beam="1">  1       21 0.91252881E-02 0.19452573E+03</pdfrwt>
<pdfrwt beam="2">  1       21 0.10426804E+00 0.19452573E+03</pdfrwt>
<totfact> 0.70776190E+04</totfact>
</mgrwt>
</event>
<event>
 4    1  0.3950955E+000  0.2844181E+03  0.7546771E-02  0.1093300E+00
         21   -1    0    0  503  502  0.00000000000E+00  0.00000000000E+00  0.40001040261E+03  0.40001040261E+03  0.00000000000E+00 0.  1.
         21   -1    0    0  501  503 -0.00000000000E+00 -0.00000000000E+00 -0.51524451649E+03  0.51524451649E+03  0.00000000000E+00 0. -1.
          6    1    1    2  501    0 -0.13674931519E+03 -0.17962267896E+03 -0.41430494115E+03  0.50253583580E+03  0.17300000000E+03 0. -1.
         -6    1    1    2    0  502  0.13674931519E+03  0.17962267896E+03  0.29907082727E+03  0.41271908331E+03  0.17300000000E+03 0.  1.
<mgrwt>
<rscale>  2 0.28441815E+03</rscale>
<asrwt>0</asrwt>
<pdfrwt beam="1">  1       21 0.61540063E-01 0.28441815E+03</pdfrwt>
<pdfrwt beam="2">  1       21 0.79268386E-01 0.28441815E+03</pdfrwt>
<totfact> 0.32306848E+03</totfact>
</mgrwt>
</event>
<event>
 4    1  0.3950955E+000  0.1890103E+03  0.7546771E-02  0.1159357E+00
         21   -1    0    0  501  502  0.00000000000E+00  0.00000000000E+00  0.67761010998E+02  0.67761010998E+02  0.00000000000E+00 0. -1.
         21   -1    0    0  502  503 -0.00000000000E+00 -0.00000000000E+00 -0.63444362663E+03  0.63444362663E+03  0.00000000000E+00 0. -1.
          6    1    1    2  501    0 -0.73234436241E+02  0.20799567791E+02 -0.13900217741E+03  0.23461992668E+03  0.17300000000E+03 0. -1.
         -6    1    1    2    0  503  0.73234436241E+02 -0.20799567791E+02 -0.42768043823E+03  0.46758471095E+03  0.17300000000E+03 0. -1.
<mgrwt>
<rscale>  2 0.18901033E+03</rscale>
<asrwt>0</asrwt>
<pdfrwt beam="1">  1       21 0.10424771E-01 0.18901033E+03</pdfrwt>
<pdfrwt beam="2">  1       21 0.97606709E-01 0.18901033E+03</pdfrwt>
<totfact> 0.65645342E+04</totfact>
</mgrwt>
</event>
<event>
 4    1  0.3950955E+000  0.2060584E+03  0.7546771E-02  0.1144726E+00
         21   -1    0    0  503  502  0.00000000000E+00  0.00000000000E+00  0.20045885999E+04  0.20045885999E+04  0.00000000000E+00 0.  1.
         21   -1    0    0  501  503 -0.00000000000E+00 -0.00000000000E+00 -0.58500090780E+02  0.58500090780E+02  0.00000000000E+00 0.  1.
          6    1    1    2  501    0  0.71226542568E+02  0.86358920765E+02  0.14914792247E+03  0.25437214144E+03  0.17300000000E+03 0.  1.
         -6    1    1    2    0  502 -0.71226542568E+02 -0.86358920765E+02  0.17969405867E+04  0.18087165493E+04  0.17300000000E+03 0.  1.
<mgrwt>
<rscale>  2 0.20605845E+03</rscale>
<asrwt>0</asrwt>
<pdfrwt beam="1">  1       21 0.30839819E+00 0.20605845E+03</pdfrwt>
<pdfrwt beam="2">  1       21 0.90000155E-02 0.20605845E+03</pdfrwt>
<totfact> 0.29352114E+03</totfact>
</mgrwt>
</event>
<event>
 4    1  0.3950955E+000  0.2458168E+03  0.7546771E-02  0.1115977E+00
         21   -1    0    0  501  502  0.00000000000E+00  0.00000000000E+00  0.20080707636E+03  0.20080707636E+03  0.00000000000E+00 0.  1.
         21   -1    0    0  502  503 -0.00000000000E+00 -0.00000000000E+00 -0.31712855744E+03  0.31712855744E+03  0.00000000000E+00 0.  1.
          6    1    1    2  501    0  0.75966441811E+02 -0.15724506701E+03  0.39425367141E+00  0.24581714101E+03  0.17300000000E+03 0.  1.
         -6    1    1    2    0  503 -0.75966441811E+02  0.15724506701E+03 -0.11671573475E+03  0.27211849279E+03  0.17300000000E+03 0.  1.
<mgrwt>
<rscale>  2 0.24581682E+03</rscale>
<asrwt>0</asrwt>
<pdfrwt beam="1">  1       21 0.30893396E-01 0.24581682E+03</pdfrwt>
<pdfrwt beam="2">  1       21 0.48789009E-01 0.24581682E+03</pdfrwt>
<totfact> 0.39345175E+04</totfact>
</mgrwt>
</event>
<event>
 4    1  0.3950955E+000  0.2220419E+03  0.7546771E-02  0.1132370E+00
         21   -1    0    0  501  502  0.00000000000E+00  0.00000000000E+00  0.37069712122E+03  0.37069712122E+03  0.00000000000E+00 0. -1.
         21   -1    0    0  502  503 -0.00000000000E+00 -0.00000000000E+00 -0.14467886798E+03  0.14467886798E+03  0.00000000000E+00 0.  1.
          6    1    1    2  501    0 -0.12866991576E+03  0.53081689575E+02  0.18622364877E+03  0.28979623937E+03  0.17300000000E+03 0. -1.
         -6    1    1    2    0  503  0.12866991576E+03 -0.53081689575E+02  0.39794604473E+02  0.22557974984E+03  0.17300000000E+03 0.  1.
<mgrwt>
<rscale>  2 0.22204192E+03</rscale>
<asrwt>0</asrwt>
<pdfrwt beam="1">  1       21 0.57030326E-01 0.22204192E+03</pdfrwt>
<pdfrwt beam="2">  1       21 0.22258288E-01 0.22204192E+03</pdfrwt>
<totfact> 0.53797586E+04</totfact>
</mgrwt>
</event>
<event>
 4    1  0.3950955E+000  0.2271787E+03  0.7546771E-02  0.1128641E+00
         21   -1    0    0  503  502  0.00000000000E+00  0.00000000000E+00  0.13096825795E+04  0.13096825795E+04  0.00000000000E+00 0. -1.
         21   -1    0    0  501  503 -0.00000000000E+00 -0.00000000000E+00 -0.10454834168E+03  0.10454834168E+03  0.00000000000E+00 0. -1.
          6    1    1    2  501    0  0.46536734934E+02 -0.13969793515E+03  0.44403749593E+02  0.23147758803E+03  0.17300000000E+03 0. -1.
         -6    1    1    2    0  502 -0.46536734934E+02  0.13969793515E+03  0.11607304883E+04  0.11827533332E+04  0.17300000000E+03 0. -1.
<mgrwt>
<rscale>  2 0.22717874E+03</rscale>
<asrwt>0</asrwt>
<pdfrwt beam="1">  1       21 0.20148962E+00 0.22717874E+03</pdfrwt>
<pdfrwt beam="2">  1       21 0.16084361E-01 0.22717874E+03</pdfrwt>
<totfact> 0.43985404E+03</totfact>
</mgrwt>
</event>
<event>
 4    1  0.3950955E+000  0.1793686E+03  0.7546771E-02  0.1168416E+00
         21   -1    0    0  501  502  0.00000000000E+00  0.00000000000E+00  0.22072820273E+02  0.22072820273E+02  0.00000000000E+00 0.  1.
         21   -1    0    0  502  503 -0.00000000000E+00 -0.00000000000E+00 -0.14681495131E+04  0.14681495131E+04  0.00000000000E+00 0.  1.
          6    1    1    2  501    0 -0.39079360581E+02 -0.26774633482E+02 -0.65984090457E+03  0.68378585593E+03  0.17300000000E+03 0.  1.
         -6    1    1    2    0  503  0.39079360581E+02  0.26774633482E+02 -0.78623578829E+03  0.80643647748E+03  0.17300000000E+03 0.  1.
<mgrwt>
<rscale>  2 0.17936855E+03</rscale>
<asrwt>0</asrwt>
<pdfrwt beam="1">  1       21 0.33958177E-02 0.17936855E+03</pdfrwt>
<pdfrwt beam="2">  1       21 0.22586921E+00 0.17936855E+03</pdfrwt>
<totfact> 0.48180510E+04</totfact>
</mgrwt>
</event>
<event>
 4    1  0.3950955E+000  0.2397220E+03  0.7546771E-02  0.1119978E+00
         21   -1    0    0  503  502  0.00000000000E+00  0.00000000000E+00  0.10614148187E+04  0.10614148187E+04  0.00000000000E+00 0. -1.
         21   -1    0    0  501  503 -0.00000000000E+00 -0.00000000000E+00 -0.71152603128E+02  0.71152603128E+02  0.00000000000E+00 0. -1.
          6    1    1    2  501    0 -0.90553394856E+02 -0.13906009574E+03  0.21824289716E+03  0.32418604181E+03  0.17300000000E+03 0. -1.
         -6    1    1    2    0  502  0.90553394856E+02  0.13906009574E+03  0.77201931838E+03  0.80838137998E+03  0.17300000000E+03 0. -1.
<mgrwt>
<rscale>  2 0.23972198E+03</rscale>
<asrwt>0</asrwt>
<pdfrwt beam="1">  1       21 0.16329458E+00 0.23972198E+03</pdfrwt>
<pdfrwt beam="2">  1       21 0.10946555E-01 0.23972198E+03</pdfrwt>
<totfact> 0.15956250E+04</totfact>
</mgrwt>
</event>
<event>
 4    1  0.3950955E+000  0.1928740E+03  0.7546771E-02  0.1155894E+00
         21   -1    0    0  503  502  0.00000000000E+00  0.00000000000E+00  0.19182283439E+03  0.19182283439E+03  0.00000000000E+00 0. -1.
         21   -1    0    0  501  503 -0.00000000000E+00 -0.00000000000E+00 -0.22246716477E+03  0.22246716477E+03  0.00000000000E+00 0. -1.
          6    1    1    2  501    0 -0.19135356271E+02 -0.83097593110E+02  0.58866947835E+02  0.20165735639E+03  0.17300000000E+03 0. -1.
         -6    1    1    2    0  502  0.19135356271E+02  0.83097593110E+02 -0.89511278219E+02  0.21263264276E+03  0.17300000000E+03 0. -1.
<mgrwt>
<rscale>  2 0.19287398E+03</rscale>
<asrwt>0</asrwt>
<pdfrwt beam="1">  1       21 0.29511205E-01 0.19287398E+03</pdfrwt>
<pdfrwt beam="2">  1       21 0.34225718E-01 0.19287398E+03</pdfrwt>
<totfact> 0.90507656E+04</totfact>
</mgrwt>
</event>
<event>
 4    1  0.3950955E+000  0.2336771E+03  0.7546771E-02  0.1124078E+00
         21   -1    0    0  501  502  0.00000000000E+00  0.00000000000E+00  0.41753513777E+03  0.41753513777E+03  0.00000000000E+00 0.  1.
         21   -1    0    0  502  503 -0.00000000000E+00 -0.00000000000E+00 -0.41716559273E+03  0.41716559273E+03  0.00000000000E+00 0. -1.
          6    1    1    2  501    0 -0.15700245652E+03 -0.51200785579E+01  0.34598287852E+03  0.41750345961E+03  0.17300000000E+03 0.  1.
         -6    1    1    2    0  503  0.15700245652E+03  0.51200785579E+01 -0.34561333348E+03  0.41719727089E+03  0.17300000000E+03 0. -1.
<mgrwt>
<rscale>  2 0.23367710E+03</rscale>
<asrwt>0</asrwt>
<pdfrwt beam="1">  1       21 0.64236175E-01 0.23367710E+03</pdfrwt>
<pdfrwt beam="2">  1       21 0.64179322E-01 0.23367710E+03</pdfrwt>
<totfact> 0.48618374E+03</totfact>
</mgrwt>
</event>
<event>
 4    1  0.3950955E+000  0.1845392E+03  0.7546771E-02  0.1163481E+00
         21   -1    0    0  503  502  0.00000000000E+00  0.00000000000E+00  0.72685373637E+02  0.72685373637E+02  0.00000000000E+00 0. -1.
         21   -1    0    0  501  503 -0.00000000000E+00 -0.00000000000E+00 -0.61979358200E+03  0.61979358200E+03  0.00000000000E+00 0. -1.
          6    1    1    2  501    0  0.50812277939E+02  0.39291417668E+02 -0.44460745787E+03  0.48138393688E+03  0.17300000000E+03 0. -1.
         -6    1    1    2    0  502 -0.50812277939E+02 -0.39291417668E+02 -0.10250075049E+03  0.21109501875E+03  0.17300000000E+03 0. -1.
<mgrwt>
<rscale>  2 0.18453916E+03</rscale>
<asrwt>0</asrwt>
<pdfrwt beam="1">  1       21 0.11182365E-01 0.18453916E+03</pdfrwt>
<pdfrwt beam="2">  1       21 0.95352856E-01 0.18453916E+03</pdfrwt>
<totfact> 0.61354000E+04</totfact>
</mgrwt>
</event>
<event>
 4    1  0.3950955E+000  0.2216157E+03  0.7546771E-02  0.1132684E+00
         21   -1    0    0  501  502  0.00000000000E+00  0.00000000000E+00  0.66510907062E+03  0.66510907062E+03  0.00000000000E+00 0.  1.
         21   -1    0    0  502  503 -0.00000000000E+00 -0.00000000000E+00 -0.17143413920E+03  0.17143413920E+03  0.00000000000E+00 0.  1.
          6    1    1    2  501    0  0.12299501927E+03  0.63692513661E+02  0.56242176096E+03  0.60450951048E+03  0.17300000000E+03 0.  1.
         -6    1    1    2    0  503 -0.12299501927E+03 -0.63692513661E+02 -0.68746829526E+02  0.23203369934E+03  0.17300000000E+03 0.  1.
<mgrwt>
<rscale>  2 0.22161568E+03</rscale>
<asrwt>0</asrwt>
<pdfrwt beam="1">  1       21 0.10232447E+00 0.22161568E+03</pdfrwt>
<pdfrwt beam="2">  1       21 0.26374483E-01 0.22161568E+03</pdfrwt>
<totfact> 0.10419396E+04</totfact>
</mgrwt>
</event>
<event>
 4    1  0.3950955E+000  0.2089394E+03  0.7546771E-02  0.1142409E+00
         21   -1    0    0  503  502  0.00000000000E+00  0.00000000000E+00  0.44861877057E+02  0.44861877057E+02  0.00000000000E+00 0.  1.
         21   -1    0    0  501  503 -0.00000000000E+00 -0.00000000000E+00 -0.11725048076E+04  0.11725048076E+04  0.00000000000E+00 0.  1.
          6    1    1    2  501    0  0.61924017856E+02 -0.99459048689E+02 -0.81482942807E+03  0.84119122868E+03  0.17300000000E+03 0.  1.
         -6    1    1    2    0  502 -0.61924017856E+02  0.99459048689E+02 -0.31281350248E+03  0.37617545599E+03  0.17300000000E+03 0.  1.
<mgrwt>
<rscale>  2 0.20893943E+03</rscale>
<asrwt>0</asrwt>
<pdfrwt beam="1">  1       21 0.69018277E-02 0.20893943E+03</pdfrwt>
<pdfrwt beam="2">  1       21 0.18038534E+00 0.20893943E+03</pdfrwt>
<totfact> 0.27726780E+04</totfact>
</mgrwt>
</event>
<event>
 4    1  0.3950955E+000  0.2118395E+03  0.7546771E-02  0.1140117E+00
         21   -1    0    0  501  502  0.00000000000E+00  0.00000000000E+00  0.72930467491E+03  0.72930467491E+03  0.00000000000E+00 0. -1.
         21   -1    0    0  502  503 -0.00000000000E+00 -0.00000000000E+00 -0.13814558265E+03  0.13814558265E+03  0.00000000000E+00 0. -1.
          6    1    1    2  501    0  0.10744945025E+03 -0.58323322164E+02  0.61857569246E+03  0.65384392753E+03  0.17300000000E+03 0. -1.
         -6    1    1    2    0  503 -0.10744945025E+03  0.58323322164E+02 -0.27416600200E+02  0.21360633004E+03  0.17300000000E+03 0. -1.
<mgrwt>
<rscale>  2 0.21183955E+03</rscale>
<asrwt>0</asrwt>
<pdfrwt beam="1">  1       21 0.11220072E+00 0.21183955E+03</pdfrwt>
<pdfrwt beam="2">  1       21 0.21253167E-01 0.21183955E+03</pdfrwt>
<totfact> 0.12657650E+04</totfact>
</mgrwt>
</event>
<event>
 4    1  0.3950955E+000  0.1861588E+03  0.7546771E-02  0.1161972E+00
         21   -1    0    0  503  502  0.00000000000E+00  0.00000000000E+00  0.68091543705E+02  0.68091543705E+02  0.00000000000E+00 0. -1.
         21   -1    0    0  501  503 -0.00000000000E+00 -0.00000000000E+00 -0.54298479554E+03  0.54298479554E+03  0.00000000000E+00 0. -1.
          6    1    1    2  501    0 -0.62342484321E+02 -0.28974441191E+02 -0.16095015203E+03  0.24608952646E+03  0.17300000000E+03 0. -1.
         -6    1    1    2    0  502  0.62342484321E+02  0.28974441191E+02 -0.31394309981E+03  0.36498681279E+03  0.17300000000E+03 0. -1.
<mgrwt>
<rscale>  2 0.18615881E+03</rscale>
<asrwt>0</asrwt>
<pdfrwt beam="1">  1       21 0.10475622E-01 0.18615881E+03</pdfrwt>
<pdfrwt beam="2">  1       21 0.83536120E-01 0.18615881E+03</pdfrwt>
<totfact> 0.93427209E+04</totfact>
</mgrwt>
</event>
<event>
 4    1  0.3950955E+000  0.2416400E+03  0.7546771E-02  0.1118705E+00
         21   -1    0    0  501  502  0.00000000000E+00  0.00000000000E+00  0.14908309073E+03  0.14908309073E+03  0.00000000000E+00 0.  1.
         21   -1    0    0  502  503 -0.00000000000E+00 -0.00000000000E+00 -0.20806480745E+04  0.20806480745E+04  0.00000000000E+00 0.  1.
          6    1    1    2  501    0  0.70757254286E+02 -0.15314791736E+03  0.38686405995E+02  0.24471720747E+03  0.17300000000E+03 0.  1.
         -6    1    1    2    0  503 -0.70757254286E+02  0.15314791736E+03 -0.19702513898E+04  0.19850139578E+04  0.17300000000E+03 0.  1.
<mgrwt>
<rscale>  2 0.24163997E+03</rscale>
<asrwt>0</asrwt>
<pdfrwt beam="1">  1       21 0.22935861E-01 0.24163997E+03</pdfrwt>
<pdfrwt beam="2">  1       21 0.32009970E+00 0.24163997E+03</pdfrwt>
<totfact> 0.43668636E+02</totfact>
</mgrwt>
</event>
<event>
 4    1  0.3950955E+000  0.2288381E+03  0.7546771E-02  0.1127460E+00
         21   -1    0    0  501  502  0.00000000000E+00  0.00000000000E+00  0.22492749301E+03  0.22492749301E+03  0.00000000000E+00 0.  1.
         21   -1    0    0  502  503 -0.00000000000E+00 -0.00000000000E+00 -0.39751865187E+03  0.39751865187E+03  0.00000000000E+00 0. -1.
          6    1    1    2  501    0  0.10124111787E+03  0.11039968246E+03  0.11403282739E+03  0.25567623972E+03  0.17300000000E+03 0.  1.
         -6    1    1    2    0  503 -0.10124111787E+03 -0.11039968246E+03 -0.28662398625E+03  0.36676990516E+03  0.17300000000E+03 0. -1.
<mgrwt>
<rscale>  2 0.22883805E+03</rscale>
<asrwt>0</asrwt>
<pdfrwt beam="1">  1       21 0.34604230E-01 0.22883805E+03</pdfrwt>
<pdfrwt beam="2">  1       21 0.61156715E-01 0.22883805E+03</pdfrwt>
<totfact> 0.19604613E+04</totfact>
</mgrwt>
</event>
<event>
 4    1  0.3950955E+000  0.2131277E+03  0.7546771E-02  0.1139113E+00
         21   -1    0    0  503  502  0.00000000000E+00  0.00000000000E+00  0.12496279174E+04  0.12496279174E+04  0.00000000000E+00 0. -1.
         21   -1    0    0  501  503 -0.00000000000E+00 -0.00000000000E+00 -0.40372913749E+02  0.40372913749E+02  0.00000000000E+00 0. -1.
          6    1    1    2  501    0 -0.88294607099E+02  0.87740877703E+02  0.80824268854E+03  0.83587058977E+03  0.17300000000E+03 0. -1.
         -6    1    1    2    0  502  0.88294607099E+02 -0.87740877703E+02  0.40101231509E+03  0.45413024136E+03  0.17300000000E+03 0. -1.
<mgrwt>
<rscale>  2 0.21312766E+03</rscale>
<asrwt>0</asrwt>
<pdfrwt beam="1">  1       21 0.19225042E+00 0.21312766E+03</pdfrwt>
<pdfrwt beam="2">  1       21 0.62112184E-02 0.21312766E+03</pdfrwt>
<totfact> 0.27619354E+04</totfact>
</mgrwt>
</event>
<event>
 4    1  0.3950955E+000  0.1993312E+03  0.7546771E-02  0.1150304E+00
         21   -1    0    0  503  502  0.00000000000E+00  0.00000000000E+00  0.38974028244E+03  0.38974028244E+03  0.00000000000E+00 0. -1.
         21   -1    0    0  501  503 -0.00000000000E+00 -0.00000000000E+00 -0.11851428489E+03  0.11851428489E+03  0.00000000000E+00 0. -1.
          6    1    1    2  501    0  0.54577275249E+02 -0.82615156114E+02  0.23062721136E+03  0.30483086067E+03  0.17300000000E+03 0. -1.
         -6    1    1    2    0  502 -0.54577275249E+02  0.82615156114E+02  0.40598786190E+02  0.20342370667E+03  0.17300000000E+03 0. -1.
<mgrwt>
<rscale>  2 0.19933124E+03</rscale>
<asrwt>0</asrwt>
<pdfrwt beam="1">  1       21 0.59960043E-01 0.19933124E+03</pdfrwt>
<pdfrwt beam="2">  1       21 0.18232967E-01 0.19933124E+03</pdfrwt>
<totfact> 0.70928220E+04</totfact>
</mgrwt>
</event>
<event>
 4    1  0.3950955E+000  0.1755377E+03  0.7546771E-02  0.1172193E+00
         21   -1    0    0  501  502  0.00000000000E+00  0.00000000000E+00  0.10513730773E+04  0.10513730773E+04  0.00000000000E+00 0.  1.
         21   -1    0    0  502  503 -0.00000000000E+00 -0.00000000000E+00 -0.43994989430E+02  0.43994989430E+02  0.00000000000E+00 0.  1.
          6    1    1    2  501    0  0.11814204374E+02 -0.27292765185E+02  0.82013334364E+03  0.83870863344E+03  0.17300000000E+03 0.  1.
         -6    1    1    2    0  503 -0.11814204374E+02  0.27292765185E+02  0.18724474424E+03  0.25665943330E+03  0.17300000000E+03 0.  1.
<mgrwt>
<rscale>  2 0.17553766E+03</rscale>
<asrwt>0</asrwt>
<pdfrwt beam="1">  1       21 0.16174968E+00 0.17553766E+03</pdfrwt>
<pdfrwt beam="2">  1       21 0.67684607E-02 0.17553766E+03</pdfrwt>
<totfact> 0.39595386E+04</totfact>
</mgrwt>
</event>
<event>
 4    1  0.3950955E+000  0.2236568E+03  0.7546771E-02  0.1131186E+00
         21   -1    0    0  501  502  0.00000000000E+00  0.00000000000E+00  0.35552230057E+03  0.35552230057E+03  0.00000000000E+00 0.  1.
         21   -1    0    0  502  503 -0.00000000000E+00 -0.00000000000E+00 -0.14236022704E+03  0.14236022704E+03  0.00000000000E+00 0.  1.
          6    1    1    2  501    0  0.23115434913E+02  0.13985368159E+03  0.13345573185E+03  0.26044732279E+03  0.17300000000E+03 0.  1.
         -6    1    1    2    0  503 -0.23115434913E+02 -0.13985368159E+03  0.79706341676E+02  0.23743520482E+03  0.17300000000E+03 0.  1.
<mgrwt>
<rscale>  2 0.22365683E+03</rscale>
<asrwt>0</asrwt>
<pdfrwt beam="1">  1       21 0.54695738E-01 0.22365683E+03</pdfrwt>
<pdfrwt beam="2">  1       21 0.21901573E-01 0.22365683E+03</pdfrwt>
<totfact> 0.60586313E+04</totfact>
</mgrwt>
</event>
<event>
 4    1  0.3950955E+000  0.2182189E+03  0.7546771E-02  0.1135218E+00
         21   -1    0    0  503  502  0.00000000000E+00  0.00000000000E+00  0.65660044101E+03  0.65660044101E+03  0.00000000000E+00 0. -1.
         21   -1    0    0  501  503 -0.00000000000E+00 -0.00000000000E+00 -0.12694841002E+03  0.12694841002E+03  0.00000000000E+00 0. -1.
          6    1    1    2  501    0 -0.40762675993E+02  0.12660520367E+03  0.83078043689E+01  0.21837695154E+03  0.17300000000E+03 0. -1.
         -6    1    1    2    0  502  0.40762675993E+02 -0.12660520367E+03  0.52134422662E+03  0.56517189950E+03  0.17300000000E+03 0. -1.
<mgrwt>
<rscale>  2 0.21821887E+03</rscale>
<asrwt>0</asrwt>
<pdfrwt beam="1">  1       21 0.10101545E+00 0.21821887E+03</pdfrwt>
<pdfrwt beam="2">  1       21 0.19530525E-01 0.21821887E+03</pdfrwt>
<totfact> 0.19038842E+04</totfact>
</mgrwt>
</event>
<event>
 4    1  0.3950955E+000  0.2409423E+03  0.7546771E-02  0.1119167E+00
         21   -1    0    0  503  502  0.00000000000E+00  0.00000000000E+00  0.94843793596E+03  0.94843793596E+03  0.00000000000E+00 0. -1.
         21   -1    0    0  501  503 -0.00000000000E+00 -0.00000000000E+00 -0.63409550677E+02  0.63409550677E+02  0.00000000000E+00 0. -1.
          6    1    1    2  501    0  0.16100740999E+03 -0.46912659602E+02  0.34827147386E+03  0.42349286087E+03  0.17300000000E+03 0. -1.
         -6    1    1    2    0  502 -0.16100740999E+03  0.46912659602E+02  0.53675691142E+03  0.58835462577E+03  0.17300000000E+03 0. -1.
<mgrwt>
<rscale>  2 0.24094228E+03</rscale>
<asrwt>0</asrwt>
<pdfrwt beam="1">  1       21 0.14591352E+00 0.24094228E+03</pdfrwt>
<pdfrwt beam="2">  1       21 0.97553162E-02 0.24094228E+03</pdfrwt>
<totfact> 0.26477613E+04</totfact>
</mgrwt>
</event>
<event>
 4    1  0.3950955E+000  0.1813700E+03  0.7546771E-02  0.1166484E+00
         21   -1    0    0  501  502  0.00000000000E+00  0.00000000000E+00  0.25685733179E+02  0.25685733179E+02  0.00000000000E+00 0. -1.
         21   -1    0    0  502  503 -0.00000000000E+00 -0.00000000000E+00 -0.13225737132E+04  0.13225737132E+04  0.00000000000E+00 0. -1.
          6    1    1    2  501    0 -0.38254121665E+02  0.38764474846E+02 -0.52845629756E+03  0.55871380936E+03  0.17300000000E+03 0.  1.
         -6    1    1    2    0  503  0.38254121665E+02 -0.38764474846E+02 -0.76843168249E+03  0.78954563705E+03  0.17300000000E+03 0.  1.
<mgrwt>
<rscale>  2 0.18136996E+03</rscale>
<asrwt>0</asrwt>
<pdfrwt beam="1">  1       21 0.39516502E-02 0.18136996E+03</pdfrwt>
<pdfrwt beam="2">  1       21 0.20347293E+00 0.18136996E+03</pdfrwt>
<totfact> 0.51405249E+04</totfact>
</mgrwt>
</event>
<event>
 4    1  0.3950955E+000  0.2140956E+03  0.7546771E-02  0.1138363E+00
         21   -1    0    0  501  502  0.00000000000E+00  0.00000000000E+00  0.11151868039E+03  0.11151868039E+03  0.00000000000E+00 0.  1.
         21   -1    0    0  502  503 -0.00000000000E+00 -0.00000000000E+00 -0.51161238423E+03  0.51161238423E+03  0.00000000000E+00 0.  1.
          6    1    1    2  501    0  0.24933322247E+02 -0.12363766256E+03 -0.61896786924E+02  0.22286353312E+03  0.17300000000E+03 0.  1.
         -6    1    1    2    0  503 -0.24933322247E+02  0.12363766256E+03 -0.33819691692E+03  0.40026753150E+03  0.17300000000E+03 0.  1.
<mgrwt>
<rscale>  2 0.21409564E+03</rscale>
<asrwt>0</asrwt>
<pdfrwt beam="1">  1       21 0.17156720E-01 0.21409564E+03</pdfrwt>
<pdfrwt beam="2">  1       21 0.78709596E-01 0.21409564E+03</pdfrwt>
<totfact> 0.43292057E+04</totfact>
</mgrwt>
</event>
<event>
 4    1  0.3950955E+000  0.1763384E+03  0.7546771E-02  0.1171395E+00
         21   -1    0    0  503  502  0.00000000000E+00  0.00000000000E+00  0.16386804837E+03  0.16386804837E+03  0.00000000000E+00 0.  1.
         21   -1    0    0  501  503 -0.00000000000E+00 -0.00000000000E+00 -0.23035984994E+03  0.23035984994E+03  0.00000000000E+00 0.  1.
          6    1    1    2  501    0 -0.33740759000E+02  0.52705060705E+01  0.49508044229E+02  0.18315639081E+03  0.17300000000E+03 0. -1.
         -6    1    1    2    0  502  0.33740759000E+02 -0.52705060705E+01 -0.11599984580E+03  0.21107150750E+03  0.17300000000E+03 0. -1.
<mgrwt>
<rscale>  2 0.17633836E+03</rscale>
<asrwt>0</asrwt>
<pdfrwt beam="1">  1       21 0.25210469E-01 0.17633836E+03</pdfrwt>
<pdfrwt beam="2">  1       21 0.35439977E-01 0.17633836E+03</pdfrwt>
<totfact> 0.11509964E+05</totfact>
</mgrwt>
</event>
<event>
 4    1  0.3950955E+000  0.2530664E+03  0.7546771E-02  0.1111382E+00
         21   -1    0    0  503  502  0.00000000000E+00  0.00000000000E+00  0.10321816983E+04  0.10321816983E+04  0.00000000000E+00 0.  1.
         21   -1    0    0  501  503 -0.00000000000E+00 -0.00000000000E+00 -0.36264428458E+03  0.36264428458E+03  0.00000000000E+00 0.  1.
          6    1    1    2  501    0 -0.28228137894E+02 -0.18252889725E+03 -0.30018629279E+03  0.39262505839E+03  0.17300000000E+03 0.  1.
         -6    1    1    2    0  502  0.28228137894E+02  0.18252889725E+03  0.96972370647E+03  0.10022009245E+04  0.17300000000E+03 0.  1.
<mgrwt>
<rscale>  2 0.25306645E+03</rscale>
<asrwt>0</asrwt>
<pdfrwt beam="1">  1       21 0.15879718E+00 0.25306645E+03</pdfrwt>
<pdfrwt beam="2">  1       21 0.55791429E-01 0.25306645E+03</pdfrwt>
<totfact> 0.73303299E+02</totfact>
</mgrwt>
</event>
<event>
 4    1  0.3950955E+000  0.3139263E+03  0.7546771E-02  0.1078479E+00
         21   -1    0    0  501  502  0.00000000000E+00  0.00000000000E+00  0.43619529465E+02  0.43619529465E+02  0.00000000000E+00 0. -1.
         21   -1    0    0  502  503 -0.00000000000E+00 -0.00000000000E+00 -0.23553128424E+04  0.23553128424E+04  0.00000000000E+00 0.  1.
          6    1    1    2  501    0 -0.19047826071E+03  0.17982972496E+03 -0.91367492105E+03  0.96610121578E+03  0.17300000000E+03 0.  1.
         -6    1    1    2    0  503  0.19047826071E+03 -0.17982972496E+03 -0.13980183919E+04  0.14328311561E+04  0.17300000000E+03 0. -1.
<mgrwt>
<rscale>  2 0.31392626E+03</rscale>
<asrwt>0</asrwt>
<pdfrwt beam="1">  1       21 0.67106949E-02 0.31392626E+03</pdfrwt>
<pdfrwt beam="2">  1       21 0.36235592E+00 0.31392626E+03</pdfrwt>
<totfact> 0.21110002E+03</totfact>
</mgrwt>
</event>
<event>
 4    1  0.3950955E+000  0.1819484E+03  0.7546771E-02  0.1165931E+00
         21   -1    0    0  503  502  0.00000000000E+00  0.00000000000E+00  0.81486379394E+02  0.81486379394E+02  0.00000000000E+00 0. -1.
         21   -1    0    0  501  503 -0.00000000000E+00 -0.00000000000E+00 -0.46177229590E+03  0.46177229590E+03  0.00000000000E+00 0.  1.
          6    1    1    2  501    0  0.31288438517E+02  0.46875054816E+02 -0.95969296665E+02  0.20570693486E+03  0.17300000000E+03 0. -1.
         -6    1    1    2    0  502 -0.31288438517E+02 -0.46875054816E+02 -0.28431661984E+03  0.33755174043E+03  0.17300000000E+03 0.  1.
<mgrwt>
<rscale>  2 0.18194845E+03</rscale>
<asrwt>0</asrwt>
<pdfrwt beam="1">  1       21 0.12536366E-01 0.18194845E+03</pdfrwt>
<pdfrwt beam="2">  1       21 0.71041892E-01 0.18194845E+03</pdfrwt>
<totfact> 0.97719033E+04</totfact>
</mgrwt>
</event>
<event>
 4    1  0.3950955E+000  0.2841020E+03  0.7546771E-02  0.1093469E+00
         21   -1    0    0  501  502  0.00000000000E+00  0.00000000000E+00  0.28495858445E+03  0.28495858445E+03  0.00000000000E+00 0.  1.
         21   -1    0    0  502  503 -0.00000000000E+00 -0.00000000000E+00 -0.37625508438E+03  0.37625508438E+03  0.00000000000E+00 0. -1.
          6    1    1    2  501    0  0.12467289950E+03  0.18772755698E+03 -0.21002050108E+03  0.35330238945E+03  0.17300000000E+03 0. -1.
         -6    1    1    2    0  503 -0.12467289950E+03 -0.18772755698E+03  0.11872400116E+03  0.30791127938E+03  0.17300000000E+03 0.  1.
<mgrwt>
<rscale>  2 0.28410204E+03</rscale>
<asrwt>0</asrwt>
<pdfrwt beam="1">  1       21 0.43839782E-01 0.28410204E+03</pdfrwt>
<pdfrwt beam="2">  1       21 0.57885397E-01 0.28410204E+03</pdfrwt>
<totfact> 0.13301460E+04</totfact>
</mgrwt>
</event>
<event>
 4    1  0.3950955E+000  0.1944081E+03  0.7546771E-02  0.1154545E+00
         21   -1    0    0  503  502  0.00000000000E+00  0.00000000000E+00  0.40458360458E+03  0.40458360458E+03  0.00000000000E+00 0.  1.
         21   -1    0    0  501  503 -0.00000000000E+00 -0.00000000000E+00 -0.97162508599E+02  0.97162508599E+02  0.00000000000E+00 0.  1.
          6    1    1    2  501    0 -0.88670620859E+02 -0.17447697137E+01  0.10444691353E+03  0.22068910478E+03  0.17300000000E+03 0.  1.
         -6    1    1    2    0  502  0.88670620859E+02  0.17447697137E+01  0.20297418245E+03  0.28105700839E+03  0.17300000000E+03 0.  1.
<mgrwt>
<rscale>  2 0.19440814E+03</rscale>
<asrwt>0</asrwt>
<pdfrwt beam="1">  1       21 0.62243631E-01 0.19440814E+03</pdfrwt>
<pdfrwt beam="2">  1       21 0.14948078E-01 0.19440814E+03</pdfrwt>
<totfact> 0.94451659E+04</totfact>
</mgrwt>
</event>
<event>
 4    1  0.3950955E+000  0.3171592E+03  0.7546771E-02  0.1076964E+00
         21   -1    0    0  501  502  0.00000000000E+00  0.00000000000E+00  0.93617308559E+02  0.93617308559E+02  0.00000000000E+00 0.  1.
         21   -1    0    0  502  503 -0.00000000000E+00 -0.00000000000E+00 -0.20921280492E+04  0.20921280492E+04  0.00000000000E+00 0. -1.
          6    1    1    2  501    0 -0.97278318876E+02 -0.24738209706E+03 -0.23704626639E+03  0.39595568650E+03  0.17300000000E+03 0.  1.
         -6    1    1    2    0  503  0.97278318876E+02  0.24738209706E+03 -0.17614644742E+04  0.17897896712E+04  0.17300000000E+03 0. -1.
<mgrwt>
<rscale>  2 0.31715922E+03</rscale>
<asrwt>0</asrwt>
<pdfrwt beam="1">  1       21 0.14402662E-01 0.31715922E+03</pdfrwt>
<pdfrwt beam="2">  1       21 0.32186587E+00 0.31715922E+03</pdfrwt>
<totfact> 0.94345355E+02</totfact>
</mgrwt>
</event>
<event>
 4    1  0.3950955E+000  0.3855188E+03  0.7546771E-02  0.1048913E+00
         21   -1    0    0  501  502  0.00000000000E+00  0.00000000000E+00  0.44892633743E+03  0.44892633743E+03  0.00000000000E+00 0.  1.
         21   -1    0    0  502  503 -0.00000000000E+00 -0.00000000000E+00 -0.37862920438E+03  0.37862920438E+03  0.00000000000E+00 0. -1.
          6    1    1    2  501    0 -0.33721044789E+03 -0.70603512514E+02 -0.11150432045E+03  0.40132026565E+03  0.17300000000E+03 0. -1.
         -6    1    1    2    0  503  0.33721044789E+03  0.70603512514E+02  0.18180145350E+03  0.42623527616E+03  0.17300000000E+03 0.  1.
<mgrwt>
<rscale>  2 0.38551880E+03</rscale>
<asrwt>0</asrwt>
<pdfrwt beam="1">  1       21 0.69065591E-01 0.38551880E+03</pdfrwt>
<pdfrwt beam="2">  1       21 0.58250647E-01 0.38551880E+03</pdfrwt>
<totfact> 0.47385705E+03</totfact>
</mgrwt>
</event>
<event>
 4    1  0.3950955E+000  0.2364577E+03  0.7546771E-02  0.1122175E+00
         21   -1    0    0  503  502  0.00000000000E+00  0.00000000000E+00  0.49960385757E+03  0.49960385757E+03  0.00000000000E+00 0.  1.
         21   -1    0    0  501  503 -0.00000000000E+00 -0.00000000000E+00 -0.11559095651E+03  0.11559095651E+03  0.00000000000E+00 0. -1.
          6    1    1    2  501    0 -0.11490818343E+03 -0.11304581854E+03  0.13713904301E+03  0.27334843118E+03  0.17300000000E+03 0. -1.
         -6    1    1    2    0  502  0.11490818343E+03  0.11304581854E+03  0.24687385805E+03  0.34184638290E+03  0.17300000000E+03 0.  1.
<mgrwt>
<rscale>  2 0.23645771E+03</rscale>
<asrwt>0</asrwt>
<pdfrwt beam="1">  1       21 0.76862131E-01 0.23645771E+03</pdfrwt>
<pdfrwt beam="2">  1       21 0.17783224E-01 0.23645771E+03</pdfrwt>
<totfact> 0.42301585E+04</totfact>
</mgrwt>
</event>
<event>
 4    1  0.3950955E+000  0.2907906E+03  0.7546771E-02  0.1089937E+00
         21   -1    0    0  503  502  0.00000000000E+00  0.00000000000E+00  0.96911592611E+03  0.96911592611E+03  0.00000000000E+00 0. -1.
         21   -1    0    0  501  503 -0.00000000000E+00 -0.00000000000E+00 -0.96207781382E+02  0.96207781382E+02  0.00000000000E+00 0. -1.
          6    1    1    2  501    0  0.16404359936E+03 -0.16649280873E+03  0.27395465028E+03  0.39951258836E+03  0.17300000000E+03 0. -1.
         -6    1    1    2    0  502 -0.16404359936E+03  0.16649280873E+03  0.59895349444E+03  0.66581111913E+03  0.17300000000E+03 0. -1.
<mgrwt>
<rscale>  2 0.29079057E+03</rscale>
<asrwt>0</asrwt>
<pdfrwt beam="1">  1       21 0.14909475E+00 0.29079057E+03</pdfrwt>
<pdfrwt beam="2">  1       21 0.14801198E-01 0.29079057E+03</pdfrwt>
<totfact> 0.11492223E+04</totfact>
</mgrwt>
</event>
<event>
 4    1  0.3950955E+000  0.2481579E+03  0.7546771E-02  0.1114475E+00
         21   -1    0    0  501  502  0.00000000000E+00  0.00000000000E+00  0.19209604554E+03  0.19209604554E+03  0.00000000000E+00 0. -1.
         21   -1    0    0  502  503 -0.00000000000E+00 -0.00000000000E+00 -0.32981039259E+03  0.32981039259E+03  0.00000000000E+00 0. -1.
          6    1    1    2  501    0 -0.23833646502E+02  0.17631030830E+03 -0.25204186061E+02  0.24943459767E+03  0.17300000000E+03 0. -1.
         -6    1    1    2    0  503  0.23833646502E+02 -0.17631030830E+03 -0.11251016099E+03  0.27247184046E+03  0.17300000000E+03 0. -1.
<mgrwt>
<rscale>  2 0.24815795E+03</rscale>
<asrwt>0</asrwt>
<pdfrwt beam="1">  1       21 0.29553238E-01 0.24815795E+03</pdfrwt>
<pdfrwt beam="2">  1       21 0.50740060E-01 0.24815795E+03</pdfrwt>
<totfact> 0.39496325E+04</totfact>
</mgrwt>
</event>
<event>
 4    1  0.3950955E+000  0.1931272E+03  0.7546771E-02  0.1155671E+00
         21   -1    0    0  501  502  0.00000000000E+00  0.00000000000E+00  0.16731314327E+03  0.16731314327E+03  0.00000000000E+00 0.  1.
         21   -1    0    0  502  503 -0.00000000000E+00 -0.00000000000E+00 -0.51323936003E+03  0.51323936003E+03  0.00000000000E+00 0.  1.
          6    1    1    2  501    0 -0.31745888838E+02  0.79757763246E+02  0.82958365051E+02  0.21019084801E+03  0.17300000000E+03 0.  1.
         -6    1    1    2    0  503  0.31745888838E+02 -0.79757763246E+02 -0.42888458181E+03  0.47036165529E+03  0.17300000000E+03 0.  1.
<mgrwt>
<rscale>  2 0.19312717E+03</rscale>
<asrwt>0</asrwt>
<pdfrwt beam="1">  1       21 0.25740483E-01 0.19312717E+03</pdfrwt>
<pdfrwt beam="2">  1       21 0.78959902E-01 0.19312717E+03</pdfrwt>
<totfact> 0.20287681E+04</totfact>
</mgrwt>
</event>
<event>
 4    1  0.3950955E+000  0.1917999E+03  0.7546771E-02  0.1156848E+00
         21   -1    0    0  503  502  0.00000000000E+00  0.00000000000E+00  0.12589499949E+02  0.12589499949E+02  0.00000000000E+00 0.  1.
         21   -1    0    0  501  503 -0.00000000000E+00 -0.00000000000E+00 -0.37837565348E+04  0.37837565348E+04  0.00000000000E+00 0.  1.
          6    1    1    2  501    0 -0.47665222031E+02 -0.67721629618E+02 -0.27914266838E+04  0.27980082422E+04  0.17300000000E+03 0.  1.
         -6    1    1    2    0  502  0.47665222031E+02  0.67721629618E+02 -0.97974035106E+03  0.99833779254E+03  0.17300000000E+03 0.  1.
<mgrwt>
<rscale>  2 0.19179988E+03</rscale>
<asrwt>0</asrwt>
<pdfrwt beam="1">  1       21 0.19368457E-02 0.19179988E+03</pdfrwt>
<pdfrwt beam="2">  1       21 0.58211653E+00 0.19179988E+03</pdfrwt>
<totfact> 0.60937341E+02</totfact>
</mgrwt>
</event>
<event>
 4    1  0.3950955E+000  0.2166428E+03  0.7546771E-02  0.1136411E+00
         21   -1    0    0  501  502  0.00000000000E+00  0.00000000000E+00  0.27824473209E+03  0.27824473209E+03  0.00000000000E+00 0.  1.
         21   -1    0    0  502  503 -0.00000000000E+00 -0.00000000000E+00 -0.17086192675E+03  0.17086192675E+03  0.00000000000E+00 0.  1.
          6    1    1    2  501    0 -0.98140624490E+02  0.85869113206E+02  0.79071941476E+02  0.23062189555E+03  0.17300000000E+03 0.  1.
         -6    1    1    2    0  503  0.98140624490E+02 -0.85869113206E+02  0.28310863870E+02  0.21848476329E+03  0.17300000000E+03 0.  1.
<mgrwt>
<rscale>  2 0.21664276E+03</rscale>
<asrwt>0</asrwt>
<pdfrwt beam="1">  1       21 0.42806882E-01 0.21664276E+03</pdfrwt>
<pdfrwt beam="2">  1       21 0.26286450E-01 0.21664276E+03</pdfrwt>
<totfact> 0.71472765E+04</totfact>
</mgrwt>
</event>
<event>
 4    1  0.3950955E+000  0.1899239E+03  0.7546771E-02  0.1158530E+00
         21   -1    0    0  501  502  0.00000000000E+00  0.00000000000E+00  0.15580684730E+03  0.15580684730E+03  0.00000000000E+00 0. -1.
         21   -1    0    0  502  503 -0.00000000000E+00 -0.00000000000E+00 -0.28539923849E+03  0.28539923849E+03  0.00000000000E+00 0. -1.
          6    1    1    2  501    0 -0.71320459274E+02  0.32488040881E+02  0.31062160023E+02  0.19244723562E+03  0.17300000000E+03 0. -1.
         -6    1    1    2    0  503  0.71320459274E+02 -0.32488040881E+02 -0.16065455122E+03  0.24875885017E+03  0.17300000000E+03 0. -1.
<mgrwt>
<rscale>  2 0.18992388E+03</rscale>
<asrwt>0</asrwt>
<pdfrwt beam="1">  1       21 0.23970285E-01 0.18992388E+03</pdfrwt>
<pdfrwt beam="2">  1       21 0.43907574E-01 0.18992388E+03</pdfrwt>
<totfact> 0.81873183E+04</totfact>
</mgrwt>
</event>
<event>
 4    1  0.3950955E+000  0.2967054E+03  0.7546771E-02  0.1086899E+00
         21   -1    0    0  503  502  0.00000000000E+00  0.00000000000E+00  0.17398202526E+03  0.17398202526E+03  0.00000000000E+00 0.  1.
         21   -1    0    0  501  503 -0.00000000000E+00 -0.00000000000E+00 -0.75507724027E+03  0.75507724027E+03  0.00000000000E+00 0.  1.
          6    1    1    2  501    0  0.24075736263E+03 -0.11874954052E+02 -0.55734935963E+03  0.63140512421E+03  0.17300000000E+03 0.  1.
         -6    1    1    2    0  502 -0.24075736263E+03  0.11874954052E+02 -0.23745855372E+02  0.29765414131E+03  0.17300000000E+03 0.  1.
<mgrwt>
<rscale>  2 0.29670545E+03</rscale>
<asrwt>0</asrwt>
<pdfrwt beam="1">  1       21 0.26766466E-01 0.29670545E+03</pdfrwt>
<pdfrwt beam="2">  1       21 0.11616573E+00 0.29670545E+03</pdfrwt>
<totfact> 0.71247135E+03</totfact>
</mgrwt>
</event>
<event>
 4    1  0.3950955E+000  0.2091430E+03  0.7546771E-02  0.1142246E+00
         21   -1    0    0  503  502  0.00000000000E+00  0.00000000000E+00  0.67690370660E+02  0.67690370660E+02  0.00000000000E+00 0. -1.
         21   -1    0    0  501  503 -0.00000000000E+00 -0.00000000000E+00 -0.14187548356E+04  0.14187548356E+04  0.00000000000E+00 0.  1.
          6    1    1    2  501    0  0.70349847569E+02  0.94141809675E+02 -0.12239770614E+04  0.12417168067E+04  0.17300000000E+03 0.  1.
         -6    1    1    2    0  502 -0.70349847569E+02 -0.94141809675E+02 -0.12708740356E+03  0.24472839951E+03  0.17300000000E+03 0. -1.
<mgrwt>
<rscale>  2 0.20914297E+03</rscale>
<asrwt>0</asrwt>
<pdfrwt beam="1">  1       21 0.10413904E-01 0.20914297E+03</pdfrwt>
<pdfrwt beam="2">  1       21 0.21826996E+00 0.20914297E+03</pdfrwt>
<totfact> 0.76724666E+03</totfact>
</mgrwt>
</event>
<event>
 4    1  0.3950955E+000  0.1764240E+03  0.7546771E-02  0.1171309E+00
         21   -1    0    0  501  502  0.00000000000E+00  0.00000000000E+00  0.17372242131E+04  0.17372242131E+04  0.00000000000E+00 0.  1.
         21   -1    0    0  502  503 -0.00000000000E+00 -0.00000000000E+00 -0.30835880041E+02  0.30835880041E+02  0.00000000000E+00 0.  1.
          6    1    1    2  501    0  0.22112170689E+02  0.26598353038E+02  0.14254041154E+04  0.14362807221E+04  0.17300000000E+03 0.  1.
         -6    1    1    2    0  503 -0.22112170689E+02 -0.26598353038E+02  0.28098421769E+03  0.33177937107E+03  0.17300000000E+03 0.  1.
<mgrwt>
<rscale>  2 0.17642398E+03</rscale>
<asrwt>0</asrwt>
<pdfrwt beam="1">  1       21 0.26726519E+00 0.17642398E+03</pdfrwt>
<pdfrwt beam="2">  1       21 0.47439829E-02 0.17642398E+03</pdfrwt>
<totfact> 0.15750247E+04</totfact>
</mgrwt>
</event>
<event>
 4    1  0.3950955E+000  0.1993147E+03  0.7546771E-02  0.1150319E+00
         21   -1    0    0  501  502  0.00000000000E+00  0.00000000000E+00  0.23087366865E+02  0.23087366865E+02  0.00000000000E+00 0. -1.
         21   -1    0    0  502  503 -0.00000000000E+00 -0.00000000000E+00 -0.20686591704E+04  0.20686591704E+04  0.00000000000E+00 0. -1.
          6    1    1    2  501    0  0.98135340230E+02  0.12914943955E+02 -0.59384130141E+03  0.62639750322E+03  0.17300000000E+03 0. -1.
         -6    1    1    2    0  503 -0.98135340230E+02 -0.12914943955E+02 -0.14517305021E+04  0.14653490340E+04  0.17300000000E+03 0. -1.
<mgrwt>
<rscale>  2 0.19931468E+03</rscale>
<asrwt>0</asrwt>
<pdfrwt beam="1">  1       21 0.35519019E-02 0.19931468E+03</pdfrwt>
<pdfrwt beam="2">  1       21 0.31825532E+00 0.19931468E+03</pdfrwt>
<totfact> 0.12711877E+04</totfact>
</mgrwt>
</event>
<event>
 4    1  0.3950955E+000  0.2224813E+03  0.7546771E-02  0.1132047E+00
         21   -1    0    0  501  502  0.00000000000E+00  0.00000000000E+00  0.34806761450E+03  0.34806761450E+03  0.00000000000E+00 0.  1.
         21   -1    0    0  502  503 -0.00000000000E+00 -0.00000000000E+00 -0.20748211231E+03  0.20748211231E+03  0.00000000000E+00 0.  1.
          6    1    1    2  501    0  0.11574437097E+03 -0.78563149462E+02  0.22609502164E+03  0.31720164986E+03  0.17300000000E+03 0.  1.
         -6    1    1    2    0  503 -0.11574437097E+03  0.78563149462E+02 -0.85509519454E+02  0.23834807694E+03  0.17300000000E+03 0.  1.
<mgrwt>
<rscale>  2 0.22248130E+03</rscale>
<asrwt>0</asrwt>
<pdfrwt beam="1">  1       21 0.53548864E-01 0.22248130E+03</pdfrwt>
<pdfrwt beam="2">  1       21 0.31920325E-01 0.22248130E+03</pdfrwt>
<totfact> 0.30661540E+04</totfact>
</mgrwt>
</event>
<event>
 4    1  0.3950955E+000  0.1744007E+03  0.7546771E-02  0.1173335E+00
         21   -1    0    0  503  502  0.00000000000E+00  0.00000000000E+00  0.37789634461E+03  0.37789634461E+03  0.00000000000E+00 0. -1.
         21   -1    0    0  501  503 -0.00000000000E+00 -0.00000000000E+00 -0.12439702238E+03  0.12439702238E+03  0.00000000000E+00 0. -1.
          6    1    1    2  501    0 -0.13989978363E+02  0.17055573725E+02 -0.22463110872E+02  0.17584141560E+03  0.17300000000E+03 0. -1.
         -6    1    1    2    0  502  0.13989978363E+02 -0.17055573725E+02  0.27596243310E+03  0.32645195140E+03  0.17300000000E+03 0. -1.
<mgrwt>
<rscale>  2 0.17440072E+03</rscale>
<asrwt>0</asrwt>
<pdfrwt beam="1">  1       21 0.58137899E-01 0.17440072E+03</pdfrwt>
<pdfrwt beam="2">  1       21 0.19138004E-01 0.17440072E+03</pdfrwt>
<totfact> 0.70020287E+04</totfact>
</mgrwt>
</event>
<event>
 4    1  0.3950955E+000  0.2086060E+03  0.7546771E-02  0.1142675E+00
         21   -1    0    0  503  502  0.00000000000E+00  0.00000000000E+00  0.43144810914E+02  0.43144810914E+02  0.00000000000E+00 0.  1.
         21   -1    0    0  501  503 -0.00000000000E+00 -0.00000000000E+00 -0.14273040713E+04  0.14273040713E+04  0.00000000000E+00 0.  1.
          6    1    1    2  501    0 -0.36522083252E+02  0.11069595623E+03 -0.10902858608E+04  0.11100629332E+04  0.17300000000E+03 0.  1.
         -6    1    1    2    0  502  0.36522083252E+02 -0.11069595623E+03 -0.29387339951E+03  0.36038594899E+03  0.17300000000E+03 0.  1.
<mgrwt>
<rscale>  2 0.20860599E+03</rscale>
<asrwt>0</asrwt>
<pdfrwt beam="1">  1       21 0.66376630E-02 0.20860599E+03</pdfrwt>
<pdfrwt beam="2">  1       21 0.21958525E+00 0.20860599E+03</pdfrwt>
<totfact> 0.16560617E+04</totfact>
</mgrwt>
</event>
<event>
 4    1  0.3950955E+000  0.2046101E+03  0.7546771E-02  0.1145907E+00
         21   -1    0    0  503  502  0.00000000000E+00  0.00000000000E+00  0.19738646027E+03  0.19738646027E+03  0.00000000000E+00 0. -1.
         21   -1    0    0  501  503 -0.00000000000E+00 -0.00000000000E+00 -0.43662445409E+03  0.43662445409E+03  0.00000000000E+00 0. -1.
          6    1    1    2  501    0  0.24753457958E+02  0.10641220029E+03  0.10770557831E+03  0.23122668888E+03  0.17300000000E+03 0. -1.
         -6    1    1    2    0  502 -0.24753457958E+02 -0.10641220029E+03 -0.34694357213E+03  0.40278422547E+03  0.17300000000E+03 0. -1.
<mgrwt>
<rscale>  2 0.20461009E+03</rscale>
<asrwt>0</asrwt>
<pdfrwt beam="1">  1       21 0.30367148E-01 0.20461009E+03</pdfrwt>
<pdfrwt beam="2">  1       21 0.67172992E-01 0.20461009E+03</pdfrwt>
<totfact> 0.20959498E+04</totfact>
</mgrwt>
</event>
<event>
 4    1  0.3950955E+000  0.2223287E+03  0.7546771E-02  0.1132159E+00
         21   -1    0    0  503  502  0.00000000000E+00  0.00000000000E+00  0.10776758306E+04  0.10776758306E+04  0.00000000000E+00 0. -1.
         21   -1    0    0  501  503 -0.00000000000E+00 -0.00000000000E+00 -0.53752074234E+02  0.53752074234E+02  0.00000000000E+00 0.  1.
          6    1    1    2  501    0  0.11118230060E+03  0.84495915174E+02  0.29529409429E+03  0.36963315026E+03  0.17300000000E+03 0.  1.
         -6    1    1    2    0  502 -0.11118230060E+03 -0.84495915174E+02  0.72862966210E+03  0.76179475460E+03  0.17300000000E+03 0. -1.
<mgrwt>
<rscale>  2 0.22232873E+03</rscale>
<asrwt>0</asrwt>
<pdfrwt beam="1">  1       21 0.16579627E+00 0.22232873E+03</pdfrwt>
<pdfrwt beam="2">  1       21 0.82695507E-02 0.22232873E+03</pdfrwt>
<totfact> 0.25393929E+04</totfact>
</mgrwt>
</event>
<event>
 4    1  0.3950955E+000  0.1886576E+03  0.7546771E-02  0.1159678E+00
         21   -1    0    0  503  502  0.00000000000E+00  0.00000000000E+00  0.22822111899E+03  0.22822111899E+03  0.00000000000E+00 0.  1.
         21   -1    0    0  501  503 -0.00000000000E+00 -0.00000000000E+00 -0.34618020856E+03  0.34618020856E+03  0.00000000000E+00 0. -1.
          6    1    1    2  501    0 -0.62178401313E+02 -0.42385427800E+02 -0.27187730369E+03  0.33092135975E+03  0.17300000000E+03 0. -1.
         -6    1    1    2    0  502  0.62178401313E+02  0.42385427800E+02  0.15391821412E+03  0.24347996780E+03  0.17300000000E+03 0.  1.
<mgrwt>
<rscale>  2 0.18865757E+03</rscale>
<asrwt>0</asrwt>
<pdfrwt beam="1">  1       21 0.35110941E-01 0.18865757E+03</pdfrwt>
<pdfrwt beam="2">  1       21 0.53258494E-01 0.18865757E+03</pdfrwt>
<totfact> 0.26164393E+04</totfact>
</mgrwt>
</event>
<event>
 4    1  0.3950955E+000  0.1887710E+03  0.7546771E-02  0.1159574E+00
         21   -1    0    0  503  502  0.00000000000E+00  0.00000000000E+00  0.81615909188E+03  0.81615909188E+03  0.00000000000E+00 0.  1.
         21   -1    0    0  501  503 -0.00000000000E+00 -0.00000000000E+00 -0.43846289985E+02  0.43846289985E+02  0.00000000000E+00 0. -1.
          6    1    1    2  501    0  0.61759930715E+02 -0.43488095763E+02  0.35822002390E+03  0.40491491580E+03  0.17300000000E+03 0. -1.
         -6    1    1    2    0  502 -0.61759930715E+02  0.43488095763E+02  0.41409277800E+03  0.45509046607E+03  0.17300000000E+03 0. -1.
<mgrwt>
<rscale>  2 0.18877103E+03</rscale>
<asrwt>0</asrwt>
<pdfrwt beam="1">  1       21 0.12556293E+00 0.18877103E+03</pdfrwt>
<pdfrwt beam="2">  1       21 0.67455837E-02 0.18877103E+03</pdfrwt>
<totfact> 0.76196460E+04</totfact>
</mgrwt>
</event>
<event>
 4    1  0.3950955E+000  0.1786871E+03  0.7546771E-02  0.1169080E+00
         21   -1    0    0  501  502  0.00000000000E+00  0.00000000000E+00  0.10713225614E+03  0.10713225614E+03  0.00000000000E+00 0. -1.
         21   -1    0    0  502  503 -0.00000000000E+00 -0.00000000000E+00 -0.57681418479E+03  0.57681418479E+03  0.00000000000E+00 0. -1.
          6    1    1    2  501    0 -0.25349980042E+02  0.36843580821E+02  0.29005179118E+01  0.17871061507E+03  0.17300000000E+03 0. -1.
         -6    1    1    2    0  503  0.25349980042E+02 -0.36843580821E+02 -0.47258244656E+03  0.50523582586E+03  0.17300000000E+03 0. -1.
<mgrwt>
<rscale>  2 0.17868708E+03</rscale>
<asrwt>0</asrwt>
<pdfrwt beam="1">  1       21 0.16481885E-01 0.17868708E+03</pdfrwt>
<pdfrwt beam="2">  1       21 0.88740645E-01 0.17868708E+03</pdfrwt>
<totfact> 0.36109769E+04</totfact>
</mgrwt>
</event>
<event>
 4    1  0.3950955E+000  0.1775444E+03  0.7546771E-02  0.1170201E+00
         21   -1    0    0  503  502  0.00000000000E+00  0.00000000000E+00  0.28946693765E+03  0.28946693765E+03  0.00000000000E+00 0.  1.
         21   -1    0    0  501  503 -0.00000000000E+00 -0.00000000000E+00 -0.27475874495E+03  0.27475874495E+03  0.00000000000E+00 0.  1.
          6    1    1    2  501    0  0.36843367091E+02 -0.15348148833E+02 -0.21183582344E+03  0.27639901494E+03  0.17300000000E+03 0.  1.
         -6    1    1    2    0  502 -0.36843367091E+02  0.15348148833E+02  0.22654401613E+03  0.28782666766E+03  0.17300000000E+03 0.  1.
<mgrwt>
<rscale>  2 0.17754436E+03</rscale>
<asrwt>0</asrwt>
<pdfrwt beam="1">  1       21 0.44533375E-01 0.17754436E+03</pdfrwt>
<pdfrwt beam="2">  1       21 0.42270576E-01 0.17754436E+03</pdfrwt>
<totfact> 0.26293176E+04</totfact>
</mgrwt>
</event>
<event>
 4    1  0.3950955E+000  0.2781000E+03  0.7546771E-02  0.1096731E+00
         21   -1    0    0  501  502  0.00000000000E+00  0.00000000000E+00  0.63296974401E+03  0.63296974401E+03  0.00000000000E+00 0. -1.
         21   -1    0    0  502  503 -0.00000000000E+00 -0.00000000000E+00 -0.14811188755E+03  0.14811188755E+03  0.00000000000E+00 0. -1.
          6    1    1    2  501    0 -0.62808472147E+02 -0.20848431474E+03  0.40582587750E+03  0.49196977195E+03  0.17300000000E+03 0. -1.
         -6    1    1    2    0  503  0.62808472147E+02  0.20848431474E+03  0.79031978970E+02  0.28911185961E+03  0.17300000000E+03 0. -1.
<mgrwt>
<rscale>  2 0.27810001E+03</rscale>
<asrwt>0</asrwt>
<pdfrwt beam="1">  1       21 0.97379959E-01 0.27810001E+03</pdfrwt>
<pdfrwt beam="2">  1       21 0.22786445E-01 0.27810001E+03</pdfrwt>
<totfact> 0.15052989E+04</totfact>
</mgrwt>
</event>
<event>
 4    1  0.3950955E+000  0.2042350E+03  0.7546771E-02  0.1146214E+00
         21   -1    0    0  503  502  0.00000000000E+00  0.00000000000E+00  0.48585833794E+03  0.48585833794E+03  0.00000000000E+00 0. -1.
         21   -1    0    0  501  503 -0.00000000000E+00 -0.00000000000E+00 -0.85862662252E+02  0.85862662252E+02  0.00000000000E+00 0. -1.
          6    1    1    2  501    0  0.28259964836E-01  0.10854924503E+03  0.20317428749E+03  0.28808285352E+03  0.17300000000E+03 0. -1.
         -6    1    1    2    0  502 -0.28259964836E-01 -0.10854924503E+03  0.19682138820E+03  0.28363814667E+03  0.17300000000E+03 0. -1.
<mgrwt>
<rscale>  2 0.20423501E+03</rscale>
<asrwt>0</asrwt>
<pdfrwt beam="1">  1       21 0.74747435E-01 0.20423501E+03</pdfrwt>
<pdfrwt beam="2">  1       21 0.13209641E-01 0.20423501E+03</pdfrwt>
<totfact> 0.78709486E+04</totfact>
</mgrwt>
</event>
<event>
 4    1  0.3950955E+000  0.2069848E+03  0.7546771E-02  0.1143976E+00
         21   -1    0    0  503  502  0.00000000000E+00  0.00000000000E+00  0.21730407796E+03  0.21730407796E+03  0.00000000000E+00 0. -1.
         21   -1    0    0  501  503 -0.00000000000E+00 -0.00000000000E+00 -0.22391061435E+03  0.22391061435E+03  0.00000000000E+00 0. -1.
          6    1    1    2  501    0 -0.76912770598E+02  0.83654760562E+02 -0.79561383687E+02  0.22174919847E+03  0.17300000000E+03 0. -1.
         -6    1    1    2    0  502  0.76912770598E+02 -0.83654760562E+02  0.72954847298E+02  0.21946549385E+03  0.17300000000E+03 0. -1.
<mgrwt>
<rscale>  2 0.20698477E+03</rscale>
<asrwt>0</asrwt>
<pdfrwt beam="1">  1       21 0.33431396E-01 0.20698477E+03</pdfrwt>
<pdfrwt beam="2">  1       21 0.34447787E-01 0.20698477E+03</pdfrwt>
<totfact> 0.69538268E+04</totfact>
</mgrwt>
</event>
<event>
 4    1  0.3950955E+000  0.1832949E+03  0.7546771E-02  0.1164652E+00
         21   -1    0    0  503  502  0.00000000000E+00  0.00000000000E+00  0.29483586179E+03  0.29483586179E+03  0.00000000000E+00 0. -1.
         21   -1    0    0  501  503 -0.00000000000E+00 -0.00000000000E+00 -0.16298795245E+03  0.16298795245E+03  0.00000000000E+00 0. -1.
          6    1    1    2  501    0  0.60102231957E+02  0.74654662517E+01 -0.59635612939E+02  0.19275221867E+03  0.17300000000E+03 0. -1.
         -6    1    1    2    0  502 -0.60102231957E+02 -0.74654662517E+01  0.19148352227E+03  0.26507159556E+03  0.17300000000E+03 0. -1.
<mgrwt>
<rscale>  2 0.18329488E+03</rscale>
<asrwt>0</asrwt>
<pdfrwt beam="1">  1       21 0.45359363E-01 0.18329488E+03</pdfrwt>
<pdfrwt beam="2">  1       21 0.25075070E-01 0.18329488E+03</pdfrwt>
<totfact> 0.70486470E+04</totfact>
</mgrwt>
</event>
<event>
 4    1  0.3950955E+000  0.1733508E+03  0.7546771E-02  0.1174398E+00
         21   -1    0    0  503  502  0.00000000000E+00  0.00000000000E+00  0.49356899197E+03  0.49356899197E+03  0.00000000000E+00 0.  1.
         21   -1    0    0  501  503 -0.00000000000E+00 -0.00000000000E+00 -0.97352947326E+02  0.97352947326E+02  0.00000000000E+00 0.  1.
          6    1    1    2  501    0  0.30788089944E+01  0.10583247683E+02  0.17271218592E+02  0.17420901007E+03  0.17300000000E+03 0.  1.
         -6    1    1    2    0  502 -0.30788089944E+01 -0.10583247683E+02  0.37894482605E+03  0.41671292923E+03  0.17300000000E+03 0.  1.
<mgrwt>
<rscale>  2 0.17335075E+03</rscale>
<asrwt>0</asrwt>
<pdfrwt beam="1">  1       21 0.75933690E-01 0.17335075E+03</pdfrwt>
<pdfrwt beam="2">  1       21 0.14977377E-01 0.17335075E+03</pdfrwt>
<totfact> 0.61379784E+04</totfact>
</mgrwt>
</event>
<event>
 4    1  0.3950955E+000  0.1761656E+03  0.7546771E-02  0.1171566E+00
         21   -1    0    0  501  502  0.00000000000E+00  0.00000000000E+00  0.10019430669E+04  0.10019430669E+04  0.00000000000E+00 0. -1.
         21   -1    0    0  502  503 -0.00000000000E+00 -0.00000000000E+00 -0.34564081040E+02  0.34564081040E+02  0.00000000000E+00 0. -1.
          6    1    1    2  501    0 -0.23292348393E+02 -0.23723269562E+02  0.65071135627E+03  0.67413618520E+03  0.17300000000E+03 0. -1.
         -6    1    1    2    0  503  0.23292348393E+02  0.23723269562E+02  0.31666762961E+03  0.36237096277E+03  0.17300000000E+03 0. -1.
<mgrwt>
<rscale>  2 0.17616562E+03</rscale>
<asrwt>0</asrwt>
<pdfrwt beam="1">  1       21 0.15414506E+00 0.17616562E+03</pdfrwt>
<pdfrwt beam="2">  1       21 0.53175517E-02 0.17616562E+03</pdfrwt>
<totfact> 0.67983969E+04</totfact>
</mgrwt>
</event>
<event>
 4    1  0.3950955E+000  0.2267236E+03  0.7546771E-02  0.1128967E+00
         21   -1    0    0  501  502  0.00000000000E+00  0.00000000000E+00  0.18569752453E+04  0.18569752453E+04  0.00000000000E+00 0. -1.
         21   -1    0    0  502  503 -0.00000000000E+00 -0.00000000000E+00 -0.15742084615E+03  0.15742084615E+03  0.00000000000E+00 0.  1.
          6    1    1    2  501    0  0.10638552602E+03 -0.10078041235E+03  0.17641427722E+04  0.17786520998E+04  0.17300000000E+03 0. -1.
         -6    1    1    2    0  503 -0.10638552602E+03  0.10078041235E+03 -0.64588373006E+02  0.23574399163E+03  0.17300000000E+03 0.  1.
<mgrwt>
<rscale>  2 0.22672356E+03</rscale>
<asrwt>0</asrwt>
<pdfrwt beam="1">  1       21 0.28568848E+00 0.22672356E+03</pdfrwt>
<pdfrwt beam="2">  1       21 0.24218593E-01 0.22672356E+03</pdfrwt>
<totfact> 0.63569441E+02</totfact>
</mgrwt>
</event>
<event>
 4    1  0.3950955E+000  0.2306298E+03  0.7546771E-02  0.1126197E+00
         21   -1    0    0  501  502  0.00000000000E+00  0.00000000000E+00  0.26274836867E+03  0.26274836867E+03  0.00000000000E+00 0.  1.
         21   -1    0    0  502  503 -0.00000000000E+00 -0.00000000000E+00 -0.74719020533E+03  0.74719020533E+03  0.00000000000E+00 0. -1.
          6    1    1    2  501    0 -0.48693577206E+02  0.14453383647E+03  0.18894966212E+03  0.29814773043E+03  0.17300000000E+03 0.  1.
         -6    1    1    2    0  503  0.48693577206E+02 -0.14453383647E+03 -0.67339149879E+03  0.71179084357E+03  0.17300000000E+03 0. -1.
<mgrwt>
<rscale>  2 0.23062978E+03</rscale>
<asrwt>0</asrwt>
<pdfrwt beam="1">  1       21 0.40422826E-01 0.23062978E+03</pdfrwt>
<pdfrwt beam="2">  1       21 0.11495234E+00 0.23062978E+03</pdfrwt>
<totfact> 0.33565629E+03</totfact>
</mgrwt>
</event>
<event>
 4    1  0.3950955E+000  0.1934633E+03  0.7546771E-02  0.1155374E+00
         21   -1    0    0  503  502  0.00000000000E+00  0.00000000000E+00  0.33371334039E+03  0.33371334039E+03  0.00000000000E+00 0.  1.
         21   -1    0    0  501  503 -0.00000000000E+00 -0.00000000000E+00 -0.11458677441E+03  0.11458677441E+03  0.00000000000E+00 0.  1.
          6    1    1    2  501    0 -0.26235207818E+02 -0.82527285189E+02  0.14220861118E+03  0.24010690957E+03  0.17300000000E+03 0.  1.
         -6    1    1    2    0  502  0.26235207818E+02  0.82527285189E+02  0.76917954800E+02  0.20819320522E+03  0.17300000000E+03 0.  1.
<mgrwt>
<rscale>  2 0.19346328E+03</rscale>
<asrwt>0</asrwt>
<pdfrwt beam="1">  1       21 0.51340513E-01 0.19346328E+03</pdfrwt>
<pdfrwt beam="2">  1       21 0.17628735E-01 0.19346328E+03</pdfrwt>
<totfact> 0.10517421E+05</totfact>
</mgrwt>
</event>
<event>
 4    1  0.3950955E+000  0.2207630E+03  0.7546771E-02  0.1133315E+00
         21   -1    0    0  501  502  0.00000000000E+00  0.00000000000E+00  0.27022123747E+02  0.27022123747E+02  0.00000000000E+00 0. -1.
         21   -1    0    0  502  503 -0.00000000000E+00 -0.00000000000E+00 -0.21234054651E+04  0.21234054651E+04  0.00000000000E+00 0.  1.
          6    1    1    2  501    0  0.11751789960E+03 -0.70688392306E+02 -0.63089845434E+03  0.66840793324E+03  0.17300000000E+03 0.  1.
         -6    1    1    2    0  503 -0.11751789960E+03  0.70688392306E+02 -0.14654848870E+04  0.14820196556E+04  0.17300000000E+03 0.  1.
<mgrwt>
<rscale>  2 0.22076301E+03</rscale>
<asrwt>0</asrwt>
<pdfrwt beam="1">  1       21 0.41572483E-02 0.22076301E+03</pdfrwt>
<pdfrwt beam="2">  1       21 0.32667788E+00 0.22076301E+03</pdfrwt>
<totfact> 0.85273516E+03</totfact>
</mgrwt>
</event>
<event>
 4    1  0.3950955E+000  0.2192830E+03  0.7546771E-02  0.1134419E+00
         21   -1    0    0  501  502  0.00000000000E+00  0.00000000000E+00  0.11953079301E+04  0.11953079301E+04  0.00000000000E+00 0.  1.
         21   -1    0    0  502  503 -0.00000000000E+00 -0.00000000000E+00 -0.41202612029E+02  0.41202612029E+02  0.00000000000E+00 0.  1.
          6    1    1    2  501    0  0.12062708558E+03 -0.60042650034E+02  0.48197239974E+03  0.52951148024E+03  0.17300000000E+03 0.  1.
         -6    1    1    2    0  503 -0.12062708558E+03  0.60042650034E+02  0.67213291832E+03  0.70699906187E+03  0.17300000000E+03 0.  1.
<mgrwt>
<rscale>  2 0.21928295E+03</rscale>
<asrwt>0</asrwt>
<pdfrwt beam="1">  1       21 0.18389350E+00 0.21928295E+03</pdfrwt>
<pdfrwt beam="2">  1       21 0.63388643E-02 0.21928295E+03</pdfrwt>
<totfact> 0.30197007E+04</totfact>
</mgrwt>
</event>
<event>
 4    1  0.3950955E+000  0.2033137E+03  0.7546771E-02  0.1146973E+00
         21   -1    0    0  501  502  0.00000000000E+00  0.00000000000E+00  0.21038892769E+03  0.21038892769E+03  0.00000000000E+00 0.  1.
         21   -1    0    0  502  503 -0.00000000000E+00 -0.00000000000E+00 -0.20842856166E+03  0.20842856166E+03  0.00000000000E+00 0.  1.
          6    1    1    2  501    0 -0.86364938766E+02  0.62837637725E+02  0.51126422352E+02  0.20964346502E+03  0.17300000000E+03 0.  1.
         -6    1    1    2    0  503  0.86364938766E+02 -0.62837637725E+02 -0.49166056318E+02  0.20917402434E+03  0.17300000000E+03 0.  1.
<mgrwt>
<rscale>  2 0.20331373E+03</rscale>
<asrwt>0</asrwt>
<pdfrwt beam="1">  1       21 0.32367527E-01 0.20331373E+03</pdfrwt>
<pdfrwt beam="2">  1       21 0.32065933E-01 0.20331373E+03</pdfrwt>
<totfact> 0.85524310E+04</totfact>
</mgrwt>
</event>
<event>
 4    1  0.3950955E+000  0.2457587E+03  0.7546771E-02  0.1116015E+00
         21   -1    0    0  501  502  0.00000000000E+00  0.00000000000E+00  0.79369542820E+02  0.79369542820E+02  0.00000000000E+00 0. -1.
         21   -1    0    0  502  503 -0.00000000000E+00 -0.00000000000E+00 -0.90855437474E+03  0.90855437474E+03  0.00000000000E+00 0. -1.
          6    1    1    2  501    0 -0.14134072439E+03 -0.10242630993E+03 -0.61368145312E+03  0.66106147614E+03  0.17300000000E+03 0. -1.
         -6    1    1    2    0  503  0.14134072439E+03  0.10242630993E+03 -0.21550337880E+03  0.32686244142E+03  0.17300000000E+03 0. -1.
<mgrwt>
<rscale>  2 0.24575872E+03</rscale>
<asrwt>0</asrwt>
<pdfrwt beam="1">  1       21 0.12210699E-01 0.24575872E+03</pdfrwt>
<pdfrwt beam="2">  1       21 0.13977760E+00 0.24575872E+03</pdfrwt>
<totfact> 0.19790716E+04</totfact>
</mgrwt>
</event>
<event>
 4    1  0.3950955E+000  0.2400387E+03  0.7546771E-02  0.1119767E+00
         21   -1    0    0  503  502  0.00000000000E+00  0.00000000000E+00  0.14672730353E+03  0.14672730353E+03  0.00000000000E+00 0. -1.
         21   -1    0    0  501  503 -0.00000000000E+00 -0.00000000000E+00 -0.10411309196E+04  0.10411309196E+04  0.00000000000E+00 0.  1.
          6    1    1    2  501    0 -0.46224284825E+02  0.15985275803E+03 -0.91592515960E+03  0.94685663473E+03  0.17300000000E+03 0.  1.
         -6    1    1    2    0  502  0.46224284825E+02 -0.15985275803E+03  0.21521543569E+02  0.24100158836E+03  0.17300000000E+03 0. -1.
<mgrwt>
<rscale>  2 0.24003872E+03</rscale>
<asrwt>0</asrwt>
<pdfrwt beam="1">  1       21 0.22573430E-01 0.24003872E+03</pdfrwt>
<pdfrwt beam="2">  1       21 0.16017400E+00 0.24003872E+03</pdfrwt>
<totfact> 0.44427893E+03</totfact>
</mgrwt>
</event>
<event>
 4    1  0.3950955E+000  0.1774564E+03  0.7546771E-02  0.1170288E+00
         21   -1    0    0  501  502  0.00000000000E+00  0.00000000000E+00  0.16853403227E+03  0.16853403227E+03  0.00000000000E+00 0. -1.
         21   -1    0    0  502  503 -0.00000000000E+00 -0.00000000000E+00 -0.41849749475E+03  0.41849749475E+03  0.00000000000E+00 0. -1.
          6    1    1    2  501    0 -0.17697843512E+02  0.35335134547E+02 -0.34335409864E+03  0.38650074056E+03  0.17300000000E+03 0. -1.
         -6    1    1    2    0  503  0.17697843512E+02 -0.35335134547E+02  0.93390636164E+02  0.20053078647E+03  0.17300000000E+03 0. -1.
<mgrwt>
<rscale>  2 0.17745643E+03</rscale>
<asrwt>0</asrwt>
<pdfrwt beam="1">  1       21 0.25928313E-01 0.17745643E+03</pdfrwt>
<pdfrwt beam="2">  1       21 0.64384229E-01 0.17745643E+03</pdfrwt>
<totfact> 0.31691294E+04</totfact>
</mgrwt>
</event>
<event>
 4    1  0.3950955E+000  0.1796929E+03  0.7546771E-02  0.1168101E+00
         21   -1    0    0  501  502  0.00000000000E+00  0.00000000000E+00  0.10812276937E+03  0.10812276937E+03  0.00000000000E+00 0. -1.
         21   -1    0    0  502  503 -0.00000000000E+00 -0.00000000000E+00 -0.33000251035E+03  0.33000251035E+03  0.00000000000E+00 0. -1.
          6    1    1    2  501    0  0.47752159008E+02 -0.89594671868E+01 -0.17847514520E+03  0.25326452218E+03  0.17300000000E+03 0. -1.
         -6    1    1    2    0  503 -0.47752159008E+02  0.89594671868E+01 -0.43404595779E+02  0.18486075754E+03  0.17300000000E+03 0. -1.
<mgrwt>
<rscale>  2 0.17969291E+03</rscale>
<asrwt>0</asrwt>
<pdfrwt beam="1">  1       21 0.16634273E-01 0.17969291E+03</pdfrwt>
<pdfrwt beam="2">  1       21 0.50769616E-01 0.17969291E+03</pdfrwt>
<totfact> 0.12039165E+05</totfact>
</mgrwt>
</event>
<event>
 4    1  0.3950955E+000  0.2556403E+03  0.7546771E-02  0.1109791E+00
         21   -1    0    0  501  502  0.00000000000E+00  0.00000000000E+00  0.53120398303E+03  0.53120398303E+03  0.00000000000E+00 0.  1.
         21   -1    0    0  502  503 -0.00000000000E+00 -0.00000000000E+00 -0.24325790747E+03  0.24325790747E+03  0.00000000000E+00 0. -1.
          6    1    1    2  501    0 -0.18008722941E+02 -0.18734635858E+03  0.41620944234E+03  0.48844884283E+03  0.17300000000E+03 0.  1.
         -6    1    1    2    0  503  0.18008722941E+02  0.18734635858E+03 -0.12826336678E+03  0.28601304766E+03  0.17300000000E+03 0. -1.
<mgrwt>
<rscale>  2 0.25564032E+03</rscale>
<asrwt>0</asrwt>
<pdfrwt beam="1">  1       21 0.81723689E-01 0.25564032E+03</pdfrwt>
<pdfrwt beam="2">  1       21 0.37424294E-01 0.25564032E+03</pdfrwt>
<totfact> 0.86700011E+03</totfact>
</mgrwt>
</event>
<event>
 4    1  0.3950955E+000  0.1751267E+03  0.7546771E-02  0.1172605E+00
         21   -1    0    0  501  502  0.00000000000E+00  0.00000000000E+00  0.25404323033E+04  0.25404323033E+04  0.00000000000E+00 0. -1.
         21   -1    0    0  502  503 -0.00000000000E+00 -0.00000000000E+00 -0.14925414244E+02  0.14925414244E+02  0.00000000000E+00 0. -1.
          6    1    1    2  501    0 -0.23231926659E+02  0.14164543494E+02  0.70415047713E+03  0.72560130316E+03  0.17300000000E+03 0. -1.
         -6    1    1    2    0  503  0.23231926659E+02 -0.14164543494E+02  0.18213564119E+04  0.18297564144E+04  0.17300000000E+03 0. -1.
<mgrwt>
<rscale>  2 0.17512669E+03</rscale>
<asrwt>0</asrwt>
<pdfrwt beam="1">  1       21 0.39083540E+00 0.17512669E+03</pdfrwt>
<pdfrwt beam="2">  1       21 0.22962196E-02 0.17512669E+03</pdfrwt>
<totfact> 0.99845550E+03</totfact>
</mgrwt>
</event>
<event>
 4    1  0.3950955E+000  0.1805147E+03  0.7546771E-02  0.1167306E+00
         21   -1    0    0  501  502  0.00000000000E+00  0.00000000000E+00  0.22838411653E+04  0.22838411653E+04  0.00000000000E+00 0.  1.
         21   -1    0    0  502  503 -0.00000000000E+00 -0.00000000000E+00 -0.25156790048E+02  0.25156790048E+02  0.00000000000E+00 0.  1.
          6    1    1    2  501    0 -0.27410452386E+02 -0.43648715294E+02  0.18888957299E+04  0.18975016789E+04  0.17300000000E+03 0.  1.
         -6    1    1    2    0  503  0.27410452386E+02  0.43648715294E+02  0.36978864537E+03  0.41149627640E+03  0.17300000000E+03 0.  1.
<mgrwt>
<rscale>  2 0.18051466E+03</rscale>
<asrwt>0</asrwt>
<pdfrwt beam="1">  1       21 0.35136002E+00 0.18051466E+03</pdfrwt>
<pdfrwt beam="2">  1       21 0.38702772E-02 0.18051466E+03</pdfrwt>
<totfact> 0.72199816E+03</totfact>
</mgrwt>
</event>
<event>
 4    1  0.3950955E+000  0.1937849E+03  0.7546771E-02  0.1155091E+00
         21   -1    0    0  501  502  0.00000000000E+00  0.00000000000E+00  0.10556141378E+03  0.10556141378E+03  0.00000000000E+00 0.  1.
         21   -1    0    0  502  503 -0.00000000000E+00 -0.00000000000E+00 -0.35574161175E+03  0.35574161175E+03  0.00000000000E+00 0. -1.
          6    1    1    2  501    0 -0.65619361646E+02 -0.57599291962E+02 -0.12498089557E+03  0.23059228806E+03  0.17300000000E+03 0. -1.
         -6    1    1    2    0  503  0.65619361646E+02  0.57599291962E+02 -0.12519930241E+03  0.23071073746E+03  0.17300000000E+03 0. -1.
<mgrwt>
<rscale>  2 0.19378488E+03</rscale>
<asrwt>0</asrwt>
<pdfrwt beam="1">  1       21 0.16240217E-01 0.19378488E+03</pdfrwt>
<pdfrwt beam="2">  1       21 0.54729479E-01 0.19378488E+03</pdfrwt>
<totfact> 0.10689999E+05</totfact>
</mgrwt>
</event>
<event>
 4    1  0.3950955E+000  0.1790798E+03  0.7546771E-02  0.1168697E+00
         21   -1    0    0  501  502  0.00000000000E+00  0.00000000000E+00  0.76344207354E+02  0.76344207354E+02  0.00000000000E+00 0. -1.
         21   -1    0    0  502  503 -0.00000000000E+00 -0.00000000000E+00 -0.47236412943E+03  0.47236412943E+03  0.00000000000E+00 0. -1.
          6    1    1    2  501    0  0.21966301990E+02  0.40719172647E+02 -0.10672102129E+03  0.20846809307E+03  0.17300000000E+03 0. -1.
         -6    1    1    2    0  503 -0.21966301990E+02 -0.40719172647E+02 -0.28929890079E+03  0.34024024372E+03  0.17300000000E+03 0. -1.
<mgrwt>
<rscale>  2 0.17907979E+03</rscale>
<asrwt>0</asrwt>
<pdfrwt beam="1">  1       21 0.11745263E-01 0.17907979E+03</pdfrwt>
<pdfrwt beam="2">  1       21 0.72671405E-01 0.17907979E+03</pdfrwt>
<totfact> 0.10454406E+05</totfact>
</mgrwt>
</event>
<event>
 4    1  0.3950955E+000  0.1742184E+03  0.7546771E-02  0.1173519E+00
         21   -1    0    0  503  502  0.00000000000E+00  0.00000000000E+00  0.10275842502E+03  0.10275842502E+03  0.00000000000E+00 0.  1.
         21   -1    0    0  501  503 -0.00000000000E+00 -0.00000000000E+00 -0.75696458047E+03  0.75696458047E+03  0.00000000000E+00 0.  1.
          6    1    1    2  501    0 -0.88800942843E+01 -0.18552280509E+02 -0.66277870496E+03  0.68529384568E+03  0.17300000000E+03 0.  1.
         -6    1    1    2    0  502  0.88800942843E+01  0.18552280509E+02  0.85725495094E+01  0.17442915981E+03  0.17300000000E+03 0.  1.
<mgrwt>
<rscale>  2 0.17421838E+03</rscale>
<asrwt>0</asrwt>
<pdfrwt beam="1">  1       21 0.15808988E-01 0.17421838E+03</pdfrwt>
<pdfrwt beam="2">  1       21 0.11645609E+00 0.17421838E+03</pdfrwt>
<totfact> 0.20504192E+04</totfact>
</mgrwt>
</event>
<event>
 4    1  0.3950955E+000  0.1888215E+03  0.7546771E-02  0.1159529E+00
         21   -1    0    0  501  502  0.00000000000E+00  0.00000000000E+00  0.36916260762E+02  0.36916260762E+02  0.00000000000E+00 0. -1.
         21   -1    0    0  502  503 -0.00000000000E+00 -0.00000000000E+00 -0.15312352593E+04  0.15312352593E+04  0.00000000000E+00 0.  1.
          6    1    1    2  501    0 -0.69456526037E+02  0.30005710591E+02 -0.27069526063E+03  0.33004465729E+03  0.17300000000E+03 0. -1.
         -6    1    1    2    0  503  0.69456526037E+02 -0.30005710591E+02 -0.12236237379E+04  0.12381068628E+04  0.17300000000E+03 0.  1.
<mgrwt>
<rscale>  2 0.18882148E+03</rscale>
<asrwt>0</asrwt>
<pdfrwt beam="1">  1       21 0.56794246E-02 0.18882148E+03</pdfrwt>
<pdfrwt beam="2">  1       21 0.23557466E+00 0.18882148E+03</pdfrwt>
<totfact> 0.17592391E+04</totfact>
</mgrwt>
</event>
<event>
 4    1  0.3950955E+000  0.2222670E+03  0.7546771E-02  0.1132204E+00
         21   -1    0    0  501  502  0.00000000000E+00  0.00000000000E+00  0.19827174769E+03  0.19827174769E+03  0.00000000000E+00 0.  1.
         21   -1    0    0  502  503 -0.00000000000E+00 -0.00000000000E+00 -0.24935569477E+03  0.24935569477E+03  0.00000000000E+00 0.  1.
          6    1    1    2  501    0  0.52751659476E+02 -0.12919311177E+03 -0.31713499998E+02  0.22451802553E+03  0.17300000000E+03 0.  1.
         -6    1    1    2    0  503 -0.52751659476E+02  0.12919311177E+03 -0.19370447079E+02  0.22310941694E+03  0.17300000000E+03 0.  1.
<mgrwt>
<rscale>  2 0.22226695E+03</rscale>
<asrwt>0</asrwt>
<pdfrwt beam="1">  1       21 0.30503346E-01 0.22226695E+03</pdfrwt>
<pdfrwt beam="2">  1       21 0.38362414E-01 0.22226695E+03</pdfrwt>
<totfact> 0.66726403E+04</totfact>
</mgrwt>
</event>
<event>
 4    1  0.3950955E+000  0.1731528E+03  0.7546771E-02  0.1174599E+00
         21   -1    0    0  503  502  0.00000000000E+00  0.00000000000E+00  0.20062117023E+03  0.20062117023E+03  0.00000000000E+00 0. -1.
         21   -1    0    0  501  503 -0.00000000000E+00 -0.00000000000E+00 -0.26529027485E+03  0.26529027485E+03  0.00000000000E+00 0. -1.
          6    1    1    2  501    0  0.72271976297E+01 -0.80848371304E+00 -0.18627451056E+03  0.25432278568E+03  0.17300000000E+03 0. -1.
         -6    1    1    2    0  502 -0.72271976297E+01  0.80848371304E+00  0.12160540595E+03  0.21158865940E+03  0.17300000000E+03 0. -1.
<mgrwt>
<rscale>  2 0.17315278E+03</rscale>
<asrwt>0</asrwt>
<pdfrwt beam="1">  1       21 0.30864795E-01 0.17315278E+03</pdfrwt>
<pdfrwt beam="2">  1       21 0.40813889E-01 0.17315278E+03</pdfrwt>
<totfact> 0.58817600E+04</totfact>
</mgrwt>
</event>
<event>
 4    1  0.3950955E+000  0.1894377E+03  0.7546771E-02  0.1158969E+00
         21   -1    0    0  501  502  0.00000000000E+00  0.00000000000E+00  0.21149866681E+03  0.21149866681E+03  0.00000000000E+00 0.  1.
         21   -1    0    0  502  503 -0.00000000000E+00 -0.00000000000E+00 -0.35574502137E+03  0.35574502137E+03  0.00000000000E+00 0. -1.
          6    1    1    2  501    0 -0.58762907603E+02 -0.50045619364E+02  0.13299545651E+03  0.23146151900E+03  0.17300000000E+03 0.  1.
         -6    1    1    2    0  503  0.58762907603E+02  0.50045619364E+02 -0.27724181107E+03  0.33578216917E+03  0.17300000000E+03 0. -1.
<mgrwt>
<rscale>  2 0.18943770E+03</rscale>
<asrwt>0</asrwt>
<pdfrwt beam="1">  1       21 0.32538256E-01 0.18943770E+03</pdfrwt>
<pdfrwt beam="2">  1       21 0.54730004E-01 0.18943770E+03</pdfrwt>
<totfact> 0.28698472E+04</totfact>
</mgrwt>
</event>
<event>
 4    1  0.3950955E+000  0.1875285E+03  0.7546771E-02  0.1160709E+00
         21   -1    0    0  503  502  0.00000000000E+00  0.00000000000E+00  0.72465531331E+03  0.72465531331E+03  0.00000000000E+00 0.  1.
         21   -1    0    0  501  503 -0.00000000000E+00 -0.00000000000E+00 -0.16368064479E+03  0.16368064479E+03  0.00000000000E+00 0.  1.
          6    1    1    2  501    0  0.17940394266E+01  0.72351466046E+02 -0.92061535978E+02  0.20890734698E+03  0.17300000000E+03 0.  1.
         -6    1    1    2    0  502 -0.17940394266E+01 -0.72351466046E+02  0.65303620450E+03  0.67942861112E+03  0.17300000000E+03 0.  1.
<mgrwt>
<rscale>  2 0.18752854E+03</rscale>
<asrwt>0</asrwt>
<pdfrwt beam="1">  1       21 0.11148543E+00 0.18752854E+03</pdfrwt>
<pdfrwt beam="2">  1       21 0.25181638E-01 0.18752854E+03</pdfrwt>
<totfact> 0.94796078E+03</totfact>
</mgrwt>
</event>
<event>
 4    1  0.3950955E+000  0.1840053E+03  0.7546771E-02  0.1163982E+00
         21   -1    0    0  503  502  0.00000000000E+00  0.00000000000E+00  0.16836296996E+03  0.16836296996E+03  0.00000000000E+00 0.  1.
         21   -1    0    0  501  503 -0.00000000000E+00 -0.00000000000E+00 -0.22701344738E+03  0.22701344738E+03  0.00000000000E+00 0.  1.
          6    1    1    2  501    0  0.19130060886E+02  0.59690799695E+02  0.37464497712E+02  0.18778056179E+03  0.17300000000E+03 0.  1.
         -6    1    1    2    0  502 -0.19130060886E+02 -0.59690799695E+02 -0.96114975133E+02  0.20759585555E+03  0.17300000000E+03 0.  1.
<mgrwt>
<rscale>  2 0.18400530E+03</rscale>
<asrwt>0</asrwt>
<pdfrwt beam="1">  1       21 0.25901996E-01 0.18400530E+03</pdfrwt>
<pdfrwt beam="2">  1       21 0.34925146E-01 0.18400530E+03</pdfrwt>
<totfact> 0.11220449E+05</totfact>
</mgrwt>
</event>
<event>
 4    1  0.3950955E+000  0.1868902E+03  0.7546771E-02  0.1161296E+00
         21   -1    0    0  501  502  0.00000000000E+00  0.00000000000E+00  0.75812226046E+02  0.75812226046E+02  0.00000000000E+00 0.  1.
         21   -1    0    0  502  503 -0.00000000000E+00 -0.00000000000E+00 -0.77134543343E+03  0.77134543343E+03  0.00000000000E+00 0.  1.
          6    1    1    2  501    0  0.93428622457E+01 -0.70083182578E+02 -0.78965678047E+02  0.20288794904E+03  0.17300000000E+03 0.  1.
         -6    1    1    2    0  503 -0.93428622457E+01  0.70083182578E+02 -0.61656752934E+03  0.64426971044E+03  0.17300000000E+03 0.  1.
<mgrwt>
<rscale>  2 0.18689019E+03</rscale>
<asrwt>0</asrwt>
<pdfrwt beam="1">  1       21 0.11663420E-01 0.18689019E+03</pdfrwt>
<pdfrwt beam="2">  1       21 0.11866852E+00 0.18689019E+03</pdfrwt>
<totfact> 0.33629423E+04</totfact>
</mgrwt>
</event>
<event>
 4    1  0.3950955E+000  0.1779605E+03  0.7546771E-02  0.1169792E+00
         21   -1    0    0  503  502  0.00000000000E+00  0.00000000000E+00  0.24079602920E+04  0.24079602920E+04  0.00000000000E+00 0. -1.
         21   -1    0    0  501  503 -0.00000000000E+00 -0.00000000000E+00 -0.54240020480E+02  0.54240020480E+02  0.00000000000E+00 0. -1.
          6    1    1    2  501    0 -0.36461720904E+02 -0.20284846389E+02  0.10536522842E+03  0.20681335413E+03  0.17300000000E+03 0. -1.
         -6    1    1    2    0  502  0.36461720904E+02  0.20284846389E+02  0.22483550431E+04  0.22553869584E+04  0.17300000000E+03 0. -1.
<mgrwt>
<rscale>  2 0.17796048E+03</rscale>
<asrwt>0</asrwt>
<pdfrwt beam="1">  1       21 0.37045535E+00 0.17796048E+03</pdfrwt>
<pdfrwt beam="2">  1       21 0.83446204E-02 0.17796048E+03</pdfrwt>
<totfact> 0.15059875E+03</totfact>
</mgrwt>
</event>
<event>
 4    1  0.3950955E+000  0.1790891E+03  0.7546771E-02  0.1168688E+00
         21   -1    0    0  503  502  0.00000000000E+00  0.00000000000E+00  0.19904296268E+02  0.19904296268E+02  0.00000000000E+00 0. -1.
         21   -1    0    0  501  503 -0.00000000000E+00 -0.00000000000E+00 -0.18607174896E+04  0.18607174896E+04  0.00000000000E+00 0. -1.
          6    1    1    2  501    0 -0.26909320463E+02 -0.37680301655E+02 -0.12646340674E+04  0.12772518316E+04  0.17300000000E+03 0. -1.
         -6    1    1    2    0  502  0.26909320463E+02  0.37680301655E+02 -0.57617912586E+03  0.60336995428E+03  0.17300000000E+03 0. -1.
<mgrwt>
<rscale>  2 0.17908913E+03</rscale>
<asrwt>0</asrwt>
<pdfrwt beam="1">  1       21 0.30621990E-02 0.17908913E+03</pdfrwt>
<pdfrwt beam="2">  1       21 0.28626427E+00 0.17908913E+03</pdfrwt>
<totfact> 0.25376770E+04</totfact>
</mgrwt>
</event>
<event>
 4    1  0.3950955E+000  0.1790634E+03  0.7546771E-02  0.1168713E+00
         21   -1    0    0  503  502  0.00000000000E+00  0.00000000000E+00  0.67478314809E+02  0.67478314809E+02  0.00000000000E+00 0.  1.
         21   -1    0    0  501  503 -0.00000000000E+00 -0.00000000000E+00 -0.47625832782E+03  0.47625832782E+03  0.00000000000E+00 0.  1.
          6    1    1    2  501    0  0.28576276579E+02 -0.36305426665E+02 -0.21738474888E+03  0.28163774008E+03  0.17300000000E+03 0.  1.
         -6    1    1    2    0  502 -0.28576276579E+02  0.36305426665E+02 -0.19139526413E+03  0.26209890255E+03  0.17300000000E+03 0.  1.
<mgrwt>
<rscale>  2 0.17906336E+03</rscale>
<asrwt>0</asrwt>
<pdfrwt beam="1">  1       21 0.10381280E-01 0.17906336E+03</pdfrwt>
<pdfrwt beam="2">  1       21 0.73270510E-01 0.17906336E+03</pdfrwt>
<totfact> 0.12781579E+05</totfact>
</mgrwt>
</event>
<event>
 4    1  0.3950955E+000  0.3351732E+03  0.7546771E-02  0.1068871E+00
         21   -1    0    0  503  502  0.00000000000E+00  0.00000000000E+00  0.57708673950E+03  0.57708673950E+03  0.00000000000E+00 0.  1.
         21   -1    0    0  501  503 -0.00000000000E+00 -0.00000000000E+00 -0.28030095282E+03  0.28030095282E+03  0.00000000000E+00 0. -1.
          6    1    1    2  501    0 -0.26667027113E+03 -0.10629708090E+03 -0.88554528759E+02  0.34667420942E+03  0.17300000000E+03 0. -1.
         -6    1    1    2    0  502  0.26667027113E+03  0.10629708090E+03  0.38534031544E+03  0.51071348290E+03  0.17300000000E+03 0.  1.
<mgrwt>
<rscale>  2 0.33517324E+03</rscale>
<asrwt>0</asrwt>
<pdfrwt beam="1">  1       21 0.88782575E-01 0.33517324E+03</pdfrwt>
<pdfrwt beam="2">  1       21 0.43123224E-01 0.33517324E+03</pdfrwt>
<totfact> 0.51495525E+03</totfact>
</mgrwt>
</event>
<event>
 4    1  0.3950955E+000  0.1984192E+03  0.7546771E-02  0.1151080E+00
         21   -1    0    0  501  502  0.00000000000E+00  0.00000000000E+00  0.39332886519E+03  0.39332886519E+03  0.00000000000E+00 0. -1.
         21   -1    0    0  502  503 -0.00000000000E+00 -0.00000000000E+00 -0.14419414252E+03  0.14419414252E+03  0.00000000000E+00 0. -1.
          6    1    1    2  501    0 -0.96384934204E+02  0.12292644511E+02  0.27319837123E+03  0.33764998844E+03  0.17300000000E+03 0. -1.
         -6    1    1    2    0  503  0.96384934204E+02 -0.12292644511E+02 -0.24063648561E+02  0.19987301927E+03  0.17300000000E+03 0. -1.
<mgrwt>
<rscale>  2 0.19841916E+03</rscale>
<asrwt>0</asrwt>
<pdfrwt beam="1">  1       21 0.60512133E-01 0.19841916E+03</pdfrwt>
<pdfrwt beam="2">  1       21 0.22183714E-01 0.19841916E+03</pdfrwt>
<totfact> 0.48211171E+04</totfact>
</mgrwt>
</event>
<event>
 4    1  0.3950955E+000  0.2315942E+03  0.7546771E-02  0.1125523E+00
         21   -1    0    0  501  502  0.00000000000E+00  0.00000000000E+00  0.52584952873E+03  0.52584952873E+03  0.00000000000E+00 0. -1.
         21   -1    0    0  502  503 -0.00000000000E+00 -0.00000000000E+00 -0.10540303055E+03  0.10540303055E+03  0.00000000000E+00 0.  1.
          6    1    1    2  501    0  0.85445071223E+02  0.12808593857E+03  0.15349822946E+03  0.27784451462E+03  0.17300000000E+03 0.  1.
         -6    1    1    2    0  503 -0.85445071223E+02 -0.12808593857E+03  0.26694826871E+03  0.35340804465E+03  0.17300000000E+03 0. -1.
<mgrwt>
<rscale>  2 0.23159419E+03</rscale>
<asrwt>0</asrwt>
<pdfrwt beam="1">  1       21 0.80899926E-01 0.23159419E+03</pdfrwt>
<pdfrwt beam="2">  1       21 0.16215851E-01 0.23159419E+03</pdfrwt>
<totfact> 0.44767465E+04</totfact>
</mgrwt>
</event>
<event>
 4    1  0.3950955E+000  0.1900057E+03  0.7546771E-02  0.1158456E+00
         21   -1    0    0  503  502  0.00000000000E+00  0.00000000000E+00  0.63221615630E+03  0.63221615630E+03  0.00000000000E+00 0. -1.
         21   -1    0    0  501  503 -0.00000000000E+00 -0.00000000000E+00 -0.14722107132E+03  0.14722107132E+03  0.00000000000E+00 0. -1.
          6    1    1    2  501    0  0.27688592021E+02 -0.73528907896E+02 -0.62410840780E+02  0.19999317856E+03  0.17300000000E+03 0. -1.
         -6    1    1    2    0  502 -0.27688592021E+02  0.73528907896E+02  0.54740592576E+03  0.57944404905E+03  0.17300000000E+03 0. -1.
<mgrwt>
<rscale>  2 0.19000568E+03</rscale>
<asrwt>0</asrwt>
<pdfrwt beam="1">  1       21 0.97264022E-01 0.19000568E+03</pdfrwt>
<pdfrwt beam="2">  1       21 0.22649396E-01 0.19000568E+03</pdfrwt>
<totfact> 0.16043220E+04</totfact>
</mgrwt>
</event>
<event>
 4    1  0.3950955E+000  0.1757782E+03  0.7546771E-02  0.1171953E+00
         21   -1    0    0  501  502  0.00000000000E+00  0.00000000000E+00  0.10629102446E+03  0.10629102446E+03  0.00000000000E+00 0. -1.
         21   -1    0    0  502  503 -0.00000000000E+00 -0.00000000000E+00 -0.76856730123E+03  0.76856730123E+03  0.00000000000E+00 0. -1.
          6    1    1    2  501    0 -0.19720900272E+02 -0.24084197292E+02  0.13786345374E+02  0.17631796785E+03  0.17300000000E+03 0. -1.
         -6    1    1    2    0  503  0.19720900272E+02  0.24084197292E+02 -0.67606262215E+03  0.69854035784E+03  0.17300000000E+03 0. -1.
<mgrwt>
<rscale>  2 0.17577816E+03</rscale>
<asrwt>0</asrwt>
<pdfrwt beam="1">  1       21 0.16352466E-01 0.17577816E+03</pdfrwt>
<pdfrwt beam="2">  1       21 0.11824112E+00 0.17577816E+03</pdfrwt>
<totfact> 0.18554733E+04</totfact>
</mgrwt>
</event>
<event>
 4    1  0.3950955E+000  0.1897722E+03  0.7546771E-02  0.1158667E+00
         21   -1    0    0  501  502  0.00000000000E+00  0.00000000000E+00  0.57490327434E+03  0.57490327434E+03  0.00000000000E+00 0.  1.
         21   -1    0    0  502  503 -0.00000000000E+00 -0.00000000000E+00 -0.12800559112E+03  0.12800559112E+03  0.00000000000E+00 0.  1.
          6    1    1    2  501    0  0.57730012512E+02 -0.52457071718E+02  0.47459130583E+03  0.51112660495E+03  0.17300000000E+03 0.  1.
         -6    1    1    2    0  503 -0.57730012512E+02  0.52457071718E+02 -0.27693622602E+02  0.19178226052E+03  0.17300000000E+03 0.  1.
<mgrwt>
<rscale>  2 0.18977223E+03</rscale>
<asrwt>0</asrwt>
<pdfrwt beam="1">  1       21 0.88446656E-01 0.18977223E+03</pdfrwt>
<pdfrwt beam="2">  1       21 0.19693168E-01 0.18977223E+03</pdfrwt>
<totfact> 0.26028461E+04</totfact>
</mgrwt>
</event>
<event>
 4    1  0.3950955E+000  0.1855430E+03  0.7546771E-02  0.1162544E+00
         21   -1    0    0  503  502  0.00000000000E+00  0.00000000000E+00  0.52668546466E+03  0.52668546466E+03  0.00000000000E+00 0. -1.
         21   -1    0    0  501  503 -0.00000000000E+00 -0.00000000000E+00 -0.47536539513E+03  0.47536539513E+03  0.00000000000E+00 0. -1.
          6    1    1    2  501    0  0.33967524504E+02 -0.57822195618E+02 -0.43964604265E+03  0.47719476301E+03  0.17300000000E+03 0. -1.
         -6    1    1    2    0  502 -0.33967524504E+02  0.57822195618E+02  0.49096611217E+03  0.52485609678E+03  0.17300000000E+03 0. -1.
<mgrwt>
<rscale>  2 0.18554298E+03</rscale>
<asrwt>0</asrwt>
<pdfrwt beam="1">  1       21 0.81028533E-01 0.18554298E+03</pdfrwt>
<pdfrwt beam="2">  1       21 0.73133138E-01 0.18554298E+03</pdfrwt>
<totfact> 0.22615306E+03</totfact>
</mgrwt>
</event>
<event>
 4    1  0.3950955E+000  0.2167674E+03  0.7546771E-02  0.1136316E+00
         21   -1    0    0  501  502  0.00000000000E+00  0.00000000000E+00  0.18262324470E+03  0.18262324470E+03  0.00000000000E+00 0. -1.
         21   -1    0    0  502  503 -0.00000000000E+00 -0.00000000000E+00 -0.27311063614E+03  0.27311063614E+03  0.00000000000E+00 0. -1.
          6    1    1    2  501    0 -0.11454862748E+03  0.62751232922E+02  0.95904422257E+01  0.21697945035E+03  0.17300000000E+03 0. -1.
         -6    1    1    2    0  503  0.11454862748E+03 -0.62751232922E+02 -0.10007783367E+03  0.23875443050E+03  0.17300000000E+03 0. -1.
<mgrwt>
<rscale>  2 0.21676740E+03</rscale>
<asrwt>0</asrwt>
<pdfrwt beam="1">  1       21 0.28095884E-01 0.21676740E+03</pdfrwt>
<pdfrwt beam="2">  1       21 0.42017021E-01 0.21676740E+03</pdfrwt>
<totfact> 0.65279419E+04</totfact>
</mgrwt>
</event>
<event>
 4    1  0.3950955E+000  0.1913602E+03  0.7546771E-02  0.1157240E+00
         21   -1    0    0  501  502  0.00000000000E+00  0.00000000000E+00  0.77251345274E+02  0.77251345274E+02  0.00000000000E+00 0.  1.
         21   -1    0    0  502  503 -0.00000000000E+00 -0.00000000000E+00 -0.16936873551E+04  0.16936873551E+04  0.00000000000E+00 0.  1.
          6    1    1    2  501    0  0.81260741620E+02  0.92968226400E+01 -0.56807122443E+02  0.19961409820E+03  0.17300000000E+03 0.  1.
         -6    1    1    2    0  503 -0.81260741620E+02 -0.92968226400E+01 -0.15596288874E+04  0.15713246022E+04  0.17300000000E+03 0.  1.
<mgrwt>
<rscale>  2 0.19136023E+03</rscale>
<asrwt>0</asrwt>
<pdfrwt beam="1">  1       21 0.11884822E-01 0.19136023E+03</pdfrwt>
<pdfrwt beam="2">  1       21 0.26056729E+00 0.19136023E+03</pdfrwt>
<totfact> 0.34479306E+03</totfact>
</mgrwt>
</event>
<event>
 4    1  0.3950955E+000  0.5564558E+03  0.7546771E-02  0.1000011E+00
         21   -1    0    0  501  502  0.00000000000E+00  0.00000000000E+00  0.26720839955E+03  0.26720839955E+03  0.00000000000E+00 0.  1.
         21   -1    0    0  502  503 -0.00000000000E+00 -0.00000000000E+00 -0.16853483112E+04  0.16853483112E+04  0.00000000000E+00 0. -1.
          6    1    1    2  501    0 -0.52030651093E+03 -0.94842816926E+02 -0.12547586504E+04  0.13726114877E+04  0.17300000000E+03 0. -1.
         -6    1    1    2    0  503  0.52030651093E+03  0.94842816926E+02 -0.16338126118E+03  0.57994522305E+03  0.17300000000E+03 0.  1.
<mgrwt>
<rscale>  2 0.55645577E+03</rscale>
<asrwt>0</asrwt>
<pdfrwt beam="1">  1       21 0.41108985E-01 0.55645577E+03</pdfrwt>
<pdfrwt beam="2">  1       21 0.25928435E+00 0.55645577E+03</pdfrwt>
<totfact> 0.25301093E+02</totfact>
</mgrwt>
</event>
<event>
 4    1  0.3950955E+000  0.1752330E+03  0.7546771E-02  0.1172498E+00
         21   -1    0    0  501  502  0.00000000000E+00  0.00000000000E+00  0.85249743592E+03  0.85249743592E+03  0.00000000000E+00 0. -1.
         21   -1    0    0  502  503 -0.00000000000E+00 -0.00000000000E+00 -0.77944257097E+02  0.77944257097E+02  0.00000000000E+00 0. -1.
          6    1    1    2  501    0 -0.27303205737E+02 -0.56699475844E+01  0.72847098254E+03  0.74925068286E+03  0.17300000000E+03 0.  1.
         -6    1    1    2    0  503  0.27303205737E+02  0.56699475844E+01  0.46082196278E+02  0.18119101016E+03  0.17300000000E+03 0.  1.
<mgrwt>
<rscale>  2 0.17523303E+03</rscale>
<asrwt>0</asrwt>
<pdfrwt beam="1">  1       21 0.13115345E+00 0.17523303E+03</pdfrwt>
<pdfrwt beam="2">  1       21 0.11991425E-01 0.17523303E+03</pdfrwt>
<totfact> 0.25110879E+04</totfact>
</mgrwt>
</event>
<event>
 4    1  0.3950955E+000  0.2425852E+03  0.7546771E-02  0.1118083E+00
         21   -1    0    0  503  502  0.00000000000E+00  0.00000000000E+00  0.27776297222E+03  0.27776297222E+03  0.00000000000E+00 0. -1.
         21   -1    0    0  501  503 -0.00000000000E+00 -0.00000000000E+00 -0.21695111590E+03  0.21695111590E+03  0.00000000000E+00 0.  1.
          6    1    1    2  501    0 -0.14965754838E+03 -0.80754030569E+02  0.68288321241E+02  0.25201367038E+03  0.17300000000E+03 0. -1.
         -6    1    1    2    0  502  0.14965754838E+03  0.80754030569E+02 -0.74764649253E+01  0.24270041774E+03  0.17300000000E+03 0.  1.
<mgrwt>
<rscale>  2 0.24258523E+03</rscale>
<asrwt>0</asrwt>
<pdfrwt beam="1">  1       21 0.42732765E-01 0.24258523E+03</pdfrwt>
<pdfrwt beam="2">  1       21 0.33377095E-01 0.24258523E+03</pdfrwt>
<totfact> 0.44492378E+04</totfact>
</mgrwt>
</event>
<event>
 4    1  0.3950955E+000  0.1870206E+03  0.7546771E-02  0.1161176E+00
         21   -1    0    0  503  502  0.00000000000E+00  0.00000000000E+00  0.21840119107E+03  0.21840119107E+03  0.00000000000E+00 0.  1.
         21   -1    0    0  501  503 -0.00000000000E+00 -0.00000000000E+00 -0.18899636011E+03  0.18899636011E+03  0.00000000000E+00 0. -1.
          6    1    1    2  501    0 -0.67289769796E+02 -0.22798814293E+02 -0.64879774126E+02  0.19795475277E+03  0.17300000000E+03 0. -1.
         -6    1    1    2    0  502  0.67289769796E+02  0.22798814293E+02  0.94284605084E+02  0.20944279842E+03  0.17300000000E+03 0.  1.
<mgrwt>
<rscale>  2 0.18702058E+03</rscale>
<asrwt>0</asrwt>
<pdfrwt beam="1">  1       21 0.33600183E-01 0.18702058E+03</pdfrwt>
<pdfrwt beam="2">  1       21 0.29076363E-01 0.18702058E+03</pdfrwt>
<totfact> 0.96825538E+04</totfact>
</mgrwt>
</event>
<event>
 4    1  0.3950955E+000  0.2373303E+03  0.7546771E-02  0.1121584E+00
         21   -1    0    0  501  502  0.00000000000E+00  0.00000000000E+00  0.69129574037E+03  0.69129574037E+03  0.00000000000E+00 0.  1.
         21   -1    0    0  502  503 -0.00000000000E+00 -0.00000000000E+00 -0.88376766447E+02  0.88376766447E+02  0.00000000000E+00 0. -1.
          6    1    1    2  501    0 -0.13551574036E+03 -0.89622256072E+02  0.19254476610E+03  0.30561274780E+03  0.17300000000E+03 0. -1.
         -6    1    1    2    0  503  0.13551574036E+03  0.89622256072E+02  0.41037420783E+03  0.47405975902E+03  0.17300000000E+03 0.  1.
<mgrwt>
<rscale>  2 0.23733029E+03</rscale>
<asrwt>0</asrwt>
<pdfrwt beam="1">  1       21 0.10635319E+00 0.23733029E+03</pdfrwt>
<pdfrwt beam="2">  1       21 0.13596426E-01 0.23733029E+03</pdfrwt>
<totfact> 0.32432124E+04</totfact>
</mgrwt>
</event>
<event>
 4    1  0.3950955E+000  0.2708016E+03  0.7546771E-02  0.1100822E+00
         21   -1    0    0  501  502  0.00000000000E+00  0.00000000000E+00  0.80143097653E+02  0.80143097653E+02  0.00000000000E+00 0.  1.
         21   -1    0    0  502  503 -0.00000000000E+00 -0.00000000000E+00 -0.93457658477E+03  0.93457658477E+03  0.00000000000E+00 0. -1.
          6    1    1    2  501    0 -0.69973512815E+02 -0.19623513658E+03 -0.35384670276E+03  0.44557940973E+03  0.17300000000E+03 0. -1.
         -6    1    1    2    0  503  0.69973512815E+02  0.19623513658E+03 -0.50058678436E+03  0.56914027269E+03  0.17300000000E+03 0. -1.
<mgrwt>
<rscale>  2 0.27080163E+03</rscale>
<asrwt>0</asrwt>
<pdfrwt beam="1">  1       21 0.12329708E-01 0.27080163E+03</pdfrwt>
<pdfrwt beam="2">  1       21 0.14378101E+00 0.27080163E+03</pdfrwt>
<totfact> 0.17826630E+04</totfact>
</mgrwt>
</event>
<event>
 4    1  0.3950955E+000  0.1959494E+03  0.7546771E-02  0.1153202E+00
         21   -1    0    0  503  502  0.00000000000E+00  0.00000000000E+00  0.98002077189E+03  0.98002077189E+03  0.00000000000E+00 0. -1.
         21   -1    0    0  501  503 -0.00000000000E+00 -0.00000000000E+00 -0.41891787139E+02  0.41891787139E+02  0.00000000000E+00 0. -1.
          6    1    1    2  501    0 -0.75633950867E+02  0.52408580039E+02  0.59909153735E+03  0.63032279343E+03  0.17300000000E+03 0. -1.
         -6    1    1    2    0  502  0.75633950867E+02 -0.52408580039E+02  0.33903744740E+03  0.39158976560E+03  0.17300000000E+03 0. -1.
<mgrwt>
<rscale>  2 0.19594937E+03</rscale>
<asrwt>0</asrwt>
<pdfrwt beam="1">  1       21 0.15077241E+00 0.19594937E+03</pdfrwt>
<pdfrwt beam="2">  1       21 0.64448911E-02 0.19594937E+03</pdfrwt>
<totfact> 0.51335514E+04</totfact>
</mgrwt>
</event>
<event>
 4    1  0.3950955E+000  0.1989461E+03  0.7546771E-02  0.1150631E+00
         21   -1    0    0  503  502  0.00000000000E+00  0.00000000000E+00  0.41501825843E+03  0.41501825843E+03  0.00000000000E+00 0.  1.
         21   -1    0    0  501  503 -0.00000000000E+00 -0.00000000000E+00 -0.24220633461E+03  0.24220633461E+03  0.00000000000E+00 0.  1.
          6    1    1    2  501    0  0.47384894043E+02 -0.86053525296E+02 -0.16945882201E+03  0.26133470829E+03  0.17300000000E+03 0.  1.
         -6    1    1    2    0  502 -0.47384894043E+02  0.86053525296E+02  0.34227074582E+03  0.39588988475E+03  0.17300000000E+03 0.  1.
<mgrwt>
<rscale>  2 0.19894607E+03</rscale>
<asrwt>0</asrwt>
<pdfrwt beam="1">  1       21 0.63848963E-01 0.19894607E+03</pdfrwt>
<pdfrwt beam="2">  1       21 0.37262513E-01 0.19894607E+03</pdfrwt>
<totfact> 0.15675351E+04</totfact>
</mgrwt>
</event>
<event>
 4    1  0.3950955E+000  0.1750462E+03  0.7546771E-02  0.1172685E+00
         21   -1    0    0  503  502  0.00000000000E+00  0.00000000000E+00  0.35572056535E+03  0.35572056535E+03  0.00000000000E+00 0.  1.
         21   -1    0    0  501  503 -0.00000000000E+00 -0.00000000000E+00 -0.10287905597E+03  0.10287905597E+03  0.00000000000E+00 0.  1.
          6    1    1    2  501    0  0.23080035015E+02  0.13397723376E+02  0.21891760256E+03  0.28029645684E+03  0.17300000000E+03 0.  1.
         -6    1    1    2    0  502 -0.23080035015E+02 -0.13397723376E+02  0.33923906822E+02  0.17830316448E+03  0.17300000000E+03 0.  1.
<mgrwt>
<rscale>  2 0.17504624E+03</rscale>
<asrwt>0</asrwt>
<pdfrwt beam="1">  1       21 0.54726240E-01 0.17504624E+03</pdfrwt>
<pdfrwt beam="2">  1       21 0.15827547E-01 0.17504624E+03</pdfrwt>
<totfact> 0.11284420E+05</totfact>
</mgrwt>
</event>
<event>
 4    1  0.3950955E+000  0.1890263E+03  0.7546771E-02  0.1159342E+00
         21   -1    0    0  503  502  0.00000000000E+00  0.00000000000E+00  0.10990844759E+04  0.10990844759E+04  0.00000000000E+00 0.  1.
         21   -1    0    0  501  503 -0.00000000000E+00 -0.00000000000E+00 -0.33242634322E+02  0.33242634322E+02  0.00000000000E+00 0.  1.
          6    1    1    2  501    0 -0.27148934424E+02 -0.71167991349E+02  0.61698600609E+03  0.64529270826E+03  0.17300000000E+03 0.  1.
         -6    1    1    2    0  502  0.27148934424E+02  0.71167991349E+02  0.44885583548E+03  0.48703440194E+03  0.17300000000E+03 0.  1.
<mgrwt>
<rscale>  2 0.18902631E+03</rscale>
<asrwt>0</asrwt>
<pdfrwt beam="1">  1       21 0.16908989E+00 0.18902631E+03</pdfrwt>
<pdfrwt beam="2">  1       21 0.51142523E-02 0.18902631E+03</pdfrwt>
<totfact> 0.56177577E+04</totfact>
</mgrwt>
</event>
<event>
 4    1  0.3950955E+000  0.2284955E+03  0.7546771E-02  0.1127703E+00
         21   -1    0    0  503  502  0.00000000000E+00  0.00000000000E+00  0.13568808084E+03  0.13568808084E+03  0.00000000000E+00 0. -1.
         21   -1    0    0  501  503 -0.00000000000E+00 -0.00000000000E+00 -0.43989687339E+03  0.43989687339E+03  0.00000000000E+00 0.  1.
          6    1    1    2  501    0  0.12812111437E+03 -0.76590893801E+02 -0.25397353885E+03  0.34163246830E+03  0.17300000000E+03 0.  1.
         -6    1    1    2    0  502 -0.12812111437E+03  0.76590893801E+02 -0.50235253691E+02  0.23395248593E+03  0.17300000000E+03 0. -1.
<mgrwt>
<rscale>  2 0.22849548E+03</rscale>
<asrwt>0</asrwt>
<pdfrwt beam="1">  1       21 0.20875090E-01 0.22849548E+03</pdfrwt>
<pdfrwt beam="2">  1       21 0.67676442E-01 0.22849548E+03</pdfrwt>
<totfact> 0.41774739E+04</totfact>
</mgrwt>
</event>
<event>
 4    1  0.3950955E+000  0.2688062E+03  0.7546771E-02  0.1101965E+00
         21   -1    0    0  503  502  0.00000000000E+00  0.00000000000E+00  0.62957703279E+03  0.62957703279E+03  0.00000000000E+00 0. -1.
         21   -1    0    0  501  503 -0.00000000000E+00 -0.00000000000E+00 -0.11984311709E+03  0.11984311709E+03  0.00000000000E+00 0.  1.
          6    1    1    2  501    0  0.19407540835E+03 -0.68282730656E+02  0.17777483767E+03  0.32227424399E+03  0.17300000000E+03 0. -1.
         -6    1    1    2    0  502 -0.19407540835E+03  0.68282730656E+02  0.33195907803E+03  0.42714590589E+03  0.17300000000E+03 0.  1.
<mgrwt>
<rscale>  2 0.26880624E+03</rscale>
<asrwt>0</asrwt>
<pdfrwt beam="1">  1       21 0.96858003E-01 0.26880624E+03</pdfrwt>
<pdfrwt beam="2">  1       21 0.18437403E-01 0.26880624E+03</pdfrwt>
<totfact> 0.22837601E+04</totfact>
</mgrwt>
</event>
<event>
 4    1  0.3950955E+000  0.1905040E+03  0.7546771E-02  0.1158008E+00
         21   -1    0    0  503  502  0.00000000000E+00  0.00000000000E+00  0.37019345844E+03  0.37019345844E+03  0.00000000000E+00 0. -1.
         21   -1    0    0  501  503 -0.00000000000E+00 -0.00000000000E+00 -0.16610034323E+03  0.16610034323E+03  0.00000000000E+00 0. -1.
          6    1    1    2  501    0 -0.70332790371E+02 -0.37630883512E+02 -0.69606547700E+02  0.20282222826E+03  0.17300000000E+03 0. -1.
         -6    1    1    2    0  502  0.70332790371E+02  0.37630883512E+02  0.27369966291E+03  0.33347157341E+03  0.17300000000E+03 0. -1.
<mgrwt>
<rscale>  2 0.19050403E+03</rscale>
<asrwt>0</asrwt>
<pdfrwt beam="1">  1       21 0.56952840E-01 0.19050403E+03</pdfrwt>
<pdfrwt beam="2">  1       21 0.25553899E-01 0.19050403E+03</pdfrwt>
<totfact> 0.42120944E+04</totfact>
</mgrwt>
</event>
<event>
 4    1  0.3950955E+000  0.1747057E+03  0.7546771E-02  0.1173028E+00
         21   -1    0    0  501  502  0.00000000000E+00  0.00000000000E+00  0.69866069182E+02  0.69866069182E+02  0.00000000000E+00 0.  1.
         21   -1    0    0  502  503 -0.00000000000E+00 -0.00000000000E+00 -0.54328128480E+03  0.54328128480E+03  0.00000000000E+00 0.  1.
          6    1    1    2  501    0 -0.51911976194E+01  0.23793413888E+02 -0.10102458153E+03  0.20181189546E+03  0.17300000000E+03 0.  1.
         -6    1    1    2    0  503  0.51911976194E+01 -0.23793413888E+02 -0.37239063409E+03  0.41133545852E+03  0.17300000000E+03 0.  1.
<mgrwt>
<rscale>  2 0.17470568E+03</rscale>
<asrwt>0</asrwt>
<pdfrwt beam="1">  1       21 0.10748626E-01 0.17470568E+03</pdfrwt>
<pdfrwt beam="2">  1       21 0.83581737E-01 0.17470568E+03</pdfrwt>
<totfact> 0.89580439E+04</totfact>
</mgrwt>
</event>
<event>
 4    1  0.3950955E+000  0.1771800E+03  0.7546771E-02  0.1170561E+00
         21   -1    0    0  501  502  0.00000000000E+00  0.00000000000E+00  0.29626711515E+02  0.29626711515E+02  0.00000000000E+00 0.  1.
         21   -1    0    0  502  503 -0.00000000000E+00 -0.00000000000E+00 -0.11034825019E+04  0.11034825019E+04  0.00000000000E+00 0.  1.
          6    1    1    2  501    0  0.31753893713E+01 -0.38126875275E+02 -0.42395915914E+03  0.45949331914E+03  0.17300000000E+03 0.  1.
         -6    1    1    2    0  503 -0.31753893713E+01  0.38126875275E+02 -0.64989663127E+03  0.67361589430E+03  0.17300000000E+03 0.  1.
<mgrwt>
<rscale>  2 0.17717997E+03</rscale>
<asrwt>0</asrwt>
<pdfrwt beam="1">  1       21 0.45579553E-02 0.17717997E+03</pdfrwt>
<pdfrwt beam="2">  1       21 0.16976655E+00 0.17717997E+03</pdfrwt>
<totfact> 0.67968949E+04</totfact>
</mgrwt>
</event>
<event>
 4    1  0.3950955E+000  0.2001913E+03  0.7546771E-02  0.1149578E+00
         21   -1    0    0  503  502  0.00000000000E+00  0.00000000000E+00  0.60976592300E+02  0.60976592300E+02  0.00000000000E+00 0.  1.
         21   -1    0    0  501  503 -0.00000000000E+00 -0.00000000000E+00 -0.84703488000E+03  0.84703488000E+03  0.00000000000E+00 0.  1.
          6    1    1    2  501    0  0.34310324972E+02 -0.94712040114E+02 -0.60793441020E+03  0.64004751077E+03  0.17300000000E+03 0.  1.
         -6    1    1    2    0  502 -0.34310324972E+02  0.94712040114E+02 -0.17812387750E+03  0.26796396153E+03  0.17300000000E+03 0.  1.
<mgrwt>
<rscale>  2 0.20019133E+03</rscale>
<asrwt>0</asrwt>
<pdfrwt beam="1">  1       21 0.93810146E-02 0.20019133E+03</pdfrwt>
<pdfrwt beam="2">  1       21 0.13031305E+00 0.20019133E+03</pdfrwt>
<totfact> 0.38851418E+04</totfact>
</mgrwt>
</event>
<event>
 4    1  0.3950955E+000  0.2299306E+03  0.7546771E-02  0.1126689E+00
         21   -1    0    0  501  502  0.00000000000E+00  0.00000000000E+00  0.42255075819E+03  0.42255075819E+03  0.00000000000E+00 0.  1.
         21   -1    0    0  502  503 -0.00000000000E+00 -0.00000000000E+00 -0.27660188925E+03  0.27660188925E+03  0.00000000000E+00 0.  1.
          6    1    1    2  501    0 -0.14454884655E+03 -0.45218576061E+02 -0.18572754792E+03  0.29557200598E+03  0.17300000000E+03 0.  1.
         -6    1    1    2    0  503  0.14454884655E+03  0.45218576061E+02  0.33167641686E+03  0.40358064146E+03  0.17300000000E+03 0.  1.
<mgrwt>
<rscale>  2 0.22993062E+03</rscale>
<asrwt>0</asrwt>
<pdfrwt beam="1">  1       21 0.65007809E-01 0.22993062E+03</pdfrwt>
<pdfrwt beam="2">  1       21 0.42554137E-01 0.22993062E+03</pdfrwt>
<totfact> 0.11303193E+04</totfact>
</mgrwt>
</event>
<event>
 4    1  0.3950955E+000  0.2156015E+03  0.7546771E-02  0.1137205E+00
         21   -1    0    0  501  502  0.00000000000E+00  0.00000000000E+00  0.13686332044E+04  0.13686332044E+04  0.00000000000E+00 0.  1.
         21   -1    0    0  502  503 -0.00000000000E+00 -0.00000000000E+00 -0.19169472141E+03  0.19169472141E+03  0.00000000000E+00 0.  1.
          6    1    1    2  501    0  0.42530704096E+02 -0.12143363987E+03  0.12961529917E+04  0.13139621637E+04  0.17300000000E+03 0.  1.
         -6    1    1    2    0  503 -0.42530704096E+02  0.12143363987E+03 -0.11921450868E+03  0.24636576216E+03  0.17300000000E+03 0.  1.
<mgrwt>
<rscale>  2 0.21560146E+03</rscale>
<asrwt>0</asrwt>
<pdfrwt beam="1">  1       21 0.21055895E+00 0.21560146E+03</pdfrwt>
<pdfrwt beam="2">  1       21 0.29491497E-01 0.21560146E+03</pdfrwt>
<totfact> 0.12371953E+03</totfact>
</mgrwt>
</event>
<event>
 4    1  0.3950955E+000  0.2136936E+03  0.7546771E-02  0.1138674E+00
         21   -1    0    0  501  502  0.00000000000E+00  0.00000000000E+00  0.33864566021E+02  0.33864566021E+02  0.00000000000E+00 0.  1.
         21   -1    0    0  502  503 -0.00000000000E+00 -0.00000000000E+00 -0.16280183747E+04  0.16280183747E+04  0.00000000000E+00 0. -1.
          6    1    1    2  501    0  0.10029150238E+03 -0.75349725205E+02 -0.45274434134E+03  0.50064199300E+03  0.17300000000E+03 0.  1.
         -6    1    1    2    0  503 -0.10029150238E+03  0.75349725205E+02 -0.11414094673E+04  0.11612409477E+04  0.17300000000E+03 0.  1.
<mgrwt>
<rscale>  2 0.21369363E+03</rscale>
<asrwt>0</asrwt>
<pdfrwt beam="1">  1       21 0.52099352E-02 0.21369363E+03</pdfrwt>
<pdfrwt beam="2">  1       21 0.25046427E+00 0.21369363E+03</pdfrwt>
<totfact> 0.16275052E+04</totfact>
</mgrwt>
</event>
<event>
 4    1  0.3950955E+000  0.1847212E+03  0.7546771E-02  0.1163311E+00
         21   -1    0    0  503  502  0.00000000000E+00  0.00000000000E+00  0.13565500906E+03  0.13565500906E+03  0.00000000000E+00 0. -1.
         21   -1    0    0  501  503 -0.00000000000E+00 -0.00000000000E+00 -0.29092315377E+03  0.29092315377E+03  0.00000000000E+00 0.  1.
          6    1    1    2  501    0  0.40180555873E+02  0.50778296209E+02 -0.15611518443E+03  0.24185504594E+03  0.17300000000E+03 0.  1.
         -6    1    1    2    0  502 -0.40180555873E+02 -0.50778296209E+02  0.84703971555E+00  0.18472311689E+03  0.17300000000E+03 0.  1.
<mgrwt>
<rscale>  2 0.18472117E+03</rscale>
<asrwt>0</asrwt>
<pdfrwt beam="1">  1       21 0.20870002E-01 0.18472117E+03</pdfrwt>
<pdfrwt beam="2">  1       21 0.44757407E-01 0.18472117E+03</pdfrwt>
<totfact> 0.10243288E+05</totfact>
</mgrwt>
</event>
<event>
 4    1  0.3950955E+000  0.4280882E+03  0.7546771E-02  0.1034466E+00
         21   -1    0    0  501  502  0.00000000000E+00  0.00000000000E+00  0.10610462247E+04  0.10610462247E+04  0.00000000000E+00 0. -1.
         21   -1    0    0  502  503 -0.00000000000E+00 -0.00000000000E+00 -0.35875334981E+03  0.35875334981E+03  0.00000000000E+00 0.  1.
          6    1    1    2  501    0  0.35834167339E+03  0.15786614604E+03  0.86235643542E+03  0.96276585765E+03  0.17300000000E+03 0.  1.
         -6    1    1    2    0  503 -0.35834167339E+03 -0.15786614604E+03 -0.16006356052E+03  0.45703371687E+03  0.17300000000E+03 0. -1.
<mgrwt>
<rscale>  2 0.42808816E+03</rscale>
<asrwt>0</asrwt>
<pdfrwt beam="1">  1       21 0.16323788E+00 0.42808816E+03</pdfrwt>
<pdfrwt beam="2">  1       21 0.55192823E-01 0.42808816E+03</pdfrwt>
<totfact> 0.62222603E+02</totfact>
</mgrwt>
</event>
<event>
 4    1  0.3950955E+000  0.1887067E+03  0.7546771E-02  0.1159633E+00
         21   -1    0    0  503  502  0.00000000000E+00  0.00000000000E+00  0.10748961656E+04  0.10748961656E+04  0.00000000000E+00 0.  1.
         21   -1    0    0  501  503 -0.00000000000E+00 -0.00000000000E+00 -0.72727624657E+02  0.72727624657E+02  0.00000000000E+00 0.  1.
          6    1    1    2  501    0  0.63417516628E+01  0.75106668400E+02  0.77675426608E+02  0.20406788417E+03  0.17300000000E+03 0.  1.
         -6    1    1    2    0  502 -0.63417516628E+01 -0.75106668400E+02  0.92449311431E+03  0.94355590606E+03  0.17300000000E+03 0.  1.
<mgrwt>
<rscale>  2 0.18870673E+03</rscale>
<asrwt>0</asrwt>
<pdfrwt beam="1">  1       21 0.16536863E+00 0.18870673E+03</pdfrwt>
<pdfrwt beam="2">  1       21 0.11188866E-01 0.18870673E+03</pdfrwt>
<totfact> 0.15346383E+04</totfact>
</mgrwt>
</event>
<event>
 4    1  0.3950955E+000  0.2162804E+03  0.7546771E-02  0.1136687E+00
         21   -1    0    0  503  502  0.00000000000E+00  0.00000000000E+00  0.25998520943E+03  0.25998520943E+03  0.00000000000E+00 0. -1.
         21   -1    0    0  501  503 -0.00000000000E+00 -0.00000000000E+00 -0.24429578117E+03  0.24429578117E+03  0.00000000000E+00 0. -1.
          6    1    1    2  501    0  0.12494767331E+03 -0.35160756491E+02 -0.12158598533E+03  0.24811358627E+03  0.17300000000E+03 0. -1.
         -6    1    1    2    0  502 -0.12494767331E+03  0.35160756491E+02  0.13727541359E+03  0.25616740433E+03  0.17300000000E+03 0. -1.
<mgrwt>
<rscale>  2 0.21628037E+03</rscale>
<asrwt>0</asrwt>
<pdfrwt beam="1">  1       21 0.39997724E-01 0.21628037E+03</pdfrwt>
<pdfrwt beam="2">  1       21 0.37583967E-01 0.21628037E+03</pdfrwt>
<totfact> 0.40646552E+04</totfact>
</mgrwt>
</event>
<event>
 4    1  0.3950955E+000  0.2145139E+03  0.7546771E-02  0.1138040E+00
         21   -1    0    0  501  502  0.00000000000E+00  0.00000000000E+00  0.23283297239E+03  0.23283297239E+03  0.00000000000E+00 0. -1.
         21   -1    0    0  502  503 -0.00000000000E+00 -0.00000000000E+00 -0.44767277466E+03  0.44767277466E+03  0.00000000000E+00 0. -1.
          6    1    1    2  501    0  0.12662516722E+03 -0.73004249150E+01  0.14686654403E+03  0.25997309656E+03  0.17300000000E+03 0. -1.
         -6    1    1    2    0  503 -0.12662516722E+03  0.73004249150E+01 -0.36170634630E+03  0.42053265050E+03  0.17300000000E+03 0. -1.
<mgrwt>
<rscale>  2 0.21451394E+03</rscale>
<asrwt>0</asrwt>
<pdfrwt beam="1">  1       21 0.35820458E-01 0.21451394E+03</pdfrwt>
<pdfrwt beam="2">  1       21 0.68872734E-01 0.21451394E+03</pdfrwt>
<totfact> 0.14233221E+04</totfact>
</mgrwt>
</event>
<event>
 4    1  0.3950955E+000  0.1899578E+03  0.7546771E-02  0.1158499E+00
         21   -1    0    0  501  502  0.00000000000E+00  0.00000000000E+00  0.16493700259E+03  0.16493700259E+03  0.00000000000E+00 0.  1.
         21   -1    0    0  502  503 -0.00000000000E+00 -0.00000000000E+00 -0.21889964506E+03  0.21889964506E+03  0.00000000000E+00 0. -1.
          6    1    1    2  501    0 -0.52135617865E+02 -0.58624582521E+02 -0.22387399380E+02  0.19127247574E+03  0.17300000000E+03 0.  1.
         -6    1    1    2    0  503  0.52135617865E+02  0.58624582521E+02 -0.31575243098E+02  0.19256417191E+03  0.17300000000E+03 0. -1.
<mgrwt>
<rscale>  2 0.18995780E+03</rscale>
<asrwt>0</asrwt>
<pdfrwt beam="1">  1       21 0.25374924E-01 0.18995780E+03</pdfrwt>
<pdfrwt beam="2">  1       21 0.33676868E-01 0.18995780E+03</pdfrwt>
<totfact> 0.12516014E+05</totfact>
</mgrwt>
</event>
<event>
 4    1  0.3950955E+000  0.1975205E+03  0.7546771E-02  0.1151848E+00
         21   -1    0    0  503  502  0.00000000000E+00  0.00000000000E+00  0.18747903830E+03  0.18747903830E+03  0.00000000000E+00 0. -1.
         21   -1    0    0  501  503 -0.00000000000E+00 -0.00000000000E+00 -0.20815754949E+03  0.20815754949E+03  0.00000000000E+00 0. -1.
          6    1    1    2  501    0 -0.59450919570E+02  0.74504568078E+02 -0.13635369960E+02  0.19799057002E+03  0.17300000000E+03 0. -1.
         -6    1    1    2    0  502  0.59450919570E+02 -0.74504568078E+02 -0.70431412360E+01  0.19764601777E+03  0.17300000000E+03 0. -1.
<mgrwt>
<rscale>  2 0.19752049E+03</rscale>
<asrwt>0</asrwt>
<pdfrwt beam="1">  1       21 0.28842929E-01 0.19752049E+03</pdfrwt>
<pdfrwt beam="2">  1       21 0.32024238E-01 0.19752049E+03</pdfrwt>
<totfact> 0.10767704E+05</totfact>
</mgrwt>
</event>
<event>
 4    1  0.3950955E+000  0.1921296E+03  0.7546771E-02  0.1156554E+00
         21   -1    0    0  501  502  0.00000000000E+00  0.00000000000E+00  0.21926091656E+02  0.21926091656E+02  0.00000000000E+00 0. -1.
         21   -1    0    0  502  503 -0.00000000000E+00 -0.00000000000E+00 -0.18095771511E+04  0.18095771511E+04  0.00000000000E+00 0.  1.
          6    1    1    2  501    0 -0.59154559096E+02 -0.59038422660E+02 -0.65216187830E+03  0.67987418889E+03  0.17300000000E+03 0.  1.
         -6    1    1    2    0  503  0.59154559096E+02  0.59038422660E+02 -0.11354891812E+04  0.11516290539E+04  0.17300000000E+03 0.  1.
<mgrwt>
<rscale>  2 0.19212964E+03</rscale>
<asrwt>0</asrwt>
<pdfrwt beam="1">  1       21 0.33732435E-02 0.19212964E+03</pdfrwt>
<pdfrwt beam="2">  1       21 0.27839660E+00 0.19212964E+03</pdfrwt>
<totfact> 0.23688925E+04</totfact>
</mgrwt>
</event>
<event>
 4    1  0.3950955E+000  0.1994269E+03  0.7546771E-02  0.1150223E+00
         21   -1    0    0  503  502  0.00000000000E+00  0.00000000000E+00  0.56660114401E+03  0.56660114401E+03  0.00000000000E+00 0. -1.
         21   -1    0    0  501  503 -0.00000000000E+00 -0.00000000000E+00 -0.11016875787E+03  0.11016875787E+03  0.00000000000E+00 0. -1.
          6    1    1    2  501    0 -0.66706430280E+02  0.73432630224E+02  0.24379023954E+02  0.20091151244E+03  0.17300000000E+03 0. -1.
         -6    1    1    2    0  502  0.66706430280E+02 -0.73432630224E+02  0.43205336218E+03  0.47585838944E+03  0.17300000000E+03 0. -1.
<mgrwt>
<rscale>  2 0.19942693E+03</rscale>
<asrwt>0</asrwt>
<pdfrwt beam="1">  1       21 0.87169405E-01 0.19942693E+03</pdfrwt>
<pdfrwt beam="2">  1       21 0.16949040E-01 0.19942693E+03</pdfrwt>
<totfact> 0.35347000E+04</totfact>
</mgrwt>
</event>
<event>
 4    1  0.3950955E+000  0.2256620E+03  0.7546771E-02  0.1129731E+00
         21   -1    0    0  503  502  0.00000000000E+00  0.00000000000E+00  0.18146694213E+04  0.18146694213E+04  0.00000000000E+00 0. -1.
         21   -1    0    0  501  503 -0.00000000000E+00 -0.00000000000E+00 -0.35067480986E+02  0.35067480986E+02  0.00000000000E+00 0.  1.
          6    1    1    2  501    0 -0.11679028426E+03  0.85757670953E+02  0.47642518660E+03  0.52716629924E+03  0.17300000000E+03 0.  1.
         -6    1    1    2    0  502  0.11679028426E+03 -0.85757670953E+02  0.13031767537E+04  0.13225706030E+04  0.17300000000E+03 0. -1.
<mgrwt>
<rscale>  2 0.22566202E+03</rscale>
<asrwt>0</asrwt>
<pdfrwt beam="1">  1       21 0.27917984E+00 0.22566202E+03</pdfrwt>
<pdfrwt beam="2">  1       21 0.53949985E-02 0.22566202E+03</pdfrwt>
<totfact> 0.10302656E+04</totfact>
</mgrwt>
</event>
<event>
 4    1  0.3950955E+000  0.4391470E+03  0.7546771E-02  0.1031009E+00
         21   -1    0    0  501  502  0.00000000000E+00  0.00000000000E+00  0.78436636701E+03  0.78436636701E+03  0.00000000000E+00 0. -1.
         21   -1    0    0  502  503 -0.00000000000E+00 -0.00000000000E+00 -0.28419159521E+03  0.28419159521E+03  0.00000000000E+00 0.  1.
          6    1    1    2  501    0 -0.11482801146E+03  0.38695686282E+03  0.44628749174E+03  0.62611709064E+03  0.17300000000E+03 0. -1.
         -6    1    1    2    0  503  0.11482801146E+03 -0.38695686282E+03  0.53887280055E+02  0.44244087159E+03  0.17300000000E+03 0.  1.
<mgrwt>
<rscale>  2 0.43914700E+03</rscale>
<asrwt>0</asrwt>
<pdfrwt beam="1">  1       21 0.12067175E+00 0.43914700E+03</pdfrwt>
<pdfrwt beam="2">  1       21 0.43721784E-01 0.43914700E+03</pdfrwt>
<totfact> 0.22677207E+03</totfact>
</mgrwt>
</event>
<event>
 4    1  0.3950955E+000  0.2203616E+03  0.7546771E-02  0.1133614E+00
         21   -1    0    0  503  502  0.00000000000E+00  0.00000000000E+00  0.65603517146E+03  0.65603517146E+03  0.00000000000E+00 0. -1.
         21   -1    0    0  501  503 -0.00000000000E+00 -0.00000000000E+00 -0.29216811958E+03  0.29216811958E+03  0.00000000000E+00 0. -1.
          6    1    1    2  501    0 -0.13539165042E+03  0.17301466114E+02 -0.22773398267E+03  0.31689431455E+03  0.17300000000E+03 0. -1.
         -6    1    1    2    0  502  0.13539165042E+03 -0.17301466114E+02  0.59160103454E+03  0.63130897649E+03  0.17300000000E+03 0. -1.
<mgrwt>
<rscale>  2 0.22036161E+03</rscale>
<asrwt>0</asrwt>
<pdfrwt beam="1">  1       21 0.10092849E+00 0.22036161E+03</pdfrwt>
<pdfrwt beam="2">  1       21 0.44948942E-01 0.22036161E+03</pdfrwt>
<totfact> 0.37310200E+03</totfact>
</mgrwt>
</event>
<event>
 4    1  0.3950955E+000  0.1766302E+03  0.7546771E-02  0.1171105E+00
         21   -1    0    0  503  502  0.00000000000E+00  0.00000000000E+00  0.17780791449E+03  0.17780791449E+03  0.00000000000E+00 0. -1.
         21   -1    0    0  501  503 -0.00000000000E+00 -0.00000000000E+00 -0.22311052256E+03  0.22311052256E+03  0.00000000000E+00 0. -1.
          6    1    1    2  501    0  0.13477587002E+02 -0.32978265766E+02 -0.11529139036E+03  0.21092727670E+03  0.17300000000E+03 0. -1.
         -6    1    1    2    0  502 -0.13477587002E+02  0.32978265766E+02  0.69988782297E+02  0.18999116035E+03  0.17300000000E+03 0. -1.
<mgrwt>
<rscale>  2 0.17663015E+03</rscale>
<asrwt>0</asrwt>
<pdfrwt beam="1">  1       21 0.27355064E-01 0.17663015E+03</pdfrwt>
<pdfrwt beam="2">  1       21 0.34324695E-01 0.17663015E+03</pdfrwt>
<totfact> 0.10486211E+05</totfact>
</mgrwt>
</event>
<event>
 4    1  0.3950955E+000  0.1794580E+03  0.7546771E-02  0.1168329E+00
         21   -1    0    0  501  502  0.00000000000E+00  0.00000000000E+00  0.17503930467E+03  0.17503930467E+03  0.00000000000E+00 0. -1.
         21   -1    0    0  502  503 -0.00000000000E+00 -0.00000000000E+00 -0.23196910485E+03  0.23196910485E+03  0.00000000000E+00 0. -1.
          6    1    1    2  501    0  0.47673148043E+02  0.18581355295E+01  0.64088449254E+02  0.19055841897E+03  0.17300000000E+03 0. -1.
         -6    1    1    2    0  503 -0.47673148043E+02 -0.18581355295E+01 -0.12101824944E+03  0.21644999055E+03  0.17300000000E+03 0. -1.
<mgrwt>
<rscale>  2 0.17945802E+03</rscale>
<asrwt>0</asrwt>
<pdfrwt beam="1">  1       21 0.26929124E-01 0.17945802E+03</pdfrwt>
<pdfrwt beam="2">  1       21 0.35687554E-01 0.17945802E+03</pdfrwt>
<totfact> 0.99943243E+04</totfact>
</mgrwt>
</event>
<event>
 4    1  0.3950955E+000  0.1790609E+03  0.7546771E-02  0.1168715E+00
         21   -1    0    0  501  502  0.00000000000E+00  0.00000000000E+00  0.15050133610E+03  0.15050133610E+03  0.00000000000E+00 0.  1.
         21   -1    0    0  502  503 -0.00000000000E+00 -0.00000000000E+00 -0.52716666362E+03  0.52716666362E+03  0.00000000000E+00 0.  1.
          6    1    1    2  501    0  0.45724549887E+02  0.65617605498E+01  0.73223811273E+02  0.19345417468E+03  0.17300000000E+03 0.  1.
         -6    1    1    2    0  503 -0.45724549887E+02 -0.65617605498E+01 -0.44988913878E+03  0.48421382504E+03  0.17300000000E+03 0.  1.
<mgrwt>
<rscale>  2 0.17906086E+03</rscale>
<asrwt>0</asrwt>
<pdfrwt beam="1">  1       21 0.23154051E-01 0.17906086E+03</pdfrwt>
<pdfrwt beam="2">  1       21 0.81102565E-01 0.17906086E+03</pdfrwt>
<totfact> 0.23555209E+04</totfact>
</mgrwt>
</event>
<event>
 4    1  0.3950955E+000  0.1806008E+03  0.7546771E-02  0.1167223E+00
         21   -1    0    0  501  502  0.00000000000E+00  0.00000000000E+00  0.61501123248E+03  0.61501123248E+03  0.00000000000E+00 0. -1.
         21   -1    0    0  502  503 -0.00000000000E+00 -0.00000000000E+00 -0.78800209291E+02  0.78800209291E+02  0.00000000000E+00 0. -1.
          6    1    1    2  501    0  0.71723474377E+01 -0.51344050568E+02  0.46647323451E+03  0.50021388686E+03  0.17300000000E+03 0. -1.
         -6    1    1    2    0  503 -0.71723474377E+01  0.51344050568E+02  0.69737788680E+02  0.19359755491E+03  0.17300000000E+03 0. -1.
<mgrwt>
<rscale>  2 0.18060081E+03</rscale>
<asrwt>0</asrwt>
<pdfrwt beam="1">  1       21 0.94617110E-01 0.18060081E+03</pdfrwt>
<pdfrwt beam="2">  1       21 0.12123110E-01 0.18060081E+03</pdfrwt>
<totfact> 0.54197891E+04</totfact>
</mgrwt>
</event>
<event>
 4    1  0.3950955E+000  0.2687943E+03  0.7546771E-02  0.1101972E+00
         21   -1    0    0  501  502  0.00000000000E+00  0.00000000000E+00  0.78607431387E+02  0.78607431387E+02  0.00000000000E+00 0. -1.
         21   -1    0    0  502  503 -0.00000000000E+00 -0.00000000000E+00 -0.93575267603E+03  0.93575267603E+03  0.00000000000E+00 0.  1.
          6    1    1    2  501    0 -0.33320096969E+02 -0.20300529490E+03 -0.49617215519E+03  0.56430238898E+03  0.17300000000E+03 0. -1.
         -6    1    1    2    0  503  0.33320096969E+02  0.20300529490E+03 -0.36097308946E+03  0.45005771845E+03  0.17300000000E+03 0.  1.
<mgrwt>
<rscale>  2 0.26879431E+03</rscale>
<asrwt>0</asrwt>
<pdfrwt beam="1">  1       21 0.12093452E-01 0.26879431E+03</pdfrwt>
<pdfrwt beam="2">  1       21 0.14396194E+00 0.26879431E+03</pdfrwt>
<totfact> 0.18417734E+04</totfact>
</mgrwt>
</event>
<event>
 4    1  0.3950955E+000  0.1908200E+03  0.7546771E-02  0.1157724E+00
         21   -1    0    0  503  502  0.00000000000E+00  0.00000000000E+00  0.10333601288E+03  0.10333601288E+03  0.00000000000E+00 0. -1.
         21   -1    0    0  501  503 -0.00000000000E+00 -0.00000000000E+00 -0.37159222950E+03  0.37159222950E+03  0.00000000000E+00 0. -1.
          6    1    1    2  501    0 -0.37659653334E+02  0.71168906408E+02 -0.80115681379E+02  0.20695599806E+03  0.17300000000E+03 0. -1.
         -6    1    1    2    0  502  0.37659653334E+02 -0.71168906408E+02 -0.18814053524E+03  0.26797224433E+03  0.17300000000E+03 0. -1.
<mgrwt>
<rscale>  2 0.19081997E+03</rscale>
<asrwt>0</asrwt>
<pdfrwt beam="1">  1       21 0.15897848E-01 0.19081997E+03</pdfrwt>
<pdfrwt beam="2">  1       21 0.57168035E-01 0.19081997E+03</pdfrwt>
<totfact> 0.10144855E+05</totfact>
</mgrwt>
</event>
<event>
 4    1  0.3950955E+000  0.1834252E+03  0.7546771E-02  0.1164529E+00
         21   -1    0    0  501  502  0.00000000000E+00  0.00000000000E+00  0.15970725906E+03  0.15970725906E+03  0.00000000000E+00 0. -1.
         21   -1    0    0  502  503 -0.00000000000E+00 -0.00000000000E+00 -0.94579245613E+03  0.94579245613E+03  0.00000000000E+00 0. -1.
          6    1    1    2  501    0  0.39754162082E+02  0.46210344138E+02  0.94274812260E+02  0.20623416190E+03  0.17300000000E+03 0. -1.
         -6    1    1    2    0  503 -0.39754162082E+02 -0.46210344138E+02 -0.88036000933E+03  0.89926555329E+03  0.17300000000E+03 0. -1.
<mgrwt>
<rscale>  2 0.18342516E+03</rscale>
<asrwt>0</asrwt>
<pdfrwt beam="1">  1       21 0.24570347E-01 0.18342516E+03</pdfrwt>
<pdfrwt beam="2">  1       21 0.14550653E+00 0.18342516E+03</pdfrwt>
<totfact> 0.51076257E+03</totfact>
</mgrwt>
</event>
<event>
 4    1  0.3950955E+000  0.2223256E+03  0.7546771E-02  0.1132161E+00
         21   -1    0    0  501  502  0.00000000000E+00  0.00000000000E+00  0.63186858370E+03  0.63186858370E+03  0.00000000000E+00 0. -1.
         21   -1    0    0  502  503 -0.00000000000E+00 -0.00000000000E+00 -0.35071414894E+03  0.35071414894E+03  0.00000000000E+00 0. -1.
          6    1    1    2  501    0 -0.13105607695E+03 -0.48207712765E+02  0.57362531763E+03  0.61520296155E+03  0.17300000000E+03 0. -1.
         -6    1    1    2    0  503  0.13105607695E+03  0.48207712765E+02 -0.29247088287E+03  0.36737977108E+03  0.17300000000E+03 0. -1.
<mgrwt>
<rscale>  2 0.22232561E+03</rscale>
<asrwt>0</asrwt>
<pdfrwt beam="1">  1       21 0.97210551E-01 0.22232561E+03</pdfrwt>
<pdfrwt beam="2">  1       21 0.53956023E-01 0.22232561E+03</pdfrwt>
<totfact> 0.27814374E+03</totfact>
</mgrwt>
</event>
<event>
 4    1  0.3950955E+000  0.1759503E+03  0.7546771E-02  0.1171781E+00
         21   -1    0    0  501  502  0.00000000000E+00  0.00000000000E+00  0.14324943238E+04  0.14324943238E+04  0.00000000000E+00 0. -1.
         21   -1    0    0  502  503 -0.00000000000E+00 -0.00000000000E+00 -0.26264465510E+02  0.26264465510E+02  0.00000000000E+00 0. -1.
          6    1    1    2  501    0 -0.32029592322E+02  0.19034918727E+01  0.10101080776E+04  0.10253179246E+04  0.17300000000E+03 0. -1.
         -6    1    1    2    0  503  0.32029592322E+02 -0.19034918727E+01  0.39612178067E+03  0.43344086470E+03  0.17300000000E+03 0. -1.
<mgrwt>
<rscale>  2 0.17595033E+03</rscale>
<asrwt>0</asrwt>
<pdfrwt beam="1">  1       21 0.22038368E+00 0.17595033E+03</pdfrwt>
<pdfrwt beam="2">  1       21 0.40406881E-02 0.17595033E+03</pdfrwt>
<totfact> 0.39028538E+04</totfact>
</mgrwt>
</event>
<event>
 4    1  0.3950955E+000  0.2288627E+03  0.7546771E-02  0.1127443E+00
         21   -1    0    0  503  502  0.00000000000E+00  0.00000000000E+00  0.57497088862E+02  0.57497088862E+02  0.00000000000E+00 0. -1.
         21   -1    0    0  501  503 -0.00000000000E+00 -0.00000000000E+00 -0.20265633287E+04  0.20265633287E+04  0.00000000000E+00 0.  1.
          6    1    1    2  501    0  0.33953232501E+02  0.14593252305E+03 -0.17576642724E+04  0.17725015706E+04  0.17300000000E+03 0.  1.
         -6    1    1    2    0  502 -0.33953232501E+02 -0.14593252305E+03 -0.21140196741E+03  0.31155884694E+03  0.17300000000E+03 0. -1.
<mgrwt>
<rscale>  2 0.22886267E+03</rscale>
<asrwt>0</asrwt>
<pdfrwt beam="1">  1       21 0.88457067E-02 0.22886267E+03</pdfrwt>
<pdfrwt beam="2">  1       21 0.31177895E+00 0.22886267E+03</pdfrwt>
<totfact> 0.28184133E+03</totfact>
</mgrwt>
</event>
<event>
 4    1  0.3950955E+000  0.1835782E+03  0.7546771E-02  0.1164384E+00
         21   -1    0    0  501  502  0.00000000000E+00  0.00000000000E+00  0.17158305261E+03  0.17158305261E+03  0.00000000000E+00 0.  1.
         21   -1    0    0  502  503 -0.00000000000E+00 -0.00000000000E+00 -0.28117143404E+03  0.28117143404E+03  0.00000000000E+00 0. -1.
          6    1    1    2  501    0  0.31854199208E+02 -0.52509599211E+02  0.69497337919E+02  0.19629270999E+03  0.17300000000E+03 0.  1.
         -6    1    1    2    0  503 -0.31854199208E+02  0.52509599211E+02 -0.17908571935E+03  0.25646177667E+03  0.17300000000E+03 0. -1.
<mgrwt>
<rscale>  2 0.18357818E+03</rscale>
<asrwt>0</asrwt>
<pdfrwt beam="1">  1       21 0.26397393E-01 0.18357818E+03</pdfrwt>
<pdfrwt beam="2">  1       21 0.43257144E-01 0.18357818E+03</pdfrwt>
<totfact> 0.70395493E+04</totfact>
</mgrwt>
</event>
<event>
 4    1  0.3950955E+000  0.1985581E+03  0.7546771E-02  0.1150961E+00
         21   -1    0    0  501  502  0.00000000000E+00  0.00000000000E+00  0.10071509213E+03  0.10071509213E+03  0.00000000000E+00 0. -1.
         21   -1    0    0  502  503 -0.00000000000E+00 -0.00000000000E+00 -0.39526923676E+03  0.39526923676E+03  0.00000000000E+00 0. -1.
          6    1    1    2  501    0 -0.42115087033E+02  0.87878495877E+02 -0.17164175279E+03  0.26246181036E+03  0.17300000000E+03 0. -1.
         -6    1    1    2    0  503  0.42115087033E+02 -0.87878495877E+02 -0.12291239184E+03  0.23352251853E+03  0.17300000000E+03 0. -1.
<mgrwt>
<rscale>  2 0.19855808E+03</rscale>
<asrwt>0</asrwt>
<pdfrwt beam="1">  1       21 0.15494630E-01 0.19855808E+03</pdfrwt>
<pdfrwt beam="2">  1       21 0.60810651E-01 0.19855808E+03</pdfrwt>
<totfact> 0.92856964E+04</totfact>
</mgrwt>
</event>
<event>
 4    1  0.3950955E+000  0.1782866E+03  0.7546771E-02  0.1169472E+00
         21   -1    0    0  501  502  0.00000000000E+00  0.00000000000E+00  0.15034513622E+03  0.15034513622E+03  0.00000000000E+00 0.  1.
         21   -1    0    0  502  503 -0.00000000000E+00 -0.00000000000E+00 -0.99746559458E+03  0.99746559458E+03  0.00000000000E+00 0.  1.
          6    1    1    2  501    0  0.32636498477E+02  0.28142149455E+02  0.85905424437E+02  0.19790367242E+03  0.17300000000E+03 0.  1.
         -6    1    1    2    0  503 -0.32636498477E+02 -0.28142149455E+02 -0.93302588279E+03  0.94990705838E+03  0.17300000000E+03 0.  1.
<mgrwt>
<rscale>  2 0.17828663E+03</rscale>
<asrwt>0</asrwt>
<pdfrwt beam="1">  1       21 0.23130022E-01 0.17828663E+03</pdfrwt>
<pdfrwt beam="2">  1       21 0.15345624E+00 0.17828663E+03</pdfrwt>
<totfact> 0.50043422E+03</totfact>
</mgrwt>
</event>
<event>
 4    1  0.3950955E+000  0.5098401E+03  0.7546771E-02  0.1011242E+00
         21   -1    0    0  503  502  0.00000000000E+00  0.00000000000E+00  0.22117053839E+04  0.22117053839E+04  0.00000000000E+00 0. -1.
         21   -1    0    0  501  503 -0.00000000000E+00 -0.00000000000E+00 -0.13776809670E+03  0.13776809670E+03  0.00000000000E+00 0.  1.
          6    1    1    2  501    0  0.26514094314E+03 -0.39963510773E+03  0.58669729294E+03  0.77727128636E+03  0.17300000000E+03 0.  1.
         -6    1    1    2    0  502 -0.26514094314E+03  0.39963510773E+03  0.14872399943E+04  0.15722021942E+04  0.17300000000E+03 0. -1.
<mgrwt>
<rscale>  2 0.50984011E+03</rscale>
<asrwt>0</asrwt>
<pdfrwt beam="1">  1       21 0.34026234E+00 0.50984011E+03</pdfrwt>
<pdfrwt beam="2">  1       21 0.21195093E-01 0.50984011E+03</pdfrwt>
<totfact> 0.31149767E+02</totfact>
</mgrwt>
</event>
<event>
 4    1  0.3950955E+000  0.1802705E+03  0.7546771E-02  0.1167542E+00
         21   -1    0    0  501  502  0.00000000000E+00  0.00000000000E+00  0.30480342114E+03  0.30480342114E+03  0.00000000000E+00 0. -1.
         21   -1    0    0  502  503 -0.00000000000E+00 -0.00000000000E+00 -0.16502225383E+03  0.16502225383E+03  0.00000000000E+00 0. -1.
          6    1    1    2  501    0 -0.12154276848E+02 -0.49200727957E+02  0.20964285298E+03  0.27649152588E+03  0.17300000000E+03 0.  1.
         -6    1    1    2    0  503  0.12154276848E+02  0.49200727957E+02 -0.69861685672E+02  0.19333414908E+03  0.17300000000E+03 0.  1.
<mgrwt>
<rscale>  2 0.18027046E+03</rscale>
<asrwt>0</asrwt>
<pdfrwt beam="1">  1       21 0.46892834E-01 0.18027046E+03</pdfrwt>
<pdfrwt beam="2">  1       21 0.25388039E-01 0.18027046E+03</pdfrwt>
<totfact> 0.64370343E+04</totfact>
</mgrwt>
</event>
<event>
 4    1  0.3950955E+000  0.2978168E+03  0.7546771E-02  0.1086337E+00
         21   -1    0    0  503  502  0.00000000000E+00  0.00000000000E+00  0.67462958278E+03  0.67462958278E+03  0.00000000000E+00 0.  1.
         21   -1    0    0  501  503 -0.00000000000E+00 -0.00000000000E+00 -0.14215502197E+03  0.14215502197E+03  0.00000000000E+00 0.  1.
          6    1    1    2  501    0 -0.63322301913E+02  0.23400027194E+03  0.37819274391E+03  0.48137780665E+03  0.17300000000E+03 0.  1.
         -6    1    1    2    0  502  0.63322301913E+02 -0.23400027194E+03  0.15428181690E+03  0.33540679810E+03  0.17300000000E+03 0.  1.
<mgrwt>
<rscale>  2 0.29781679E+03</rscale>
<asrwt>0</asrwt>
<pdfrwt beam="1">  1       21 0.10378916E+00 0.29781679E+03</pdfrwt>
<pdfrwt beam="2">  1       21 0.21870004E-01 0.29781679E+03</pdfrwt>
<totfact> 0.13840285E+04</totfact>
</mgrwt>
</event>
<event>
 4    1  0.3950955E+000  0.2234107E+03  0.7546771E-02  0.1131365E+00
         21   -1    0    0  503  502  0.00000000000E+00  0.00000000000E+00  0.12315195832E+04  0.12315195832E+04  0.00000000000E+00 0.  1.
         21   -1    0    0  501  503 -0.00000000000E+00 -0.00000000000E+00 -0.13815173761E+03  0.13815173761E+03  0.00000000000E+00 0.  1.
          6    1    1    2  501    0  0.13743532432E+03 -0.33088937567E+02 -0.28999231464E+02  0.22528493422E+03  0.17300000000E+03 0.  1.
         -6    1    1    2    0  502 -0.13743532432E+03  0.33088937567E+02  0.11223670771E+04  0.11443863866E+04  0.17300000000E+03 0.  1.
<mgrwt>
<rscale>  2 0.22341071E+03</rscale>
<asrwt>0</asrwt>
<pdfrwt beam="1">  1       21 0.18946454E+00 0.22341071E+03</pdfrwt>
<pdfrwt beam="2">  1       21 0.21254114E-01 0.22341071E+03</pdfrwt>
<totfact> 0.31488828E+03</totfact>
</mgrwt>
</event>
<event>
 4    1  0.3950955E+000  0.2060530E+03  0.7546771E-02  0.1144730E+00
         21   -1    0    0  503  502  0.00000000000E+00  0.00000000000E+00  0.16507267758E+03  0.16507267758E+03  0.00000000000E+00 0. -1.
         21   -1    0    0  501  503 -0.00000000000E+00 -0.00000000000E+00 -0.26746071902E+03  0.26746071902E+03  0.00000000000E+00 0. -1.
          6    1    1    2  501    0  0.47292532111E+02 -0.10145072992E+03 -0.88490198099E+01  0.20624291345E+03  0.17300000000E+03 0. -1.
         -6    1    1    2    0  502 -0.47292532111E+02  0.10145072992E+03 -0.93539021627E+02  0.22629048315E+03  0.17300000000E+03 0. -1.
<mgrwt>
<rscale>  2 0.20605299E+03</rscale>
<asrwt>0</asrwt>
<pdfrwt beam="1">  1       21 0.25395797E-01 0.20605299E+03</pdfrwt>
<pdfrwt beam="2">  1       21 0.41147803E-01 0.20605299E+03</pdfrwt>
<totfact> 0.83136424E+04</totfact>
</mgrwt>
</event>
<event>
 4    1  0.3950955E+000  0.2262257E+03  0.7546771E-02  0.1129325E+00
         21   -1    0    0  501  502  0.00000000000E+00  0.00000000000E+00  0.73814234039E+03  0.73814234039E+03  0.00000000000E+00 0. -1.
         21   -1    0    0  502  503 -0.00000000000E+00 -0.00000000000E+00 -0.73728553872E+02  0.73728553872E+02  0.00000000000E+00 0. -1.
          6    1    1    2  501    0 -0.13906375911E+03  0.43707459282E+02  0.23309724769E+03  0.32482671992E+03  0.17300000000E+03 0. -1.
         -6    1    1    2    0  503  0.13906375911E+03 -0.43707459282E+02  0.43131653883E+03  0.48704417434E+03  0.17300000000E+03 0. -1.
<mgrwt>
<rscale>  2 0.22622571E+03</rscale>
<asrwt>0</asrwt>
<pdfrwt beam="1">  1       21 0.11356036E+00 0.22622571E+03</pdfrwt>
<pdfrwt beam="2">  1       21 0.11342855E-01 0.22622571E+03</pdfrwt>
<totfact> 0.38532395E+04</totfact>
</mgrwt>
</event>
<event>
 4    1  0.3950955E+000  0.1911395E+03  0.7546771E-02  0.1157438E+00
         21   -1    0    0  503  502  0.00000000000E+00  0.00000000000E+00  0.11974621819E+03  0.11974621819E+03  0.00000000000E+00 0.  1.
         21   -1    0    0  501  503 -0.00000000000E+00 -0.00000000000E+00 -0.34662523276E+03  0.34662523276E+03  0.00000000000E+00 0.  1.
          6    1    1    2  501    0  0.21737152652E+02 -0.78312212482E+02 -0.19415176076E+03  0.27245038564E+03  0.17300000000E+03 0.  1.
         -6    1    1    2    0  502 -0.21737152652E+02  0.78312212482E+02 -0.32727253802E+02  0.19392106531E+03  0.17300000000E+03 0.  1.
<mgrwt>
<rscale>  2 0.19113949E+03</rscale>
<asrwt>0</asrwt>
<pdfrwt beam="1">  1       21 0.18422496E-01 0.19113949E+03</pdfrwt>
<pdfrwt beam="2">  1       21 0.53326957E-01 0.19113949E+03</pdfrwt>
<totfact> 0.89601097E+04</totfact>
</mgrwt>
</event>
<event>
 4    1  0.3950955E+000  0.2198128E+03  0.7546771E-02  0.1134023E+00
         21   -1    0    0  501  502  0.00000000000E+00  0.00000000000E+00  0.48179095569E+02  0.48179095569E+02  0.00000000000E+00 0. -1.
         21   -1    0    0  502  503 -0.00000000000E+00 -0.00000000000E+00 -0.16169487589E+04  0.16169487589E+04  0.00000000000E+00 0.  1.
          6    1    1    2  501    0  0.36431405726E+02  0.13061928595E+03 -0.27131145912E+03  0.34918126101E+03  0.17300000000E+03 0. -1.
         -6    1    1    2    0  503 -0.36431405726E+02 -0.13061928595E+03 -0.12974582042E+04  0.13159465935E+04  0.17300000000E+03 0.  1.
<mgrwt>
<rscale>  2 0.21981275E+03</rscale>
<asrwt>0</asrwt>
<pdfrwt beam="1">  1       21 0.74121688E-02 0.21981275E+03</pdfrwt>
<pdfrwt beam="2">  1       21 0.24876134E+00 0.21981275E+03</pdfrwt>
<totfact> 0.90360194E+03</totfact>
</mgrwt>
</event>
<event>
 4    1  0.3950955E+000  0.1800530E+03  0.7546771E-02  0.1167752E+00
         21   -1    0    0  503  502  0.00000000000E+00  0.00000000000E+00  0.78803754759E+02  0.78803754759E+02  0.00000000000E+00 0.  1.
         21   -1    0    0  501  503 -0.00000000000E+00 -0.00000000000E+00 -0.49795746091E+03  0.49795746091E+03  0.00000000000E+00 0.  1.
          6    1    1    2  501    0 -0.45362956593E+02  0.20791854377E+02 -0.89337520003E+02  0.20099823760E+03  0.17300000000E+03 0.  1.
         -6    1    1    2    0  502  0.45362956593E+02 -0.20791854377E+02 -0.32981618615E+03  0.37576297807E+03  0.17300000000E+03 0.  1.
<mgrwt>
<rscale>  2 0.18005305E+03</rscale>
<asrwt>0</asrwt>
<pdfrwt beam="1">  1       21 0.12123655E-01 0.18005305E+03</pdfrwt>
<pdfrwt beam="2">  1       21 0.76608840E-01 0.18005305E+03</pdfrwt>
<totfact> 0.87806704E+04</totfact>
</mgrwt>
</event>
<event>
 4    1  0.3950955E+000  0.1784892E+03  0.7546771E-02  0.1169273E+00
         21   -1    0    0  503  502  0.00000000000E+00  0.00000000000E+00  0.42002512416E+03  0.42002512416E+03  0.00000000000E+00 0. -1.
         21   -1    0    0  501  503 -0.00000000000E+00 -0.00000000000E+00 -0.86448233733E+02  0.86448233733E+02  0.00000000000E+00 0. -1.
          6    1    1    2  501    0 -0.69292660038E+01 -0.43374672846E+02  0.78115510472E+02  0.19483431409E+03  0.17300000000E+03 0. -1.
         -6    1    1    2    0  502  0.69292660038E+01  0.43374672846E+02  0.25546137995E+03  0.31163904380E+03  0.17300000000E+03 0. -1.
<mgrwt>
<rscale>  2 0.17848915E+03</rscale>
<asrwt>0</asrwt>
<pdfrwt beam="1">  1       21 0.64619249E-01 0.17848915E+03</pdfrwt>
<pdfrwt beam="2">  1       21 0.13299728E-01 0.17848915E+03</pdfrwt>
<totfact> 0.10826897E+05</totfact>
</mgrwt>
</event>
<event>
 4    1  0.3950955E+000  0.2230606E+03  0.7546771E-02  0.1131622E+00
         21   -1    0    0  503  502  0.00000000000E+00  0.00000000000E+00  0.18107551011E+03  0.18107551011E+03  0.00000000000E+00 0. -1.
         21   -1    0    0  501  503 -0.00000000000E+00 -0.00000000000E+00 -0.12612635438E+04  0.12612635438E+04  0.00000000000E+00 0. -1.
          6    1    1    2  501    0 -0.93797901682E+02  0.10501891781E+03 -0.11778862966E+04  0.11988211489E+04  0.17300000000E+03 0. -1.
         -6    1    1    2    0  502  0.93797901682E+02 -0.10501891781E+03  0.97698262911E+02  0.24351790496E+03  0.17300000000E+03 0. -1.
<mgrwt>
<rscale>  2 0.22306057E+03</rscale>
<asrwt>0</asrwt>
<pdfrwt beam="1">  1       21 0.27857770E-01 0.22306057E+03</pdfrwt>
<pdfrwt beam="2">  1       21 0.19404055E+00 0.22306057E+03</pdfrwt>
<totfact> 0.17518830E+03</totfact>
</mgrwt>
</event>
<event>
 4    1  0.3950955E+000  0.1858523E+03  0.7546771E-02  0.1162256E+00
         21   -1    0    0  503  502  0.00000000000E+00  0.00000000000E+00  0.65650034898E+03  0.65650034898E+03  0.00000000000E+00 0.  1.
         21   -1    0    0  501  503 -0.00000000000E+00 -0.00000000000E+00 -0.15340661651E+03  0.15340661651E+03  0.00000000000E+00 0.  1.
          6    1    1    2  501    0 -0.67834598557E+02 -0.32478365901E+01 -0.76697699464E+02  0.20105625657E+03  0.17300000000E+03 0.  1.
         -6    1    1    2    0  502  0.67834598557E+02  0.32478365901E+01  0.57979143193E+03  0.60885070891E+03  0.17300000000E+03 0.  1.
<mgrwt>
<rscale>  2 0.18585231E+03</rscale>
<asrwt>0</asrwt>
<pdfrwt beam="1">  1       21 0.10100005E+00 0.18585231E+03</pdfrwt>
<pdfrwt beam="2">  1       21 0.23601018E-01 0.18585231E+03</pdfrwt>
<totfact> 0.13612254E+04</totfact>
</mgrwt>
</event>
<event>
 4    1  0.3950955E+000  0.3774611E+03  0.7546771E-02  0.1051876E+00
         21   -1    0    0  503  502  0.00000000000E+00  0.00000000000E+00  0.60747218702E+03  0.60747218702E+03  0.00000000000E+00 0. -1.
         21   -1    0    0  501  503 -0.00000000000E+00 -0.00000000000E+00 -0.45021187358E+03  0.45021187358E+03  0.00000000000E+00 0.  1.
          6    1    1    2  501    0 -0.30859002408E+03 -0.13160576807E+03 -0.28739729622E+03  0.47441973718E+03  0.17300000000E+03 0.  1.
         -6    1    1    2    0  502  0.30859002408E+03  0.13160576807E+03  0.44465760966E+03  0.58326432342E+03  0.17300000000E+03 0. -1.
<mgrwt>
<rscale>  2 0.37746110E+03</rscale>
<asrwt>0</asrwt>
<pdfrwt beam="1">  1       21 0.93457260E-01 0.37746110E+03</pdfrwt>
<pdfrwt beam="2">  1       21 0.69263365E-01 0.37746110E+03</pdfrwt>
<totfact> 0.16165633E+03</totfact>
</mgrwt>
</event>
<event>
 4    1  0.3950955E+000  0.2500417E+03  0.7546771E-02  0.1113278E+00
         21   -1    0    0  503  502  0.00000000000E+00  0.00000000000E+00  0.38714277451E+03  0.38714277451E+03  0.00000000000E+00 0.  1.
         21   -1    0    0  501  503 -0.00000000000E+00 -0.00000000000E+00 -0.38170756804E+03  0.38170756804E+03  0.00000000000E+00 0.  1.
          6    1    1    2  501    0  0.16839329574E+03 -0.65081128022E+02 -0.28927337681E+03  0.38236100979E+03  0.17300000000E+03 0.  1.
         -6    1    1    2    0  502 -0.16839329574E+03  0.65081128022E+02  0.29470858329E+03  0.38648933276E+03  0.17300000000E+03 0.  1.
<mgrwt>
<rscale>  2 0.25004171E+03</rscale>
<asrwt>0</asrwt>
<pdfrwt beam="1">  1       21 0.59560427E-01 0.25004171E+03</pdfrwt>
<pdfrwt beam="2">  1       21 0.58724241E-01 0.25004171E+03</pdfrwt>
<totfact> 0.68752252E+03</totfact>
</mgrwt>
</event>
<event>
 4    1  0.3950955E+000  0.1992521E+03  0.7546771E-02  0.1150372E+00
         21   -1    0    0  501  502  0.00000000000E+00  0.00000000000E+00  0.37016050530E+03  0.37016050530E+03  0.00000000000E+00 0. -1.
         21   -1    0    0  502  503 -0.00000000000E+00 -0.00000000000E+00 -0.10748901182E+03  0.10748901182E+03  0.00000000000E+00 0. -1.
          6    1    1    2  501    0  0.97266655506E+02  0.17651724224E+02  0.14249063833E+03  0.24495911425E+03  0.17300000000E+03 0. -1.
         -6    1    1    2    0  503 -0.97266655506E+02 -0.17651724224E+02  0.12018085515E+03  0.23269040287E+03  0.17300000000E+03 0. -1.
<mgrwt>
<rscale>  2 0.19925207E+03</rscale>
<asrwt>0</asrwt>
<pdfrwt beam="1">  1       21 0.56947769E-01 0.19925207E+03</pdfrwt>
<pdfrwt beam="2">  1       21 0.16536771E-01 0.19925207E+03</pdfrwt>
<totfact> 0.94831924E+04</totfact>
</mgrwt>
</event>
<event>
 4    1  0.3950955E+000  0.2050979E+03  0.7546771E-02  0.1145508E+00
         21   -1    0    0  501  502  0.00000000000E+00  0.00000000000E+00  0.18891647716E+04  0.18891647716E+04  0.00000000000E+00 0. -1.
         21   -1    0    0  502  503 -0.00000000000E+00 -0.00000000000E+00 -0.22656619965E+02  0.22656619965E+02  0.00000000000E+00 0.  1.
          6    1    1    2  501    0  0.10846183588E+03  0.19292216224E+02  0.80782517508E+03  0.83345466160E+03  0.17300000000E+03 0. -1.
         -6    1    1    2    0  503 -0.10846183588E+03 -0.19292216224E+02  0.10586829766E+04  0.10783667300E+04  0.17300000000E+03 0.  1.
<mgrwt>
<rscale>  2 0.20509793E+03</rscale>
<asrwt>0</asrwt>
<pdfrwt beam="1">  1       21 0.29064061E+00 0.20509793E+03</pdfrwt>
<pdfrwt beam="2">  1       21 0.34856353E-02 0.20509793E+03</pdfrwt>
<totfact> 0.18832501E+04</totfact>
</mgrwt>
</event>
<event>
 4    1  0.3950955E+000  0.2128350E+03  0.7546771E-02  0.1139340E+00
         21   -1    0    0  501  502  0.00000000000E+00  0.00000000000E+00  0.21526750764E+04  0.21526750764E+04  0.00000000000E+00 0. -1.
         21   -1    0    0  502  503 -0.00000000000E+00 -0.00000000000E+00 -0.48990011068E+02  0.48990011068E+02  0.00000000000E+00 0. -1.
          6    1    1    2  501    0 -0.11880055715E+03 -0.35442653113E+02  0.18832906035E+04  0.18952789376E+04  0.17300000000E+03 0. -1.
         -6    1    1    2    0  503  0.11880055715E+03  0.35442653113E+02  0.22039446188E+03  0.30638614992E+03  0.17300000000E+03 0. -1.
<mgrwt>
<rscale>  2 0.21283504E+03</rscale>
<asrwt>0</asrwt>
<pdfrwt beam="1">  1       21 0.33118071E+00 0.21283504E+03</pdfrwt>
<pdfrwt beam="2">  1       21 0.75369264E-02 0.21283504E+03</pdfrwt>
<totfact> 0.29263372E+03</totfact>
</mgrwt>
</event>
<event>
 4    1  0.3950955E+000  0.4466133E+03  0.7546771E-02  0.1028737E+00
         21   -1    0    0  503  502  0.00000000000E+00  0.00000000000E+00  0.48340579659E+03  0.48340579659E+03  0.00000000000E+00 0.  1.
         21   -1    0    0  501  503 -0.00000000000E+00 -0.00000000000E+00 -0.10636342341E+04  0.10636342341E+04  0.00000000000E+00 0. -1.
          6    1    1    2  501    0  0.35951253571E+03  0.20071176545E+03 -0.89527426413E+03  0.10004896222E+04  0.17300000000E+03 0. -1.
         -6    1    1    2    0  502 -0.35951253571E+03 -0.20071176545E+03  0.31504582664E+03  0.54655040847E+03  0.17300000000E+03 0.  1.
<mgrwt>
<rscale>  2 0.44661334E+03</rscale>
<asrwt>0</asrwt>
<pdfrwt beam="1">  1       21 0.74370123E-01 0.44661334E+03</pdfrwt>
<pdfrwt beam="2">  1       21 0.16363603E+00 0.44661334E+03</pdfrwt>
<totfact> 0.31626044E+02</totfact>
</mgrwt>
</event>
<event>
 4    1  0.3950955E+000  0.2582291E+03  0.7546771E-02  0.1108212E+00
         21   -1    0    0  501  502  0.00000000000E+00  0.00000000000E+00  0.16587553948E+03  0.16587553948E+03  0.00000000000E+00 0.  1.
         21   -1    0    0  502  503 -0.00000000000E+00 -0.00000000000E+00 -0.40208407326E+03  0.40208407326E+03  0.00000000000E+00 0.  1.
          6    1    1    2  501    0 -0.13483119319E+03 -0.13628580834E+03 -0.11404310114E+03  0.28229080950E+03  0.17300000000E+03 0.  1.
         -6    1    1    2    0  503  0.13483119319E+03  0.13628580834E+03 -0.12216543265E+03  0.28566880324E+03  0.17300000000E+03 0.  1.
<mgrwt>
<rscale>  2 0.25822911E+03</rscale>
<asrwt>0</asrwt>
<pdfrwt beam="1">  1       21 0.25519314E-01 0.25822911E+03</pdfrwt>
<pdfrwt beam="2">  1       21 0.61859088E-01 0.25822911E+03</pdfrwt>
<totfact> 0.34241704E+04</totfact>
</mgrwt>
</event>
<event>
 4    1  0.3950955E+000  0.1799624E+03  0.7546771E-02  0.1167839E+00
         21   -1    0    0  501  502  0.00000000000E+00  0.00000000000E+00  0.13600699837E+03  0.13600699837E+03  0.00000000000E+00 0. -1.
         21   -1    0    0  502  503 -0.00000000000E+00 -0.00000000000E+00 -0.28046860086E+03  0.28046860086E+03  0.00000000000E+00 0. -1.
          6    1    1    2  501    0 -0.34346815471E+02 -0.35746010131E+02  0.86822037337E+01  0.18017175593E+03  0.17300000000E+03 0. -1.
         -6    1    1    2    0  503  0.34346815471E+02  0.35746010131E+02 -0.15314380622E+03  0.23630384330E+03  0.17300000000E+03 0. -1.
<mgrwt>
<rscale>  2 0.17996244E+03</rscale>
<asrwt>0</asrwt>
<pdfrwt beam="1">  1       21 0.20924154E-01 0.17996244E+03</pdfrwt>
<pdfrwt beam="2">  1       21 0.43149015E-01 0.17996244E+03</pdfrwt>
<totfact> 0.11004873E+05</totfact>
</mgrwt>
</event>
<event>
 4    1  0.3950955E+000  0.2695800E+03  0.7546771E-02  0.1101520E+00
         21   -1    0    0  501  502  0.00000000000E+00  0.00000000000E+00  0.25772801144E+03  0.25772801144E+03  0.00000000000E+00 0. -1.
         21   -1    0    0  502  503 -0.00000000000E+00 -0.00000000000E+00 -0.34120370739E+03  0.34120370739E+03  0.00000000000E+00 0.  1.
          6    1    1    2  501    0 -0.17284439936E+03 -0.11344236121E+03  0.83029075485E+02  0.28207655536E+03  0.17300000000E+03 0. -1.
         -6    1    1    2    0  503  0.17284439936E+03  0.11344236121E+03 -0.16650477144E+03  0.31685516347E+03  0.17300000000E+03 0.  1.
<mgrwt>
<rscale>  2 0.26957996E+03</rscale>
<asrwt>0</asrwt>
<pdfrwt beam="1">  1       21 0.39650463E-01 0.26957996E+03</pdfrwt>
<pdfrwt beam="2">  1       21 0.52492878E-01 0.26957996E+03</pdfrwt>
<totfact> 0.20270743E+04</totfact>
</mgrwt>
</event>
<event>
 4    1  0.3950955E+000  0.2042860E+03  0.7546771E-02  0.1146172E+00
         21   -1    0    0  501  502  0.00000000000E+00  0.00000000000E+00  0.23173789282E+03  0.23173789282E+03  0.00000000000E+00 0. -1.
         21   -1    0    0  502  503 -0.00000000000E+00 -0.00000000000E+00 -0.28146705285E+03  0.28146705285E+03  0.00000000000E+00 0. -1.
          6    1    1    2  501    0 -0.70775001428E+02  0.82429836582E+02 -0.17886616422E+03  0.27152510656E+03  0.17300000000E+03 0. -1.
         -6    1    1    2    0  503  0.70775001428E+02 -0.82429836582E+02  0.12913700419E+03  0.24167983912E+03  0.17300000000E+03 0. -1.
<mgrwt>
<rscale>  2 0.20428602E+03</rscale>
<asrwt>0</asrwt>
<pdfrwt beam="1">  1       21 0.35651983E-01 0.20428602E+03</pdfrwt>
<pdfrwt beam="2">  1       21 0.43302624E-01 0.20428602E+03</pdfrwt>
<totfact> 0.38658738E+04</totfact>
</mgrwt>
</event>
<event>
 4    1  0.3950955E+000  0.1904150E+03  0.7546771E-02  0.1158088E+00
         21   -1    0    0  501  502  0.00000000000E+00  0.00000000000E+00  0.29132100105E+03  0.29132100105E+03  0.00000000000E+00 0. -1.
         21   -1    0    0  502  503 -0.00000000000E+00 -0.00000000000E+00 -0.18396276362E+03  0.18396276362E+03  0.00000000000E+00 0. -1.
          6    1    1    2  501    0  0.64710897167E+02  0.46275058859E+02  0.18883212771E+03  0.26817056837E+03  0.17300000000E+03 0. -1.
         -6    1    1    2    0  503 -0.64710897167E+02 -0.46275058859E+02 -0.81473890284E+02  0.20711319630E+03  0.17300000000E+03 0. -1.
<mgrwt>
<rscale>  2 0.19041502E+03</rscale>
<asrwt>0</asrwt>
<pdfrwt beam="1">  1       21 0.44818616E-01 0.19041502E+03</pdfrwt>
<pdfrwt beam="2">  1       21 0.28301964E-01 0.19041502E+03</pdfrwt>
<totfact> 0.57077519E+04</totfact>
</mgrwt>
</event>
<event>
 4    1  0.3950955E+000  0.1901184E+03  0.7546771E-02  0.1158355E+00
         21   -1    0    0  503  502  0.00000000000E+00  0.00000000000E+00  0.49806592361E+03  0.49806592361E+03  0.00000000000E+00 0.  1.
         21   -1    0    0  501  503 -0.00000000000E+00 -0.00000000000E+00 -0.92897377174E+02  0.92897377174E+02  0.00000000000E+00 0. -1.
          6    1    1    2  501    0 -0.55334713249E+02  0.56161293030E+02  0.64367302218E+02  0.20071913441E+03  0.17300000000E+03 0.  1.
         -6    1    1    2    0  502  0.55334713249E+02 -0.56161293030E+02  0.34080124421E+03  0.39024416637E+03  0.17300000000E+03 0.  1.
<mgrwt>
<rscale>  2 0.19011844E+03</rscale>
<asrwt>0</asrwt>
<pdfrwt beam="1">  1       21 0.76625525E-01 0.19011844E+03</pdfrwt>
<pdfrwt beam="2">  1       21 0.14291904E-01 0.19011844E+03</pdfrwt>
<totfact> 0.64984649E+04</totfact>
</mgrwt>
</event>
<event>
 4    1  0.3950955E+000  0.1782759E+03  0.7546771E-02  0.1169482E+00
         21   -1    0    0  503  502  0.00000000000E+00  0.00000000000E+00  0.17214334512E+03  0.17214334512E+03  0.00000000000E+00 0.  1.
         21   -1    0    0  501  503 -0.00000000000E+00 -0.00000000000E+00 -0.27409149232E+03  0.27409149232E+03  0.00000000000E+00 0.  1.
          6    1    1    2  501    0 -0.29546604123E+02 -0.31309497071E+02 -0.17844506800E+03  0.25223982381E+03  0.17300000000E+03 0.  1.
         -6    1    1    2    0  502  0.29546604123E+02  0.31309497071E+02  0.76496920799E+02  0.19399501363E+03  0.17300000000E+03 0.  1.
<mgrwt>
<rscale>  2 0.17827587E+03</rscale>
<asrwt>0</asrwt>
<pdfrwt beam="1">  1       21 0.26483592E-01 0.17827587E+03</pdfrwt>
<pdfrwt beam="2">  1       21 0.42167922E-01 0.17827587E+03</pdfrwt>
<totfact> 0.73851145E+04</totfact>
</mgrwt>
</event>
<event>
 4    1  0.3950955E+000  0.2210257E+03  0.7546771E-02  0.1133121E+00
         21   -1    0    0  503  502  0.00000000000E+00  0.00000000000E+00  0.31615398225E+03  0.31615398225E+03  0.00000000000E+00 0. -1.
         21   -1    0    0  501  503 -0.00000000000E+00 -0.00000000000E+00 -0.21703451777E+03  0.21703451777E+03  0.00000000000E+00 0.  1.
          6    1    1    2  501    0 -0.39228179055E+02  0.13185035556E+03 -0.93518655039E+02  0.23999605233E+03  0.17300000000E+03 0.  1.
         -6    1    1    2    0  502  0.39228179055E+02 -0.13185035556E+03  0.19263811951E+03  0.29319244769E+03  0.17300000000E+03 0. -1.
<mgrwt>
<rscale>  2 0.22102571E+03</rscale>
<asrwt>0</asrwt>
<pdfrwt beam="1">  1       21 0.48639074E-01 0.22102571E+03</pdfrwt>
<pdfrwt beam="2">  1       21 0.33389926E-01 0.22102571E+03</pdfrwt>
<totfact> 0.34352731E+04</totfact>
</mgrwt>
</event>
<event>
 4    1  0.3950955E+000  0.1915773E+03  0.7546771E-02  0.1157046E+00
         21   -1    0    0  501  502  0.00000000000E+00  0.00000000000E+00  0.14041549251E+04  0.14041549251E+04  0.00000000000E+00 0. -1.
         21   -1    0    0  502  503 -0.00000000000E+00 -0.00000000000E+00 -0.26417248224E+02  0.26417248224E+02  0.00000000000E+00 0.  1.
          6    1    1    2  501    0  0.22069193744E+02 -0.79283192375E+02  0.76240332412E+03  0.78610476562E+03  0.17300000000E+03 0. -1.
         -6    1    1    2    0  503 -0.22069193744E+02  0.79283192375E+02  0.61533435271E+03  0.64446740765E+03  0.17300000000E+03 0. -1.
<mgrwt>
<rscale>  2 0.19157733E+03</rscale>
<asrwt>0</asrwt>
<pdfrwt beam="1">  1       21 0.21602378E+00 0.19157733E+03</pdfrwt>
<pdfrwt beam="2">  1       21 0.40641931E-02 0.19157733E+03</pdfrwt>
<totfact> 0.40640024E+04</totfact>
</mgrwt>
</event>
<event>
 4    1  0.3950955E+000  0.3402412E+03  0.7546771E-02  0.1066693E+00
         21   -1    0    0  501  502  0.00000000000E+00  0.00000000000E+00  0.33642043034E+03  0.33642043034E+03  0.00000000000E+00 0. -1.
         21   -1    0    0  502  503 -0.00000000000E+00 -0.00000000000E+00 -0.15122933413E+04  0.15122933413E+04  0.00000000000E+00 0. -1.
          6    1    1    2  501    0 -0.29122769517E+03  0.31961004198E+02  0.22447871787E+03  0.40762086674E+03  0.17300000000E+03 0. -1.
         -6    1    1    2    0  503  0.29122769517E+03 -0.31961004198E+02 -0.14003516289E+04  0.14410929049E+04  0.17300000000E+03 0. -1.
<mgrwt>
<rscale>  2 0.34024120E+03</rscale>
<asrwt>0</asrwt>
<pdfrwt beam="1">  1       21 0.51756989E-01 0.34024120E+03</pdfrwt>
<pdfrwt beam="2">  1       21 0.23266052E+00 0.34024120E+03</pdfrwt>
<totfact> 0.25755610E+02</totfact>
</mgrwt>
</event>
<event>
 4    1  0.3950955E+000  0.2000782E+03  0.7546771E-02  0.1149673E+00
         21   -1    0    0  503  502  0.00000000000E+00  0.00000000000E+00  0.37169004777E+03  0.37169004777E+03  0.00000000000E+00 0. -1.
         21   -1    0    0  501  503 -0.00000000000E+00 -0.00000000000E+00 -0.10882601886E+03  0.10882601886E+03  0.00000000000E+00 0. -1.
          6    1    1    2  501    0  0.98642006098E+02  0.19288832350E+02  0.10700132076E+03  0.22689333852E+03  0.17300000000E+03 0.  1.
         -6    1    1    2    0  502 -0.98642006098E+02 -0.19288832350E+02  0.15586270815E+03  0.25362272811E+03  0.17300000000E+03 0.  1.
<mgrwt>
<rscale>  2 0.20007825E+03</rscale>
<asrwt>0</asrwt>
<pdfrwt beam="1">  1       21 0.57183084E-01 0.20007825E+03</pdfrwt>
<pdfrwt beam="2">  1       21 0.16742465E-01 0.20007825E+03</pdfrwt>
<totfact> 0.91858988E+04</totfact>
</mgrwt>
</event>
<event>
 4    1  0.3950955E+000  0.1842567E+03  0.7546771E-02  0.1163746E+00
         21   -1    0    0  503  502  0.00000000000E+00  0.00000000000E+00  0.91861084235E+02  0.91861084235E+02  0.00000000000E+00 0. -1.
         21   -1    0    0  501  503 -0.00000000000E+00 -0.00000000000E+00 -0.42235352935E+03  0.42235352935E+03  0.00000000000E+00 0. -1.
          6    1    1    2  501    0 -0.54953691458E+02  0.31648154480E+02 -0.25612495890E+03  0.31551625704E+03  0.17300000000E+03 0.  1.
         -6    1    1    2    0  502  0.54953691458E+02 -0.31648154480E+02 -0.74367486216E+02  0.19869835654E+03  0.17300000000E+03 0.  1.
<mgrwt>
<rscale>  2 0.18425665E+03</rscale>
<asrwt>0</asrwt>
<pdfrwt beam="1">  1       21 0.14132475E-01 0.18425665E+03</pdfrwt>
<pdfrwt beam="2">  1       21 0.64977465E-01 0.18425665E+03</pdfrwt>
<totfact> 0.95653756E+04</totfact>
</mgrwt>
</event>
<event>
 4    1  0.3950955E+000  0.2019053E+03  0.7546771E-02  0.1148141E+00
         21   -1    0    0  503  502  0.00000000000E+00  0.00000000000E+00  0.18564492141E+03  0.18564492141E+03  0.00000000000E+00 0.  1.
         21   -1    0    0  501  503 -0.00000000000E+00 -0.00000000000E+00 -0.27902775083E+03  0.27902775083E+03  0.00000000000E+00 0.  1.
          6    1    1    2  501    0  0.10220476816E+03 -0.19772067423E+02 -0.15392356004E+03  0.25388621786E+03  0.17300000000E+03 0.  1.
         -6    1    1    2    0  502 -0.10220476816E+03  0.19772067423E+02  0.60540730626E+02  0.21078645438E+03  0.17300000000E+03 0.  1.
<mgrwt>
<rscale>  2 0.20190530E+03</rscale>
<asrwt>0</asrwt>
<pdfrwt beam="1">  1       21 0.28560757E-01 0.20190530E+03</pdfrwt>
<pdfrwt beam="2">  1       21 0.42927346E-01 0.20190530E+03</pdfrwt>
<totfact> 0.60926711E+04</totfact>
</mgrwt>
</event>
<event>
 4    1  0.3950955E+000  0.3707089E+03  0.7546771E-02  0.1054422E+00
         21   -1    0    0  501  502  0.00000000000E+00  0.00000000000E+00  0.88191542311E+03  0.88191542311E+03  0.00000000000E+00 0.  1.
         21   -1    0    0  502  503 -0.00000000000E+00 -0.00000000000E+00 -0.17436588608E+03  0.17436588608E+03  0.00000000000E+00 0. -1.
          6    1    1    2  501    0  0.31058191346E+03  0.10504743436E+03  0.52599171291E+03  0.64350009362E+03  0.17300000000E+03 0.  1.
         -6    1    1    2    0  503 -0.31058191346E+03 -0.10504743436E+03  0.18155782411E+03  0.41278121557E+03  0.17300000000E+03 0. -1.
<mgrwt>
<rscale>  2 0.37070890E+03</rscale>
<asrwt>0</asrwt>
<pdfrwt beam="1">  1       21 0.13567929E+00 0.37070890E+03</pdfrwt>
<pdfrwt beam="2">  1       21 0.26825522E-01 0.37070890E+03</pdfrwt>
<totfact> 0.46150888E+03</totfact>
</mgrwt>
</event>
<event>
 4    1  0.3950955E+000  0.2035051E+03  0.7546771E-02  0.1146815E+00
         21   -1    0    0  501  502  0.00000000000E+00  0.00000000000E+00  0.27334602220E+03  0.27334602220E+03  0.00000000000E+00 0.  1.
         21   -1    0    0  502  503 -0.00000000000E+00 -0.00000000000E+00 -0.15707636541E+03  0.15707636541E+03  0.00000000000E+00 0.  1.
          6    1    1    2  501    0 -0.38371585107E+02  0.10006476322E+03  0.17617479791E+02  0.20426627469E+03  0.17300000000E+03 0.  1.
         -6    1    1    2    0  503  0.38371585107E+02 -0.10006476322E+03  0.98652177001E+02  0.22615611292E+03  0.17300000000E+03 0.  1.
<mgrwt>
<rscale>  2 0.20350512E+03</rscale>
<asrwt>0</asrwt>
<pdfrwt beam="1">  1       21 0.42053234E-01 0.20350512E+03</pdfrwt>
<pdfrwt beam="2">  1       21 0.24165595E-01 0.20350512E+03</pdfrwt>
<totfact> 0.87541201E+04</totfact>
</mgrwt>
</event>
<event>
 4    1  0.3950955E+000  0.2775393E+03  0.7546771E-02  0.1097041E+00
         21   -1    0    0  503  502  0.00000000000E+00  0.00000000000E+00  0.86164208242E+03  0.86164208242E+03  0.00000000000E+00 0.  1.
         21   -1    0    0  501  503 -0.00000000000E+00 -0.00000000000E+00 -0.14411069823E+03  0.14411069823E+03  0.00000000000E+00 0. -1.
          6    1    1    2  501    0 -0.19176342668E+03  0.10161606074E+03  0.48908196004E+02  0.28181562634E+03  0.17300000000E+03 0. -1.
         -6    1    1    2    0  502  0.19176342668E+03 -0.10161606074E+03  0.66862318818E+03  0.72393715431E+03  0.17300000000E+03 0.  1.
<mgrwt>
<rscale>  2 0.27753925E+03</rscale>
<asrwt>0</asrwt>
<pdfrwt beam="1">  1       21 0.13256032E+00 0.27753925E+03</pdfrwt>
<pdfrwt beam="2">  1       21 0.22170877E-01 0.27753925E+03</pdfrwt>
<totfact> 0.74024142E+03</totfact>
</mgrwt>
</event>
<event>
 4    1  0.3950955E+000  0.1829408E+03  0.7546771E-02  0.1164987E+00
         21   -1    0    0  501  502  0.00000000000E+00  0.00000000000E+00  0.21113314364E+03  0.21113314364E+03  0.00000000000E+00 0. -1.
         21   -1    0    0  502  503 -0.00000000000E+00 -0.00000000000E+00 -0.17508017652E+03  0.17508017652E+03  0.00000000000E+00 0. -1.
          6    1    1    2  501    0 -0.39230716150E+02  0.44713428126E+02 -0.41375852814E+02  0.18756145910E+03  0.17300000000E+03 0. -1.
         -6    1    1    2    0  503  0.39230716150E+02 -0.44713428126E+02  0.77428819938E+02  0.19865186106E+03  0.17300000000E+03 0. -1.
<mgrwt>
<rscale>  2 0.18294081E+03</rscale>
<asrwt>0</asrwt>
<pdfrwt beam="1">  1       21 0.32482022E-01 0.18294081E+03</pdfrwt>
<pdfrwt beam="2">  1       21 0.26935412E-01 0.18294081E+03</pdfrwt>
<totfact> 0.12015336E+05</totfact>
</mgrwt>
</event>
<event>
 4    1  0.3950955E+000  0.3410068E+03  0.7546771E-02  0.1066368E+00
         21   -1    0    0  501  502  0.00000000000E+00  0.00000000000E+00  0.65898866419E+03  0.65898866419E+03  0.00000000000E+00 0. -1.
         21   -1    0    0  502  503 -0.00000000000E+00 -0.00000000000E+00 -0.43450266554E+03  0.43450266554E+03  0.00000000000E+00 0.  1.
          6    1    1    2  501    0  0.13125631488E+03  0.26292283273E+03  0.53358451325E+03  0.63324408324E+03  0.17300000000E+03 0. -1.
         -6    1    1    2    0  503 -0.13125631488E+03 -0.26292283273E+03 -0.30909851461E+03  0.46024724649E+03  0.17300000000E+03 0.  1.
<mgrwt>
<rscale>  2 0.34100680E+03</rscale>
<asrwt>0</asrwt>
<pdfrwt beam="1">  1       21 0.10138287E+00 0.34100680E+03</pdfrwt>
<pdfrwt beam="2">  1       21 0.66846564E-01 0.34100680E+03</pdfrwt>
<totfact> 0.14657801E+03</totfact>
</mgrwt>
</event>
<event>
 4    1  0.3950955E+000  0.1862899E+03  0.7546771E-02  0.1161851E+00
         21   -1    0    0  501  502  0.00000000000E+00  0.00000000000E+00  0.13898822481E+04  0.13898822481E+04  0.00000000000E+00 0.  1.
         21   -1    0    0  502  503 -0.00000000000E+00 -0.00000000000E+00 -0.25478202965E+02  0.25478202965E+02  0.00000000000E+00 0.  1.
          6    1    1    2  501    0 -0.52060151204E+01  0.68904405762E+02  0.78225119596E+03  0.80412738625E+03  0.17300000000E+03 0.  1.
         -6    1    1    2    0  503  0.52060151204E+01 -0.68904405762E+02  0.58215284915E+03  0.61123306480E+03  0.17300000000E+03 0.  1.
<mgrwt>
<rscale>  2 0.18628988E+03</rscale>
<asrwt>0</asrwt>
<pdfrwt beam="1">  1       21 0.21382798E+00 0.18628988E+03</pdfrwt>
<pdfrwt beam="2">  1       21 0.39197246E-02 0.18628988E+03</pdfrwt>
<totfact> 0.44721437E+04</totfact>
</mgrwt>
</event>
<event>
 4    1  0.3950955E+000  0.3965343E+03  0.7546771E-02  0.1044986E+00
         21   -1    0    0  503  502  0.00000000000E+00  0.00000000000E+00  0.13897859318E+03  0.13897859318E+03  0.00000000000E+00 0. -1.
         21   -1    0    0  501  503 -0.00000000000E+00 -0.00000000000E+00 -0.18289816919E+04  0.18289816919E+04  0.00000000000E+00 0.  1.
          6    1    1    2  501    0  0.14999464414E+03  0.32374687210E+03 -0.14526904715E+04  0.15058383169E+04  0.17300000000E+03 0.  1.
         -6    1    1    2    0  502 -0.14999464414E+03 -0.32374687210E+03 -0.23731262716E+03  0.46212196818E+03  0.17300000000E+03 0. -1.
<mgrwt>
<rscale>  2 0.39653427E+03</rscale>
<asrwt>0</asrwt>
<pdfrwt beam="1">  1       21 0.21381323E-01 0.39653427E+03</pdfrwt>
<pdfrwt beam="2">  1       21 0.28138179E+00 0.39653427E+03</pdfrwt>
<totfact> 0.74117289E+02</totfact>
</mgrwt>
</event>
<event>
 4    1  0.3950955E+000  0.2454393E+03  0.7546771E-02  0.1116221E+00
         21   -1    0    0  501  502  0.00000000000E+00  0.00000000000E+00  0.10249449545E+03  0.10249449545E+03  0.00000000000E+00 0. -1.
         21   -1    0    0  502  503 -0.00000000000E+00 -0.00000000000E+00 -0.68320141294E+03  0.68320141294E+03  0.00000000000E+00 0. -1.
          6    1    1    2  501    0 -0.17305848007E+03  0.19031882561E+02 -0.43719759359E+03  0.50138028074E+03  0.17300000000E+03 0. -1.
         -6    1    1    2    0  503  0.17305848007E+03 -0.19031882561E+02 -0.14350932391E+03  0.28431562765E+03  0.17300000000E+03 0. -1.
<mgrwt>
<rscale>  2 0.24543930E+03</rscale>
<asrwt>0</asrwt>
<pdfrwt beam="1">  1       21 0.15768384E-01 0.24543930E+03</pdfrwt>
<pdfrwt beam="2">  1       21 0.10510791E+00 0.24543930E+03</pdfrwt>
<totfact> 0.25355279E+04</totfact>
</mgrwt>
</event>
<event>
 4    1  0.3950955E+000  0.3611261E+03  0.7546771E-02  0.1058139E+00
         21   -1    0    0  501  502  0.00000000000E+00  0.00000000000E+00  0.17106070867E+03  0.17106070867E+03  0.00000000000E+00 0. -1.
         21   -1    0    0  502  503 -0.00000000000E+00 -0.00000000000E+00 -0.13176628579E+04  0.13176628579E+04  0.00000000000E+00 0. -1.
          6    1    1    2  501    0  0.29001664549E+03  0.12795864278E+03 -0.90084548628E+02  0.37219255074E+03  0.17300000000E+03 0. -1.
         -6    1    1    2    0  503 -0.29001664549E+03 -0.12795864278E+03 -0.10565176006E+04  0.11165310158E+04  0.17300000000E+03 0. -1.
<mgrwt>
<rscale>  2 0.36112611E+03</rscale>
<asrwt>0</asrwt>
<pdfrwt beam="1">  1       21 0.26317032E-01 0.36112611E+03</pdfrwt>
<pdfrwt beam="2">  1       21 0.20271736E+00 0.36112611E+03</pdfrwt>
<totfact> 0.15552690E+03</totfact>
</mgrwt>
</event>
<event>
 4    1  0.3950955E+000  0.2042339E+03  0.7546771E-02  0.1146215E+00
         21   -1    0    0  503  502  0.00000000000E+00  0.00000000000E+00  0.37001086946E+02  0.37001086946E+02  0.00000000000E+00 0.  1.
         21   -1    0    0  501  503 -0.00000000000E+00 -0.00000000000E+00 -0.14121554420E+04  0.14121554420E+04  0.00000000000E+00 0. -1.
          6    1    1    2  501    0 -0.21497529064E+02  0.10639709568E+03 -0.10130037453E+04  0.10333867009E+04  0.17300000000E+03 0. -1.
         -6    1    1    2    0  502  0.21497529064E+02 -0.10639709568E+03 -0.36215060980E+03  0.41576982803E+03  0.17300000000E+03 0.  1.
<mgrwt>
<rscale>  2 0.20423390E+03</rscale>
<asrwt>0</asrwt>
<pdfrwt beam="1">  1       21 0.56924747E-02 0.20423390E+03</pdfrwt>
<pdfrwt beam="2">  1       21 0.21725469E+00 0.20423390E+03</pdfrwt>
<totfact> 0.22360916E+04</totfact>
</mgrwt>
</event>
<event>
 4    1  0.3950955E+000  0.2197687E+03  0.7546771E-02  0.1134056E+00
         21   -1    0    0  501  502  0.00000000000E+00  0.00000000000E+00  0.21867640607E+03  0.21867640607E+03  0.00000000000E+00 0.  1.
         21   -1    0    0  502  503 -0.00000000000E+00 -0.00000000000E+00 -0.24062690081E+03  0.24062690081E+03  0.00000000000E+00 0.  1.
          6    1    1    2  501    0 -0.99037263129E+02  0.92525127903E+02  0.54835382723E+02  0.22650650759E+03  0.17300000000E+03 0.  1.
         -6    1    1    2    0  503  0.99037263129E+02 -0.92525127903E+02 -0.76785877467E+02  0.23279679929E+03  0.17300000000E+03 0.  1.
<mgrwt>
<rscale>  2 0.21976869E+03</rscale>
<asrwt>0</asrwt>
<pdfrwt beam="1">  1       21 0.33642524E-01 0.21976869E+03</pdfrwt>
<pdfrwt beam="2">  1       21 0.37019523E-01 0.21976869E+03</pdfrwt>
<totfact> 0.59160812E+04</totfact>
</mgrwt>
</event>
<event>
 4    1  0.3950955E+000  0.1786827E+03  0.7546771E-02  0.1169084E+00
         21   -1    0    0  503  502  0.00000000000E+00  0.00000000000E+00  0.18926631695E+02  0.18926631695E+02  0.00000000000E+00 0.  1.
         21   -1    0    0  501  503 -0.00000000000E+00 -0.00000000000E+00 -0.20946178757E+04  0.20946178757E+04  0.00000000000E+00 0. -1.
          6    1    1    2  501    0  0.97486709027E+01  0.43628813510E+02 -0.15040796343E+04  0.15146560852E+04  0.17300000000E+03 0. -1.
         -6    1    1    2    0  502 -0.97486709027E+01 -0.43628813510E+02 -0.57161160966E+03  0.59888842221E+03  0.17300000000E+03 0.  1.
<mgrwt>
<rscale>  2 0.17868271E+03</rscale>
<asrwt>0</asrwt>
<pdfrwt beam="1">  1       21 0.29117906E-02 0.17868271E+03</pdfrwt>
<pdfrwt beam="2">  1       21 0.32224878E+00 0.17868271E+03</pdfrwt>
<totfact> 0.17148717E+04</totfact>
</mgrwt>
</event>
<event>
 4    1  0.3950955E+000  0.1796461E+03  0.7546771E-02  0.1168146E+00
         21   -1    0    0  503  502  0.00000000000E+00  0.00000000000E+00  0.11185376825E+03  0.11185376825E+03  0.00000000000E+00 0.  1.
         21   -1    0    0  501  503 -0.00000000000E+00 -0.00000000000E+00 -0.33890989337E+03  0.33890989337E+03  0.00000000000E+00 0.  1.
          6    1    1    2  501    0  0.44043781702E+02 -0.20096127942E+02 -0.20042872266E+03  0.26915494038E+03  0.17300000000E+03 0.  1.
         -6    1    1    2    0  502 -0.44043781702E+02  0.20096127942E+02 -0.26627402459E+02  0.18160872123E+03  0.17300000000E+03 0.  1.
<mgrwt>
<rscale>  2 0.17964607E+03</rscale>
<asrwt>0</asrwt>
<pdfrwt beam="1">  1       21 0.17208272E-01 0.17964607E+03</pdfrwt>
<pdfrwt beam="2">  1       21 0.52139983E-01 0.17964607E+03</pdfrwt>
<totfact> 0.10699826E+05</totfact>
</mgrwt>
</event>
<event>
 4    1  0.3950955E+000  0.2851070E+03  0.7546771E-02  0.1092932E+00
         21   -1    0    0  501  502  0.00000000000E+00  0.00000000000E+00  0.48604348186E+03  0.48604348186E+03  0.00000000000E+00 0. -1.
         21   -1    0    0  502  503 -0.00000000000E+00 -0.00000000000E+00 -0.18167287437E+03  0.18167287437E+03  0.00000000000E+00 0.  1.
          6    1    1    2  501    0 -0.16406618387E+03 -0.15633078871E+03  0.24628534015E+03  0.37675256729E+03  0.17300000000E+03 0.  1.
         -6    1    1    2    0  503  0.16406618387E+03  0.15633078871E+03  0.58085267334E+02  0.29096378893E+03  0.17300000000E+03 0.  1.
<mgrwt>
<rscale>  2 0.28510705E+03</rscale>
<asrwt>0</asrwt>
<pdfrwt beam="1">  1       21 0.74775920E-01 0.28510705E+03</pdfrwt>
<pdfrwt beam="2">  1       21 0.27949673E-01 0.28510705E+03</pdfrwt>
<totfact> 0.18650980E+04</totfact>
</mgrwt>
</event>
<event>
 4    1  0.3950955E+000  0.1953897E+03  0.7546771E-02  0.1153688E+00
         21   -1    0    0  501  502  0.00000000000E+00  0.00000000000E+00  0.16619007829E+03  0.16619007829E+03  0.00000000000E+00 0. -1.
         21   -1    0    0  502  503 -0.00000000000E+00 -0.00000000000E+00 -0.24137303291E+03  0.24137303291E+03  0.00000000000E+00 0. -1.
          6    1    1    2  501    0  0.90763928534E+02  0.31681839901E+01  0.71846305829E+01  0.19552173033E+03  0.17300000000E+03 0. -1.
         -6    1    1    2    0  503 -0.90763928534E+02 -0.31681839901E+01 -0.82367585207E+02  0.21204138088E+03  0.17300000000E+03 0. -1.
<mgrwt>
<rscale>  2 0.19538968E+03</rscale>
<asrwt>0</asrwt>
<pdfrwt beam="1">  1       21 0.25567705E-01 0.19538968E+03</pdfrwt>
<pdfrwt beam="2">  1       21 0.37134312E-01 0.19538968E+03</pdfrwt>
<totfact> 0.10137966E+05</totfact>
</mgrwt>
</event>
<event>
 4    1  0.3950955E+000  0.1826096E+03  0.7546771E-02  0.1165301E+00
         21   -1    0    0  501  502  0.00000000000E+00  0.00000000000E+00  0.10947372800E+03  0.10947372800E+03  0.00000000000E+00 0.  1.
         21   -1    0    0  502  503 -0.00000000000E+00 -0.00000000000E+00 -0.39835256807E+03  0.39835256807E+03  0.00000000000E+00 0.  1.
          6    1    1    2  501    0 -0.44334410474E+02  0.38101309411E+02 -0.21261949180E+02  0.18384319464E+03  0.17300000000E+03 0.  1.
         -6    1    1    2    0  503  0.44334410474E+02 -0.38101309411E+02 -0.26761689088E+03  0.32398310144E+03  0.17300000000E+03 0.  1.
<mgrwt>
<rscale>  2 0.18260956E+03</rscale>
<asrwt>0</asrwt>
<pdfrwt beam="1">  1       21 0.16842112E-01 0.18260956E+03</pdfrwt>
<pdfrwt beam="2">  1       21 0.61285010E-01 0.18260956E+03</pdfrwt>
<totfact> 0.78898974E+04</totfact>
</mgrwt>
</event>
<event>
 4    1  0.3950955E+000  0.2595102E+03  0.7546771E-02  0.1107438E+00
         21   -1    0    0  501  502  0.00000000000E+00  0.00000000000E+00  0.41865508048E+03  0.41865508048E+03  0.00000000000E+00 0. -1.
         21   -1    0    0  502  503 -0.00000000000E+00 -0.00000000000E+00 -0.36739932028E+03  0.36739932028E+03  0.00000000000E+00 0.  1.
          6    1    1    2  501    0 -0.17628435173E+03  0.79626405435E+02  0.32030953179E+03  0.41224232348E+03  0.17300000000E+03 0. -1.
         -6    1    1    2    0  503  0.17628435173E+03 -0.79626405435E+02 -0.26905377159E+03  0.37381207727E+03  0.17300000000E+03 0.  1.
<mgrwt>
<rscale>  2 0.25951019E+03</rscale>
<asrwt>0</asrwt>
<pdfrwt beam="1">  1       21 0.64408474E-01 0.25951019E+03</pdfrwt>
<pdfrwt beam="2">  1       21 0.56522973E-01 0.25951019E+03</pdfrwt>
<totfact> 0.62611882E+03</totfact>
</mgrwt>
</event>
<event>
 4    1  0.3950955E+000  0.1819931E+03  0.7546771E-02  0.1165888E+00
         21   -1    0    0  503  502  0.00000000000E+00  0.00000000000E+00  0.13198353985E+03  0.13198353985E+03  0.00000000000E+00 0. -1.
         21   -1    0    0  501  503 -0.00000000000E+00 -0.00000000000E+00 -0.35537742228E+03  0.35537742228E+03  0.00000000000E+00 0. -1.
          6    1    1    2  501    0 -0.41817355417E+02  0.37997533918E+02 -0.24378982199E+03  0.30422850147E+03  0.17300000000E+03 0. -1.
         -6    1    1    2    0  502  0.41817355417E+02 -0.37997533918E+02  0.20395939561E+02  0.18313246066E+03  0.17300000000E+03 0. -1.
<mgrwt>
<rscale>  2 0.18199314E+03</rscale>
<asrwt>0</asrwt>
<pdfrwt beam="1">  1       21 0.20305160E-01 0.18199314E+03</pdfrwt>
<pdfrwt beam="2">  1       21 0.54673449E-01 0.18199314E+03</pdfrwt>
<totfact> 0.71198929E+04</totfact>
</mgrwt>
</event>
<event>
 4    1  0.3950955E+000  0.1970815E+03  0.7546771E-02  0.1152225E+00
         21   -1    0    0  501  502  0.00000000000E+00  0.00000000000E+00  0.90014716022E+02  0.90014716022E+02  0.00000000000E+00 0. -1.
         21   -1    0    0  502  503 -0.00000000000E+00 -0.00000000000E+00 -0.44573388023E+03  0.44573388023E+03  0.00000000000E+00 0. -1.
          6    1    1    2  501    0  0.55100786253E+02 -0.76655083785E+02 -0.22573333655E+03  0.29966087123E+03  0.17300000000E+03 0. -1.
         -6    1    1    2    0  503 -0.55100786253E+02  0.76655083785E+02 -0.12998582766E+03  0.23608772503E+03  0.17300000000E+03 0. -1.
<mgrwt>
<rscale>  2 0.19708145E+03</rscale>
<asrwt>0</asrwt>
<pdfrwt beam="1">  1       21 0.13848418E-01 0.19708145E+03</pdfrwt>
<pdfrwt beam="2">  1       21 0.68574441E-01 0.19708145E+03</pdfrwt>
<totfact> 0.87755595E+04</totfact>
</mgrwt>
</event>
<event>
 4    1  0.3950955E+000  0.2196633E+03  0.7546771E-02  0.1134134E+00
         21   -1    0    0  501  502  0.00000000000E+00  0.00000000000E+00  0.11072864086E+04  0.11072864086E+04  0.00000000000E+00 0. -1.
         21   -1    0    0  502  503 -0.00000000000E+00 -0.00000000000E+00 -0.44542244776E+02  0.44542244776E+02  0.00000000000E+00 0. -1.
          6    1    1    2  501    0  0.11248500288E+03 -0.75300122640E+02  0.44658329928E+03  0.49768326026E+03  0.17300000000E+03 0. -1.
         -6    1    1    2    0  503 -0.11248500288E+03  0.75300122640E+02  0.61616086454E+03  0.65414539311E+03  0.17300000000E+03 0. -1.
<mgrwt>
<rscale>  2 0.21966334E+03</rscale>
<asrwt>0</asrwt>
<pdfrwt beam="1">  1       21 0.17035173E+00 0.21966334E+03</pdfrwt>
<pdfrwt beam="2">  1       21 0.68526539E-02 0.21966334E+03</pdfrwt>
<totfact> 0.32733695E+04</totfact>
</mgrwt>
</event>
<event>
 4    1  0.3950955E+000  0.2324149E+03  0.7546771E-02  0.1124951E+00
         21   -1    0    0  503  502  0.00000000000E+00  0.00000000000E+00  0.68376361337E+02  0.68376361337E+02  0.00000000000E+00 0.  1.
         21   -1    0    0  501  503 -0.00000000000E+00 -0.00000000000E+00 -0.92282193259E+03  0.92282193259E+03  0.00000000000E+00 0.  1.
          6    1    1    2  501    0  0.15411500952E+03  0.18337175799E+02 -0.61525044100E+03  0.65768517798E+03  0.17300000000E+03 0.  1.
         -6    1    1    2    0  502 -0.15411500952E+03 -0.18337175799E+02 -0.23919513025E+03  0.33351311595E+03  0.17300000000E+03 0.  1.
<mgrwt>
<rscale>  2 0.23241491E+03</rscale>
<asrwt>0</asrwt>
<pdfrwt beam="1">  1       21 0.10519440E-01 0.23241491E+03</pdfrwt>
<pdfrwt beam="2">  1       21 0.14197260E+00 0.23241491E+03</pdfrwt>
<totfact> 0.24996284E+04</totfact>
</mgrwt>
</event>
<event>
 4    1  0.3950955E+000  0.1763415E+03  0.7546771E-02  0.1171391E+00
         21   -1    0    0  503  502  0.00000000000E+00  0.00000000000E+00  0.58709169353E+02  0.58709169353E+02  0.00000000000E+00 0.  1.
         21   -1    0    0  501  503 -0.00000000000E+00 -0.00000000000E+00 -0.59497066864E+03  0.59497066864E+03  0.00000000000E+00 0.  1.
          6    1    1    2  501    0 -0.32900818428E+02 -0.92129067031E+01 -0.37641225863E+03  0.41567118008E+03  0.17300000000E+03 0.  1.
         -6    1    1    2    0  502  0.32900818428E+02  0.92129067031E+01 -0.15984924066E+03  0.23800865792E+03  0.17300000000E+03 0.  1.
<mgrwt>
<rscale>  2 0.17634155E+03</rscale>
<asrwt>0</asrwt>
<pdfrwt beam="1">  1       21 0.90321798E-02 0.17634155E+03</pdfrwt>
<pdfrwt beam="2">  1       21 0.91533950E-01 0.17634155E+03</pdfrwt>
<totfact> 0.98718556E+04</totfact>
</mgrwt>
</event>
<event>
 4    1  0.3950955E+000  0.1748625E+03  0.7546771E-02  0.1172870E+00
         21   -1    0    0  501  502  0.00000000000E+00  0.00000000000E+00  0.71470956144E+03  0.71470956144E+03  0.00000000000E+00 0.  1.
         21   -1    0    0  502  503 -0.00000000000E+00 -0.00000000000E+00 -0.83069046083E+02  0.83069046083E+02  0.00000000000E+00 0.  1.
          6    1    1    2  501    0  0.39753744536E+00  0.25450769232E+02  0.59360860212E+03  0.61882798272E+03  0.17300000000E+03 0.  1.
         -6    1    1    2    0  503 -0.39753744536E+00 -0.25450769232E+02  0.38031913232E+02  0.17895062480E+03  0.17300000000E+03 0.  1.
<mgrwt>
<rscale>  2 0.17486252E+03</rscale>
<asrwt>0</asrwt>
<pdfrwt beam="1">  1       21 0.10995531E+00 0.17486252E+03</pdfrwt>
<pdfrwt beam="2">  1       21 0.12779854E-01 0.17486252E+03</pdfrwt>
<totfact> 0.34612162E+04</totfact>
</mgrwt>
</event>
<event>
 4    1  0.3950955E+000  0.1850224E+03  0.7546771E-02  0.1163029E+00
         21   -1    0    0  503  502  0.00000000000E+00  0.00000000000E+00  0.58274069762E+02  0.58274069762E+02  0.00000000000E+00 0.  1.
         21   -1    0    0  501  503 -0.00000000000E+00 -0.00000000000E+00 -0.58983608736E+03  0.58983608736E+03  0.00000000000E+00 0.  1.
          6    1    1    2  501    0  0.54987427945E+02 -0.35786242660E+02 -0.28637926733E+03  0.34094920025E+03  0.17300000000E+03 0.  1.
         -6    1    1    2    0  502 -0.54987427945E+02  0.35786242660E+02 -0.24518275027E+03  0.30716095687E+03  0.17300000000E+03 0.  1.
<mgrwt>
<rscale>  2 0.18502236E+03</rscale>
<asrwt>0</asrwt>
<pdfrwt beam="1">  1       21 0.89652415E-02 0.18502236E+03</pdfrwt>
<pdfrwt beam="2">  1       21 0.90744013E-01 0.18502236E+03</pdfrwt>
<totfact> 0.10167963E+05</totfact>
</mgrwt>
</event>
<event>
 4    1  0.3950955E+000  0.2583990E+03  0.7546771E-02  0.1108109E+00
         21   -1    0    0  503  502  0.00000000000E+00  0.00000000000E+00  0.20474428633E+04  0.20474428633E+04  0.00000000000E+00 0.  1.
         21   -1    0    0  501  503 -0.00000000000E+00 -0.00000000000E+00 -0.54987473910E+02  0.54987473910E+02  0.00000000000E+00 0. -1.
          6    1    1    2  501    0  0.15618537305E+03 -0.11156690491E+03  0.32564651324E+03  0.41571107348E+03  0.17300000000E+03 0. -1.
         -6    1    1    2    0  502 -0.15618537305E+03  0.11156690491E+03  0.16668088761E+04  0.16867192637E+04  0.17300000000E+03 0.  1.
<mgrwt>
<rscale>  2 0.25839900E+03</rscale>
<asrwt>0</asrwt>
<pdfrwt beam="1">  1       21 0.31499115E+00 0.25839900E+03</pdfrwt>
<pdfrwt beam="2">  1       21 0.84596129E-02 0.25839900E+03</pdfrwt>
<totfact> 0.28354721E+03</totfact>
</mgrwt>
</event>
<event>
 4    1  0.3950955E+000  0.1831933E+03  0.7546771E-02  0.1164748E+00
         21   -1    0    0  503  502  0.00000000000E+00  0.00000000000E+00  0.71967431512E+02  0.71967431512E+02  0.00000000000E+00 0.  1.
         21   -1    0    0  501  503 -0.00000000000E+00 -0.00000000000E+00 -0.93013918545E+03  0.93013918545E+03  0.00000000000E+00 0.  1.
          6    1    1    2  501    0 -0.40959406783E+02 -0.44193927199E+02 -0.78290786265E+03  0.80405503394E+03  0.17300000000E+03 0.  1.
         -6    1    1    2    0  502  0.40959406783E+02  0.44193927199E+02 -0.75263891285E+02  0.19805158302E+03  0.17300000000E+03 0.  1.
<mgrwt>
<rscale>  2 0.18319328E+03</rscale>
<asrwt>0</asrwt>
<pdfrwt beam="1">  1       21 0.11071913E-01 0.18319328E+03</pdfrwt>
<pdfrwt beam="2">  1       21 0.14309833E+00 0.18319328E+03</pdfrwt>
<totfact> 0.23043902E+04</totfact>
</mgrwt>
</event>
<event>
 4    1  0.3950955E+000  0.1854668E+03  0.7546771E-02  0.1162615E+00
         21   -1    0    0  503  502  0.00000000000E+00  0.00000000000E+00  0.21571302972E+03  0.21571302972E+03  0.00000000000E+00 0. -1.
         21   -1    0    0  501  503 -0.00000000000E+00 -0.00000000000E+00 -0.22836230903E+03  0.22836230903E+03  0.00000000000E+00 0. -1.
          6    1    1    2  501    0 -0.57026775209E+02 -0.34883818916E+02 -0.12828717751E+03  0.22551171550E+03  0.17300000000E+03 0. -1.
         -6    1    1    2    0  502  0.57026775209E+02  0.34883818916E+02  0.11563789820E+03  0.21856362326E+03  0.17300000000E+03 0. -1.
<mgrwt>
<rscale>  2 0.18546680E+03</rscale>
<asrwt>0</asrwt>
<pdfrwt beam="1">  1       21 0.33186620E-01 0.18546680E+03</pdfrwt>
<pdfrwt beam="2">  1       21 0.35132663E-01 0.18546680E+03</pdfrwt>
<totfact> 0.68494654E+04</totfact>
</mgrwt>
</event>
<event>
 4    1  0.3950955E+000  0.1883581E+03  0.7546771E-02  0.1159951E+00
         21   -1    0    0  503  502  0.00000000000E+00  0.00000000000E+00  0.15227243646E+03  0.15227243646E+03  0.00000000000E+00 0. -1.
         21   -1    0    0  501  503 -0.00000000000E+00 -0.00000000000E+00 -0.27521674904E+03  0.27521674904E+03  0.00000000000E+00 0. -1.
          6    1    1    2  501    0 -0.74481781205E+02  0.14949676436E+01 -0.14519114657E+03  0.23782186548E+03  0.17300000000E+03 0. -1.
         -6    1    1    2    0  502  0.74481781205E+02 -0.14949676436E+01  0.22246833988E+02  0.18966732002E+03  0.17300000000E+03 0. -1.
<mgrwt>
<rscale>  2 0.18835809E+03</rscale>
<asrwt>0</asrwt>
<pdfrwt beam="1">  1       21 0.23426529E-01 0.18835809E+03</pdfrwt>
<pdfrwt beam="2">  1       21 0.42341038E-01 0.18835809E+03</pdfrwt>
<totfact> 0.92153105E+04</totfact>
</mgrwt>
</event>
<event>
 4    1  0.3950955E+000  0.2040397E+03  0.7546771E-02  0.1146375E+00
         21   -1    0    0  503  502  0.00000000000E+00  0.00000000000E+00  0.92056637813E+03  0.92056637813E+03  0.00000000000E+00 0. -1.
         21   -1    0    0  501  503 -0.00000000000E+00 -0.00000000000E+00 -0.99202994771E+02  0.99202994771E+02  0.00000000000E+00 0. -1.
          6    1    1    2  501    0  0.72927196618E+02 -0.79904977531E+02  0.34567394022E+02  0.20694706127E+03  0.17300000000E+03 0. -1.
         -6    1    1    2    0  502 -0.72927196618E+02  0.79904977531E+02  0.78679598934E+03  0.81282231163E+03  0.17300000000E+03 0. -1.
<mgrwt>
<rscale>  2 0.20403966E+03</rscale>
<asrwt>0</asrwt>
<pdfrwt beam="1">  1       21 0.14162559E+00 0.20403966E+03</pdfrwt>
<pdfrwt beam="2">  1       21 0.15262000E-01 0.20403966E+03</pdfrwt>
<totfact> 0.13094156E+04</totfact>
</mgrwt>
</event>
<event>
 4    1  0.3950955E+000  0.2036429E+03  0.7546771E-02  0.1146701E+00
         21   -1    0    0  501  502  0.00000000000E+00  0.00000000000E+00  0.32909871685E+03  0.32909871685E+03  0.00000000000E+00 0. -1.
         21   -1    0    0  502  503 -0.00000000000E+00 -0.00000000000E+00 -0.28482288330E+03  0.28482288330E+03  0.00000000000E+00 0. -1.
          6    1    1    2  501    0 -0.15946872463E+02  0.10624090302E+03  0.25134889982E+03  0.32349142439E+03  0.17300000000E+03 0. -1.
         -6    1    1    2    0  503  0.15946872463E+02 -0.10624090302E+03 -0.20707306627E+03  0.29043017575E+03  0.17300000000E+03 0. -1.
<mgrwt>
<rscale>  2 0.20364290E+03</rscale>
<asrwt>0</asrwt>
<pdfrwt beam="1">  1       21 0.50630572E-01 0.20364290E+03</pdfrwt>
<pdfrwt beam="2">  1       21 0.43818905E-01 0.20364290E+03</pdfrwt>
<totfact> 0.18451446E+04</totfact>
</mgrwt>
</event>
<event>
 4    1  0.3950955E+000  0.2167780E+03  0.7546771E-02  0.1136308E+00
         21   -1    0    0  501  502  0.00000000000E+00  0.00000000000E+00  0.83562579125E+02  0.83562579125E+02  0.00000000000E+00 0. -1.
         21   -1    0    0  502  503 -0.00000000000E+00 -0.00000000000E+00 -0.56546451570E+03  0.56546451570E+03  0.00000000000E+00 0. -1.
          6    1    1    2  501    0 -0.12059807214E+03  0.50197625416E+02 -0.26497548222E+03  0.34235172379E+03  0.17300000000E+03 0.  1.
         -6    1    1    2    0  503  0.12059807214E+03 -0.50197625416E+02 -0.21692645436E+03  0.30667537104E+03  0.17300000000E+03 0.  1.
<mgrwt>
<rscale>  2 0.21677799E+03</rscale>
<asrwt>0</asrwt>
<pdfrwt beam="1">  1       21 0.12855781E-01 0.21677799E+03</pdfrwt>
<pdfrwt beam="2">  1       21 0.86994542E-01 0.21677799E+03</pdfrwt>
<totfact> 0.58253171E+04</totfact>
</mgrwt>
</event>
<event>
 4    1  0.3950955E+000  0.1862237E+03  0.7546771E-02  0.1161912E+00
         21   -1    0    0  503  502  0.00000000000E+00  0.00000000000E+00  0.53310487147E+02  0.53310487147E+02  0.00000000000E+00 0. -1.
         21   -1    0    0  501  503 -0.00000000000E+00 -0.00000000000E+00 -0.78985608540E+03  0.78985608540E+03  0.00000000000E+00 0. -1.
          6    1    1    2  501    0  0.50680664245E+02 -0.46708947617E+02 -0.54534462431E+03  0.57626384129E+03  0.17300000000E+03 0. -1.
         -6    1    1    2    0  502 -0.50680664245E+02  0.46708947617E+02 -0.19120097395E+03  0.26690273126E+03  0.17300000000E+03 0. -1.
<mgrwt>
<rscale>  2 0.18622367E+03</rscale>
<asrwt>0</asrwt>
<pdfrwt beam="1">  1       21 0.82016139E-02 0.18622367E+03</pdfrwt>
<pdfrwt beam="2">  1       21 0.12151631E+00 0.18622367E+03</pdfrwt>
<totfact> 0.59008788E+04</totfact>
</mgrwt>
</event>
<event>
 4    1  0.3950955E+000  0.2310445E+03  0.7546771E-02  0.1125907E+00
         21   -1    0    0  501  502  0.00000000000E+00  0.00000000000E+00  0.14907136949E+04  0.14907136949E+04  0.00000000000E+00 0.  1.
         21   -1    0    0  502  503 -0.00000000000E+00 -0.00000000000E+00 -0.36070906364E+02  0.36070906364E+02  0.00000000000E+00 0.  1.
          6    1    1    2  501    0 -0.11435616376E+03 -0.10185880546E+03  0.66232062732E+03  0.70146287272E+03  0.17300000000E+03 0.  1.
         -6    1    1    2    0  503  0.11435616376E+03  0.10185880546E+03  0.79232216118E+03  0.82532172850E+03  0.17300000000E+03 0.  1.
<mgrwt>
<rscale>  2 0.23104447E+03</rscale>
<asrwt>0</asrwt>
<pdfrwt beam="1">  1       21 0.22934052E+00 0.23104447E+03</pdfrwt>
<pdfrwt beam="2">  1       21 0.55493714E-02 0.23104447E+03</pdfrwt>
<totfact> 0.19299118E+04</totfact>
</mgrwt>
</event>
<event>
 4    1  0.3950955E+000  0.2425570E+03  0.7546771E-02  0.1118101E+00
         21   -1    0    0  501  502  0.00000000000E+00  0.00000000000E+00  0.28848863377E+03  0.28848863377E+03  0.00000000000E+00 0. -1.
         21   -1    0    0  502  503 -0.00000000000E+00 -0.00000000000E+00 -0.23344936006E+03  0.23344936006E+03  0.00000000000E+00 0.  1.
          6    1    1    2  501    0  0.11110778326E+03 -0.12868549831E+03 -0.65266818409E+02  0.25118450303E+03  0.17300000000E+03 0.  1.
         -6    1    1    2    0  503 -0.11110778326E+03  0.12868549831E+03  0.12030609212E+03  0.27075349079E+03  0.17300000000E+03 0. -1.
<mgrwt>
<rscale>  2 0.24255700E+03</rscale>
<asrwt>0</asrwt>
<pdfrwt beam="1">  1       21 0.44382867E-01 0.24255700E+03</pdfrwt>
<pdfrwt beam="2">  1       21 0.35915286E-01 0.24255700E+03</pdfrwt>
<totfact> 0.35564215E+04</totfact>
</mgrwt>
</event>
<event>
 4    1  0.3950955E+000  0.1743763E+03  0.7546771E-02  0.1173359E+00
         21   -1    0    0  503  502  0.00000000000E+00  0.00000000000E+00  0.98139101860E+02  0.98139101860E+02  0.00000000000E+00 0. -1.
         21   -1    0    0  501  503 -0.00000000000E+00 -0.00000000000E+00 -0.42904973069E+03  0.42904973069E+03  0.00000000000E+00 0. -1.
          6    1    1    2  501    0  0.16550559968E+01  0.21802441376E+02 -0.30440079840E+03  0.35080896757E+03  0.17300000000E+03 0. -1.
         -6    1    1    2    0  502 -0.16550559968E+01 -0.21802441376E+02 -0.26509830426E+02  0.17637986498E+03  0.17300000000E+03 0. -1.
<mgrwt>
<rscale>  2 0.17437628E+03</rscale>
<asrwt>0</asrwt>
<pdfrwt beam="1">  1       21 0.15098323E-01 0.17437628E+03</pdfrwt>
<pdfrwt beam="2">  1       21 0.66007651E-01 0.17437628E+03</pdfrwt>
<totfact> 0.82324321E+04</totfact>
</mgrwt>
</event>
<event>
 4    1  0.3950955E+000  0.2134257E+03  0.7546771E-02  0.1138882E+00
         21   -1    0    0  503  502  0.00000000000E+00  0.00000000000E+00  0.70420180820E+02  0.70420180820E+02  0.00000000000E+00 0. -1.
         21   -1    0    0  501  503 -0.00000000000E+00 -0.00000000000E+00 -0.73379536634E+03  0.73379536634E+03  0.00000000000E+00 0.  1.
          6    1    1    2  501    0 -0.10169416216E+03  0.72662367835E+02 -0.19326544841E+03  0.28792717112E+03  0.17300000000E+03 0. -1.
         -6    1    1    2    0  502  0.10169416216E+03 -0.72662367835E+02 -0.47010973711E+03  0.51628837604E+03  0.17300000000E+03 0.  1.
<mgrwt>
<rscale>  2 0.21342568E+03</rscale>
<asrwt>0</asrwt>
<pdfrwt beam="1">  1       21 0.10833874E-01 0.21342568E+03</pdfrwt>
<pdfrwt beam="2">  1       21 0.11289160E+00 0.21342568E+03</pdfrwt>
<totfact> 0.42705414E+04</totfact>
</mgrwt>
</event>
<event>
 4    1  0.3950955E+000  0.2466435E+03  0.7546771E-02  0.1115445E+00
         21   -1    0    0  503  502  0.00000000000E+00  0.00000000000E+00  0.11058697962E+04  0.11058697962E+04  0.00000000000E+00 0. -1.
         21   -1    0    0  501  503 -0.00000000000E+00 -0.00000000000E+00 -0.55566078299E+02  0.55566078299E+02  0.00000000000E+00 0.  1.
          6    1    1    2  501    0 -0.85311108096E+02  0.15370768931E+03  0.46701771212E+03  0.52814636452E+03  0.17300000000E+03 0.  1.
         -6    1    1    2    0  502  0.85311108096E+02 -0.15370768931E+03  0.58328600579E+03  0.63328950999E+03  0.17300000000E+03 0. -1.
<mgrwt>
<rscale>  2 0.24664355E+03</rscale>
<asrwt>0</asrwt>
<pdfrwt beam="1">  1       21 0.17013380E+00 0.24664355E+03</pdfrwt>
<pdfrwt beam="2">  1       21 0.85486282E-02 0.24664355E+03</pdfrwt>
<totfact> 0.21993872E+04</totfact>
</mgrwt>
</event>
<event>
 4    1  0.3950955E+000  0.1747117E+03  0.7546771E-02  0.1173021E+00
         21   -1    0    0  503  502  0.00000000000E+00  0.00000000000E+00  0.29756533714E+03  0.29756533714E+03  0.00000000000E+00 0.  1.
         21   -1    0    0  501  503 -0.00000000000E+00 -0.00000000000E+00 -0.11888645080E+03  0.11888645080E+03  0.00000000000E+00 0.  1.
          6    1    1    2  501    0  0.19460731024E+02 -0.14712434301E+02  0.12222163643E+02  0.17513867951E+03  0.17300000000E+03 0.  1.
         -6    1    1    2    0  502 -0.19460731024E+02  0.14712434301E+02  0.16645672270E+03  0.24131310844E+03  0.17300000000E+03 0.  1.
<mgrwt>
<rscale>  2 0.17471169E+03</rscale>
<asrwt>0</asrwt>
<pdfrwt beam="1">  1       21 0.45779282E-01 0.17471169E+03</pdfrwt>
<pdfrwt beam="2">  1       21 0.18290223E-01 0.17471169E+03</pdfrwt>
<totfact> 0.12546930E+05</totfact>
</mgrwt>
</event>
<event>
 4    1  0.3950955E+000  0.2041879E+03  0.7546771E-02  0.1146253E+00
         21   -1    0    0  501  502  0.00000000000E+00  0.00000000000E+00  0.76761003693E+02  0.76761003693E+02  0.00000000000E+00 0. -1.
         21   -1    0    0  502  503 -0.00000000000E+00 -0.00000000000E+00 -0.66739397661E+03  0.66739397661E+03  0.00000000000E+00 0. -1.
          6    1    1    2  501    0 -0.79364959741E+02 -0.73925087817E+02 -0.13477751837E+03  0.24465832277E+03  0.17300000000E+03 0. -1.
         -6    1    1    2    0  503  0.79364959741E+02  0.73925087817E+02 -0.45585545455E+03  0.49949665753E+03  0.17300000000E+03 0. -1.
<mgrwt>
<rscale>  2 0.20418794E+03</rscale>
<asrwt>0</asrwt>
<pdfrwt beam="1">  1       21 0.11809385E-01 0.20418794E+03</pdfrwt>
<pdfrwt beam="2">  1       21 0.10267599E+00 0.20418794E+03</pdfrwt>
<totfact> 0.46269129E+04</totfact>
</mgrwt>
</event>
<event>
 4    1  0.3950955E+000  0.2437372E+03  0.7546771E-02  0.1117328E+00
         21   -1    0    0  501  502  0.00000000000E+00  0.00000000000E+00  0.12909124180E+04  0.12909124180E+04  0.00000000000E+00 0.  1.
         21   -1    0    0  502  503 -0.00000000000E+00 -0.00000000000E+00 -0.46291179423E+02  0.46291179423E+02  0.00000000000E+00 0. -1.
          6    1    1    2  501    0  0.30149188157E+02 -0.16902624061E+03  0.57114087679E+03  0.62097483420E+03  0.17300000000E+03 0. -1.
         -6    1    1    2    0  503 -0.30149188157E+02  0.16902624061E+03  0.67348036177E+03  0.71622876321E+03  0.17300000000E+03 0. -1.
<mgrwt>
<rscale>  2 0.24373724E+03</rscale>
<asrwt>0</asrwt>
<pdfrwt beam="1">  1       21 0.19860188E+00 0.24373724E+03</pdfrwt>
<pdfrwt beam="2">  1       21 0.71217209E-02 0.24373724E+03</pdfrwt>
<totfact> 0.19422994E+04</totfact>
</mgrwt>
</event>
<event>
 4    1  0.3950955E+000  0.1977992E+03  0.7546771E-02  0.1151609E+00
         21   -1    0    0  501  502  0.00000000000E+00  0.00000000000E+00  0.13549650186E+03  0.13549650186E+03  0.00000000000E+00 0. -1.
         21   -1    0    0  502  503 -0.00000000000E+00 -0.00000000000E+00 -0.66697691399E+03  0.66697691399E+03  0.00000000000E+00 0.  1.
          6    1    1    2  501    0 -0.94968490305E+02  0.13286384253E+02  0.36409224682E+02  0.20112228569E+03  0.17300000000E+03 0. -1.
         -6    1    1    2    0  503  0.94968490305E+02 -0.13286384253E+02 -0.56788963681E+03  0.60135113017E+03  0.17300000000E+03 0.  1.
<mgrwt>
<rscale>  2 0.19779925E+03</rscale>
<asrwt>0</asrwt>
<pdfrwt beam="1">  1       21 0.20845616E-01 0.19779925E+03</pdfrwt>
<pdfrwt beam="2">  1       21 0.10261183E+00 0.19779925E+03</pdfrwt>
<totfact> 0.16436700E+04</totfact>
</mgrwt>
</event>
<event>
 4    1  0.3950955E+000  0.2408231E+03  0.7546771E-02  0.1119246E+00
         21   -1    0    0  501  502  0.00000000000E+00  0.00000000000E+00  0.27578252634E+03  0.27578252634E+03  0.00000000000E+00 0.  1.
         21   -1    0    0  502  503 -0.00000000000E+00 -0.00000000000E+00 -0.45361937206E+03  0.45361937206E+03  0.00000000000E+00 0. -1.
          6    1    1    2  501    0  0.16154334644E+03 -0.44390641132E+02  0.17818754657E+03  0.29957734152E+03  0.17300000000E+03 0.  1.
         -6    1    1    2    0  503 -0.16154334644E+03  0.44390641132E+02 -0.35602439229E+03  0.42982455689E+03  0.17300000000E+03 0. -1.
<mgrwt>
<rscale>  2 0.24082313E+03</rscale>
<asrwt>0</asrwt>
<pdfrwt beam="1">  1       21 0.42428081E-01 0.24082313E+03</pdfrwt>
<pdfrwt beam="2">  1       21 0.69787596E-01 0.24082313E+03</pdfrwt>
<totfact> 0.96664810E+03</totfact>
</mgrwt>
</event>
<event>
 4    1  0.3950955E+000  0.1741546E+03  0.7546771E-02  0.1173583E+00
         21   -1    0    0  503  502  0.00000000000E+00  0.00000000000E+00  0.67154485201E+02  0.67154485201E+02  0.00000000000E+00 0. -1.
         21   -1    0    0  501  503 -0.00000000000E+00 -0.00000000000E+00 -0.45725053870E+03  0.45725053870E+03  0.00000000000E+00 0. -1.
          6    1    1    2  501    0  0.16621208144E+02 -0.11160115983E+02 -0.16600986125E+03  0.24060151035E+03  0.17300000000E+03 0. -1.
         -6    1    1    2    0  502 -0.16621208144E+02  0.11160115983E+02 -0.22408619224E+03  0.28380351355E+03  0.17300000000E+03 0. -1.
<mgrwt>
<rscale>  2 0.17415457E+03</rscale>
<asrwt>0</asrwt>
<pdfrwt beam="1">  1       21 0.10331459E-01 0.17415457E+03</pdfrwt>
<pdfrwt beam="2">  1       21 0.70346236E-01 0.17415457E+03</pdfrwt>
<totfact> 0.14129794E+05</totfact>
</mgrwt>
</event>
<event>
 4    1  0.3950955E+000  0.1915891E+03  0.7546771E-02  0.1157036E+00
         21   -1    0    0  503  502  0.00000000000E+00  0.00000000000E+00  0.47118263340E+02  0.47118263340E+02  0.00000000000E+00 0.  1.
         21   -1    0    0  501  503 -0.00000000000E+00 -0.00000000000E+00 -0.89855284738E+03  0.89855284738E+03  0.00000000000E+00 0.  1.
          6    1    1    2  501    0 -0.62690835259E+02  0.53359558313E+02 -0.59816993247E+03  0.62810321715E+03  0.17300000000E+03 0. -1.
         -6    1    1    2    0  502  0.62690835259E+02 -0.53359558313E+02 -0.25326465157E+03  0.31756789357E+03  0.17300000000E+03 0. -1.
<mgrwt>
<rscale>  2 0.19158910E+03</rscale>
<asrwt>0</asrwt>
<pdfrwt beam="1">  1       21 0.72489641E-02 0.19158910E+03</pdfrwt>
<pdfrwt beam="2">  1       21 0.13823889E+00 0.19158910E+03</pdfrwt>
<totfact> 0.52677127E+04</totfact>
</mgrwt>
</event>
<event>
 4    1  0.3950955E+000  0.1808970E+03  0.7546771E-02  0.1166938E+00
         21   -1    0    0  501  502  0.00000000000E+00  0.00000000000E+00  0.12841719247E+04  0.12841719247E+04  0.00000000000E+00 0. -1.
         21   -1    0    0  502  503 -0.00000000000E+00 -0.00000000000E+00 -0.26535405185E+02  0.26535405185E+02  0.00000000000E+00 0. -1.
          6    1    1    2  501    0 -0.47473433672E+02  0.23259577120E+02  0.49826557578E+03  0.53008708609E+03  0.17300000000E+03 0. -1.
         -6    1    1    2    0  503  0.47473433672E+02 -0.23259577120E+02  0.75937094370E+03  0.78062024376E+03  0.17300000000E+03 0. -1.
<mgrwt>
<rscale>  2 0.18089703E+03</rscale>
<asrwt>0</asrwt>
<pdfrwt beam="1">  1       21 0.19756486E+00 0.18089703E+03</pdfrwt>
<pdfrwt beam="2">  1       21 0.40823710E-02 0.18089703E+03</pdfrwt>
<totfact> 0.53116807E+04</totfact>
</mgrwt>
</event>
<event>
 4    1  0.3950955E+000  0.2632175E+03  0.7546771E-02  0.1105225E+00
         21   -1    0    0  501  502  0.00000000000E+00  0.00000000000E+00  0.14366250982E+03  0.14366250982E+03  0.00000000000E+00 0.  1.
         21   -1    0    0  502  503 -0.00000000000E+00 -0.00000000000E+00 -0.89352073438E+03  0.89352073438E+03  0.00000000000E+00 0. -1.
          6    1    1    2  501    0 -0.24836309446E+02 -0.19681876477E+03 -0.23102317445E+02  0.26422941831E+03  0.17300000000E+03 0.  1.
         -6    1    1    2    0  503  0.24836309446E+02  0.19681876477E+03 -0.72675590712E+03  0.77295382589E+03  0.17300000000E+03 0. -1.
<mgrwt>
<rscale>  2 0.26321753E+03</rscale>
<asrwt>0</asrwt>
<pdfrwt beam="1">  1       21 0.22101925E-01 0.26321753E+03</pdfrwt>
<pdfrwt beam="2">  1       21 0.13746473E+00 0.26321753E+03</pdfrwt>
<totfact> 0.68367654E+03</totfact>
</mgrwt>
</event>
<event>
 4    1  0.3950955E+000  0.1930898E+03  0.7546771E-02  0.1155704E+00
         21   -1    0    0  503  502  0.00000000000E+00  0.00000000000E+00  0.32864564212E+03  0.32864564212E+03  0.00000000000E+00 0.  1.
         21   -1    0    0  501  503 -0.00000000000E+00 -0.00000000000E+00 -0.25120493690E+03  0.25120493690E+03  0.00000000000E+00 0.  1.
          6    1    1    2  501    0 -0.66962000306E+02  0.53579448056E+02 -0.17597926290E+03  0.26125154107E+03  0.17300000000E+03 0.  1.
         -6    1    1    2    0  502  0.66962000306E+02 -0.53579448056E+02  0.25341996812E+03  0.31859903795E+03  0.17300000000E+03 0.  1.
<mgrwt>
<rscale>  2 0.19308979E+03</rscale>
<asrwt>0</asrwt>
<pdfrwt beam="1">  1       21 0.50560868E-01 0.19308979E+03</pdfrwt>
<pdfrwt beam="2">  1       21 0.38646914E-01 0.19308979E+03</pdfrwt>
<totfact> 0.24030027E+04</totfact>
</mgrwt>
</event>
<event>
 4    1  0.3950955E+000  0.2323539E+03  0.7546771E-02  0.1124994E+00
         21   -1    0    0  501  502  0.00000000000E+00  0.00000000000E+00  0.42964112669E+03  0.42964112669E+03  0.00000000000E+00 0. -1.
         21   -1    0    0  502  503 -0.00000000000E+00 -0.00000000000E+00 -0.32432425025E+03  0.32432425025E+03  0.00000000000E+00 0.  1.
          6    1    1    2  501    0  0.97293940025E+02 -0.12080241567E+03  0.34770631753E+03  0.41819614734E+03  0.17300000000E+03 0. -1.
         -6    1    1    2    0  503 -0.97293940025E+02  0.12080241567E+03 -0.24238944109E+03  0.33576922961E+03  0.17300000000E+03 0.  1.
<mgrwt>
<rscale>  2 0.23235390E+03</rscale>
<asrwt>0</asrwt>
<pdfrwt beam="1">  1       21 0.66098635E-01 0.23235390E+03</pdfrwt>
<pdfrwt beam="2">  1       21 0.49896038E-01 0.23235390E+03</pdfrwt>
<totfact> 0.78278213E+03</totfact>
</mgrwt>
</event>
<event>
 4    1  0.3950955E+000  0.1975995E+03  0.7546771E-02  0.1151780E+00
         21   -1    0    0  501  502  0.00000000000E+00  0.00000000000E+00  0.36451703482E+03  0.36451703482E+03  0.00000000000E+00 0. -1.
         21   -1    0    0  502  503 -0.00000000000E+00 -0.00000000000E+00 -0.10990575303E+03  0.10990575303E+03  0.00000000000E+00 0. -1.
          6    1    1    2  501    0  0.41697560746E+02 -0.85894663594E+02  0.89512415801E+02  0.21692868042E+03  0.17300000000E+03 0. -1.
         -6    1    1    2    0  503 -0.41697560746E+02  0.85894663594E+02  0.16509886599E+03  0.25749410742E+03  0.17300000000E+03 0. -1.
<mgrwt>
<rscale>  2 0.19759954E+03</rscale>
<asrwt>0</asrwt>
<pdfrwt beam="1">  1       21 0.56079543E-01 0.19759954E+03</pdfrwt>
<pdfrwt beam="2">  1       21 0.16908578E-01 0.19759954E+03</pdfrwt>
<totfact> 0.94122009E+04</totfact>
</mgrwt>
</event>
<event>
 4    1  0.3950955E+000  0.2420589E+03  0.7546771E-02  0.1118429E+00
         21   -1    0    0  501  502  0.00000000000E+00  0.00000000000E+00  0.51797594449E+03  0.51797594449E+03  0.00000000000E+00 0. -1.
         21   -1    0    0  502  503 -0.00000000000E+00 -0.00000000000E+00 -0.11721590430E+03  0.11721590430E+03  0.00000000000E+00 0.  1.
          6    1    1    2  501    0 -0.15896160689E+03 -0.58264116041E+02  0.25976172368E+03  0.35506147746E+03  0.17300000000E+03 0. -1.
         -6    1    1    2    0  503  0.15896160689E+03  0.58264116041E+02  0.14099831651E+03  0.28013037133E+03  0.17300000000E+03 0.  1.
<mgrwt>
<rscale>  2 0.24205888E+03</rscale>
<asrwt>0</asrwt>
<pdfrwt beam="1">  1       21 0.79688606E-01 0.24205888E+03</pdfrwt>
<pdfrwt beam="2">  1       21 0.18033216E-01 0.24205888E+03</pdfrwt>
<totfact> 0.37889500E+04</totfact>
</mgrwt>
</event>
<event>
 4    1  0.3950955E+000  0.2065119E+03  0.7546771E-02  0.1144358E+00
         21   -1    0    0  501  502  0.00000000000E+00  0.00000000000E+00  0.63253704671E+02  0.63253704671E+02  0.00000000000E+00 0.  1.
         21   -1    0    0  502  503 -0.00000000000E+00 -0.00000000000E+00 -0.71614704858E+03  0.71614704858E+03  0.00000000000E+00 0. -1.
          6    1    1    2  501    0 -0.11138699553E+03 -0.17637813032E+02 -0.42073480030E+03  0.46868425129E+03  0.17300000000E+03 0.  1.
         -6    1    1    2    0  503  0.11138699553E+03  0.17637813032E+02 -0.23215854361E+03  0.31071650196E+03  0.17300000000E+03 0. -1.
<mgrwt>
<rscale>  2 0.20651188E+03</rscale>
<asrwt>0</asrwt>
<pdfrwt beam="1">  1       21 0.97313396E-02 0.20651188E+03</pdfrwt>
<pdfrwt beam="2">  1       21 0.11017646E+00 0.20651188E+03</pdfrwt>
<totfact> 0.55001151E+04</totfact>
</mgrwt>
</event>
<event>
 4    1  0.3950955E+000  0.1873737E+03  0.7546771E-02  0.1160852E+00
         21   -1    0    0  501  502  0.00000000000E+00  0.00000000000E+00  0.21302439619E+03  0.21302439619E+03  0.00000000000E+00 0. -1.
         21   -1    0    0  502  503 -0.00000000000E+00 -0.00000000000E+00 -0.58709335842E+03  0.58709335842E+03  0.00000000000E+00 0. -1.
          6    1    1    2  501    0  0.67415706886E+02 -0.25199875404E+02  0.15225581699E+03  0.24143476357E+03  0.17300000000E+03 0. -1.
         -6    1    1    2    0  503 -0.67415706886E+02  0.25199875404E+02 -0.52632477922E+03  0.55868299104E+03  0.17300000000E+03 0. -1.
<mgrwt>
<rscale>  2 0.18737372E+03</rscale>
<asrwt>0</asrwt>
<pdfrwt beam="1">  1       21 0.32772984E-01 0.18737372E+03</pdfrwt>
<pdfrwt beam="2">  1       21 0.90322056E-01 0.18737372E+03</pdfrwt>
<totfact> 0.93723379E+03</totfact>
</mgrwt>
</event>
<event>
 4    1  0.3950955E+000  0.2030589E+03  0.7546771E-02  0.1147184E+00
         21   -1    0    0  503  502  0.00000000000E+00  0.00000000000E+00  0.28620304033E+03  0.28620304033E+03  0.00000000000E+00 0.  1.
         21   -1    0    0  501  503 -0.00000000000E+00 -0.00000000000E+00 -0.17646315361E+03  0.17646315361E+03  0.00000000000E+00 0. -1.
          6    1    1    2  501    0  0.33883864588E+02 -0.10077596874E+03 -0.44246520094E+02  0.20782364326E+03  0.17300000000E+03 0. -1.
         -6    1    1    2    0  502 -0.33883864588E+02  0.10077596874E+03  0.15398640682E+03  0.25484255069E+03  0.17300000000E+03 0.  1.
<mgrwt>
<rscale>  2 0.20305889E+03</rscale>
<asrwt>0</asrwt>
<pdfrwt beam="1">  1       21 0.44031237E-01 0.20305889E+03</pdfrwt>
<pdfrwt beam="2">  1       21 0.27148177E-01 0.20305889E+03</pdfrwt>
<totfact> 0.63773403E+04</totfact>
</mgrwt>
</event>
<event>
 4    1  0.3950955E+000  0.1869948E+03  0.7546771E-02  0.1161200E+00
         21   -1    0    0  503  502  0.00000000000E+00  0.00000000000E+00  0.80761639912E+02  0.80761639912E+02  0.00000000000E+00 0. -1.
         21   -1    0    0  501  503 -0.00000000000E+00 -0.00000000000E+00 -0.43621426393E+03  0.43621426393E+03  0.00000000000E+00 0. -1.
          6    1    1    2  501    0 -0.45559008700E+02 -0.54428094973E+02 -0.20003216497E+03  0.27382459316E+03  0.17300000000E+03 0. -1.
         -6    1    1    2    0  502  0.45559008700E+02  0.54428094973E+02 -0.15542045904E+03  0.24315131068E+03  0.17300000000E+03 0. -1.
<mgrwt>
<rscale>  2 0.18699476E+03</rscale>
<asrwt>0</asrwt>
<pdfrwt beam="1">  1       21 0.12424867E-01 0.18699476E+03</pdfrwt>
<pdfrwt beam="2">  1       21 0.67109888E-01 0.18699476E+03</pdfrwt>
<totfact> 0.11231194E+05</totfact>
</mgrwt>
</event>
<event>
 4    1  0.3950955E+000  0.1797186E+03  0.7546771E-02  0.1168076E+00
         21   -1    0    0  503  502  0.00000000000E+00  0.00000000000E+00  0.15016876190E+03  0.15016876190E+03  0.00000000000E+00 0. -1.
         21   -1    0    0  501  503 -0.00000000000E+00 -0.00000000000E+00 -0.25265199065E+03  0.25265199065E+03  0.00000000000E+00 0.  1.
          6    1    1    2  501    0 -0.45899013690E+02 -0.16218719803E+02 -0.12890825659E+03  0.22116985542E+03  0.17300000000E+03 0.  1.
         -6    1    1    2    0  502  0.45899013690E+02  0.16218719803E+02  0.26425027836E+02  0.18165089712E+03  0.17300000000E+03 0. -1.
<mgrwt>
<rscale>  2 0.17971858E+03</rscale>
<asrwt>0</asrwt>
<pdfrwt beam="1">  1       21 0.23102887E-01 0.17971858E+03</pdfrwt>
<pdfrwt beam="2">  1       21 0.38869536E-01 0.17971858E+03</pdfrwt>
<totfact> 0.11283999E+05</totfact>
</mgrwt>
</event>
<event>
 4    1  0.3950955E+000  0.2277967E+03  0.7546771E-02  0.1128200E+00
         21   -1    0    0  503  502  0.00000000000E+00  0.00000000000E+00  0.15528580152E+03  0.15528580152E+03  0.00000000000E+00 0. -1.
         21   -1    0    0  501  503 -0.00000000000E+00 -0.00000000000E+00 -0.44903404803E+03  0.44903404803E+03  0.00000000000E+00 0.  1.
          6    1    1    2  501    0  0.14809890924E+03 -0.53911186491E+01 -0.29969948648E+03  0.37644539215E+03  0.17300000000E+03 0.  1.
         -6    1    1    2    0  502 -0.14809890924E+03  0.53911186491E+01  0.59512399713E+01  0.22787445740E+03  0.17300000000E+03 0. -1.
<mgrwt>
<rscale>  2 0.22779673E+03</rscale>
<asrwt>0</asrwt>
<pdfrwt beam="1">  1       21 0.23890124E-01 0.22779673E+03</pdfrwt>
<pdfrwt beam="2">  1       21 0.69082160E-01 0.22779673E+03</pdfrwt>
<totfact> 0.30925651E+04</totfact>
</mgrwt>
</event>
<event>
 4    1  0.3950955E+000  0.2797043E+03  0.7546771E-02  0.1095851E+00
         21   -1    0    0  501  502  0.00000000000E+00  0.00000000000E+00  0.52604555602E+03  0.52604555602E+03  0.00000000000E+00 0. -1.
         21   -1    0    0  502  503 -0.00000000000E+00 -0.00000000000E+00 -0.32528922591E+03  0.32528922591E+03  0.00000000000E+00 0. -1.
          6    1    1    2  501    0  0.20420739094E+03 -0.81270058535E+02  0.41398877259E+03  0.49962104115E+03  0.17300000000E+03 0. -1.
         -6    1    1    2    0  503 -0.20420739094E+03  0.81270058535E+02 -0.21323244248E+03  0.35171374078E+03  0.17300000000E+03 0. -1.
<mgrwt>
<rscale>  2 0.27970427E+03</rscale>
<asrwt>0</asrwt>
<pdfrwt beam="1">  1       21 0.80930086E-01 0.27970427E+03</pdfrwt>
<pdfrwt beam="2">  1       21 0.50044496E-01 0.27970427E+03</pdfrwt>
<totfact> 0.48087405E+03</totfact>
</mgrwt>
</event>
<event>
 4    1  0.3950955E+000  0.2310671E+03  0.7546771E-02  0.1125891E+00
         21   -1    0    0  501  502  0.00000000000E+00  0.00000000000E+00  0.20856742653E+03  0.20856742653E+03  0.00000000000E+00 0.  1.
         21   -1    0    0  502  503 -0.00000000000E+00 -0.00000000000E+00 -0.48746826589E+03  0.48746826589E+03  0.00000000000E+00 0.  1.
          6    1    1    2  501    0  0.88856722833E+02  0.12476972342E+03  0.10036645430E+03  0.25192345311E+03  0.17300000000E+03 0.  1.
         -6    1    1    2    0  503 -0.88856722833E+02 -0.12476972342E+03 -0.37926729366E+03  0.44411223932E+03  0.17300000000E+03 0.  1.
<mgrwt>
<rscale>  2 0.23106709E+03</rscale>
<asrwt>0</asrwt>
<pdfrwt beam="1">  1       21 0.32087297E-01 0.23106709E+03</pdfrwt>
<pdfrwt beam="2">  1       21 0.74995117E-01 0.23106709E+03</pdfrwt>
<totfact> 0.14510588E+04</totfact>
</mgrwt>
</event>
<event>
 4    1  0.3950955E+000  0.1815759E+03  0.7546771E-02  0.1166287E+00
         21   -1    0    0  503  502  0.00000000000E+00  0.00000000000E+00  0.97931608837E+03  0.97931608837E+03  0.00000000000E+00 0. -1.
         21   -1    0    0  501  503 -0.00000000000E+00 -0.00000000000E+00 -0.40837931548E+02  0.40837931548E+02  0.00000000000E+00 0. -1.
          6    1    1    2  501    0 -0.54920726170E+02 -0.49512262249E+01  0.68299465541E+03  0.70671882678E+03  0.17300000000E+03 0.  1.
         -6    1    1    2    0  502  0.54920726170E+02  0.49512262249E+01  0.25548350141E+03  0.31343519313E+03  0.17300000000E+03 0.  1.
<mgrwt>
<rscale>  2 0.18157588E+03</rscale>
<asrwt>0</asrwt>
<pdfrwt beam="1">  1       21 0.15066400E+00 0.18157588E+03</pdfrwt>
<pdfrwt beam="2">  1       21 0.62827595E-02 0.18157588E+03</pdfrwt>
<totfact> 0.54163915E+04</totfact>
</mgrwt>
</event>
<event>
 4    1  0.3950955E+000  0.2380738E+03  0.7546771E-02  0.1121083E+00
         21   -1    0    0  501  502  0.00000000000E+00  0.00000000000E+00  0.22894226760E+04  0.22894226760E+04  0.00000000000E+00 0. -1.
         21   -1    0    0  502  503 -0.00000000000E+00 -0.00000000000E+00 -0.32184156210E+02  0.32184156210E+02  0.00000000000E+00 0.  1.
          6    1    1    2  501    0 -0.14526390241E+03  0.75156613370E+02  0.16862547634E+04  0.17029780518E+04  0.17300000000E+03 0. -1.
         -6    1    1    2    0  503  0.14526390241E+03 -0.75156613370E+02  0.57098375644E+03  0.61862878044E+03  0.17300000000E+03 0.  1.
<mgrwt>
<rscale>  2 0.23807377E+03</rscale>
<asrwt>0</asrwt>
<pdfrwt beam="1">  1       21 0.35221875E+00 0.23807377E+03</pdfrwt>
<pdfrwt beam="2">  1       21 0.49514104E-02 0.23807377E+03</pdfrwt>
<totfact> 0.43998951E+03</totfact>
</mgrwt>
</event>
<event>
 4    1  0.3950955E+000  0.2985070E+03  0.7546771E-02  0.1085989E+00
         21   -1    0    0  503  502  0.00000000000E+00  0.00000000000E+00  0.55044186367E+03  0.55044186367E+03  0.00000000000E+00 0. -1.
         21   -1    0    0  501  503 -0.00000000000E+00 -0.00000000000E+00 -0.16426040065E+03  0.16426040065E+03  0.00000000000E+00 0. -1.
          6    1    1    2  501    0 -0.19197044130E+03  0.14941478769E+03  0.15008716152E+03  0.33411462879E+03  0.17300000000E+03 0. -1.
         -6    1    1    2    0  502  0.19197044130E+03 -0.14941478769E+03  0.23609430150E+03  0.38058763553E+03  0.17300000000E+03 0. -1.
<mgrwt>
<rscale>  2 0.29850700E+03</rscale>
<asrwt>0</asrwt>
<pdfrwt beam="1">  1       21 0.84683363E-01 0.29850700E+03</pdfrwt>
<pdfrwt beam="2">  1       21 0.25270831E-01 0.29850700E+03</pdfrwt>
<totfact> 0.16973986E+04</totfact>
</mgrwt>
</event>
<event>
 4    1  0.3950955E+000  0.2288540E+03  0.7546771E-02  0.1127449E+00
         21   -1    0    0  501  502  0.00000000000E+00  0.00000000000E+00  0.40659370259E+02  0.40659370259E+02  0.00000000000E+00 0. -1.
         21   -1    0    0  502  503 -0.00000000000E+00 -0.00000000000E+00 -0.14789357448E+04  0.14789357448E+04  0.00000000000E+00 0. -1.
          6    1    1    2  501    0 -0.14866708465E+03 -0.18526828307E+02 -0.44622129565E+03  0.50148538376E+03  0.17300000000E+03 0. -1.
         -6    1    1    2    0  503  0.14866708465E+03  0.18526828307E+02 -0.99205507884E+03  0.10181097313E+04  0.17300000000E+03 0. -1.
<mgrwt>
<rscale>  2 0.22885398E+03</rscale>
<asrwt>0</asrwt>
<pdfrwt beam="1">  1       21 0.62552882E-02 0.22885398E+03</pdfrwt>
<pdfrwt beam="2">  1       21 0.22752856E+00 0.22885398E+03</pdfrwt>
<totfact> 0.16144374E+04</totfact>
</mgrwt>
</event>
<event>
 4    1  0.3950955E+000  0.1758859E+03  0.7546771E-02  0.1171845E+00
         21   -1    0    0  503  502  0.00000000000E+00  0.00000000000E+00  0.97388100952E+03  0.97388100952E+03  0.00000000000E+00 0. -1.
         21   -1    0    0  501  503 -0.00000000000E+00 -0.00000000000E+00 -0.54930300201E+02  0.54930300201E+02  0.00000000000E+00 0. -1.
          6    1    1    2  501    0 -0.23665703386E+02  0.21137641014E+02  0.12542374904E+03  0.21602542028E+03  0.17300000000E+03 0. -1.
         -6    1    1    2    0  502  0.23665703386E+02 -0.21137641014E+02  0.79352696027E+03  0.81278588943E+03  0.17300000000E+03 0. -1.
<mgrwt>
<rscale>  2 0.17588594E+03</rscale>
<asrwt>0</asrwt>
<pdfrwt beam="1">  1       21 0.14982784E+00 0.17588594E+03</pdfrwt>
<pdfrwt beam="2">  1       21 0.84508161E-02 0.17588594E+03</pdfrwt>
<totfact> 0.33038726E+04</totfact>
</mgrwt>
</event>
<event>
 4    1  0.3950955E+000  0.1926636E+03  0.7546771E-02  0.1156081E+00
         21   -1    0    0  501  502  0.00000000000E+00  0.00000000000E+00  0.72875335959E+03  0.72875335959E+03  0.00000000000E+00 0.  1.
         21   -1    0    0  502  503 -0.00000000000E+00 -0.00000000000E+00 -0.56694447865E+02  0.56694447865E+02  0.00000000000E+00 0.  1.
          6    1    1    2  501    0  0.50779094829E+02 -0.67909766397E+02  0.46119855447E+03  0.49982332828E+03  0.17300000000E+03 0.  1.
         -6    1    1    2    0  503 -0.50779094829E+02  0.67909766397E+02  0.21086035725E+03  0.28562447917E+03  0.17300000000E+03 0.  1.
<mgrwt>
<rscale>  2 0.19266357E+03</rscale>
<asrwt>0</asrwt>
<pdfrwt beam="1">  1       21 0.11211589E+00 0.19266357E+03</pdfrwt>
<pdfrwt beam="2">  1       21 0.87222233E-02 0.19266357E+03</pdfrwt>
<totfact> 0.64360510E+04</totfact>
</mgrwt>
</event>
<event>
 4    1  0.3950955E+000  0.1920159E+03  0.7546771E-02  0.1156656E+00
         21   -1    0    0  501  502  0.00000000000E+00  0.00000000000E+00  0.79290742381E+02  0.79290742381E+02  0.00000000000E+00 0. -1.
         21   -1    0    0  502  503 -0.00000000000E+00 -0.00000000000E+00 -0.46635181055E+03  0.46635181055E+03  0.00000000000E+00 0. -1.
          6    1    1    2  501    0 -0.81895746287E+02 -0.15303351801E+02 -0.20822521968E+03  0.28324520816E+03  0.17300000000E+03 0. -1.
         -6    1    1    2    0  503  0.81895746287E+02  0.15303351801E+02 -0.17883584849E+03  0.26239734477E+03  0.17300000000E+03 0. -1.
<mgrwt>
<rscale>  2 0.19201590E+03</rscale>
<asrwt>0</asrwt>
<pdfrwt beam="1">  1       21 0.12198576E-01 0.19201590E+03</pdfrwt>
<pdfrwt beam="2">  1       21 0.71746433E-01 0.19201590E+03</pdfrwt>
<totfact> 0.10001826E+05</totfact>
</mgrwt>
</event>
<event>
 4    1  0.3950955E+000  0.2355910E+03  0.7546771E-02  0.1122765E+00
         21   -1    0    0  501  502  0.00000000000E+00  0.00000000000E+00  0.14209428181E+03  0.14209428181E+03  0.00000000000E+00 0.  1.
         21   -1    0    0  502  503 -0.00000000000E+00 -0.00000000000E+00 -0.52779955347E+03  0.52779955347E+03  0.00000000000E+00 0.  1.
          6    1    1    2  501    0  0.53145737040E+01 -0.15983079220E+03 -0.22084998921E+02  0.23662390835E+03  0.17300000000E+03 0.  1.
         -6    1    1    2    0  503 -0.53145737040E+01  0.15983079220E+03 -0.36362027274E+03  0.43326992692E+03  0.17300000000E+03 0.  1.
<mgrwt>
<rscale>  2 0.23559102E+03</rscale>
<asrwt>0</asrwt>
<pdfrwt beam="1">  1       21 0.21860659E-01 0.23559102E+03</pdfrwt>
<pdfrwt beam="2">  1       21 0.81199931E-01 0.23559102E+03</pdfrwt>
<totfact> 0.25377143E+04</totfact>
</mgrwt>
</event>
<event>
 4    1  0.3950955E+000  0.1744288E+03  0.7546771E-02  0.1173306E+00
         21   -1    0    0  503  502  0.00000000000E+00  0.00000000000E+00  0.42938545723E+02  0.42938545723E+02  0.00000000000E+00 0. -1.
         21   -1    0    0  501  503 -0.00000000000E+00 -0.00000000000E+00 -0.11472344983E+04  0.11472344983E+04  0.00000000000E+00 0. -1.
          6    1    1    2  501    0  0.20632380142E+02  0.84086648738E+01 -0.92012037108E+03  0.93650782059E+03  0.17300000000E+03 0. -1.
         -6    1    1    2    0  502 -0.20632380142E+02 -0.84086648738E+01 -0.18417558148E+03  0.25366522341E+03  0.17300000000E+03 0. -1.
<mgrwt>
<rscale>  2 0.17442878E+03</rscale>
<asrwt>0</asrwt>
<pdfrwt beam="1">  1       21 0.66059312E-02 0.17442878E+03</pdfrwt>
<pdfrwt beam="2">  1       21 0.17649759E+00 0.17442878E+03</pdfrwt>
<totfact> 0.32538463E+04</totfact>
</mgrwt>
</event>
<event>
 4    1  0.3950955E+000  0.2077640E+03  0.7546771E-02  0.1143349E+00
         21   -1    0    0  501  502  0.00000000000E+00  0.00000000000E+00  0.88799500459E+02  0.88799500459E+02  0.00000000000E+00 0.  1.
         21   -1    0    0  502  503 -0.00000000000E+00 -0.00000000000E+00 -0.75177741921E+03  0.75177741921E+03  0.00000000000E+00 0.  1.
          6    1    1    2  501    0 -0.10819639704E+03 -0.39120425756E+02 -0.81640783489E+02  0.22322877407E+03  0.17300000000E+03 0.  1.
         -6    1    1    2    0  503  0.10819639704E+03  0.39120425756E+02 -0.58133713526E+03  0.61734814560E+03  0.17300000000E+03 0.  1.
<mgrwt>
<rscale>  2 0.20776397E+03</rscale>
<asrwt>0</asrwt>
<pdfrwt beam="1">  1       21 0.13661462E-01 0.20776397E+03</pdfrwt>
<pdfrwt beam="2">  1       21 0.11565806E+00 0.20776397E+03</pdfrwt>
<totfact> 0.26630300E+04</totfact>
</mgrwt>
</event>
<event>
 4    1  0.3950955E+000  0.2069212E+03  0.7546771E-02  0.1144028E+00
         21   -1    0    0  503  502  0.00000000000E+00  0.00000000000E+00  0.20312419002E+03  0.20312419002E+03  0.00000000000E+00 0. -1.
         21   -1    0    0  501  503 -0.00000000000E+00 -0.00000000000E+00 -0.22726161601E+03  0.22726161601E+03  0.00000000000E+00 0. -1.
          6    1    1    2  501    0  0.79668433929E+02 -0.80872330674E+02 -0.70003984846E+02  0.21844210017E+03  0.17300000000E+03 0. -1.
         -6    1    1    2    0  502 -0.79668433929E+02  0.80872330674E+02  0.45866558856E+02  0.21194370586E+03  0.17300000000E+03 0. -1.
<mgrwt>
<rscale>  2 0.20692122E+03</rscale>
<asrwt>0</asrwt>
<pdfrwt beam="1">  1       21 0.31249876E-01 0.20692122E+03</pdfrwt>
<pdfrwt beam="2">  1       21 0.34963325E-01 0.20692122E+03</pdfrwt>
<totfact> 0.77114571E+04</totfact>
</mgrwt>
</event>
<event>
 4    1  0.3950955E+000  0.1742575E+03  0.7546771E-02  0.1173479E+00
         21   -1    0    0  503  502  0.00000000000E+00  0.00000000000E+00  0.15140416812E+03  0.15140416812E+03  0.00000000000E+00 0.  1.
         21   -1    0    0  501  503 -0.00000000000E+00 -0.00000000000E+00 -0.28815013920E+03  0.28815013920E+03  0.00000000000E+00 0.  1.
          6    1    1    2  501    0 -0.26533566503E+01  0.20727724374E+02 -0.18954428671E+03  0.25747371804E+03  0.17300000000E+03 0.  1.
         -6    1    1    2    0  502  0.26533566503E+01 -0.20727724374E+02  0.52798315620E+02  0.18208058928E+03  0.17300000000E+03 0.  1.
<mgrwt>
<rscale>  2 0.17425751E+03</rscale>
<asrwt>0</asrwt>
<pdfrwt beam="1">  1       21 0.23292949E-01 0.17425751E+03</pdfrwt>
<pdfrwt beam="2">  1       21 0.44330790E-01 0.17425751E+03</pdfrwt>
<totfact> 0.85304721E+04</totfact>
</mgrwt>
</event>
<event>
 4    1  0.3950955E+000  0.2330903E+03  0.7546771E-02  0.1124483E+00
         21   -1    0    0  503  502  0.00000000000E+00  0.00000000000E+00  0.16132610019E+04  0.16132610019E+04  0.00000000000E+00 0. -1.
         21   -1    0    0  501  503 -0.00000000000E+00 -0.00000000000E+00 -0.22707510772E+03  0.22707510772E+03  0.00000000000E+00 0.  1.
          6    1    1    2  501    0  0.11436207431E+03  0.10641139527E+03 -0.15610240412E+03  0.28053347333E+03  0.17300000000E+03 0.  1.
         -6    1    1    2    0  502 -0.11436207431E+03 -0.10641139527E+03  0.15422882983E+04  0.15598026363E+04  0.17300000000E+03 0. -1.
<mgrwt>
<rscale>  2 0.23309026E+03</rscale>
<asrwt>0</asrwt>
<pdfrwt beam="1">  1       21 0.24819399E+00 0.23309026E+03</pdfrwt>
<pdfrwt beam="2">  1       21 0.34934633E-01 0.23309026E+03</pdfrwt>
<totfact> 0.51246975E+02</totfact>
</mgrwt>
</event>
<event>
 4    1  0.3950955E+000  0.2346683E+03  0.7546771E-02  0.1123396E+00
         21   -1    0    0  501  502  0.00000000000E+00  0.00000000000E+00  0.26615445691E+03  0.26615445691E+03  0.00000000000E+00 0. -1.
         21   -1    0    0  502  503 -0.00000000000E+00 -0.00000000000E+00 -0.24939978984E+03  0.24939978984E+03  0.00000000000E+00 0. -1.
          6    1    1    2  501    0  0.74161704336E+02  0.14014368399E+03  0.11478039887E+03  0.26123504841E+03  0.17300000000E+03 0. -1.
         -6    1    1    2    0  503 -0.74161704336E+02 -0.14014368399E+03 -0.98025731801E+02  0.25431919834E+03  0.17300000000E+03 0. -1.
<mgrwt>
<rscale>  2 0.23466830E+03</rscale>
<asrwt>0</asrwt>
<pdfrwt beam="1">  1       21 0.40946839E-01 0.23466830E+03</pdfrwt>
<pdfrwt beam="2">  1       21 0.38369199E-01 0.23466830E+03</pdfrwt>
<totfact> 0.36859009E+04</totfact>
</mgrwt>
</event>
<event>
 4    1  0.3950955E+000  0.1940129E+03  0.7546771E-02  0.1154891E+00
         21   -1    0    0  501  502  0.00000000000E+00  0.00000000000E+00  0.92842487384E+03  0.92842487384E+03  0.00000000000E+00 0.  1.
         21   -1    0    0  502  503 -0.00000000000E+00 -0.00000000000E+00 -0.59321759594E+02  0.59321759594E+02  0.00000000000E+00 0.  1.
          6    1    1    2  501    0 -0.50118589626E+01 -0.87674982329E+02  0.71242263865E+03  0.73836781980E+03  0.17300000000E+03 0.  1.
         -6    1    1    2    0  503  0.50118589626E+01  0.87674982329E+02  0.15668047560E+03  0.24937881364E+03  0.17300000000E+03 0.  1.
<mgrwt>
<rscale>  2 0.19401294E+03</rscale>
<asrwt>0</asrwt>
<pdfrwt beam="1">  1       21 0.14283458E+00 0.19401294E+03</pdfrwt>
<pdfrwt beam="2">  1       21 0.91264253E-02 0.19401294E+03</pdfrwt>
<totfact> 0.32356291E+04</totfact>
</mgrwt>
</event>
<event>
 4    1  0.3950955E+000  0.2480153E+03  0.7546771E-02  0.1114566E+00
         21   -1    0    0  503  502  0.00000000000E+00  0.00000000000E+00  0.13157874836E+04  0.13157874836E+04  0.00000000000E+00 0.  1.
         21   -1    0    0  501  503 -0.00000000000E+00 -0.00000000000E+00 -0.49737514881E+02  0.49737514881E+02  0.00000000000E+00 0. -1.
          6    1    1    2  501    0 -0.14228512786E+03 -0.10647786504E+03  0.46566025919E+03  0.52758986944E+03  0.17300000000E+03 0. -1.
         -6    1    1    2    0  502  0.14228512786E+03  0.10647786504E+03  0.80038970958E+03  0.83793512909E+03  0.17300000000E+03 0.  1.
<mgrwt>
<rscale>  2 0.24801531E+03</rscale>
<asrwt>0</asrwt>
<pdfrwt beam="1">  1       21 0.20242882E+00 0.24801531E+03</pdfrwt>
<pdfrwt beam="2">  1       21 0.76519264E-02 0.24801531E+03</pdfrwt>
<totfact> 0.16144196E+04</totfact>
</mgrwt>
</event>
<event>
 4    1  0.3950955E+000  0.2482689E+03  0.7546771E-02  0.1114404E+00
         21   -1    0    0  503  502  0.00000000000E+00  0.00000000000E+00  0.21891345677E+03  0.21891345677E+03  0.00000000000E+00 0.  1.
         21   -1    0    0  501  503 -0.00000000000E+00 -0.00000000000E+00 -0.10795052512E+04  0.10795052512E+04  0.00000000000E+00 0. -1.
          6    1    1    2  501    0 -0.51623071616E+02  0.17042148463E+03  0.12786415223E+03  0.27926092704E+03  0.17300000000E+03 0.  1.
         -6    1    1    2    0  502  0.51623071616E+02 -0.17042148463E+03 -0.98845594670E+03  0.10191577810E+04  0.17300000000E+03 0. -1.
<mgrwt>
<rscale>  2 0.24826885E+03</rscale>
<asrwt>0</asrwt>
<pdfrwt beam="1">  1       21 0.33678993E-01 0.24826885E+03</pdfrwt>
<pdfrwt beam="2">  1       21 0.16607773E+00 0.24826885E+03</pdfrwt>
<totfact> 0.18386718E+03</totfact>
</mgrwt>
</event>
<event>
 4    1  0.3950955E+000  0.1895011E+03  0.7546771E-02  0.1158912E+00
         21   -1    0    0  501  502  0.00000000000E+00  0.00000000000E+00  0.41454994201E+02  0.41454994201E+02  0.00000000000E+00 0. -1.
         21   -1    0    0  502  503 -0.00000000000E+00 -0.00000000000E+00 -0.24952195229E+04  0.24952195229E+04  0.00000000000E+00 0. -1.
          6    1    1    2  501    0 -0.43778029235E+02  0.63758399075E+02 -0.20208959016E+03  0.27703944078E+03  0.17300000000E+03 0. -1.
         -6    1    1    2    0  503  0.43778029235E+02 -0.63758399075E+02 -0.22516749385E+04  0.22596350763E+04  0.17300000000E+03 0. -1.
<mgrwt>
<rscale>  2 0.18950105E+03</rscale>
<asrwt>0</asrwt>
<pdfrwt beam="1">  1       21 0.63776919E-02 0.18950105E+03</pdfrwt>
<pdfrwt beam="2">  1       21 0.38387990E+00 0.18950105E+03</pdfrwt>
<totfact> 0.19537272E+03</totfact>
</mgrwt>
</event>
<event>
 4    1  0.3950955E+000  0.1915141E+03  0.7546771E-02  0.1157103E+00
         21   -1    0    0  501  502  0.00000000000E+00  0.00000000000E+00  0.54603815649E+03  0.54603815649E+03  0.00000000000E+00 0.  1.
         21   -1    0    0  502  503 -0.00000000000E+00 -0.00000000000E+00 -0.12657667208E+03  0.12657667208E+03  0.00000000000E+00 0.  1.
          6    1    1    2  501    0 -0.37940875175E+01 -0.82062440951E+02  0.44012704280E+03  0.47998901354E+03  0.17300000000E+03 0.  1.
         -6    1    1    2    0  503  0.37940875175E+01  0.82062440951E+02 -0.20665558386E+02  0.19262581504E+03  0.17300000000E+03 0.  1.
<mgrwt>
<rscale>  2 0.19151407E+03</rscale>
<asrwt>0</asrwt>
<pdfrwt beam="1">  1       21 0.84005869E-01 0.19151407E+03</pdfrwt>
<pdfrwt beam="2">  1       21 0.19473334E-01 0.19151407E+03</pdfrwt>
<totfact> 0.29883348E+04</totfact>
</mgrwt>
</event>
<event>
 4    1  0.3950955E+000  0.1900050E+03  0.7546771E-02  0.1158457E+00
         21   -1    0    0  503  502  0.00000000000E+00  0.00000000000E+00  0.50323086220E+03  0.50323086220E+03  0.00000000000E+00 0. -1.
         21   -1    0    0  501  503 -0.00000000000E+00 -0.00000000000E+00 -0.84177364174E+02  0.84177364174E+02  0.00000000000E+00 0. -1.
          6    1    1    2  501    0 -0.11671488717E+02  0.77696126990E+02  0.96632442181E+02  0.21316599325E+03  0.17300000000E+03 0. -1.
         -6    1    1    2    0  502  0.11671488717E+02 -0.77696126990E+02  0.32242105584E+03  0.37424223312E+03  0.17300000000E+03 0. -1.
<mgrwt>
<rscale>  2 0.19000503E+03</rscale>
<asrwt>0</asrwt>
<pdfrwt beam="1">  1       21 0.77420131E-01 0.19000503E+03</pdfrwt>
<pdfrwt beam="2">  1       21 0.12950364E-01 0.19000503E+03</pdfrwt>
<totfact> 0.75876861E+04</totfact>
</mgrwt>
</event>
<event>
 4    1  0.3950955E+000  0.2141202E+03  0.7546771E-02  0.1138344E+00
         21   -1    0    0  501  502  0.00000000000E+00  0.00000000000E+00  0.14584322155E+03  0.14584322155E+03  0.00000000000E+00 0. -1.
         21   -1    0    0  502  503 -0.00000000000E+00 -0.00000000000E+00 -0.56138179831E+03  0.56138179831E+03  0.00000000000E+00 0. -1.
          6    1    1    2  501    0  0.64551875713E+02 -0.10840434752E+03  0.26796710229E+02  0.21579043282E+03  0.17300000000E+03 0. -1.
         -6    1    1    2    0  503 -0.64551875713E+02  0.10840434752E+03 -0.44233528699E+03  0.49143458703E+03  0.17300000000E+03 0. -1.
<mgrwt>
<rscale>  2 0.21412017E+03</rscale>
<asrwt>0</asrwt>
<pdfrwt beam="1">  1       21 0.22437419E-01 0.21412017E+03</pdfrwt>
<pdfrwt beam="2">  1       21 0.86366431E-01 0.21412017E+03</pdfrwt>
<totfact> 0.21214728E+04</totfact>
</mgrwt>
</event>
<event>
 4    1  0.3950955E+000  0.3091785E+03  0.7546771E-02  0.1080740E+00
         21   -1    0    0  501  502  0.00000000000E+00  0.00000000000E+00  0.15998671218E+03  0.15998671218E+03  0.00000000000E+00 0. -1.
         21   -1    0    0  502  503 -0.00000000000E+00 -0.00000000000E+00 -0.76429752141E+03  0.76429752141E+03  0.00000000000E+00 0.  1.
          6    1    1    2  501    0 -0.20368831706E+03 -0.15547799551E+03 -0.86259202465E+02  0.32098596170E+03  0.17300000000E+03 0. -1.
         -6    1    1    2    0  503  0.20368831706E+03  0.15547799551E+03 -0.51805160677E+03  0.60329827189E+03  0.17300000000E+03 0.  1.
<mgrwt>
<rscale>  2 0.30917849E+03</rscale>
<asrwt>0</asrwt>
<pdfrwt beam="1">  1       21 0.24613341E-01 0.30917849E+03</pdfrwt>
<pdfrwt beam="2">  1       21 0.11758423E+00 0.30917849E+03</pdfrwt>
<totfact> 0.80821070E+03</totfact>
</mgrwt>
</event>
<event>
 4    1  0.3950955E+000  0.2369937E+03  0.7546771E-02  0.1121812E+00
         21   -1    0    0  501  502  0.00000000000E+00  0.00000000000E+00  0.38365121299E+02  0.38365121299E+02  0.00000000000E+00 0.  1.
         21   -1    0    0  502  503 -0.00000000000E+00 -0.00000000000E+00 -0.14702030015E+04  0.14702030015E+04  0.00000000000E+00 0. -1.
          6    1    1    2  501    0 -0.12166331130E+03 -0.10693489873E+03 -0.76496525053E+03  0.80083573122E+03  0.17300000000E+03 0. -1.
         -6    1    1    2    0  503  0.12166331130E+03  0.10693489873E+03 -0.66687262964E+03  0.70773239155E+03  0.17300000000E+03 0. -1.
<mgrwt>
<rscale>  2 0.23699374E+03</rscale>
<asrwt>0</asrwt>
<pdfrwt beam="1">  1       21 0.59023271E-02 0.23699374E+03</pdfrwt>
<pdfrwt beam="2">  1       21 0.22618505E+00 0.23699374E+03</pdfrwt>
<totfact> 0.18076317E+04</totfact>
</mgrwt>
</event>
<event>
 4    1  0.3950955E+000  0.1837115E+03  0.7546771E-02  0.1164259E+00
         21   -1    0    0  503  502  0.00000000000E+00  0.00000000000E+00  0.10017277061E+03  0.10017277061E+03  0.00000000000E+00 0.  1.
         21   -1    0    0  501  503 -0.00000000000E+00 -0.00000000000E+00 -0.49688474352E+03  0.49688474352E+03  0.00000000000E+00 0.  1.
          6    1    1    2  501    0 -0.28360615625E+02 -0.54923640282E+02 -0.36774071820E+03  0.41107562152E+03  0.17300000000E+03 0.  1.
         -6    1    1    2    0  502  0.28360615625E+02  0.54923640282E+02 -0.28971254707E+02  0.18598189261E+03  0.17300000000E+03 0.  1.
<mgrwt>
<rscale>  2 0.18371154E+03</rscale>
<asrwt>0</asrwt>
<pdfrwt beam="1">  1       21 0.15411195E-01 0.18371154E+03</pdfrwt>
<pdfrwt beam="2">  1       21 0.76443807E-01 0.18371154E+03</pdfrwt>
<totfact> 0.57126543E+04</totfact>
</mgrwt>
</event>
<event>
 4    1  0.3950955E+000  0.3318169E+03  0.7546771E-02  0.1070336E+00
         21   -1    0    0  503  502  0.00000000000E+00  0.00000000000E+00  0.12840915594E+03  0.12840915594E+03  0.00000000000E+00 0.  1.
         21   -1    0    0  501  503 -0.00000000000E+00 -0.00000000000E+00 -0.15651276413E+04  0.15651276413E+04  0.00000000000E+00 0. -1.
          6    1    1    2  501    0 -0.27703922156E+03  0.58503951275E+02 -0.12877524071E+04  0.13298152897E+04  0.17300000000E+03 0. -1.
         -6    1    1    2    0  502  0.27703922156E+03 -0.58503951275E+02 -0.14896607824E+03  0.36372150756E+03  0.17300000000E+03 0.  1.
<mgrwt>
<rscale>  2 0.33181688E+03</rscale>
<asrwt>0</asrwt>
<pdfrwt beam="1">  1       21 0.19755255E-01 0.33181688E+03</pdfrwt>
<pdfrwt beam="2">  1       21 0.24078887E+00 0.33181688E+03</pdfrwt>
<totfact> 0.15775492E+03</totfact>
</mgrwt>
</event>
<event>
 4    1  0.3950955E+000  0.1922497E+03  0.7546771E-02  0.1156448E+00
         21   -1    0    0  501  502  0.00000000000E+00  0.00000000000E+00  0.51337906264E+03  0.51337906264E+03  0.00000000000E+00 0.  1.
         21   -1    0    0  502  503 -0.00000000000E+00 -0.00000000000E+00 -0.81860208455E+02  0.81860208455E+02  0.00000000000E+00 0.  1.
          6    1    1    2  501    0  0.77780403210E+02  0.31323161956E+02  0.11243278120E+03  0.22271295851E+03  0.17300000000E+03 0.  1.
         -6    1    1    2    0  503 -0.77780403210E+02 -0.31323161956E+02  0.31908607298E+03  0.37252631259E+03  0.17300000000E+03 0.  1.
<mgrwt>
<rscale>  2 0.19224966E+03</rscale>
<asrwt>0</asrwt>
<pdfrwt beam="1">  1       21 0.78981392E-01 0.19224966E+03</pdfrwt>
<pdfrwt beam="2">  1       21 0.12593879E-01 0.19224966E+03</pdfrwt>
<totfact> 0.76204876E+04</totfact>
</mgrwt>
</event>
<event>
 4    1  0.3950955E+000  0.2179650E+03  0.7546771E-02  0.1135409E+00
         21   -1    0    0  503  502  0.00000000000E+00  0.00000000000E+00  0.17709964279E+03  0.17709964279E+03  0.00000000000E+00 0.  1.
         21   -1    0    0  501  503 -0.00000000000E+00 -0.00000000000E+00 -0.29942293437E+03  0.29942293437E+03  0.00000000000E+00 0. -1.
          6    1    1    2  501    0  0.12765660994E+03 -0.35826297932E+02 -0.13802702544E+03  0.25799262283E+03  0.17300000000E+03 0.  1.
         -6    1    1    2    0  502 -0.12765660994E+03  0.35826297932E+02  0.15703733864E+02  0.21852995433E+03  0.17300000000E+03 0.  1.
<mgrwt>
<rscale>  2 0.21796498E+03</rscale>
<asrwt>0</asrwt>
<pdfrwt beam="1">  1       21 0.27246099E-01 0.21796498E+03</pdfrwt>
<pdfrwt beam="2">  1       21 0.46065067E-01 0.21796498E+03</pdfrwt>
<totfact> 0.57327820E+04</totfact>
</mgrwt>
</event>
<event>
 4    1  0.3950955E+000  0.1776226E+03  0.7546771E-02  0.1170124E+00
         21   -1    0    0  501  502  0.00000000000E+00  0.00000000000E+00  0.93602849555E+03  0.93602849555E+03  0.00000000000E+00 0. -1.
         21   -1    0    0  502  503 -0.00000000000E+00 -0.00000000000E+00 -0.40537635867E+02  0.40537635867E+02  0.00000000000E+00 0. -1.
          6    1    1    2  501    0  0.27704643596E+02 -0.29210183230E+02  0.64819476424E+03  0.67209094212E+03  0.17300000000E+03 0. -1.
         -6    1    1    2    0  503 -0.27704643596E+02  0.29210183230E+02  0.24729609544E+03  0.30447518930E+03  0.17300000000E+03 0. -1.
<mgrwt>
<rscale>  2 0.17762258E+03</rscale>
<asrwt>0</asrwt>
<pdfrwt beam="1">  1       21 0.14400437E+00 0.17762258E+03</pdfrwt>
<pdfrwt beam="2">  1       21 0.62365601E-02 0.17762258E+03</pdfrwt>
<totfact> 0.61863481E+04</totfact>
</mgrwt>
</event>
<event>
 4    1  0.3950955E+000  0.1889181E+03  0.7546771E-02  0.1159441E+00
         21   -1    0    0  503  502  0.00000000000E+00  0.00000000000E+00  0.66811145417E+02  0.66811145417E+02  0.00000000000E+00 0. -1.
         21   -1    0    0  501  503 -0.00000000000E+00 -0.00000000000E+00 -0.64356800798E+03  0.64356800798E+03  0.00000000000E+00 0.  1.
          6    1    1    2  501    0 -0.43681724796E+02  0.62072290444E+02 -0.43480556423E+03  0.47407377170E+03  0.17300000000E+03 0. -1.
         -6    1    1    2    0  502  0.43681724796E+02 -0.62072290444E+02 -0.14195129832E+03  0.23630538170E+03  0.17300000000E+03 0. -1.
<mgrwt>
<rscale>  2 0.18891814E+03</rscale>
<asrwt>0</asrwt>
<pdfrwt beam="1">  1       21 0.10278637E-01 0.18891814E+03</pdfrwt>
<pdfrwt beam="2">  1       21 0.99010466E-01 0.18891814E+03</pdfrwt>
<totfact> 0.65081057E+04</totfact>
</mgrwt>
</event>
<event>
 4    1  0.3950955E+000  0.2331135E+03  0.7546771E-02  0.1124467E+00
         21   -1    0    0  501  502  0.00000000000E+00  0.00000000000E+00  0.14080902853E+03  0.14080902853E+03  0.00000000000E+00 0.  1.
         21   -1    0    0  502  503 -0.00000000000E+00 -0.00000000000E+00 -0.73887952561E+03  0.73887952561E+03  0.00000000000E+00 0. -1.
          6    1    1    2  501    0 -0.71470706792E+02 -0.13894178225E+03  0.49628192614E+01  0.23316627192E+03  0.17300000000E+03 0.  1.
         -6    1    1    2    0  503  0.71470706792E+02  0.13894178225E+03 -0.60303331634E+03  0.64652228222E+03  0.17300000000E+03 0. -1.
<mgrwt>
<rscale>  2 0.23311345E+03</rscale>
<asrwt>0</asrwt>
<pdfrwt beam="1">  1       21 0.21662927E-01 0.23311345E+03</pdfrwt>
<pdfrwt beam="2">  1       21 0.11367377E+00 0.23311345E+03</pdfrwt>
<totfact> 0.11670143E+04</totfact>
</mgrwt>
</event>
<event>
 4    1  0.3950955E+000  0.2390983E+03  0.7546771E-02  0.1120395E+00
         21   -1    0    0  501  502  0.00000000000E+00  0.00000000000E+00  0.39133452980E+02  0.39133452980E+02  0.00000000000E+00 0. -1.
         21   -1    0    0  502  503 -0.00000000000E+00 -0.00000000000E+00 -0.16947755172E+04  0.16947755172E+04  0.00000000000E+00 0.  1.
          6    1    1    2  501    0 -0.14301743509E+02 -0.16442153065E+03 -0.50572752117E+03  0.55939995108E+03  0.17300000000E+03 0. -1.
         -6    1    1    2    0  503  0.14301743509E+02  0.16442153065E+03 -0.11499145431E+04  0.11745090191E+04  0.17300000000E+03 0.  1.
<mgrwt>
<rscale>  2 0.23909826E+03</rscale>
<asrwt>0</asrwt>
<pdfrwt beam="1">  1       21 0.60205308E-02 0.23909826E+03</pdfrwt>
<pdfrwt beam="2">  1       21 0.26073471E+00 0.23909826E+03</pdfrwt>
<totfact> 0.10823141E+04</totfact>
</mgrwt>
</event>
<event>
 4    1  0.3950955E+000  0.1817068E+03  0.7546771E-02  0.1166161E+00
         21   -1    0    0  501  502  0.00000000000E+00  0.00000000000E+00  0.30655218709E+03  0.30655218709E+03  0.00000000000E+00 0. -1.
         21   -1    0    0  502  503 -0.00000000000E+00 -0.00000000000E+00 -0.22220257242E+03  0.22220257242E+03  0.00000000000E+00 0. -1.
          6    1    1    2  501    0  0.38170537939E+02  0.40390153262E+02  0.23195328440E+03  0.29465179550E+03  0.17300000000E+03 0. -1.
         -6    1    1    2    0  503 -0.38170537939E+02 -0.40390153262E+02 -0.14760366973E+03  0.23410296402E+03  0.17300000000E+03 0. -1.
<mgrwt>
<rscale>  2 0.18170678E+03</rscale>
<asrwt>0</asrwt>
<pdfrwt beam="1">  1       21 0.47161875E-01 0.18170678E+03</pdfrwt>
<pdfrwt beam="2">  1       21 0.34185011E-01 0.18170678E+03</pdfrwt>
<totfact> 0.35672597E+04</totfact>
</mgrwt>
</event>
<event>
 4    1  0.3950955E+000  0.1764193E+03  0.7546771E-02  0.1171314E+00
         21   -1    0    0  503  502  0.00000000000E+00  0.00000000000E+00  0.23260532766E+03  0.23260532766E+03  0.00000000000E+00 0.  1.
         21   -1    0    0  501  503 -0.00000000000E+00 -0.00000000000E+00 -0.14163108105E+03  0.14163108105E+03  0.00000000000E+00 0.  1.
          6    1    1    2  501    0 -0.11689404602E+02  0.32528794591E+02  0.15017908901E+01  0.17642567850E+03  0.17300000000E+03 0. -1.
         -6    1    1    2    0  502  0.11689404602E+02 -0.32528794591E+02  0.89472455718E+02  0.19781073022E+03  0.17300000000E+03 0. -1.
<mgrwt>
<rscale>  2 0.17641929E+03</rscale>
<asrwt>0</asrwt>
<pdfrwt beam="1">  1       21 0.35785435E-01 0.17641929E+03</pdfrwt>
<pdfrwt beam="2">  1       21 0.21789397E-01 0.17641929E+03</pdfrwt>
<totfact> 0.14878860E+05</totfact>
</mgrwt>
</event>
<event>
 4    1  0.3950955E+000  0.2097401E+03  0.7546771E-02  0.1141772E+00
         21   -1    0    0  503  502  0.00000000000E+00  0.00000000000E+00  0.35745551860E+03  0.35745551860E+03  0.00000000000E+00 0.  1.
         21   -1    0    0  501  503 -0.00000000000E+00 -0.00000000000E+00 -0.12403555340E+03  0.12403555340E+03  0.00000000000E+00 0.  1.
          6    1    1    2  501    0 -0.72818036378E+02  0.93591809083E+02  0.13798648998E+03  0.25106008159E+03  0.17300000000E+03 0.  1.
         -6    1    1    2    0  502  0.72818036378E+02 -0.93591809083E+02  0.95433475224E+02  0.23043099041E+03  0.17300000000E+03 0.  1.
<mgrwt>
<rscale>  2 0.20974006E+03</rscale>
<asrwt>0</asrwt>
<pdfrwt beam="1">  1       21 0.54993156E-01 0.20974006E+03</pdfrwt>
<pdfrwt beam="2">  1       21 0.19082393E-01 0.20974006E+03</pdfrwt>
<totfact> 0.78028679E+04</totfact>
</mgrwt>
</event>
<event>
 4    1  0.3950955E+000  0.1945001E+03  0.7546771E-02  0.1154464E+00
         21   -1    0    0  503  502  0.00000000000E+00  0.00000000000E+00  0.37742494818E+03  0.37742494818E+03  0.00000000000E+00 0. -1.
         21   -1    0    0  501  503 -0.00000000000E+00 -0.00000000000E+00 -0.10082462358E+03  0.10082462358E+03  0.00000000000E+00 0. -1.
          6    1    1    2  501    0  0.17069020863E+02  0.87234992031E+02  0.11997703203E+03  0.22852742400E+03  0.17300000000E+03 0.  1.
         -6    1    1    2    0  502 -0.17069020863E+02 -0.87234992031E+02  0.15662329257E+03  0.24972214776E+03  0.17300000000E+03 0.  1.
<mgrwt>
<rscale>  2 0.19450012E+03</rscale>
<asrwt>0</asrwt>
<pdfrwt beam="1">  1       21 0.58065376E-01 0.19450012E+03</pdfrwt>
<pdfrwt beam="2">  1       21 0.15511481E-01 0.19450012E+03</pdfrwt>
<totfact> 0.10250145E+05</totfact>
</mgrwt>
</event>
<event>
 4    1  0.3950955E+000  0.1912678E+03  0.7546771E-02  0.1157323E+00
         21   -1    0    0  501  502  0.00000000000E+00  0.00000000000E+00  0.13334459169E+04  0.13334459169E+04  0.00000000000E+00 0. -1.
         21   -1    0    0  502  503 -0.00000000000E+00 -0.00000000000E+00 -0.27443816021E+02  0.27443816021E+02  0.00000000000E+00 0.  1.
          6    1    1    2  501    0 -0.75127986258E+02  0.31782992463E+02  0.64095366296E+03  0.66888337622E+03  0.17300000000E+03 0.  1.
         -6    1    1    2    0  503  0.75127986258E+02 -0.31782992463E+02  0.66504843792E+03  0.69200635670E+03  0.17300000000E+03 0. -1.
<mgrwt>
<rscale>  2 0.19126780E+03</rscale>
<asrwt>0</asrwt>
<pdfrwt beam="1">  1       21 0.20514548E+00 0.19126780E+03</pdfrwt>
<pdfrwt beam="2">  1       21 0.42221266E-02 0.19126780E+03</pdfrwt>
<totfact> 0.44597149E+04</totfact>
</mgrwt>
</event>
<event>
 4    1  0.3950955E+000  0.1860491E+03  0.7546771E-02  0.1162074E+00
         21   -1    0    0  501  502  0.00000000000E+00  0.00000000000E+00  0.11651911557E+04  0.11651911557E+04  0.00000000000E+00 0. -1.
         21   -1    0    0  502  503 -0.00000000000E+00 -0.00000000000E+00 -0.47005428391E+02  0.47005428391E+02  0.00000000000E+00 0. -1.
          6    1    1    2  501    0 -0.35584043264E+02 -0.58472581012E+02  0.92677547913E+03  0.94526560055E+03  0.17300000000E+03 0. -1.
         -6    1    1    2    0  503  0.35584043264E+02  0.58472581012E+02  0.19141024817E+03  0.26693098353E+03  0.17300000000E+03 0. -1.
<mgrwt>
<rscale>  2 0.18604910E+03</rscale>
<asrwt>0</asrwt>
<pdfrwt beam="1">  1       21 0.17926016E+00 0.18604910E+03</pdfrwt>
<pdfrwt beam="2">  1       21 0.72316053E-02 0.18604910E+03</pdfrwt>
<totfact> 0.26441816E+04</totfact>
</mgrwt>
</event>
<event>
 4    1  0.3950955E+000  0.1805747E+03  0.7546771E-02  0.1167248E+00
         21   -1    0    0  503  502  0.00000000000E+00  0.00000000000E+00  0.14253154429E+04  0.14253154429E+04  0.00000000000E+00 0. -1.
         21   -1    0    0  501  503 -0.00000000000E+00 -0.00000000000E+00 -0.23656116129E+02  0.23656116129E+02  0.00000000000E+00 0. -1.
          6    1    1    2  501    0  0.51489814782E+02  0.51972957996E+01  0.56936587584E+03  0.59731458502E+03  0.17300000000E+03 0. -1.
         -6    1    1    2    0  502 -0.51489814782E+02 -0.51972957996E+01  0.83229345093E+03  0.85165697401E+03  0.17300000000E+03 0. -1.
<mgrwt>
<rscale>  2 0.18057467E+03</rscale>
<asrwt>0</asrwt>
<pdfrwt beam="1">  1       21 0.21927923E+00 0.18057467E+03</pdfrwt>
<pdfrwt beam="2">  1       21 0.36394036E-02 0.18057467E+03</pdfrwt>
<totfact> 0.47044281E+04</totfact>
</mgrwt>
</event>
<event>
 4    1  0.3950955E+000  0.1771205E+03  0.7546771E-02  0.1170619E+00
         21   -1    0    0  501  502  0.00000000000E+00  0.00000000000E+00  0.79281758366E+03  0.79281758366E+03  0.00000000000E+00 0.  1.
         21   -1    0    0  502  503 -0.00000000000E+00 -0.00000000000E+00 -0.41308978337E+02  0.41308978337E+02  0.00000000000E+00 0.  1.
          6    1    1    2  501    0  0.33646523488E+02  0.17623843928E+02  0.46132855127E+03  0.49416163412E+03  0.17300000000E+03 0. -1.
         -6    1    1    2    0  503 -0.33646523488E+02 -0.17623843928E+02  0.29018005405E+03  0.33996492788E+03  0.17300000000E+03 0. -1.
<mgrwt>
<rscale>  2 0.17712055E+03</rscale>
<asrwt>0</asrwt>
<pdfrwt beam="1">  1       21 0.12197192E+00 0.17712055E+03</pdfrwt>
<pdfrwt beam="2">  1       21 0.63552280E-02 0.17712055E+03</pdfrwt>
<totfact> 0.91239293E+04</totfact>
</mgrwt>
</event>
<event>
 4    1  0.3950955E+000  0.2061684E+03  0.7546771E-02  0.1144637E+00
         21   -1    0    0  503  502  0.00000000000E+00  0.00000000000E+00  0.24166613539E+03  0.24166613539E+03  0.00000000000E+00 0.  1.
         21   -1    0    0  501  503 -0.00000000000E+00 -0.00000000000E+00 -0.46549643112E+03  0.46549643112E+03  0.00000000000E+00 0. -1.
          6    1    1    2  501    0 -0.11202051405E+03  0.52750220909E+01 -0.39080905261E+03  0.44185646655E+03  0.17300000000E+03 0. -1.
         -6    1    1    2    0  502  0.11202051405E+03 -0.52750220909E+01  0.16697875688E+03  0.26530609996E+03  0.17300000000E+03 0.  1.
<mgrwt>
<rscale>  2 0.20616843E+03</rscale>
<asrwt>0</asrwt>
<pdfrwt beam="1">  1       21 0.37179405E-01 0.20616843E+03</pdfrwt>
<pdfrwt beam="2">  1       21 0.71614836E-01 0.20616843E+03</pdfrwt>
<totfact> 0.12182883E+04</totfact>
</mgrwt>
</event>
<event>
 4    1  0.3950955E+000  0.2253465E+03  0.7546771E-02  0.1129959E+00
         21   -1    0    0  501  502  0.00000000000E+00  0.00000000000E+00  0.30170714164E+03  0.30170714164E+03  0.00000000000E+00 0. -1.
         21   -1    0    0  502  503 -0.00000000000E+00 -0.00000000000E+00 -0.19672229661E+03  0.19672229661E+03  0.00000000000E+00 0.  1.
          6    1    1    2  501    0 -0.11515112791E+03  0.87133659311E+02  0.14719932399E+03  0.26916295775E+03  0.17300000000E+03 0. -1.
         -6    1    1    2    0  503  0.11515112791E+03 -0.87133659311E+02 -0.42214478949E+02  0.22926648049E+03  0.17300000000E+03 0.  1.
<mgrwt>
<rscale>  2 0.22534653E+03</rscale>
<asrwt>0</asrwt>
<pdfrwt beam="1">  1       21 0.46416484E-01 0.22534653E+03</pdfrwt>
<pdfrwt beam="2">  1       21 0.30264969E-01 0.22534653E+03</pdfrwt>
<totfact> 0.45847222E+04</totfact>
</mgrwt>
</event>
<event>
 4    1  0.3950955E+000  0.1968021E+03  0.7546771E-02  0.1152465E+00
         21   -1    0    0  501  502  0.00000000000E+00  0.00000000000E+00  0.10526289276E+03  0.10526289276E+03  0.00000000000E+00 0. -1.
         21   -1    0    0  502  503 -0.00000000000E+00 -0.00000000000E+00 -0.77883893600E+03  0.77883893600E+03  0.00000000000E+00 0. -1.
          6    1    1    2  501    0 -0.55484239356E+02 -0.75654350554E+02 -0.15708433828E+02  0.19742805390E+03  0.17300000000E+03 0. -1.
         -6    1    1    2    0  503  0.55484239356E+02  0.75654350554E+02 -0.65786760941E+03  0.68667377486E+03  0.17300000000E+03 0. -1.
<mgrwt>
<rscale>  2 0.19680214E+03</rscale>
<asrwt>0</asrwt>
<pdfrwt beam="1">  1       21 0.16194291E-01 0.19680214E+03</pdfrwt>
<pdfrwt beam="2">  1       21 0.11982138E+00 0.19680214E+03</pdfrwt>
<totfact> 0.18029306E+04</totfact>
</mgrwt>
</event>
<event>
 4    1  0.3950955E+000  0.2883130E+03  0.7546771E-02  0.1091233E+00
         21   -1    0    0  501  502  0.00000000000E+00  0.00000000000E+00  0.78508731588E+03  0.78508731588E+03  0.00000000000E+00 0. -1.
         21   -1    0    0  502  503 -0.00000000000E+00 -0.00000000000E+00 -0.11838899684E+03  0.11838899684E+03  0.00000000000E+00 0.  1.
          6    1    1    2  501    0 -0.83284395493E+02 -0.21507931483E+03  0.48019327882E+03  0.56009819427E+03  0.17300000000E+03 0. -1.
         -6    1    1    2    0  503  0.83284395493E+02  0.21507931483E+03  0.18650504022E+03  0.34337811845E+03  0.17300000000E+03 0.  1.
<mgrwt>
<rscale>  2 0.28831303E+03</rscale>
<asrwt>0</asrwt>
<pdfrwt beam="1">  1       21 0.12078266E+00 0.28831303E+03</pdfrwt>
<pdfrwt beam="2">  1       21 0.18213692E-01 0.28831303E+03</pdfrwt>
<totfact> 0.13511210E+04</totfact>
</mgrwt>
</event>
<event>
 4    1  0.3950955E+000  0.4097159E+03  0.7546771E-02  0.1040466E+00
         21   -1    0    0  503  502  0.00000000000E+00  0.00000000000E+00  0.11667891684E+04  0.11667891684E+04  0.00000000000E+00 0.  1.
         21   -1    0    0  501  503 -0.00000000000E+00 -0.00000000000E+00 -0.23394807738E+03  0.23394807738E+03  0.00000000000E+00 0. -1.
          6    1    1    2  501    0 -0.35120182538E+03 -0.12081151854E+03  0.31836236803E+02  0.41095095952E+03  0.17300000000E+03 0. -1.
         -6    1    1    2    0  502  0.35120182538E+03  0.12081151854E+03  0.90100485422E+03  0.98978628627E+03  0.17300000000E+03 0.  1.
<mgrwt>
<rscale>  2 0.40971593E+03</rscale>
<asrwt>0</asrwt>
<pdfrwt beam="1">  1       21 0.17950602E+00 0.40971593E+03</pdfrwt>
<pdfrwt beam="2">  1       21 0.35992013E-01 0.40971593E+03</pdfrwt>
<totfact> 0.11698489E+03</totfact>
</mgrwt>
</event>
<event>
 4    1  0.3950955E+000  0.2026959E+03  0.7546771E-02  0.1147484E+00
         21   -1    0    0  503  502  0.00000000000E+00  0.00000000000E+00  0.82702672536E+02  0.82702672536E+02  0.00000000000E+00 0. -1.
         21   -1    0    0  501  503 -0.00000000000E+00 -0.00000000000E+00 -0.49821336860E+03  0.49821336860E+03  0.00000000000E+00 0. -1.
          6    1    1    2  501    0  0.78049462952E+02  0.71168070512E+02 -0.22329677646E+03  0.30157430810E+03  0.17300000000E+03 0. -1.
         -6    1    1    2    0  502 -0.78049462952E+02 -0.71168070512E+02 -0.19221391961E+03  0.27934173304E+03  0.17300000000E+03 0. -1.
<mgrwt>
<rscale>  2 0.20269586E+03</rscale>
<asrwt>0</asrwt>
<pdfrwt beam="1">  1       21 0.12723488E-01 0.20269586E+03</pdfrwt>
<pdfrwt beam="2">  1       21 0.76648209E-01 0.20269586E+03</pdfrwt>
<totfact> 0.79660395E+04</totfact>
</mgrwt>
</event>
<event>
 4    1  0.3950955E+000  0.2721986E+03  0.7546771E-02  0.1100028E+00
         21   -1    0    0  503  502  0.00000000000E+00  0.00000000000E+00  0.47110476087E+03  0.47110476087E+03  0.00000000000E+00 0. -1.
         21   -1    0    0  501  503 -0.00000000000E+00 -0.00000000000E+00 -0.97584770885E+03  0.97584770885E+03  0.00000000000E+00 0.  1.
          6    1    1    2  501    0 -0.17225789766E+03 -0.12037558719E+03 -0.91498821478E+03  0.95461798562E+03  0.17300000000E+03 0.  1.
         -6    1    1    2    0  502  0.17225789766E+03  0.12037558719E+03  0.41024526680E+03  0.49233448409E+03  0.17300000000E+03 0. -1.
<mgrwt>
<rscale>  2 0.27219858E+03</rscale>
<asrwt>0</asrwt>
<pdfrwt beam="1">  1       21 0.72477656E-01 0.27219858E+03</pdfrwt>
<pdfrwt beam="2">  1       21 0.15013042E+00 0.27219858E+03</pdfrwt>
<totfact> 0.47360202E+02</totfact>
</mgrwt>
</event>
<event>
 4    1  0.3950955E+000  0.2161783E+03  0.7546771E-02  0.1136765E+00
         21   -1    0    0  503  502  0.00000000000E+00  0.00000000000E+00  0.26486478787E+03  0.26486478787E+03  0.00000000000E+00 0.  1.
         21   -1    0    0  501  503 -0.00000000000E+00 -0.00000000000E+00 -0.25222860966E+03  0.25222860966E+03  0.00000000000E+00 0.  1.
          6    1    1    2  501    0 -0.11493590603E+03 -0.59948280506E+02 -0.13540492471E+03  0.25508342256E+03  0.17300000000E+03 0.  1.
         -6    1    1    2    0  502  0.11493590603E+03  0.59948280506E+02  0.14804110292E+03  0.26200997497E+03  0.17300000000E+03 0.  1.
<mgrwt>
<rscale>  2 0.21617830E+03</rscale>
<asrwt>0</asrwt>
<pdfrwt beam="1">  1       21 0.40748429E-01 0.21617830E+03</pdfrwt>
<pdfrwt beam="2">  1       21 0.38804401E-01 0.21617830E+03</pdfrwt>
<totfact> 0.36705482E+04</totfact>
</mgrwt>
</event>
<event>
 4    1  0.3950955E+000  0.2535600E+03  0.7546771E-02  0.1111075E+00
         21   -1    0    0  503  502  0.00000000000E+00  0.00000000000E+00  0.34144660203E+02  0.34144660203E+02  0.00000000000E+00 0.  1.
         21   -1    0    0  501  503 -0.00000000000E+00 -0.00000000000E+00 -0.18969574016E+04  0.18969574016E+04  0.00000000000E+00 0. -1.
          6    1    1    2  501    0  0.18136197105E+03 -0.38360149071E+02 -0.10143791005E+04  0.10455896065E+04  0.17300000000E+03 0.  1.
         -6    1    1    2    0  502 -0.18136197105E+03  0.38360149071E+02 -0.84843364081E+03  0.88551245527E+03  0.17300000000E+03 0.  1.
<mgrwt>
<rscale>  2 0.25355998E+03</rscale>
<asrwt>0</asrwt>
<pdfrwt beam="1">  1       21 0.52530247E-02 0.25355998E+03</pdfrwt>
<pdfrwt beam="2">  1       21 0.29183960E+00 0.25355998E+03</pdfrwt>
<totfact> 0.88845110E+03</totfact>
</mgrwt>
</event>
<event>
 4    1  0.3950955E+000  0.2314976E+03  0.7546771E-02  0.1125590E+00
         21   -1    0    0  503  502  0.00000000000E+00  0.00000000000E+00  0.87392858845E+02  0.87392858845E+02  0.00000000000E+00 0. -1.
         21   -1    0    0  501  503 -0.00000000000E+00 -0.00000000000E+00 -0.61359553549E+03  0.61359553549E+03  0.00000000000E+00 0. -1.
          6    1    1    2  501    0  0.14266469719E+03 -0.57523224074E+02 -0.25444208075E+03  0.34399405459E+03  0.17300000000E+03 0. -1.
         -6    1    1    2    0  502 -0.14266469719E+03  0.57523224074E+02 -0.27176059589E+03  0.35699433975E+03  0.17300000000E+03 0. -1.
<mgrwt>
<rscale>  2 0.23149760E+03</rscale>
<asrwt>0</asrwt>
<pdfrwt beam="1">  1       21 0.13445056E-01 0.23149760E+03</pdfrwt>
<pdfrwt beam="2">  1       21 0.94399309E-01 0.23149760E+03</pdfrwt>
<totfact> 0.44117214E+04</totfact>
</mgrwt>
</event>
<event>
 4    1  0.3950955E+000  0.2491023E+03  0.7546771E-02  0.1113873E+00
         21   -1    0    0  503  502  0.00000000000E+00  0.00000000000E+00  0.50195889060E+03  0.50195889060E+03  0.00000000000E+00 0. -1.
         21   -1    0    0  501  503 -0.00000000000E+00 -0.00000000000E+00 -0.12546944669E+03  0.12546944669E+03  0.00000000000E+00 0.  1.
          6    1    1    2  501    0 -0.16259478209E+03  0.75404959575E+02  0.15015307247E+03  0.29085720940E+03  0.17300000000E+03 0.  1.
         -6    1    1    2    0  502  0.16259478209E+03 -0.75404959575E+02  0.22633637144E+03  0.33657112788E+03  0.17300000000E+03 0. -1.
<mgrwt>
<rscale>  2 0.24910233E+03</rscale>
<asrwt>0</asrwt>
<pdfrwt beam="1">  1       21 0.77224444E-01 0.24910233E+03</pdfrwt>
<pdfrwt beam="2">  1       21 0.19302992E-01 0.24910233E+03</pdfrwt>
<totfact> 0.35723826E+04</totfact>
</mgrwt>
</event>
<event>
 4    1  0.3950955E+000  0.2879041E+03  0.7546771E-02  0.1091449E+00
         21   -1    0    0  503  502  0.00000000000E+00  0.00000000000E+00  0.23343765156E+03  0.23343765156E+03  0.00000000000E+00 0. -1.
         21   -1    0    0  501  503 -0.00000000000E+00 -0.00000000000E+00 -0.47321986051E+03  0.47321986051E+03  0.00000000000E+00 0.  1.
          6    1    1    2  501    0 -0.12734111718E+03  0.19168725807E+03 -0.29643304870E+03  0.41323276418E+03  0.17300000000E+03 0. -1.
         -6    1    1    2    0  502  0.12734111718E+03 -0.19168725807E+03  0.56650839746E+02  0.29342474789E+03  0.17300000000E+03 0.  1.
<mgrwt>
<rscale>  2 0.28790409E+03</rscale>
<asrwt>0</asrwt>
<pdfrwt beam="1">  1       21 0.35913485E-01 0.28790409E+03</pdfrwt>
<pdfrwt beam="2">  1       21 0.72803056E-01 0.28790409E+03</pdfrwt>
<totfact> 0.12041317E+04</totfact>
</mgrwt>
</event>
<event>
 4    1  0.3950955E+000  0.2491014E+03  0.7546771E-02  0.1113874E+00
         21   -1    0    0  501  502  0.00000000000E+00  0.00000000000E+00  0.77172188953E+02  0.77172188953E+02  0.00000000000E+00 0.  1.
         21   -1    0    0  502  503 -0.00000000000E+00 -0.00000000000E+00 -0.90472885404E+03  0.90472885404E+03  0.00000000000E+00 0. -1.
          6    1    1    2  501    0 -0.17126910525E+03  0.52814765311E+02 -0.25001604669E+03  0.35292992145E+03  0.17300000000E+03 0.  1.
         -6    1    1    2    0  503  0.17126910525E+03 -0.52814765311E+02 -0.57754061839E+03  0.62897112154E+03  0.17300000000E+03 0. -1.
<mgrwt>
<rscale>  2 0.24910140E+03</rscale>
<asrwt>0</asrwt>
<pdfrwt beam="1">  1       21 0.11872645E-01 0.24910140E+03</pdfrwt>
<pdfrwt beam="2">  1       21 0.13918905E+00 0.24910140E+03</pdfrwt>
<totfact> 0.21009326E+04</totfact>
</mgrwt>
</event>
<event>
 4    1  0.3950955E+000  0.2243055E+03  0.7546771E-02  0.1130713E+00
         21   -1    0    0  503  502  0.00000000000E+00  0.00000000000E+00  0.23036292195E+03  0.23036292195E+03  0.00000000000E+00 0. -1.
         21   -1    0    0  501  503 -0.00000000000E+00 -0.00000000000E+00 -0.23537126803E+03  0.23537126803E+03  0.00000000000E+00 0. -1.
          6    1    1    2  501    0  0.13231388715E+03 -0.53637433961E+02 -0.65020778463E+02  0.23353937717E+03  0.17300000000E+03 0. -1.
         -6    1    1    2    0  502 -0.13231388715E+03  0.53637433961E+02  0.60012432379E+02  0.23219481281E+03  0.17300000000E+03 0. -1.
<mgrwt>
<rscale>  2 0.22430546E+03</rscale>
<asrwt>0</asrwt>
<pdfrwt beam="1">  1       21 0.35440450E-01 0.22430546E+03</pdfrwt>
<pdfrwt beam="2">  1       21 0.36210964E-01 0.22430546E+03</pdfrwt>
<totfact> 0.55646736E+04</totfact>
</mgrwt>
</event>
<event>
 4    1  0.3950955E+000  0.1773382E+03  0.7546771E-02  0.1170404E+00
         21   -1    0    0  503  502  0.00000000000E+00  0.00000000000E+00  0.85903132133E+03  0.85903132133E+03  0.00000000000E+00 0.  1.
         21   -1    0    0  501  503 -0.00000000000E+00 -0.00000000000E+00 -0.38120090766E+02  0.38120090766E+02  0.00000000000E+00 0. -1.
          6    1    1    2  501    0 -0.37918088506E+02 -0.90593553424E+01  0.49974662484E+03  0.53027874028E+03  0.17300000000E+03 0.  1.
         -6    1    1    2    0  502  0.37918088506E+02  0.90593553424E+01  0.32116460572E+03  0.36687267181E+03  0.17300000000E+03 0. -1.
<mgrwt>
<rscale>  2 0.17733825E+03</rscale>
<asrwt>0</asrwt>
<pdfrwt beam="1">  1       21 0.13215865E+00 0.17733825E+03</pdfrwt>
<pdfrwt beam="2">  1       21 0.58646300E-02 0.17733825E+03</pdfrwt>
<totfact> 0.85625251E+04</totfact>
</mgrwt>
</event>
<event>
 4    1  0.3950955E+000  0.2883527E+03  0.7546771E-02  0.1091212E+00
         21   -1    0    0  503  502  0.00000000000E+00  0.00000000000E+00  0.26389123814E+03  0.26389123814E+03  0.00000000000E+00 0.  1.
         21   -1    0    0  501  503 -0.00000000000E+00 -0.00000000000E+00 -0.32029485677E+03  0.32029485677E+03  0.00000000000E+00 0. -1.
          6    1    1    2  501    0  0.62212516544E+02  0.22214376842E+03 -0.65467085364E+02  0.29569103864E+03  0.17300000000E+03 0. -1.
         -6    1    1    2    0  502 -0.62212516544E+02 -0.22214376842E+03  0.90634667351E+01  0.28849505627E+03  0.17300000000E+03 0. -1.
<mgrwt>
<rscale>  2 0.28835265E+03</rscale>
<asrwt>0</asrwt>
<pdfrwt beam="1">  1       21 0.40598652E-01 0.28835265E+03</pdfrwt>
<pdfrwt beam="2">  1       21 0.49276132E-01 0.28835265E+03</pdfrwt>
<totfact> 0.21898172E+04</totfact>
</mgrwt>
</event>
<event>
 4    1  0.3950955E+000  0.3923350E+03  0.7546771E-02  0.1046467E+00
         21   -1    0    0  501  502  0.00000000000E+00  0.00000000000E+00  0.33896731168E+03  0.33896731168E+03  0.00000000000E+00 0. -1.
         21   -1    0    0  502  503 -0.00000000000E+00 -0.00000000000E+00 -0.59020163589E+03  0.59020163589E+03  0.00000000000E+00 0.  1.
          6    1    1    2  501    0  0.18542477255E+02  0.35164457719E+03  0.97477033754E+02  0.40426291474E+03  0.17300000000E+03 0. -1.
         -6    1    1    2    0  503 -0.18542477255E+02 -0.35164457719E+03 -0.34871135797E+03  0.52490603283E+03  0.17300000000E+03 0.  1.
<mgrwt>
<rscale>  2 0.39233497E+03</rscale>
<asrwt>0</asrwt>
<pdfrwt beam="1">  1       21 0.52148818E-01 0.39233497E+03</pdfrwt>
<pdfrwt beam="2">  1       21 0.90800251E-01 0.39233497E+03</pdfrwt>
<totfact> 0.31970608E+03</totfact>
</mgrwt>
</event>
<event>
 4    1  0.3950955E+000  0.2340410E+03  0.7546771E-02  0.1123827E+00
         21   -1    0    0  501  502  0.00000000000E+00  0.00000000000E+00  0.73742488751E+03  0.73742488751E+03  0.00000000000E+00 0. -1.
         21   -1    0    0  502  503 -0.00000000000E+00 -0.00000000000E+00 -0.14055976924E+03  0.14055976924E+03  0.00000000000E+00 0. -1.
          6    1    1    2  501    0  0.11232302329E+03  0.11058819218E+03  0.59988587476E+03  0.64392412018E+03  0.17300000000E+03 0. -1.
         -6    1    1    2    0  503 -0.11232302329E+03 -0.11058819218E+03 -0.30207564877E+01  0.23406053657E+03  0.17300000000E+03 0. -1.
<mgrwt>
<rscale>  2 0.23404104E+03</rscale>
<asrwt>0</asrwt>
<pdfrwt beam="1">  1       21 0.11344998E+00 0.23404104E+03</pdfrwt>
<pdfrwt beam="2">  1       21 0.21624580E-01 0.23404104E+03</pdfrwt>
<totfact> 0.11759482E+04</totfact>
</mgrwt>
</event>
<event>
 4    1  0.3950955E+000  0.1752960E+03  0.7546771E-02  0.1172435E+00
         21   -1    0    0  503  502  0.00000000000E+00  0.00000000000E+00  0.14823204749E+03  0.14823204749E+03  0.00000000000E+00 0. -1.
         21   -1    0    0  501  503 -0.00000000000E+00 -0.00000000000E+00 -0.46298948325E+03  0.46298948325E+03  0.00000000000E+00 0. -1.
          6    1    1    2  501    0 -0.27126652176E+02 -0.79887456861E+01 -0.38448990818E+03  0.42256498294E+03  0.17300000000E+03 0. -1.
         -6    1    1    2    0  502  0.27126652176E+02  0.79887456861E+01  0.69732472425E+02  0.18865654780E+03  0.17300000000E+03 0. -1.
<mgrwt>
<rscale>  2 0.17529596E+03</rscale>
<asrwt>0</asrwt>
<pdfrwt beam="1">  1       21 0.22804930E-01 0.17529596E+03</pdfrwt>
<pdfrwt beam="2">  1       21 0.71229151E-01 0.17529596E+03</pdfrwt>
<totfact> 0.32464332E+04</totfact>
</mgrwt>
</event>
<event>
 4    1  0.3950955E+000  0.2958296E+03  0.7546771E-02  0.1087344E+00
         21   -1    0    0  503  502  0.00000000000E+00  0.00000000000E+00  0.34873786564E+03  0.34873786564E+03  0.00000000000E+00 0.  1.
         21   -1    0    0  501  503 -0.00000000000E+00 -0.00000000000E+00 -0.40933936570E+03  0.40933936570E+03  0.00000000000E+00 0. -1.
          6    1    1    2  501    0 -0.23983315320E+03  0.81379198569E+01 -0.26608080831E+03  0.39788712427E+03  0.17300000000E+03 0. -1.
         -6    1    1    2    0  502  0.23983315320E+03 -0.81379198569E+01  0.20547930824E+03  0.36019010707E+03  0.17300000000E+03 0.  1.
<mgrwt>
<rscale>  2 0.29582963E+03</rscale>
<asrwt>0</asrwt>
<pdfrwt beam="1">  1       21 0.53651979E-01 0.29582963E+03</pdfrwt>
<pdfrwt beam="2">  1       21 0.62975287E-01 0.29582963E+03</pdfrwt>
<totfact> 0.72125750E+03</totfact>
</mgrwt>
</event>
<event>
 4    1  0.3950955E+000  0.2797432E+03  0.7546771E-02  0.1095829E+00
         21   -1    0    0  503  502  0.00000000000E+00  0.00000000000E+00  0.54305034619E+02  0.54305034619E+02  0.00000000000E+00 0. -1.
         21   -1    0    0  501  503 -0.00000000000E+00 -0.00000000000E+00 -0.14495312286E+04  0.14495312286E+04  0.00000000000E+00 0. -1.
          6    1    1    2  501    0  0.20575261430E+03 -0.77415098879E+02 -0.64009528835E+03  0.69855437440E+03  0.17300000000E+03 0. -1.
         -6    1    1    2    0  502 -0.20575261430E+03  0.77415098879E+02 -0.75513090563E+03  0.80528188882E+03  0.17300000000E+03 0. -1.
<mgrwt>
<rscale>  2 0.27974316E+03</rscale>
<asrwt>0</asrwt>
<pdfrwt beam="1">  1       21 0.83546210E-02 0.27974316E+03</pdfrwt>
<pdfrwt beam="2">  1       21 0.22300480E+00 0.27974316E+03</pdfrwt>
<totfact> 0.10050022E+04</totfact>
</mgrwt>
</event>
<event>
 4    1  0.3950955E+000  0.2432380E+03  0.7546771E-02  0.1117654E+00
         21   -1    0    0  503  502  0.00000000000E+00  0.00000000000E+00  0.33485962152E+03  0.33485962152E+03  0.00000000000E+00 0. -1.
         21   -1    0    0  501  503 -0.00000000000E+00 -0.00000000000E+00 -0.26267557689E+03  0.26267557689E+03  0.00000000000E+00 0. -1.
          6    1    1    2  501    0 -0.10212279023E+03  0.13713744896E+03 -0.13484988229E+03  0.27811730429E+03  0.17300000000E+03 0. -1.
         -6    1    1    2    0  502  0.10212279023E+03 -0.13713744896E+03  0.20703392691E+03  0.31941789412E+03  0.17300000000E+03 0. -1.
<mgrwt>
<rscale>  2 0.24323804E+03</rscale>
<asrwt>0</asrwt>
<pdfrwt beam="1">  1       21 0.51516865E-01 0.24323804E+03</pdfrwt>
<pdfrwt beam="2">  1       21 0.40411627E-01 0.24323804E+03</pdfrwt>
<totfact> 0.20541010E+04</totfact>
</mgrwt>
</event>
<event>
 4    1  0.3950955E+000  0.1841622E+03  0.7546771E-02  0.1163835E+00
         21   -1    0    0  501  502  0.00000000000E+00  0.00000000000E+00  0.15174083102E+03  0.15174083102E+03  0.00000000000E+00 0. -1.
         21   -1    0    0  502  503 -0.00000000000E+00 -0.00000000000E+00 -0.27239711209E+03  0.27239711209E+03  0.00000000000E+00 0. -1.
          6    1    1    2  501    0 -0.59321520685E+02  0.21625359514E+02  0.29511907149E+02  0.18651180031E+03  0.17300000000E+03 0.  1.
         -6    1    1    2    0  503  0.59321520685E+02 -0.21625359514E+02 -0.15016818822E+03  0.23762614281E+03  0.17300000000E+03 0.  1.
<mgrwt>
<rscale>  2 0.18416215E+03</rscale>
<asrwt>0</asrwt>
<pdfrwt beam="1">  1       21 0.23344743E-01 0.18416215E+03</pdfrwt>
<pdfrwt beam="2">  1       21 0.41907248E-01 0.18416215E+03</pdfrwt>
<totfact> 0.94879670E+04</totfact>
</mgrwt>
</event>
<event>
 4    1  0.3950955E+000  0.1778549E+03  0.7546771E-02  0.1169895E+00
         21   -1    0    0  503  502  0.00000000000E+00  0.00000000000E+00  0.45222915405E+03  0.45222915405E+03  0.00000000000E+00 0.  1.
         21   -1    0    0  501  503 -0.00000000000E+00 -0.00000000000E+00 -0.80847078108E+02  0.80847078108E+02  0.00000000000E+00 0.  1.
          6    1    1    2  501    0 -0.27478077251E+02  0.30794996562E+02  0.87825772974E+02  0.19835761377E+03  0.17300000000E+03 0.  1.
         -6    1    1    2    0  502  0.27478077251E+02 -0.30794996562E+02  0.28355630297E+03  0.33471861839E+03  0.17300000000E+03 0.  1.
<mgrwt>
<rscale>  2 0.17785493E+03</rscale>
<asrwt>0</asrwt>
<pdfrwt beam="1">  1       21 0.69573714E-01 0.17785493E+03</pdfrwt>
<pdfrwt beam="2">  1       21 0.12438012E-01 0.17785493E+03</pdfrwt>
<totfact> 0.10394001E+05</totfact>
</mgrwt>
</event>
<event>
 4    1  0.3950955E+000  0.1800526E+03  0.7546771E-02  0.1167752E+00
         21   -1    0    0  501  502  0.00000000000E+00  0.00000000000E+00  0.89039687223E+03  0.89039687223E+03  0.00000000000E+00 0. -1.
         21   -1    0    0  502  503 -0.00000000000E+00 -0.00000000000E+00 -0.36804470527E+02  0.36804470527E+02  0.00000000000E+00 0. -1.
          6    1    1    2  501    0  0.26804940585E+02 -0.42088279172E+02  0.47482058573E+03  0.50781248184E+03  0.17300000000E+03 0. -1.
         -6    1    1    2    0  503 -0.26804940585E+02  0.42088279172E+02  0.37877181598E+03  0.41938886092E+03  0.17300000000E+03 0. -1.
<mgrwt>
<rscale>  2 0.18005257E+03</rscale>
<asrwt>0</asrwt>
<pdfrwt beam="1">  1       21 0.13698412E+00 0.18005257E+03</pdfrwt>
<pdfrwt beam="2">  1       21 0.56622269E-02 0.18005257E+03</pdfrwt>
<totfact> 0.82896106E+04</totfact>
</mgrwt>
</event>
<event>
 4    1  0.3950955E+000  0.2312981E+03  0.7546771E-02  0.1125729E+00
         21   -1    0    0  503  502  0.00000000000E+00  0.00000000000E+00  0.41723901415E+03  0.41723901415E+03  0.00000000000E+00 0. -1.
         21   -1    0    0  501  503 -0.00000000000E+00 -0.00000000000E+00 -0.15217241043E+03  0.15217241043E+03  0.00000000000E+00 0. -1.
          6    1    1    2  501    0 -0.15176617931E+03  0.23170229317E+02  0.19581507232E+02  0.23212554391E+03  0.17300000000E+03 0. -1.
         -6    1    1    2    0  502  0.15176617931E+03 -0.23170229317E+02  0.24548509649E+03  0.33728588068E+03  0.17300000000E+03 0. -1.
<mgrwt>
<rscale>  2 0.23129815E+03</rscale>
<asrwt>0</asrwt>
<pdfrwt beam="1">  1       21 0.64190617E-01 0.23129815E+03</pdfrwt>
<pdfrwt beam="2">  1       21 0.23411140E-01 0.23129815E+03</pdfrwt>
<totfact> 0.37704357E+04</totfact>
</mgrwt>
</event>
<event>
 4    1  0.3950955E+000  0.1987235E+03  0.7546771E-02  0.1150820E+00
         21   -1    0    0  501  502  0.00000000000E+00  0.00000000000E+00  0.39893406112E+03  0.39893406112E+03  0.00000000000E+00 0. -1.
         21   -1    0    0  502  503 -0.00000000000E+00 -0.00000000000E+00 -0.10635684030E+03  0.10635684030E+03  0.00000000000E+00 0. -1.
          6    1    1    2  501    0 -0.15523101723E+02  0.96545628756E+02  0.21277447423E+03  0.29114258020E+03  0.17300000000E+03 0. -1.
         -6    1    1    2    0  503  0.15523101723E+02 -0.96545628756E+02  0.79802746590E+02  0.21414832122E+03  0.17300000000E+03 0. -1.
<mgrwt>
<rscale>  2 0.19872349E+03</rscale>
<asrwt>0</asrwt>
<pdfrwt beam="1">  1       21 0.61374470E-01 0.19872349E+03</pdfrwt>
<pdfrwt beam="2">  1       21 0.16362591E-01 0.19872349E+03</pdfrwt>
<totfact> 0.82376202E+04</totfact>
</mgrwt>
</event>
<event>
 4    1  0.3950955E+000  0.1787677E+03  0.7546771E-02  0.1169001E+00
         21   -1    0    0  503  502  0.00000000000E+00  0.00000000000E+00  0.62975623203E+03  0.62975623203E+03  0.00000000000E+00 0.  1.
         21   -1    0    0  501  503 -0.00000000000E+00 -0.00000000000E+00 -0.15830565401E+03  0.15830565401E+03  0.00000000000E+00 0.  1.
          6    1    1    2  501    0  0.20476349376E+02 -0.40119923408E+02 -0.89067155209E+02  0.19972693177E+03  0.17300000000E+03 0.  1.
         -6    1    1    2    0  502 -0.20476349376E+02  0.40119923408E+02  0.56051773323E+03  0.58833495426E+03  0.17300000000E+03 0.  1.
<mgrwt>
<rscale>  2 0.17876770E+03</rscale>
<asrwt>0</asrwt>
<pdfrwt beam="1">  1       21 0.96885573E-01 0.17876770E+03</pdfrwt>
<pdfrwt beam="2">  1       21 0.24354716E-01 0.17876770E+03</pdfrwt>
<totfact> 0.14214289E+04</totfact>
</mgrwt>
</event>
<event>
 4    1  0.3950955E+000  0.2804192E+03  0.7546771E-02  0.1095460E+00
         21   -1    0    0  501  502  0.00000000000E+00  0.00000000000E+00  0.32592986953E+03  0.32592986953E+03  0.00000000000E+00 0.  1.
         21   -1    0    0  502  503 -0.00000000000E+00 -0.00000000000E+00 -0.32121473786E+03  0.32121473786E+03  0.00000000000E+00 0. -1.
          6    1    1    2  501    0  0.20992083812E+03  0.68111515462E+02  0.16378843099E+03  0.32474849798E+03  0.17300000000E+03 0.  1.
         -6    1    1    2    0  503 -0.20992083812E+03 -0.68111515462E+02 -0.15907329932E+03  0.32239610942E+03  0.17300000000E+03 0. -1.
<mgrwt>
<rscale>  2 0.28041922E+03</rscale>
<asrwt>0</asrwt>
<pdfrwt beam="1">  1       21 0.50143057E-01 0.28041922E+03</pdfrwt>
<pdfrwt beam="2">  1       21 0.49417652E-01 0.28041922E+03</pdfrwt>
<totfact> 0.14094634E+04</totfact>
</mgrwt>
</event>
<event>
 4    1  0.3950955E+000  0.2817416E+03  0.7546771E-02  0.1094741E+00
         21   -1    0    0  503  502  0.00000000000E+00  0.00000000000E+00  0.79734923030E+03  0.79734923030E+03  0.00000000000E+00 0. -1.
         21   -1    0    0  501  503 -0.00000000000E+00 -0.00000000000E+00 -0.12434224294E+03  0.12434224294E+03  0.00000000000E+00 0. -1.
          6    1    1    2  501    0 -0.78405258031E+02 -0.20809123123E+03  0.13073463569E+03  0.31059602375E+03  0.17300000000E+03 0. -1.
         -6    1    1    2    0  502  0.78405258031E+02  0.20809123123E+03  0.54227235167E+03  0.61109544949E+03  0.17300000000E+03 0. -1.
<mgrwt>
<rscale>  2 0.28174163E+03</rscale>
<asrwt>0</asrwt>
<pdfrwt beam="1">  1       21 0.12266911E+00 0.28174163E+03</pdfrwt>
<pdfrwt beam="2">  1       21 0.19129576E-01 0.28174163E+03</pdfrwt>
<totfact> 0.11890435E+04</totfact>
</mgrwt>
</event>
<event>
 4    1  0.3950955E+000  0.1783914E+03  0.7546771E-02  0.1169369E+00
         21   -1    0    0  501  502  0.00000000000E+00  0.00000000000E+00  0.12170832130E+03  0.12170832130E+03  0.00000000000E+00 0.  1.
         21   -1    0    0  502  503 -0.00000000000E+00 -0.00000000000E+00 -0.37250265140E+03  0.37250265140E+03  0.00000000000E+00 0.  1.
          6    1    1    2  501    0 -0.42867804036E+02 -0.75385583659E+01  0.95104832443E+01  0.17864469703E+03  0.17300000000E+03 0.  1.
         -6    1    1    2    0  503  0.42867804036E+02  0.75385583659E+01 -0.26030481335E+03  0.31556627567E+03  0.17300000000E+03 0.  1.
<mgrwt>
<rscale>  2 0.17839136E+03</rscale>
<asrwt>0</asrwt>
<pdfrwt beam="1">  1       21 0.18724357E-01 0.17839136E+03</pdfrwt>
<pdfrwt beam="2">  1       21 0.57308101E-01 0.17839136E+03</pdfrwt>
<totfact> 0.75049250E+04</totfact>
</mgrwt>
</event>
<event>
 4    1  0.3950955E+000  0.2119518E+03  0.7546771E-02  0.1140030E+00
         21   -1    0    0  501  502  0.00000000000E+00  0.00000000000E+00  0.53683393414E+02  0.53683393414E+02  0.00000000000E+00 0. -1.
         21   -1    0    0  502  503 -0.00000000000E+00 -0.00000000000E+00 -0.11000878332E+04  0.11000878332E+04  0.00000000000E+00 0. -1.
          6    1    1    2  501    0 -0.11652656557E+03 -0.37631366281E+02 -0.24099280269E+03  0.32093783068E+03  0.17300000000E+03 0. -1.
         -6    1    1    2    0  503  0.11652656557E+03  0.37631366281E+02 -0.80541163709E+03  0.83283339593E+03  0.17300000000E+03 0. -1.
<mgrwt>
<rscale>  2 0.21195179E+03</rscale>
<asrwt>0</asrwt>
<pdfrwt beam="1">  1       21 0.82589834E-02 0.21195179E+03</pdfrwt>
<pdfrwt beam="2">  1       21 0.16924429E+00 0.21195179E+03</pdfrwt>
<totfact> 0.24206838E+04</totfact>
</mgrwt>
</event>
<event>
 4    1  0.3950955E+000  0.1846349E+03  0.7546771E-02  0.1163391E+00
         21   -1    0    0  503  502  0.00000000000E+00  0.00000000000E+00  0.57763604945E+03  0.57763604945E+03  0.00000000000E+00 0.  1.
         21   -1    0    0  501  503 -0.00000000000E+00 -0.00000000000E+00 -0.22040380465E+03  0.22040380465E+03  0.00000000000E+00 0.  1.
          6    1    1    2  501    0 -0.17677216829E+02  0.62036891945E+02 -0.16282806258E+03  0.24617684278E+03  0.17300000000E+03 0.  1.
         -6    1    1    2    0  502  0.17677216829E+02 -0.62036891945E+02  0.52006030738E+03  0.55186301133E+03  0.17300000000E+03 0.  1.
<mgrwt>
<rscale>  2 0.18463494E+03</rscale>
<asrwt>0</asrwt>
<pdfrwt beam="1">  1       21 0.88867084E-01 0.18463494E+03</pdfrwt>
<pdfrwt beam="2">  1       21 0.33908278E-01 0.18463494E+03</pdfrwt>
<totfact> 0.91164942E+03</totfact>
</mgrwt>
</event>
<event>
 4    1  0.3950955E+000  0.2012428E+03  0.7546771E-02  0.1148695E+00
         21   -1    0    0  501  502  0.00000000000E+00  0.00000000000E+00  0.20387083373E+03  0.20387083373E+03  0.00000000000E+00 0.  1.
         21   -1    0    0  502  503 -0.00000000000E+00 -0.00000000000E+00 -0.23447270501E+03  0.23447270501E+03  0.00000000000E+00 0. -1.
          6    1    1    2  501    0 -0.65771274705E+01  0.10259831963E+03  0.70368440344E+02  0.21319097353E+03  0.17300000000E+03 0.  1.
         -6    1    1    2    0  503  0.65771274705E+01 -0.10259831963E+03 -0.10097031162E+03  0.22515256522E+03  0.17300000000E+03 0. -1.
<mgrwt>
<rscale>  2 0.20124282E+03</rscale>
<asrwt>0</asrwt>
<pdfrwt beam="1">  1       21 0.31364743E-01 0.20124282E+03</pdfrwt>
<pdfrwt beam="2">  1       21 0.36072724E-01 0.20124282E+03</pdfrwt>
<totfact> 0.72122058E+04</totfact>
</mgrwt>
</event>
<event>
 4    1  0.3950955E+000  0.1910896E+03  0.7546771E-02  0.1157482E+00
         21   -1    0    0  501  502  0.00000000000E+00  0.00000000000E+00  0.18811960095E+04  0.18811960095E+04  0.00000000000E+00 0. -1.
         21   -1    0    0  502  503 -0.00000000000E+00 -0.00000000000E+00 -0.19874945511E+02  0.19874945511E+02  0.00000000000E+00 0. -1.
          6    1    1    2  501    0 -0.78163651972E+02  0.21833149966E+02  0.10759423300E+04  0.10927795480E+04  0.17300000000E+03 0. -1.
         -6    1    1    2    0  503  0.78163651972E+02 -0.21833149966E+02  0.78537873392E+03  0.80829140699E+03  0.17300000000E+03 0. -1.
<mgrwt>
<rscale>  2 0.19108962E+03</rscale>
<asrwt>0</asrwt>
<pdfrwt beam="1">  1       21 0.28941463E+00 0.19108962E+03</pdfrwt>
<pdfrwt beam="2">  1       21 0.30576854E-02 0.19108962E+03</pdfrwt>
<totfact> 0.24115914E+04</totfact>
</mgrwt>
</event>
<event>
 4    1  0.3950955E+000  0.1734568E+03  0.7546771E-02  0.1174290E+00
         21   -1    0    0  501  502  0.00000000000E+00  0.00000000000E+00  0.64051053939E+02  0.64051053939E+02  0.00000000000E+00 0.  1.
         21   -1    0    0  502  503 -0.00000000000E+00 -0.00000000000E+00 -0.47029981689E+03  0.47029981689E+03  0.00000000000E+00 0.  1.
          6    1    1    2  501    0 -0.11347392897E+02 -0.54327330051E+01 -0.19389823497E+03  0.26016111054E+03  0.17300000000E+03 0.  1.
         -6    1    1    2    0  503  0.11347392897E+02  0.54327330051E+01 -0.21235052798E+03  0.27418976029E+03  0.17300000000E+03 0.  1.
<mgrwt>
<rscale>  2 0.17345685E+03</rscale>
<asrwt>0</asrwt>
<pdfrwt beam="1">  1       21 0.98540085E-02 0.17345685E+03</pdfrwt>
<pdfrwt beam="2">  1       21 0.72353817E-01 0.17345685E+03</pdfrwt>
<totfact> 0.14438402E+05</totfact>
</mgrwt>
</event>
<event>
 4    1  0.3950955E+000  0.2073080E+03  0.7546771E-02  0.1143716E+00
         21   -1    0    0  503  502  0.00000000000E+00  0.00000000000E+00  0.93287170131E+03  0.93287170131E+03  0.00000000000E+00 0.  1.
         21   -1    0    0  501  503 -0.00000000000E+00 -0.00000000000E+00 -0.51542447465E+02  0.51542447465E+02  0.00000000000E+00 0. -1.
          6    1    1    2  501    0 -0.92334624115E+02 -0.67245139384E+02  0.60105950160E+03  0.63580587922E+03  0.17300000000E+03 0.  1.
         -6    1    1    2    0  502  0.92334624115E+02  0.67245139384E+02  0.28026975224E+03  0.34860826955E+03  0.17300000000E+03 0.  1.
<mgrwt>
<rscale>  2 0.20730796E+03</rscale>
<asrwt>0</asrwt>
<pdfrwt beam="1">  1       21 0.14351871E+00 0.20730796E+03</pdfrwt>
<pdfrwt beam="2">  1       21 0.79296080E-02 0.20730796E+03</pdfrwt>
<totfact> 0.40541654E+04</totfact>
</mgrwt>
</event>
<event>
 4    1  0.3950955E+000  0.1925242E+03  0.7546771E-02  0.1156204E+00
         21   -1    0    0  503  502  0.00000000000E+00  0.00000000000E+00  0.10284129853E+03  0.10284129853E+03  0.00000000000E+00 0. -1.
         21   -1    0    0  501  503 -0.00000000000E+00 -0.00000000000E+00 -0.41186868562E+03  0.41186868562E+03  0.00000000000E+00 0. -1.
          6    1    1    2  501    0 -0.46276636348E+02 -0.70675577171E+02 -0.24547584613E+03  0.31196787545E+03  0.17300000000E+03 0. -1.
         -6    1    1    2    0  502  0.46276636348E+02  0.70675577171E+02 -0.63551540953E+02  0.20274210869E+03  0.17300000000E+03 0. -1.
<mgrwt>
<rscale>  2 0.19252419E+03</rscale>
<asrwt>0</asrwt>
<pdfrwt beam="1">  1       21 0.15821738E-01 0.19252419E+03</pdfrwt>
<pdfrwt beam="2">  1       21 0.63364412E-01 0.19252419E+03</pdfrwt>
<totfact> 0.81992072E+04</totfact>
</mgrwt>
</event>
<event>
 4    1  0.3950955E+000  0.1945555E+03  0.7546771E-02  0.1154416E+00
         21   -1    0    0  503  502  0.00000000000E+00  0.00000000000E+00  0.25677611156E+03  0.25677611156E+03  0.00000000000E+00 0. -1.
         21   -1    0    0  501  503 -0.00000000000E+00 -0.00000000000E+00 -0.15949887967E+03  0.15949887967E+03  0.00000000000E+00 0. -1.
          6    1    1    2  501    0  0.12945082407E+02  0.88064028005E+02  0.10593547858E+03  0.22152691441E+03  0.17300000000E+03 0. -1.
         -6    1    1    2    0  502 -0.12945082407E+02 -0.88064028005E+02 -0.86582467031E+01  0.19474807681E+03  0.17300000000E+03 0. -1.
<mgrwt>
<rscale>  2 0.19455551E+03</rscale>
<asrwt>0</asrwt>
<pdfrwt beam="1">  1       21 0.39504017E-01 0.19455551E+03</pdfrwt>
<pdfrwt beam="2">  1       21 0.24538289E-01 0.19455551E+03</pdfrwt>
<totfact> 0.96881364E+04</totfact>
</mgrwt>
</event>
<event>
 4    1  0.3950955E+000  0.1969518E+03  0.7546771E-02  0.1152337E+00
         21   -1    0    0  503  502  0.00000000000E+00  0.00000000000E+00  0.21779484501E+03  0.21779484501E+03  0.00000000000E+00 0.  1.
         21   -1    0    0  501  503 -0.00000000000E+00 -0.00000000000E+00 -0.22230692822E+03  0.22230692822E+03  0.00000000000E+00 0.  1.
          6    1    1    2  501    0  0.54878205759E+02  0.76481236295E+02 -0.10038003482E+03  0.22105688943E+03  0.17300000000E+03 0.  1.
         -6    1    1    2    0  502 -0.54878205759E+02 -0.76481236295E+02  0.95867951614E+02  0.21904488380E+03  0.17300000000E+03 0.  1.
<mgrwt>
<rscale>  2 0.19695176E+03</rscale>
<asrwt>0</asrwt>
<pdfrwt beam="1">  1       21 0.33506899E-01 0.19695176E+03</pdfrwt>
<pdfrwt beam="2">  1       21 0.34201066E-01 0.19695176E+03</pdfrwt>
<totfact> 0.70537405E+04</totfact>
</mgrwt>
</event>
<event>
 4    1  0.3950955E+000  0.2199274E+03  0.7546771E-02  0.1133937E+00
         21   -1    0    0  503  502  0.00000000000E+00  0.00000000000E+00  0.51554410494E+03  0.51554410494E+03  0.00000000000E+00 0. -1.
         21   -1    0    0  501  503 -0.00000000000E+00 -0.00000000000E+00 -0.18484944552E+03  0.18484944552E+03  0.00000000000E+00 0.  1.
          6    1    1    2  501    0 -0.12284308336E+03 -0.57867499039E+02 -0.80403672982E+02  0.23416409034E+03  0.17300000000E+03 0.  1.
         -6    1    1    2    0  502  0.12284308336E+03  0.57867499039E+02  0.41109833241E+03  0.46622946012E+03  0.17300000000E+03 0. -1.
<mgrwt>
<rscale>  2 0.21992742E+03</rscale>
<asrwt>0</asrwt>
<pdfrwt beam="1">  1       21 0.79314477E-01 0.21992742E+03</pdfrwt>
<pdfrwt beam="2">  1       21 0.28438376E-01 0.21992742E+03</pdfrwt>
<totfact> 0.16304086E+04</totfact>
</mgrwt>
</event>
<event>
 4    1  0.3950955E+000  0.1942681E+03  0.7546771E-02  0.1154667E+00
         21   -1    0    0  503  502  0.00000000000E+00  0.00000000000E+00  0.71900043603E+03  0.71900043603E+03  0.00000000000E+00 0.  1.
         21   -1    0    0  501  503 -0.00000000000E+00 -0.00000000000E+00 -0.52897126057E+02  0.52897126057E+02  0.00000000000E+00 0.  1.
          6    1    1    2  501    0  0.64376804650E+02  0.60553388829E+02  0.29917806361E+03  0.35671781512E+03  0.17300000000E+03 0.  1.
         -6    1    1    2    0  502 -0.64376804650E+02 -0.60553388829E+02  0.36692524636E+03  0.41517974696E+03  0.17300000000E+03 0.  1.
<mgrwt>
<rscale>  2 0.19426808E+03</rscale>
<asrwt>0</asrwt>
<pdfrwt beam="1">  1       21 0.11061544E+00 0.19426808E+03</pdfrwt>
<pdfrwt beam="2">  1       21 0.81380199E-02 0.19426808E+03</pdfrwt>
<totfact> 0.74998647E+04</totfact>
</mgrwt>
</event>
<event>
 4    1  0.3950955E+000  0.1815549E+03  0.7546771E-02  0.1166307E+00
         21   -1    0    0  501  502  0.00000000000E+00  0.00000000000E+00  0.35796358187E+03  0.35796358187E+03  0.00000000000E+00 0.  1.
         21   -1    0    0  502  503 -0.00000000000E+00 -0.00000000000E+00 -0.92285022445E+02  0.92285022445E+02  0.00000000000E+00 0.  1.
          6    1    1    2  501    0  0.44676256222E+02  0.32205781806E+02  0.14338550810E+03  0.23134732370E+03  0.17300000000E+03 0.  1.
         -6    1    1    2    0  503 -0.44676256222E+02 -0.32205781806E+02  0.12229305133E+03  0.21890128061E+03  0.17300000000E+03 0.  1.
<mgrwt>
<rscale>  2 0.18155490E+03</rscale>
<asrwt>0</asrwt>
<pdfrwt beam="1">  1       21 0.55071320E-01 0.18155490E+03</pdfrwt>
<pdfrwt beam="2">  1       21 0.14197696E-01 0.18155490E+03</pdfrwt>
<totfact> 0.13535222E+05</totfact>
</mgrwt>
</event>
<event>
 4    1  0.3950955E+000  0.3138768E+03  0.7546771E-02  0.1078502E+00
         21   -1    0    0  501  502  0.00000000000E+00  0.00000000000E+00  0.14761416142E+03  0.14761416142E+03  0.00000000000E+00 0. -1.
         21   -1    0    0  502  503 -0.00000000000E+00 -0.00000000000E+00 -0.67303819033E+03  0.67303819033E+03  0.00000000000E+00 0. -1.
          6    1    1    2  501    0  0.26186547326E+03  0.40110421756E+01 -0.22517685821E+03  0.38629422985E+03  0.17300000000E+03 0. -1.
         -6    1    1    2    0  503 -0.26186547326E+03 -0.40110421756E+01 -0.30024717070E+03  0.43435812190E+03  0.17300000000E+03 0. -1.
<mgrwt>
<rscale>  2 0.31387675E+03</rscale>
<asrwt>0</asrwt>
<pdfrwt beam="1">  1       21 0.22709871E-01 0.31387675E+03</pdfrwt>
<pdfrwt beam="2">  1       21 0.10354434E+00 0.31387675E+03</pdfrwt>
<totfact> 0.12864430E+04</totfact>
</mgrwt>
</event>
<event>
 4    1  0.3950955E+000  0.1813644E+03  0.7546771E-02  0.1166489E+00
         21   -1    0    0  501  502  0.00000000000E+00  0.00000000000E+00  0.14729563001E+03  0.14729563001E+03  0.00000000000E+00 0. -1.
         21   -1    0    0  502  503 -0.00000000000E+00 -0.00000000000E+00 -0.25374996727E+03  0.25374996727E+03  0.00000000000E+00 0. -1.
          6    1    1    2  501    0  0.10517075771E+02 -0.53417530222E+02  0.16221008075E+02  0.18208833714E+03  0.17300000000E+03 0. -1.
         -6    1    1    2    0  503 -0.10517075771E+02  0.53417530222E+02 -0.12267534534E+03  0.21895726015E+03  0.17300000000E+03 0. -1.
<mgrwt>
<rscale>  2 0.18136439E+03</rscale>
<asrwt>0</asrwt>
<pdfrwt beam="1">  1       21 0.22660866E-01 0.18136439E+03</pdfrwt>
<pdfrwt beam="2">  1       21 0.39038456E-01 0.18136439E+03</pdfrwt>
<totfact> 0.11594961E+05</totfact>
</mgrwt>
</event>
<event>
 4    1  0.3950955E+000  0.2746455E+03  0.7546771E-02  0.1098650E+00
         21   -1    0    0  503  502  0.00000000000E+00  0.00000000000E+00  0.33419987093E+02  0.33419987093E+02  0.00000000000E+00 0.  1.
         21   -1    0    0  501  503 -0.00000000000E+00 -0.00000000000E+00 -0.23074647273E+04  0.23074647273E+04  0.00000000000E+00 0. -1.
          6    1    1    2  501    0  0.32207989158E+02  0.21086446715E+03 -0.13100491164E+04  0.13385286196E+04  0.17300000000E+03 0.  1.
         -6    1    1    2    0  502 -0.32207989158E+02 -0.21086446715E+03 -0.96399562377E+03  0.10023560948E+04  0.17300000000E+03 0.  1.
<mgrwt>
<rscale>  2 0.27464555E+03</rscale>
<asrwt>0</asrwt>
<pdfrwt beam="1">  1       21 0.51415351E-02 0.27464555E+03</pdfrwt>
<pdfrwt beam="2">  1       21 0.35499467E+00 0.27464555E+03</pdfrwt>
<totfact> 0.38319375E+03</totfact>
</mgrwt>
</event>
<event>
 4    1  0.3950955E+000  0.1734962E+03  0.7546771E-02  0.1174250E+00
         21   -1    0    0  501  502  0.00000000000E+00  0.00000000000E+00  0.37668689365E+03  0.37668689365E+03  0.00000000000E+00 0.  1.
         21   -1    0    0  502  503 -0.00000000000E+00 -0.00000000000E+00 -0.97782228693E+03  0.97782228693E+03  0.00000000000E+00 0.  1.
          6    1    1    2  501    0 -0.34367402121E+01 -0.12653875698E+02  0.34842382665E+03  0.38923013081E+03  0.17300000000E+03 0.  1.
         -6    1    1    2    0  503  0.34367402121E+01  0.12653875698E+02 -0.94955921993E+03  0.96527904976E+03  0.17300000000E+03 0.  1.
<mgrwt>
<rscale>  2 0.17349620E+03</rscale>
<asrwt>0</asrwt>
<pdfrwt beam="1">  1       21 0.57951830E-01 0.17349620E+03</pdfrwt>
<pdfrwt beam="2">  1       21 0.15043420E+00 0.17349620E+03</pdfrwt>
<totfact> 0.84597256E+02</totfact>
</mgrwt>
</event>
<event>
 4    1  0.3950955E+000  0.3207588E+03  0.7546771E-02  0.1075301E+00
         21   -1    0    0  503  502  0.00000000000E+00  0.00000000000E+00  0.80789050767E+03  0.80789050767E+03  0.00000000000E+00 0. -1.
         21   -1    0    0  501  503 -0.00000000000E+00 -0.00000000000E+00 -0.14184308124E+03  0.14184308124E+03  0.00000000000E+00 0. -1.
          6    1    1    2  501    0  0.73982304937E+02 -0.25977653218E+03  0.18124088472E+03  0.36842161501E+03  0.17300000000E+03 0. -1.
         -6    1    1    2    0  502 -0.73982304937E+02  0.25977653218E+03  0.48480654172E+03  0.58131197390E+03  0.17300000000E+03 0. -1.
<mgrwt>
<rscale>  2 0.32075883E+03</rscale>
<asrwt>0</asrwt>
<pdfrwt beam="1">  1       21 0.12429085E+00 0.32075883E+03</pdfrwt>
<pdfrwt beam="2">  1       21 0.21822013E-01 0.32075883E+03</pdfrwt>
<totfact> 0.88027566E+03</totfact>
</mgrwt>
</event>
<event>
 4    1  0.3950955E+000  0.1851475E+03  0.7546771E-02  0.1162912E+00
         21   -1    0    0  501  502  0.00000000000E+00  0.00000000000E+00  0.28151225306E+02  0.28151225306E+02  0.00000000000E+00 0.  1.
         21   -1    0    0  502  503 -0.00000000000E+00 -0.00000000000E+00 -0.14008290885E+04  0.14008290885E+04  0.00000000000E+00 0. -1.
          6    1    1    2  501    0  0.62107153448E+02  0.22210184109E+02 -0.42800055661E+03  0.46633042711E+03  0.17300000000E+03 0.  1.
         -6    1    1    2    0  503 -0.62107153448E+02 -0.22210184109E+02 -0.94467730658E+03  0.96264988670E+03  0.17300000000E+03 0. -1.
<mgrwt>
<rscale>  2 0.18514748E+03</rscale>
<asrwt>0</asrwt>
<pdfrwt beam="1">  1       21 0.43309578E-02 0.18514748E+03</pdfrwt>
<pdfrwt beam="2">  1       21 0.21551217E+00 0.18514748E+03</pdfrwt>
<totfact> 0.36961844E+04</totfact>
</mgrwt>
</event>
<event>
 4    1  0.3950955E+000  0.1757031E+03  0.7546771E-02  0.1172028E+00
         21   -1    0    0  503  502  0.00000000000E+00  0.00000000000E+00  0.70809470592E+02  0.70809470592E+02  0.00000000000E+00 0.  1.
         21   -1    0    0  501  503 -0.00000000000E+00 -0.00000000000E+00 -0.45081601460E+03  0.45081601460E+03  0.00000000000E+00 0.  1.
          6    1    1    2  501    0 -0.32273042787E+01 -0.30531624260E+02 -0.23731520514E+03  0.29527970157E+03  0.17300000000E+03 0. -1.
         -6    1    1    2    0  502  0.32273042787E+01  0.30531624260E+02 -0.14269133887E+03  0.22634578362E+03  0.17300000000E+03 0. -1.
<mgrwt>
<rscale>  2 0.17570315E+03</rscale>
<asrwt>0</asrwt>
<pdfrwt beam="1">  1       21 0.10893764E-01 0.17570315E+03</pdfrwt>
<pdfrwt beam="2">  1       21 0.69356314E-01 0.17570315E+03</pdfrwt>
<totfact> 0.13264527E+05</totfact>
</mgrwt>
</event>
<event>
 4    1  0.3950955E+000  0.1866067E+03  0.7546771E-02  0.1161558E+00
         21   -1    0    0  503  502  0.00000000000E+00  0.00000000000E+00  0.32800085430E+03  0.32800085430E+03  0.00000000000E+00 0.  1.
         21   -1    0    0  501  503 -0.00000000000E+00 -0.00000000000E+00 -0.14251301038E+03  0.14251301038E+03  0.00000000000E+00 0.  1.
          6    1    1    2  501    0  0.60361843113E+02  0.35348452555E+02 -0.26067486523E+02  0.18841862715E+03  0.17300000000E+03 0. -1.
         -6    1    1    2    0  502 -0.60361843113E+02 -0.35348452555E+02  0.21155533044E+03  0.28209523753E+03  0.17300000000E+03 0. -1.
<mgrwt>
<rscale>  2 0.18660671E+03</rscale>
<asrwt>0</asrwt>
<pdfrwt beam="1">  1       21 0.50461670E-01 0.18660671E+03</pdfrwt>
<pdfrwt beam="2">  1       21 0.21925079E-01 0.18660671E+03</pdfrwt>
<totfact> 0.72805687E+04</totfact>
</mgrwt>
</event>
<event>
 4    1  0.3950955E+000  0.2578933E+03  0.7546771E-02  0.1108416E+00
         21   -1    0    0  501  502  0.00000000000E+00  0.00000000000E+00  0.22524799380E+03  0.22524799380E+03  0.00000000000E+00 0.  1.
         21   -1    0    0  502  503 -0.00000000000E+00 -0.00000000000E+00 -0.94453242958E+03  0.94453242958E+03  0.00000000000E+00 0. -1.
          6    1    1    2  501    0 -0.14883496000E+03  0.12011704510E+03  0.12528447480E+03  0.28671440401E+03  0.17300000000E+03 0.  1.
         -6    1    1    2    0  503  0.14883496000E+03 -0.12011704510E+03 -0.84456891058E+03  0.88306601936E+03  0.17300000000E+03 0. -1.
<mgrwt>
<rscale>  2 0.25789329E+03</rscale>
<asrwt>0</asrwt>
<pdfrwt beam="1">  1       21 0.34653538E-01 0.25789329E+03</pdfrwt>
<pdfrwt beam="2">  1       21 0.14531268E+00 0.25789329E+03</pdfrwt>
<totfact> 0.24724786E+03</totfact>
</mgrwt>
</event>
<event>
 4    1  0.3950955E+000  0.2133567E+03  0.7546771E-02  0.1138935E+00
         21   -1    0    0  501  502  0.00000000000E+00  0.00000000000E+00  0.77585589864E+02  0.77585589864E+02  0.00000000000E+00 0. -1.
         21   -1    0    0  502  503 -0.00000000000E+00 -0.00000000000E+00 -0.63074944888E+03  0.63074944888E+03  0.00000000000E+00 0.  1.
          6    1    1    2  501    0 -0.12454746043E+03 -0.89444242848E+01 -0.18300939418E+03  0.28109342039E+03  0.17300000000E+03 0. -1.
         -6    1    1    2    0  503  0.12454746043E+03  0.89444242848E+01 -0.37015446484E+03  0.42724161836E+03  0.17300000000E+03 0.  1.
<mgrwt>
<rscale>  2 0.21335668E+03</rscale>
<asrwt>0</asrwt>
<pdfrwt beam="1">  1       21 0.11936244E-01 0.21335668E+03</pdfrwt>
<pdfrwt beam="2">  1       21 0.97038381E-01 0.21335668E+03</pdfrwt>
<totfact> 0.51676717E+04</totfact>
</mgrwt>
</event>
<event>
 4    1  0.3950955E+000  0.2620686E+03  0.7546771E-02  0.1105907E+00
         21   -1    0    0  501  502  0.00000000000E+00  0.00000000000E+00  0.15160505781E+04  0.15160505781E+04  0.00000000000E+00 0. -1.
         21   -1    0    0  502  503 -0.00000000000E+00 -0.00000000000E+00 -0.10432041730E+03  0.10432041730E+03  0.00000000000E+00 0.  1.
          6    1    1    2  501    0  0.19574828926E+03 -0.20821467050E+02  0.13152533147E+04  0.13411082014E+04  0.17300000000E+03 0. -1.
         -6    1    1    2    0  503 -0.19574828926E+03  0.20821467050E+02  0.96476846098E+02  0.27926279393E+03  0.17300000000E+03 0.  1.
<mgrwt>
<rscale>  2 0.26206855E+03</rscale>
<asrwt>0</asrwt>
<pdfrwt beam="1">  1       21 0.23323853E+00 0.26206855E+03</pdfrwt>
<pdfrwt beam="2">  1       21 0.16049296E-01 0.26206855E+03</pdfrwt>
<totfact> 0.27184292E+03</totfact>
</mgrwt>
</event>
<event>
 4    1  0.3950955E+000  0.1764307E+03  0.7546771E-02  0.1171303E+00
         21   -1    0    0  501  502  0.00000000000E+00  0.00000000000E+00  0.64070212244E+02  0.64070212244E+02  0.00000000000E+00 0. -1.
         21   -1    0    0  502  503 -0.00000000000E+00 -0.00000000000E+00 -0.89296925373E+03  0.89296925373E+03  0.00000000000E+00 0. -1.
          6    1    1    2  501    0  0.61554054295E+01 -0.34071901776E+02 -0.91340941668E+02  0.19867297534E+03  0.17300000000E+03 0. -1.
         -6    1    1    2    0  503 -0.61554054295E+01  0.34071901776E+02 -0.73755809982E+03  0.75836649063E+03  0.17300000000E+03 0. -1.
<mgrwt>
<rscale>  2 0.17643068E+03</rscale>
<asrwt>0</asrwt>
<pdfrwt beam="1">  1       21 0.98569571E-02 0.17643068E+03</pdfrwt>
<pdfrwt beam="2">  1       21 0.13737987E+00 0.17643068E+03</pdfrwt>
<totfact> 0.31579309E+04</totfact>
</mgrwt>
</event>
<event>
 4    1  0.3950955E+000  0.2123221E+03  0.7546771E-02  0.1139740E+00
         21   -1    0    0  503  502  0.00000000000E+00  0.00000000000E+00  0.24380699374E+03  0.24380699374E+03  0.00000000000E+00 0. -1.
         21   -1    0    0  501  503 -0.00000000000E+00 -0.00000000000E+00 -0.37294464124E+03  0.37294464124E+03  0.00000000000E+00 0.  1.
          6    1    1    2  501    0  0.41554567904E+01 -0.12302190303E+03 -0.28353906075E+03  0.35422458330E+03  0.17300000000E+03 0.  1.
         -6    1    1    2    0  502 -0.41554567904E+01  0.12302190303E+03  0.15440141325E+03  0.26252705167E+03  0.17300000000E+03 0. -1.
<mgrwt>
<rscale>  2 0.21232206E+03</rscale>
<asrwt>0</asrwt>
<pdfrwt beam="1">  1       21 0.37508768E-01 0.21232206E+03</pdfrwt>
<pdfrwt beam="2">  1       21 0.57376099E-01 0.21232206E+03</pdfrwt>
<totfact> 0.19317909E+04</totfact>
</mgrwt>
</event>
<event>
 4    1  0.3950955E+000  0.1827124E+03  0.7546771E-02  0.1165204E+00
         21   -1    0    0  501  502  0.00000000000E+00  0.00000000000E+00  0.18582157567E+04  0.18582157567E+04  0.00000000000E+00 0. -1.
         21   -1    0    0  502  503 -0.00000000000E+00 -0.00000000000E+00 -0.42783034235E+02  0.42783034235E+02  0.00000000000E+00 0. -1.
          6    1    1    2  501    0  0.50860569955E+02 -0.29462168755E+02  0.16316440236E+04  0.16418422691E+04  0.17300000000E+03 0. -1.
         -6    1    1    2    0  503 -0.50860569955E+02  0.29462168755E+02  0.18378869888E+03  0.25915652182E+03  0.17300000000E+03 0. -1.
<mgrwt>
<rscale>  2 0.18271239E+03</rscale>
<asrwt>0</asrwt>
<pdfrwt beam="1">  1       21 0.28587928E+00 0.18271239E+03</pdfrwt>
<pdfrwt beam="2">  1       21 0.65820067E-02 0.18271239E+03</pdfrwt>
<totfact> 0.70007113E+03</totfact>
</mgrwt>
</event>
<event>
 4    1  0.3950955E+000  0.1797736E+03  0.7546771E-02  0.1168022E+00
         21   -1    0    0  501  502  0.00000000000E+00  0.00000000000E+00  0.11619291638E+04  0.11619291638E+04  0.00000000000E+00 0.  1.
         21   -1    0    0  502  503 -0.00000000000E+00 -0.00000000000E+00 -0.21907361072E+03  0.21907361072E+03  0.00000000000E+00 0.  1.
          6    1    1    2  501    0  0.45565773561E+02  0.17700694556E+02  0.11166072096E+04  0.11309863902E+04  0.17300000000E+03 0.  1.
         -6    1    1    2    0  503 -0.45565773561E+02 -0.17700694556E+02 -0.17375165648E+03  0.25001638434E+03  0.17300000000E+03 0.  1.
<mgrwt>
<rscale>  2 0.17977362E+03</rscale>
<asrwt>0</asrwt>
<pdfrwt beam="1">  1       21 0.17875833E+00 0.17977362E+03</pdfrwt>
<pdfrwt beam="2">  1       21 0.33703633E-01 0.17977362E+03</pdfrwt>
<totfact> 0.15950807E+03</totfact>
</mgrwt>
</event>
<event>
 4    1  0.3950955E+000  0.2236451E+03  0.7546771E-02  0.1131194E+00
         21   -1    0    0  503  502  0.00000000000E+00  0.00000000000E+00  0.63017519457E+02  0.63017519457E+02  0.00000000000E+00 0.  1.
         21   -1    0    0  501  503 -0.00000000000E+00 -0.00000000000E+00 -0.95221082938E+03  0.95221082938E+03  0.00000000000E+00 0.  1.
          6    1    1    2  501    0  0.12835686471E+03 -0.60105130147E+02 -0.23748986229E+03  0.32621855569E+03  0.17300000000E+03 0.  1.
         -6    1    1    2    0  502 -0.12835686471E+03  0.60105130147E+02 -0.65170344764E+03  0.68900979314E+03  0.17300000000E+03 0.  1.
<mgrwt>
<rscale>  2 0.22364506E+03</rscale>
<asrwt>0</asrwt>
<pdfrwt beam="1">  1       21 0.96950032E-02 0.22364506E+03</pdfrwt>
<pdfrwt beam="2">  1       21 0.14649397E+00 0.22364506E+03</pdfrwt>
<totfact> 0.26745261E+04</totfact>
</mgrwt>
</event>
<event>
 4    1  0.3950955E+000  0.1830562E+03  0.7546771E-02  0.1164878E+00
         21   -1    0    0  501  502  0.00000000000E+00  0.00000000000E+00  0.83210752215E+02  0.83210752215E+02  0.00000000000E+00 0. -1.
         21   -1    0    0  502  503 -0.00000000000E+00 -0.00000000000E+00 -0.41307089570E+03  0.41307089570E+03  0.00000000000E+00 0. -1.
          6    1    1    2  501    0  0.49983217673E+02  0.32897412725E+02 -0.12562531918E+03  0.22201640172E+03  0.17300000000E+03 0. -1.
         -6    1    1    2    0  503 -0.49983217673E+02 -0.32897412725E+02 -0.20423482430E+03  0.27426524619E+03  0.17300000000E+03 0. -1.
<mgrwt>
<rscale>  2 0.18305617E+03</rscale>
<asrwt>0</asrwt>
<pdfrwt beam="1">  1       21 0.12801654E-01 0.18305617E+03</pdfrwt>
<pdfrwt beam="2">  1       21 0.63549370E-01 0.18305617E+03</pdfrwt>
<totfact> 0.12002916E+05</totfact>
</mgrwt>
</event>
<event>
 4    1  0.3950955E+000  0.2207045E+03  0.7546771E-02  0.1133359E+00
         21   -1    0    0  503  502  0.00000000000E+00  0.00000000000E+00  0.34463247680E+03  0.34463247680E+03  0.00000000000E+00 0.  1.
         21   -1    0    0  501  503 -0.00000000000E+00 -0.00000000000E+00 -0.21759597730E+03  0.21759597730E+03  0.00000000000E+00 0. -1.
          6    1    1    2  501    0  0.12655874099E+03 -0.52577354985E+02 -0.10289702730E+03  0.24351240504E+03  0.17300000000E+03 0. -1.
         -6    1    1    2    0  502 -0.12655874099E+03  0.52577354985E+02  0.22993352681E+03  0.31871604906E+03  0.17300000000E+03 0.  1.
<mgrwt>
<rscale>  2 0.22070454E+03</rscale>
<asrwt>0</asrwt>
<pdfrwt beam="1">  1       21 0.53020381E-01 0.22070454E+03</pdfrwt>
<pdfrwt beam="2">  1       21 0.33476304E-01 0.22070454E+03</pdfrwt>
<totfact> 0.28526836E+04</totfact>
</mgrwt>
</event>
<event>
 4    1  0.3950955E+000  0.2093906E+03  0.7546771E-02  0.1142049E+00
         21   -1    0    0  501  502  0.00000000000E+00  0.00000000000E+00  0.18068887380E+04  0.18068887380E+04  0.00000000000E+00 0.  1.
         21   -1    0    0  502  503 -0.00000000000E+00 -0.00000000000E+00 -0.35891965639E+02  0.35891965639E+02  0.00000000000E+00 0.  1.
          6    1    1    2  501    0 -0.11603497690E+03 -0.21244464796E+02  0.14099135694E+04  0.14253773944E+04  0.17300000000E+03 0.  1.
         -6    1    1    2    0  503  0.11603497690E+03  0.21244464796E+02  0.36108320299E+03  0.41740330932E+03  0.17300000000E+03 0.  1.
<mgrwt>
<rscale>  2 0.20939065E+03</rscale>
<asrwt>0</asrwt>
<pdfrwt beam="1">  1       21 0.27798281E+00 0.20939065E+03</pdfrwt>
<pdfrwt beam="2">  1       21 0.55218423E-02 0.20939065E+03</pdfrwt>
<totfact> 0.10215680E+04</totfact>
</mgrwt>
</event>
<event>
 4    1  0.3950955E+000  0.2148028E+03  0.7546771E-02  0.1137818E+00
         21   -1    0    0  503  502  0.00000000000E+00  0.00000000000E+00  0.47281952666E+02  0.47281952666E+02  0.00000000000E+00 0. -1.
         21   -1    0    0  501  503 -0.00000000000E+00 -0.00000000000E+00 -0.16597625200E+04  0.16597625200E+04  0.00000000000E+00 0.  1.
          6    1    1    2  501    0  0.11870067815E+03 -0.46058445427E+02 -0.13541275597E+04  0.13710585980E+04  0.17300000000E+03 0.  1.
         -6    1    1    2    0  502 -0.11870067815E+03  0.46058445427E+02 -0.25835300769E+03  0.33598587466E+03  0.17300000000E+03 0. -1.
<mgrwt>
<rscale>  2 0.21480277E+03</rscale>
<asrwt>0</asrwt>
<pdfrwt beam="1">  1       21 0.72741473E-02 0.21480277E+03</pdfrwt>
<pdfrwt beam="2">  1       21 0.25534805E+00 0.21480277E+03</pdfrwt>
<totfact> 0.85737285E+03</totfact>
</mgrwt>
</event>
<event>
 4    1  0.3950955E+000  0.1965138E+03  0.7546771E-02  0.1152714E+00
         21   -1    0    0  503  502  0.00000000000E+00  0.00000000000E+00  0.47047221363E+03  0.47047221363E+03  0.00000000000E+00 0.  1.
         21   -1    0    0  501  503 -0.00000000000E+00 -0.00000000000E+00 -0.48778318658E+03  0.48778318658E+03  0.00000000000E+00 0.  1.
          6    1    1    2  501    0 -0.45509677637E+02  0.81348378797E+02 -0.44561435939E+03  0.48702140280E+03  0.17300000000E+03 0.  1.
         -6    1    1    2    0  502  0.45509677637E+02 -0.81348378797E+02  0.42830338643E+03  0.47123399742E+03  0.17300000000E+03 0.  1.
<mgrwt>
<rscale>  2 0.19651384E+03</rscale>
<asrwt>0</asrwt>
<pdfrwt beam="1">  1       21 0.72380341E-01 0.19651384E+03</pdfrwt>
<pdfrwt beam="2">  1       21 0.75043567E-01 0.19651384E+03</pdfrwt>
<totfact> 0.27233967E+03</totfact>
</mgrwt>
</event>
<event>
 4    1  0.3950955E+000  0.3229473E+03  0.7546771E-02  0.1074301E+00
         21   -1    0    0  501  502  0.00000000000E+00  0.00000000000E+00  0.77865825495E+02  0.77865825495E+02  0.00000000000E+00 0.  1.
         21   -1    0    0  502  503 -0.00000000000E+00 -0.00000000000E+00 -0.29943645091E+04  0.29943645091E+04  0.00000000000E+00 0. -1.
          6    1    1    2  501    0  0.27006300031E+03 -0.37841094008E+02 -0.31625676068E+03  0.45201029989E+03  0.17300000000E+03 0. -1.
         -6    1    1    2    0  503 -0.27006300031E+03  0.37841094008E+02 -0.26002419230E+04  0.26202200347E+04  0.17300000000E+03 0. -1.
<mgrwt>
<rscale>  2 0.32294732E+03</rscale>
<asrwt>0</asrwt>
<pdfrwt beam="1">  1       21 0.11979359E-01 0.32294732E+03</pdfrwt>
<pdfrwt beam="2">  1       21 0.46067143E+00 0.32294732E+03</pdfrwt>
<totfact> 0.17452857E+02</totfact>
</mgrwt>
</event>
<event>
 4    1  0.3950955E+000  0.1881834E+03  0.7546771E-02  0.1160110E+00
         21   -1    0    0  503  502  0.00000000000E+00  0.00000000000E+00  0.56856921171E+02  0.56856921171E+02  0.00000000000E+00 0.  1.
         21   -1    0    0  501  503 -0.00000000000E+00 -0.00000000000E+00 -0.63774041323E+03  0.63774041323E+03  0.00000000000E+00 0.  1.
          6    1    1    2  501    0 -0.35073644691E+02 -0.65221326349E+02 -0.23736251408E+03  0.30290913663E+03  0.17300000000E+03 0.  1.
         -6    1    1    2    0  502  0.35073644691E+02  0.65221326349E+02 -0.34352097798E+03  0.39168819777E+03  0.17300000000E+03 0.  1.
<mgrwt>
<rscale>  2 0.18818337E+03</rscale>
<asrwt>0</asrwt>
<pdfrwt beam="1">  1       21 0.87472187E-02 0.18818337E+03</pdfrwt>
<pdfrwt beam="2">  1       21 0.98113909E-01 0.18818337E+03</pdfrwt>
<totfact> 0.88346212E+04</totfact>
</mgrwt>
</event>
<event>
 4    1  0.3950955E+000  0.1826371E+03  0.7546771E-02  0.1165275E+00
         21   -1    0    0  503  502  0.00000000000E+00  0.00000000000E+00  0.74103129540E+02  0.74103129540E+02  0.00000000000E+00 0. -1.
         21   -1    0    0  501  503 -0.00000000000E+00 -0.00000000000E+00 -0.45856248016E+03  0.45856248016E+03  0.00000000000E+00 0. -1.
          6    1    1    2  501    0  0.16191527627E+02 -0.56259671407E+02 -0.22833802658E+03  0.29239454608E+03  0.17300000000E+03 0. -1.
         -6    1    1    2    0  502 -0.16191527627E+02  0.56259671407E+02 -0.15612132404E+03  0.24027106362E+03  0.17300000000E+03 0. -1.
<mgrwt>
<rscale>  2 0.18263712E+03</rscale>
<asrwt>0</asrwt>
<pdfrwt beam="1">  1       21 0.11400482E-01 0.18263712E+03</pdfrwt>
<pdfrwt beam="2">  1       21 0.70548071E-01 0.18263712E+03</pdfrwt>
<totfact> 0.11755103E+05</totfact>
</mgrwt>
</event>
<event>
 4    1  0.3950955E+000  0.2510912E+03  0.7546771E-02  0.1112617E+00
         21   -1    0    0  501  502  0.00000000000E+00  0.00000000000E+00  0.11434156005E+04  0.11434156005E+04  0.00000000000E+00 0.  1.
         21   -1    0    0  502  503 -0.00000000000E+00 -0.00000000000E+00 -0.55310335903E+02  0.55310335903E+02  0.00000000000E+00 0.  1.
          6    1    1    2  501    0 -0.82873684018E+02  0.16201771756E+03  0.51069340973E+03  0.56908219709E+03  0.17300000000E+03 0.  1.
         -6    1    1    2    0  503  0.82873684018E+02 -0.16201771756E+03  0.57741185483E+03  0.62964373927E+03  0.17300000000E+03 0.  1.
<mgrwt>
<rscale>  2 0.25109120E+03</rscale>
<asrwt>0</asrwt>
<pdfrwt beam="1">  1       21 0.17591007E+00 0.25109120E+03</pdfrwt>
<pdfrwt beam="2">  1       21 0.85092833E-02 0.25109120E+03</pdfrwt>
<totfact> 0.20141316E+04</totfact>
</mgrwt>
</event>
<event>
 4    1  0.3950955E+000  0.1798907E+03  0.7546771E-02  0.1167909E+00
         21   -1    0    0  503  502  0.00000000000E+00  0.00000000000E+00  0.43776129553E+03  0.43776129553E+03  0.00000000000E+00 0. -1.
         21   -1    0    0  501  503 -0.00000000000E+00 -0.00000000000E+00 -0.90566978036E+02  0.90566978036E+02  0.00000000000E+00 0. -1.
          6    1    1    2  501    0 -0.15257286158E+02  0.46892209255E+02  0.60352841427E+02  0.18974490649E+03  0.17300000000E+03 0. -1.
         -6    1    1    2    0  502  0.15257286158E+02 -0.46892209255E+02  0.28684147606E+03  0.33858336708E+03  0.17300000000E+03 0. -1.
<mgrwt>
<rscale>  2 0.17989070E+03</rscale>
<asrwt>0</asrwt>
<pdfrwt beam="1">  1       21 0.67347890E-01 0.17989070E+03</pdfrwt>
<pdfrwt beam="2">  1       21 0.13933381E-01 0.17989070E+03</pdfrwt>
<totfact> 0.90925105E+04</totfact>
</mgrwt>
</event>
<event>
 4    1  0.3950955E+000  0.1784629E+03  0.7546771E-02  0.1169299E+00
         21   -1    0    0  503  502  0.00000000000E+00  0.00000000000E+00  0.21390564271E+03  0.21390564271E+03  0.00000000000E+00 0. -1.
         21   -1    0    0  501  503 -0.00000000000E+00 -0.00000000000E+00 -0.14932062086E+03  0.14932062086E+03  0.00000000000E+00 0. -1.
          6    1    1    2  501    0  0.28959980027E+02  0.32883261443E+02  0.42014778544E+02  0.18334184177E+03  0.17300000000E+03 0. -1.
         -6    1    1    2    0  502 -0.28959980027E+02 -0.32883261443E+02  0.22570243307E+02  0.17988442181E+03  0.17300000000E+03 0. -1.
<mgrwt>
<rscale>  2 0.17846285E+03</rscale>
<asrwt>0</asrwt>
<pdfrwt beam="1">  1       21 0.32908561E-01 0.17846285E+03</pdfrwt>
<pdfrwt beam="2">  1       21 0.22972403E-01 0.17846285E+03</pdfrwt>
<totfact> 0.15883225E+05</totfact>
</mgrwt>
</event>
<event>
 4    1  0.3950955E+000  0.1964119E+03  0.7546771E-02  0.1152802E+00
         21   -1    0    0  501  502  0.00000000000E+00  0.00000000000E+00  0.16891925483E+03  0.16891925483E+03  0.00000000000E+00 0.  1.
         21   -1    0    0  502  503 -0.00000000000E+00 -0.00000000000E+00 -0.26107878907E+03  0.26107878907E+03  0.00000000000E+00 0.  1.
          6    1    1    2  501    0 -0.36041866157E+02 -0.85730014698E+02  0.30009176005E+02  0.19869122321E+03  0.17300000000E+03 0.  1.
         -6    1    1    2    0  503  0.36041866157E+02  0.85730014698E+02 -0.12216871024E+03  0.23130682069E+03  0.17300000000E+03 0.  1.
<mgrwt>
<rscale>  2 0.19641194E+03</rscale>
<asrwt>0</asrwt>
<pdfrwt beam="1">  1       21 0.25987578E-01 0.19641194E+03</pdfrwt>
<pdfrwt beam="2">  1       21 0.40165968E-01 0.19641194E+03</pdfrwt>
<totfact> 0.83881995E+04</totfact>
</mgrwt>
</event>
<event>
 4    1  0.3950955E+000  0.1869256E+03  0.7546771E-02  0.1161264E+00
         21   -1    0    0  503  502  0.00000000000E+00  0.00000000000E+00  0.20795112499E+03  0.20795112499E+03  0.00000000000E+00 0. -1.
         21   -1    0    0  501  503 -0.00000000000E+00 -0.00000000000E+00 -0.21289437765E+03  0.21289437765E+03  0.00000000000E+00 0. -1.
          6    1    1    2  501    0 -0.69455952300E+02 -0.13712533160E+02 -0.99072609502E+02  0.21155742679E+03  0.17300000000E+03 0. -1.
         -6    1    1    2    0  502  0.69455952300E+02  0.13712533160E+02  0.94129356840E+02  0.20928807585E+03  0.17300000000E+03 0. -1.
<mgrwt>
<rscale>  2 0.18692555E+03</rscale>
<asrwt>0</asrwt>
<pdfrwt beam="1">  1       21 0.31992481E-01 0.18692555E+03</pdfrwt>
<pdfrwt beam="2">  1       21 0.32752981E-01 0.18692555E+03</pdfrwt>
<totfact> 0.84502260E+04</totfact>
</mgrwt>
</event>
<event>
 4    1  0.3950955E+000  0.5025699E+03  0.7546771E-02  0.1013110E+00
         21   -1    0    0  503  502  0.00000000000E+00  0.00000000000E+00  0.15243766243E+03  0.15243766243E+03  0.00000000000E+00 0. -1.
         21   -1    0    0  501  503 -0.00000000000E+00 -0.00000000000E+00 -0.19241433808E+04  0.19241433808E+04  0.00000000000E+00 0.  1.
          6    1    1    2  501    0 -0.36330451344E+03 -0.30109350320E+03 -0.12727898977E+04  0.13684190114E+04  0.17300000000E+03 0.  1.
         -6    1    1    2    0  502  0.36330451344E+03  0.30109350320E+03 -0.49891582061E+03  0.70816203175E+03  0.17300000000E+03 0. -1.
<mgrwt>
<rscale>  2 0.50256986E+03</rscale>
<asrwt>0</asrwt>
<pdfrwt beam="1">  1       21 0.23451948E-01 0.50256986E+03</pdfrwt>
<pdfrwt beam="2">  1       21 0.29602206E+00 0.50256986E+03</pdfrwt>
<totfact> 0.47745320E+02</totfact>
</mgrwt>
</event>
<event>
 4    1  0.3950955E+000  0.2207645E+03  0.7546771E-02  0.1133314E+00
         21   -1    0    0  501  502  0.00000000000E+00  0.00000000000E+00  0.27231509717E+03  0.27231509717E+03  0.00000000000E+00 0. -1.
         21   -1    0    0  502  503 -0.00000000000E+00 -0.00000000000E+00 -0.19290619514E+03  0.19290619514E+03  0.00000000000E+00 0. -1.
          6    1    1    2  501    0  0.13713646085E+03 -0.12530286558E+01 -0.22810791196E+02  0.22193988189E+03  0.17300000000E+03 0. -1.
         -6    1    1    2    0  503 -0.13713646085E+03  0.12530286558E+01  0.10221969322E+03  0.24328141042E+03  0.17300000000E+03 0. -1.
<mgrwt>
<rscale>  2 0.22076453E+03</rscale>
<asrwt>0</asrwt>
<pdfrwt beam="1">  1       21 0.41894630E-01 0.22076453E+03</pdfrwt>
<pdfrwt beam="2">  1       21 0.29677876E-01 0.22076453E+03</pdfrwt>
<totfact> 0.58926741E+04</totfact>
</mgrwt>
</event>
<event>
 4    1  0.3950955E+000  0.1735862E+03  0.7546771E-02  0.1174159E+00
         21   -1    0    0  503  502  0.00000000000E+00  0.00000000000E+00  0.65605247082E+02  0.65605247082E+02  0.00000000000E+00 0. -1.
         21   -1    0    0  501  503 -0.00000000000E+00 -0.00000000000E+00 -0.46093380788E+03  0.46093380788E+03  0.00000000000E+00 0. -1.
          6    1    1    2  501    0  0.75871555057E-01  0.14253797602E+02 -0.18196730573E+03  0.25148414832E+03  0.17300000000E+03 0. -1.
         -6    1    1    2    0  502 -0.75871555057E-01 -0.14253797602E+02 -0.21336125508E+03  0.27505490665E+03  0.17300000000E+03 0. -1.
<mgrwt>
<rscale>  2 0.17358622E+03</rscale>
<asrwt>0</asrwt>
<pdfrwt beam="1">  1       21 0.10093115E-01 0.17358622E+03</pdfrwt>
<pdfrwt beam="2">  1       21 0.70912893E-01 0.17358622E+03</pdfrwt>
<totfact> 0.14469048E+05</totfact>
</mgrwt>
</event>
<event>
 4    1  0.3950955E+000  0.2538429E+03  0.7546771E-02  0.1110900E+00
         21   -1    0    0  501  502  0.00000000000E+00  0.00000000000E+00  0.68452119976E+02  0.68452119976E+02  0.00000000000E+00 0.  1.
         21   -1    0    0  502  503 -0.00000000000E+00 -0.00000000000E+00 -0.10515257835E+04  0.10515257835E+04  0.00000000000E+00 0. -1.
          6    1    1    2  501    0 -0.11545439137E+03 -0.14552488028E+03 -0.31025803953E+03  0.40086937817E+03  0.17300000000E+03 0. -1.
         -6    1    1    2    0  503  0.11545439137E+03  0.14552488028E+03 -0.67281562396E+03  0.71910852527E+03  0.17300000000E+03 0. -1.
<mgrwt>
<rscale>  2 0.25384288E+03</rscale>
<asrwt>0</asrwt>
<pdfrwt beam="1">  1       21 0.10531095E-01 0.25384288E+03</pdfrwt>
<pdfrwt beam="2">  1       21 0.16177321E+00 0.25384288E+03</pdfrwt>
<totfact> 0.17399634E+04</totfact>
</mgrwt>
</event>
<event>
 4    1  0.3950955E+000  0.2202322E+03  0.7546771E-02  0.1133710E+00
         21   -1    0    0  503  502  0.00000000000E+00  0.00000000000E+00  0.16775324193E+03  0.16775324193E+03  0.00000000000E+00 0. -1.
         21   -1    0    0  501  503 -0.00000000000E+00 -0.00000000000E+00 -0.35300455488E+03  0.35300455488E+03  0.00000000000E+00 0. -1.
          6    1    1    2  501    0  0.58571622980E+02  0.12305516160E+03 -0.20338627967E+03  0.29978023046E+03  0.17300000000E+03 0. -1.
         -6    1    1    2    0  502 -0.58571622980E+02 -0.12305516160E+03  0.18134966725E+02  0.22097756635E+03  0.17300000000E+03 0. -1.
<mgrwt>
<rscale>  2 0.22023217E+03</rscale>
<asrwt>0</asrwt>
<pdfrwt beam="1">  1       21 0.25808191E-01 0.22023217E+03</pdfrwt>
<pdfrwt beam="2">  1       21 0.54308392E-01 0.22023217E+03</pdfrwt>
<totfact> 0.45052244E+04</totfact>
</mgrwt>
</event>
<event>
 4    1  0.3950955E+000  0.1991647E+03  0.7546771E-02  0.1150446E+00
         21   -1    0    0  501  502  0.00000000000E+00  0.00000000000E+00  0.45976353072E+02  0.45976353072E+02  0.00000000000E+00 0.  1.
         21   -1    0    0  502  503 -0.00000000000E+00 -0.00000000000E+00 -0.93281345128E+03  0.93281345128E+03  0.00000000000E+00 0.  1.
          6    1    1    2  501    0 -0.69834636322E+02 -0.69718663461E+02 -0.30930392734E+03  0.36787971938E+03  0.17300000000E+03 0. -1.
         -6    1    1    2    0  503  0.69834636322E+02  0.69718663461E+02 -0.57753317087E+03  0.61091008498E+03  0.17300000000E+03 0. -1.
<mgrwt>
<rscale>  2 0.19916468E+03</rscale>
<asrwt>0</asrwt>
<pdfrwt beam="1">  1       21 0.70732858E-02 0.19916468E+03</pdfrwt>
<pdfrwt beam="2">  1       21 0.14350975E+00 0.19916468E+03</pdfrwt>
<totfact> 0.49674340E+04</totfact>
</mgrwt>
</event>
<event>
 4    1  0.3950955E+000  0.2245520E+03  0.7546771E-02  0.1130534E+00
         21   -1    0    0  503  502  0.00000000000E+00  0.00000000000E+00  0.10939133065E+04  0.10939133065E+04  0.00000000000E+00 0. -1.
         21   -1    0    0  501  503 -0.00000000000E+00 -0.00000000000E+00 -0.53011726446E+02  0.53011726446E+02  0.00000000000E+00 0.  1.
          6    1    1    2  501    0 -0.10644552272E+03  0.95728444308E+02  0.31330343503E+03  0.38546417053E+03  0.17300000000E+03 0.  1.
         -6    1    1    2    0  502  0.10644552272E+03 -0.95728444308E+02  0.72759814506E+03  0.76146086246E+03  0.17300000000E+03 0. -1.
<mgrwt>
<rscale>  2 0.22455196E+03</rscale>
<asrwt>0</asrwt>
<pdfrwt beam="1">  1       21 0.16829434E+00 0.22455196E+03</pdfrwt>
<pdfrwt beam="2">  1       21 0.81556510E-02 0.22455196E+03</pdfrwt>
<totfact> 0.24934499E+04</totfact>
</mgrwt>
</event>
<event>
 4    1  0.3950955E+000  0.1769713E+03  0.7546771E-02  0.1170767E+00
         21   -1    0    0  503  502  0.00000000000E+00  0.00000000000E+00  0.17132910565E+03  0.17132910565E+03  0.00000000000E+00 0.  1.
         21   -1    0    0  501  503 -0.00000000000E+00 -0.00000000000E+00 -0.55519413714E+03  0.55519413714E+03  0.00000000000E+00 0.  1.
          6    1    1    2  501    0  0.18353689831E+02 -0.32449680498E+02 -0.48944069500E+03  0.52045271986E+03  0.17300000000E+03 0.  1.
         -6    1    1    2    0  502 -0.18353689831E+02  0.32449680498E+02  0.10557566350E+03  0.20607052292E+03  0.17300000000E+03 0.  1.
<mgrwt>
<rscale>  2 0.17697130E+03</rscale>
<asrwt>0</asrwt>
<pdfrwt beam="1">  1       21 0.26358324E-01 0.17697130E+03</pdfrwt>
<pdfrwt beam="2">  1       21 0.85414483E-01 0.17697130E+03</pdfrwt>
<totfact> 0.16383262E+04</totfact>
</mgrwt>
</event>
<event>
 4    1  0.3950955E+000  0.1855613E+03  0.7546771E-02  0.1162527E+00
         21   -1    0    0  501  502  0.00000000000E+00  0.00000000000E+00  0.82485416450E+02  0.82485416450E+02  0.00000000000E+00 0. -1.
         21   -1    0    0  502  503 -0.00000000000E+00 -0.00000000000E+00 -0.95817834165E+03  0.95817834165E+03  0.00000000000E+00 0. -1.
          6    1    1    2  501    0  0.10607306023E+02  0.66268346252E+02 -0.46961108051E+02  0.19141147908E+03  0.17300000000E+03 0. -1.
         -6    1    1    2    0  503 -0.10607306023E+02 -0.66268346252E+02 -0.82873181715E+03  0.84925227902E+03  0.17300000000E+03 0. -1.
<mgrwt>
<rscale>  2 0.18556133E+03</rscale>
<asrwt>0</asrwt>
<pdfrwt beam="1">  1       21 0.12690064E-01 0.18556133E+03</pdfrwt>
<pdfrwt beam="2">  1       21 0.14741205E+00 0.18556133E+03</pdfrwt>
<totfact> 0.16690790E+04</totfact>
</mgrwt>
</event>
<event>
 4    1  0.3950955E+000  0.2112348E+03  0.7546771E-02  0.1140592E+00
         21   -1    0    0  501  502  0.00000000000E+00  0.00000000000E+00  0.22704283665E+03  0.22704283665E+03  0.00000000000E+00 0.  1.
         21   -1    0    0  502  503 -0.00000000000E+00 -0.00000000000E+00 -0.76401817833E+03  0.76401817833E+03  0.00000000000E+00 0.  1.
          6    1    1    2  501    0 -0.50076941217E+02  0.11037853717E+03  0.15858126607E+03  0.26413659243E+03  0.17300000000E+03 0.  1.
         -6    1    1    2    0  503  0.50076941217E+02 -0.11037853717E+03 -0.69555660775E+03  0.72692442255E+03  0.17300000000E+03 0.  1.
<mgrwt>
<rscale>  2 0.21123475E+03</rscale>
<asrwt>0</asrwt>
<pdfrwt beam="1">  1       21 0.34929667E-01 0.21123475E+03</pdfrwt>
<pdfrwt beam="2">  1       21 0.11754126E+00 0.21123475E+03</pdfrwt>
<totfact> 0.43256868E+03</totfact>
</mgrwt>
</event>
<event>
 4    1  0.3950955E+000  0.2575831E+03  0.7546771E-02  0.1108604E+00
         21   -1    0    0  503  502  0.00000000000E+00  0.00000000000E+00  0.31256733151E+03  0.31256733151E+03  0.00000000000E+00 0. -1.
         21   -1    0    0  501  503 -0.00000000000E+00 -0.00000000000E+00 -0.25383799211E+03  0.25383799211E+03  0.00000000000E+00 0. -1.
          6    1    1    2  501    0  0.10955834055E+03  0.15625950814E+03 -0.85237256526E+02  0.27131983667E+03  0.17300000000E+03 0. -1.
         -6    1    1    2    0  502 -0.10955834055E+03 -0.15625950814E+03  0.14396659592E+03  0.29508548695E+03  0.17300000000E+03 0. -1.
<mgrwt>
<rscale>  2 0.25758312E+03</rscale>
<asrwt>0</asrwt>
<pdfrwt beam="1">  1       21 0.48087282E-01 0.25758312E+03</pdfrwt>
<pdfrwt beam="2">  1       21 0.39051999E-01 0.25758312E+03</pdfrwt>
<totfact> 0.25272897E+04</totfact>
</mgrwt>
</event>
<event>
 4    1  0.3950955E+000  0.1736273E+03  0.7546771E-02  0.1174117E+00
         21   -1    0    0  501  502  0.00000000000E+00  0.00000000000E+00  0.23104259680E+02  0.23104259680E+02  0.00000000000E+00 0.  1.
         21   -1    0    0  502  503 -0.00000000000E+00 -0.00000000000E+00 -0.13156550106E+04  0.13156550106E+04  0.00000000000E+00 0.  1.
          6    1    1    2  501    0 -0.12361200695E+02 -0.80398845179E+01 -0.70707707891E+03  0.72808271134E+03  0.17300000000E+03 0.  1.
         -6    1    1    2    0  503  0.12361200695E+02  0.80398845179E+01 -0.58547367199E+03  0.61067655893E+03  0.17300000000E+03 0.  1.
<mgrwt>
<rscale>  2 0.17362730E+03</rscale>
<asrwt>0</asrwt>
<pdfrwt beam="1">  1       21 0.35545014E-02 0.17362730E+03</pdfrwt>
<pdfrwt beam="2">  1       21 0.20240847E+00 0.17362730E+03</pdfrwt>
<totfact> 0.62627677E+04</totfact>
</mgrwt>
</event>
<event>
 4    1  0.3950955E+000  0.2152845E+03  0.7546771E-02  0.1137448E+00
         21   -1    0    0  501  502  0.00000000000E+00  0.00000000000E+00  0.49172179930E+02  0.49172179930E+02  0.00000000000E+00 0. -1.
         21   -1    0    0  502  503 -0.00000000000E+00 -0.00000000000E+00 -0.95928955998E+03  0.95928955998E+03  0.00000000000E+00 0.  1.
          6    1    1    2  501    0 -0.88213092871E+02  0.92934849650E+02 -0.38845866506E+03  0.44412562467E+03  0.17300000000E+03 0.  1.
         -6    1    1    2    0  503  0.88213092871E+02 -0.92934849650E+02 -0.52165871500E+03  0.56433611524E+03  0.17300000000E+03 0. -1.
<mgrwt>
<rscale>  2 0.21528455E+03</rscale>
<asrwt>0</asrwt>
<pdfrwt beam="1">  1       21 0.75649514E-02 0.21528455E+03</pdfrwt>
<pdfrwt beam="2">  1       21 0.14758300E+00 0.21528455E+03</pdfrwt>
<totfact> 0.40717618E+04</totfact>
</mgrwt>
</event>
<event>
 4    1  0.3950955E+000  0.2320685E+03  0.7546771E-02  0.1125192E+00
         21   -1    0    0  503  502  0.00000000000E+00  0.00000000000E+00  0.21015801748E+03  0.21015801748E+03  0.00000000000E+00 0.  1.
         21   -1    0    0  501  503 -0.00000000000E+00 -0.00000000000E+00 -0.36779821724E+03  0.36779821724E+03  0.00000000000E+00 0.  1.
          6    1    1    2  501    0  0.10273093898E+03  0.11564229407E+03 -0.23795505361E+03  0.33238290199E+03  0.17300000000E+03 0.  1.
         -6    1    1    2    0  502 -0.10273093898E+03 -0.11564229407E+03  0.80314853840E+02  0.24557333273E+03  0.17300000000E+03 0.  1.
<mgrwt>
<rscale>  2 0.23206849E+03</rscale>
<asrwt>0</asrwt>
<pdfrwt beam="1">  1       21 0.32332003E-01 0.23206849E+03</pdfrwt>
<pdfrwt beam="2">  1       21 0.56584340E-01 0.23206849E+03</pdfrwt>
<totfact> 0.26465032E+04</totfact>
</mgrwt>
</event>
<event>
 4    1  0.3950955E+000  0.2567499E+03  0.7546771E-02  0.1109112E+00
         21   -1    0    0  503  502  0.00000000000E+00  0.00000000000E+00  0.87832990191E+03  0.87832990191E+03  0.00000000000E+00 0. -1.
         21   -1    0    0  501  503 -0.00000000000E+00 -0.00000000000E+00 -0.13411079956E+03  0.13411079956E+03  0.00000000000E+00 0. -1.
          6    1    1    2  501    0 -0.17414461943E+03 -0.75267155203E+02  0.36178840764E+02  0.25928633139E+03  0.17300000000E+03 0. -1.
         -6    1    1    2    0  502  0.17414461943E+03  0.75267155203E+02  0.70804026159E+03  0.75315437007E+03  0.17300000000E+03 0. -1.
<mgrwt>
<rscale>  2 0.25674986E+03</rscale>
<asrwt>0</asrwt>
<pdfrwt beam="1">  1       21 0.13512767E+00 0.25674986E+03</pdfrwt>
<pdfrwt beam="2">  1       21 0.20632431E-01 0.25674986E+03</pdfrwt>
<totfact> 0.81714160E+03</totfact>
</mgrwt>
</event>
<event>
 4    1  0.3950955E+000  0.2287377E+03  0.7546771E-02  0.1127531E+00
         21   -1    0    0  503  502  0.00000000000E+00  0.00000000000E+00  0.19877622528E+03  0.19877622528E+03  0.00000000000E+00 0. -1.
         21   -1    0    0  501  503 -0.00000000000E+00 -0.00000000000E+00 -0.32139006051E+03  0.32139006051E+03  0.00000000000E+00 0.  1.
          6    1    1    2  501    0  0.99405700752E+02  0.11185012338E+03 -0.17195994288E+03  0.28616632471E+03  0.17300000000E+03 0.  1.
         -6    1    1    2    0  502 -0.99405700752E+02 -0.11185012338E+03  0.49346107650E+02  0.23399996108E+03  0.17300000000E+03 0. -1.
<mgrwt>
<rscale>  2 0.22873772E+03</rscale>
<asrwt>0</asrwt>
<pdfrwt beam="1">  1       21 0.30580958E-01 0.22873772E+03</pdfrwt>
<pdfrwt beam="2">  1       21 0.49444624E-01 0.22873772E+03</pdfrwt>
<totfact> 0.39327764E+04</totfact>
</mgrwt>
</event>
<event>
 4    1  0.3950955E+000  0.1793441E+03  0.7546771E-02  0.1168439E+00
         21   -1    0    0  501  502  0.00000000000E+00  0.00000000000E+00  0.85568704009E+03  0.85568704009E+03  0.00000000000E+00 0.  1.
         21   -1    0    0  502  503 -0.00000000000E+00 -0.00000000000E+00 -0.48871660727E+02  0.48871660727E+02  0.00000000000E+00 0. -1.
          6    1    1    2  501    0  0.32737044026E+02  0.34111556087E+02  0.62072103688E+03  0.64611060813E+03  0.17300000000E+03 0.  1.
         -6    1    1    2    0  503 -0.32737044026E+02 -0.34111556087E+02  0.18609434248E+03  0.25844809269E+03  0.17300000000E+03 0. -1.
<mgrwt>
<rscale>  2 0.17934412E+03</rscale>
<asrwt>0</asrwt>
<pdfrwt beam="1">  1       21 0.13164415E+00 0.17934412E+03</pdfrwt>
<pdfrwt beam="2">  1       21 0.75187176E-02 0.17934412E+03</pdfrwt>
<totfact> 0.56359072E+04</totfact>
</mgrwt>
</event>
<event>
 4    1  0.3950955E+000  0.1770028E+03  0.7546771E-02  0.1170736E+00
         21   -1    0    0  501  502  0.00000000000E+00  0.00000000000E+00  0.70145062138E+03  0.70145062138E+03  0.00000000000E+00 0.  1.
         21   -1    0    0  502  503 -0.00000000000E+00 -0.00000000000E+00 -0.10167865873E+03  0.10167865873E+03  0.00000000000E+00 0.  1.
          6    1    1    2  501    0 -0.23967845271E+02 -0.28749233266E+02  0.60058480635E+03  0.62612465662E+03  0.17300000000E+03 0.  1.
         -6    1    1    2    0  503  0.23967845271E+02  0.28749233266E+02 -0.81284369163E+00  0.17700462349E+03  0.17300000000E+03 0.  1.
<mgrwt>
<rscale>  2 0.17700276E+03</rscale>
<asrwt>0</asrwt>
<pdfrwt beam="1">  1       21 0.10791548E+00 0.17700276E+03</pdfrwt>
<pdfrwt beam="2">  1       21 0.15642871E-01 0.17700276E+03</pdfrwt>
<totfact> 0.25089804E+04</totfact>
</mgrwt>
</event>
<event>
 4    1  0.3950955E+000  0.2041668E+03  0.7546771E-02  0.1146270E+00
         21   -1    0    0  503  502  0.00000000000E+00  0.00000000000E+00  0.25999332984E+02  0.25999332984E+02  0.00000000000E+00 0.  1.
         21   -1    0    0  501  503 -0.00000000000E+00 -0.00000000000E+00 -0.17220579016E+04  0.17220579016E+04  0.00000000000E+00 0. -1.
          6    1    1    2  501    0  0.10476376948E+03 -0.27921740197E+02 -0.10775804057E+04  0.10967513856E+04  0.17300000000E+03 0. -1.
         -6    1    1    2    0  502 -0.10476376948E+03  0.27921740197E+02 -0.61847816287E+03  0.65130584898E+03  0.17300000000E+03 0. -1.
<mgrwt>
<rscale>  2 0.20416677E+03</rscale>
<asrwt>0</asrwt>
<pdfrwt beam="1">  1       21 0.39998984E-02 0.20416677E+03</pdfrwt>
<pdfrwt beam="2">  1       21 0.26493192E+00 0.20416677E+03</pdfrwt>
<totfact> 0.21098513E+04</totfact>
</mgrwt>
</event>
<event>
 4    1  0.3950955E+000  0.2292504E+03  0.7546771E-02  0.1127168E+00
         21   -1    0    0  503  502  0.00000000000E+00  0.00000000000E+00  0.72584022771E+03  0.72584022771E+03  0.00000000000E+00 0. -1.
         21   -1    0    0  501  503 -0.00000000000E+00 -0.00000000000E+00 -0.72888411941E+02  0.72888411941E+02  0.00000000000E+00 0.  1.
          6    1    1    2  501    0 -0.14118597980E+03  0.51896641447E+02  0.35894011031E+03  0.42590344572E+03  0.17300000000E+03 0.  1.
         -6    1    1    2    0  502  0.14118597980E+03 -0.51896641447E+02  0.29401170546E+03  0.37282519393E+03  0.17300000000E+03 0.  1.
<mgrwt>
<rscale>  2 0.22925039E+03</rscale>
<asrwt>0</asrwt>
<pdfrwt beam="1">  1       21 0.11166772E+00 0.22925039E+03</pdfrwt>
<pdfrwt beam="2">  1       21 0.11213602E-01 0.22925039E+03</pdfrwt>
<totfact> 0.40917146E+04</totfact>
</mgrwt>
</event>
<event>
 4    1  0.3950955E+000  0.2347966E+03  0.7546771E-02  0.1123309E+00
         21   -1    0    0  503  502  0.00000000000E+00  0.00000000000E+00  0.62297026067E+03  0.62297026067E+03  0.00000000000E+00 0.  1.
         21   -1    0    0  501  503 -0.00000000000E+00 -0.00000000000E+00 -0.11289883554E+03  0.11289883554E+03  0.00000000000E+00 0. -1.
          6    1    1    2  501    0 -0.12454963210E+03  0.98426846276E+02  0.83971507725E+02  0.24936052020E+03  0.17300000000E+03 0. -1.
         -6    1    1    2    0  502  0.12454963210E+03 -0.98426846276E+02  0.42609991740E+03  0.48650857601E+03  0.17300000000E+03 0.  1.
<mgrwt>
<rscale>  2 0.23479662E+03</rscale>
<asrwt>0</asrwt>
<pdfrwt beam="1">  1       21 0.95841576E-01 0.23479662E+03</pdfrwt>
<pdfrwt beam="2">  1       21 0.17369052E-01 0.23479662E+03</pdfrwt>
<totfact> 0.26587395E+04</totfact>
</mgrwt>
</event>
<event>
 4    1  0.3950955E+000  0.1860529E+03  0.7546771E-02  0.1162070E+00
         21   -1    0    0  501  502  0.00000000000E+00  0.00000000000E+00  0.96588899273E+03  0.96588899273E+03  0.00000000000E+00 0. -1.
         21   -1    0    0  502  503 -0.00000000000E+00 -0.00000000000E+00 -0.38037369121E+02  0.38037369121E+02  0.00000000000E+00 0. -1.
          6    1    1    2  501    0 -0.58430100121E+02  0.35673675463E+02  0.34322796076E+03  0.39041147623E+03  0.17300000000E+03 0.  1.
         -6    1    1    2    0  503  0.58430100121E+02 -0.35673675463E+02  0.58462366285E+03  0.61351488563E+03  0.17300000000E+03 0.  1.
<mgrwt>
<rscale>  2 0.18605292E+03</rscale>
<asrwt>0</asrwt>
<pdfrwt beam="1">  1       21 0.14859829E+00 0.18605292E+03</pdfrwt>
<pdfrwt beam="2">  1       21 0.58519037E-02 0.18605292E+03</pdfrwt>
<totfact> 0.63267594E+04</totfact>
</mgrwt>
</event>
<event>
 4    1  0.3950955E+000  0.2012458E+03  0.7546771E-02  0.1148692E+00
         21   -1    0    0  503  502  0.00000000000E+00  0.00000000000E+00  0.46680394444E+03  0.46680394444E+03  0.00000000000E+00 0. -1.
         21   -1    0    0  501  503 -0.00000000000E+00 -0.00000000000E+00 -0.16634967852E+03  0.16634967852E+03  0.00000000000E+00 0. -1.
          6    1    1    2  501    0  0.54500740793E+02  0.87181103659E+02 -0.68748956312E+02  0.21266474690E+03  0.17300000000E+03 0. -1.
         -6    1    1    2    0  502 -0.54500740793E+02 -0.87181103659E+02  0.36920322223E+03  0.42048887606E+03  0.17300000000E+03 0. -1.
<mgrwt>
<rscale>  2 0.20124581E+03</rscale>
<asrwt>0</asrwt>
<pdfrwt beam="1">  1       21 0.71815991E-01 0.20124581E+03</pdfrwt>
<pdfrwt beam="2">  1       21 0.25592258E-01 0.20124581E+03</pdfrwt>
<totfact> 0.25234602E+04</totfact>
</mgrwt>
</event>
<event>
 4    1  0.3950955E+000  0.1848765E+03  0.7546771E-02  0.1163165E+00
         21   -1    0    0  503  502  0.00000000000E+00  0.00000000000E+00  0.91100596714E+02  0.91100596714E+02  0.00000000000E+00 0.  1.
         21   -1    0    0  501  503 -0.00000000000E+00 -0.00000000000E+00 -0.40841551069E+03  0.40841551069E+03  0.00000000000E+00 0.  1.
          6    1    1    2  501    0  0.27327249302E+02 -0.59190829783E+02 -0.22990246377E+03  0.29501606013E+03  0.17300000000E+03 0.  1.
         -6    1    1    2    0  502 -0.27327249302E+02  0.59190829783E+02 -0.87412450204E+02  0.20450004727E+03  0.17300000000E+03 0.  1.
<mgrwt>
<rscale>  2 0.18487653E+03</rscale>
<asrwt>0</asrwt>
<pdfrwt beam="1">  1       21 0.14015477E-01 0.18487653E+03</pdfrwt>
<pdfrwt beam="2">  1       21 0.62833154E-01 0.18487653E+03</pdfrwt>
<totfact> 0.10440534E+05</totfact>
</mgrwt>
</event>
<event>
 4    1  0.3950955E+000  0.1873835E+03  0.7546771E-02  0.1160843E+00
         21   -1    0    0  503  502  0.00000000000E+00  0.00000000000E+00  0.23992476924E+03  0.23992476924E+03  0.00000000000E+00 0. -1.
         21   -1    0    0  501  503 -0.00000000000E+00 -0.00000000000E+00 -0.18105580459E+03  0.18105580459E+03  0.00000000000E+00 0. -1.
          6    1    1    2  501    0 -0.37024935486E+02  0.61747410287E+02 -0.62724434406E+02  0.19760299390E+03  0.17300000000E+03 0. -1.
         -6    1    1    2    0  502  0.37024935486E+02 -0.61747410287E+02  0.12159339906E+03  0.22337757994E+03  0.17300000000E+03 0. -1.
<mgrwt>
<rscale>  2 0.18738353E+03</rscale>
<asrwt>0</asrwt>
<pdfrwt beam="1">  1       21 0.36911503E-01 0.18738353E+03</pdfrwt>
<pdfrwt beam="2">  1       21 0.27854739E-01 0.18738353E+03</pdfrwt>
<totfact> 0.87295437E+04</totfact>
</mgrwt>
</event>
<event>
 4    1  0.3950955E+000  0.1974438E+03  0.7546771E-02  0.1151914E+00
         21   -1    0    0  503  502  0.00000000000E+00  0.00000000000E+00  0.30753053665E+03  0.30753053665E+03  0.00000000000E+00 0.  1.
         21   -1    0    0  501  503 -0.00000000000E+00 -0.00000000000E+00 -0.13938219575E+03  0.13938219575E+03  0.00000000000E+00 0.  1.
          6    1    1    2  501    0 -0.28712491938E+02  0.90722830504E+02  0.16842425931E+02  0.19816080964E+03  0.17300000000E+03 0.  1.
         -6    1    1    2    0  502  0.28712491938E+02 -0.90722830504E+02  0.15130591497E+03  0.24875192275E+03  0.17300000000E+03 0.  1.
<mgrwt>
<rscale>  2 0.19744376E+03</rscale>
<asrwt>0</asrwt>
<pdfrwt beam="1">  1       21 0.47312390E-01 0.19744376E+03</pdfrwt>
<pdfrwt beam="2">  1       21 0.21443415E-01 0.19744376E+03</pdfrwt>
<totfact> 0.86399533E+04</totfact>
</mgrwt>
</event>
<event>
 4    1  0.3950955E+000  0.2287684E+03  0.7546771E-02  0.1127510E+00
         21   -1    0    0  501  502  0.00000000000E+00  0.00000000000E+00  0.78508804524E+03  0.78508804524E+03  0.00000000000E+00 0. -1.
         21   -1    0    0  502  503 -0.00000000000E+00 -0.00000000000E+00 -0.10041000768E+03  0.10041000768E+03  0.00000000000E+00 0. -1.
          6    1    1    2  501    0 -0.14043067303E+03 -0.51819166537E+02  0.59902231312E+03  0.64121972175E+03  0.17300000000E+03 0. -1.
         -6    1    1    2    0  503  0.14043067303E+03  0.51819166537E+02  0.85655724449E+02  0.24427833117E+03  0.17300000000E+03 0. -1.
<mgrwt>
<rscale>  2 0.22876844E+03</rscale>
<asrwt>0</asrwt>
<pdfrwt beam="1">  1       21 0.12078277E+00 0.22876844E+03</pdfrwt>
<pdfrwt beam="2">  1       21 0.15447694E-01 0.22876844E+03</pdfrwt>
<totfact> 0.18896353E+04</totfact>
</mgrwt>
</event>
<event>
 4    1  0.3950955E+000  0.1964662E+03  0.7546771E-02  0.1152755E+00
         21   -1    0    0  501  502  0.00000000000E+00  0.00000000000E+00  0.10297234693E+03  0.10297234693E+03  0.00000000000E+00 0.  1.
         21   -1    0    0  502  503 -0.00000000000E+00 -0.00000000000E+00 -0.39666849244E+03  0.39666849244E+03  0.00000000000E+00 0. -1.
          6    1    1    2  501    0 -0.54100470613E+02 -0.75783371210E+02 -0.88255014833E+02  0.21537856884E+03  0.17300000000E+03 0.  1.
         -6    1    1    2    0  503  0.54100470613E+02  0.75783371210E+02 -0.20544113067E+03  0.28426227053E+03  0.17300000000E+03 0. -1.
<mgrwt>
<rscale>  2 0.19646623E+03</rscale>
<asrwt>0</asrwt>
<pdfrwt beam="1">  1       21 0.15841900E-01 0.19646623E+03</pdfrwt>
<pdfrwt beam="2">  1       21 0.61025921E-01 0.19646623E+03</pdfrwt>
<totfact> 0.88572596E+04</totfact>
</mgrwt>
</event>
<event>
 4    1  0.3950955E+000  0.1743751E+03  0.7546771E-02  0.1173361E+00
         21   -1    0    0  503  502  0.00000000000E+00  0.00000000000E+00  0.63695408738E+03  0.63695408738E+03  0.00000000000E+00 0. -1.
         21   -1    0    0  501  503 -0.00000000000E+00 -0.00000000000E+00 -0.12551239415E+03  0.12551239415E+03  0.00000000000E+00 0. -1.
          6    1    1    2  501    0  0.19700407528E+02 -0.94637574367E+01 -0.44379742747E+02  0.17993396102E+03  0.17300000000E+03 0. -1.
         -6    1    1    2    0  502 -0.19700407528E+02  0.94637574367E+01  0.55582143598E+03  0.58253252051E+03  0.17300000000E+03 0. -1.
<mgrwt>
<rscale>  2 0.17437508E+03</rscale>
<asrwt>0</asrwt>
<pdfrwt beam="1">  1       21 0.97992934E-01 0.17437508E+03</pdfrwt>
<pdfrwt beam="2">  1       21 0.19309600E-01 0.17437508E+03</pdfrwt>
<totfact> 0.21466629E+04</totfact>
</mgrwt>
</event>
<event>
 4    1  0.3950955E+000  0.2742228E+03  0.7546771E-02  0.1098887E+00
         21   -1    0    0  503  502  0.00000000000E+00  0.00000000000E+00  0.35340858768E+03  0.35340858768E+03  0.00000000000E+00 0.  1.
         21   -1    0    0  501  503 -0.00000000000E+00 -0.00000000000E+00 -0.22918901306E+03  0.22918901306E+03  0.00000000000E+00 0. -1.
          6    1    1    2  501    0  0.77910187544E+02 -0.19798775266E+03  0.14005473376E+03  0.30791796955E+03  0.17300000000E+03 0.  1.
         -6    1    1    2    0  502 -0.77910187544E+02  0.19798775266E+03 -0.15835159139E+02  0.27467963119E+03  0.17300000000E+03 0.  1.
<mgrwt>
<rscale>  2 0.27422281E+03</rscale>
<asrwt>0</asrwt>
<pdfrwt beam="1">  1       21 0.54370552E-01 0.27422281E+03</pdfrwt>
<pdfrwt beam="2">  1       21 0.35259848E-01 0.27422281E+03</pdfrwt>
<totfact> 0.23792070E+04</totfact>
</mgrwt>
</event>
<event>
 4    1  0.3950955E+000  0.1970824E+03  0.7546771E-02  0.1152224E+00
         21   -1    0    0  501  502  0.00000000000E+00  0.00000000000E+00  0.21479739311E+03  0.21479739311E+03  0.00000000000E+00 0.  1.
         21   -1    0    0  502  503 -0.00000000000E+00 -0.00000000000E+00 -0.32466087585E+03  0.32466087585E+03  0.00000000000E+00 0.  1.
          6    1    1    2  501    0  0.68509114287E+02 -0.64953687291E+02  0.12460001492E+03  0.23316655839E+03  0.17300000000E+03 0.  1.
         -6    1    1    2    0  503 -0.68509114287E+02  0.64953687291E+02 -0.23446349765E+03  0.30629171057E+03  0.17300000000E+03 0.  1.
<mgrwt>
<rscale>  2 0.19708242E+03</rscale>
<asrwt>0</asrwt>
<pdfrwt beam="1">  1       21 0.33045753E-01 0.19708242E+03</pdfrwt>
<pdfrwt beam="2">  1       21 0.49947827E-01 0.19708242E+03</pdfrwt>
<totfact> 0.33588225E+04</totfact>
</mgrwt>
</event>
<event>
 4    1  0.3950955E+000  0.1748298E+03  0.7546771E-02  0.1172903E+00
         21   -1    0    0  503  502  0.00000000000E+00  0.00000000000E+00  0.18457699581E+03  0.18457699581E+03  0.00000000000E+00 0. -1.
         21   -1    0    0  501  503 -0.00000000000E+00 -0.00000000000E+00 -0.18002458346E+03  0.18002458346E+03  0.00000000000E+00 0. -1.
          6    1    1    2  501    0  0.15092947889E+02  0.20215623895E+02  0.53883797441E+02  0.18294516160E+03  0.17300000000E+03 0. -1.
         -6    1    1    2    0  502 -0.15092947889E+02 -0.20215623895E+02 -0.49331385100E+02  0.18165641767E+03  0.17300000000E+03 0. -1.
<mgrwt>
<rscale>  2 0.17482983E+03</rscale>
<asrwt>0</asrwt>
<pdfrwt beam="1">  1       21 0.28396461E-01 0.17482983E+03</pdfrwt>
<pdfrwt beam="2">  1       21 0.27696090E-01 0.17482983E+03</pdfrwt>
<totfact> 0.14838964E+05</totfact>
</mgrwt>
</event>
<event>
 4    1  0.3950955E+000  0.1730337E+03  0.7546771E-02  0.1174721E+00
         21   -1    0    0  501  502  0.00000000000E+00  0.00000000000E+00  0.21774895100E+02  0.21774895100E+02  0.00000000000E+00 0. -1.
         21   -1    0    0  502  503 -0.00000000000E+00 -0.00000000000E+00 -0.13831456228E+04  0.13831456228E+04  0.00000000000E+00 0. -1.
          6    1    1    2  501    0  0.17256522829E+01  0.29468057898E+01 -0.73456547997E+03  0.75467019678E+03  0.17300000000E+03 0.  1.
         -6    1    1    2    0  503 -0.17256522829E+01 -0.29468057898E+01 -0.62680524774E+03  0.65025032114E+03  0.17300000000E+03 0.  1.
<mgrwt>
<rscale>  2 0.17303370E+03</rscale>
<asrwt>0</asrwt>
<pdfrwt beam="1">  1       21 0.33499844E-02 0.17303370E+03</pdfrwt>
<pdfrwt beam="2">  1       21 0.21279160E+00 0.17303370E+03</pdfrwt>
<totfact> 0.59519413E+04</totfact>
</mgrwt>
</event>
<event>
 4    1  0.3950955E+000  0.3030499E+03  0.7546771E-02  0.1083726E+00
         21   -1    0    0  503  502  0.00000000000E+00  0.00000000000E+00  0.63185689103E+03  0.63185689103E+03  0.00000000000E+00 0. -1.
         21   -1    0    0  501  503 -0.00000000000E+00 -0.00000000000E+00 -0.51136278305E+03  0.51136278305E+03  0.00000000000E+00 0. -1.
          6    1    1    2  501    0 -0.24122903129E+03 -0.60982110550E+02 -0.42335075972E+03  0.52063915441E+03  0.17300000000E+03 0. -1.
         -6    1    1    2    0  502  0.24122903129E+03  0.60982110550E+02  0.54384486770E+03  0.62258051967E+03  0.17300000000E+03 0. -1.
<mgrwt>
<rscale>  2 0.30304994E+03</rscale>
<asrwt>0</asrwt>
<pdfrwt beam="1">  1       21 0.97208753E-01 0.30304994E+03</pdfrwt>
<pdfrwt beam="2">  1       21 0.78671197E-01 0.30304994E+03</pdfrwt>
<totfact> 0.11492740E+03</totfact>
</mgrwt>
</event>
<event>
 4    1  0.3950955E+000  0.2183963E+03  0.7546771E-02  0.1135084E+00
         21   -1    0    0  503  502  0.00000000000E+00  0.00000000000E+00  0.10462961285E+03  0.10462961285E+03  0.00000000000E+00 0. -1.
         21   -1    0    0  501  503 -0.00000000000E+00 -0.00000000000E+00 -0.54014233595E+03  0.54014233595E+03  0.00000000000E+00 0.  1.
          6    1    1    2  501    0  0.53927048304E+02  0.12190087582E+03 -0.90412466658E+02  0.23637124231E+03  0.17300000000E+03 0. -1.
         -6    1    1    2    0  502 -0.53927048304E+02 -0.12190087582E+03 -0.34510025644E+03  0.40840070649E+03  0.17300000000E+03 0.  1.
<mgrwt>
<rscale>  2 0.21839631E+03</rscale>
<asrwt>0</asrwt>
<pdfrwt beam="1">  1       21 0.16096863E-01 0.21839631E+03</pdfrwt>
<pdfrwt beam="2">  1       21 0.83098822E-01 0.21839631E+03</pdfrwt>
<totfact> 0.42948355E+04</totfact>
</mgrwt>
</event>
<event>
 4    1  0.3950955E+000  0.1745879E+03  0.7546771E-02  0.1173146E+00
         21   -1    0    0  503  502  0.00000000000E+00  0.00000000000E+00  0.34640139508E+03  0.34640139508E+03  0.00000000000E+00 0.  1.
         21   -1    0    0  501  503 -0.00000000000E+00 -0.00000000000E+00 -0.10927839900E+03  0.10927839900E+03  0.00000000000E+00 0.  1.
          6    1    1    2  501    0 -0.57689485543E+01  0.22774118973E+02  0.21911616601E+03  0.28016572857E+03  0.17300000000E+03 0.  1.
         -6    1    1    2    0  502  0.57689485543E+01 -0.22774118973E+02  0.18006830068E+02  0.17551406551E+03  0.17300000000E+03 0.  1.
<mgrwt>
<rscale>  2 0.17458792E+03</rscale>
<asrwt>0</asrwt>
<pdfrwt beam="1">  1       21 0.53292522E-01 0.17458792E+03</pdfrwt>
<pdfrwt beam="2">  1       21 0.16812062E-01 0.17458792E+03</pdfrwt>
<totfact> 0.10687630E+05</totfact>
</mgrwt>
</event>
<event>
 4    1  0.3950955E+000  0.2418576E+03  0.7546771E-02  0.1118561E+00
         21   -1    0    0  503  502  0.00000000000E+00  0.00000000000E+00  0.49515983110E+03  0.49515983110E+03  0.00000000000E+00 0. -1.
         21   -1    0    0  501  503 -0.00000000000E+00 -0.00000000000E+00 -0.21882312363E+03  0.21882312363E+03  0.00000000000E+00 0. -1.
          6    1    1    2  501    0  0.63611274968E+02  0.15658771309E+03 -0.10399196555E+03  0.26326685149E+03  0.17300000000E+03 0. -1.
         -6    1    1    2    0  502 -0.63611274968E+02 -0.15658771309E+03  0.38032867302E+03  0.45071610324E+03  0.17300000000E+03 0. -1.
<mgrwt>
<rscale>  2 0.24185762E+03</rscale>
<asrwt>0</asrwt>
<pdfrwt beam="1">  1       21 0.76178435E-01 0.24185762E+03</pdfrwt>
<pdfrwt beam="2">  1       21 0.33665096E-01 0.24185762E+03</pdfrwt>
<totfact> 0.12663291E+04</totfact>
</mgrwt>
</event>
<event>
 4    1  0.3950955E+000  0.2124697E+03  0.7546771E-02  0.1139625E+00
         21   -1    0    0  501  502  0.00000000000E+00  0.00000000000E+00  0.91254473021E+03  0.91254473021E+03  0.00000000000E+00 0. -1.
         21   -1    0    0  502  503 -0.00000000000E+00 -0.00000000000E+00 -0.50002343269E+02  0.50002343269E+02  0.00000000000E+00 0. -1.
          6    1    1    2  501    0  0.11712480498E+03 -0.38680093414E+02  0.48094074251E+03  0.52578262369E+03  0.17300000000E+03 0. -1.
         -6    1    1    2    0  503 -0.11712480498E+03  0.38680093414E+02  0.38160164444E+03  0.43676444979E+03  0.17300000000E+03 0. -1.
<mgrwt>
<rscale>  2 0.21246969E+03</rscale>
<asrwt>0</asrwt>
<pdfrwt beam="1">  1       21 0.14039148E+00 0.21246969E+03</pdfrwt>
<pdfrwt beam="2">  1       21 0.76926689E-02 0.21246969E+03</pdfrwt>
<totfact> 0.45134145E+04</totfact>
</mgrwt>
</event>
<event>
 4    1  0.3950955E+000  0.2173964E+03  0.7546771E-02  0.1135839E+00
         21   -1    0    0  501  502  0.00000000000E+00  0.00000000000E+00  0.31174610736E+02  0.31174610736E+02  0.00000000000E+00 0. -1.
         21   -1    0    0  502  503 -0.00000000000E+00 -0.00000000000E+00 -0.15199056886E+04  0.15199056886E+04  0.00000000000E+00 0.  1.
          6    1    1    2  501    0  0.13054097795E+03  0.17065709244E+02 -0.78360247843E+03  0.81319987061E+03  0.17300000000E+03 0.  1.
         -6    1    1    2    0  503 -0.13054097795E+03 -0.17065709244E+02 -0.70512859943E+03  0.73788042872E+03  0.17300000000E+03 0. -1.
<mgrwt>
<rscale>  2 0.21739638E+03</rscale>
<asrwt>0</asrwt>
<pdfrwt beam="1">  1       21 0.47960946E-02 0.21739638E+03</pdfrwt>
<pdfrwt beam="2">  1       21 0.23383161E+00 0.21739638E+03</pdfrwt>
<totfact> 0.23475605E+04</totfact>
</mgrwt>
</event>
<event>
 4    1  0.3950955E+000  0.1990754E+03  0.7546771E-02  0.1150521E+00
         21   -1    0    0  503  502  0.00000000000E+00  0.00000000000E+00  0.59656349263E+02  0.59656349263E+02  0.00000000000E+00 0.  1.
         21   -1    0    0  501  503 -0.00000000000E+00 -0.00000000000E+00 -0.67911542055E+03  0.67911542055E+03  0.00000000000E+00 0.  1.
          6    1    1    2  501    0 -0.97001060178E+02 -0.17112144545E+02 -0.36424771541E+03  0.41509930059E+03  0.17300000000E+03 0.  1.
         -6    1    1    2    0  502  0.97001060178E+02  0.17112144545E+02 -0.25521135588E+03  0.32367246923E+03  0.17300000000E+03 0.  1.
<mgrwt>
<rscale>  2 0.19907544E+03</rscale>
<asrwt>0</asrwt>
<pdfrwt beam="1">  1       21 0.91778996E-02 0.19907544E+03</pdfrwt>
<pdfrwt beam="2">  1       21 0.10447930E+00 0.19907544E+03</pdfrwt>
<totfact> 0.69570712E+04</totfact>
</mgrwt>
</event>
<event>
 4    1  0.3950955E+000  0.2065072E+03  0.7546771E-02  0.1144362E+00
         21   -1    0    0  501  502  0.00000000000E+00  0.00000000000E+00  0.21112433341E+03  0.21112433341E+03  0.00000000000E+00 0.  1.
         21   -1    0    0  502  503 -0.00000000000E+00 -0.00000000000E+00 -0.24385458180E+03  0.24385458180E+03  0.00000000000E+00 0.  1.
          6    1    1    2  501    0 -0.46597359877E+02 -0.10268837100E+03  0.77891959933E+02  0.22070879663E+03  0.17300000000E+03 0.  1.
         -6    1    1    2    0  503  0.46597359877E+02  0.10268837100E+03 -0.11062220833E+03  0.23427011858E+03  0.17300000000E+03 0.  1.
<mgrwt>
<rscale>  2 0.20650718E+03</rscale>
<asrwt>0</asrwt>
<pdfrwt beam="1">  1       21 0.32480667E-01 0.20650718E+03</pdfrwt>
<pdfrwt beam="2">  1       21 0.37516090E-01 0.20650718E+03</pdfrwt>
<totfact> 0.62104450E+04</totfact>
</mgrwt>
</event>
<event>
 4    1  0.3950955E+000  0.2286155E+03  0.7546771E-02  0.1127618E+00
         21   -1    0    0  501  502  0.00000000000E+00  0.00000000000E+00  0.17509919671E+04  0.17509919671E+04  0.00000000000E+00 0.  1.
         21   -1    0    0  502  503 -0.00000000000E+00 -0.00000000000E+00 -0.10079666899E+03  0.10079666899E+03  0.00000000000E+00 0. -1.
          6    1    1    2  501    0  0.13947501432E+02  0.14880025008E+03  0.16018953647E+04  0.16181266349E+04  0.17300000000E+03 0.  1.
         -6    1    1    2    0  503 -0.13947501432E+02 -0.14880025008E+03  0.48299933410E+02  0.23366200116E+03  0.17300000000E+03 0. -1.
<mgrwt>
<rscale>  2 0.22861550E+03</rscale>
<asrwt>0</asrwt>
<pdfrwt beam="1">  1       21 0.26938336E+00 0.22861550E+03</pdfrwt>
<pdfrwt beam="2">  1       21 0.15507181E-01 0.22861550E+03</pdfrwt>
<totfact> 0.18173723E+03</totfact>
</mgrwt>
</event>
<event>
 4    1  0.3950955E+000  0.2119483E+03  0.7546771E-02  0.1140032E+00
         21   -1    0    0  501  502  0.00000000000E+00  0.00000000000E+00  0.94283119119E+02  0.94283119119E+02  0.00000000000E+00 0. -1.
         21   -1    0    0  502  503 -0.00000000000E+00 -0.00000000000E+00 -0.47908311283E+03  0.47908311283E+03  0.00000000000E+00 0.  1.
          6    1    1    2  501    0 -0.11445958180E+03  0.43498225133E+02 -0.17118498183E+03  0.27244520451E+03  0.17300000000E+03 0.  1.
         -6    1    1    2    0  503  0.11445958180E+03 -0.43498225133E+02 -0.21361501188E+03  0.30092102744E+03  0.17300000000E+03 0. -1.
<mgrwt>
<rscale>  2 0.21194832E+03</rscale>
<asrwt>0</asrwt>
<pdfrwt beam="1">  1       21 0.14505095E-01 0.21194832E+03</pdfrwt>
<pdfrwt beam="2">  1       21 0.73705095E-01 0.21194832E+03</pdfrwt>
<totfact> 0.68317008E+04</totfact>
</mgrwt>
</event>
<event>
 4    1  0.3950955E+000  0.2393226E+03  0.7546771E-02  0.1120245E+00
         21   -1    0    0  501  502  0.00000000000E+00  0.00000000000E+00  0.30626713288E+03  0.30626713288E+03  0.00000000000E+00 0.  1.
         21   -1    0    0  502  503 -0.00000000000E+00 -0.00000000000E+00 -0.20786914173E+03  0.20786914173E+03  0.00000000000E+00 0.  1.
          6    1    1    2  501    0 -0.15675286470E+03  0.52676636409E+02 -0.32232461892E+02  0.24148337462E+03  0.17300000000E+03 0.  1.
         -6    1    1    2    0  503  0.15675286470E+03 -0.52676636409E+02  0.13063045304E+03  0.27265290000E+03  0.17300000000E+03 0.  1.
<mgrwt>
<rscale>  2 0.23932256E+03</rscale>
<asrwt>0</asrwt>
<pdfrwt beam="1">  1       21 0.47118020E-01 0.23932256E+03</pdfrwt>
<pdfrwt beam="2">  1       21 0.31979868E-01 0.23932256E+03</pdfrwt>
<totfact> 0.39633717E+04</totfact>
</mgrwt>
</event>
<event>
 4    1  0.3950955E+000  0.2469978E+03  0.7546771E-02  0.1115217E+00
         21   -1    0    0  501  502  0.00000000000E+00  0.00000000000E+00  0.17566077796E+03  0.17566077796E+03  0.00000000000E+00 0. -1.
         21   -1    0    0  502  503 -0.00000000000E+00 -0.00000000000E+00 -0.34752855008E+03  0.34752855008E+03  0.00000000000E+00 0. -1.
          6    1    1    2  501    0  0.17571549841E+03  0.14247820459E+02 -0.92562642739E+02  0.26377221158E+03  0.17300000000E+03 0. -1.
         -6    1    1    2    0  503 -0.17571549841E+03 -0.14247820459E+02 -0.79305129385E+02  0.25941711647E+03  0.17300000000E+03 0. -1.
<mgrwt>
<rscale>  2 0.24699785E+03</rscale>
<asrwt>0</asrwt>
<pdfrwt beam="1">  1       21 0.27024735E-01 0.24699785E+03</pdfrwt>
<pdfrwt beam="2">  1       21 0.53465930E-01 0.24699785E+03</pdfrwt>
<totfact> 0.42114997E+04</totfact>
</mgrwt>
</event>
<event>
 4    1  0.3950955E+000  0.2270420E+03  0.7546771E-02  0.1128739E+00
         21   -1    0    0  503  502  0.00000000000E+00  0.00000000000E+00  0.48496868180E+03  0.48496868180E+03  0.00000000000E+00 0. -1.
         21   -1    0    0  501  503 -0.00000000000E+00 -0.00000000000E+00 -0.11408776005E+03  0.11408776005E+03  0.00000000000E+00 0. -1.
          6    1    1    2  501    0 -0.80735132817E+02 -0.12288568614E+03  0.26374034115E+03  0.34800434060E+03  0.17300000000E+03 0. -1.
         -6    1    1    2    0  502  0.80735132817E+02  0.12288568614E+03  0.10714058060E+03  0.25105210125E+03  0.17300000000E+03 0. -1.
<mgrwt>
<rscale>  2 0.22704196E+03</rscale>
<asrwt>0</asrwt>
<pdfrwt beam="1">  1       21 0.74610565E-01 0.22704196E+03</pdfrwt>
<pdfrwt beam="2">  1       21 0.17551963E-01 0.22704196E+03</pdfrwt>
<totfact> 0.46531158E+04</totfact>
</mgrwt>
</event>
<event>
 4    1  0.3950955E+000  0.1768824E+03  0.7546771E-02  0.1170855E+00
         21   -1    0    0  501  502  0.00000000000E+00  0.00000000000E+00  0.34253334230E+03  0.34253334230E+03  0.00000000000E+00 0. -1.
         21   -1    0    0  502  503 -0.00000000000E+00 -0.00000000000E+00 -0.91626622822E+02  0.91626622822E+02  0.00000000000E+00 0. -1.
          6    1    1    2  501    0  0.30980623079E+02  0.19964941156E+02  0.13756972856E+03  0.22408219050E+03  0.17300000000E+03 0.  1.
         -6    1    1    2    0  503 -0.30980623079E+02 -0.19964941156E+02  0.11333699092E+03  0.21007777463E+03  0.17300000000E+03 0.  1.
<mgrwt>
<rscale>  2 0.17688244E+03</rscale>
<asrwt>0</asrwt>
<pdfrwt beam="1">  1       21 0.52697436E-01 0.17688244E+03</pdfrwt>
<pdfrwt beam="2">  1       21 0.14096404E-01 0.17688244E+03</pdfrwt>
<totfact> 0.15068182E+05</totfact>
</mgrwt>
</event>
<event>
 4    1  0.3950955E+000  0.2431400E+03  0.7546771E-02  0.1117719E+00
         21   -1    0    0  501  502  0.00000000000E+00  0.00000000000E+00  0.12431790252E+03  0.12431790252E+03  0.00000000000E+00 0.  1.
         21   -1    0    0  502  503 -0.00000000000E+00 -0.00000000000E+00 -0.47612616840E+03  0.47612616840E+03  0.00000000000E+00 0.  1.
          6    1    1    2  501    0 -0.54723655953E+01 -0.17075748585E+03 -0.16529311928E+03  0.29400489969E+03  0.17300000000E+03 0.  1.
         -6    1    1    2    0  503  0.54723655953E+01  0.17075748585E+03 -0.18651514660E+03  0.30643917124E+03  0.17300000000E+03 0.  1.
<mgrwt>
<rscale>  2 0.24314001E+03</rscale>
<asrwt>0</asrwt>
<pdfrwt beam="1">  1       21 0.19125831E-01 0.24314001E+03</pdfrwt>
<pdfrwt beam="2">  1       21 0.73250179E-01 0.24314001E+03</pdfrwt>
<totfact> 0.41035953E+04</totfact>
</mgrwt>
</event>
<event>
 4    1  0.3950955E+000  0.1837689E+03  0.7546771E-02  0.1164204E+00
         21   -1    0    0  503  502  0.00000000000E+00  0.00000000000E+00  0.14173000574E+02  0.14173000574E+02  0.00000000000E+00 0. -1.
         21   -1    0    0  501  503 -0.00000000000E+00 -0.00000000000E+00 -0.31997927823E+04  0.31997927823E+04  0.00000000000E+00 0.  1.
          6    1    1    2  501    0 -0.25836802118E+02  0.56342558634E+02 -0.24048303383E+04  0.24118416159E+04  0.17300000000E+03 0.  1.
         -6    1    1    2    0  502  0.25836802118E+02 -0.56342558634E+02 -0.78078944351E+03  0.80212416705E+03  0.17300000000E+03 0. -1.
<mgrwt>
<rscale>  2 0.18376894E+03</rscale>
<asrwt>0</asrwt>
<pdfrwt beam="1">  1       21 0.21804578E-02 0.18376894E+03</pdfrwt>
<pdfrwt beam="2">  1       21 0.49227667E+00 0.18376894E+03</pdfrwt>
<totfact> 0.23254374E+03</totfact>
</mgrwt>
</event>
<event>
 4    1  0.3950955E+000  0.2064688E+03  0.7546771E-02  0.1144393E+00
         21   -1    0    0  503  502  0.00000000000E+00  0.00000000000E+00  0.32726905178E+02  0.32726905178E+02  0.00000000000E+00 0.  1.
         21   -1    0    0  501  503 -0.00000000000E+00 -0.00000000000E+00 -0.13369168524E+04  0.13369168524E+04  0.00000000000E+00 0. -1.
          6    1    1    2  501    0 -0.99228276729E+02  0.53424091028E+02 -0.54234333081E+03  0.58031514962E+03  0.17300000000E+03 0. -1.
         -6    1    1    2    0  502  0.99228276729E+02 -0.53424091028E+02 -0.76184661646E+03  0.78932860800E+03  0.17300000000E+03 0.  1.
<mgrwt>
<rscale>  2 0.20646885E+03</rscale>
<asrwt>0</asrwt>
<pdfrwt beam="1">  1       21 0.50349083E-02 0.20646885E+03</pdfrwt>
<pdfrwt beam="2">  1       21 0.20567953E+00 0.20646885E+03</pdfrwt>
<totfact> 0.32519966E+04</totfact>
</mgrwt>
</event>
<event>
 4    1  0.3950955E+000  0.1751026E+03  0.7546771E-02  0.1172629E+00
         21   -1    0    0  503  502  0.00000000000E+00  0.00000000000E+00  0.60988891510E+03  0.60988891510E+03  0.00000000000E+00 0. -1.
         21   -1    0    0  501  503 -0.00000000000E+00 -0.00000000000E+00 -0.50419993672E+02  0.50419993672E+02  0.00000000000E+00 0. -1.
          6    1    1    2  501    0  0.20447171698E+02  0.17714911208E+02  0.26190397354E+03  0.31504697469E+03  0.17300000000E+03 0. -1.
         -6    1    1    2    0  502 -0.20447171698E+02 -0.17714911208E+02  0.29756494789E+03  0.34526193408E+03  0.17300000000E+03 0. -1.
<mgrwt>
<rscale>  2 0.17510256E+03</rscale>
<asrwt>0</asrwt>
<pdfrwt beam="1">  1       21 0.93829059E-01 0.17510256E+03</pdfrwt>
<pdfrwt beam="2">  1       21 0.77569225E-02 0.17510256E+03</pdfrwt>
<totfact> 0.12156001E+05</totfact>
</mgrwt>
</event>
<event>
 4    1  0.3950955E+000  0.1810883E+03  0.7546771E-02  0.1166754E+00
         21   -1    0    0  501  502  0.00000000000E+00  0.00000000000E+00  0.45741469051E+02  0.45741469051E+02  0.00000000000E+00 0.  1.
         21   -1    0    0  502  503 -0.00000000000E+00 -0.00000000000E+00 -0.25658978317E+04  0.25658978317E+04  0.00000000000E+00 0.  1.
          6    1    1    2  501    0 -0.38981401747E+01 -0.53373879897E+02 -0.15159427776E+03  0.23616475520E+03  0.17300000000E+03 0.  1.
         -6    1    1    2    0  503  0.38981401747E+01  0.53373879897E+02 -0.23685620848E+04  0.23754745455E+04  0.17300000000E+03 0.  1.
<mgrwt>
<rscale>  2 0.18108828E+03</rscale>
<asrwt>0</asrwt>
<pdfrwt beam="1">  1       21 0.70371472E-02 0.18108828E+03</pdfrwt>
<pdfrwt beam="2">  1       21 0.39475362E+00 0.18108828E+03</pdfrwt>
<totfact> 0.14331463E+03</totfact>
</mgrwt>
</event>
<event>
 4    1  0.3950955E+000  0.2020889E+03  0.7546771E-02  0.1147988E+00
         21   -1    0    0  503  502  0.00000000000E+00  0.00000000000E+00  0.10509924576E+04  0.10509924576E+04  0.00000000000E+00 0. -1.
         21   -1    0    0  501  503 -0.00000000000E+00 -0.00000000000E+00 -0.41014520547E+02  0.41014520547E+02  0.00000000000E+00 0. -1.
          6    1    1    2  501    0  0.77882070085E+02 -0.69608303554E+02  0.63017577789E+03  0.66178655456E+03  0.17300000000E+03 0. -1.
         -6    1    1    2    0  502 -0.77882070085E+02  0.69608303554E+02  0.37980215920E+03  0.43022042362E+03  0.17300000000E+03 0. -1.
<mgrwt>
<rscale>  2 0.20208892E+03</rscale>
<asrwt>0</asrwt>
<pdfrwt beam="1">  1       21 0.16169113E+00 0.20208892E+03</pdfrwt>
<pdfrwt beam="2">  1       21 0.63099270E-02 0.20208892E+03</pdfrwt>
<totfact> 0.43998293E+04</totfact>
</mgrwt>
</event>
<event>
 4    1  0.3950955E+000  0.2653083E+03  0.7546771E-02  0.1103995E+00
         21   -1    0    0  503  502  0.00000000000E+00  0.00000000000E+00  0.46555225444E+03  0.46555225444E+03  0.00000000000E+00 0. -1.
         21   -1    0    0  501  503 -0.00000000000E+00 -0.00000000000E+00 -0.47093908160E+03  0.47093908160E+03  0.00000000000E+00 0. -1.
          6    1    1    2  501    0  0.86643297299E+02 -0.18152797738E+03 -0.38852136624E+03  0.47046500355E+03  0.17300000000E+03 0. -1.
         -6    1    1    2    0  502 -0.86643297299E+02  0.18152797738E+03  0.38313453908E+03  0.46602633249E+03  0.17300000000E+03 0. -1.
<mgrwt>
<rscale>  2 0.26530825E+03</rscale>
<asrwt>0</asrwt>
<pdfrwt beam="1">  1       21 0.71623424E-01 0.26530825E+03</pdfrwt>
<pdfrwt beam="2">  1       21 0.72452166E-01 0.26530825E+03</pdfrwt>
<totfact> 0.28656593E+03</totfact>
</mgrwt>
</event>
<event>
 4    1  0.3950955E+000  0.1758962E+03  0.7546771E-02  0.1171835E+00
         21   -1    0    0  503  502  0.00000000000E+00  0.00000000000E+00  0.75875426182E+03  0.75875426182E+03  0.00000000000E+00 0.  1.
         21   -1    0    0  501  503 -0.00000000000E+00 -0.00000000000E+00 -0.61475708106E+02  0.61475708106E+02  0.00000000000E+00 0.  1.
          6    1    1    2  501    0  0.15243042619E+02 -0.27895159724E+02  0.11066572136E+03  0.20781335897E+03  0.17300000000E+03 0.  1.
         -6    1    1    2    0  502 -0.15243042619E+02  0.27895159724E+02  0.58661283236E+03  0.61241661095E+03  0.17300000000E+03 0.  1.
<mgrwt>
<rscale>  2 0.17589625E+03</rscale>
<asrwt>0</asrwt>
<pdfrwt beam="1">  1       21 0.11673142E+00 0.17589625E+03</pdfrwt>
<pdfrwt beam="2">  1       21 0.94578018E-02 0.17589625E+03</pdfrwt>
<totfact> 0.51046599E+04</totfact>
</mgrwt>
</event>
<event>
 4    1  0.3950955E+000  0.2283097E+03  0.7546771E-02  0.1127835E+00
         21   -1    0    0  503  502  0.00000000000E+00  0.00000000000E+00  0.39527838012E+03  0.39527838012E+03  0.00000000000E+00 0. -1.
         21   -1    0    0  501  503 -0.00000000000E+00 -0.00000000000E+00 -0.14674444030E+03  0.14674444030E+03  0.00000000000E+00 0.  1.
          6    1    1    2  501    0 -0.14441437156E+03 -0.36616881222E+02  0.37983215849E+02  0.23144768608E+03  0.17300000000E+03 0.  1.
         -6    1    1    2    0  502  0.14441437156E+03  0.36616881222E+02  0.21055072397E+03  0.31057513434E+03  0.17300000000E+03 0. -1.
<mgrwt>
<rscale>  2 0.22830967E+03</rscale>
<asrwt>0</asrwt>
<pdfrwt beam="1">  1       21 0.60812058E-01 0.22830967E+03</pdfrwt>
<pdfrwt beam="2">  1       21 0.22576068E-01 0.22830967E+03</pdfrwt>
<totfact> 0.45494921E+04</totfact>
</mgrwt>
</event>
<event>
 4    1  0.3950955E+000  0.2475450E+03  0.7546771E-02  0.1114866E+00
         21   -1    0    0  501  502  0.00000000000E+00  0.00000000000E+00  0.11392274524E+03  0.11392274524E+03  0.00000000000E+00 0. -1.
         21   -1    0    0  502  503 -0.00000000000E+00 -0.00000000000E+00 -0.82097777233E+03  0.82097777233E+03  0.00000000000E+00 0.  1.
          6    1    1    2  501    0 -0.57839060917E+02  0.16734439212E+03 -0.79037695017E+02  0.25985661388E+03  0.17300000000E+03 0. -1.
         -6    1    1    2    0  503  0.57839060917E+02 -0.16734439212E+03 -0.62801733206E+03  0.67504390369E+03  0.17300000000E+03 0.  1.
<mgrwt>
<rscale>  2 0.24754495E+03</rscale>
<asrwt>0</asrwt>
<pdfrwt beam="1">  1       21 0.17526576E-01 0.24754495E+03</pdfrwt>
<pdfrwt beam="2">  1       21 0.12630427E+00 0.24754495E+03</pdfrwt>
<totfact> 0.13240141E+04</totfact>
</mgrwt>
</event>
<event>
 4    1  0.3950955E+000  0.2488645E+03  0.7546771E-02  0.1114025E+00
         21   -1    0    0  501  502  0.00000000000E+00  0.00000000000E+00  0.44008591634E+03  0.44008591634E+03  0.00000000000E+00 0.  1.
         21   -1    0    0  502  503 -0.00000000000E+00 -0.00000000000E+00 -0.21405428264E+03  0.21405428264E+03  0.00000000000E+00 0.  1.
          6    1    1    2  501    0  0.53277439431E+02  0.17078070263E+03 -0.78410286512E+02  0.26092471515E+03  0.17300000000E+03 0.  1.
         -6    1    1    2    0  503 -0.53277439431E+02 -0.17078070263E+03  0.30444192021E+03  0.39321548383E+03  0.17300000000E+03 0.  1.
<mgrwt>
<rscale>  2 0.24886449E+03</rscale>
<asrwt>0</asrwt>
<pdfrwt beam="1">  1       21 0.67705526E-01 0.24886449E+03</pdfrwt>
<pdfrwt beam="2">  1       21 0.32931428E-01 0.24886449E+03</pdfrwt>
<totfact> 0.17143864E+04</totfact>
</mgrwt>
</event>
<event>
 4    1  0.3950955E+000  0.2755355E+03  0.7546771E-02  0.1098153E+00
         21   -1    0    0  503  502  0.00000000000E+00  0.00000000000E+00  0.50169802931E+02  0.50169802931E+02  0.00000000000E+00 0. -1.
         21   -1    0    0  501  503 -0.00000000000E+00 -0.00000000000E+00 -0.15132768067E+04  0.15132768067E+04  0.00000000000E+00 0. -1.
          6    1    1    2  501    0  0.17244041129E+03  0.12749544961E+03 -0.72869654893E+03  0.77904970672E+03  0.17300000000E+03 0. -1.
         -6    1    1    2    0  502 -0.17244041129E+03 -0.12749544961E+03 -0.73441045481E+03  0.78439690288E+03  0.17300000000E+03 0. -1.
<mgrwt>
<rscale>  2 0.27553545E+03</rscale>
<asrwt>0</asrwt>
<pdfrwt beam="1">  1       21 0.77184314E-02 0.27553545E+03</pdfrwt>
<pdfrwt beam="2">  1       21 0.23281181E+00 0.27553545E+03</pdfrwt>
<totfact> 0.10074627E+04</totfact>
</mgrwt>
</event>
<event>
 4    1  0.3950955E+000  0.2050228E+03  0.7546771E-02  0.1145569E+00
         21   -1    0    0  503  502  0.00000000000E+00  0.00000000000E+00  0.44226030523E+03  0.44226030523E+03  0.00000000000E+00 0.  1.
         21   -1    0    0  501  503 -0.00000000000E+00 -0.00000000000E+00 -0.11771405146E+03  0.11771405146E+03  0.00000000000E+00 0.  1.
          6    1    1    2  501    0  0.78283393919E+02  0.77311352233E+02  0.39402783993E+02  0.20877479334E+03  0.17300000000E+03 0.  1.
         -6    1    1    2    0  502 -0.78283393919E+02 -0.77311352233E+02  0.28514346978E+03  0.35119956336E+03  0.17300000000E+03 0.  1.
<mgrwt>
<rscale>  2 0.20502277E+03</rscale>
<asrwt>0</asrwt>
<pdfrwt beam="1">  1       21 0.68040046E-01 0.20502277E+03</pdfrwt>
<pdfrwt beam="2">  1       21 0.18109854E-01 0.20502277E+03</pdfrwt>
<totfact> 0.54428655E+04</totfact>
</mgrwt>
</event>
<event>
 4    1  0.3950955E+000  0.1878628E+03  0.7546771E-02  0.1160403E+00
         21   -1    0    0  501  502  0.00000000000E+00  0.00000000000E+00  0.54023267285E+03  0.54023267285E+03  0.00000000000E+00 0.  1.
         21   -1    0    0  502  503 -0.00000000000E+00 -0.00000000000E+00 -0.12259691323E+03  0.12259691323E+03  0.00000000000E+00 0. -1.
          6    1    1    2  501    0  0.69275199559E+02  0.23756986024E+02  0.43532960987E+03  0.47413533605E+03  0.17300000000E+03 0.  1.
         -6    1    1    2    0  503 -0.69275199559E+02 -0.23756986024E+02 -0.17693850256E+02  0.18869425003E+03  0.17300000000E+03 0. -1.
<mgrwt>
<rscale>  2 0.18786284E+03</rscale>
<asrwt>0</asrwt>
<pdfrwt beam="1">  1       21 0.83112717E-01 0.18786284E+03</pdfrwt>
<pdfrwt beam="2">  1       21 0.18861064E-01 0.18786284E+03</pdfrwt>
<totfact> 0.32558011E+04</totfact>
</mgrwt>
</event>
<event>
 4    1  0.3950955E+000  0.1892388E+03  0.7546771E-02  0.1159150E+00
         21   -1    0    0  501  502  0.00000000000E+00  0.00000000000E+00  0.20614791414E+03  0.20614791414E+03  0.00000000000E+00 0. -1.
         21   -1    0    0  502  503 -0.00000000000E+00 -0.00000000000E+00 -0.18526218792E+03  0.18526218792E+03  0.00000000000E+00 0. -1.
          6    1    1    2  501    0 -0.72194192816E+02 -0.25890639424E+02 -0.38412874792E+02  0.19309809848E+03  0.17300000000E+03 0. -1.
         -6    1    1    2    0  503  0.72194192816E+02  0.25890639424E+02  0.59298601011E+02  0.19831200359E+03  0.17300000000E+03 0. -1.
<mgrwt>
<rscale>  2 0.18923881E+03</rscale>
<asrwt>0</asrwt>
<pdfrwt beam="1">  1       21 0.31715064E-01 0.18923881E+03</pdfrwt>
<pdfrwt beam="2">  1       21 0.28501875E-01 0.18923881E+03</pdfrwt>
<totfact> 0.11266049E+05</totfact>
</mgrwt>
</event>
<event>
 4    1  0.3950955E+000  0.1940024E+03  0.7546771E-02  0.1154900E+00
         21   -1    0    0  501  502  0.00000000000E+00  0.00000000000E+00  0.12659940522E+03  0.12659940522E+03  0.00000000000E+00 0. -1.
         21   -1    0    0  502  503 -0.00000000000E+00 -0.00000000000E+00 -0.44286524846E+03  0.44286524846E+03  0.00000000000E+00 0.  1.
          6    1    1    2  501    0 -0.57827939706E+02 -0.66059669689E+02  0.51129592251E+01  0.19406981456E+03  0.17300000000E+03 0. -1.
         -6    1    1    2    0  503  0.57827939706E+02  0.66059669689E+02 -0.32137880246E+03  0.37539483913E+03  0.17300000000E+03 0.  1.
<mgrwt>
<rscale>  2 0.19400245E+03</rscale>
<asrwt>0</asrwt>
<pdfrwt beam="1">  1       21 0.19476832E-01 0.19400245E+03</pdfrwt>
<pdfrwt beam="2">  1       21 0.68133115E-01 0.19400245E+03</pdfrwt>
<totfact> 0.47662826E+04</totfact>
</mgrwt>
</event>
<event>
 4    1  0.3950955E+000  0.2228302E+03  0.7546771E-02  0.1131790E+00
         21   -1    0    0  501  502  0.00000000000E+00  0.00000000000E+00  0.21282377088E+03  0.21282377088E+03  0.00000000000E+00 0. -1.
         21   -1    0    0  502  503 -0.00000000000E+00 -0.00000000000E+00 -0.25733715993E+03  0.25733715993E+03  0.00000000000E+00 0.  1.
          6    1    1    2  501    0  0.13317064007E+03 -0.44608275184E+02 -0.94092643603E+02  0.24188167184E+03  0.17300000000E+03 0.  1.
         -6    1    1    2    0  503 -0.13317064007E+03  0.44608275184E+02  0.49579254552E+02  0.22827925897E+03  0.17300000000E+03 0.  1.
<mgrwt>
<rscale>  2 0.22283024E+03</rscale>
<asrwt>0</asrwt>
<pdfrwt beam="1">  1       21 0.32742119E-01 0.22283024E+03</pdfrwt>
<pdfrwt beam="2">  1       21 0.39590332E-01 0.22283024E+03</pdfrwt>
<totfact> 0.54455254E+04</totfact>
</mgrwt>
</event>
<event>
 4    1  0.3950955E+000  0.1753402E+03  0.7546771E-02  0.1172391E+00
         21   -1    0    0  503  502  0.00000000000E+00  0.00000000000E+00  0.25459125004E+03  0.25459125004E+03  0.00000000000E+00 0. -1.
         21   -1    0    0  501  503 -0.00000000000E+00 -0.00000000000E+00 -0.16665574592E+03  0.16665574592E+03  0.00000000000E+00 0. -1.
          6    1    1    2  501    0  0.25347795076E+02  0.13140135849E+02 -0.66564196182E+02  0.18754990296E+03  0.17300000000E+03 0. -1.
         -6    1    1    2    0  502 -0.25347795076E+02 -0.13140135849E+02  0.15449970030E+03  0.23369709300E+03  0.17300000000E+03 0. -1.
<mgrwt>
<rscale>  2 0.17534017E+03</rscale>
<asrwt>0</asrwt>
<pdfrwt beam="1">  1       21 0.39167885E-01 0.17534017E+03</pdfrwt>
<pdfrwt beam="2">  1       21 0.25639345E-01 0.17534017E+03</pdfrwt>
<totfact> 0.91320620E+04</totfact>
</mgrwt>
</event>
<event>
 4    1  0.3950955E+000  0.1886773E+03  0.7546771E-02  0.1159660E+00
         21   -1    0    0  501  502  0.00000000000E+00  0.00000000000E+00  0.19563105758E+03  0.19563105758E+03  0.00000000000E+00 0.  1.
         21   -1    0    0  502  503 -0.00000000000E+00 -0.00000000000E+00 -0.18613147975E+03  0.18613147975E+03  0.00000000000E+00 0.  1.
          6    1    1    2  501    0  0.29084684436E+02  0.69456603442E+02  0.33288602955E+02  0.19159141347E+03  0.17300000000E+03 0.  1.
         -6    1    1    2    0  503 -0.29084684436E+02 -0.69456603442E+02 -0.23789025123E+02  0.19017112385E+03  0.17300000000E+03 0.  1.
<mgrwt>
<rscale>  2 0.18867734E+03</rscale>
<asrwt>0</asrwt>
<pdfrwt beam="1">  1       21 0.30097086E-01 0.18867734E+03</pdfrwt>
<pdfrwt beam="2">  1       21 0.28635612E-01 0.18867734E+03</pdfrwt>
<totfact> 0.12369934E+05</totfact>
</mgrwt>
</event>
<event>
 4    1  0.3950955E+000  0.1994679E+03  0.7546771E-02  0.1150189E+00
         21   -1    0    0  503  502  0.00000000000E+00  0.00000000000E+00  0.13210943486E+04  0.13210943486E+04  0.00000000000E+00 0.  1.
         21   -1    0    0  501  503 -0.00000000000E+00 -0.00000000000E+00 -0.47080989243E+02  0.47080989243E+02  0.00000000000E+00 0.  1.
          6    1    1    2  501    0  0.49126403097E+01 -0.99168042134E+02  0.22637484396E+03  0.30171676220E+03  0.17300000000E+03 0.  1.
         -6    1    1    2    0  502 -0.49126403097E+01  0.99168042134E+02  0.10476385154E+04  0.10664585756E+04  0.17300000000E+03 0.  1.
<mgrwt>
<rscale>  2 0.19946788E+03</rscale>
<asrwt>0</asrwt>
<pdfrwt beam="1">  1       21 0.20324526E+00 0.19946788E+03</pdfrwt>
<pdfrwt beam="2">  1       21 0.72432301E-02 0.19946788E+03</pdfrwt>
<totfact> 0.18156288E+04</totfact>
</mgrwt>
</event>
<event>
 4    1  0.3950955E+000  0.1872166E+03  0.7546771E-02  0.1160996E+00
         21   -1    0    0  503  502  0.00000000000E+00  0.00000000000E+00  0.17603479857E+03  0.17603479857E+03  0.00000000000E+00 0.  1.
         21   -1    0    0  501  503 -0.00000000000E+00 -0.00000000000E+00 -0.28479616785E+03  0.28479616785E+03  0.00000000000E+00 0.  1.
          6    1    1    2  501    0  0.55020074506E+02 -0.45758696934E+02 -0.18076789890E+03  0.26024430871E+03  0.17300000000E+03 0.  1.
         -6    1    1    2    0  502 -0.55020074506E+02  0.45758696934E+02  0.72006529626E+02  0.20058665771E+03  0.17300000000E+03 0.  1.
<mgrwt>
<rscale>  2 0.18721663E+03</rscale>
<asrwt>0</asrwt>
<pdfrwt beam="1">  1       21 0.27082277E-01 0.18721663E+03</pdfrwt>
<pdfrwt beam="2">  1       21 0.43814795E-01 0.18721663E+03</pdfrwt>
<totfact> 0.65184540E+04</totfact>
</mgrwt>
</event>
<event>
 4    1  0.3950955E+000  0.1949859E+03  0.7546771E-02  0.1154040E+00
         21   -1    0    0  503  502  0.00000000000E+00  0.00000000000E+00  0.29300660939E+02  0.29300660939E+02  0.00000000000E+00 0.  1.
         21   -1    0    0  501  503 -0.00000000000E+00 -0.00000000000E+00 -0.12976724184E+04  0.12976724184E+04  0.00000000000E+00 0.  1.
          6    1    1    2  501    0  0.87408644213E+02 -0.21218327792E+02 -0.62812674306E+03  0.65769498544E+03  0.17300000000E+03 0.  1.
         -6    1    1    2    0  502 -0.87408644213E+02  0.21218327792E+02 -0.64024501442E+03  0.66927809392E+03  0.17300000000E+03 0.  1.
<mgrwt>
<rscale>  2 0.19498587E+03</rscale>
<asrwt>0</asrwt>
<pdfrwt beam="1">  1       21 0.45077944E-02 0.19498587E+03</pdfrwt>
<pdfrwt beam="2">  1       21 0.19964189E+00 0.19498587E+03</pdfrwt>
<totfact> 0.43195785E+04</totfact>
</mgrwt>
</event>
<event>
 4    1  0.3950955E+000  0.3003325E+03  0.7546771E-02  0.1085075E+00
         21   -1    0    0  501  502  0.00000000000E+00  0.00000000000E+00  0.11843854266E+03  0.11843854266E+03  0.00000000000E+00 0. -1.
         21   -1    0    0  502  503 -0.00000000000E+00 -0.00000000000E+00 -0.12039168001E+04  0.12039168001E+04  0.00000000000E+00 0. -1.
          6    1    1    2  501    0  0.22001326125E+03 -0.10892552336E+03 -0.14196481589E+03  0.33219514403E+03  0.17300000000E+03 0. -1.
         -6    1    1    2    0  503 -0.22001326125E+03  0.10892552336E+03 -0.94351344155E+03  0.99016019873E+03  0.17300000000E+03 0. -1.
<mgrwt>
<rscale>  2 0.30033249E+03</rscale>
<asrwt>0</asrwt>
<pdfrwt beam="1">  1       21 0.18221314E-01 0.30033249E+03</pdfrwt>
<pdfrwt beam="2">  1       21 0.18521797E+00 0.30033249E+03</pdfrwt>
<totfact> 0.42526597E+03</totfact>
</mgrwt>
</event>
<event>
 4    1  0.3950955E+000  0.1943248E+03  0.7546771E-02  0.1154617E+00
         21   -1    0    0  501  502  0.00000000000E+00  0.00000000000E+00  0.22738458849E+03  0.22738458849E+03  0.00000000000E+00 0.  1.
         21   -1    0    0  502  503 -0.00000000000E+00 -0.00000000000E+00 -0.18440165675E+03  0.18440165675E+03  0.00000000000E+00 0.  1.
          6    1    1    2  501    0  0.25188275757E+01  0.88469112587E+02  0.86405862655E+02  0.21266899510E+03  0.17300000000E+03 0.  1.
         -6    1    1    2    0  503 -0.25188275757E+01 -0.88469112587E+02 -0.43422930925E+02  0.19911725014E+03  0.17300000000E+03 0.  1.
<mgrwt>
<rscale>  2 0.19432480E+03</rscale>
<asrwt>0</asrwt>
<pdfrwt beam="1">  1       21 0.34982245E-01 0.19432480E+03</pdfrwt>
<pdfrwt beam="2">  1       21 0.28369486E-01 0.19432480E+03</pdfrwt>
<totfact> 0.93510635E+04</totfact>
</mgrwt>
</event>
<event>
 4    1  0.3950955E+000  0.2004265E+03  0.7546771E-02  0.1149380E+00
         21   -1    0    0  501  502  0.00000000000E+00  0.00000000000E+00  0.89031995600E+02  0.89031995600E+02  0.00000000000E+00 0.  1.
         21   -1    0    0  502  503 -0.00000000000E+00 -0.00000000000E+00 -0.65870845866E+03  0.65870845866E+03  0.00000000000E+00 0.  1.
          6    1    1    2  501    0 -0.88124419498E+02  0.49758111242E+02 -0.74993778470E+02  0.21399731250E+03  0.17300000000E+03 0.  1.
         -6    1    1    2    0  503  0.88124419498E+02 -0.49758111242E+02 -0.49468268459E+03  0.53374314176E+03  0.17300000000E+03 0.  1.
<mgrwt>
<rscale>  2 0.20042650E+03</rscale>
<asrwt>0</asrwt>
<pdfrwt beam="1">  1       21 0.13697230E-01 0.20042650E+03</pdfrwt>
<pdfrwt beam="2">  1       21 0.10133977E+00 0.20042650E+03</pdfrwt>
<totfact> 0.36634575E+04</totfact>
</mgrwt>
</event>
<event>
 4    1  0.3950955E+000  0.1784268E+03  0.7546771E-02  0.1169334E+00
         21   -1    0    0  501  502  0.00000000000E+00  0.00000000000E+00  0.38083097320E+03  0.38083097320E+03  0.00000000000E+00 0.  1.
         21   -1    0    0  502  503 -0.00000000000E+00 -0.00000000000E+00 -0.16078236415E+03  0.16078236415E+03  0.00000000000E+00 0.  1.
          6    1    1    2  501    0 -0.41882754977E+02 -0.12367967194E+02  0.29765723847E+03  0.34703884997E+03  0.17300000000E+03 0.  1.
         -6    1    1    2    0  503  0.41882754977E+02  0.12367967194E+02 -0.77608629426E+02  0.19457448738E+03  0.17300000000E+03 0.  1.
<mgrwt>
<rscale>  2 0.17842682E+03</rscale>
<asrwt>0</asrwt>
<pdfrwt beam="1">  1       21 0.58589380E-01 0.17842682E+03</pdfrwt>
<pdfrwt beam="2">  1       21 0.24735748E-01 0.17842682E+03</pdfrwt>
<totfact> 0.42446413E+04</totfact>
</mgrwt>
</event>
<event>
 4    1  0.3950955E+000  0.2029025E+03  0.7546771E-02  0.1147313E+00
         21   -1    0    0  501  502  0.00000000000E+00  0.00000000000E+00  0.50770231010E+03  0.50770231010E+03  0.00000000000E+00 0. -1.
         21   -1    0    0  502  503 -0.00000000000E+00 -0.00000000000E+00 -0.83292029442E+02  0.83292029442E+02  0.00000000000E+00 0. -1.
          6    1    1    2  501    0 -0.73309287516E+02  0.76590853892E+02  0.16415483623E+03  0.26099084427E+03  0.17300000000E+03 0. -1.
         -6    1    1    2    0  503  0.73309287516E+02 -0.76590853892E+02  0.26025544443E+03  0.33000349527E+03  0.17300000000E+03 0. -1.
<mgrwt>
<rscale>  2 0.20290247E+03</rscale>
<asrwt>0</asrwt>
<pdfrwt beam="1">  1       21 0.78108046E-01 0.20290247E+03</pdfrwt>
<pdfrwt beam="2">  1       21 0.12814159E-01 0.20290247E+03</pdfrwt>
<totfact> 0.75374883E+04</totfact>
</mgrwt>
</event>
<event>
 4    1  0.3950955E+000  0.2404793E+03  0.7546771E-02  0.1119474E+00
         21   -1    0    0  501  502  0.00000000000E+00  0.00000000000E+00  0.10328488670E+04  0.10328488670E+04  0.00000000000E+00 0. -1.
         21   -1    0    0  502  503 -0.00000000000E+00 -0.00000000000E+00 -0.58637456419E+02  0.58637456419E+02  0.00000000000E+00 0. -1.
          6    1    1    2  501    0 -0.16017458728E+03 -0.47385738617E+02  0.60304426287E+03  0.64922468346E+03  0.17300000000E+03 0.  1.
         -6    1    1    2    0  503  0.16017458728E+03  0.47385738617E+02  0.37116714770E+03  0.44226163995E+03  0.17300000000E+03 0.  1.
<mgrwt>
<rscale>  2 0.24047933E+03</rscale>
<asrwt>0</asrwt>
<pdfrwt beam="1">  1       21 0.15889981E+00 0.24047933E+03</pdfrwt>
<pdfrwt beam="2">  1       21 0.90211479E-02 0.24047933E+03</pdfrwt>
<totfact> 0.24219950E+04</totfact>
</mgrwt>
</event>
<event>
 4    1  0.3950955E+000  0.2209981E+03  0.7546771E-02  0.1133141E+00
         21   -1    0    0  501  502  0.00000000000E+00  0.00000000000E+00  0.16702185807E+03  0.16702185807E+03  0.00000000000E+00 0.  1.
         21   -1    0    0  502  503 -0.00000000000E+00 -0.00000000000E+00 -0.31489770477E+03  0.31489770477E+03  0.00000000000E+00 0. -1.
          6    1    1    2  501    0  0.13060141500E+03 -0.43063181382E+02 -0.95570477840E+01  0.22120466621E+03  0.17300000000E+03 0. -1.
         -6    1    1    2    0  503 -0.13060141500E+03  0.43063181382E+02 -0.13831879892E+03  0.26071489663E+03  0.17300000000E+03 0.  1.
<mgrwt>
<rscale>  2 0.22099812E+03</rscale>
<asrwt>0</asrwt>
<pdfrwt beam="1">  1       21 0.25695671E-01 0.22099812E+03</pdfrwt>
<pdfrwt beam="2">  1       21 0.48445801E-01 0.22099812E+03</pdfrwt>
<totfact> 0.57731482E+04</totfact>
</mgrwt>
</event>
<event>
 4    1  0.3950955E+000  0.1829582E+03  0.7546771E-02  0.1164970E+00
         21   -1    0    0  501  502  0.00000000000E+00  0.00000000000E+00  0.97450783272E+03  0.97450783272E+03  0.00000000000E+00 0.  1.
         21   -1    0    0  502  503 -0.00000000000E+00 -0.00000000000E+00 -0.39191437040E+02  0.39191437040E+02  0.00000000000E+00 0.  1.
          6    1    1    2  501    0  0.46509729665E+02 -0.37169371369E+02  0.64581382357E+03  0.67122962675E+03  0.17300000000E+03 0.  1.
         -6    1    1    2    0  503 -0.46509729665E+02  0.37169371369E+02  0.28950257212E+03  0.34246964301E+03  0.17300000000E+03 0.  1.
<mgrwt>
<rscale>  2 0.18295824E+03</rscale>
<asrwt>0</asrwt>
<pdfrwt beam="1">  1       21 0.14992426E+00 0.18295824E+03</pdfrwt>
<pdfrwt beam="2">  1       21 0.60294526E-02 0.18295824E+03</pdfrwt>
<totfact> 0.58829564E+04</totfact>
</mgrwt>
</event>
<event>
 4    1  0.3950955E+000  0.2207672E+03  0.7546771E-02  0.1133312E+00
         21   -1    0    0  503  502  0.00000000000E+00  0.00000000000E+00  0.77946137951E+02  0.77946137951E+02  0.00000000000E+00 0. -1.
         21   -1    0    0  501  503 -0.00000000000E+00 -0.00000000000E+00 -0.63116028200E+03  0.63116028200E+03  0.00000000000E+00 0.  1.
          6    1    1    2  501    0  0.11452859995E+03 -0.75447845815E+02 -0.24238527215E+03  0.32785484258E+03  0.17300000000E+03 0. -1.
         -6    1    1    2    0  502 -0.11452859995E+03  0.75447845815E+02 -0.31082887189E+03  0.38125157737E+03  0.17300000000E+03 0.  1.
<mgrwt>
<rscale>  2 0.22076725E+03</rscale>
<asrwt>0</asrwt>
<pdfrwt beam="1">  1       21 0.11991714E-01 0.22076725E+03</pdfrwt>
<pdfrwt beam="2">  1       21 0.97101581E-01 0.22076725E+03</pdfrwt>
<totfact> 0.50990688E+04</totfact>
</mgrwt>
</event>
<event>
 4    1  0.3950955E+000  0.1870387E+03  0.7546771E-02  0.1161160E+00
         21   -1    0    0  503  502  0.00000000000E+00  0.00000000000E+00  0.88355234118E+02  0.88355234118E+02  0.00000000000E+00 0.  1.
         21   -1    0    0  501  503 -0.00000000000E+00 -0.00000000000E+00 -0.70756682272E+03  0.70756682272E+03  0.00000000000E+00 0.  1.
          6    1    1    2  501    0 -0.60439445179E+02  0.37437290528E+02 -0.57370883113E+03  0.60342795773E+03  0.17300000000E+03 0.  1.
         -6    1    1    2    0  502  0.60439445179E+02 -0.37437290528E+02 -0.45502757480E+02  0.19249409911E+03  0.17300000000E+03 0.  1.
<mgrwt>
<rscale>  2 0.18703871E+03</rscale>
<asrwt>0</asrwt>
<pdfrwt beam="1">  1       21 0.13593113E-01 0.18703871E+03</pdfrwt>
<pdfrwt beam="2">  1       21 0.10885643E+00 0.18703871E+03</pdfrwt>
<totfact> 0.31514513E+04</totfact>
</mgrwt>
</event>
<event>
 4    1  0.3950955E+000  0.1925222E+03  0.7546771E-02  0.1156206E+00
         21   -1    0    0  501  502  0.00000000000E+00  0.00000000000E+00  0.48833026075E+03  0.48833026075E+03  0.00000000000E+00 0.  1.
         21   -1    0    0  502  503 -0.00000000000E+00 -0.00000000000E+00 -0.10167693627E+03  0.10167693627E+03  0.00000000000E+00 0. -1.
          6    1    1    2  501    0 -0.37034204481E+02  0.75922811904E+02  0.34185948700E+03  0.39234259840E+03  0.17300000000E+03 0.  1.
         -6    1    1    2    0  503  0.37034204481E+02 -0.75922811904E+02  0.44793837471E+02  0.19766459861E+03  0.17300000000E+03 0. -1.
<mgrwt>
<rscale>  2 0.19252222E+03</rscale>
<asrwt>0</asrwt>
<pdfrwt beam="1">  1       21 0.75127731E-01 0.19252222E+03</pdfrwt>
<pdfrwt beam="2">  1       21 0.15642606E-01 0.19252222E+03</pdfrwt>
<totfact> 0.57563632E+04</totfact>
</mgrwt>
</event>
<event>
 4    1  0.3950955E+000  0.1888945E+03  0.7546771E-02  0.1159462E+00
         21   -1    0    0  503  502  0.00000000000E+00  0.00000000000E+00  0.63357308382E+03  0.63357308382E+03  0.00000000000E+00 0.  1.
         21   -1    0    0  501  503 -0.00000000000E+00 -0.00000000000E+00 -0.56319212275E+02  0.56319212275E+02  0.00000000000E+00 0. -1.
          6    1    1    2  501    0 -0.72870573597E+02  0.21024178980E+02  0.29062766283E+03  0.34662021724E+03  0.17300000000E+03 0.  1.
         -6    1    1    2    0  502  0.72870573597E+02 -0.21024178980E+02  0.28662620871E+03  0.34327207885E+03  0.17300000000E+03 0. -1.
<mgrwt>
<rscale>  2 0.18889451E+03</rscale>
<asrwt>0</asrwt>
<pdfrwt beam="1">  1       21 0.97472777E-01 0.18889451E+03</pdfrwt>
<pdfrwt beam="2">  1       21 0.86644946E-02 0.18889451E+03</pdfrwt>
<totfact> 0.91197165E+04</totfact>
</mgrwt>
</event>
<event>
 4    1  0.3950955E+000  0.1945393E+03  0.7546771E-02  0.1154430E+00
         21   -1    0    0  503  502  0.00000000000E+00  0.00000000000E+00  0.58821897459E+03  0.58821897459E+03  0.00000000000E+00 0.  1.
         21   -1    0    0  501  503 -0.00000000000E+00 -0.00000000000E+00 -0.74337556323E+02  0.74337556323E+02  0.00000000000E+00 0. -1.
          6    1    1    2  501    0  0.14521453304E+02 -0.87781973517E+02  0.13544728632E+03  0.23704749493E+03  0.17300000000E+03 0. -1.
         -6    1    1    2    0  502 -0.14521453304E+02  0.87781973517E+02  0.37843413195E+03  0.42550903598E+03  0.17300000000E+03 0.  1.
<mgrwt>
<rscale>  2 0.19453932E+03</rscale>
<asrwt>0</asrwt>
<pdfrwt beam="1">  1       21 0.90495224E-01 0.19453932E+03</pdfrwt>
<pdfrwt beam="2">  1       21 0.11436548E-01 0.19453932E+03</pdfrwt>
<totfact> 0.66275327E+04</totfact>
</mgrwt>
</event>
<event>
 4    1  0.3950955E+000  0.1749263E+03  0.7546771E-02  0.1172806E+00
         21   -1    0    0  501  502  0.00000000000E+00  0.00000000000E+00  0.84997745440E+03  0.84997745440E+03  0.00000000000E+00 0. -1.
         21   -1    0    0  502  503 -0.00000000000E+00 -0.00000000000E+00 -0.42486930828E+02  0.42486930828E+02  0.00000000000E+00 0. -1.
          6    1    1    2  501    0 -0.55164554209E+01 -0.25294176636E+02  0.57810706189E+03  0.60399255100E+03  0.17300000000E+03 0. -1.
         -6    1    1    2    0  503  0.55164554209E+01  0.25294176636E+02  0.22938346168E+03  0.28847183423E+03  0.17300000000E+03 0. -1.
<mgrwt>
<rscale>  2 0.17492635E+03</rscale>
<asrwt>0</asrwt>
<pdfrwt beam="1">  1       21 0.13076575E+00 0.17492635E+03</pdfrwt>
<pdfrwt beam="2">  1       21 0.65364515E-02 0.17492635E+03</pdfrwt>
<totfact> 0.73132560E+04</totfact>
</mgrwt>
</event>
<event>
 4    1  0.3950955E+000  0.2208152E+03  0.7546771E-02  0.1133277E+00
         21   -1    0    0  501  502  0.00000000000E+00  0.00000000000E+00  0.93352381517E+03  0.93352381517E+03  0.00000000000E+00 0.  1.
         21   -1    0    0  502  503 -0.00000000000E+00 -0.00000000000E+00 -0.16201944831E+03  0.16201944831E+03  0.00000000000E+00 0.  1.
          6    1    1    2  501    0 -0.13622254504E+03 -0.16545446568E+02  0.83666577913E+03  0.86531437036E+03  0.17300000000E+03 0.  1.
         -6    1    1    2    0  503  0.13622254504E+03  0.16545446568E+02 -0.65161412268E+02  0.23022889312E+03  0.17300000000E+03 0.  1.
<mgrwt>
<rscale>  2 0.22081516E+03</rscale>
<asrwt>0</asrwt>
<pdfrwt beam="1">  1       21 0.14361905E+00 0.22081516E+03</pdfrwt>
<pdfrwt beam="2">  1       21 0.24926069E-01 0.22081516E+03</pdfrwt>
<totfact> 0.49877318E+03</totfact>
</mgrwt>
</event>
<event>
 4    1  0.3950955E+000  0.3807561E+03  0.7546771E-02  0.1050655E+00
         21   -1    0    0  503  502  0.00000000000E+00  0.00000000000E+00  0.43319862105E+03  0.43319862105E+03  0.00000000000E+00 0. -1.
         21   -1    0    0  501  503 -0.00000000000E+00 -0.00000000000E+00 -0.43775575078E+03  0.43775575078E+03  0.00000000000E+00 0.  1.
          6    1    1    2  501    0  0.31382923428E+03 -0.12867574474E+03 -0.21361047142E+03  0.43658294638E+03  0.17300000000E+03 0.  1.
         -6    1    1    2    0  502 -0.31382923428E+03  0.12867574474E+03  0.20905334170E+03  0.43437142545E+03  0.17300000000E+03 0. -1.
<mgrwt>
<rscale>  2 0.38075614E+03</rscale>
<asrwt>0</asrwt>
<pdfrwt beam="1">  1       21 0.66645942E-01 0.38075614E+03</pdfrwt>
<pdfrwt beam="2">  1       21 0.67347039E-01 0.38075614E+03</pdfrwt>
<totfact> 0.37358444E+03</totfact>
</mgrwt>
</event>
<event>
 4    1  0.3950955E+000  0.1970058E+03  0.7546771E-02  0.1152290E+00
         21   -1    0    0  501  502  0.00000000000E+00  0.00000000000E+00  0.16194395810E+03  0.16194395810E+03  0.00000000000E+00 0. -1.
         21   -1    0    0  502  503 -0.00000000000E+00 -0.00000000000E+00 -0.26054097514E+03  0.26054097514E+03  0.00000000000E+00 0. -1.
          6    1    1    2  501    0 -0.80134604875E+02  0.49605742029E+02  0.10505697636E+02  0.19728571723E+03  0.17300000000E+03 0. -1.
         -6    1    1    2    0  503  0.80134604875E+02 -0.49605742029E+02 -0.10910271468E+03  0.22519921601E+03  0.17300000000E+03 0. -1.
<mgrwt>
<rscale>  2 0.19700580E+03</rscale>
<asrwt>0</asrwt>
<pdfrwt beam="1">  1       21 0.24914455E-01 0.19700580E+03</pdfrwt>
<pdfrwt beam="2">  1       21 0.40083226E-01 0.19700580E+03</pdfrwt>
<totfact> 0.91288314E+04</totfact>
</mgrwt>
</event>
<event>
 4    1  0.3950955E+000  0.2807755E+03  0.7546771E-02  0.1095266E+00
         21   -1    0    0  503  502  0.00000000000E+00  0.00000000000E+00  0.17976726255E+04  0.17976726255E+04  0.00000000000E+00 0. -1.
         21   -1    0    0  501  503 -0.00000000000E+00 -0.00000000000E+00 -0.10641316990E+03  0.10641316990E+03  0.00000000000E+00 0. -1.
          6    1    1    2  501    0 -0.18769918898E+03  0.11693981897E+03  0.11566015606E+03  0.30366458224E+03  0.17300000000E+03 0. -1.
         -6    1    1    2    0  502  0.18769918898E+03 -0.11693981897E+03  0.15755992995E+04  0.16004212131E+04  0.17300000000E+03 0. -1.
<mgrwt>
<rscale>  2 0.28077555E+03</rscale>
<asrwt>0</asrwt>
<pdfrwt beam="1">  1       21 0.27656500E+00 0.28077555E+03</pdfrwt>
<pdfrwt beam="2">  1       21 0.16371258E-01 0.28077555E+03</pdfrwt>
<totfact> 0.14213474E+03</totfact>
</mgrwt>
</event>
<event>
 4    1  0.3950955E+000  0.2418793E+03  0.7546771E-02  0.1118547E+00
         21   -1    0    0  503  502  0.00000000000E+00  0.00000000000E+00  0.56840807137E+02  0.56840807137E+02  0.00000000000E+00 0. -1.
         21   -1    0    0  501  503 -0.00000000000E+00 -0.00000000000E+00 -0.11490997870E+04  0.11490997870E+04  0.00000000000E+00 0. -1.
          6    1    1    2  501    0  0.12680824660E+03 -0.11178674860E+03 -0.35142978506E+03  0.42662454500E+03  0.17300000000E+03 0. -1.
         -6    1    1    2    0  502 -0.12680824660E+03  0.11178674860E+03 -0.74082919480E+03  0.77931604914E+03  0.17300000000E+03 0. -1.
<mgrwt>
<rscale>  2 0.24187933E+03</rscale>
<asrwt>0</asrwt>
<pdfrwt beam="1">  1       21 0.87447392E-02 0.24187933E+03</pdfrwt>
<pdfrwt beam="2">  1       21 0.17678459E+00 0.24187933E+03</pdfrwt>
<totfact> 0.19030916E+04</totfact>
</mgrwt>
</event>
<event>
 4    1  0.3950955E+000  0.2096783E+03  0.7546771E-02  0.1141821E+00
         21   -1    0    0  503  502  0.00000000000E+00  0.00000000000E+00  0.23851179139E+03  0.23851179139E+03  0.00000000000E+00 0.  1.
         21   -1    0    0  501  503 -0.00000000000E+00 -0.00000000000E+00 -0.20228364643E+03  0.20228364643E+03  0.00000000000E+00 0.  1.
          6    1    1    2  501    0  0.10944297480E+03 -0.45367756196E+02 -0.47545338299E+02  0.21500129588E+03  0.17300000000E+03 0.  1.
         -6    1    1    2    0  502 -0.10944297480E+03  0.45367756196E+02  0.83773483258E+02  0.22579414194E+03  0.17300000000E+03 0.  1.
<mgrwt>
<rscale>  2 0.20967832E+03</rscale>
<asrwt>0</asrwt>
<pdfrwt beam="1">  1       21 0.36694122E-01 0.20967832E+03</pdfrwt>
<pdfrwt beam="2">  1       21 0.31120561E-01 0.20967832E+03</pdfrwt>
<totfact> 0.70519460E+04</totfact>
</mgrwt>
</event>
<event>
 4    1  0.3950955E+000  0.2186002E+03  0.7546771E-02  0.1134931E+00
         21   -1    0    0  501  502  0.00000000000E+00  0.00000000000E+00  0.57076948204E+03  0.57076948204E+03  0.00000000000E+00 0.  1.
         21   -1    0    0  502  503 -0.00000000000E+00 -0.00000000000E+00 -0.10748955058E+03  0.10748955058E+03  0.00000000000E+00 0.  1.
          6    1    1    2  501    0 -0.22819556659E+02 -0.13166750194E+03  0.39110779007E+03  0.44805286149E+03  0.17300000000E+03 0.  1.
         -6    1    1    2    0  503  0.22819556659E+02  0.13166750194E+03  0.72172141388E+02  0.23020617113E+03  0.17300000000E+03 0.  1.
<mgrwt>
<rscale>  2 0.21860024E+03</rscale>
<asrwt>0</asrwt>
<pdfrwt beam="1">  1       21 0.87810688E-01 0.21860024E+03</pdfrwt>
<pdfrwt beam="2">  1       21 0.16536854E-01 0.21860024E+03</pdfrwt>
<totfact> 0.36001596E+04</totfact>
</mgrwt>
</event>
<event>
 4    1  0.3950955E+000  0.1841033E+03  0.7546771E-02  0.1163890E+00
         21   -1    0    0  503  502  0.00000000000E+00  0.00000000000E+00  0.58451091465E+03  0.58451091465E+03  0.00000000000E+00 0.  1.
         21   -1    0    0  501  503 -0.00000000000E+00 -0.00000000000E+00 -0.48002452862E+03  0.48002452862E+03  0.00000000000E+00 0.  1.
          6    1    1    2  501    0 -0.65421056864E+01 -0.62627644287E+02 -0.44684116940E+03  0.48328154491E+03  0.17300000000E+03 0.  1.
         -6    1    1    2    0  502  0.65421056864E+01  0.62627644287E+02  0.55132755544E+03  0.58125389836E+03  0.17300000000E+03 0.  1.
<mgrwt>
<rscale>  2 0.18410329E+03</rscale>
<asrwt>0</asrwt>
<pdfrwt beam="1">  1       21 0.89924756E-01 0.18410329E+03</pdfrwt>
<pdfrwt beam="2">  1       21 0.73849928E-01 0.18410329E+03</pdfrwt>
<totfact> 0.17462679E+03</totfact>
</mgrwt>
</event>
<event>
 4    1  0.3950955E+000  0.2090081E+03  0.7546771E-02  0.1142354E+00
         21   -1    0    0  503  502  0.00000000000E+00  0.00000000000E+00  0.49658146447E+03  0.49658146447E+03  0.00000000000E+00 0.  1.
         21   -1    0    0  501  503 -0.00000000000E+00 -0.00000000000E+00 -0.11482830363E+03  0.11482830363E+03  0.00000000000E+00 0.  1.
          6    1    1    2  501    0  0.11688227427E+03  0.96910017350E+01  0.43028599035E+02  0.21339128822E+03  0.17300000000E+03 0.  1.
         -6    1    1    2    0  502 -0.11688227427E+03 -0.96910017350E+01  0.33872456181E+03  0.39801847988E+03  0.17300000000E+03 0.  1.
<mgrwt>
<rscale>  2 0.20900809E+03</rscale>
<asrwt>0</asrwt>
<pdfrwt beam="1">  1       21 0.76397147E-01 0.20900809E+03</pdfrwt>
<pdfrwt beam="2">  1       21 0.17665893E-01 0.20900809E+03</pdfrwt>
<totfact> 0.43974017E+04</totfact>
</mgrwt>
</event>
<event>
 4    1  0.3950955E+000  0.1760422E+03  0.7546771E-02  0.1171689E+00
         21   -1    0    0  501  502  0.00000000000E+00  0.00000000000E+00  0.41132387526E+03  0.41132387526E+03  0.00000000000E+00 0.  1.
         21   -1    0    0  502  503 -0.00000000000E+00 -0.00000000000E+00 -0.78179122689E+02  0.78179122689E+02  0.00000000000E+00 0. -1.
          6    1    1    2  501    0 -0.81546706804E+01  0.31549511434E+02  0.21317927452E+03  0.27647110774E+03  0.17300000000E+03 0.  1.
         -6    1    1    2    0  503  0.81546706804E+01 -0.31549511434E+02  0.11996547805E+03  0.21303189022E+03  0.17300000000E+03 0. -1.
<mgrwt>
<rscale>  2 0.17604224E+03</rscale>
<asrwt>0</asrwt>
<pdfrwt beam="1">  1       21 0.63280595E-01 0.17604224E+03</pdfrwt>
<pdfrwt beam="2">  1       21 0.12027558E-01 0.17604224E+03</pdfrwt>
<totfact> 0.13578882E+05</totfact>
</mgrwt>
</event>
<event>
 4    1  0.3950955E+000  0.2372745E+03  0.7546771E-02  0.1121622E+00
         21   -1    0    0  501  502  0.00000000000E+00  0.00000000000E+00  0.10727895287E+04  0.10727895287E+04  0.00000000000E+00 0. -1.
         21   -1    0    0  502  503 -0.00000000000E+00 -0.00000000000E+00 -0.19827646139E+03  0.19827646139E+03  0.00000000000E+00 0. -1.
          6    1    1    2  501    0  0.15399494905E+03 -0.51533882705E+02  0.98223223378E+03  0.10104847087E+04  0.17300000000E+03 0. -1.
         -6    1    1    2    0  503 -0.15399494905E+03  0.51533882705E+02 -0.10771916647E+03  0.26058128142E+03  0.17300000000E+03 0. -1.
<mgrwt>
<rscale>  2 0.23727449E+03</rscale>
<asrwt>0</asrwt>
<pdfrwt beam="1">  1       21 0.16504454E+00 0.23727449E+03</pdfrwt>
<pdfrwt beam="2">  1       21 0.30504072E-01 0.23727449E+03</pdfrwt>
<totfact> 0.22941876E+03</totfact>
</mgrwt>
</event>
<event>
 4    1  0.3950955E+000  0.1784399E+03  0.7546771E-02  0.1169321E+00
         21   -1    0    0  501  502  0.00000000000E+00  0.00000000000E+00  0.24615857019E+03  0.24615857019E+03  0.00000000000E+00 0.  1.
         21   -1    0    0  502  503 -0.00000000000E+00 -0.00000000000E+00 -0.13209275524E+03  0.13209275524E+03  0.00000000000E+00 0.  1.
          6    1    1    2  501    0  0.35477976360E+01 -0.43580084928E+02  0.84281261813E+02  0.19734270132E+03  0.17300000000E+03 0.  1.
         -6    1    1    2    0  503 -0.35477976360E+01  0.43580084928E+02  0.29784553137E+02  0.18090862411E+03  0.17300000000E+03 0.  1.
<mgrwt>
<rscale>  2 0.17843994E+03</rscale>
<asrwt>0</asrwt>
<pdfrwt beam="1">  1       21 0.37870549E-01 0.17843994E+03</pdfrwt>
<pdfrwt beam="2">  1       21 0.20321962E-01 0.17843994E+03</pdfrwt>
<totfact> 0.15134533E+05</totfact>
</mgrwt>
</event>
<event>
 4    1  0.3950955E+000  0.3380581E+03  0.7546771E-02  0.1067626E+00
         21   -1    0    0  501  502  0.00000000000E+00  0.00000000000E+00  0.13720764687E+03  0.13720764687E+03  0.00000000000E+00 0.  1.
         21   -1    0    0  502  503 -0.00000000000E+00 -0.00000000000E+00 -0.84202958680E+03  0.84202958680E+03  0.00000000000E+00 0. -1.
          6    1    1    2  501    0 -0.26837936099E+03  0.11102623394E+03 -0.40333106872E+03  0.52626918684E+03  0.17300000000E+03 0. -1.
         -6    1    1    2    0  503  0.26837936099E+03 -0.11102623394E+03 -0.30149087121E+03  0.45296804683E+03  0.17300000000E+03 0.  1.
<mgrwt>
<rscale>  2 0.33805814E+03</rscale>
<asrwt>0</asrwt>
<pdfrwt beam="1">  1       21 0.21108868E-01 0.33805814E+03</pdfrwt>
<pdfrwt beam="2">  1       21 0.12954302E+00 0.33805814E+03</pdfrwt>
<totfact> 0.83712650E+03</totfact>
</mgrwt>
</event>
<event>
 4    1  0.3950955E+000  0.2265051E+03  0.7546771E-02  0.1129124E+00
         21   -1    0    0  503  502  0.00000000000E+00  0.00000000000E+00  0.44607971486E+03  0.44607971486E+03  0.00000000000E+00 0. -1.
         21   -1    0    0  501  503 -0.00000000000E+00 -0.00000000000E+00 -0.19256471146E+03  0.19256471146E+03  0.00000000000E+00 0. -1.
          6    1    1    2  501    0 -0.92955033682E+02  0.11284903388E+03  0.32940401261E+03  0.39976436341E+03  0.17300000000E+03 0. -1.
         -6    1    1    2    0  502  0.92955033682E+02 -0.11284903388E+03 -0.75889009207E+02  0.23888006291E+03  0.17300000000E+03 0. -1.
<mgrwt>
<rscale>  2 0.22650506E+03</rscale>
<asrwt>0</asrwt>
<pdfrwt beam="1">  1       21 0.68627648E-01 0.22650506E+03</pdfrwt>
<pdfrwt beam="2">  1       21 0.29625340E-01 0.22650506E+03</pdfrwt>
<totfact> 0.20728767E+04</totfact>
</mgrwt>
</event>
<event>
 4    1  0.3950955E+000  0.1977760E+03  0.7546771E-02  0.1151629E+00
         21   -1    0    0  503  502  0.00000000000E+00  0.00000000000E+00  0.16370175209E+04  0.16370175209E+04  0.00000000000E+00 0. -1.
         21   -1    0    0  501  503 -0.00000000000E+00 -0.00000000000E+00 -0.37192279736E+02  0.37192279736E+02  0.00000000000E+00 0.  1.
          6    1    1    2  501    0  0.38637081699E+02 -0.87712636830E+02  0.29936328818E+03  0.35879480076E+03  0.17300000000E+03 0.  1.
         -6    1    1    2    0  502 -0.38637081699E+02  0.87712636830E+02  0.13004619529E+04  0.13154149998E+04  0.17300000000E+03 0. -1.
<mgrwt>
<rscale>  2 0.19777596E+03</rscale>
<asrwt>0</asrwt>
<pdfrwt beam="1">  1       21 0.25184879E+00 0.19777596E+03</pdfrwt>
<pdfrwt beam="2">  1       21 0.57218905E-02 0.19777596E+03</pdfrwt>
<totfact> 0.13802716E+04</totfact>
</mgrwt>
</event>
<event>
 4    1  0.3950955E+000  0.2174835E+03  0.7546771E-02  0.1135773E+00
         21   -1    0    0  501  502  0.00000000000E+00  0.00000000000E+00  0.70778555801E+02  0.70778555801E+02  0.00000000000E+00 0.  1.
         21   -1    0    0  502  503 -0.00000000000E+00 -0.00000000000E+00 -0.73210418253E+03  0.73210418253E+03  0.00000000000E+00 0. -1.
          6    1    1    2  501    0  0.10735695510E+03 -0.76449615992E+02 -0.44920375758E+03  0.49908223312E+03  0.17300000000E+03 0.  1.
         -6    1    1    2    0  503 -0.10735695510E+03  0.76449615992E+02 -0.21212186914E+03  0.30380050521E+03  0.17300000000E+03 0. -1.
<mgrwt>
<rscale>  2 0.21748347E+03</rscale>
<asrwt>0</asrwt>
<pdfrwt beam="1">  1       21 0.10889009E-01 0.21748347E+03</pdfrwt>
<pdfrwt beam="2">  1       21 0.11263141E+00 0.21748347E+03</pdfrwt>
<totfact> 0.42471873E+04</totfact>
</mgrwt>
</event>
<event>
 4    1  0.3950955E+000  0.1856909E+03  0.7546771E-02  0.1162406E+00
         21   -1    0    0  503  502  0.00000000000E+00  0.00000000000E+00  0.11535513037E+04  0.11535513037E+04  0.00000000000E+00 0.  1.
         21   -1    0    0  501  503 -0.00000000000E+00 -0.00000000000E+00 -0.32616878935E+02  0.32616878935E+02  0.00000000000E+00 0.  1.
          6    1    1    2  501    0  0.44628573670E+02  0.50600510748E+02  0.73191279813E+03  0.75510096368E+03  0.17300000000E+03 0.  1.
         -6    1    1    2    0  502 -0.44628573670E+02 -0.50600510748E+02  0.38902162668E+03  0.43106721900E+03  0.17300000000E+03 0.  1.
<mgrwt>
<rscale>  2 0.18569093E+03</rscale>
<asrwt>0</asrwt>
<pdfrwt beam="1">  1       21 0.17746940E+00 0.18569093E+03</pdfrwt>
<pdfrwt beam="2">  1       21 0.50179822E-02 0.18569093E+03</pdfrwt>
<totfact> 0.50838564E+04</totfact>
</mgrwt>
</event>
<event>
 4    1  0.3950955E+000  0.1778750E+03  0.7546771E-02  0.1169876E+00
         21   -1    0    0  501  502  0.00000000000E+00  0.00000000000E+00  0.48075264576E+03  0.48075264576E+03  0.00000000000E+00 0.  1.
         21   -1    0    0  502  503 -0.00000000000E+00 -0.00000000000E+00 -0.66638079827E+02  0.66638079827E+02  0.00000000000E+00 0.  1.
          6    1    1    2  501    0  0.21988088313E+02 -0.35029076200E+02  0.17659254920E+03  0.25064804136E+03  0.17300000000E+03 0. -1.
         -6    1    1    2    0  503 -0.21988088313E+02  0.35029076200E+02  0.23752201674E+03  0.29674268423E+03  0.17300000000E+03 0. -1.
<mgrwt>
<rscale>  2 0.17787499E+03</rscale>
<asrwt>0</asrwt>
<pdfrwt beam="1">  1       21 0.73961943E-01 0.17787499E+03</pdfrwt>
<pdfrwt beam="2">  1       21 0.10252013E-01 0.17787499E+03</pdfrwt>
<totfact> 0.12803637E+05</totfact>
</mgrwt>
</event>
<event>
 4    1  0.3950955E+000  0.2735161E+03  0.7546771E-02  0.1099284E+00
         21   -1    0    0  501  502  0.00000000000E+00  0.00000000000E+00  0.63387634939E+03  0.63387634939E+03  0.00000000000E+00 0. -1.
         21   -1    0    0  502  503 -0.00000000000E+00 -0.00000000000E+00 -0.44118331178E+03  0.44118331178E+03  0.00000000000E+00 0. -1.
          6    1    1    2  501    0  0.15546351326E+03  0.14392068247E+03  0.55639438286E+03  0.61998852899E+03  0.17300000000E+03 0. -1.
         -6    1    1    2    0  503 -0.15546351326E+03 -0.14392068247E+03 -0.36370134525E+03  0.45507113217E+03  0.17300000000E+03 0. -1.
<mgrwt>
<rscale>  2 0.27351612E+03</rscale>
<asrwt>0</asrwt>
<pdfrwt beam="1">  1       21 0.97519438E-01 0.27351612E+03</pdfrwt>
<pdfrwt beam="2">  1       21 0.67874356E-01 0.27351612E+03</pdfrwt>
<totfact> 0.16193992E+03</totfact>
</mgrwt>
</event>
<event>
 4    1  0.3950955E+000  0.1829957E+03  0.7546771E-02  0.1164935E+00
         21   -1    0    0  503  502  0.00000000000E+00  0.00000000000E+00  0.18946772473E+03  0.18946772473E+03  0.00000000000E+00 0. -1.
         21   -1    0    0  501  503 -0.00000000000E+00 -0.00000000000E+00 -0.40452325645E+03  0.40452325645E+03  0.00000000000E+00 0. -1.
          6    1    1    2  501    0  0.59624274295E+02  0.18335659957E+01 -0.33038899768E+03  0.37768281115E+03  0.17300000000E+03 0. -1.
         -6    1    1    2    0  502 -0.59624274295E+02 -0.18335659957E+01  0.11533346597E+03  0.21630817003E+03  0.17300000000E+03 0. -1.
<mgrwt>
<rscale>  2 0.18299567E+03</rscale>
<asrwt>0</asrwt>
<pdfrwt beam="1">  1       21 0.29148881E-01 0.18299567E+03</pdfrwt>
<pdfrwt beam="2">  1       21 0.62234347E-01 0.18299567E+03</pdfrwt>
<totfact> 0.27136200E+04</totfact>
</mgrwt>
</event>
<event>
 4    1  0.3950955E+000  0.2229190E+03  0.7546771E-02  0.1131725E+00
         21   -1    0    0  503  502  0.00000000000E+00  0.00000000000E+00  0.31051139869E+03  0.31051139869E+03  0.00000000000E+00 0. -1.
         21   -1    0    0  501  503 -0.00000000000E+00 -0.00000000000E+00 -0.38921432658E+03  0.38921432658E+03  0.00000000000E+00 0.  1.
          6    1    1    2  501    0  0.12792255084E+03  0.58307026984E+02 -0.30781824500E+03  0.38005915377E+03  0.17300000000E+03 0.  1.
         -6    1    1    2    0  502 -0.12792255084E+03 -0.58307026984E+02  0.22911531710E+03  0.31966657151E+03  0.17300000000E+03 0. -1.
<mgrwt>
<rscale>  2 0.22291902E+03</rscale>
<asrwt>0</asrwt>
<pdfrwt beam="1">  1       21 0.47770985E-01 0.22291902E+03</pdfrwt>
<pdfrwt beam="2">  1       21 0.59879127E-01 0.22291902E+03</pdfrwt>
<totfact> 0.10688405E+04</totfact>
</mgrwt>
</event>
<event>
 4    1  0.3950955E+000  0.1926627E+03  0.7546771E-02  0.1156081E+00
         21   -1    0    0  503  502  0.00000000000E+00  0.00000000000E+00  0.11284806327E+04  0.11284806327E+04  0.00000000000E+00 0.  1.
         21   -1    0    0  501  503 -0.00000000000E+00 -0.00000000000E+00 -0.33877745527E+02  0.33877745527E+02  0.00000000000E+00 0.  1.
          6    1    1    2  501    0  0.66958370714E+02 -0.52024020353E+02  0.64639654813E+03  0.67449790181E+03  0.17300000000E+03 0.  1.
         -6    1    1    2    0  502 -0.66958370714E+02  0.52024020353E+02  0.44820633908E+03  0.48786047647E+03  0.17300000000E+03 0.  1.
<mgrwt>
<rscale>  2 0.19266272E+03</rscale>
<asrwt>0</asrwt>
<pdfrwt beam="1">  1       21 0.17361238E+00 0.19266272E+03</pdfrwt>
<pdfrwt beam="2">  1       21 0.52119617E-02 0.19266272E+03</pdfrwt>
<totfact> 0.50475078E+04</totfact>
</mgrwt>
</event>
<event>
 4    1  0.3950955E+000  0.2716030E+03  0.7546771E-02  0.1100366E+00
         21   -1    0    0  501  502  0.00000000000E+00  0.00000000000E+00  0.54267787624E+03  0.54267787624E+03  0.00000000000E+00 0. -1.
         21   -1    0    0  502  503 -0.00000000000E+00 -0.00000000000E+00 -0.13648190585E+03  0.13648190585E+03  0.00000000000E+00 0. -1.
          6    1    1    2  501    0 -0.20881872100E+03 -0.15295288952E+02  0.18157602877E+03  0.32670790980E+03  0.17300000000E+03 0. -1.
         -6    1    1    2    0  503  0.20881872100E+03  0.15295288952E+02  0.22461994163E+03  0.35245187229E+03  0.17300000000E+03 0. -1.
<mgrwt>
<rscale>  2 0.27160303E+03</rscale>
<asrwt>0</asrwt>
<pdfrwt beam="1">  1       21 0.83488903E-01 0.27160303E+03</pdfrwt>
<pdfrwt beam="2">  1       21 0.20997217E-01 0.27160303E+03</pdfrwt>
<totfact> 0.25276443E+04</totfact>
</mgrwt>
</event>
<event>
 4    1  0.3950955E+000  0.3262323E+03  0.7546771E-02  0.1072816E+00
         21   -1    0    0  503  502  0.00000000000E+00  0.00000000000E+00  0.23209879192E+03  0.23209879192E+03  0.00000000000E+00 0.  1.
         21   -1    0    0  501  503 -0.00000000000E+00 -0.00000000000E+00 -0.66544916589E+03  0.66544916589E+03  0.00000000000E+00 0.  1.
          6    1    1    2  501    0  0.21834665914E+03 -0.16977410172E+03 -0.46691470139E+03  0.56959358103E+03  0.17300000000E+03 0.  1.
         -6    1    1    2    0  502 -0.21834665914E+03  0.16977410172E+03  0.33564327423E+02  0.32795437677E+03  0.17300000000E+03 0.  1.
<mgrwt>
<rscale>  2 0.32623229E+03</rscale>
<asrwt>0</asrwt>
<pdfrwt beam="1">  1       21 0.35707506E-01 0.32623229E+03</pdfrwt>
<pdfrwt beam="2">  1       21 0.10237680E+00 0.32623229E+03</pdfrwt>
<totfact> 0.54135550E+03</totfact>
</mgrwt>
</event>
<event>
 4    1  0.3950955E+000  0.2056488E+03  0.7546771E-02  0.1145059E+00
         21   -1    0    0  503  502  0.00000000000E+00  0.00000000000E+00  0.20509065043E+03  0.20509065043E+03  0.00000000000E+00 0. -1.
         21   -1    0    0  501  503 -0.00000000000E+00 -0.00000000000E+00 -0.23366976431E+03  0.23366976431E+03  0.00000000000E+00 0.  1.
          6    1    1    2  501    0 -0.51058814215E+02 -0.98769472338E+02 -0.89496403691E+02  0.22427888320E+03  0.17300000000E+03 0.  1.
         -6    1    1    2    0  502  0.51058814215E+02  0.98769472338E+02  0.60917289813E+02  0.21448153154E+03  0.17300000000E+03 0. -1.
<mgrwt>
<rscale>  2 0.20564876E+03</rscale>
<asrwt>0</asrwt>
<pdfrwt beam="1">  1       21 0.31552408E-01 0.20564876E+03</pdfrwt>
<pdfrwt beam="2">  1       21 0.35949194E-01 0.20564876E+03</pdfrwt>
<totfact> 0.71633191E+04</totfact>
</mgrwt>
</event>
<event>
 4    1  0.3950955E+000  0.1811825E+03  0.7546771E-02  0.1166664E+00
         21   -1    0    0  501  502  0.00000000000E+00  0.00000000000E+00  0.36095039522E+03  0.36095039522E+03  0.00000000000E+00 0.  1.
         21   -1    0    0  502  503 -0.00000000000E+00 -0.00000000000E+00 -0.99700412164E+02  0.99700412164E+02  0.00000000000E+00 0.  1.
          6    1    1    2  501    0  0.12558592666E+02 -0.52348492274E+02  0.19887469903E+03  0.26903202190E+03  0.17300000000E+03 0.  1.
         -6    1    1    2    0  503 -0.12558592666E+02  0.52348492274E+02  0.62375284027E+02  0.19161878548E+03  0.17300000000E+03 0.  1.
<mgrwt>
<rscale>  2 0.18118246E+03</rscale>
<asrwt>0</asrwt>
<pdfrwt beam="1">  1       21 0.55530829E-01 0.18118246E+03</pdfrwt>
<pdfrwt beam="2">  1       21 0.15338525E-01 0.18118246E+03</pdfrwt>
<totfact> 0.11559612E+05</totfact>
</mgrwt>
</event>
<event>
 4    1  0.3950955E+000  0.2218809E+03  0.7546771E-02  0.1132488E+00
         21   -1    0    0  503  502  0.00000000000E+00  0.00000000000E+00  0.88411888767E+03  0.88411888767E+03  0.00000000000E+00 0.  1.
         21   -1    0    0  501  503 -0.00000000000E+00 -0.00000000000E+00 -0.62306749880E+02  0.62306749880E+02  0.00000000000E+00 0.  1.
          6    1    1    2  501    0  0.58605356462E+02  0.12596648811E+03  0.25662486060E+03  0.33924543182E+03  0.17300000000E+03 0.  1.
         -6    1    1    2    0  502 -0.58605356462E+02 -0.12596648811E+03  0.56518727719E+03  0.60718020573E+03  0.17300000000E+03 0.  1.
<mgrwt>
<rscale>  2 0.22188092E+03</rscale>
<asrwt>0</asrwt>
<pdfrwt beam="1">  1       21 0.13601828E+00 0.22188092E+03</pdfrwt>
<pdfrwt beam="2">  1       21 0.95856545E-02 0.22188092E+03</pdfrwt>
<totfact> 0.33132992E+04</totfact>
</mgrwt>
</event>
<event>
 4    1  0.3950955E+000  0.2013438E+03  0.7546771E-02  0.1148610E+00
         21   -1    0    0  503  502  0.00000000000E+00  0.00000000000E+00  0.64136854982E+03  0.64136854982E+03  0.00000000000E+00 0. -1.
         21   -1    0    0  501  503 -0.00000000000E+00 -0.00000000000E+00 -0.76259088857E+02  0.76259088857E+02  0.00000000000E+00 0. -1.
          6    1    1    2  501    0 -0.10263941736E+03 -0.86869077476E+01  0.43099604595E+03  0.47570674159E+03  0.17300000000E+03 0. -1.
         -6    1    1    2    0  502  0.10263941736E+03  0.86869077476E+01  0.13411341501E+03  0.24192089709E+03  0.17300000000E+03 0. -1.
<mgrwt>
<rscale>  2 0.20134377E+03</rscale>
<asrwt>0</asrwt>
<pdfrwt beam="1">  1       21 0.98672081E-01 0.20134377E+03</pdfrwt>
<pdfrwt beam="2">  1       21 0.11732168E-01 0.20134377E+03</pdfrwt>
<totfact> 0.51541863E+04</totfact>
</mgrwt>
</event>
<event>
 4    1  0.3950955E+000  0.1835582E+03  0.7546771E-02  0.1164403E+00
         21   -1    0    0  503  502  0.00000000000E+00  0.00000000000E+00  0.39034145065E+03  0.39034145065E+03  0.00000000000E+00 0. -1.
         21   -1    0    0  501  503 -0.00000000000E+00 -0.00000000000E+00 -0.12525517956E+03  0.12525517956E+03  0.00000000000E+00 0. -1.
          6    1    1    2  501    0 -0.60670555168E+02  0.91483835291E+01 -0.11191958508E+02  0.18389907319E+03  0.17300000000E+03 0. -1.
         -6    1    1    2    0  502  0.60670555168E+02 -0.91483835291E+01  0.27627822960E+03  0.33169755702E+03  0.17300000000E+03 0. -1.
<mgrwt>
<rscale>  2 0.18355819E+03</rscale>
<asrwt>0</asrwt>
<pdfrwt beam="1">  1       21 0.60052530E-01 0.18355819E+03</pdfrwt>
<pdfrwt beam="2">  1       21 0.19270028E-01 0.18355819E+03</pdfrwt>
<totfact> 0.64242416E+04</totfact>
</mgrwt>
</event>
<event>
 4    1  0.3950955E+000  0.1856336E+03  0.7546771E-02  0.1162460E+00
         21   -1    0    0  503  502  0.00000000000E+00  0.00000000000E+00  0.18587303728E+03  0.18587303728E+03  0.00000000000E+00 0. -1.
         21   -1    0    0  501  503 -0.00000000000E+00 -0.00000000000E+00 -0.19943365424E+03  0.19943365424E+03  0.00000000000E+00 0. -1.
          6    1    1    2  501    0 -0.63426160237E+02 -0.22537994425E+02  0.44334623778E+02  0.19085438916E+03  0.17300000000E+03 0. -1.
         -6    1    1    2    0  502  0.63426160237E+02  0.22537994425E+02 -0.57895240730E+02  0.19445230236E+03  0.17300000000E+03 0. -1.
<mgrwt>
<rscale>  2 0.18563361E+03</rscale>
<asrwt>0</asrwt>
<pdfrwt beam="1">  1       21 0.28595852E-01 0.18563361E+03</pdfrwt>
<pdfrwt beam="2">  1       21 0.30682100E-01 0.18563361E+03</pdfrwt>
<totfact> 0.11958622E+05</totfact>
</mgrwt>
</event>
<event>
 4    1  0.3950955E+000  0.1962056E+03  0.7546771E-02  0.1152980E+00
         21   -1    0    0  503  502  0.00000000000E+00  0.00000000000E+00  0.13465334531E+04  0.13465334531E+04  0.00000000000E+00 0.  1.
         21   -1    0    0  501  503 -0.00000000000E+00 -0.00000000000E+00 -0.56341024353E+02  0.56341024353E+02  0.00000000000E+00 0.  1.
          6    1    1    2  501    0 -0.60623626790E+02 -0.69945894799E+02  0.15280707656E+03  0.24868987710E+03  0.17300000000E+03 0.  1.
         -6    1    1    2    0  502  0.60623626790E+02  0.69945894799E+02  0.11373853522E+04  0.11541846003E+04  0.17300000000E+03 0.  1.
<mgrwt>
<rscale>  2 0.19620564E+03</rscale>
<asrwt>0</asrwt>
<pdfrwt beam="1">  1       21 0.20715897E+00 0.19620564E+03</pdfrwt>
<pdfrwt beam="2">  1       21 0.86678509E-02 0.19620564E+03</pdfrwt>
<totfact> 0.12577589E+04</totfact>
</mgrwt>
</event>
<event>
 4    1  0.3950955E+000  0.1782790E+03  0.7546771E-02  0.1169479E+00
         21   -1    0    0  503  502  0.00000000000E+00  0.00000000000E+00  0.57961123151E+02  0.57961123151E+02  0.00000000000E+00 0.  1.
         21   -1    0    0  501  503 -0.00000000000E+00 -0.00000000000E+00 -0.77960900664E+03  0.77960900664E+03  0.00000000000E+00 0.  1.
          6    1    1    2  501    0 -0.32940385362E+02 -0.27736662317E+02 -0.58890827447E+03  0.61530183420E+03  0.17300000000E+03 0.  1.
         -6    1    1    2    0  502  0.32940385362E+02  0.27736662317E+02 -0.13273960902E+03  0.22226829559E+03  0.17300000000E+03 0.  1.
<mgrwt>
<rscale>  2 0.17827897E+03</rscale>
<asrwt>0</asrwt>
<pdfrwt beam="1">  1       21 0.89170964E-02 0.17827897E+03</pdfrwt>
<pdfrwt beam="2">  1       21 0.11993984E+00 0.17827897E+03</pdfrwt>
<totfact> 0.52885066E+04</totfact>
</mgrwt>
</event>
<event>
 4    1  0.3950955E+000  0.2139991E+03  0.7546771E-02  0.1138438E+00
         21   -1    0    0  501  502  0.00000000000E+00  0.00000000000E+00  0.16551903849E+03  0.16551903849E+03  0.00000000000E+00 0.  1.
         21   -1    0    0  502  503 -0.00000000000E+00 -0.00000000000E+00 -0.34098450837E+03  0.34098450837E+03  0.00000000000E+00 0.  1.
          6    1    1    2  501    0  0.12570856299E+03 -0.79972881656E+01  0.22246356740E+02  0.21515227123E+03  0.17300000000E+03 0.  1.
         -6    1    1    2    0  503 -0.12570856299E+03  0.79972881656E+01 -0.19771182662E+03  0.29135127563E+03  0.17300000000E+03 0.  1.
<mgrwt>
<rscale>  2 0.21399906E+03</rscale>
<asrwt>0</asrwt>
<pdfrwt beam="1">  1       21 0.25464467E-01 0.21399906E+03</pdfrwt>
<pdfrwt beam="2">  1       21 0.52459155E-01 0.21399906E+03</pdfrwt>
<totfact> 0.49879439E+04</totfact>
</mgrwt>
</event>
<event>
 4    1  0.3950955E+000  0.2059395E+03  0.7546771E-02  0.1144822E+00
         21   -1    0    0  501  502  0.00000000000E+00  0.00000000000E+00  0.17015439562E+04  0.17015439562E+04  0.00000000000E+00 0. -1.
         21   -1    0    0  502  503 -0.00000000000E+00 -0.00000000000E+00 -0.25486900729E+02  0.25486900729E+02  0.00000000000E+00 0. -1.
          6    1    1    2  501    0 -0.10116609476E+03 -0.47407579664E+02  0.96623930292E+03  0.98794202656E+03  0.17300000000E+03 0. -1.
         -6    1    1    2    0  503  0.10116609476E+03  0.47407579664E+02  0.70981775256E+03  0.73908883038E+03  0.17300000000E+03 0. -1.
<mgrwt>
<rscale>  2 0.20593945E+03</rscale>
<asrwt>0</asrwt>
<pdfrwt beam="1">  1       21 0.26177590E+00 0.20593945E+03</pdfrwt>
<pdfrwt beam="2">  1       21 0.39210630E-02 0.20593945E+03</pdfrwt>
<totfact> 0.22724821E+04</totfact>
</mgrwt>
</event>
<event>
 4    1  0.3950955E+000  0.2697811E+03  0.7546771E-02  0.1101405E+00
         21   -1    0    0  503  502  0.00000000000E+00  0.00000000000E+00  0.11824570853E+03  0.11824570853E+03  0.00000000000E+00 0.  1.
         21   -1    0    0  501  503 -0.00000000000E+00 -0.00000000000E+00 -0.61565871667E+03  0.61565871667E+03  0.00000000000E+00 0.  1.
          6    1    1    2  501    0 -0.13421387877E+03  0.15760543252E+03 -0.25434093916E+03  0.37077102226E+03  0.17300000000E+03 0.  1.
         -6    1    1    2    0  502  0.13421387877E+03 -0.15760543252E+03 -0.24307206898E+03  0.36313340294E+03  0.17300000000E+03 0.  1.
<mgrwt>
<rscale>  2 0.26978109E+03</rscale>
<asrwt>0</asrwt>
<pdfrwt beam="1">  1       21 0.18191647E-01 0.26978109E+03</pdfrwt>
<pdfrwt beam="2">  1       21 0.94716727E-01 0.26978109E+03</pdfrwt>
<totfact> 0.24679069E+04</totfact>
</mgrwt>
</event>
<event>
 4    1  0.3950955E+000  0.2353394E+03  0.7546771E-02  0.1122937E+00
         21   -1    0    0  501  502  0.00000000000E+00  0.00000000000E+00  0.66473883422E+03  0.66473883422E+03  0.00000000000E+00 0. -1.
         21   -1    0    0  502  503 -0.00000000000E+00 -0.00000000000E+00 -0.88246044038E+02  0.88246044038E+02  0.00000000000E+00 0. -1.
          6    1    1    2  501    0 -0.14669399984E+03 -0.62741689642E+02  0.19927508852E+03  0.30837511267E+03  0.17300000000E+03 0. -1.
         -6    1    1    2    0  503  0.14669399984E+03  0.62741689642E+02  0.37721770167E+03  0.44460976560E+03  0.17300000000E+03 0. -1.
<mgrwt>
<rscale>  2 0.23533943E+03</rscale>
<asrwt>0</asrwt>
<pdfrwt beam="1">  1       21 0.10226751E+00 0.23533943E+03</pdfrwt>
<pdfrwt beam="2">  1       21 0.13576315E-01 0.23533943E+03</pdfrwt>
<totfact> 0.35777123E+04</totfact>
</mgrwt>
</event>
<event>
 4    1  0.3950955E+000  0.2991134E+03  0.7546771E-02  0.1085685E+00
         21   -1    0    0  503  502  0.00000000000E+00  0.00000000000E+00  0.20787532190E+03  0.20787532190E+03  0.00000000000E+00 0.  1.
         21   -1    0    0  501  503 -0.00000000000E+00 -0.00000000000E+00 -0.59178162669E+03  0.59178162669E+03  0.00000000000E+00 0. -1.
          6    1    1    2  501    0  0.24397502943E+03  0.40006423120E+01 -0.40075035491E+03  0.50006966223E+03  0.17300000000E+03 0. -1.
         -6    1    1    2    0  502 -0.24397502943E+03 -0.40006423120E+01  0.16844050121E+02  0.29958728636E+03  0.17300000000E+03 0.  1.
<mgrwt>
<rscale>  2 0.29911339E+03</rscale>
<asrwt>0</asrwt>
<pdfrwt beam="1">  1       21 0.31980819E-01 0.29911339E+03</pdfrwt>
<pdfrwt beam="2">  1       21 0.91043327E-01 0.29911339E+03</pdfrwt>
<totfact> 0.90406843E+03</totfact>
</mgrwt>
</event>
<event>
 4    1  0.3950955E+000  0.2531475E+03  0.7546771E-02  0.1111332E+00
         21   -1    0    0  503  502  0.00000000000E+00  0.00000000000E+00  0.98174116853E+03  0.98174116853E+03  0.00000000000E+00 0. -1.
         21   -1    0    0  501  503 -0.00000000000E+00 -0.00000000000E+00 -0.78157337341E+02  0.78157337341E+02  0.00000000000E+00 0.  1.
          6    1    1    2  501    0  0.10409654667E+03  0.15270424679E+03  0.23664369615E+03  0.34653126402E+03  0.17300000000E+03 0. -1.
         -6    1    1    2    0  502 -0.10409654667E+03 -0.15270424679E+03  0.66694013504E+03  0.71336724185E+03  0.17300000000E+03 0. -1.
<mgrwt>
<rscale>  2 0.25314754E+03</rscale>
<asrwt>0</asrwt>
<pdfrwt beam="1">  1       21 0.15103709E+00 0.25314754E+03</pdfrwt>
<pdfrwt beam="2">  1       21 0.12024206E-01 0.25314754E+03</pdfrwt>
<totfact> 0.16522909E+04</totfact>
</mgrwt>
</event>
<event>
 4    1  0.3950955E+000  0.1822431E+03  0.7546771E-02  0.1165650E+00
         21   -1    0    0  503  502  0.00000000000E+00  0.00000000000E+00  0.14522856724E+03  0.14522856724E+03  0.00000000000E+00 0.  1.
         21   -1    0    0  501  503 -0.00000000000E+00 -0.00000000000E+00 -0.22878564838E+03  0.22878564838E+03  0.00000000000E+00 0.  1.
          6    1    1    2  501    0  0.56753446173E+02 -0.79118355495E+01 -0.37986605182E+02  0.18615996607E+03  0.17300000000E+03 0. -1.
         -6    1    1    2    0  502 -0.56753446173E+02  0.79118355495E+01 -0.45570475954E+02  0.18785424955E+03  0.17300000000E+03 0. -1.
<mgrwt>
<rscale>  2 0.18224311E+03</rscale>
<asrwt>0</asrwt>
<pdfrwt beam="1">  1       21 0.22342857E-01 0.18224311E+03</pdfrwt>
<pdfrwt beam="2">  1       21 0.35197792E-01 0.18224311E+03</pdfrwt>
<totfact> 0.14638736E+05</totfact>
</mgrwt>
</event>
<event>
 4    1  0.3950955E+000  0.2072769E+03  0.7546771E-02  0.1143741E+00
         21   -1    0    0  501  502  0.00000000000E+00  0.00000000000E+00  0.57839734505E+03  0.57839734505E+03  0.00000000000E+00 0.  1.
         21   -1    0    0  502  503 -0.00000000000E+00 -0.00000000000E+00 -0.10053813740E+03  0.10053813740E+03  0.00000000000E+00 0.  1.
          6    1    1    2  501    0 -0.49349696008E+02 -0.10295297284E+03  0.41241383826E+03  0.46157218406E+03  0.17300000000E+03 0.  1.
         -6    1    1    2    0  503  0.49349696008E+02  0.10295297284E+03  0.65445369382E+02  0.21736329839E+03  0.17300000000E+03 0.  1.
<mgrwt>
<rscale>  2 0.20727689E+03</rscale>
<asrwt>0</asrwt>
<pdfrwt beam="1">  1       21 0.88984205E-01 0.20727689E+03</pdfrwt>
<pdfrwt beam="2">  1       21 0.15467406E-01 0.20727689E+03</pdfrwt>
<totfact> 0.39697960E+04</totfact>
</mgrwt>
</event>
<event>
 4    1  0.3950955E+000  0.2336758E+03  0.7546771E-02  0.1124079E+00
         21   -1    0    0  503  502  0.00000000000E+00  0.00000000000E+00  0.13746107188E+03  0.13746107188E+03  0.00000000000E+00 0.  1.
         21   -1    0    0  501  503 -0.00000000000E+00 -0.00000000000E+00 -0.69424986133E+03  0.69424986133E+03  0.00000000000E+00 0. -1.
          6    1    1    2  501    0  0.21596324541E+02 -0.15559235954E+03 -0.55039722280E+03  0.59794772886E+03  0.17300000000E+03 0. -1.
         -6    1    1    2    0  502 -0.21596324541E+02  0.15559235954E+03 -0.63915666414E+01  0.23376320434E+03  0.17300000000E+03 0.  1.
<mgrwt>
<rscale>  2 0.23367581E+03</rscale>
<asrwt>0</asrwt>
<pdfrwt beam="1">  1       21 0.21147857E-01 0.23367581E+03</pdfrwt>
<pdfrwt beam="2">  1       21 0.10680767E+00 0.23367581E+03</pdfrwt>
<totfact> 0.14209053E+04</totfact>
</mgrwt>
</event>
<event>
 4    1  0.3950955E+000  0.2010596E+03  0.7546771E-02  0.1148848E+00
         21   -1    0    0  503  502  0.00000000000E+00  0.00000000000E+00  0.30510994729E+02  0.30510994729E+02  0.00000000000E+00 0.  1.
         21   -1    0    0  501  503 -0.00000000000E+00 -0.00000000000E+00 -0.25718075812E+04  0.25718075812E+04  0.00000000000E+00 0.  1.
          6    1    1    2  501    0 -0.96658363729E+02  0.33957765860E+02 -0.21766372993E+04  0.21859036809E+04  0.17300000000E+03 0.  1.
         -6    1    1    2    0  502  0.96658363729E+02 -0.33957765860E+02 -0.36465928714E+03  0.41641489507E+03  0.17300000000E+03 0.  1.
<mgrwt>
<rscale>  2 0.20105962E+03</rscale>
<asrwt>0</asrwt>
<pdfrwt beam="1">  1       21 0.46939999E-02 0.20105962E+03</pdfrwt>
<pdfrwt beam="2">  1       21 0.39566264E+00 0.20105962E+03</pdfrwt>
<totfact> 0.27424345E+03</totfact>
</mgrwt>
</event>
<event>
 4    1  0.3950955E+000  0.2277157E+03  0.7546771E-02  0.1128258E+00
         21   -1    0    0  503  502  0.00000000000E+00  0.00000000000E+00  0.23085067658E+04  0.23085067658E+04  0.00000000000E+00 0.  1.
         21   -1    0    0  501  503 -0.00000000000E+00 -0.00000000000E+00 -0.34849438542E+02  0.34849438542E+02  0.00000000000E+00 0.  1.
          6    1    1    2  501    0 -0.12086992442E+03 -0.85532993421E+02  0.43828193705E+03  0.49390838011E+03  0.17300000000E+03 0.  1.
         -6    1    1    2    0  502  0.12086992442E+03  0.85532993421E+02  0.18353753902E+04  0.18494478242E+04  0.17300000000E+03 0.  1.
<mgrwt>
<rscale>  2 0.22771568E+03</rscale>
<asrwt>0</asrwt>
<pdfrwt beam="1">  1       21 0.35515477E+00 0.22771568E+03</pdfrwt>
<pdfrwt beam="2">  1       21 0.53614539E-02 0.22771568E+03</pdfrwt>
<totfact> 0.37312860E+03</totfact>
</mgrwt>
</event>
<event>
 4    1  0.3950955E+000  0.2514253E+03  0.7546771E-02  0.1112407E+00
         21   -1    0    0  501  502  0.00000000000E+00  0.00000000000E+00  0.28043953000E+03  0.28043953000E+03  0.00000000000E+00 0. -1.
         21   -1    0    0  502  503 -0.00000000000E+00 -0.00000000000E+00 -0.11361880258E+04  0.11361880258E+04  0.00000000000E+00 0.  1.
          6    1    1    2  501    0 -0.13594897145E+03 -0.12166982705E+03  0.20629646483E+03  0.32522746049E+03  0.17300000000E+03 0. -1.
         -6    1    1    2    0  503  0.13594897145E+03  0.12166982705E+03 -0.10620449606E+04  0.10914000953E+04  0.17300000000E+03 0.  1.
<mgrwt>
<rscale>  2 0.25142528E+03</rscale>
<asrwt>0</asrwt>
<pdfrwt beam="1">  1       21 0.43144543E-01 0.25142528E+03</pdfrwt>
<pdfrwt beam="2">  1       21 0.17479816E+00 0.25142528E+03</pdfrwt>
<totfact> 0.96423847E+02</totfact>
</mgrwt>
</event>
<event>
 4    1  0.3950955E+000  0.2242777E+03  0.7546771E-02  0.1130733E+00
         21   -1    0    0  503  502  0.00000000000E+00  0.00000000000E+00  0.86408102806E+02  0.86408102806E+02  0.00000000000E+00 0. -1.
         21   -1    0    0  501  503 -0.00000000000E+00 -0.00000000000E+00 -0.82372096485E+03  0.82372096485E+03  0.00000000000E+00 0. -1.
          6    1    1    2  501    0 -0.94873427680E+02  0.10663271958E+03 -0.61510472683E+03  0.65471698400E+03  0.17300000000E+03 0. -1.
         -6    1    1    2    0  502  0.94873427680E+02 -0.10663271958E+03 -0.12220813521E+03  0.25541208365E+03  0.17300000000E+03 0. -1.
<mgrwt>
<rscale>  2 0.22427774E+03</rscale>
<asrwt>0</asrwt>
<pdfrwt beam="1">  1       21 0.13293554E-01 0.22427774E+03</pdfrwt>
<pdfrwt beam="2">  1       21 0.12672630E+00 0.22427774E+03</pdfrwt>
<totfact> 0.22074914E+04</totfact>
</mgrwt>
</event>
<event>
 4    1  0.3950955E+000  0.1948169E+03  0.7546771E-02  0.1154187E+00
         21   -1    0    0  501  502  0.00000000000E+00  0.00000000000E+00  0.80894373079E+02  0.80894373079E+02  0.00000000000E+00 0. -1.
         21   -1    0    0  502  503 -0.00000000000E+00 -0.00000000000E+00 -0.47663536763E+03  0.47663536763E+03  0.00000000000E+00 0.  1.
          6    1    1    2  501    0 -0.58689912258E+02  0.67676707548E+02 -0.23274564131E+03  0.30351964697E+03  0.17300000000E+03 0. -1.
         -6    1    1    2    0  503  0.58689912258E+02 -0.67676707548E+02 -0.16299535324E+03  0.25401009374E+03  0.17300000000E+03 0. -1.
<mgrwt>
<rscale>  2 0.19481695E+03</rscale>
<asrwt>0</asrwt>
<pdfrwt beam="1">  1       21 0.12445288E-01 0.19481695E+03</pdfrwt>
<pdfrwt beam="2">  1       21 0.73328520E-01 0.19481695E+03</pdfrwt>
<totfact> 0.91825820E+04</totfact>
</mgrwt>
</event>
<event>
 4    1  0.3950955E+000  0.4490513E+03  0.7546771E-02  0.1028005E+00
         21   -1    0    0  501  502  0.00000000000E+00  0.00000000000E+00  0.18614535681E+04  0.18614535681E+04  0.00000000000E+00 0. -1.
         21   -1    0    0  502  503 -0.00000000000E+00 -0.00000000000E+00 -0.17009384355E+03  0.17009384355E+03  0.00000000000E+00 0.  1.
          6    1    1    2  501    0 -0.40113315564E+03 -0.10397256533E+03  0.23357238146E+03  0.50616515119E+03  0.17300000000E+03 0.  1.
         -6    1    1    2    0  503  0.40113315564E+03  0.10397256533E+03  0.14577873430E+04  0.15253822604E+04  0.17300000000E+03 0. -1.
<mgrwt>
<rscale>  2 0.44905134E+03</rscale>
<asrwt>0</asrwt>
<pdfrwt beam="1">  1       21 0.28637746E+00 0.44905134E+03</pdfrwt>
<pdfrwt beam="2">  1       21 0.26168285E-01 0.44905134E+03</pdfrwt>
<totfact> 0.45388645E+02</totfact>
</mgrwt>
</event>
<event>
 4    1  0.3950955E+000  0.2033631E+03  0.7546771E-02  0.1146932E+00
         21   -1    0    0  501  502  0.00000000000E+00  0.00000000000E+00  0.11121219034E+03  0.11121219034E+03  0.00000000000E+00 0.  1.
         21   -1    0    0  502  503 -0.00000000000E+00 -0.00000000000E+00 -0.72872983540E+03  0.72872983540E+03  0.00000000000E+00 0.  1.
          6    1    1    2  501    0 -0.60217091252E+02 -0.88325848612E+02 -0.14869060095E+02  0.20390596499E+03  0.17300000000E+03 0.  1.
         -6    1    1    2    0  503  0.60217091252E+02  0.88325848612E+02 -0.60264858496E+03  0.63603606075E+03  0.17300000000E+03 0.  1.
<mgrwt>
<rscale>  2 0.20336311E+03</rscale>
<asrwt>0</asrwt>
<pdfrwt beam="1">  1       21 0.17109568E-01 0.20336311E+03</pdfrwt>
<pdfrwt beam="2">  1       21 0.11211228E+00 0.20336311E+03</pdfrwt>
<totfact> 0.19097548E+04</totfact>
</mgrwt>
</event>
<event>
 4    1  0.3950955E+000  0.1858328E+03  0.7546771E-02  0.1162274E+00
         21   -1    0    0  503  502  0.00000000000E+00  0.00000000000E+00  0.69348409127E+03  0.69348409127E+03  0.00000000000E+00 0. -1.
         21   -1    0    0  501  503 -0.00000000000E+00 -0.00000000000E+00 -0.84028236843E+02  0.84028236843E+02  0.00000000000E+00 0. -1.
          6    1    1    2  501    0 -0.65981513307E+02  0.15851441032E+02  0.56601918064E+02  0.19426169311E+03  0.17300000000E+03 0. -1.
         -6    1    1    2    0  502  0.65981513307E+02 -0.15851441032E+02  0.55285393636E+03  0.58325063501E+03  0.17300000000E+03 0. -1.
<mgrwt>
<rscale>  2 0.18583280E+03</rscale>
<asrwt>0</asrwt>
<pdfrwt beam="1">  1       21 0.10668986E+00 0.18583280E+03</pdfrwt>
<pdfrwt beam="2">  1       21 0.12927421E-01 0.18583280E+03</pdfrwt>
<totfact> 0.36235135E+04</totfact>
</mgrwt>
</event>
<event>
 4    1  0.3950955E+000  0.1799231E+03  0.7546771E-02  0.1167877E+00
         21   -1    0    0  503  502  0.00000000000E+00  0.00000000000E+00  0.25769670012E+03  0.25769670012E+03  0.00000000000E+00 0.  1.
         21   -1    0    0  501  503 -0.00000000000E+00 -0.00000000000E+00 -0.14420206744E+03  0.14420206744E+03  0.00000000000E+00 0.  1.
          6    1    1    2  501    0  0.13150568897E+02 -0.47648563709E+02 -0.15384509665E+02  0.18057963956E+03  0.17300000000E+03 0.  1.
         -6    1    1    2    0  502 -0.13150568897E+02  0.47648563709E+02  0.12887914235E+03  0.22131912800E+03  0.17300000000E+03 0.  1.
<mgrwt>
<rscale>  2 0.17992310E+03</rscale>
<asrwt>0</asrwt>
<pdfrwt beam="1">  1       21 0.39645646E-01 0.17992310E+03</pdfrwt>
<pdfrwt beam="2">  1       21 0.22184933E-01 0.17992310E+03</pdfrwt>
<totfact> 0.11705509E+05</totfact>
</mgrwt>
</event>
<event>
 4    1  0.3950955E+000  0.2180563E+03  0.7546771E-02  0.1135341E+00
         21   -1    0    0  503  502  0.00000000000E+00  0.00000000000E+00  0.97673288811E+02  0.97673288811E+02  0.00000000000E+00 0. -1.
         21   -1    0    0  501  503 -0.00000000000E+00 -0.00000000000E+00 -0.53685054745E+03  0.53685054745E+03  0.00000000000E+00 0.  1.
          6    1    1    2  501    0  0.65546924806E+02 -0.11542593413E+03 -0.12272898783E+03  0.25022180176E+03  0.17300000000E+03 0. -1.
         -6    1    1    2    0  502 -0.65546924806E+02  0.11542593413E+03 -0.31644827081E+03  0.38430203450E+03  0.17300000000E+03 0. -1.
<mgrwt>
<rscale>  2 0.21805629E+03</rscale>
<asrwt>0</asrwt>
<pdfrwt beam="1">  1       21 0.15026660E-01 0.21805629E+03</pdfrwt>
<pdfrwt beam="2">  1       21 0.82592391E-01 0.21805629E+03</pdfrwt>
<totfact> 0.49408750E+04</totfact>
</mgrwt>
</event>
<event>
 4    1  0.3950955E+000  0.1969797E+03  0.7546771E-02  0.1152313E+00
         21   -1    0    0  501  502  0.00000000000E+00  0.00000000000E+00  0.32713997683E+03  0.32713997683E+03  0.00000000000E+00 0.  1.
         21   -1    0    0  502  503 -0.00000000000E+00 -0.00000000000E+00 -0.11885494685E+03  0.11885494685E+03  0.00000000000E+00 0.  1.
          6    1    1    2  501    0 -0.47732638358E+02 -0.81200909750E+02  0.93951094536E+02  0.21823794508E+03  0.17300000000E+03 0.  1.
         -6    1    1    2    0  503  0.47732638358E+02  0.81200909750E+02  0.11433393544E+03  0.22775697860E+03  0.17300000000E+03 0.  1.
<mgrwt>
<rscale>  2 0.19697968E+03</rscale>
<asrwt>0</asrwt>
<pdfrwt beam="1">  1       21 0.50329227E-01 0.19697968E+03</pdfrwt>
<pdfrwt beam="2">  1       21 0.18285377E-01 0.19697968E+03</pdfrwt>
<totfact> 0.10232280E+05</totfact>
</mgrwt>
</event>
<event>
 4    1  0.3950955E+000  0.2218973E+03  0.7546771E-02  0.1132476E+00
         21   -1    0    0  501  502  0.00000000000E+00  0.00000000000E+00  0.15180217043E+03  0.15180217043E+03  0.00000000000E+00 0.  1.
         21   -1    0    0  502  503 -0.00000000000E+00 -0.00000000000E+00 -0.35982959075E+03  0.35982959075E+03  0.00000000000E+00 0.  1.
          6    1    1    2  501    0 -0.75881625013E+02  0.11641049114E+03 -0.18433160858E+03  0.28847281568E+03  0.17300000000E+03 0.  1.
         -6    1    1    2    0  503  0.75881625013E+02 -0.11641049114E+03 -0.23695811730E+02  0.22315894550E+03  0.17300000000E+03 0.  1.
<mgrwt>
<rscale>  2 0.22189733E+03</rscale>
<asrwt>0</asrwt>
<pdfrwt beam="1">  1       21 0.23354180E-01 0.22189733E+03</pdfrwt>
<pdfrwt beam="2">  1       21 0.55358398E-01 0.22189733E+03</pdfrwt>
<totfact> 0.52324530E+04</totfact>
</mgrwt>
</event>
<event>
 4    1  0.3950955E+000  0.3555258E+03  0.7546771E-02  0.1060370E+00
         21   -1    0    0  503  502  0.00000000000E+00  0.00000000000E+00  0.52764992110E+03  0.52764992110E+03  0.00000000000E+00 0.  1.
         21   -1    0    0  501  503 -0.00000000000E+00 -0.00000000000E+00 -0.47704389084E+03  0.47704389084E+03  0.00000000000E+00 0. -1.
          6    1    1    2  501    0 -0.12483103234E+03 -0.28440608071E+03 -0.32914346510E+03  0.48449357684E+03  0.17300000000E+03 0. -1.
         -6    1    1    2    0  502  0.12483103234E+03  0.28440608071E+03  0.37974949535E+03  0.52020023510E+03  0.17300000000E+03 0.  1.
<mgrwt>
<rscale>  2 0.35552582E+03</rscale>
<asrwt>0</asrwt>
<pdfrwt beam="1">  1       21 0.81176911E-01 0.35552582E+03</pdfrwt>
<pdfrwt beam="2">  1       21 0.73391367E-01 0.35552582E+03</pdfrwt>
<totfact> 0.19940890E+03</totfact>
</mgrwt>
</event>
<event>
 4    1  0.3950955E+000  0.1975574E+03  0.7546771E-02  0.1151816E+00
         21   -1    0    0  503  502  0.00000000000E+00  0.00000000000E+00  0.45845822235E+03  0.45845822235E+03  0.00000000000E+00 0. -1.
         21   -1    0    0  501  503 -0.00000000000E+00 -0.00000000000E+00 -0.10241444494E+03  0.10241444494E+03  0.00000000000E+00 0. -1.
          6    1    1    2  501    0 -0.77362841067E+02  0.55811560290E+02  0.62817061331E+02  0.20730393782E+03  0.17300000000E+03 0.  1.
         -6    1    1    2    0  502  0.77362841067E+02 -0.55811560290E+02  0.29322671608E+03  0.35356872948E+03  0.17300000000E+03 0.  1.
<mgrwt>
<rscale>  2 0.19755743E+03</rscale>
<asrwt>0</asrwt>
<pdfrwt beam="1">  1       21 0.70532033E-01 0.19755743E+03</pdfrwt>
<pdfrwt beam="2">  1       21 0.15756069E-01 0.19755743E+03</pdfrwt>
<totfact> 0.65200608E+04</totfact>
</mgrwt>
</event>
<event>
 4    1  0.3950955E+000  0.1926825E+03  0.7546771E-02  0.1156064E+00
         21   -1    0    0  501  502  0.00000000000E+00  0.00000000000E+00  0.14089804220E+03  0.14089804220E+03  0.00000000000E+00 0. -1.
         21   -1    0    0  502  503 -0.00000000000E+00 -0.00000000000E+00 -0.10523591770E+04  0.10523591770E+04  0.00000000000E+00 0. -1.
          6    1    1    2  501    0  0.47179203519E+02 -0.70509945697E+02  0.60830919675E+02  0.20205675063E+03  0.17300000000E+03 0. -1.
         -6    1    1    2    0  503 -0.47179203519E+02  0.70509945697E+02 -0.97229205444E+03  0.99120046853E+03  0.17300000000E+03 0. -1.
<mgrwt>
<rscale>  2 0.19268246E+03</rscale>
<asrwt>0</asrwt>
<pdfrwt beam="1">  1       21 0.21676621E-01 0.19268246E+03</pdfrwt>
<pdfrwt beam="2">  1       21 0.16190141E+00 0.19268246E+03</pdfrwt>
<totfact> 0.48390435E+03</totfact>
</mgrwt>
</event>
<event>
 4    1  0.3950955E+000  0.2180390E+03  0.7546771E-02  0.1135354E+00
         21   -1    0    0  503  502  0.00000000000E+00  0.00000000000E+00  0.31206262756E+02  0.31206262756E+02  0.00000000000E+00 0. -1.
         21   -1    0    0  501  503 -0.00000000000E+00 -0.00000000000E+00 -0.15646095338E+04  0.15646095338E+04  0.00000000000E+00 0. -1.
          6    1    1    2  501    0 -0.70730258019E+02 -0.11229092091E+03 -0.63727842656E+03  0.67354644478E+03  0.17300000000E+03 0. -1.
         -6    1    1    2    0  502  0.70730258019E+02  0.11229092091E+03 -0.89612484444E+03  0.92226935173E+03  0.17300000000E+03 0. -1.
<mgrwt>
<rscale>  2 0.21803903E+03</rscale>
<asrwt>0</asrwt>
<pdfrwt beam="1">  1       21 0.48009624E-02 0.21803903E+03</pdfrwt>
<pdfrwt beam="2">  1       21 0.24070921E+00 0.21803903E+03</pdfrwt>
<totfact> 0.21297528E+04</totfact>
</mgrwt>
</event>
<event>
 4    1  0.3950955E+000  0.2063882E+03  0.7546771E-02  0.1144458E+00
         21   -1    0    0  501  502  0.00000000000E+00  0.00000000000E+00  0.41289382962E+03  0.41289382962E+03  0.00000000000E+00 0.  1.
         21   -1    0    0  502  503 -0.00000000000E+00 -0.00000000000E+00 -0.16012236579E+03  0.16012236579E+03  0.00000000000E+00 0.  1.
          6    1    1    2  501    0 -0.11236496922E+03  0.64201678593E+01  0.29726392923E+03  0.36188665143E+03  0.17300000000E+03 0.  1.
         -6    1    1    2    0  503  0.11236496922E+03 -0.64201678593E+01 -0.44492465404E+02  0.21112954398E+03  0.17300000000E+03 0.  1.
<mgrwt>
<rscale>  2 0.20638824E+03</rscale>
<asrwt>0</asrwt>
<pdfrwt beam="1">  1       21 0.63522127E-01 0.20638824E+03</pdfrwt>
<pdfrwt beam="2">  1       21 0.24634210E-01 0.20638824E+03</pdfrwt>
<totfact> 0.35433302E+04</totfact>
</mgrwt>
</event>
<event>
 4    1  0.3950955E+000  0.1890738E+03  0.7546771E-02  0.1159299E+00
         21   -1    0    0  501  502  0.00000000000E+00  0.00000000000E+00  0.30250098771E+03  0.30250098771E+03  0.00000000000E+00 0.  1.
         21   -1    0    0  502  503 -0.00000000000E+00 -0.00000000000E+00 -0.32501598376E+03  0.32501598376E+03  0.00000000000E+00 0.  1.
          6    1    1    2  501    0  0.60183677474E+02  0.46880893827E+02  0.23904115135E+03  0.30477789500E+03  0.17300000000E+03 0.  1.
         -6    1    1    2    0  503 -0.60183677474E+02 -0.46880893827E+02 -0.26155614740E+03  0.32273907648E+03  0.17300000000E+03 0.  1.
<mgrwt>
<rscale>  2 0.18907378E+03</rscale>
<asrwt>0</asrwt>
<pdfrwt beam="1">  1       21 0.46538613E-01 0.18907378E+03</pdfrwt>
<pdfrwt beam="2">  1       21 0.50002459E-01 0.18907378E+03</pdfrwt>
<totfact> 0.16884488E+04</totfact>
</mgrwt>
</event>
