<event>
 4    3  0.3906307E+000  0.1764125E+03  0.7546771E-02  0.1171321E+00
         21   -1    0    0  501  502  0.00000000000E+00  0.00000000000E+00  0.55842753264E+03  0.55842753264E+03  0.00000000000E+00 0. -1.
         21   -1    0    0  502  503 -0.00000000000E+00 -0.00000000000E+00 -0.27362507307E+03  0.27362507307E+03  0.00000000000E+00 0. -1.
          6    1    1    2  501    0  0.23265415181E+02 -0.25516689818E+02  0.51365097668E+03  0.54310100980E+03  0.17300000000E+03 0. -1.
         -6    1    1    2    0  503 -0.23265415181E+02  0.25516689818E+02 -0.22884851711E+03  0.28895159592E+03  0.17300000000E+03 0. -1.
<mgrwt>
<rscale>  2 0.17641253E+03</rscale>
<asrwt>0</asrwt>
<pdfrwt beam="1">  1       21 0.85911928E-01 0.17641253E+03</pdfrwt>
<pdfrwt beam="2">  1       21 0.42096165E-01 0.17641253E+03</pdfrwt>
<totfact> 0.64303248E+03</totfact>
</mgrwt>
</event>
<event>
 4    3  0.3906307E+000  0.2098721E+03  0.7546771E-02  0.1141667E+00
         21   -1    0    0  503  502  0.00000000000E+00  0.00000000000E+00  0.47347966098E+02  0.47347966098E+02  0.00000000000E+00 0. -1.
         21   -1    0    0  501  503 -0.00000000000E+00 -0.00000000000E+00 -0.98107081227E+03  0.98107081227E+03  0.00000000000E+00 0. -1.
          6    1    1    2  501    0 -0.38804218567E+02 -0.11230116508E+03 -0.58387379317E+03  0.62044735910E+03  0.17300000000E+03 0.  1.
         -6    1    1    2    0  502  0.38804218567E+02  0.11230116508E+03 -0.34984905300E+03  0.40797141927E+03  0.17300000000E+03 0.  1.
<mgrwt>
<rscale>  2 0.20987215E+03</rscale>
<asrwt>0</asrwt>
<pdfrwt beam="1">  1       21 0.72843037E-02 0.20987215E+03</pdfrwt>
<pdfrwt beam="2">  1       21 0.15093395E+00 0.20987215E+03</pdfrwt>
<totfact> 0.41104649E+04</totfact>
</mgrwt>
</event>
<event>
 4    3  0.3906307E+000  0.2161935E+03  0.7546771E-02  0.1136753E+00
         21   -1    0    0  503  502  0.00000000000E+00  0.00000000000E+00  0.17381573380E+03  0.17381573380E+03  0.00000000000E+00 0. -1.
         21   -1    0    0  501  503 -0.00000000000E+00 -0.00000000000E+00 -0.46100478235E+03  0.46100478235E+03  0.00000000000E+00 0.  1.
          6    1    1    2  501    0  0.10712115055E+02 -0.12921247735E+03 -0.34849061407E+03  0.41010403779E+03  0.17300000000E+03 0.  1.
         -6    1    1    2    0  502 -0.10712115055E+02  0.12921247735E+03  0.61301565528E+02  0.22471647837E+03  0.17300000000E+03 0. -1.
<mgrwt>
<rscale>  2 0.21619346E+03</rscale>
<asrwt>0</asrwt>
<pdfrwt beam="1">  1       21 0.26740882E-01 0.21619346E+03</pdfrwt>
<pdfrwt beam="2">  1       21 0.70923812E-01 0.21619346E+03</pdfrwt>
<totfact> 0.23645440E+04</totfact>
</mgrwt>
</event>
<event>
 4    3  0.3906307E+000  0.1907729E+03  0.7546771E-02  0.1157766E+00
         21   -1    0    0  503  502  0.00000000000E+00  0.00000000000E+00  0.11433394246E+03  0.11433394246E+03  0.00000000000E+00 0.  1.
         21   -1    0    0  501  503 -0.00000000000E+00 -0.00000000000E+00 -0.31929236807E+03  0.31929236807E+03  0.00000000000E+00 0. -1.
          6    1    1    2  501    0  0.31936775851E+02  0.73792508427E+02 -0.11447031136E+03  0.22248088488E+03  0.17300000000E+03 0.  1.
         -6    1    1    2    0  502 -0.31936775851E+02 -0.73792508427E+02 -0.90488114249E+02  0.21114542565E+03  0.17300000000E+03 0.  1.
<mgrwt>
<rscale>  2 0.19077288E+03</rscale>
<asrwt>0</asrwt>
<pdfrwt beam="1">  1       21 0.17589837E-01 0.19077288E+03</pdfrwt>
<pdfrwt beam="2">  1       21 0.49121903E-01 0.19077288E+03</pdfrwt>
<totfact> 0.11591131E+05</totfact>
</mgrwt>
</event>
<event>
 4    3  0.3906307E+000  0.2296278E+03  0.7546771E-02  0.1126902E+00
         21   -1    0    0  503  502  0.00000000000E+00  0.00000000000E+00  0.10130401522E+04  0.10130401522E+04  0.00000000000E+00 0. -1.
         21   -1    0    0  501  503 -0.00000000000E+00 -0.00000000000E+00 -0.10148851262E+03  0.10148851262E+03  0.00000000000E+00 0. -1.
          6    1    1    2  501    0 -0.15098102341E+03  0.21549466654E+01  0.66833903201E+02  0.23915619131E+03  0.17300000000E+03 0. -1.
         -6    1    1    2    0  502  0.15098102341E+03 -0.21549466654E+01  0.84471773641E+03  0.87537247354E+03  0.17300000000E+03 0. -1.
<mgrwt>
<rscale>  2 0.22962777E+03</rscale>
<asrwt>0</asrwt>
<pdfrwt beam="1">  1       21 0.15585232E+00 0.22962777E+03</pdfrwt>
<pdfrwt beam="2">  1       21 0.15613618E-01 0.22962777E+03</pdfrwt>
<totfact> 0.95860875E+03</totfact>
</mgrwt>
</event>
<event>
 4    3  0.3906307E+000  0.1932622E+03  0.7546771E-02  0.1155552E+00
         21   -1    0    0  501  502  0.00000000000E+00  0.00000000000E+00  0.32101549350E+03  0.32101549350E+03  0.00000000000E+00 0.  1.
         21   -1    0    0  502  503 -0.00000000000E+00 -0.00000000000E+00 -0.21241608013E+03  0.21241608013E+03  0.00000000000E+00 0. -1.
          6    1    1    2  501    0 -0.63955737862E+02 -0.57714276630E+02  0.23366532827E+03  0.30323218788E+03  0.17300000000E+03 0.  1.
         -6    1    1    2    0  503  0.63955737862E+02  0.57714276630E+02 -0.12506591490E+03  0.23019938575E+03  0.17300000000E+03 0. -1.
<mgrwt>
<rscale>  2 0.19326219E+03</rscale>
<asrwt>0</asrwt>
<pdfrwt beam="1">  1       21 0.49386999E-01 0.19326219E+03</pdfrwt>
<pdfrwt beam="2">  1       21 0.32679397E-01 0.19326219E+03</pdfrwt>
<totfact> 0.35225636E+04</totfact>
</mgrwt>
</event>
<event>
 4    3  0.3906307E+000  0.1843203E+03  0.7546771E-02  0.1163686E+00
         21   -1    0    0  501  502  0.00000000000E+00  0.00000000000E+00  0.43013441766E+03  0.43013441766E+03  0.00000000000E+00 0. -1.
         21   -1    0    0  502  503 -0.00000000000E+00 -0.00000000000E+00 -0.11451156235E+03  0.11451156235E+03  0.00000000000E+00 0. -1.
          6    1    1    2  501    0 -0.57597966719E+02 -0.26971167312E+02  0.30949516964E+03  0.36022386049E+03  0.17300000000E+03 0. -1.
         -6    1    1    2    0  503  0.57597966719E+02  0.26971167312E+02  0.61276856715E+01  0.18442211952E+03  0.17300000000E+03 0. -1.
<mgrwt>
<rscale>  2 0.18432029E+03</rscale>
<asrwt>0</asrwt>
<pdfrwt beam="1">  1       21 0.66174525E-01 0.18432029E+03</pdfrwt>
<pdfrwt beam="2">  1       21 0.17617164E-01 0.18432029E+03</pdfrwt>
<totfact> 0.61460542E+04</totfact>
</mgrwt>
</event>
<event>
 4    3  0.3906307E+000  0.1858960E+03  0.7546771E-02  0.1162216E+00
         21   -1    0    0  503  502  0.00000000000E+00  0.00000000000E+00  0.19231964699E+02  0.19231964699E+02  0.00000000000E+00 0.  1.
         21   -1    0    0  501  503 -0.00000000000E+00 -0.00000000000E+00 -0.18018618838E+04  0.18018618838E+04  0.00000000000E+00 0.  1.
          6    1    1    2  501    0  0.17501203905E+02  0.65742187187E+02 -0.84338540063E+03  0.86362970150E+03  0.17300000000E+03 0.  1.
         -6    1    1    2    0  502 -0.17501203905E+02 -0.65742187187E+02 -0.93924451845E+03  0.95746414698E+03  0.17300000000E+03 0.  1.
<mgrwt>
<rscale>  2 0.18589601E+03</rscale>
<asrwt>0</asrwt>
<pdfrwt beam="1">  1       21 0.29587636E-02 0.18589601E+03</pdfrwt>
<pdfrwt beam="2">  1       21 0.27720953E+00 0.18589601E+03</pdfrwt>
<totfact> 0.30082207E+04</totfact>
</mgrwt>
</event>
<event>
 4    3  0.3906307E+000  0.2711361E+03  0.7546771E-02  0.1100631E+00
         21   -1    0    0  503  502  0.00000000000E+00  0.00000000000E+00  0.78751967831E+02  0.78751967831E+02  0.00000000000E+00 0. -1.
         21   -1    0    0  501  503 -0.00000000000E+00 -0.00000000000E+00 -0.10054495415E+04  0.10054495415E+04  0.00000000000E+00 0. -1.
          6    1    1    2  501    0 -0.98461236541E+02  0.18409556963E+03 -0.60836625868E+03  0.66605127322E+03  0.17300000000E+03 0. -1.
         -6    1    1    2    0  502  0.98461236541E+02 -0.18409556963E+03 -0.31833131501E+03  0.41815023613E+03  0.17300000000E+03 0. -1.
<mgrwt>
<rscale>  2 0.27113612E+03</rscale>
<asrwt>0</asrwt>
<pdfrwt beam="1">  1       21 0.12115688E-01 0.27113612E+03</pdfrwt>
<pdfrwt beam="2">  1       21 0.15468454E+00 0.27113612E+03</pdfrwt>
<totfact> 0.15142496E+04</totfact>
</mgrwt>
</event>
<event>
 4    3  0.3906307E+000  0.2122700E+03  0.7546771E-02  0.1139781E+00
         21   -1    0    0  501  502  0.00000000000E+00  0.00000000000E+00  0.40503959932E+03  0.40503959932E+03  0.00000000000E+00 0. -1.
         21   -1    0    0  502  503 -0.00000000000E+00 -0.00000000000E+00 -0.25798827862E+03  0.25798827862E+03  0.00000000000E+00 0. -1.
          6    1    1    2  501    0  0.51150488309E+02  0.11186223636E+03  0.32354941501E+03  0.38696609197E+03  0.17300000000E+03 0. -1.
         -6    1    1    2    0  503 -0.51150488309E+02 -0.11186223636E+03 -0.17649809431E+03  0.27606178597E+03  0.17300000000E+03 0. -1.
<mgrwt>
<rscale>  2 0.21226995E+03</rscale>
<asrwt>0</asrwt>
<pdfrwt beam="1">  1       21 0.62313784E-01 0.21226995E+03</pdfrwt>
<pdfrwt beam="2">  1       21 0.39690505E-01 0.21226995E+03</pdfrwt>
<totfact> 0.14433658E+04</totfact>
</mgrwt>
</event>
<event>
 4    3  0.3906307E+000  0.1826877E+03  0.7546771E-02  0.1165227E+00
         21   -1    0    0  501  502  0.00000000000E+00  0.00000000000E+00  0.22239693858E+03  0.22239693858E+03  0.00000000000E+00 0. -1.
         21   -1    0    0  502  503 -0.00000000000E+00 -0.00000000000E+00 -0.15273306846E+03  0.15273306846E+03  0.00000000000E+00 0.  1.
          6    1    1    2  501    0  0.58275780610E+02  0.70511562691E+01  0.10058006022E+02  0.18296433777E+03  0.17300000000E+03 0. -1.
         -6    1    1    2    0  503 -0.58275780610E+02 -0.70511562691E+01  0.59605864104E+02  0.19216566927E+03  0.17300000000E+03 0. -1.
<mgrwt>
<rscale>  2 0.18268767E+03</rscale>
<asrwt>0</asrwt>
<pdfrwt beam="1">  1       21 0.34214914E-01 0.18268767E+03</pdfrwt>
<pdfrwt beam="2">  1       21 0.23497395E-01 0.18268767E+03</pdfrwt>
<totfact> 0.14074829E+05</totfact>
</mgrwt>
</event>
<event>
 4    3  0.3906307E+000  0.2021532E+03  0.7546771E-02  0.1147935E+00
         21   -1    0    0  503  502  0.00000000000E+00  0.00000000000E+00  0.92930100123E+02  0.92930100123E+02  0.00000000000E+00 0. -1.
         21   -1    0    0  501  503 -0.00000000000E+00 -0.00000000000E+00 -0.45253605137E+03  0.45253605137E+03  0.00000000000E+00 0. -1.
          6    1    1    2  501    0  0.56377859353E+02 -0.88082012895E+02 -0.22564872623E+03  0.30295750803E+03  0.17300000000E+03 0. -1.
         -6    1    1    2    0  502 -0.56377859353E+02  0.88082012895E+02 -0.13395722501E+03  0.24250864346E+03  0.17300000000E+03 0. -1.
<mgrwt>
<rscale>  2 0.20215317E+03</rscale>
<asrwt>0</asrwt>
<pdfrwt beam="1">  1       21 0.14296939E-01 0.20215317E+03</pdfrwt>
<pdfrwt beam="2">  1       21 0.69620930E-01 0.20215317E+03</pdfrwt>
<totfact> 0.79933167E+04</totfact>
</mgrwt>
</event>
<event>
 4    3  0.3906307E+000  0.1982678E+03  0.7546771E-02  0.1151209E+00
         21   -1    0    0  503  502  0.00000000000E+00  0.00000000000E+00  0.25242692773E+03  0.25242692773E+03  0.00000000000E+00 0.  1.
         21   -1    0    0  501  503 -0.00000000000E+00 -0.00000000000E+00 -0.15615381372E+03  0.15615381372E+03  0.00000000000E+00 0.  1.
          6    1    1    2  501    0  0.81762829372E+02 -0.51922562450E+02  0.37477142460E+02  0.20177871286E+03  0.17300000000E+03 0.  1.
         -6    1    1    2    0  502 -0.81762829372E+02  0.51922562450E+02  0.58795971548E+02  0.20680202859E+03  0.17300000000E+03 0.  1.
<mgrwt>
<rscale>  2 0.19826778E+03</rscale>
<asrwt>0</asrwt>
<pdfrwt beam="1">  1       21 0.38834912E-01 0.19826778E+03</pdfrwt>
<pdfrwt beam="2">  1       21 0.24023664E-01 0.19826778E+03</pdfrwt>
<totfact> 0.10424293E+05</totfact>
</mgrwt>
</event>
<event>
 4    3  0.3906307E+000  0.2666921E+03  0.7546771E-02  0.1103188E+00
         21   -1    0    0  503  502  0.00000000000E+00  0.00000000000E+00  0.49978384515E+03  0.49978384515E+03  0.00000000000E+00 0.  1.
         21   -1    0    0  501  503 -0.00000000000E+00 -0.00000000000E+00 -0.14894728751E+03  0.14894728751E+03  0.00000000000E+00 0.  1.
          6    1    1    2  501    0  0.46408507741E+02 -0.19759027405E+03  0.24388598965E+03  0.36139319576E+03  0.17300000000E+03 0.  1.
         -6    1    1    2    0  502 -0.46408507741E+02  0.19759027405E+03  0.10695056799E+03  0.28733793690E+03  0.17300000000E+03 0.  1.
<mgrwt>
<rscale>  2 0.26669208E+03</rscale>
<asrwt>0</asrwt>
<pdfrwt beam="1">  1       21 0.76889822E-01 0.26669208E+03</pdfrwt>
<pdfrwt beam="2">  1       21 0.22914967E-01 0.26669208E+03</pdfrwt>
<totfact> 0.25889986E+04</totfact>
</mgrwt>
</event>
<event>
 4    3  0.3906307E+000  0.2809654E+03  0.7546771E-02  0.1095163E+00
         21   -1    0    0  501  502  0.00000000000E+00  0.00000000000E+00  0.46740314902E+03  0.46740314902E+03  0.00000000000E+00 0.  1.
         21   -1    0    0  502  503 -0.00000000000E+00 -0.00000000000E+00 -0.33330951170E+03  0.33330951170E+03  0.00000000000E+00 0. -1.
          6    1    1    2  501    0 -0.21995559263E+03 -0.25141864311E+02  0.34823319343E+03  0.44744601135E+03  0.17300000000E+03 0.  1.
         -6    1    1    2    0  503  0.21995559263E+03  0.25141864311E+02 -0.21413955610E+03  0.35326664937E+03  0.17300000000E+03 0. -1.
<mgrwt>
<rscale>  2 0.28096544E+03</rscale>
<asrwt>0</asrwt>
<pdfrwt beam="1">  1       21 0.71908177E-01 0.28096544E+03</pdfrwt>
<pdfrwt beam="2">  1       21 0.51278386E-01 0.28096544E+03</pdfrwt>
<totfact> 0.59642906E+03</totfact>
</mgrwt>
</event>
<event>
 4    3  0.3906307E+000  0.2060978E+03  0.7546771E-02  0.1144694E+00
         21   -1    0    0  503  502  0.00000000000E+00  0.00000000000E+00  0.41514591188E+03  0.41514591188E+03  0.00000000000E+00 0. -1.
         21   -1    0    0  501  503 -0.00000000000E+00 -0.00000000000E+00 -0.45052786148E+03  0.45052786148E+03  0.00000000000E+00 0. -1.
          6    1    1    2  501    0  0.77025179708E+01  0.11174959458E+03 -0.39821744301E+03  0.44838982213E+03  0.17300000000E+03 0. -1.
         -6    1    1    2    0  502 -0.77025179708E+01 -0.11174959458E+03  0.36283549342E+03  0.41728395123E+03  0.17300000000E+03 0. -1.
<mgrwt>
<rscale>  2 0.20609779E+03</rscale>
<asrwt>0</asrwt>
<pdfrwt beam="1">  1       21 0.63868602E-01 0.20609779E+03</pdfrwt>
<pdfrwt beam="2">  1       21 0.69311978E-01 0.20609779E+03</pdfrwt>
<totfact> 0.42421942E+03</totfact>
</mgrwt>
</event>
<event>
 4    3  0.3906307E+000  0.2156006E+03  0.7546771E-02  0.1137206E+00
         21   -1    0    0  503  502  0.00000000000E+00  0.00000000000E+00  0.89877846192E+02  0.89877846192E+02  0.00000000000E+00 0.  1.
         21   -1    0    0  501  503 -0.00000000000E+00 -0.00000000000E+00 -0.55769820466E+03  0.55769820466E+03  0.00000000000E+00 0. -1.
          6    1    1    2  501    0 -0.11708516550E+03 -0.53345018956E+02 -0.14664312304E+03  0.26074476517E+03  0.17300000000E+03 0. -1.
         -6    1    1    2    0  502  0.11708516550E+03  0.53345018956E+02 -0.32117723542E+03  0.38683128568E+03  0.17300000000E+03 0.  1.
<mgrwt>
<rscale>  2 0.21560062E+03</rscale>
<asrwt>0</asrwt>
<pdfrwt beam="1">  1       21 0.13827361E-01 0.21560062E+03</pdfrwt>
<pdfrwt beam="2">  1       21 0.85799721E-01 0.21560062E+03</pdfrwt>
<totfact> 0.52741040E+04</totfact>
</mgrwt>
</event>
<event>
 4    3  0.3906307E+000  0.1791454E+03  0.7546771E-02  0.1168633E+00
         21   -1    0    0  501  502  0.00000000000E+00  0.00000000000E+00  0.62023044447E+02  0.62023044447E+02  0.00000000000E+00 0. -1.
         21   -1    0    0  502  503 -0.00000000000E+00 -0.00000000000E+00 -0.62329825964E+03  0.62329825964E+03  0.00000000000E+00 0. -1.
          6    1    1    2  501    0 -0.40555448160E+01 -0.46342433146E+02 -0.13942185718E+03  0.22700555679E+03  0.17300000000E+03 0.  1.
         -6    1    1    2    0  503  0.40555448160E+01  0.46342433146E+02 -0.42185335801E+03  0.45831574730E+03  0.17300000000E+03 0.  1.
<mgrwt>
<rscale>  2 0.17914538E+03</rscale>
<asrwt>0</asrwt>
<pdfrwt beam="1">  1       21 0.95420076E-02 0.17914538E+03</pdfrwt>
<pdfrwt beam="2">  1       21 0.95892033E-01 0.17914538E+03</pdfrwt>
<totfact> 0.80351164E+04</totfact>
</mgrwt>
</event>
<event>
 4    3  0.3906307E+000  0.2320529E+03  0.7546771E-02  0.1125203E+00
         21   -1    0    0  501  502  0.00000000000E+00  0.00000000000E+00  0.68577235388E+03  0.68577235388E+03  0.00000000000E+00 0.  1.
         21   -1    0    0  502  503 -0.00000000000E+00 -0.00000000000E+00 -0.89825449245E+02  0.89825449245E+02  0.00000000000E+00 0. -1.
          6    1    1    2  501    0  0.14493706611E+03  0.53970194565E+02  0.16040987719E+03  0.28209903179E+03  0.17300000000E+03 0. -1.
         -6    1    1    2    0  503 -0.14493706611E+03 -0.53970194565E+02  0.43553702744E+03  0.49349877133E+03  0.17300000000E+03 0.  1.
<mgrwt>
<rscale>  2 0.23205287E+03</rscale>
<asrwt>0</asrwt>
<pdfrwt beam="1">  1       21 0.10550344E+00 0.23205287E+03</pdfrwt>
<pdfrwt beam="2">  1       21 0.13819300E-01 0.23205287E+03</pdfrwt>
<totfact> 0.32187857E+04</totfact>
</mgrwt>
</event>
<event>
 4    3  0.3906307E+000  0.1761220E+03  0.7546771E-02  0.1171610E+00
         21   -1    0    0  501  502  0.00000000000E+00  0.00000000000E+00  0.99884219234E+02  0.99884219234E+02  0.00000000000E+00 0. -1.
         21   -1    0    0  502  503 -0.00000000000E+00 -0.00000000000E+00 -0.41644816820E+03  0.41644816820E+03  0.00000000000E+00 0. -1.
          6    1    1    2  501    0  0.31548479847E+02  0.97294586424E+01 -0.28095860323E+02  0.17834894537E+03  0.17300000000E+03 0. -1.
         -6    1    1    2    0  503 -0.31548479847E+02 -0.97294586424E+01 -0.28846808865E+03  0.33798344207E+03  0.17300000000E+03 0. -1.
<mgrwt>
<rscale>  2 0.17612203E+03</rscale>
<asrwt>0</asrwt>
<pdfrwt beam="1">  1       21 0.15366803E-01 0.17612203E+03</pdfrwt>
<pdfrwt beam="2">  1       21 0.64068950E-01 0.17612203E+03</pdfrwt>
<totfact> 0.84994003E+04</totfact>
</mgrwt>
</event>
<event>
 4    3  0.3906307E+000  0.2011307E+03  0.7546771E-02  0.1148789E+00
         21   -1    0    0  503  502  0.00000000000E+00  0.00000000000E+00  0.50392233675E+02  0.50392233675E+02  0.00000000000E+00 0. -1.
         21   -1    0    0  501  503 -0.00000000000E+00 -0.00000000000E+00 -0.87138564892E+03  0.87138564892E+03  0.00000000000E+00 0.  1.
          6    1    1    2  501    0 -0.42462179814E+02  0.93389007997E+02 -0.53982453766E+03  0.57607644891E+03  0.17300000000E+03 0.  1.
         -6    1    1    2    0  502  0.42462179814E+02 -0.93389007997E+02 -0.28116887758E+03  0.34570143368E+03  0.17300000000E+03 0. -1.
<mgrwt>
<rscale>  2 0.20113066E+03</rscale>
<asrwt>0</asrwt>
<pdfrwt beam="1">  1       21 0.77526515E-02 0.20113066E+03</pdfrwt>
<pdfrwt beam="2">  1       21 0.13405933E+00 0.20113066E+03</pdfrwt>
<totfact> 0.50446123E+04</totfact>
</mgrwt>
</event>
<event>
 4    3  0.3906307E+000  0.1820900E+03  0.7546771E-02  0.1165796E+00
         21   -1    0    0  503  502  0.00000000000E+00  0.00000000000E+00  0.16254668936E+03  0.16254668936E+03  0.00000000000E+00 0.  1.
         21   -1    0    0  501  503 -0.00000000000E+00 -0.00000000000E+00 -0.20527010209E+03  0.20527010209E+03  0.00000000000E+00 0.  1.
          6    1    1    2  501    0 -0.32153460918E+02 -0.46839361686E+02 -0.35924185875E+02  0.18559988681E+03  0.17300000000E+03 0. -1.
         -6    1    1    2    0  502  0.32153460918E+02  0.46839361686E+02 -0.67992268485E+01  0.18221690464E+03  0.17300000000E+03 0. -1.
<mgrwt>
<rscale>  2 0.18209001E+03</rscale>
<asrwt>0</asrwt>
<pdfrwt beam="1">  1       21 0.25007183E-01 0.18209001E+03</pdfrwt>
<pdfrwt beam="2">  1       21 0.31580016E-01 0.18209001E+03</pdfrwt>
<totfact> 0.14641724E+05</totfact>
</mgrwt>
</event>
<event>
 4    3  0.3906307E+000  0.2027601E+03  0.7546771E-02  0.1147431E+00
         21   -1    0    0  501  502  0.00000000000E+00  0.00000000000E+00  0.11676175779E+03  0.11676175779E+03  0.00000000000E+00 0. -1.
         21   -1    0    0  502  503 -0.00000000000E+00 -0.00000000000E+00 -0.56657249724E+03  0.56657249724E+03  0.00000000000E+00 0. -1.
          6    1    1    2  501    0 -0.73710258907E+02  0.75825047793E+02 -0.14690820036E+02  0.20329156484E+03  0.17300000000E+03 0. -1.
         -6    1    1    2    0  503  0.73710258907E+02 -0.75825047793E+02 -0.43511991941E+03  0.48004269020E+03  0.17300000000E+03 0. -1.
<mgrwt>
<rscale>  2 0.20276006E+03</rscale>
<asrwt>0</asrwt>
<pdfrwt beam="1">  1       21 0.17963348E-01 0.20276006E+03</pdfrwt>
<pdfrwt beam="2">  1       21 0.87164999E-01 0.20276006E+03</pdfrwt>
<totfact> 0.31696704E+04</totfact>
</mgrwt>
</event>
<event>
 4    3  0.3906307E+000  0.1956891E+03  0.7546771E-02  0.1153428E+00
         21   -1    0    0  503  502  0.00000000000E+00  0.00000000000E+00  0.24642261334E+04  0.24642261334E+04  0.00000000000E+00 0. -1.
         21   -1    0    0  501  503 -0.00000000000E+00 -0.00000000000E+00 -0.15711111464E+02  0.15711111464E+02  0.00000000000E+00 0. -1.
          6    1    1    2  501    0 -0.22906889819E+02 -0.88546512187E+02  0.10948746992E+04  0.11122251648E+04  0.17300000000E+03 0. -1.
         -6    1    1    2    0  502  0.22906889819E+02  0.88546512187E+02  0.13536403228E+04  0.13677120800E+04  0.17300000000E+03 0. -1.
<mgrwt>
<rscale>  2 0.19568907E+03</rscale>
<asrwt>0</asrwt>
<pdfrwt beam="1">  1       21 0.37911141E+00 0.19568907E+03</pdfrwt>
<pdfrwt beam="2">  1       21 0.24170960E-02 0.19568907E+03</pdfrwt>
<totfact> 0.10535432E+04</totfact>
</mgrwt>
</event>
<event>
 4    3  0.3906307E+000  0.2076773E+03  0.7546771E-02  0.1143419E+00
         21   -1    0    0  501  502  0.00000000000E+00  0.00000000000E+00  0.75065680556E+02  0.75065680556E+02  0.00000000000E+00 0. -1.
         21   -1    0    0  502  503 -0.00000000000E+00 -0.00000000000E+00 -0.62247837556E+03  0.62247837556E+03  0.00000000000E+00 0. -1.
          6    1    1    2  501    0  0.86975223964E+02 -0.75074375008E+02 -0.37047254531E+03  0.42471138223E+03  0.17300000000E+03 0. -1.
         -6    1    1    2    0  503 -0.86975223964E+02  0.75074375008E+02 -0.17694014969E+03  0.27283267389E+03  0.17300000000E+03 0. -1.
<mgrwt>
<rscale>  2 0.20767728E+03</rscale>
<asrwt>0</asrwt>
<pdfrwt beam="1">  1       21 0.11548566E-01 0.20767728E+03</pdfrwt>
<pdfrwt beam="2">  1       21 0.95765903E-01 0.20767728E+03</pdfrwt>
<totfact> 0.56708275E+04</totfact>
</mgrwt>
</event>
<event>
 4    3  0.3906307E+000  0.2552207E+03  0.7546771E-02  0.1110049E+00
         21   -1    0    0  503  502  0.00000000000E+00  0.00000000000E+00  0.30158638257E+03  0.30158638257E+03  0.00000000000E+00 0. -1.
         21   -1    0    0  501  503 -0.00000000000E+00 -0.00000000000E+00 -0.25902493235E+03  0.25902493235E+03  0.00000000000E+00 0.  1.
          6    1    1    2  501    0  0.79293367840E+02  0.17006228873E+03 -0.92982236783E+02  0.27163084617E+03  0.17300000000E+03 0.  1.
         -6    1    1    2    0  502 -0.79293367840E+02 -0.17006228873E+03  0.13554368701E+03  0.28898046875E+03  0.17300000000E+03 0. -1.
<mgrwt>
<rscale>  2 0.25522073E+03</rscale>
<asrwt>0</asrwt>
<pdfrwt beam="1">  1       21 0.46397905E-01 0.25522073E+03</pdfrwt>
<pdfrwt beam="2">  1       21 0.39849990E-01 0.25522073E+03</pdfrwt>
<totfact> 0.26158997E+04</totfact>
</mgrwt>
</event>
<event>
 4    3  0.3906307E+000  0.1841972E+03  0.7546771E-02  0.1163802E+00
         21   -1    0    0  501  502  0.00000000000E+00  0.00000000000E+00  0.75564455292E+02  0.75564455292E+02  0.00000000000E+00 0.  1.
         21   -1    0    0  502  503 -0.00000000000E+00 -0.00000000000E+00 -0.10529497519E+04  0.10529497519E+04  0.00000000000E+00 0.  1.
          6    1    1    2  501    0  0.31488062398E+02 -0.54846219370E+02 -0.61353354074E+02  0.19414643934E+03  0.17300000000E+03 0.  1.
         -6    1    1    2    0  503 -0.31488062398E+02  0.54846219370E+02 -0.91603194249E+03  0.93436776780E+03  0.17300000000E+03 0.  1.
<mgrwt>
<rscale>  2 0.18419719E+03</rscale>
<asrwt>0</asrwt>
<pdfrwt beam="1">  1       21 0.11625302E-01 0.18419719E+03</pdfrwt>
<pdfrwt beam="2">  1       21 0.16199225E+00 0.18419719E+03</pdfrwt>
<totfact> 0.15210541E+04</totfact>
</mgrwt>
</event>
<event>
 4    3  0.3906307E+000  0.1845631E+03  0.7546771E-02  0.1163459E+00
         21   -1    0    0  503  502  0.00000000000E+00  0.00000000000E+00  0.14082391146E+04  0.14082391146E+04  0.00000000000E+00 0. -1.
         21   -1    0    0  501  503 -0.00000000000E+00 -0.00000000000E+00 -0.12014640697E+03  0.12014640697E+03  0.00000000000E+00 0. -1.
          6    1    1    2  501    0 -0.31457575349E+02 -0.56079845674E+02 -0.38901222891E+02  0.18861822097E+03  0.17300000000E+03 0. -1.
         -6    1    1    2    0  502  0.31457575349E+02  0.56079845674E+02  0.13269939305E+04  0.13397673006E+04  0.17300000000E+03 0. -1.
<mgrwt>
<rscale>  2 0.18456307E+03</rscale>
<asrwt>0</asrwt>
<pdfrwt beam="1">  1       21 0.21665216E+00 0.18456307E+03</pdfrwt>
<pdfrwt beam="2">  1       21 0.18484064E-01 0.18456307E+03</pdfrwt>
<totfact> 0.28437507E+03</totfact>
</mgrwt>
</event>
<event>
 4    3  0.3906307E+000  0.1914865E+03  0.7546771E-02  0.1157127E+00
         21   -1    0    0  501  502  0.00000000000E+00  0.00000000000E+00  0.38252483265E+03  0.38252483265E+03  0.00000000000E+00 0.  1.
         21   -1    0    0  502  503 -0.00000000000E+00 -0.00000000000E+00 -0.30694718755E+03  0.30694718755E+03  0.00000000000E+00 0.  1.
          6    1    1    2  501    0 -0.81059332253E+02  0.12940857073E+02  0.32367322595E+03  0.37607371395E+03  0.17300000000E+03 0.  1.
         -6    1    1    2    0  503  0.81059332253E+02 -0.12940857073E+02 -0.24809558085E+03  0.31339830625E+03  0.17300000000E+03 0.  1.
<mgrwt>
<rscale>  2 0.19148650E+03</rscale>
<asrwt>0</asrwt>
<pdfrwt beam="1">  1       21 0.58849974E-01 0.19148650E+03</pdfrwt>
<pdfrwt beam="2">  1       21 0.47222644E-01 0.19148650E+03</pdfrwt>
<totfact> 0.11598053E+04</totfact>
</mgrwt>
</event>
<event>
 4    3  0.3906307E+000  0.2096860E+03  0.7546771E-02  0.1141815E+00
         21   -1    0    0  501  502  0.00000000000E+00  0.00000000000E+00  0.84187856646E+03  0.84187856646E+03  0.00000000000E+00 0.  1.
         21   -1    0    0  502  503 -0.00000000000E+00 -0.00000000000E+00 -0.58824735630E+02  0.58824735630E+02  0.00000000000E+00 0. -1.
          6    1    1    2  501    0 -0.11209299890E+03  0.38397800263E+02  0.54235809590E+03  0.58148132872E+03  0.17300000000E+03 0. -1.
         -6    1    1    2    0  503  0.11209299890E+03 -0.38397800263E+02  0.24069573493E+03  0.31922197337E+03  0.17300000000E+03 0. -1.
<mgrwt>
<rscale>  2 0.20968603E+03</rscale>
<asrwt>0</asrwt>
<pdfrwt beam="1">  1       21 0.12951977E+00 0.20968603E+03</pdfrwt>
<pdfrwt beam="2">  1       21 0.90499599E-02 0.20968603E+03</pdfrwt>
<totfact> 0.41809129E+04</totfact>
</mgrwt>
</event>
<event>
 4    3  0.3906307E+000  0.2007504E+03  0.7546771E-02  0.1149107E+00
         21   -1    0    0  503  502  0.00000000000E+00  0.00000000000E+00  0.50315509214E+03  0.50315509214E+03  0.00000000000E+00 0. -1.
         21   -1    0    0  501  503 -0.00000000000E+00 -0.00000000000E+00 -0.10385722480E+03  0.10385722480E+03  0.00000000000E+00 0. -1.
          6    1    1    2  501    0  0.80201073624E+02 -0.62765404662E+02  0.34482118084E+03  0.39900169798E+03  0.17300000000E+03 0. -1.
         -6    1    1    2    0  502 -0.80201073624E+02  0.62765404662E+02  0.54476686498E+02  0.20801061897E+03  0.17300000000E+03 0. -1.
<mgrwt>
<rscale>  2 0.20075036E+03</rscale>
<asrwt>0</asrwt>
<pdfrwt beam="1">  1       21 0.77408474E-01 0.20075036E+03</pdfrwt>
<pdfrwt beam="2">  1       21 0.15978035E-01 0.20075036E+03</pdfrwt>
<totfact> 0.51572180E+04</totfact>
</mgrwt>
</event>
<event>
 4    3  0.3906307E+000  0.2262479E+03  0.7546771E-02  0.1129309E+00
         21   -1    0    0  501  502  0.00000000000E+00  0.00000000000E+00  0.59957889219E+03  0.59957889219E+03  0.00000000000E+00 0.  1.
         21   -1    0    0  502  503 -0.00000000000E+00 -0.00000000000E+00 -0.20179819271E+03  0.20179819271E+03  0.00000000000E+00 0. -1.
          6    1    1    2  501    0  0.97854883120E+02 -0.10809035296E+03  0.50323872045E+03  0.55175838219E+03  0.17300000000E+03 0.  1.
         -6    1    1    2    0  503 -0.97854883120E+02  0.10809035296E+03 -0.10545802097E+03  0.24961870271E+03  0.17300000000E+03 0. -1.
<mgrwt>
<rscale>  2 0.22624788E+03</rscale>
<asrwt>0</asrwt>
<pdfrwt beam="1">  1       21 0.92242906E-01 0.22624788E+03</pdfrwt>
<pdfrwt beam="2">  1       21 0.31045876E-01 0.22624788E+03</pdfrwt>
<totfact> 0.96682564E+03</totfact>
</mgrwt>
</event>
<event>
 4    3  0.3906307E+000  0.1840447E+03  0.7546771E-02  0.1163945E+00
         21   -1    0    0  501  502  0.00000000000E+00  0.00000000000E+00  0.40422454455E+02  0.40422454455E+02  0.00000000000E+00 0. -1.
         21   -1    0    0  502  503 -0.00000000000E+00 -0.00000000000E+00 -0.88504793655E+03  0.88504793655E+03  0.00000000000E+00 0. -1.
          6    1    1    2  501    0 -0.50336600548E+02  0.37545550806E+02 -0.31557962305E+03  0.36532580011E+03  0.17300000000E+03 0. -1.
         -6    1    1    2    0  503  0.50336600548E+02 -0.37545550806E+02 -0.52904585904E+03  0.56014459090E+03  0.17300000000E+03 0. -1.
<mgrwt>
<rscale>  2 0.18404467E+03</rscale>
<asrwt>0</asrwt>
<pdfrwt beam="1">  1       21 0.62188391E-02 0.18404467E+03</pdfrwt>
<pdfrwt beam="2">  1       21 0.13616122E+00 0.18404467E+03</pdfrwt>
<totfact> 0.71578579E+04</totfact>
</mgrwt>
</event>
<event>
 4    3  0.3906307E+000  0.2350974E+03  0.7546771E-02  0.1123103E+00
         21   -1    0    0  503  502  0.00000000000E+00  0.00000000000E+00  0.24430935796E+02  0.24430935796E+02  0.00000000000E+00 0. -1.
         21   -1    0    0  501  503 -0.00000000000E+00 -0.00000000000E+00 -0.30558683380E+04  0.30558683380E+04  0.00000000000E+00 0. -1.
          6    1    1    2  501    0 -0.17490989079E+02  0.15822725656E+03 -0.73088074458E+03  0.76776133155E+03  0.17300000000E+03 0. -1.
         -6    1    1    2    0  502  0.17490989079E+02 -0.15822725656E+03 -0.23005566577E+04  0.23125379423E+04  0.17300000000E+03 0. -1.
<mgrwt>
<rscale>  2 0.23509743E+03</rscale>
<asrwt>0</asrwt>
<pdfrwt beam="1">  1       21 0.37586065E-02 0.23509743E+03</pdfrwt>
<pdfrwt beam="2">  1       21 0.47013347E+00 0.23509743E+03</pdfrwt>
<totfact> 0.12472081E+03</totfact>
</mgrwt>
</event>
<event>
 4    3  0.3906307E+000  0.1962250E+03  0.7546771E-02  0.1152964E+00
         21   -1    0    0  503  502  0.00000000000E+00  0.00000000000E+00  0.26693820779E+03  0.26693820779E+03  0.00000000000E+00 0.  1.
         21   -1    0    0  501  503 -0.00000000000E+00 -0.00000000000E+00 -0.14525919321E+03  0.14525919321E+03  0.00000000000E+00 0.  1.
          6    1    1    2  501    0  0.50214138125E+01  0.92466309738E+02  0.78069267876E+02  0.21118485651E+03  0.17300000000E+03 0.  1.
         -6    1    1    2    0  502 -0.50214138125E+01 -0.92466309738E+02  0.43609746704E+02  0.20101254449E+03  0.17300000000E+03 0.  1.
<mgrwt>
<rscale>  2 0.19622496E+03</rscale>
<asrwt>0</asrwt>
<pdfrwt beam="1">  1       21 0.41067417E-01 0.19622496E+03</pdfrwt>
<pdfrwt beam="2">  1       21 0.22347568E-01 0.19622496E+03</pdfrwt>
<totfact> 0.10687756E+05</totfact>
</mgrwt>
</event>
<event>
 4    3  0.3906307E+000  0.1771002E+03  0.7546771E-02  0.1170639E+00
         21   -1    0    0  503  502  0.00000000000E+00  0.00000000000E+00  0.64701395619E+03  0.64701395619E+03  0.00000000000E+00 0.  1.
         21   -1    0    0  501  503 -0.00000000000E+00 -0.00000000000E+00 -0.10986348592E+03  0.10986348592E+03  0.00000000000E+00 0.  1.
          6    1    1    2  501    0 -0.22238689126E+02 -0.30674730485E+02 -0.14309571922E+02  0.17767741059E+03  0.17300000000E+03 0.  1.
         -6    1    1    2    0  502  0.22238689126E+02  0.30674730485E+02  0.55146004219E+03  0.57920003152E+03  0.17300000000E+03 0.  1.
<mgrwt>
<rscale>  2 0.17710025E+03</rscale>
<asrwt>0</asrwt>
<pdfrwt beam="1">  1       21 0.99540607E-01 0.17710025E+03</pdfrwt>
<pdfrwt beam="2">  1       21 0.16902075E-01 0.17710025E+03</pdfrwt>
<totfact> 0.26408576E+04</totfact>
</mgrwt>
</event>
<event>
 4    3  0.3906307E+000  0.1780019E+03  0.7546771E-02  0.1169751E+00
         21   -1    0    0  503  502  0.00000000000E+00  0.00000000000E+00  0.66790407688E+02  0.66790407688E+02  0.00000000000E+00 0.  1.
         21   -1    0    0  501  503 -0.00000000000E+00 -0.00000000000E+00 -0.51914002035E+03  0.51914002035E+03  0.00000000000E+00 0. -1.
          6    1    1    2  501    0  0.40557873008E+02  0.10522678093E+02 -0.14016006902E+03  0.22656017471E+03  0.17300000000E+03 0.  1.
         -6    1    1    2    0  502 -0.40557873008E+02 -0.10522678093E+02 -0.31218954364E+03  0.35937025333E+03  0.17300000000E+03 0. -1.
<mgrwt>
<rscale>  2 0.17800188E+03</rscale>
<asrwt>0</asrwt>
<pdfrwt beam="1">  1       21 0.10275448E-01 0.17800188E+03</pdfrwt>
<pdfrwt beam="2">  1       21 0.79867693E-01 0.17800188E+03</pdfrwt>
<totfact> 0.10737256E+05</totfact>
</mgrwt>
</event>
<event>
 4    3  0.3906307E+000  0.1778046E+03  0.7546771E-02  0.1169945E+00
         21   -1    0    0  503  502  0.00000000000E+00  0.00000000000E+00  0.43412795969E+03  0.43412795969E+03  0.00000000000E+00 0. -1.
         21   -1    0    0  501  503 -0.00000000000E+00 -0.00000000000E+00 -0.96675211013E+02  0.96675211013E+02  0.00000000000E+00 0. -1.
          6    1    1    2  501    0 -0.54076479687E+01 -0.40696817078E+02  0.36897412359E+02  0.18159265573E+03  0.17300000000E+03 0. -1.
         -6    1    1    2    0  502  0.54076479687E+01  0.40696817078E+02  0.30055533632E+03  0.34921051497E+03  0.17300000000E+03 0. -1.
<mgrwt>
<rscale>  2 0.17780459E+03</rscale>
<asrwt>0</asrwt>
<pdfrwt beam="1">  1       21 0.66788916E-01 0.17780459E+03</pdfrwt>
<pdfrwt beam="2">  1       21 0.14873110E-01 0.17780459E+03</pdfrwt>
<totfact> 0.82340357E+04</totfact>
</mgrwt>
</event>
<event>
 4    3  0.3906307E+000  0.2280113E+03  0.7546771E-02  0.1128047E+00
         21   -1    0    0  503  502  0.00000000000E+00  0.00000000000E+00  0.40082431616E+03  0.40082431616E+03  0.00000000000E+00 0. -1.
         21   -1    0    0  501  503 -0.00000000000E+00 -0.00000000000E+00 -0.25843349291E+03  0.25843349291E+03  0.00000000000E+00 0. -1.
          6    1    1    2  501    0  0.11862601347E+02  0.14805209523E+03 -0.16144613612E+03  0.27938145801E+03  0.17300000000E+03 0. -1.
         -6    1    1    2    0  502 -0.11862601347E+02 -0.14805209523E+03  0.30383695938E+03  0.37987635106E+03  0.17300000000E+03 0. -1.
<mgrwt>
<rscale>  2 0.22801128E+03</rscale>
<asrwt>0</asrwt>
<pdfrwt beam="1">  1       21 0.61665279E-01 0.22801128E+03</pdfrwt>
<pdfrwt beam="2">  1       21 0.39758999E-01 0.22801128E+03</pdfrwt>
<totfact> 0.14577478E+04</totfact>
</mgrwt>
</event>
<event>
 4    3  0.3906307E+000  0.2156032E+03  0.7546771E-02  0.1137204E+00
         21   -1    0    0  501  502  0.00000000000E+00  0.00000000000E+00  0.21333109962E+03  0.21333109962E+03  0.00000000000E+00 0. -1.
         21   -1    0    0  502  503 -0.00000000000E+00 -0.00000000000E+00 -0.21881239127E+03  0.21881239127E+03  0.00000000000E+00 0.  1.
          6    1    1    2  501    0  0.12625699139E+03  0.24797552760E+02  0.11215459610E+02  0.21589472673E+03  0.17300000000E+03 0.  1.
         -6    1    1    2    0  503 -0.12625699139E+03 -0.24797552760E+02 -0.16696751255E+02  0.21624876416E+03  0.17300000000E+03 0.  1.
<mgrwt>
<rscale>  2 0.21560322E+03</rscale>
<asrwt>0</asrwt>
<pdfrwt beam="1">  1       21 0.32820169E-01 0.21560322E+03</pdfrwt>
<pdfrwt beam="2">  1       21 0.33663445E-01 0.21560322E+03</pdfrwt>
<totfact> 0.75215685E+04</totfact>
</mgrwt>
</event>
<event>
 4    3  0.3906307E+000  0.2145441E+03  0.7546771E-02  0.1138017E+00
         21   -1    0    0  503  502  0.00000000000E+00  0.00000000000E+00  0.16992795941E+03  0.16992795941E+03  0.00000000000E+00 0.  1.
         21   -1    0    0  501  503 -0.00000000000E+00 -0.00000000000E+00 -0.37240624734E+03  0.37240624734E+03  0.00000000000E+00 0.  1.
          6    1    1    2  501    0 -0.10653250315E+03  0.68927396525E+02 -0.24282808632E+03  0.32402876373E+03  0.17300000000E+03 0.  1.
         -6    1    1    2    0  502  0.10653250315E+03 -0.68927396525E+02  0.40349798392E+02  0.21830544301E+03  0.17300000000E+03 0.  1.
<mgrwt>
<rscale>  2 0.21454408E+03</rscale>
<asrwt>0</asrwt>
<pdfrwt beam="1">  1       21 0.26142763E-01 0.21454408E+03</pdfrwt>
<pdfrwt beam="2">  1       21 0.57293268E-01 0.21454408E+03</pdfrwt>
<totfact> 0.39329205E+04</totfact>
</mgrwt>
</event>
<event>
 4    3  0.3906307E+000  0.2889189E+03  0.7546771E-02  0.1090915E+00
         21   -1    0    0  501  502  0.00000000000E+00  0.00000000000E+00  0.88498013090E+03  0.88498013090E+03  0.00000000000E+00 0. -1.
         21   -1    0    0  502  503 -0.00000000000E+00 -0.00000000000E+00 -0.27061193442E+03  0.27061193442E+03  0.00000000000E+00 0. -1.
          6    1    1    2  501    0 -0.15266612986E+03  0.17389127540E+03  0.77353563406E+03  0.82573088839E+03  0.17300000000E+03 0. -1.
         -6    1    1    2    0  503  0.15266612986E+03 -0.17389127540E+03 -0.15916743758E+03  0.32986117694E+03  0.17300000000E+03 0. -1.
<mgrwt>
<rscale>  2 0.28891889E+03</rscale>
<asrwt>0</asrwt>
<pdfrwt beam="1">  1       21 0.13615079E+00 0.28891889E+03</pdfrwt>
<pdfrwt beam="2">  1       21 0.41632606E-01 0.28891889E+03</pdfrwt>
<totfact> 0.19816248E+03</totfact>
</mgrwt>
</event>
<event>
 4    3  0.3906307E+000  0.2235696E+03  0.7546771E-02  0.1131249E+00
         21   -1    0    0  501  502  0.00000000000E+00  0.00000000000E+00  0.21657616931E+03  0.21657616931E+03  0.00000000000E+00 0.  1.
         21   -1    0    0  502  503 -0.00000000000E+00 -0.00000000000E+00 -0.23367961277E+03  0.23367961277E+03  0.00000000000E+00 0. -1.
          6    1    1    2  501    0 -0.85088339735E+02 -0.11320045660E+03 -0.33591113293E+02  0.22607903889E+03  0.17300000000E+03 0. -1.
         -6    1    1    2    0  503  0.85088339735E+02  0.11320045660E+03  0.16487669824E+02  0.22417674319E+03  0.17300000000E+03 0. -1.
<mgrwt>
<rscale>  2 0.22356961E+03</rscale>
<asrwt>0</asrwt>
<pdfrwt beam="1">  1       21 0.33319411E-01 0.22356961E+03</pdfrwt>
<pdfrwt beam="2">  1       21 0.35950710E-01 0.22356961E+03</pdfrwt>
<totfact> 0.63842871E+04</totfact>
</mgrwt>
</event>
<event>
 4    3  0.3906307E+000  0.1766363E+03  0.7546771E-02  0.1171099E+00
         21   -1    0    0  503  502  0.00000000000E+00  0.00000000000E+00  0.47616962529E+02  0.47616962529E+02  0.00000000000E+00 0. -1.
         21   -1    0    0  501  503 -0.00000000000E+00 -0.00000000000E+00 -0.77626180363E+03  0.77626180363E+03  0.00000000000E+00 0. -1.
          6    1    1    2  501    0  0.35209436334E+02  0.56289807214E+01 -0.52697712143E+03  0.55579247597E+03  0.17300000000E+03 0. -1.
         -6    1    1    2    0  502 -0.35209436334E+02 -0.56289807214E+01 -0.20166771967E+03  0.26808629019E+03  0.17300000000E+03 0. -1.
<mgrwt>
<rscale>  2 0.17663632E+03</rscale>
<asrwt>0</asrwt>
<pdfrwt beam="1">  1       21 0.73256873E-02 0.17663632E+03</pdfrwt>
<pdfrwt beam="2">  1       21 0.11942488E+00 0.17663632E+03</pdfrwt>
<totfact> 0.75291613E+04</totfact>
</mgrwt>
</event>
<event>
 4    3  0.3906307E+000  0.1750006E+03  0.7546771E-02  0.1172731E+00
         21   -1    0    0  503  502  0.00000000000E+00  0.00000000000E+00  0.23846404224E+03  0.23846404224E+03  0.00000000000E+00 0. -1.
         21   -1    0    0  501  503 -0.00000000000E+00 -0.00000000000E+00 -0.26829298466E+03  0.26829298466E+03  0.00000000000E+00 0. -1.
          6    1    1    2  501    0  0.21222286006E+02  0.15679321050E+02 -0.19785972485E+03  0.26414711289E+03  0.17300000000E+03 0. -1.
         -6    1    1    2    0  502 -0.21222286006E+02 -0.15679321050E+02  0.16803078243E+03  0.24260991401E+03  0.17300000000E+03 0. -1.
<mgrwt>
<rscale>  2 0.17500065E+03</rscale>
<asrwt>0</asrwt>
<pdfrwt beam="1">  1       21 0.36686776E-01 0.17500065E+03</pdfrwt>
<pdfrwt beam="2">  1       21 0.41275844E-01 0.17500065E+03</pdfrwt>
<totfact> 0.40864038E+04</totfact>
</mgrwt>
</event>
<event>
 4    3  0.3906307E+000  0.2125203E+03  0.7546771E-02  0.1139586E+00
         21   -1    0    0  503  502  0.00000000000E+00  0.00000000000E+00  0.24358028155E+04  0.24358028155E+04  0.00000000000E+00 0.  1.
         21   -1    0    0  501  503 -0.00000000000E+00 -0.00000000000E+00 -0.19752764578E+02  0.19752764578E+02  0.00000000000E+00 0.  1.
          6    1    1    2  501    0 -0.12342107869E+03 -0.17674031073E+01  0.15119866136E+04  0.15268491759E+04  0.17300000000E+03 0.  1.
         -6    1    1    2    0  502  0.12342107869E+03  0.17674031073E+01  0.90406343736E+03  0.92870640418E+03  0.17300000000E+03 0.  1.
<mgrwt>
<rscale>  2 0.21252032E+03</rscale>
<asrwt>0</asrwt>
<pdfrwt beam="1">  1       21 0.37473866E+00 0.21252032E+03</pdfrwt>
<pdfrwt beam="2">  1       21 0.30388888E-02 0.21252032E+03</pdfrwt>
<totfact> 0.75248326E+03</totfact>
</mgrwt>
</event>
<event>
 4    3  0.3906307E+000  0.2121497E+03  0.7546771E-02  0.1139875E+00
         21   -1    0    0  501  502  0.00000000000E+00  0.00000000000E+00  0.18329145252E+03  0.18329145252E+03  0.00000000000E+00 0. -1.
         21   -1    0    0  502  503 -0.00000000000E+00 -0.00000000000E+00 -0.58801351900E+03  0.58801351900E+03  0.00000000000E+00 0. -1.
          6    1    1    2  501    0  0.34558561894E+02 -0.11783131939E+03  0.91951398141E+02  0.23121975186E+03  0.17300000000E+03 0. -1.
         -6    1    1    2    0  503 -0.34558561894E+02  0.11783131939E+03 -0.49667346462E+03  0.54008521966E+03  0.17300000000E+03 0. -1.
<mgrwt>
<rscale>  2 0.21214974E+03</rscale>
<asrwt>0</asrwt>
<pdfrwt beam="1">  1       21 0.28198684E-01 0.21214974E+03</pdfrwt>
<pdfrwt beam="2">  1       21 0.90463621E-01 0.21214974E+03</pdfrwt>
<totfact> 0.12316365E+04</totfact>
</mgrwt>
</event>
<event>
 4    3  0.3906307E+000  0.1731384E+03  0.7546771E-02  0.1174614E+00
         21   -1    0    0  503  502  0.00000000000E+00  0.00000000000E+00  0.23505225905E+03  0.23505225905E+03  0.00000000000E+00 0. -1.
         21   -1    0    0  501  503 -0.00000000000E+00 -0.00000000000E+00 -0.12776813240E+03  0.12776813240E+03  0.00000000000E+00 0. -1.
          6    1    1    2  501    0 -0.58217936633E+01 -0.37450821443E+01  0.45859728198E+02  0.17910899919E+03  0.17300000000E+03 0.  1.
         -6    1    1    2    0  502  0.58217936633E+01  0.37450821443E+01  0.61424398451E+02  0.18371139226E+03  0.17300000000E+03 0.  1.
<mgrwt>
<rscale>  2 0.17313844E+03</rscale>
<asrwt>0</asrwt>
<pdfrwt beam="1">  1       21 0.36161886E-01 0.17313844E+03</pdfrwt>
<pdfrwt beam="2">  1       21 0.19656636E-01 0.17313844E+03</pdfrwt>
<totfact> 0.17686212E+05</totfact>
</mgrwt>
</event>
<event>
 4    3  0.3906307E+000  0.2619143E+03  0.7546771E-02  0.1105999E+00
         21   -1    0    0  503  502  0.00000000000E+00  0.00000000000E+00  0.13656309284E+04  0.13656309284E+04  0.00000000000E+00 0. -1.
         21   -1    0    0  501  503 -0.00000000000E+00 -0.00000000000E+00 -0.68405859555E+02  0.68405859555E+02  0.00000000000E+00 0. -1.
          6    1    1    2  501    0 -0.14524967616E+03  0.13256175866E+03  0.27903891059E+03  0.38270328180E+03  0.17300000000E+03 0. -1.
         -6    1    1    2    0  502  0.14524967616E+03 -0.13256175866E+03  0.10181861583E+04  0.10513335061E+04  0.17300000000E+03 0. -1.
<mgrwt>
<rscale>  2 0.26191428E+03</rscale>
<asrwt>0</asrwt>
<pdfrwt beam="1">  1       21 0.21009705E+00 0.26191428E+03</pdfrwt>
<pdfrwt beam="2">  1       21 0.10523979E-01 0.26191428E+03</pdfrwt>
<totfact> 0.81415452E+03</totfact>
</mgrwt>
</event>
<event>
 4    3  0.3906307E+000  0.2009438E+03  0.7546771E-02  0.1148945E+00
         21   -1    0    0  501  502  0.00000000000E+00  0.00000000000E+00  0.14944759624E+03  0.14944759624E+03  0.00000000000E+00 0. -1.
         21   -1    0    0  502  503 -0.00000000000E+00 -0.00000000000E+00 -0.40249843762E+03  0.40249843762E+03  0.00000000000E+00 0. -1.
          6    1    1    2  501    0  0.10200712881E+03 -0.66309849548E+01  0.31704028554E+02  0.20342952027E+03  0.17300000000E+03 0. -1.
         -6    1    1    2    0  503 -0.10200712881E+03  0.66309849548E+01 -0.28475486993E+03  0.34851651358E+03  0.17300000000E+03 0. -1.
<mgrwt>
<rscale>  2 0.20094383E+03</rscale>
<asrwt>0</asrwt>
<pdfrwt beam="1">  1       21 0.22991938E-01 0.20094383E+03</pdfrwt>
<pdfrwt beam="2">  1       21 0.61922835E-01 0.20094383E+03</pdfrwt>
<totfact> 0.42816940E+04</totfact>
</mgrwt>
</event>
<event>
 4    3  0.3906307E+000  0.2262125E+03  0.7546771E-02  0.1129334E+00
         21   -1    0    0  503  502  0.00000000000E+00  0.00000000000E+00  0.14846189042E+03  0.14846189042E+03  0.00000000000E+00 0.  1.
         21   -1    0    0  501  503 -0.00000000000E+00 -0.00000000000E+00 -0.45369703973E+03  0.45369703973E+03  0.00000000000E+00 0. -1.
          6    1    1    2  501    0 -0.14387407479E+03 -0.23310216350E+02 -0.30020240381E+03  0.37589040801E+03  0.17300000000E+03 0. -1.
         -6    1    1    2    0  502  0.14387407479E+03  0.23310216350E+02 -0.50327455020E+01  0.22626852214E+03  0.17300000000E+03 0. -1.
<mgrwt>
<rscale>  2 0.22621255E+03</rscale>
<asrwt>0</asrwt>
<pdfrwt beam="1">  1       21 0.22840291E-01 0.22621255E+03</pdfrwt>
<pdfrwt beam="2">  1       21 0.69799545E-01 0.22621255E+03</pdfrwt>
<totfact> 0.32952131E+04</totfact>
</mgrwt>
</event>
<event>
 4    3  0.3906307E+000  0.2197686E+03  0.7546771E-02  0.1134056E+00
         21   -1    0    0  503  502  0.00000000000E+00  0.00000000000E+00  0.86125911277E+02  0.86125911277E+02  0.00000000000E+00 0.  1.
         21   -1    0    0  501  503 -0.00000000000E+00 -0.00000000000E+00 -0.71399274892E+03  0.71399274892E+03  0.00000000000E+00 0. -1.
          6    1    1    2  501    0  0.13543126886E+03 -0.52537746862E+01 -0.49925074795E+03  0.54548101714E+03  0.17300000000E+03 0. -1.
         -6    1    1    2    0  502 -0.13543126886E+03  0.52537746862E+01 -0.12861608969E+03  0.25463764305E+03  0.17300000000E+03 0.  1.
<mgrwt>
<rscale>  2 0.21976858E+03</rscale>
<asrwt>0</asrwt>
<pdfrwt beam="1">  1       21 0.13250140E-01 0.21976858E+03</pdfrwt>
<pdfrwt beam="2">  1       21 0.10984504E+00 0.21976858E+03</pdfrwt>
<totfact> 0.31703388E+04</totfact>
</mgrwt>
</event>
<event>
 4    3  0.3906307E+000  0.3642127E+03  0.7546771E-02  0.1056928E+00
         21   -1    0    0  503  502  0.00000000000E+00  0.00000000000E+00  0.26565216571E+03  0.26565216571E+03  0.00000000000E+00 0. -1.
         21   -1    0    0  501  503 -0.00000000000E+00 -0.00000000000E+00 -0.51689527705E+03  0.51689527705E+03  0.00000000000E+00 0.  1.
          6    1    1    2  501    0  0.20177273748E+03 -0.24901732255E+03 -0.19772865464E+03  0.41442428185E+03  0.17300000000E+03 0.  1.
         -6    1    1    2    0  502 -0.20177273748E+03  0.24901732255E+03 -0.53514456699E+02  0.36812316091E+03  0.17300000000E+03 0. -1.
<mgrwt>
<rscale>  2 0.36421266E+03</rscale>
<asrwt>0</asrwt>
<pdfrwt beam="1">  1       21 0.40869564E-01 0.36421266E+03</pdfrwt>
<pdfrwt beam="2">  1       21 0.79522350E-01 0.36421266E+03</pdfrwt>
<totfact> 0.73375453E+03</totfact>
</mgrwt>
</event>
<event>
 4    3  0.3906307E+000  0.2637697E+03  0.7546771E-02  0.1104899E+00
         21   -1    0    0  501  502  0.00000000000E+00  0.00000000000E+00  0.41613330329E+03  0.41613330329E+03  0.00000000000E+00 0.  1.
         21   -1    0    0  502  503 -0.00000000000E+00 -0.00000000000E+00 -0.17262529967E+03  0.17262529967E+03  0.00000000000E+00 0. -1.
          6    1    1    2  501    0  0.23963615833E+02 -0.19766438905E+03  0.17397647717E+03  0.31597829070E+03  0.17300000000E+03 0. -1.
         -6    1    1    2    0  503 -0.23963615833E+02  0.19766438905E+03  0.69531526455E+02  0.27278031226E+03  0.17300000000E+03 0.  1.
<mgrwt>
<rscale>  2 0.26376972E+03</rscale>
<asrwt>0</asrwt>
<pdfrwt beam="1">  1       21 0.64020508E-01 0.26376972E+03</pdfrwt>
<pdfrwt beam="2">  1       21 0.26557739E-01 0.26376972E+03</pdfrwt>
<totfact> 0.29346632E+04</totfact>
</mgrwt>
</event>
<event>
 4    3  0.3906307E+000  0.1851294E+03  0.7546771E-02  0.1162929E+00
         21   -1    0    0  501  502  0.00000000000E+00  0.00000000000E+00  0.22779271177E+03  0.22779271177E+03  0.00000000000E+00 0.  1.
         21   -1    0    0  502  503 -0.00000000000E+00 -0.00000000000E+00 -0.18904084342E+03  0.18904084342E+03  0.00000000000E+00 0.  1.
          6    1    1    2  501    0 -0.60919807275E+02  0.25152778181E+02  0.11353467291E+03  0.21717045638E+03  0.17300000000E+03 0.  1.
         -6    1    1    2    0  503  0.60919807275E+02 -0.25152778181E+02 -0.74782804573E+02  0.19966309881E+03  0.17300000000E+03 0.  1.
<mgrwt>
<rscale>  2 0.18512937E+03</rscale>
<asrwt>0</asrwt>
<pdfrwt beam="1">  1       21 0.35045033E-01 0.18512937E+03</pdfrwt>
<pdfrwt beam="2">  1       21 0.29083207E-01 0.18512937E+03</pdfrwt>
<totfact> 0.89110761E+04</totfact>
</mgrwt>
</event>
<event>
 4    3  0.3906307E+000  0.1773179E+03  0.7546771E-02  0.1170424E+00
         21   -1    0    0  503  502  0.00000000000E+00  0.00000000000E+00  0.57677493329E+03  0.57677493329E+03  0.00000000000E+00 0.  1.
         21   -1    0    0  501  503 -0.00000000000E+00 -0.00000000000E+00 -0.13854298452E+03  0.13854298452E+03  0.00000000000E+00 0.  1.
          6    1    1    2  501    0  0.24941231486E+02  0.29842627025E+02 -0.59428379028E+02  0.18701170993E+03  0.17300000000E+03 0.  1.
         -6    1    1    2    0  502 -0.24941231486E+02 -0.29842627025E+02  0.49766032780E+03  0.52830620788E+03  0.17300000000E+03 0.  1.
<mgrwt>
<rscale>  2 0.17731793E+03</rscale>
<asrwt>0</asrwt>
<pdfrwt beam="1">  1       21 0.88734604E-01 0.17731793E+03</pdfrwt>
<pdfrwt beam="2">  1       21 0.21314306E-01 0.17731793E+03</pdfrwt>
<totfact> 0.22446027E+04</totfact>
</mgrwt>
</event>
<event>
 4    3  0.3906307E+000  0.1782364E+03  0.7546771E-02  0.1169521E+00
         21   -1    0    0  501  502  0.00000000000E+00  0.00000000000E+00  0.27942738686E+03  0.27942738686E+03  0.00000000000E+00 0.  1.
         21   -1    0    0  502  503 -0.00000000000E+00 -0.00000000000E+00 -0.11728275362E+03  0.11728275362E+03  0.00000000000E+00 0.  1.
          6    1    1    2  501    0 -0.48074793096E+01  0.42615650803E+02  0.11578730555E+03  0.21254389118E+03  0.17300000000E+03 0.  1.
         -6    1    1    2    0  503  0.48074793096E+01 -0.42615650803E+02  0.46357327696E+02  0.18416624930E+03  0.17300000000E+03 0.  1.
<mgrwt>
<rscale>  2 0.17823638E+03</rscale>
<asrwt>0</asrwt>
<pdfrwt beam="1">  1       21 0.42988828E-01 0.17823638E+03</pdfrwt>
<pdfrwt beam="2">  1       21 0.18043501E-01 0.17823638E+03</pdfrwt>
<totfact> 0.14613212E+05</totfact>
</mgrwt>
</event>
<event>
 4    3  0.3906307E+000  0.2371896E+03  0.7546771E-02  0.1121679E+00
         21   -1    0    0  501  502  0.00000000000E+00  0.00000000000E+00  0.28738888725E+02  0.28738888725E+02  0.00000000000E+00 0.  1.
         21   -1    0    0  502  503 -0.00000000000E+00 -0.00000000000E+00 -0.21660348871E+04  0.21660348871E+04  0.00000000000E+00 0.  1.
          6    1    1    2  501    0  0.27198378599E+02  0.15996925580E+03 -0.72822071907E+03  0.76587487900E+03  0.17300000000E+03 0.  1.
         -6    1    1    2    0  503 -0.27198378599E+02 -0.15996925580E+03 -0.14090752793E+04  0.14288988968E+04  0.17300000000E+03 0.  1.
<mgrwt>
<rscale>  2 0.23718962E+03</rscale>
<asrwt>0</asrwt>
<pdfrwt beam="1">  1       21 0.44213647E-02 0.23718962E+03</pdfrwt>
<pdfrwt beam="2">  1       21 0.33323634E+00 0.23718962E+03</pdfrwt>
<totfact> 0.69167427E+03</totfact>
</mgrwt>
</event>
<event>
 4    3  0.3906307E+000  0.1851005E+03  0.7546771E-02  0.1162956E+00
         21   -1    0    0  501  502  0.00000000000E+00  0.00000000000E+00  0.24723795490E+03  0.24723795490E+03  0.00000000000E+00 0. -1.
         21   -1    0    0  502  503 -0.00000000000E+00 -0.00000000000E+00 -0.30345047619E+03  0.30345047619E+03  0.00000000000E+00 0. -1.
          6    1    1    2  501    0  0.65253128298E+02  0.86723004166E+01  0.17485062558E+03  0.25462702295E+03  0.17300000000E+03 0. -1.
         -6    1    1    2    0  503 -0.65253128298E+02 -0.86723004166E+01 -0.23106314687E+03  0.29606140814E+03  0.17300000000E+03 0. -1.
<mgrwt>
<rscale>  2 0.18510046E+03</rscale>
<asrwt>0</asrwt>
<pdfrwt beam="1">  1       21 0.38036608E-01 0.18510046E+03</pdfrwt>
<pdfrwt beam="2">  1       21 0.46684689E-01 0.18510046E+03</pdfrwt>
<totfact> 0.29403810E+04</totfact>
</mgrwt>
</event>
<event>
 4    3  0.3906307E+000  0.3247914E+03  0.7546771E-02  0.1073465E+00
         21   -1    0    0  501  502  0.00000000000E+00  0.00000000000E+00  0.96485441387E+02  0.96485441387E+02  0.00000000000E+00 0.  1.
         21   -1    0    0  502  503 -0.00000000000E+00 -0.00000000000E+00 -0.11105984823E+04  0.11105984823E+04  0.00000000000E+00 0.  1.
          6    1    1    2  501    0 -0.76632574562E+02  0.26398466098E+03 -0.58233711463E+03  0.66678779818E+03  0.17300000000E+03 0.  1.
         -6    1    1    2    0  503  0.76632574562E+02 -0.26398466098E+03 -0.43177592623E+03  0.54029612546E+03  0.17300000000E+03 0.  1.
<mgrwt>
<rscale>  2 0.32479140E+03</rscale>
<asrwt>0</asrwt>
<pdfrwt beam="1">  1       21 0.14843915E-01 0.32479140E+03</pdfrwt>
<pdfrwt beam="2">  1       21 0.17086129E+00 0.32479140E+03</pdfrwt>
<totfact> 0.77351778E+03</totfact>
</mgrwt>
</event>
<event>
 4    3  0.3906307E+000  0.1748732E+03  0.7546771E-02  0.1172859E+00
         21   -1    0    0  503  502  0.00000000000E+00  0.00000000000E+00  0.11445468060E+03  0.11445468060E+03  0.00000000000E+00 0. -1.
         21   -1    0    0  501  503 -0.00000000000E+00 -0.00000000000E+00 -0.29462308282E+03  0.29462308282E+03  0.00000000000E+00 0. -1.
          6    1    1    2  501    0 -0.12008277917E+01  0.25498806237E+02 -0.15250300091E+03  0.23202973170E+03  0.17300000000E+03 0. -1.
         -6    1    1    2    0  502  0.12008277917E+01 -0.25498806237E+02 -0.27665401321E+02  0.17704803172E+03  0.17300000000E+03 0. -1.
<mgrwt>
<rscale>  2 0.17487319E+03</rscale>
<asrwt>0</asrwt>
<pdfrwt beam="1">  1       21 0.17608413E-01 0.17487319E+03</pdfrwt>
<pdfrwt beam="2">  1       21 0.45326628E-01 0.17487319E+03</pdfrwt>
<totfact> 0.13733838E+05</totfact>
</mgrwt>
</event>
<event>
 4    3  0.3906307E+000  0.2843111E+03  0.7546771E-02  0.1093357E+00
         21   -1    0    0  503  502  0.00000000000E+00  0.00000000000E+00  0.12801473221E+04  0.12801473221E+04  0.00000000000E+00 0. -1.
         21   -1    0    0  501  503 -0.00000000000E+00 -0.00000000000E+00 -0.72821417353E+02  0.72821417353E+02  0.00000000000E+00 0.  1.
          6    1    1    2  501    0  0.13910829261E+03 -0.17763082237E+03  0.35704658469E+03  0.45641547933E+03  0.17300000000E+03 0. -1.
         -6    1    1    2    0  502 -0.13910829261E+03  0.17763082237E+03  0.85027932010E+03  0.89655326017E+03  0.17300000000E+03 0.  1.
<mgrwt>
<rscale>  2 0.28431114E+03</rscale>
<asrwt>0</asrwt>
<pdfrwt beam="1">  1       21 0.19694573E+00 0.28431114E+03</pdfrwt>
<pdfrwt beam="2">  1       21 0.11203296E-01 0.28431114E+03</pdfrwt>
<totfact> 0.87299900E+03</totfact>
</mgrwt>
</event>
<event>
 4    3  0.3906307E+000  0.2368317E+03  0.7546771E-02  0.1121922E+00
         21   -1    0    0  503  502  0.00000000000E+00  0.00000000000E+00  0.97843883466E+02  0.97843883466E+02  0.00000000000E+00 0. -1.
         21   -1    0    0  501  503 -0.00000000000E+00 -0.00000000000E+00 -0.59720790273E+03  0.59720790273E+03  0.00000000000E+00 0. -1.
          6    1    1    2  501    0  0.59686036911E+02  0.15032577225E+03 -0.18007945066E+03  0.29751952769E+03  0.17300000000E+03 0. -1.
         -6    1    1    2    0  502 -0.59686036911E+02 -0.15032577225E+03 -0.31928456860E+03  0.39753225851E+03  0.17300000000E+03 0. -1.
<mgrwt>
<rscale>  2 0.23683171E+03</rscale>
<asrwt>0</asrwt>
<pdfrwt beam="1">  1       21 0.15052905E-01 0.23683171E+03</pdfrwt>
<pdfrwt beam="2">  1       21 0.91878138E-01 0.23683171E+03</pdfrwt>
<totfact> 0.38172727E+04</totfact>
</mgrwt>
</event>
<event>
 4    3  0.3906307E+000  0.2746576E+03  0.7546771E-02  0.1098643E+00
         21   -1    0    0  503  502  0.00000000000E+00  0.00000000000E+00  0.10378205689E+04  0.10378205689E+04  0.00000000000E+00 0.  1.
         21   -1    0    0  501  503 -0.00000000000E+00 -0.00000000000E+00 -0.11415921966E+03  0.11415921966E+03  0.00000000000E+00 0. -1.
          6    1    1    2  501    0 -0.21162766929E+03  0.26860832415E+02  0.11466688474E+03  0.29763277572E+03  0.17300000000E+03 0. -1.
         -6    1    1    2    0  502  0.21162766929E+03 -0.26860832415E+02  0.80899446447E+03  0.85434701279E+03  0.17300000000E+03 0.  1.
<mgrwt>
<rscale>  2 0.27465756E+03</rscale>
<asrwt>0</asrwt>
<pdfrwt beam="1">  1       21 0.15966470E+00 0.27465756E+03</pdfrwt>
<pdfrwt beam="2">  1       21 0.17562958E-01 0.27465756E+03</pdfrwt>
<totfact> 0.70240255E+03</totfact>
</mgrwt>
</event>
<event>
 4    3  0.3906307E+000  0.3118432E+03  0.7546771E-02  0.1079466E+00
         21   -1    0    0  501  502  0.00000000000E+00  0.00000000000E+00  0.59423547671E+03  0.59423547671E+03  0.00000000000E+00 0. -1.
         21   -1    0    0  502  503 -0.00000000000E+00 -0.00000000000E+00 -0.48014833236E+03  0.48014833236E+03  0.00000000000E+00 0.  1.
          6    1    1    2  501    0  0.25430594340E+03 -0.51435949365E+02  0.49318565970E+03  0.58350515393E+03  0.17300000000E+03 0. -1.
         -6    1    1    2    0  503 -0.25430594340E+03  0.51435949365E+02 -0.37909851534E+03  0.49087865514E+03  0.17300000000E+03 0.  1.
<mgrwt>
<rscale>  2 0.31184318E+03</rscale>
<asrwt>0</asrwt>
<pdfrwt beam="1">  1       21 0.91420842E-01 0.31184318E+03</pdfrwt>
<pdfrwt beam="2">  1       21 0.73868975E-01 0.31184318E+03</pdfrwt>
<totfact> 0.15250550E+03</totfact>
</mgrwt>
</event>
<event>
 4    3  0.3906307E+000  0.2066458E+03  0.7546771E-02  0.1144250E+00
         21   -1    0    0  503  502  0.00000000000E+00  0.00000000000E+00  0.47044267270E+02  0.47044267270E+02  0.00000000000E+00 0.  1.
         21   -1    0    0  501  503 -0.00000000000E+00 -0.00000000000E+00 -0.91057838888E+03  0.91057838888E+03  0.00000000000E+00 0.  1.
          6    1    1    2  501    0 -0.87032380145E+01 -0.11268419000E+03 -0.40488568110E+03  0.45457110312E+03  0.17300000000E+03 0.  1.
         -6    1    1    2    0  502  0.87032380145E+01  0.11268419000E+03 -0.45864844051E+03  0.50305155303E+03  0.17300000000E+03 0.  1.
<mgrwt>
<rscale>  2 0.20664577E+03</rscale>
<asrwt>0</asrwt>
<pdfrwt beam="1">  1       21 0.72375801E-02 0.20664577E+03</pdfrwt>
<pdfrwt beam="2">  1       21 0.14008897E+00 0.20664577E+03</pdfrwt>
<totfact> 0.50617177E+04</totfact>
</mgrwt>
</event>
<event>
 4    3  0.3906307E+000  0.2339361E+03  0.7546771E-02  0.1123900E+00
         21   -1    0    0  501  502  0.00000000000E+00  0.00000000000E+00  0.11932014191E+04  0.11932014191E+04  0.00000000000E+00 0. -1.
         21   -1    0    0  502  503 -0.00000000000E+00 -0.00000000000E+00 -0.89445737570E+02  0.89445737570E+02  0.00000000000E+00 0.  1.
          6    1    1    2  501    0  0.15599981327E+03 -0.21474026108E+02  0.99953457225E+03  0.10265453895E+04  0.17300000000E+03 0. -1.
         -6    1    1    2    0  503 -0.15599981327E+03  0.21474026108E+02  0.10422110928E+03  0.25610176719E+03  0.17300000000E+03 0.  1.
<mgrwt>
<rscale>  2 0.23393605E+03</rscale>
<asrwt>0</asrwt>
<pdfrwt beam="1">  1       21 0.18356944E+00 0.23393605E+03</pdfrwt>
<pdfrwt beam="2">  1       21 0.13760884E-01 0.23393605E+03</pdfrwt>
<totfact> 0.76426385E+03</totfact>
</mgrwt>
</event>
<event>
 4    3  0.3906307E+000  0.1945519E+03  0.7546771E-02  0.1154419E+00
         21   -1    0    0  503  502  0.00000000000E+00  0.00000000000E+00  0.10604070871E+04  0.10604070871E+04  0.00000000000E+00 0.  1.
         21   -1    0    0  501  503 -0.00000000000E+00 -0.00000000000E+00 -0.36138094566E+02  0.36138094566E+02  0.00000000000E+00 0.  1.
          6    1    1    2  501    0 -0.88015337785E+02  0.13219094028E+02  0.45137341996E+03  0.49151643754E+03  0.17300000000E+03 0. -1.
         -6    1    1    2    0  502  0.88015337785E+02 -0.13219094028E+02  0.57289557253E+03  0.60502874408E+03  0.17300000000E+03 0. -1.
<mgrwt>
<rscale>  2 0.19455191E+03</rscale>
<asrwt>0</asrwt>
<pdfrwt beam="1">  1       21 0.16313953E+00 0.19455191E+03</pdfrwt>
<pdfrwt beam="2">  1       21 0.55597077E-02 0.19455191E+03</pdfrwt>
<totfact> 0.53575832E+04</totfact>
</mgrwt>
</event>
<event>
 4    3  0.3906307E+000  0.2250978E+03  0.7546771E-02  0.1130138E+00
         21   -1    0    0  503  502  0.00000000000E+00  0.00000000000E+00  0.18406544356E+03  0.18406544356E+03  0.00000000000E+00 0.  1.
         21   -1    0    0  501  503 -0.00000000000E+00 -0.00000000000E+00 -0.29714489680E+03  0.29714489680E+03  0.00000000000E+00 0.  1.
          6    1    1    2  501    0  0.65390723278E+02  0.12831245428E+03 -0.12181093520E+03  0.25594322915E+03  0.17300000000E+03 0.  1.
         -6    1    1    2    0  502 -0.65390723278E+02 -0.12831245428E+03  0.87314819659E+01  0.22526711121E+03  0.17300000000E+03 0.  1.
<mgrwt>
<rscale>  2 0.22509783E+03</rscale>
<asrwt>0</asrwt>
<pdfrwt beam="1">  1       21 0.28317761E-01 0.22509783E+03</pdfrwt>
<pdfrwt beam="2">  1       21 0.45714599E-01 0.22509783E+03</pdfrwt>
<totfact> 0.53875824E+04</totfact>
</mgrwt>
</event>
<event>
 4    3  0.3906307E+000  0.2480974E+03  0.7546771E-02  0.1114513E+00
         21   -1    0    0  503  502  0.00000000000E+00  0.00000000000E+00  0.38922558178E+03  0.38922558178E+03  0.00000000000E+00 0.  1.
         21   -1    0    0  501  503 -0.00000000000E+00 -0.00000000000E+00 -0.22816131446E+03  0.22816131446E+03  0.00000000000E+00 0. -1.
          6    1    1    2  501    0 -0.30418099634E+02 -0.17520865752E+03  0.25154151477E+03  0.35330647901E+03  0.17300000000E+03 0.  1.
         -6    1    1    2    0  502  0.30418099634E+02  0.17520865752E+03 -0.90477247452E+02  0.26408041723E+03  0.17300000000E+03 0. -1.
<mgrwt>
<rscale>  2 0.24809743E+03</rscale>
<asrwt>0</asrwt>
<pdfrwt beam="1">  1       21 0.59880859E-01 0.24809743E+03</pdfrwt>
<pdfrwt beam="2">  1       21 0.35101741E-01 0.24809743E+03</pdfrwt>
<totfact> 0.19749328E+04</totfact>
</mgrwt>
</event>
<event>
 4    3  0.3906307E+000  0.1803754E+03  0.7546771E-02  0.1167440E+00
         21   -1    0    0  503  502  0.00000000000E+00  0.00000000000E+00  0.12412396552E+03  0.12412396552E+03  0.00000000000E+00 0. -1.
         21   -1    0    0  501  503 -0.00000000000E+00 -0.00000000000E+00 -0.36160181337E+03  0.36160181337E+03  0.00000000000E+00 0.  1.
          6    1    1    2  501    0  0.26498824653E+02 -0.43635899157E+02 -0.24612423885E+03  0.30514327840E+03  0.17300000000E+03 0.  1.
         -6    1    1    2    0  502 -0.26498824653E+02  0.43635899157E+02  0.86463910066E+01  0.18058250048E+03  0.17300000000E+03 0. -1.
<mgrwt>
<rscale>  2 0.18037538E+03</rscale>
<asrwt>0</asrwt>
<pdfrwt beam="1">  1       21 0.19095995E-01 0.18037538E+03</pdfrwt>
<pdfrwt beam="2">  1       21 0.55631048E-01 0.18037538E+03</pdfrwt>
<totfact> 0.77001172E+04</totfact>
</mgrwt>
</event>
<event>
 4    3  0.3906307E+000  0.1867722E+03  0.7546771E-02  0.1161405E+00
         21   -1    0    0  501  502  0.00000000000E+00  0.00000000000E+00  0.10822427815E+04  0.10822427815E+04  0.00000000000E+00 0. -1.
         21   -1    0    0  502  503 -0.00000000000E+00 -0.00000000000E+00 -0.39665342616E+02  0.39665342616E+02  0.00000000000E+00 0.  1.
          6    1    1    2  501    0  0.70212079940E+02  0.50126214528E+01  0.76410981636E+03  0.78660515763E+03  0.17300000000E+03 0. -1.
         -6    1    1    2    0  503 -0.70212079940E+02 -0.50126214528E+01  0.27846762252E+03  0.33530296649E+03  0.17300000000E+03 0.  1.
<mgrwt>
<rscale>  2 0.18677222E+03</rscale>
<asrwt>0</asrwt>
<pdfrwt beam="1">  1       21 0.16649887E+00 0.18677222E+03</pdfrwt>
<pdfrwt beam="2">  1       21 0.61023612E-02 0.18677222E+03</pdfrwt>
<totfact> 0.43426337E+04</totfact>
</mgrwt>
</event>
<event>
 4    3  0.3906307E+000  0.2330164E+03  0.7546771E-02  0.1124534E+00
         21   -1    0    0  501  502  0.00000000000E+00  0.00000000000E+00  0.75215128393E+03  0.75215128393E+03  0.00000000000E+00 0.  1.
         21   -1    0    0  502  503 -0.00000000000E+00 -0.00000000000E+00 -0.11515154634E+03  0.11515154634E+03  0.00000000000E+00 0.  1.
          6    1    1    2  501    0  0.46942276153E+02  0.14887607726E+03  0.58338249716E+03  0.62819726334E+03  0.17300000000E+03 0.  1.
         -6    1    1    2    0  503 -0.46942276153E+02 -0.14887607726E+03  0.53617240432E+02  0.23910556694E+03  0.17300000000E+03 0.  1.
<mgrwt>
<rscale>  2 0.23301645E+03</rscale>
<asrwt>0</asrwt>
<pdfrwt beam="1">  1       21 0.11571558E+00 0.23301645E+03</pdfrwt>
<pdfrwt beam="2">  1       21 0.17715623E-01 0.23301645E+03</pdfrwt>
<totfact> 0.16282929E+04</totfact>
</mgrwt>
</event>
<event>
 4    3  0.3906307E+000  0.1892177E+03  0.7546771E-02  0.1159169E+00
         21   -1    0    0  503  502  0.00000000000E+00  0.00000000000E+00  0.16538389013E+03  0.16538389013E+03  0.00000000000E+00 0. -1.
         21   -1    0    0  501  503 -0.00000000000E+00 -0.00000000000E+00 -0.24503585414E+03  0.24503585414E+03  0.00000000000E+00 0. -1.
          6    1    1    2  501    0  0.76640999545E+02 -0.70314746774E+00 -0.10987201127E+03  0.21880401296E+03  0.17300000000E+03 0. -1.
         -6    1    1    2    0  502 -0.76640999545E+02  0.70314746774E+00  0.30220047264E+02  0.19161573131E+03  0.17300000000E+03 0. -1.
<mgrwt>
<rscale>  2 0.18921770E+03</rscale>
<asrwt>0</asrwt>
<pdfrwt beam="1">  1       21 0.25443675E-01 0.18921770E+03</pdfrwt>
<pdfrwt beam="2">  1       21 0.37697824E-01 0.18921770E+03</pdfrwt>
<totfact> 0.99523287E+04</totfact>
</mgrwt>
</event>
<event>
 4    3  0.3906307E+000  0.2180376E+03  0.7546771E-02  0.1135355E+00
         21   -1    0    0  501  502  0.00000000000E+00  0.00000000000E+00  0.15439997428E+03  0.15439997428E+03  0.00000000000E+00 0. -1.
         21   -1    0    0  502  503 -0.00000000000E+00 -0.00000000000E+00 -0.31399911317E+03  0.31399911317E+03  0.00000000000E+00 0.  1.
          6    1    1    2  501    0  0.11213246183E+03  0.70976944733E+02 -0.47170693943E+02  0.22308180124E+03  0.17300000000E+03 0.  1.
         -6    1    1    2    0  503 -0.11213246183E+03 -0.70976944733E+02 -0.11242844495E+03  0.24531728621E+03  0.17300000000E+03 0. -1.
<mgrwt>
<rscale>  2 0.21803765E+03</rscale>
<asrwt>0</asrwt>
<pdfrwt beam="1">  1       21 0.23753843E-01 0.21803765E+03</pdfrwt>
<pdfrwt beam="2">  1       21 0.48307555E-01 0.21803765E+03</pdfrwt>
<totfact> 0.67580104E+04</totfact>
</mgrwt>
</event>
<event>
 4    3  0.3906307E+000  0.2211510E+03  0.7546771E-02  0.1133028E+00
         21   -1    0    0  503  502  0.00000000000E+00  0.00000000000E+00  0.54039079023E+02  0.54039079023E+02  0.00000000000E+00 0.  1.
         21   -1    0    0  501  503 -0.00000000000E+00 -0.00000000000E+00 -0.95927571664E+03  0.95927571664E+03  0.00000000000E+00 0. -1.
          6    1    1    2  501    0  0.12030980428E+03 -0.67114246815E+02 -0.57308511095E+03  0.61427543946E+03  0.17300000000E+03 0. -1.
         -6    1    1    2    0  502 -0.12030980428E+03  0.67114246815E+02 -0.33215152667E+03  0.39903935621E+03  0.17300000000E+03 0.  1.
<mgrwt>
<rscale>  2 0.22115101E+03</rscale>
<asrwt>0</asrwt>
<pdfrwt beam="1">  1       21 0.83137043E-02 0.22115101E+03</pdfrwt>
<pdfrwt beam="2">  1       21 0.14758088E+00 0.22115101E+03</pdfrwt>
<totfact> 0.34424519E+04</totfact>
</mgrwt>
</event>
<event>
 4    3  0.3906307E+000  0.1835414E+03  0.7546771E-02  0.1164419E+00
         21   -1    0    0  503  502  0.00000000000E+00  0.00000000000E+00  0.64175855862E+03  0.64175855862E+03  0.00000000000E+00 0.  1.
         21   -1    0    0  501  503 -0.00000000000E+00 -0.00000000000E+00 -0.10574835218E+03  0.10574835218E+03  0.00000000000E+00 0. -1.
          6    1    1    2  501    0 -0.24078610721E+02 -0.56379593417E+02  0.27690568055E+01  0.18356226661E+03  0.17300000000E+03 0. -1.
         -6    1    1    2    0  502  0.24078610721E+02  0.56379593417E+02  0.53324114963E+03  0.56394464419E+03  0.17300000000E+03 0.  1.
<mgrwt>
<rscale>  2 0.18354138E+03</rscale>
<asrwt>0</asrwt>
<pdfrwt beam="1">  1       21 0.98732083E-01 0.18354138E+03</pdfrwt>
<pdfrwt beam="2">  1       21 0.16268978E-01 0.18354138E+03</pdfrwt>
<totfact> 0.28763465E+04</totfact>
</mgrwt>
</event>
<event>
 4    3  0.3906307E+000  0.2859904E+03  0.7546771E-02  0.1092461E+00
         21   -1    0    0  501  502  0.00000000000E+00  0.00000000000E+00  0.25504911113E+04  0.25504911113E+04  0.00000000000E+00 0. -1.
         21   -1    0    0  502  503 -0.00000000000E+00 -0.00000000000E+00 -0.36824388656E+02  0.36824388656E+02  0.00000000000E+00 0. -1.
          6    1    1    2  501    0 -0.51187521648E+02 -0.22190393472E+03  0.17217400246E+04  0.17453306939E+04  0.17300000000E+03 0. -1.
         -6    1    1    2    0  503  0.51187521648E+02  0.22190393472E+03  0.79192669799E+03  0.84198480604E+03  0.17300000000E+03 0. -1.
<mgrwt>
<rscale>  2 0.28599042E+03</rscale>
<asrwt>0</asrwt>
<pdfrwt beam="1">  1       21 0.39238311E+00 0.28599042E+03</pdfrwt>
<pdfrwt beam="2">  1       21 0.56652926E-02 0.28599042E+03</pdfrwt>
<totfact> 0.18915897E+03</totfact>
</mgrwt>
</event>
<event>
 4    3  0.3906307E+000  0.1759594E+03  0.7546771E-02  0.1171772E+00
         21   -1    0    0  503  502  0.00000000000E+00  0.00000000000E+00  0.50974128402E+03  0.50974128402E+03  0.00000000000E+00 0. -1.
         21   -1    0    0  501  503 -0.00000000000E+00 -0.00000000000E+00 -0.10559612194E+03  0.10559612194E+03  0.00000000000E+00 0. -1.
          6    1    1    2  501    0 -0.14475970400E+02  0.28690865793E+02  0.15469572091E+01  0.17596622567E+03  0.17300000000E+03 0. -1.
         -6    1    1    2    0  502  0.14475970400E+02 -0.28690865793E+02  0.40259820487E+03  0.43937118029E+03  0.17300000000E+03 0. -1.
<mgrwt>
<rscale>  2 0.17595943E+03</rscale>
<asrwt>0</asrwt>
<pdfrwt beam="1">  1       21 0.78421735E-01 0.17595943E+03</pdfrwt>
<pdfrwt beam="2">  1       21 0.16245558E-01 0.17595943E+03</pdfrwt>
<totfact> 0.49180931E+04</totfact>
</mgrwt>
</event>
<event>
 4    3  0.3906307E+000  0.2372949E+03  0.7546771E-02  0.1121608E+00
         21   -1    0    0  503  502  0.00000000000E+00  0.00000000000E+00  0.20374725407E+02  0.20374725407E+02  0.00000000000E+00 0.  1.
         21   -1    0    0  501  503 -0.00000000000E+00 -0.00000000000E+00 -0.30643671176E+04  0.30643671176E+04  0.00000000000E+00 0. -1.
          6    1    1    2  501    0  0.16145409377E+03 -0.17675495739E+02 -0.20051540945E+04  0.20191463023E+04  0.17300000000E+03 0.  1.
         -6    1    1    2    0  502 -0.16145409377E+03  0.17675495739E+02 -0.10388382977E+04  0.10655955406E+04  0.17300000000E+03 0. -1.
<mgrwt>
<rscale>  2 0.23729485E+03</rscale>
<asrwt>0</asrwt>
<pdfrwt beam="1">  1       21 0.31345740E-02 0.23729485E+03</pdfrwt>
<pdfrwt beam="2">  1       21 0.47144096E+00 0.23729485E+03</pdfrwt>
<totfact> 0.16508110E+03</totfact>
</mgrwt>
</event>
<event>
 4    3  0.3906307E+000  0.2755799E+03  0.7546771E-02  0.1098128E+00
         21   -1    0    0  503  502  0.00000000000E+00  0.00000000000E+00  0.11902014774E+03  0.11902014774E+03  0.00000000000E+00 0. -1.
         21   -1    0    0  501  503 -0.00000000000E+00 -0.00000000000E+00 -0.64237663804E+03  0.64237663804E+03  0.00000000000E+00 0.  1.
          6    1    1    2  501    0  0.20945309210E+03  0.46310763115E+02 -0.23054034481E+03  0.35929533139E+03  0.17300000000E+03 0. -1.
         -6    1    1    2    0  502 -0.20945309210E+03 -0.46310763115E+02 -0.29281614548E+03  0.40210145439E+03  0.17300000000E+03 0.  1.
<mgrwt>
<rscale>  2 0.27557991E+03</rscale>
<asrwt>0</asrwt>
<pdfrwt beam="1">  1       21 0.18310792E-01 0.27557991E+03</pdfrwt>
<pdfrwt beam="2">  1       21 0.98827177E-01 0.27557991E+03</pdfrwt>
<totfact> 0.21984518E+04</totfact>
</mgrwt>
</event>
<event>
 4    3  0.3906307E+000  0.1902871E+03  0.7546771E-02  0.1158203E+00
         21   -1    0    0  501  502  0.00000000000E+00  0.00000000000E+00  0.96579105292E+03  0.96579105292E+03  0.00000000000E+00 0. -1.
         21   -1    0    0  502  503 -0.00000000000E+00 -0.00000000000E+00 -0.41895393095E+02  0.41895393095E+02  0.00000000000E+00 0. -1.
          6    1    1    2  501    0  0.75929911656E+02  0.22689515261E+02  0.29859753151E+03  0.35407577072E+03  0.17300000000E+03 0. -1.
         -6    1    1    2    0  503 -0.75929911656E+02 -0.22689515261E+02  0.62529812831E+03  0.65361067529E+03  0.17300000000E+03 0. -1.
<mgrwt>
<rscale>  2 0.19028706E+03</rscale>
<asrwt>0</asrwt>
<pdfrwt beam="1">  1       21 0.14858322E+00 0.19028706E+03</pdfrwt>
<pdfrwt beam="2">  1       21 0.64454458E-02 0.19028706E+03</pdfrwt>
<totfact> 0.53510344E+04</totfact>
</mgrwt>
</event>
<event>
 4    3  0.3906307E+000  0.2822983E+03  0.7546771E-02  0.1094440E+00
         21   -1    0    0  501  502  0.00000000000E+00  0.00000000000E+00  0.17965237808E+04  0.17965237808E+04  0.00000000000E+00 0.  1.
         21   -1    0    0  502  503 -0.00000000000E+00 -0.00000000000E+00 -0.12513820245E+03  0.12513820245E+03  0.00000000000E+00 0. -1.
          6    1    1    2  501    0  0.20989985369E+03  0.75533875147E+02  0.16076644428E+04  0.16322613993E+04  0.17300000000E+03 0.  1.
         -6    1    1    2    0  503 -0.20989985369E+03 -0.75533875147E+02  0.63721135497E+02  0.28940058393E+03  0.17300000000E+03 0. -1.
<mgrwt>
<rscale>  2 0.28229827E+03</rscale>
<asrwt>0</asrwt>
<pdfrwt beam="1">  1       21 0.27638826E+00 0.28229827E+03</pdfrwt>
<pdfrwt beam="2">  1       21 0.19252032E-01 0.28229827E+03</pdfrwt>
<totfact> 0.10520093E+03</totfact>
</mgrwt>
</event>
<event>
 4    3  0.3906307E+000  0.1738284E+03  0.7546771E-02  0.1173913E+00
         21   -1    0    0  503  502  0.00000000000E+00  0.00000000000E+00  0.37354920142E+03  0.37354920142E+03  0.00000000000E+00 0.  1.
         21   -1    0    0  501  503 -0.00000000000E+00 -0.00000000000E+00 -0.15257604432E+03  0.15257604432E+03  0.00000000000E+00 0.  1.
          6    1    1    2  501    0  0.16719720995E+02  0.27864547663E+01 -0.69829286401E+02  0.18732976976E+03  0.17300000000E+03 0.  1.
         -6    1    1    2    0  502 -0.16719720995E+02 -0.27864547663E+01  0.29080244350E+03  0.33879547598E+03  0.17300000000E+03 0.  1.
<mgrwt>
<rscale>  2 0.17382840E+03</rscale>
<asrwt>0</asrwt>
<pdfrwt beam="1">  1       21 0.57469108E-01 0.17382840E+03</pdfrwt>
<pdfrwt beam="2">  1       21 0.23473238E-01 0.17382840E+03</pdfrwt>
<totfact> 0.48965838E+04</totfact>
</mgrwt>
</event>
<event>
 4    3  0.3906307E+000  0.1952983E+03  0.7546771E-02  0.1153768E+00
         21   -1    0    0  503  502  0.00000000000E+00  0.00000000000E+00  0.14131212958E+03  0.14131212958E+03  0.00000000000E+00 0. -1.
         21   -1    0    0  501  503 -0.00000000000E+00 -0.00000000000E+00 -0.27247421601E+03  0.27247421601E+03  0.00000000000E+00 0. -1.
          6    1    1    2  501    0  0.82420703481E+02  0.37672939983E+02 -0.85655376037E+02  0.21325633921E+03  0.17300000000E+03 0. -1.
         -6    1    1    2    0  502 -0.82420703481E+02 -0.37672939983E+02 -0.45506710388E+02  0.20053000638E+03  0.17300000000E+03 0. -1.
<mgrwt>
<rscale>  2 0.19529829E+03</rscale>
<asrwt>0</asrwt>
<pdfrwt beam="1">  1       21 0.21740328E-01 0.19529829E+03</pdfrwt>
<pdfrwt beam="2">  1       21 0.41919110E-01 0.19529829E+03</pdfrwt>
<totfact> 0.10802011E+05</totfact>
</mgrwt>
</event>
<event>
 4    3  0.3906307E+000  0.2064609E+03  0.7546771E-02  0.1144400E+00
         21   -1    0    0  501  502  0.00000000000E+00  0.00000000000E+00  0.45169533365E+03  0.45169533365E+03  0.00000000000E+00 0.  1.
         21   -1    0    0  502  503 -0.00000000000E+00 -0.00000000000E+00 -0.17684064865E+03  0.17684064865E+03  0.00000000000E+00 0. -1.
          6    1    1    2  501    0  0.32296598431E+02  0.10795382985E+03  0.35204283661E+03  0.40811794674E+03  0.17300000000E+03 0.  1.
         -6    1    1    2    0  503 -0.32296598431E+02 -0.10795382985E+03 -0.77188151603E+02  0.22041803555E+03  0.17300000000E+03 0. -1.
<mgrwt>
<rscale>  2 0.20646089E+03</rscale>
<asrwt>0</asrwt>
<pdfrwt beam="1">  1       21 0.69491590E-01 0.20646089E+03</pdfrwt>
<pdfrwt beam="2">  1       21 0.27206254E-01 0.20646089E+03</pdfrwt>
<totfact> 0.24056887E+04</totfact>
</mgrwt>
</event>
<event>
 4    3  0.3906307E+000  0.2042572E+03  0.7546771E-02  0.1146196E+00
         21   -1    0    0  501  502  0.00000000000E+00  0.00000000000E+00  0.10709680723E+03  0.10709680723E+03  0.00000000000E+00 0. -1.
         21   -1    0    0  502  503 -0.00000000000E+00 -0.00000000000E+00 -0.41003081432E+03  0.41003081432E+03  0.00000000000E+00 0.  1.
          6    1    1    2  501    0 -0.10350072692E+03  0.32857012223E+02 -0.93698351578E+02  0.22472286224E+03  0.17300000000E+03 0. -1.
         -6    1    1    2    0  503  0.10350072692E+03 -0.32857012223E+02 -0.20923565551E+03  0.29240475930E+03  0.17300000000E+03 0. -1.
<mgrwt>
<rscale>  2 0.20425715E+03</rscale>
<asrwt>0</asrwt>
<pdfrwt beam="1">  1       21 0.16476432E-01 0.20425715E+03</pdfrwt>
<pdfrwt beam="2">  1       21 0.63081663E-01 0.20425715E+03</pdfrwt>
<totfact> 0.76462600E+04</totfact>
</mgrwt>
</event>
<event>
 4    3  0.3906307E+000  0.1962887E+03  0.7546771E-02  0.1152909E+00
         21   -1    0    0  503  502  0.00000000000E+00  0.00000000000E+00  0.23254693902E+03  0.23254693902E+03  0.00000000000E+00 0.  1.
         21   -1    0    0  501  503 -0.00000000000E+00 -0.00000000000E+00 -0.39558206011E+03  0.39558206011E+03  0.00000000000E+00 0.  1.
          6    1    1    2  501    0  0.92219367387E+02 -0.97893500140E+01 -0.32094199356E+03  0.37620872708E+03  0.17300000000E+03 0.  1.
         -6    1    1    2    0  502 -0.92219367387E+02  0.97893500140E+01  0.15790687248E+03  0.25192027205E+03  0.17300000000E+03 0.  1.
<mgrwt>
<rscale>  2 0.19628867E+03</rscale>
<asrwt>0</asrwt>
<pdfrwt beam="1">  1       21 0.35776452E-01 0.19628867E+03</pdfrwt>
<pdfrwt beam="2">  1       21 0.60858779E-01 0.19628867E+03</pdfrwt>
<totfact> 0.18892054E+04</totfact>
</mgrwt>
</event>
<event>
 4    3  0.3906307E+000  0.2201257E+03  0.7546771E-02  0.1133789E+00
         21   -1    0    0  503  502  0.00000000000E+00  0.00000000000E+00  0.17281150796E+04  0.17281150796E+04  0.00000000000E+00 0.  1.
         21   -1    0    0  501  503 -0.00000000000E+00 -0.00000000000E+00 -0.37947629264E+02  0.37947629264E+02  0.00000000000E+00 0. -1.
          6    1    1    2  501    0 -0.17953063897E+02  0.13492230687E+03  0.39387091075E+03  0.45120908205E+03  0.17300000000E+03 0. -1.
         -6    1    1    2    0  502  0.17953063897E+02 -0.13492230687E+03  0.12962965396E+04  0.13148536268E+04  0.17300000000E+03 0.  1.
<mgrwt>
<rscale>  2 0.22012574E+03</rscale>
<asrwt>0</asrwt>
<pdfrwt beam="1">  1       21 0.26586380E+00 0.22012574E+03</pdfrwt>
<pdfrwt beam="2">  1       21 0.58380982E-02 0.22012574E+03</pdfrwt>
<totfact> 0.10817948E+04</totfact>
</mgrwt>
</event>
<event>
 4    3  0.3906307E+000  0.1788565E+03  0.7546771E-02  0.1168914E+00
         21   -1    0    0  501  502  0.00000000000E+00  0.00000000000E+00  0.13617904586E+03  0.13617904586E+03  0.00000000000E+00 0.  1.
         21   -1    0    0  502  503 -0.00000000000E+00 -0.00000000000E+00 -0.23501495906E+03  0.23501495906E+03  0.00000000000E+00 0.  1.
          6    1    1    2  501    0 -0.99242289340E+00 -0.45383657033E+02 -0.53361866011E+02  0.18664712688E+03  0.17300000000E+03 0.  1.
         -6    1    1    2    0  503  0.99242289340E+00  0.45383657033E+02 -0.45474047191E+02  0.18454687805E+03  0.17300000000E+03 0.  1.
<mgrwt>
<rscale>  2 0.17885654E+03</rscale>
<asrwt>0</asrwt>
<pdfrwt beam="1">  1       21 0.20950623E-01 0.17885654E+03</pdfrwt>
<pdfrwt beam="2">  1       21 0.36156147E-01 0.17885654E+03</pdfrwt>
<totfact> 0.15678532E+05</totfact>
</mgrwt>
</event>
<event>
 4    3  0.3906307E+000  0.1906319E+03  0.7546771E-02  0.1157893E+00
         21   -1    0    0  501  502  0.00000000000E+00  0.00000000000E+00  0.97977792708E+02  0.97977792708E+02  0.00000000000E+00 0. -1.
         21   -1    0    0  502  503 -0.00000000000E+00 -0.00000000000E+00 -0.41738182979E+03  0.41738182979E+03  0.00000000000E+00 0. -1.
          6    1    1    2  501    0 -0.37149771993E+02  0.70932492442E+02 -0.73715870368E+02  0.20438824229E+03  0.17300000000E+03 0. -1.
         -6    1    1    2    0  503  0.37149771993E+02 -0.70932492442E+02 -0.24568816671E+03  0.31097138020E+03  0.17300000000E+03 0. -1.
<mgrwt>
<rscale>  2 0.19063191E+03</rscale>
<asrwt>0</asrwt>
<pdfrwt beam="1">  1       21 0.15073507E-01 0.19063191E+03</pdfrwt>
<pdfrwt beam="2">  1       21 0.64212589E-01 0.19063191E+03</pdfrwt>
<totfact> 0.87088957E+04</totfact>
</mgrwt>
</event>
<event>
 4    3  0.3906307E+000  0.1804040E+03  0.7546771E-02  0.1167413E+00
         21   -1    0    0  501  502  0.00000000000E+00  0.00000000000E+00  0.46487399658E+02  0.46487399658E+02  0.00000000000E+00 0.  1.
         21   -1    0    0  502  503 -0.00000000000E+00 -0.00000000000E+00 -0.91649311326E+03  0.91649311326E+03  0.00000000000E+00 0.  1.
          6    1    1    2  501    0  0.50304045876E+02 -0.92802249798E+01 -0.20103880878E+03  0.27011520180E+03  0.17300000000E+03 0.  1.
         -6    1    1    2    0  503 -0.50304045876E+02  0.92802249798E+01 -0.66896690482E+03  0.69286531112E+03  0.17300000000E+03 0.  1.
<mgrwt>
<rscale>  2 0.18040405E+03</rscale>
<asrwt>0</asrwt>
<pdfrwt beam="1">  1       21 0.71519073E-02 0.18040405E+03</pdfrwt>
<pdfrwt beam="2">  1       21 0.14099895E+00 0.18040405E+03</pdfrwt>
<totfact> 0.51547640E+04</totfact>
</mgrwt>
</event>
<event>
 4    3  0.3906307E+000  0.1859957E+03  0.7546771E-02  0.1162123E+00
         21   -1    0    0  503  502  0.00000000000E+00  0.00000000000E+00  0.23005385196E+02  0.23005385196E+02  0.00000000000E+00 0.  1.
         21   -1    0    0  501  503 -0.00000000000E+00 -0.00000000000E+00 -0.15053304707E+04  0.15053304707E+04  0.00000000000E+00 0. -1.
          6    1    1    2  501    0  0.44673607759E+02  0.51668719229E+02 -0.71641521272E+03  0.74016561984E+03  0.17300000000E+03 0. -1.
         -6    1    1    2    0  502 -0.44673607759E+02 -0.51668719229E+02 -0.76590987279E+03  0.78817023606E+03  0.17300000000E+03 0.  1.
<mgrwt>
<rscale>  2 0.18599567E+03</rscale>
<asrwt>0</asrwt>
<pdfrwt beam="1">  1       21 0.35392908E-02 0.18599567E+03</pdfrwt>
<pdfrwt beam="2">  1       21 0.23158926E+00 0.18599567E+03</pdfrwt>
<totfact> 0.41337010E+04</totfact>
</mgrwt>
</event>
<event>
 4    3  0.3906307E+000  0.1875187E+03  0.7546771E-02  0.1160719E+00
         21   -1    0    0  501  502  0.00000000000E+00  0.00000000000E+00  0.12094896199E+03  0.12094896199E+03  0.00000000000E+00 0.  1.
         21   -1    0    0  502  503 -0.00000000000E+00 -0.00000000000E+00 -0.62477318423E+03  0.62477318423E+03  0.00000000000E+00 0.  1.
          6    1    1    2  501    0  0.58073863515E+02 -0.43147171739E+02  0.20727183968E+02  0.18866072248E+03  0.17300000000E+03 0.  1.
         -6    1    1    2    0  503 -0.58073863515E+02  0.43147171739E+02 -0.52455140622E+03  0.55706142374E+03  0.17300000000E+03 0.  1.
<mgrwt>
<rscale>  2 0.18751867E+03</rscale>
<asrwt>0</asrwt>
<pdfrwt beam="1">  1       21 0.18607533E-01 0.18751867E+03</pdfrwt>
<pdfrwt beam="2">  1       21 0.96118949E-01 0.18751867E+03</pdfrwt>
<totfact> 0.23867249E+04</totfact>
</mgrwt>
</event>
<event>
 4    3  0.3906307E+000  0.1884360E+03  0.7546771E-02  0.1159880E+00
         21   -1    0    0  503  502  0.00000000000E+00  0.00000000000E+00  0.47890445029E+03  0.47890445029E+03  0.00000000000E+00 0. -1.
         21   -1    0    0  501  503 -0.00000000000E+00 -0.00000000000E+00 -0.97732331363E+02  0.97732331363E+02  0.00000000000E+00 0. -1.
          6    1    1    2  501    0 -0.73792123545E+02 -0.11570027350E+02  0.33222967118E+03  0.38194855340E+03  0.17300000000E+03 0. -1.
         -6    1    1    2    0  502  0.73792123545E+02  0.11570027350E+02  0.48942447748E+02  0.19468822826E+03  0.17300000000E+03 0. -1.
<mgrwt>
<rscale>  2 0.18843604E+03</rscale>
<asrwt>0</asrwt>
<pdfrwt beam="1">  1       21 0.73677606E-01 0.18843604E+03</pdfrwt>
<pdfrwt beam="2">  1       21 0.15035744E-01 0.18843604E+03</pdfrwt>
<totfact> 0.64733957E+04</totfact>
</mgrwt>
</event>
<event>
 4    3  0.3906307E+000  0.2910186E+03  0.7546771E-02  0.1089819E+00
         21   -1    0    0  503  502  0.00000000000E+00  0.00000000000E+00  0.18952254752E+04  0.18952254752E+04  0.00000000000E+00 0.  1.
         21   -1    0    0  501  503 -0.00000000000E+00 -0.00000000000E+00 -0.46234990807E+02  0.46234990807E+02  0.00000000000E+00 0. -1.
          6    1    1    2  501    0  0.21716090792E+03  0.87200824023E+02  0.74687005497E+03  0.80156517056E+03  0.17300000000E+03 0.  1.
         -6    1    1    2    0  502 -0.21716090792E+03 -0.87200824023E+02  0.11021204294E+04  0.11398952955E+04  0.17300000000E+03 0. -1.
<mgrwt>
<rscale>  2 0.29101863E+03</rscale>
<asrwt>0</asrwt>
<pdfrwt beam="1">  1       21 0.29157309E+00 0.29101863E+03</pdfrwt>
<pdfrwt beam="2">  1       21 0.71130770E-02 0.29101863E+03</pdfrwt>
<totfact> 0.51301484E+03</totfact>
</mgrwt>
</event>
<event>
 4    3  0.3906307E+000  0.1743263E+03  0.7546771E-02  0.1173410E+00
         21   -1    0    0  501  502  0.00000000000E+00  0.00000000000E+00  0.18434062708E+03  0.18434062708E+03  0.00000000000E+00 0. -1.
         21   -1    0    0  502  503 -0.00000000000E+00 -0.00000000000E+00 -0.23754028037E+03  0.23754028037E+03  0.00000000000E+00 0. -1.
          6    1    1    2  501    0 -0.21461951549E+02 -0.20816579094E+00  0.90084221133E+02  0.19622646507E+03  0.17300000000E+03 0. -1.
         -6    1    1    2    0  503  0.21461951549E+02  0.20816579094E+00 -0.14328387443E+03  0.22565444238E+03  0.17300000000E+03 0. -1.
<mgrwt>
<rscale>  2 0.17432630E+03</rscale>
<asrwt>0</asrwt>
<pdfrwt beam="1">  1       21 0.28360096E-01 0.17432630E+03</pdfrwt>
<pdfrwt beam="2">  1       21 0.36544659E-01 0.17432630E+03</pdfrwt>
<totfact> 0.86462617E+04</totfact>
</mgrwt>
</event>
<event>
 4    3  0.3906307E+000  0.2145695E+03  0.7546771E-02  0.1137998E+00
         21   -1    0    0  501  502  0.00000000000E+00  0.00000000000E+00  0.73261127403E+03  0.73261127403E+03  0.00000000000E+00 0.  1.
         21   -1    0    0  502  503 -0.00000000000E+00 -0.00000000000E+00 -0.77466397425E+02  0.77466397425E+02  0.00000000000E+00 0.  1.
          6    1    1    2  501    0 -0.49000195524E+02  0.11709001736E+03  0.50354783185E+03  0.54735775347E+03  0.17300000000E+03 0.  1.
         -6    1    1    2    0  503  0.49000195524E+02 -0.11709001736E+03  0.15159704476E+03  0.26271991798E+03  0.17300000000E+03 0.  1.
<mgrwt>
<rscale>  2 0.21456955E+03</rscale>
<asrwt>0</asrwt>
<pdfrwt beam="1">  1       21 0.11270942E+00 0.21456955E+03</pdfrwt>
<pdfrwt beam="2">  1       21 0.11917908E-01 0.21456955E+03</pdfrwt>
<totfact> 0.36136454E+04</totfact>
</mgrwt>
</event>
<event>
 4    3  0.3906307E+000  0.2036323E+03  0.7546771E-02  0.1146710E+00
         21   -1    0    0  503  502  0.00000000000E+00  0.00000000000E+00  0.45208086328E+03  0.45208086328E+03  0.00000000000E+00 0.  1.
         21   -1    0    0  501  503 -0.00000000000E+00 -0.00000000000E+00 -0.93472742531E+02  0.93472742531E+02  0.00000000000E+00 0.  1.
          6    1    1    2  501    0 -0.10578557268E+03 -0.18614763213E+02  0.14198042657E+03  0.24824290186E+03  0.17300000000E+03 0. -1.
         -6    1    1    2    0  502  0.10578557268E+03  0.18614763213E+02  0.21662769418E+03  0.29731070395E+03  0.17300000000E+03 0. -1.
<mgrwt>
<rscale>  2 0.20363226E+03</rscale>
<asrwt>0</asrwt>
<pdfrwt beam="1">  1       21 0.69550901E-01 0.20363226E+03</pdfrwt>
<pdfrwt beam="2">  1       21 0.14380422E-01 0.20363226E+03</pdfrwt>
<totfact> 0.79216641E+04</totfact>
</mgrwt>
</event>
<event>
 4    3  0.3906307E+000  0.2009193E+03  0.7546771E-02  0.1148966E+00
         21   -1    0    0  501  502  0.00000000000E+00  0.00000000000E+00  0.24310124213E+03  0.24310124213E+03  0.00000000000E+00 0.  1.
         21   -1    0    0  502  503 -0.00000000000E+00 -0.00000000000E+00 -0.16678141028E+03  0.16678141028E+03  0.00000000000E+00 0.  1.
          6    1    1    2  501    0 -0.10046099394E+03  0.18631942476E+02  0.51670503160E+02  0.20745698706E+03  0.17300000000E+03 0.  1.
         -6    1    1    2    0  503  0.10046099394E+03 -0.18631942476E+02  0.24649328688E+02  0.20242566534E+03  0.17300000000E+03 0.  1.
<mgrwt>
<rscale>  2 0.20091929E+03</rscale>
<asrwt>0</asrwt>
<pdfrwt beam="1">  1       21 0.37400191E-01 0.20091929E+03</pdfrwt>
<pdfrwt beam="2">  1       21 0.25658678E-01 0.20091929E+03</pdfrwt>
<totfact> 0.99039140E+04</totfact>
</mgrwt>
</event>
<event>
 4    3  0.3906307E+000  0.2248487E+03  0.7546771E-02  0.1130319E+00
         21   -1    0    0  503  502  0.00000000000E+00  0.00000000000E+00  0.18989679002E+03  0.18989679002E+03  0.00000000000E+00 0. -1.
         21   -1    0    0  501  503 -0.00000000000E+00 -0.00000000000E+00 -0.27980024685E+03  0.27980024685E+03  0.00000000000E+00 0. -1.
          6    1    1    2  501    0  0.33473383845E+02  0.13966921572E+03 -0.96664250785E+02  0.24474667439E+03  0.17300000000E+03 0. -1.
         -6    1    1    2    0  502 -0.33473383845E+02 -0.13966921572E+03  0.67607939627E+01  0.22495036248E+03  0.17300000000E+03 0. -1.
<mgrwt>
<rscale>  2 0.22484874E+03</rscale>
<asrwt>0</asrwt>
<pdfrwt beam="1">  1       21 0.29214891E-01 0.22484874E+03</pdfrwt>
<pdfrwt beam="2">  1       21 0.43046192E-01 0.22484874E+03</pdfrwt>
<totfact> 0.57386235E+04</totfact>
</mgrwt>
</event>
<event>
 4    3  0.3906307E+000  0.2212415E+03  0.7546771E-02  0.1132961E+00
         21   -1    0    0  503  502  0.00000000000E+00  0.00000000000E+00  0.28917900277E+03  0.28917900277E+03  0.00000000000E+00 0. -1.
         21   -1    0    0  501  503 -0.00000000000E+00 -0.00000000000E+00 -0.17529843127E+03  0.17529843127E+03  0.00000000000E+00 0.  1.
          6    1    1    2  501    0 -0.65153467498E+02  0.12154763418E+03  0.13854102508E+02  0.22167484715E+03  0.17300000000E+03 0. -1.
         -6    1    1    2    0  502  0.65153467498E+02 -0.12154763418E+03  0.10002646899E+03  0.24280258689E+03  0.17300000000E+03 0. -1.
<mgrwt>
<rscale>  2 0.22124150E+03</rscale>
<asrwt>0</asrwt>
<pdfrwt beam="1">  1       21 0.44489077E-01 0.22124150E+03</pdfrwt>
<pdfrwt beam="2">  1       21 0.26968989E-01 0.22124150E+03</pdfrwt>
<totfact> 0.62734555E+04</totfact>
</mgrwt>
</event>
<event>
 4    3  0.3906307E+000  0.2557017E+03  0.7546771E-02  0.1109754E+00
         21   -1    0    0  501  502  0.00000000000E+00  0.00000000000E+00  0.93098806385E+02  0.93098806385E+02  0.00000000000E+00 0.  1.
         21   -1    0    0  502  503 -0.00000000000E+00 -0.00000000000E+00 -0.70846337463E+03  0.70846337463E+03  0.00000000000E+00 0. -1.
          6    1    1    2  501    0  0.45151360613E+02  0.18279969070E+03 -0.27030331540E+03  0.37208500991E+03  0.17300000000E+03 0.  1.
         -6    1    1    2    0  503 -0.45151360613E+02 -0.18279969070E+03 -0.34506125285E+03  0.42947717111E+03  0.17300000000E+03 0.  1.
<mgrwt>
<rscale>  2 0.25570173E+03</rscale>
<asrwt>0</asrwt>
<pdfrwt beam="1">  1       21 0.14322894E-01 0.25570173E+03</pdfrwt>
<pdfrwt beam="2">  1       21 0.10899436E+00 0.25570173E+03</pdfrwt>
<totfact> 0.27553053E+04</totfact>
</mgrwt>
</event>
<event>
 4    3  0.3906307E+000  0.2219967E+03  0.7546771E-02  0.1132403E+00
         21   -1    0    0  501  502  0.00000000000E+00  0.00000000000E+00  0.19012135002E+04  0.19012135002E+04  0.00000000000E+00 0.  1.
         21   -1    0    0  502  503 -0.00000000000E+00 -0.00000000000E+00 -0.33225567913E+02  0.33225567913E+02  0.00000000000E+00 0.  1.
          6    1    1    2  501    0 -0.11482926786E+03  0.78535244774E+02  0.13874837480E+04  0.14051312025E+04  0.17300000000E+03 0.  1.
         -6    1    1    2    0  503  0.11482926786E+03 -0.78535244774E+02  0.48050418432E+03  0.52930786559E+03  0.17300000000E+03 0.  1.
<mgrwt>
<rscale>  2 0.22199672E+03</rscale>
<asrwt>0</asrwt>
<pdfrwt beam="1">  1       21 0.29249430E+00 0.22199672E+03</pdfrwt>
<pdfrwt beam="2">  1       21 0.51116273E-02 0.22199672E+03</pdfrwt>
<totfact> 0.94850412E+03</totfact>
</mgrwt>
</event>
<event>
 4    3  0.3906307E+000  0.3772814E+03  0.7546771E-02  0.1051943E+00
         21   -1    0    0  503  502  0.00000000000E+00  0.00000000000E+00  0.99886182460E+03  0.99886182460E+03  0.00000000000E+00 0. -1.
         21   -1    0    0  501  503 -0.00000000000E+00 -0.00000000000E+00 -0.23050035752E+03  0.23050035752E+03  0.00000000000E+00 0. -1.
          6    1    1    2  501    0 -0.54994614579E+02  0.33073838183E+03  0.43870953574E+01  0.37730694594E+03  0.17300000000E+03 0. -1.
         -6    1    1    2    0  502  0.54994614579E+02 -0.33073838183E+03  0.76397437173E+03  0.85205523618E+03  0.17300000000E+03 0. -1.
<mgrwt>
<rscale>  2 0.37728144E+03</rscale>
<asrwt>0</asrwt>
<pdfrwt beam="1">  1       21 0.15367105E+00 0.37728144E+03</pdfrwt>
<pdfrwt beam="2">  1       21 0.35461594E-01 0.37728144E+03</pdfrwt>
<totfact> 0.18962114E+03</totfact>
</mgrwt>
</event>
<event>
 4    3  0.3906307E+000  0.2714920E+03  0.7546771E-02  0.1100429E+00
         21   -1    0    0  501  502  0.00000000000E+00  0.00000000000E+00  0.31079254724E+03  0.31079254724E+03  0.00000000000E+00 0.  1.
         21   -1    0    0  502  503 -0.00000000000E+00 -0.00000000000E+00 -0.24603620703E+03  0.24603620703E+03  0.00000000000E+00 0.  1.
          6    1    1    2  501    0 -0.19134829650E+03  0.84644790974E+02 -0.20500223177E+02  0.27226489006E+03  0.17300000000E+03 0.  1.
         -6    1    1    2    0  503  0.19134829650E+03 -0.84644790974E+02  0.85256563391E+02  0.28456386421E+03  0.17300000000E+03 0.  1.
<mgrwt>
<rscale>  2 0.27149201E+03</rscale>
<asrwt>0</asrwt>
<pdfrwt beam="1">  1       21 0.47814238E-01 0.27149201E+03</pdfrwt>
<pdfrwt beam="2">  1       21 0.37851724E-01 0.27149201E+03</pdfrwt>
<totfact> 0.27080803E+04</totfact>
</mgrwt>
</event>
<event>
 4    3  0.3906307E+000  0.2341705E+03  0.7546771E-02  0.1123738E+00
         21   -1    0    0  501  502  0.00000000000E+00  0.00000000000E+00  0.17515808833E+03  0.17515808833E+03  0.00000000000E+00 0.  1.
         21   -1    0    0  502  503 -0.00000000000E+00 -0.00000000000E+00 -0.49910686877E+03  0.49910686877E+03  0.00000000000E+00 0.  1.
          6    1    1    2  501    0 -0.13143251857E+03 -0.87363223051E+02  0.43855929326E+02  0.23824185656E+03  0.17300000000E+03 0.  1.
         -6    1    1    2    0  503  0.13143251857E+03  0.87363223051E+02 -0.36780470977E+03  0.43602310054E+03  0.17300000000E+03 0.  1.
<mgrwt>
<rscale>  2 0.23417054E+03</rscale>
<asrwt>0</asrwt>
<pdfrwt beam="1">  1       21 0.26947399E-01 0.23417054E+03</pdfrwt>
<pdfrwt beam="2">  1       21 0.76785671E-01 0.23417054E+03</pdfrwt>
<totfact> 0.19320337E+04</totfact>
</mgrwt>
</event>
<event>
 4    3  0.3906307E+000  0.1840654E+03  0.7546771E-02  0.1163925E+00
         21   -1    0    0  503  502  0.00000000000E+00  0.00000000000E+00  0.13154125340E+03  0.13154125340E+03  0.00000000000E+00 0. -1.
         21   -1    0    0  501  503 -0.00000000000E+00 -0.00000000000E+00 -0.35252411087E+03  0.35252411087E+03  0.00000000000E+00 0. -1.
          6    1    1    2  501    0 -0.35653114054E+02  0.51768176323E+02 -0.23610996599E+03  0.29937936579E+03  0.17300000000E+03 0. -1.
         -6    1    1    2    0  502  0.35653114054E+02 -0.51768176323E+02  0.15127108526E+02  0.18468599848E+03  0.17300000000E+03 0. -1.
<mgrwt>
<rscale>  2 0.18406545E+03</rscale>
<asrwt>0</asrwt>
<pdfrwt beam="1">  1       21 0.20237116E-01 0.18406545E+03</pdfrwt>
<pdfrwt beam="2">  1       21 0.54234478E-01 0.18406545E+03</pdfrwt>
<totfact> 0.72811280E+04</totfact>
</mgrwt>
</event>
<event>
 4    3  0.3906307E+000  0.3226437E+03  0.7546771E-02  0.1074439E+00
         21   -1    0    0  503  502  0.00000000000E+00  0.00000000000E+00  0.14404576723E+04  0.14404576723E+04  0.00000000000E+00 0.  1.
         21   -1    0    0  501  503 -0.00000000000E+00 -0.00000000000E+00 -0.21082945248E+03  0.21082945248E+03  0.00000000000E+00 0. -1.
          6    1    1    2  501    0  0.21789565583E+03  0.16337508926E+03 -0.54528134701E+02  0.32721896964E+03  0.17300000000E+03 0. -1.
         -6    1    1    2    0  502 -0.21789565583E+03 -0.16337508926E+03  0.12841563546E+04  0.13240681552E+04  0.17300000000E+03 0.  1.
<mgrwt>
<rscale>  2 0.32264367E+03</rscale>
<asrwt>0</asrwt>
<pdfrwt beam="1">  1       21 0.22160887E+00 0.32264367E+03</pdfrwt>
<pdfrwt beam="2">  1       21 0.32435301E-01 0.32264367E+03</pdfrwt>
<totfact> 0.79860970E+02</totfact>
</mgrwt>
</event>
<event>
 4    3  0.3906307E+000  0.2230097E+03  0.7546771E-02  0.1131659E+00
         21   -1    0    0  503  502  0.00000000000E+00  0.00000000000E+00  0.53931200807E+03  0.53931200807E+03  0.00000000000E+00 0.  1.
         21   -1    0    0  501  503 -0.00000000000E+00 -0.00000000000E+00 -0.16000366041E+03  0.16000366041E+03  0.00000000000E+00 0. -1.
          6    1    1    2  501    0 -0.14001790815E+03 -0.14118431880E+02 -0.37935599979E+02  0.22621329419E+03  0.17300000000E+03 0. -1.
         -6    1    1    2    0  502  0.14001790815E+03  0.14118431880E+02  0.41724394764E+03  0.47310237429E+03  0.17300000000E+03 0.  1.
<mgrwt>
<rscale>  2 0.22300974E+03</rscale>
<asrwt>0</asrwt>
<pdfrwt beam="1">  1       21 0.82971077E-01 0.22300974E+03</pdfrwt>
<pdfrwt beam="2">  1       21 0.24615948E-01 0.22300974E+03</pdfrwt>
<totfact> 0.19401677E+04</totfact>
</mgrwt>
</event>
<event>
 4    3  0.3906307E+000  0.1985490E+03  0.7546771E-02  0.1150969E+00
         21   -1    0    0  503  502  0.00000000000E+00  0.00000000000E+00  0.28809675979E+02  0.28809675979E+02  0.00000000000E+00 0. -1.
         21   -1    0    0  501  503 -0.00000000000E+00 -0.00000000000E+00 -0.18768432529E+04  0.18768432529E+04  0.00000000000E+00 0. -1.
          6    1    1    2  501    0 -0.83658662670E+02  0.49939469094E+02 -0.14199719024E+04  0.14337858718E+04  0.17300000000E+03 0. -1.
         -6    1    1    2    0  502  0.83658662670E+02 -0.49939469094E+02 -0.42806167451E+03  0.47186705712E+03  0.17300000000E+03 0. -1.
<mgrwt>
<rscale>  2 0.19854904E+03</rscale>
<asrwt>0</asrwt>
<pdfrwt beam="1">  1       21 0.44322585E-02 0.19854904E+03</pdfrwt>
<pdfrwt beam="2">  1       21 0.28874507E+00 0.19854904E+03</pdfrwt>
<totfact> 0.12990168E+04</totfact>
</mgrwt>
</event>
<event>
 4    3  0.3906307E+000  0.2240415E+03  0.7546771E-02  0.1130905E+00
         21   -1    0    0  501  502  0.00000000000E+00  0.00000000000E+00  0.10113860288E+04  0.10113860288E+04  0.00000000000E+00 0.  1.
         21   -1    0    0  502  503 -0.00000000000E+00 -0.00000000000E+00 -0.72775852887E+02  0.72775852887E+02  0.00000000000E+00 0. -1.
          6    1    1    2  501    0 -0.14233504108E+03  0.25158744796E+01  0.77501651525E+03  0.80674977065E+03  0.17300000000E+03 0.  1.
         -6    1    1    2    0  503  0.14233504108E+03 -0.25158744796E+01  0.16359366069E+03  0.27741211106E+03  0.17300000000E+03 0. -1.
<mgrwt>
<rscale>  2 0.22404150E+03</rscale>
<asrwt>0</asrwt>
<pdfrwt beam="1">  1       21 0.15559784E+00 0.22404150E+03</pdfrwt>
<pdfrwt beam="2">  1       21 0.11196286E-01 0.22404150E+03</pdfrwt>
<totfact> 0.17640919E+04</totfact>
</mgrwt>
</event>
<event>
 4    3  0.3906307E+000  0.2144196E+03  0.7546771E-02  0.1138113E+00
         21   -1    0    0  503  502  0.00000000000E+00  0.00000000000E+00  0.79598475153E+03  0.79598475153E+03  0.00000000000E+00 0. -1.
         21   -1    0    0  501  503 -0.00000000000E+00 -0.00000000000E+00 -0.59994953698E+02  0.59994953698E+02  0.00000000000E+00 0. -1.
          6    1    1    2  501    0 -0.65431443619E+02  0.10846893238E+03  0.28538225509E+03  0.35695772106E+03  0.17300000000E+03 0. -1.
         -6    1    1    2    0  502  0.65431443619E+02 -0.10846893238E+03  0.45060754274E+03  0.49902198417E+03  0.17300000000E+03 0. -1.
<mgrwt>
<rscale>  2 0.21441964E+03</rscale>
<asrwt>0</asrwt>
<pdfrwt beam="1">  1       21 0.12245919E+00 0.21441964E+03</pdfrwt>
<pdfrwt beam="2">  1       21 0.92299934E-02 0.21441964E+03</pdfrwt>
<totfact> 0.46382291E+04</totfact>
</mgrwt>
</event>
<event>
 4    3  0.3906307E+000  0.2241504E+03  0.7546771E-02  0.1130826E+00
         21   -1    0    0  501  502  0.00000000000E+00  0.00000000000E+00  0.70979218089E+02  0.70979218089E+02  0.00000000000E+00 0.  1.
         21   -1    0    0  502  503 -0.00000000000E+00 -0.00000000000E+00 -0.73610807018E+03  0.73610807018E+03  0.00000000000E+00 0. -1.
          6    1    1    2  501    0  0.40002946078E+02 -0.13679967948E+03 -0.41161589129E+03  0.46869076155E+03  0.17300000000E+03 0. -1.
         -6    1    1    2    0  503 -0.40002946078E+02  0.13679967948E+03 -0.25351296080E+03  0.33839652672E+03  0.17300000000E+03 0. -1.
<mgrwt>
<rscale>  2 0.22415037E+03</rscale>
<asrwt>0</asrwt>
<pdfrwt beam="1">  1       21 0.10919880E-01 0.22415037E+03</pdfrwt>
<pdfrwt beam="2">  1       21 0.11324740E+00 0.22415037E+03</pdfrwt>
<totfact> 0.41560349E+04</totfact>
</mgrwt>
</event>
<event>
 4    3  0.3906307E+000  0.1905781E+03  0.7546771E-02  0.1157941E+00
         21   -1    0    0  501  502  0.00000000000E+00  0.00000000000E+00  0.67730735986E+03  0.67730735986E+03  0.00000000000E+00 0.  1.
         21   -1    0    0  502  503 -0.00000000000E+00 -0.00000000000E+00 -0.25335856450E+03  0.25335856450E+03  0.00000000000E+00 0. -1.
          6    1    1    2  501    0 -0.70260461573E+02 -0.38137873422E+02  0.62513839955E+03  0.65354269061E+03  0.17300000000E+03 0.  1.
         -6    1    1    2    0  503  0.70260461573E+02  0.38137873422E+02 -0.20118960419E+03  0.27712323375E+03  0.17300000000E+03 0. -1.
<mgrwt>
<rscale>  2 0.19057815E+03</rscale>
<asrwt>0</asrwt>
<pdfrwt beam="1">  1       21 0.10420113E+00 0.19057815E+03</pdfrwt>
<pdfrwt beam="2">  1       21 0.38978241E-01 0.19057815E+03</pdfrwt>
<totfact> 0.47303664E+03</totfact>
</mgrwt>
</event>
<event>
 4    3  0.3906307E+000  0.2473580E+03  0.7546771E-02  0.1114986E+00
         21   -1    0    0  503  502  0.00000000000E+00  0.00000000000E+00  0.17447126707E+04  0.17447126707E+04  0.00000000000E+00 0.  1.
         21   -1    0    0  501  503 -0.00000000000E+00 -0.00000000000E+00 -0.40138014473E+02  0.40138014473E+02  0.00000000000E+00 0.  1.
          6    1    1    2  501    0 -0.10463662473E+03 -0.14250663013E+03  0.53515527071E+03  0.58955672046E+03  0.17300000000E+03 0.  1.
         -6    1    1    2    0  502  0.10463662473E+03  0.14250663013E+03  0.11694193855E+04  0.11952939647E+04  0.17300000000E+03 0.  1.
<mgrwt>
<rscale>  2 0.24735797E+03</rscale>
<asrwt>0</asrwt>
<pdfrwt beam="1">  1       21 0.26841727E+00 0.24735797E+03</pdfrwt>
<pdfrwt beam="2">  1       21 0.61750805E-02 0.24735797E+03</pdfrwt>
<totfact> 0.92761982E+03</totfact>
</mgrwt>
</event>
<event>
 4    3  0.3906307E+000  0.1897751E+03  0.7546771E-02  0.1158664E+00
         21   -1    0    0  501  502  0.00000000000E+00  0.00000000000E+00  0.28457195185E+03  0.28457195185E+03  0.00000000000E+00 0. -1.
         21   -1    0    0  502  503 -0.00000000000E+00 -0.00000000000E+00 -0.17000532811E+03  0.17000532811E+03  0.00000000000E+00 0. -1.
          6    1    1    2  501    0  0.44295387091E+02  0.64214559962E+02  0.17218665721E+03  0.25624760672E+03  0.17300000000E+03 0. -1.
         -6    1    1    2    0  503 -0.44295387091E+02 -0.64214559962E+02 -0.57620033480E+02  0.19832967324E+03  0.17300000000E+03 0. -1.
<mgrwt>
<rscale>  2 0.18977511E+03</rscale>
<asrwt>0</asrwt>
<pdfrwt beam="1">  1       21 0.43780300E-01 0.18977511E+03</pdfrwt>
<pdfrwt beam="2">  1       21 0.26154666E-01 0.18977511E+03</pdfrwt>
<totfact> 0.69734821E+04</totfact>
</mgrwt>
</event>
<event>
 4    3  0.3906307E+000  0.2089840E+03  0.7546771E-02  0.1142373E+00
         21   -1    0    0  501  502  0.00000000000E+00  0.00000000000E+00  0.32054747390E+03  0.32054747390E+03  0.00000000000E+00 0. -1.
         21   -1    0    0  502  503 -0.00000000000E+00 -0.00000000000E+00 -0.26860569372E+03  0.26860569372E+03  0.00000000000E+00 0. -1.
          6    1    1    2  501    0 -0.96953421812E+02 -0.65919186563E+02  0.23275321000E+03  0.31280722805E+03  0.17300000000E+03 0. -1.
         -6    1    1    2    0  503  0.96953421812E+02  0.65919186563E+02 -0.18081142982E+03  0.27634593956E+03  0.17300000000E+03 0. -1.
<mgrwt>
<rscale>  2 0.20898398E+03</rscale>
<asrwt>0</asrwt>
<pdfrwt beam="1">  1       21 0.49314996E-01 0.20898398E+03</pdfrwt>
<pdfrwt beam="2">  1       21 0.41323953E-01 0.20898398E+03</pdfrwt>
<totfact> 0.21903838E+04</totfact>
</mgrwt>
</event>
<event>
 4    3  0.3906307E+000  0.1978264E+03  0.7546771E-02  0.1151586E+00
         21   -1    0    0  503  502  0.00000000000E+00  0.00000000000E+00  0.18468523814E+04  0.18468523814E+04  0.00000000000E+00 0.  1.
         21   -1    0    0  501  503 -0.00000000000E+00 -0.00000000000E+00 -0.32508830262E+02  0.32508830262E+02  0.00000000000E+00 0.  1.
          6    1    1    2  501    0  0.54279533011E+02 -0.79120177279E+02  0.35270503267E+03  0.40439598196E+03  0.17300000000E+03 0.  1.
         -6    1    1    2    0  502 -0.54279533011E+02  0.79120177279E+02  0.14616385184E+04  0.14749652297E+04  0.17300000000E+03 0.  1.
<mgrwt>
<rscale>  2 0.19782636E+03</rscale>
<asrwt>0</asrwt>
<pdfrwt beam="1">  1       21 0.28413105E+00 0.19782636E+03</pdfrwt>
<pdfrwt beam="2">  1       21 0.50013599E-02 0.19782636E+03</pdfrwt>
<totfact> 0.11267245E+04</totfact>
</mgrwt>
</event>
<event>
 4    3  0.3906307E+000  0.2615263E+03  0.7546771E-02  0.1106230E+00
         21   -1    0    0  501  502  0.00000000000E+00  0.00000000000E+00  0.62344579570E+03  0.62344579570E+03  0.00000000000E+00 0. -1.
         21   -1    0    0  502  503 -0.00000000000E+00 -0.00000000000E+00 -0.20072581450E+03  0.20072581450E+03  0.00000000000E+00 0. -1.
          6    1    1    2  501    0  0.15399771884E+02  0.19552456085E+03  0.48885361497E+03  0.55441308042E+03  0.17300000000E+03 0. -1.
         -6    1    1    2    0  503 -0.15399771884E+02 -0.19552456085E+03 -0.66133633777E+02  0.26975852978E+03  0.17300000000E+03 0. -1.
<mgrwt>
<rscale>  2 0.26152630E+03</rscale>
<asrwt>0</asrwt>
<pdfrwt beam="1">  1       21 0.95914737E-01 0.26152630E+03</pdfrwt>
<pdfrwt beam="2">  1       21 0.30880895E-01 0.26152630E+03</pdfrwt>
<totfact> 0.87320806E+03</totfact>
</mgrwt>
</event>
<event>
 4    3  0.3906307E+000  0.2101996E+03  0.7546771E-02  0.1141408E+00
         21   -1    0    0  503  502  0.00000000000E+00  0.00000000000E+00  0.37732861641E+03  0.37732861641E+03  0.00000000000E+00 0. -1.
         21   -1    0    0  501  503 -0.00000000000E+00 -0.00000000000E+00 -0.12359262277E+03  0.12359262277E+03  0.00000000000E+00 0.  1.
          6    1    1    2  501    0 -0.10768066787E+03  0.51572787934E+02  0.69447273082E+02  0.22137480080E+03  0.17300000000E+03 0.  1.
         -6    1    1    2    0  502  0.10768066787E+03 -0.51572787934E+02  0.18428872056E+03  0.27954643839E+03  0.17300000000E+03 0.  1.
<mgrwt>
<rscale>  2 0.21019962E+03</rscale>
<asrwt>0</asrwt>
<pdfrwt beam="1">  1       21 0.58050556E-01 0.21019962E+03</pdfrwt>
<pdfrwt beam="2">  1       21 0.19014250E-01 0.21019962E+03</pdfrwt>
<totfact> 0.69987434E+04</totfact>
</mgrwt>
</event>
<event>
 4    3  0.3906307E+000  0.2057729E+03  0.7546771E-02  0.1144958E+00
         21   -1    0    0  501  502  0.00000000000E+00  0.00000000000E+00  0.14391063655E+03  0.14391063655E+03  0.00000000000E+00 0.  1.
         21   -1    0    0  502  503 -0.00000000000E+00 -0.00000000000E+00 -0.31191474965E+03  0.31191474965E+03  0.00000000000E+00 0.  1.
          6    1    1    2  501    0 -0.68071291137E+02  0.88202980562E+02 -0.29729442439E+02  0.20790937017E+03  0.17300000000E+03 0.  1.
         -6    1    1    2    0  503  0.68071291137E+02 -0.88202980562E+02 -0.13827467067E+03  0.24791601603E+03  0.17300000000E+03 0.  1.
<mgrwt>
<rscale>  2 0.20577285E+03</rscale>
<asrwt>0</asrwt>
<pdfrwt beam="1">  1       21 0.22140098E-01 0.20577285E+03</pdfrwt>
<pdfrwt beam="2">  1       21 0.47986884E-01 0.20577285E+03</pdfrwt>
<totfact> 0.78711830E+04</totfact>
</mgrwt>
</event>
<event>
 4    3  0.3906307E+000  0.2062221E+03  0.7546771E-02  0.1144593E+00
         21   -1    0    0  503  502  0.00000000000E+00  0.00000000000E+00  0.20509667469E+03  0.20509667469E+03  0.00000000000E+00 0. -1.
         21   -1    0    0  501  503 -0.00000000000E+00 -0.00000000000E+00 -0.20769885966E+03  0.20769885966E+03  0.00000000000E+00 0.  1.
          6    1    1    2  501    0 -0.34074161714E+02  0.10694635352E+03 -0.97140133176E+01  0.20645080064E+03  0.17300000000E+03 0.  1.
         -6    1    1    2    0  502  0.34074161714E+02 -0.10694635352E+03  0.71118283415E+01  0.20634473371E+03  0.17300000000E+03 0. -1.
<mgrwt>
<rscale>  2 0.20622214E+03</rscale>
<asrwt>0</asrwt>
<pdfrwt beam="1">  1       21 0.31553334E-01 0.20622214E+03</pdfrwt>
<pdfrwt beam="2">  1       21 0.31953671E-01 0.20622214E+03</pdfrwt>
<totfact> 0.90431119E+04</totfact>
</mgrwt>
</event>
<event>
 4    3  0.3906307E+000  0.2522179E+03  0.7546771E-02  0.1111911E+00
         21   -1    0    0  503  502  0.00000000000E+00  0.00000000000E+00  0.87897031198E+02  0.87897031198E+02  0.00000000000E+00 0. -1.
         21   -1    0    0  501  503 -0.00000000000E+00 -0.00000000000E+00 -0.99162688746E+03  0.99162688746E+03  0.00000000000E+00 0.  1.
          6    1    1    2  501    0 -0.16332433858E+03  0.83725892957E+02 -0.73241514653E+03  0.77462623993E+03  0.17300000000E+03 0.  1.
         -6    1    1    2    0  502  0.16332433858E+03 -0.83725892957E+02 -0.17131470973E+03  0.30489767873E+03  0.17300000000E+03 0. -1.
<mgrwt>
<rscale>  2 0.25221789E+03</rscale>
<asrwt>0</asrwt>
<pdfrwt beam="1">  1       21 0.13522621E-01 0.25221789E+03</pdfrwt>
<pdfrwt beam="2">  1       21 0.15255798E+00 0.25221789E+03</pdfrwt>
<totfact> 0.13015171E+04</totfact>
</mgrwt>
</event>
<event>
 4    3  0.3906307E+000  0.1827956E+03  0.7546771E-02  0.1165125E+00
         21   -1    0    0  503  502  0.00000000000E+00  0.00000000000E+00  0.36573764361E+02  0.36573764361E+02  0.00000000000E+00 0.  1.
         21   -1    0    0  501  503 -0.00000000000E+00 -0.00000000000E+00 -0.91392277863E+03  0.91392277863E+03  0.00000000000E+00 0.  1.
          6    1    1    2  501    0  0.19290460571E+02 -0.55795122973E+02 -0.44744305974E+03  0.48334202106E+03  0.17300000000E+03 0.  1.
         -6    1    1    2    0  502 -0.19290460571E+02  0.55795122973E+02 -0.42990595453E+03  0.46715452193E+03  0.17300000000E+03 0.  1.
<mgrwt>
<rscale>  2 0.18279556E+03</rscale>
<asrwt>0</asrwt>
<pdfrwt beam="1">  1       21 0.56267330E-02 0.18279556E+03</pdfrwt>
<pdfrwt beam="2">  1       21 0.14060350E+00 0.18279556E+03</pdfrwt>
<totfact> 0.78246351E+04</totfact>
</mgrwt>
</event>
<event>
 4    3  0.3906307E+000  0.1806357E+03  0.7546771E-02  0.1167189E+00
         21   -1    0    0  503  502  0.00000000000E+00  0.00000000000E+00  0.10230560188E+03  0.10230560188E+03  0.00000000000E+00 0. -1.
         21   -1    0    0  501  503 -0.00000000000E+00 -0.00000000000E+00 -0.50505435214E+03  0.50505435214E+03  0.00000000000E+00 0.  1.
          6    1    1    2  501    0  0.10583685119E+02  0.50874933833E+02 -0.38572214624E+03  0.42592352293E+03  0.17300000000E+03 0.  1.
         -6    1    1    2    0  502 -0.10583685119E+02 -0.50874933833E+02 -0.17026604025E+02  0.18143643109E+03  0.17300000000E+03 0. -1.
<mgrwt>
<rscale>  2 0.18063575E+03</rscale>
<asrwt>0</asrwt>
<pdfrwt beam="1">  1       21 0.15739323E-01 0.18063575E+03</pdfrwt>
<pdfrwt beam="2">  1       21 0.77700669E-01 0.18063575E+03</pdfrwt>
<totfact> 0.53077946E+04</totfact>
</mgrwt>
</event>
<event>
 4    3  0.3906307E+000  0.3040284E+03  0.7546771E-02  0.1083244E+00
         21   -1    0    0  503  502  0.00000000000E+00  0.00000000000E+00  0.25713894780E+04  0.25713894780E+04  0.00000000000E+00 0.  1.
         21   -1    0    0  501  503 -0.00000000000E+00 -0.00000000000E+00 -0.38760392552E+02  0.38760392552E+02  0.00000000000E+00 0. -1.
          6    1    1    2  501    0  0.52836960100E+02 -0.24436147125E+03  0.91469704688E+03  0.96390038933E+03  0.17300000000E+03 0. -1.
         -6    1    1    2    0  502 -0.52836960100E+02  0.24436147125E+03  0.16179320385E+04  0.16462494812E+04  0.17300000000E+03 0.  1.
<mgrwt>
<rscale>  2 0.30402841E+03</rscale>
<asrwt>0</asrwt>
<pdfrwt beam="1">  1       21 0.39559825E+00 0.30402841E+03</pdfrwt>
<pdfrwt beam="2">  1       21 0.59631393E-02 0.30402841E+03</pdfrwt>
<totfact> 0.16260143E+03</totfact>
</mgrwt>
</event>
<event>
 4    3  0.3906307E+000  0.2091471E+03  0.7546771E-02  0.1142243E+00
         21   -1    0    0  503  502  0.00000000000E+00  0.00000000000E+00  0.16456758040E+04  0.16456758040E+04  0.00000000000E+00 0. -1.
         21   -1    0    0  501  503 -0.00000000000E+00 -0.00000000000E+00 -0.38009549309E+02  0.38009549309E+02  0.00000000000E+00 0. -1.
          6    1    1    2  501    0 -0.11491707819E+03  0.24648916264E+02  0.34220311203E+03  0.40105544980E+03  0.17300000000E+03 0. -1.
         -6    1    1    2    0  502  0.11491707819E+03 -0.24648916264E+02  0.12654631427E+04  0.12826299035E+04  0.17300000000E+03 0. -1.
<mgrwt>
<rscale>  2 0.20914709E+03</rscale>
<asrwt>0</asrwt>
<pdfrwt beam="1">  1       21 0.25318084E+00 0.20914709E+03</pdfrwt>
<pdfrwt beam="2">  1       21 0.58476242E-02 0.20914709E+03</pdfrwt>
<totfact> 0.12928778E+04</totfact>
</mgrwt>
</event>
<event>
 4    3  0.3906307E+000  0.2211732E+03  0.7546771E-02  0.1133011E+00
         21   -1    0    0  503  502  0.00000000000E+00  0.00000000000E+00  0.74244971899E+02  0.74244971899E+02  0.00000000000E+00 0.  1.
         21   -1    0    0  501  503 -0.00000000000E+00 -0.00000000000E+00 -0.69878985170E+03  0.69878985170E+03  0.00000000000E+00 0.  1.
          6    1    1    2  501    0  0.11974246340E+03 -0.68193360605E+02 -0.40465805251E+03  0.46115694881E+03  0.17300000000E+03 0.  1.
         -6    1    1    2    0  502 -0.11974246340E+03  0.68193360605E+02 -0.21988682729E+03  0.31187787480E+03  0.17300000000E+03 0.  1.
<mgrwt>
<rscale>  2 0.22117322E+03</rscale>
<asrwt>0</asrwt>
<pdfrwt beam="1">  1       21 0.11422303E-01 0.22117322E+03</pdfrwt>
<pdfrwt beam="2">  1       21 0.10750613E+00 0.22117322E+03</pdfrwt>
<totfact> 0.43589724E+04</totfact>
</mgrwt>
</event>
<event>
 4    3  0.3906307E+000  0.2132741E+03  0.7546771E-02  0.1138999E+00
         21   -1    0    0  501  502  0.00000000000E+00  0.00000000000E+00  0.10404088619E+03  0.10404088619E+03  0.00000000000E+00 0.  1.
         21   -1    0    0  502  503 -0.00000000000E+00 -0.00000000000E+00 -0.53106466759E+03  0.53106466759E+03  0.00000000000E+00 0. -1.
          6    1    1    2  501    0  0.13092644089E+02 -0.12403802122E+03 -0.80002540851E+02  0.22778554515E+03  0.17300000000E+03 0.  1.
         -6    1    1    2    0  503 -0.13092644089E+02  0.12403802122E+03 -0.34702124055E+03  0.40732000863E+03  0.17300000000E+03 0.  1.
<mgrwt>
<rscale>  2 0.21327411E+03</rscale>
<asrwt>0</asrwt>
<pdfrwt beam="1">  1       21 0.16006290E-01 0.21327411E+03</pdfrwt>
<pdfrwt beam="2">  1       21 0.81702258E-01 0.21327411E+03</pdfrwt>
<totfact> 0.45217383E+04</totfact>
</mgrwt>
</event>
<event>
 4    3  0.3906307E+000  0.1753114E+03  0.7546771E-02  0.1172419E+00
         21   -1    0    0  503  502  0.00000000000E+00  0.00000000000E+00  0.57768421777E+02  0.57768421777E+02  0.00000000000E+00 0. -1.
         21   -1    0    0  501  503 -0.00000000000E+00 -0.00000000000E+00 -0.55214647607E+03  0.55214647607E+03  0.00000000000E+00 0. -1.
          6    1    1    2  501    0  0.28202403512E+02 -0.31158573209E+01 -0.30540899838E+03  0.35214874758E+03  0.17300000000E+03 0. -1.
         -6    1    1    2    0  502 -0.28202403512E+02  0.31158573209E+01 -0.18896905591E+03  0.25776615027E+03  0.17300000000E+03 0. -1.
<mgrwt>
<rscale>  2 0.17531139E+03</rscale>
<asrwt>0</asrwt>
<pdfrwt beam="1">  1       21 0.88874494E-02 0.17531139E+03</pdfrwt>
<pdfrwt beam="2">  1       21 0.84945612E-01 0.17531139E+03</pdfrwt>
<totfact> 0.12062218E+05</totfact>
</mgrwt>
</event>
<event>
 4    3  0.3906307E+000  0.1966193E+03  0.7546771E-02  0.1152623E+00
         21   -1    0    0  501  502  0.00000000000E+00  0.00000000000E+00  0.90583103182E+02  0.90583103182E+02  0.00000000000E+00 0. -1.
         21   -1    0    0  502  503 -0.00000000000E+00 -0.00000000000E+00 -0.86093719643E+03  0.86093719643E+03  0.00000000000E+00 0. -1.
          6    1    1    2  501    0 -0.62588348805E+02 -0.69374766625E+02 -0.47326006416E+02  0.20223479061E+03  0.17300000000E+03 0. -1.
         -6    1    1    2    0  503  0.62588348805E+02  0.69374766625E+02 -0.72302808683E+03  0.74928550900E+03  0.17300000000E+03 0. -1.
<mgrwt>
<rscale>  2 0.19661933E+03</rscale>
<asrwt>0</asrwt>
<pdfrwt beam="1">  1       21 0.13935862E-01 0.19661933E+03</pdfrwt>
<pdfrwt beam="2">  1       21 0.13245188E+00 0.19661933E+03</pdfrwt>
<totfact> 0.18437620E+04</totfact>
</mgrwt>
</event>
<event>
 4    3  0.3906307E+000  0.1955406E+03  0.7546771E-02  0.1153557E+00
         21   -1    0    0  503  502  0.00000000000E+00  0.00000000000E+00  0.54366023838E+03  0.54366023838E+03  0.00000000000E+00 0.  1.
         21   -1    0    0  501  503 -0.00000000000E+00 -0.00000000000E+00 -0.75892408119E+02  0.75892408119E+02  0.00000000000E+00 0. -1.
          6    1    1    2  501    0 -0.70788628121E+02  0.57411617087E+02  0.15002588839E+03  0.24646275750E+03  0.17300000000E+03 0.  1.
         -6    1    1    2    0  502  0.70788628121E+02 -0.57411617087E+02  0.31774194188E+03  0.37308988900E+03  0.17300000000E+03 0.  1.
<mgrwt>
<rscale>  2 0.19554059E+03</rscale>
<asrwt>0</asrwt>
<pdfrwt beam="1">  1       21 0.83640035E-01 0.19554059E+03</pdfrwt>
<pdfrwt beam="2">  1       21 0.11675755E-01 0.19554059E+03</pdfrwt>
<totfact> 0.76517923E+04</totfact>
</mgrwt>
</event>
<event>
 4    3  0.3906307E+000  0.2172506E+03  0.7546771E-02  0.1135950E+00
         21   -1    0    0  503  502  0.00000000000E+00  0.00000000000E+00  0.85506144233E+03  0.85506144233E+03  0.00000000000E+00 0.  1.
         21   -1    0    0  501  503 -0.00000000000E+00 -0.00000000000E+00 -0.55204329088E+02  0.55204329088E+02  0.00000000000E+00 0. -1.
          6    1    1    2  501    0 -0.47183066043E+02  0.12264815709E+03  0.39511445788E+03  0.45090270235E+03  0.17300000000E+03 0.  1.
         -6    1    1    2    0  502  0.47183066043E+02 -0.12264815709E+03  0.40474265535E+03  0.45936306907E+03  0.17300000000E+03 0. -1.
<mgrwt>
<rscale>  2 0.21725057E+03</rscale>
<asrwt>0</asrwt>
<pdfrwt beam="1">  1       21 0.13154790E+00 0.21725057E+03</pdfrwt>
<pdfrwt beam="2">  1       21 0.84929744E-02 0.21725057E+03</pdfrwt>
<totfact> 0.44755026E+04</totfact>
</mgrwt>
</event>
<event>
 4    3  0.3906307E+000  0.1833333E+03  0.7546771E-02  0.1164616E+00
         21   -1    0    0  503  502  0.00000000000E+00  0.00000000000E+00  0.65091076791E+02  0.65091076791E+02  0.00000000000E+00 0. -1.
         21   -1    0    0  501  503 -0.00000000000E+00 -0.00000000000E+00 -0.62031506533E+03  0.62031506533E+03  0.00000000000E+00 0. -1.
          6    1    1    2  501    0 -0.59611735516E+02  0.11337443646E+02 -0.41789763315E+03  0.45634365169E+03  0.17300000000E+03 0.  1.
         -6    1    1    2    0  502  0.59611735516E+02 -0.11337443646E+02 -0.13732635538E+03  0.22906249043E+03  0.17300000000E+03 0.  1.
<mgrwt>
<rscale>  2 0.18333329E+03</rscale>
<asrwt>0</asrwt>
<pdfrwt beam="1">  1       21 0.10014012E-01 0.18333329E+03</pdfrwt>
<pdfrwt beam="2">  1       21 0.95433088E-01 0.18333329E+03</pdfrwt>
<totfact> 0.74494519E+04</totfact>
</mgrwt>
</event>
<event>
 4    3  0.3906307E+000  0.2047826E+03  0.7546771E-02  0.1145765E+00
         21   -1    0    0  501  502  0.00000000000E+00  0.00000000000E+00  0.13675211992E+03  0.13675211992E+03  0.00000000000E+00 0.  1.
         21   -1    0    0  502  503 -0.00000000000E+00 -0.00000000000E+00 -0.31454015715E+03  0.31454015715E+03  0.00000000000E+00 0. -1.
          6    1    1    2  501    0  0.92770816553E+02 -0.58313874009E+02 -0.12461739862E+03  0.23971947844E+03  0.17300000000E+03 0.  1.
         -6    1    1    2    0  503 -0.92770816553E+02  0.58313874009E+02 -0.53170638611E+02  0.21157279862E+03  0.17300000000E+03 0. -1.
<mgrwt>
<rscale>  2 0.20478265E+03</rscale>
<asrwt>0</asrwt>
<pdfrwt beam="1">  1       21 0.21038788E-01 0.20478265E+03</pdfrwt>
<pdfrwt beam="2">  1       21 0.48390792E-01 0.20478265E+03</pdfrwt>
<totfact> 0.85194863E+04</totfact>
</mgrwt>
</event>
<event>
 4    3  0.3906307E+000  0.2223697E+03  0.7546771E-02  0.1132129E+00
         21   -1    0    0  503  502  0.00000000000E+00  0.00000000000E+00  0.30717199558E+03  0.30717199558E+03  0.00000000000E+00 0. -1.
         21   -1    0    0  501  503 -0.00000000000E+00 -0.00000000000E+00 -0.17327242381E+03  0.17327242381E+03  0.00000000000E+00 0. -1.
          6    1    1    2  501    0 -0.99644195549E+02  0.97930260929E+02  0.29643180950E+01  0.22238949816E+03  0.17300000000E+03 0. -1.
         -6    1    1    2    0  502  0.99644195549E+02 -0.97930260929E+02  0.13093525368E+03  0.25805492123E+03  0.17300000000E+03 0. -1.
<mgrwt>
<rscale>  2 0.22236974E+03</rscale>
<asrwt>0</asrwt>
<pdfrwt beam="1">  1       21 0.47257230E-01 0.22236974E+03</pdfrwt>
<pdfrwt beam="2">  1       21 0.26657296E-01 0.22236974E+03</pdfrwt>
<totfact> 0.56607270E+04</totfact>
</mgrwt>
</event>
<event>
 4    3  0.3906307E+000  0.1798526E+03  0.7546771E-02  0.1167946E+00
         21   -1    0    0  503  502  0.00000000000E+00  0.00000000000E+00  0.68631425183E+02  0.68631425183E+02  0.00000000000E+00 0. -1.
         21   -1    0    0  501  503 -0.00000000000E+00 -0.00000000000E+00 -0.56803604151E+03  0.56803604151E+03  0.00000000000E+00 0. -1.
          6    1    1    2  501    0  0.47144515721E+02  0.13977089580E+02 -0.11834415833E+03  0.21529585274E+03  0.17300000000E+03 0. -1.
         -6    1    1    2    0  502 -0.47144515721E+02 -0.13977089580E+02 -0.38106045800E+03  0.42137161396E+03  0.17300000000E+03 0. -1.
<mgrwt>
<rscale>  2 0.17985262E+03</rscale>
<asrwt>0</asrwt>
<pdfrwt beam="1">  1       21 0.10558681E-01 0.17985262E+03</pdfrwt>
<pdfrwt beam="2">  1       21 0.87390161E-01 0.17985262E+03</pdfrwt>
<totfact> 0.83320128E+04</totfact>
</mgrwt>
</event>
<event>
 4    3  0.3906307E+000  0.2132554E+03  0.7546771E-02  0.1139014E+00
         21   -1    0    0  501  502  0.00000000000E+00  0.00000000000E+00  0.64281745323E+03  0.64281745323E+03  0.00000000000E+00 0. -1.
         21   -1    0    0  502  503 -0.00000000000E+00 -0.00000000000E+00 -0.15386605665E+03  0.15386605665E+03  0.00000000000E+00 0. -1.
          6    1    1    2  501    0  0.34940515691E+02  0.11969970576E+03  0.53724995225E+03  0.57802713638E+03  0.17300000000E+03 0. -1.
         -6    1    1    2    0  503 -0.34940515691E+02 -0.11969970576E+03 -0.48298555669E+02  0.21865637351E+03  0.17300000000E+03 0. -1.
<mgrwt>
<rscale>  2 0.21325538E+03</rscale>
<asrwt>0</asrwt>
<pdfrwt beam="1">  1       21 0.98894991E-01 0.21325538E+03</pdfrwt>
<pdfrwt beam="2">  1       21 0.23671701E-01 0.21325538E+03</pdfrwt>
<totfact> 0.13975520E+04</totfact>
</mgrwt>
</event>
<event>
 4    3  0.3906307E+000  0.1731946E+03  0.7546771E-02  0.1174557E+00
         21   -1    0    0  503  502  0.00000000000E+00  0.00000000000E+00  0.11766762525E+04  0.11766762525E+04  0.00000000000E+00 0. -1.
         21   -1    0    0  501  503 -0.00000000000E+00 -0.00000000000E+00 -0.46366805347E+02  0.46366805347E+02  0.00000000000E+00 0. -1.
          6    1    1    2  501    0  0.62049086026E+01 -0.53730293124E+01  0.15484235038E+03  0.23231987389E+03  0.17300000000E+03 0. -1.
         -6    1    1    2    0  502 -0.62049086026E+01  0.53730293124E+01  0.97546709680E+03  0.99072318398E+03  0.17300000000E+03 0. -1.
<mgrwt>
<rscale>  2 0.17319460E+03</rscale>
<asrwt>0</asrwt>
<pdfrwt beam="1">  1       21 0.18102709E+00 0.17319460E+03</pdfrwt>
<pdfrwt beam="2">  1       21 0.71333556E-02 0.17319460E+03</pdfrwt>
<totfact> 0.26580022E+04</totfact>
</mgrwt>
</event>
<event>
 4    3  0.3906307E+000  0.1803224E+03  0.7546771E-02  0.1167491E+00
         21   -1    0    0  503  502  0.00000000000E+00  0.00000000000E+00  0.94291058431E+02  0.94291058431E+02  0.00000000000E+00 0. -1.
         21   -1    0    0  501  503 -0.00000000000E+00 -0.00000000000E+00 -0.74642220034E+03  0.74642220034E+03  0.00000000000E+00 0.  1.
          6    1    1    2  501    0  0.49045455393E+02  0.13479592403E+02 -0.63439012283E+03  0.65952026811E+03  0.17300000000E+03 0.  1.
         -6    1    1    2    0  502 -0.49045455393E+02 -0.13479592403E+02 -0.17741019078E+02  0.18119299066E+03  0.17300000000E+03 0. -1.
<mgrwt>
<rscale>  2 0.18032237E+03</rscale>
<asrwt>0</asrwt>
<pdfrwt beam="1">  1       21 0.14506317E-01 0.18032237E+03</pdfrwt>
<pdfrwt beam="2">  1       21 0.11483418E+00 0.18032237E+03</pdfrwt>
<totfact> 0.24710751E+04</totfact>
</mgrwt>
</event>
<event>
 4    3  0.3906307E+000  0.1889520E+03  0.7546771E-02  0.1159410E+00
         21   -1    0    0  503  502  0.00000000000E+00  0.00000000000E+00  0.11379956732E+03  0.11379956732E+03  0.00000000000E+00 0. -1.
         21   -1    0    0  501  503 -0.00000000000E+00 -0.00000000000E+00 -0.35525720203E+03  0.35525720203E+03  0.00000000000E+00 0. -1.
          6    1    1    2  501    0  0.62332413301E+02 -0.43457346667E+02 -0.20090877713E+03  0.27580284164E+03  0.17300000000E+03 0. -1.
         -6    1    1    2    0  502 -0.62332413301E+02  0.43457346667E+02 -0.40548857574E+02  0.19325392772E+03  0.17300000000E+03 0. -1.
<mgrwt>
<rscale>  2 0.18895203E+03</rscale>
<asrwt>0</asrwt>
<pdfrwt beam="1">  1       21 0.17507626E-01 0.18895203E+03</pdfrwt>
<pdfrwt beam="2">  1       21 0.54654954E-01 0.18895203E+03</pdfrwt>
<totfact> 0.93545799E+04</totfact>
</mgrwt>
</event>
<event>
 4    3  0.3906307E+000  0.1925318E+03  0.7546771E-02  0.1156197E+00
         21   -1    0    0  501  502  0.00000000000E+00  0.00000000000E+00  0.30390215956E+03  0.30390215956E+03  0.00000000000E+00 0.  1.
         21   -1    0    0  502  503 -0.00000000000E+00 -0.00000000000E+00 -0.13006596295E+03  0.13006596295E+03  0.00000000000E+00 0.  1.
          6    1    1    2  501    0  0.80320116563E+02 -0.26233037012E+02  0.32799855593E+02  0.19530571902E+03  0.17300000000E+03 0.  1.
         -6    1    1    2    0  503 -0.80320116563E+02  0.26233037012E+02  0.14103634102E+03  0.23866240350E+03  0.17300000000E+03 0.  1.
<mgrwt>
<rscale>  2 0.19253180E+03</rscale>
<asrwt>0</asrwt>
<pdfrwt beam="1">  1       21 0.46754178E-01 0.19253180E+03</pdfrwt>
<pdfrwt beam="2">  1       21 0.20010148E-01 0.19253180E+03</pdfrwt>
<totfact> 0.10101467E+05</totfact>
</mgrwt>
</event>
<event>
 4    3  0.3906307E+000  0.1759543E+03  0.7546771E-02  0.1171777E+00
         21   -1    0    0  501  502  0.00000000000E+00  0.00000000000E+00  0.11632580405E+03  0.11632580405E+03  0.00000000000E+00 0. -1.
         21   -1    0    0  502  503 -0.00000000000E+00 -0.00000000000E+00 -0.30825303415E+03  0.30825303415E+03  0.00000000000E+00 0. -1.
          6    1    1    2  501    0 -0.20269448041E+02 -0.24901094290E+02 -0.17505091312E+02  0.17682291492E+03  0.17300000000E+03 0. -1.
         -6    1    1    2    0  503  0.20269448041E+02  0.24901094290E+02 -0.17442213878E+03  0.24775592327E+03  0.17300000000E+03 0. -1.
<mgrwt>
<rscale>  2 0.17595430E+03</rscale>
<asrwt>0</asrwt>
<pdfrwt beam="1">  1       21 0.17896278E-01 0.17595430E+03</pdfrwt>
<pdfrwt beam="2">  1       21 0.47423544E-01 0.17595430E+03</pdfrwt>
<totfact> 0.12140610E+05</totfact>
</mgrwt>
</event>
<event>
 4    3  0.3906307E+000  0.1827191E+03  0.7546771E-02  0.1165197E+00
         21   -1    0    0  503  502  0.00000000000E+00  0.00000000000E+00  0.72116720659E+02  0.72116720659E+02  0.00000000000E+00 0. -1.
         21   -1    0    0  501  503 -0.00000000000E+00 -0.00000000000E+00 -0.49270800718E+03  0.49270800718E+03  0.00000000000E+00 0.  1.
          6    1    1    2  501    0 -0.14486902922E+02  0.56985931575E+02 -0.27970338674E+03  0.33409617075E+03  0.17300000000E+03 0.  1.
         -6    1    1    2    0  502  0.14486902922E+02 -0.56985931575E+02 -0.14088789978E+03  0.23072855709E+03  0.17300000000E+03 0. -1.
<mgrwt>
<rscale>  2 0.18271909E+03</rscale>
<asrwt>0</asrwt>
<pdfrwt beam="1">  1       21 0.11094880E-01 0.18271909E+03</pdfrwt>
<pdfrwt beam="2">  1       21 0.75801231E-01 0.18271909E+03</pdfrwt>
<totfact> 0.10519232E+05</totfact>
</mgrwt>
</event>
<event>
 4    3  0.3906307E+000  0.2042775E+03  0.7546771E-02  0.1146179E+00
         21   -1    0    0  501  502  0.00000000000E+00  0.00000000000E+00  0.74560120358E+03  0.74560120358E+03  0.00000000000E+00 0.  1.
         21   -1    0    0  502  503 -0.00000000000E+00 -0.00000000000E+00 -0.24679285680E+03  0.24679285680E+03  0.00000000000E+00 0.  1.
          6    1    1    2  501    0  0.96669942694E+02 -0.49550349663E+02  0.68572515060E+03  0.71550562342E+03  0.17300000000E+03 0.  1.
         -6    1    1    2    0  503 -0.96669942694E+02  0.49550349663E+02 -0.18691680383E+03  0.27688843697E+03  0.17300000000E+03 0.  1.
<mgrwt>
<rscale>  2 0.20427754E+03</rscale>
<asrwt>0</asrwt>
<pdfrwt beam="1">  1       21 0.11470788E+00 0.20427754E+03</pdfrwt>
<pdfrwt beam="2">  1       21 0.37968132E-01 0.20427754E+03</pdfrwt>
<totfact> 0.39085343E+03</totfact>
</mgrwt>
</event>
<event>
 4    3  0.3906307E+000  0.1755173E+03  0.7546771E-02  0.1172213E+00
         21   -1    0    0  501  502  0.00000000000E+00  0.00000000000E+00  0.35749762636E+03  0.35749762636E+03  0.00000000000E+00 0.  1.
         21   -1    0    0  502  503 -0.00000000000E+00 -0.00000000000E+00 -0.77737328144E+03  0.77737328144E+03  0.00000000000E+00 0.  1.
          6    1    1    2  501    0 -0.28250746905E+02 -0.89001390460E+01  0.32512391799E+03  0.36947514020E+03  0.17300000000E+03 0.  1.
         -6    1    1    2    0  503  0.28250746905E+02  0.89001390460E+01 -0.74499957308E+03  0.76539576760E+03  0.17300000000E+03 0.  1.
<mgrwt>
<rscale>  2 0.17551728E+03</rscale>
<asrwt>0</asrwt>
<pdfrwt beam="1">  1       21 0.54999636E-01 0.17551728E+03</pdfrwt>
<pdfrwt beam="2">  1       21 0.11959589E+00 0.17551728E+03</pdfrwt>
<totfact> 0.16893098E+03</totfact>
</mgrwt>
</event>
<event>
 4    3  0.3906307E+000  0.1939906E+03  0.7546771E-02  0.1154911E+00
         21   -1    0    0  501  502  0.00000000000E+00  0.00000000000E+00  0.20208544099E+03  0.20208544099E+03  0.00000000000E+00 0. -1.
         21   -1    0    0  502  503 -0.00000000000E+00 -0.00000000000E+00 -0.47596728493E+03  0.47596728493E+03  0.00000000000E+00 0. -1.
          6    1    1    2  501    0 -0.28972554710E+02  0.82848938563E+02  0.12757668747E+03  0.23218132296E+03  0.17300000000E+03 0. -1.
         -6    1    1    2    0  503  0.28972554710E+02 -0.82848938563E+02 -0.40145853140E+03  0.44587140297E+03  0.17300000000E+03 0. -1.
<mgrwt>
<rscale>  2 0.19399061E+03</rscale>
<asrwt>0</asrwt>
<pdfrwt beam="1">  1       21 0.31090068E-01 0.19399061E+03</pdfrwt>
<pdfrwt beam="2">  1       21 0.73225735E-01 0.19399061E+03</pdfrwt>
<totfact> 0.16654379E+04</totfact>
</mgrwt>
</event>
<event>
 4    3  0.3906307E+000  0.1901512E+03  0.7546771E-02  0.1158325E+00
         21   -1    0    0  503  502  0.00000000000E+00  0.00000000000E+00  0.71531720127E+03  0.71531720127E+03  0.00000000000E+00 0.  1.
         21   -1    0    0  501  503 -0.00000000000E+00 -0.00000000000E+00 -0.13094784144E+03  0.13094784144E+03  0.00000000000E+00 0. -1.
          6    1    1    2  501    0  0.77747264414E+02  0.13558988857E+02 -0.39370814520E+02  0.19418430508E+03  0.17300000000E+03 0. -1.
         -6    1    1    2    0  502 -0.77747264414E+02 -0.13558988857E+02  0.62374017435E+03  0.65208073764E+03  0.17300000000E+03 0.  1.
<mgrwt>
<rscale>  2 0.19015121E+03</rscale>
<asrwt>0</asrwt>
<pdfrwt beam="1">  1       21 0.11004880E+00 0.19015121E+03</pdfrwt>
<pdfrwt beam="2">  1       21 0.20145822E-01 0.19015121E+03</pdfrwt>
<totfact> 0.14881334E+04</totfact>
</mgrwt>
</event>
<event>
 4    3  0.3906307E+000  0.2015313E+03  0.7546771E-02  0.1148453E+00
         21   -1    0    0  503  502  0.00000000000E+00  0.00000000000E+00  0.93992578862E+02  0.93992578862E+02  0.00000000000E+00 0.  1.
         21   -1    0    0  501  503 -0.00000000000E+00 -0.00000000000E+00 -0.43724200584E+03  0.43724200584E+03  0.00000000000E+00 0. -1.
          6    1    1    2  501    0  0.10215428814E+03  0.15822650119E+02 -0.20040958346E+03  0.28421621344E+03  0.17300000000E+03 0. -1.
         -6    1    1    2    0  502 -0.10215428814E+03 -0.15822650119E+02 -0.14283984352E+03  0.24701837126E+03  0.17300000000E+03 0.  1.
<mgrwt>
<rscale>  2 0.20153128E+03</rscale>
<asrwt>0</asrwt>
<pdfrwt beam="1">  1       21 0.14460397E-01 0.20153128E+03</pdfrwt>
<pdfrwt beam="2">  1       21 0.67268000E-01 0.20153128E+03</pdfrwt>
<totfact> 0.84470433E+04</totfact>
</mgrwt>
</event>
<event>
 4    3  0.3906307E+000  0.1800257E+03  0.7546771E-02  0.1167778E+00
         21   -1    0    0  503  502  0.00000000000E+00  0.00000000000E+00  0.22345030873E+03  0.22345030873E+03  0.00000000000E+00 0. -1.
         21   -1    0    0  501  503 -0.00000000000E+00 -0.00000000000E+00 -0.26070822925E+03  0.26070822925E+03  0.00000000000E+00 0. -1.
          6    1    1    2  501    0 -0.39082987398E+02  0.30867118185E+02 -0.17987425612E+03  0.25448773429E+03  0.17300000000E+03 0. -1.
         -6    1    1    2    0  502  0.39082987398E+02 -0.30867118185E+02  0.14261633560E+03  0.22967080369E+03  0.17300000000E+03 0. -1.
<mgrwt>
<rscale>  2 0.18002572E+03</rscale>
<asrwt>0</asrwt>
<pdfrwt beam="1">  1       21 0.34376970E-01 0.18002572E+03</pdfrwt>
<pdfrwt beam="2">  1       21 0.40108958E-01 0.18002572E+03</pdfrwt>
<totfact> 0.49142618E+04</totfact>
</mgrwt>
</event>
<event>
 4    3  0.3906307E+000  0.1872531E+03  0.7546771E-02  0.1160962E+00
         21   -1    0    0  501  502  0.00000000000E+00  0.00000000000E+00  0.13245549294E+03  0.13245549294E+03  0.00000000000E+00 0.  1.
         21   -1    0    0  502  503 -0.00000000000E+00 -0.00000000000E+00 -0.27675175436E+03  0.27675175436E+03  0.00000000000E+00 0.  1.
          6    1    1    2  501    0 -0.71602562228E+02  0.27941206147E+01 -0.29488527597E+02  0.18956082741E+03  0.17300000000E+03 0.  1.
         -6    1    1    2    0  503  0.71602562228E+02 -0.27941206147E+01 -0.11480773382E+03  0.21964641989E+03  0.17300000000E+03 0.  1.
<mgrwt>
<rscale>  2 0.18725313E+03</rscale>
<asrwt>0</asrwt>
<pdfrwt beam="1">  1       21 0.20377768E-01 0.18725313E+03</pdfrwt>
<pdfrwt beam="2">  1       21 0.42577193E-01 0.18725313E+03</pdfrwt>
<totfact> 0.11851009E+05</totfact>
</mgrwt>
</event>
<event>
 4    3  0.3906307E+000  0.2107393E+03  0.7546771E-02  0.1140982E+00
         21   -1    0    0  501  502  0.00000000000E+00  0.00000000000E+00  0.17026545673E+03  0.17026545673E+03  0.00000000000E+00 0.  1.
         21   -1    0    0  502  503 -0.00000000000E+00 -0.00000000000E+00 -0.33151057401E+03  0.33151057401E+03  0.00000000000E+00 0.  1.
          6    1    1    2  501    0 -0.90256092490E+01  0.12000244932E+03  0.35220079366E+02  0.21366212452E+03  0.17300000000E+03 0.  1.
         -6    1    1    2    0  503  0.90256092490E+01 -0.12000244932E+03 -0.19646519665E+03  0.28811390622E+03  0.17300000000E+03 0.  1.
<mgrwt>
<rscale>  2 0.21073929E+03</rscale>
<asrwt>0</asrwt>
<pdfrwt beam="1">  1       21 0.26194686E-01 0.21073929E+03</pdfrwt>
<pdfrwt beam="2">  1       21 0.51001626E-01 0.21073929E+03</pdfrwt>
<totfact> 0.50201033E+04</totfact>
</mgrwt>
</event>
<event>
 4    3  0.3906307E+000  0.1804895E+03  0.7546771E-02  0.1167330E+00
         21   -1    0    0  503  502  0.00000000000E+00  0.00000000000E+00  0.43446422310E+03  0.43446422310E+03  0.00000000000E+00 0.  1.
         21   -1    0    0  501  503 -0.00000000000E+00 -0.00000000000E+00 -0.10153085188E+03  0.10153085188E+03  0.00000000000E+00 0.  1.
          6    1    1    2  501    0  0.30073544188E+02  0.41749897903E+02  0.29421263869E+02  0.18287176601E+03  0.17300000000E+03 0.  1.
         -6    1    1    2    0  502 -0.30073544188E+02 -0.41749897903E+02  0.30351210735E+03  0.35312330898E+03  0.17300000000E+03 0.  1.
<mgrwt>
<rscale>  2 0.18048953E+03</rscale>
<asrwt>0</asrwt>
<pdfrwt beam="1">  1       21 0.66840648E-01 0.18048953E+03</pdfrwt>
<pdfrwt beam="2">  1       21 0.15620131E-01 0.18048953E+03</pdfrwt>
<totfact> 0.75100836E+04</totfact>
</mgrwt>
</event>
<event>
 4    3  0.3906307E+000  0.1822851E+03  0.7546771E-02  0.1165610E+00
         21   -1    0    0  501  502  0.00000000000E+00  0.00000000000E+00  0.41994117794E+03  0.41994117794E+03  0.00000000000E+00 0.  1.
         21   -1    0    0  502  503 -0.00000000000E+00 -0.00000000000E+00 -0.11427725822E+03  0.11427725822E+03  0.00000000000E+00 0.  1.
          6    1    1    2  501    0  0.45700863481E+02  0.34789305575E+02  0.30097638238E+03  0.35187305588E+03  0.17300000000E+03 0.  1.
         -6    1    1    2    0  503 -0.45700863481E+02 -0.34789305575E+02  0.46875373394E+01  0.18234538029E+03  0.17300000000E+03 0.  1.
<mgrwt>
<rscale>  2 0.18228512E+03</rscale>
<asrwt>0</asrwt>
<pdfrwt beam="1">  1       21 0.64606334E-01 0.18228512E+03</pdfrwt>
<pdfrwt beam="2">  1       21 0.17581117E-01 0.18228512E+03</pdfrwt>
<totfact> 0.65056754E+04</totfact>
</mgrwt>
</event>
<event>
 4    3  0.3906307E+000  0.1742021E+03  0.7546771E-02  0.1173535E+00
         21   -1    0    0  501  502  0.00000000000E+00  0.00000000000E+00  0.19064571023E+03  0.19064571023E+03  0.00000000000E+00 0.  1.
         21   -1    0    0  502  503 -0.00000000000E+00 -0.00000000000E+00 -0.16096215202E+03  0.16096215202E+03  0.00000000000E+00 0.  1.
          6    1    1    2  501    0 -0.18508533070E+02 -0.86485344292E+01  0.33357291549E+02  0.17736705400E+03  0.17300000000E+03 0. -1.
         -6    1    1    2    0  503  0.18508533070E+02  0.86485344292E+01 -0.36737333440E+01  0.17424080825E+03  0.17300000000E+03 0. -1.
<mgrwt>
<rscale>  2 0.17420208E+03</rscale>
<asrwt>0</asrwt>
<pdfrwt beam="1">  1       21 0.29330109E-01 0.17420208E+03</pdfrwt>
<pdfrwt beam="2">  1       21 0.24763408E-01 0.17420208E+03</pdfrwt>
<totfact> 0.17271708E+05</totfact>
</mgrwt>
</event>
<event>
 4    3  0.3906307E+000  0.1788865E+03  0.7546771E-02  0.1168885E+00
         21   -1    0    0  501  502  0.00000000000E+00  0.00000000000E+00  0.47364146495E+02  0.47364146495E+02  0.00000000000E+00 0.  1.
         21   -1    0    0  502  503 -0.00000000000E+00 -0.00000000000E+00 -0.10145266703E+04  0.10145266703E+04  0.00000000000E+00 0.  1.
          6    1    1    2  501    0 -0.30613926376E+00 -0.45511538292E+02 -0.17671079569E+03  0.25144999335E+03  0.17300000000E+03 0. -1.
         -6    1    1    2    0  503  0.30613926376E+00  0.45511538292E+02 -0.79045172811E+03  0.81044082345E+03  0.17300000000E+03 0. -1.
<mgrwt>
<rscale>  2 0.17888654E+03</rscale>
<asrwt>0</asrwt>
<pdfrwt beam="1">  1       21 0.72867924E-02 0.17888654E+03</pdfrwt>
<pdfrwt beam="2">  1       21 0.15608101E+00 0.17888654E+03</pdfrwt>
<totfact> 0.38284583E+04</totfact>
</mgrwt>
</event>
<event>
 4    3  0.3906307E+000  0.2404570E+03  0.7546771E-02  0.1119489E+00
         21   -1    0    0  503  502  0.00000000000E+00  0.00000000000E+00  0.81839626299E+02  0.81839626299E+02  0.00000000000E+00 0.  1.
         21   -1    0    0  501  503 -0.00000000000E+00 -0.00000000000E+00 -0.70875624949E+03  0.70875624949E+03  0.00000000000E+00 0.  1.
          6    1    1    2  501    0 -0.16697257545E+03  0.32776085415E+01 -0.29114820255E+03  0.37760675248E+03  0.17300000000E+03 0.  1.
         -6    1    1    2    0  502  0.16697257545E+03 -0.32776085415E+01 -0.33576842063E+03  0.41298912330E+03  0.17300000000E+03 0.  1.
<mgrwt>
<rscale>  2 0.24045703E+03</rscale>
<asrwt>0</asrwt>
<pdfrwt beam="1">  1       21 0.12590712E-01 0.24045703E+03</pdfrwt>
<pdfrwt beam="2">  1       21 0.10903942E+00 0.24045703E+03</pdfrwt>
<totfact> 0.35030699E+04</totfact>
</mgrwt>
</event>
<event>
 4    3  0.3906307E+000  0.1981050E+03  0.7546771E-02  0.1151348E+00
         21   -1    0    0  501  502  0.00000000000E+00  0.00000000000E+00  0.60245351923E+02  0.60245351923E+02  0.00000000000E+00 0.  1.
         21   -1    0    0  502  503 -0.00000000000E+00 -0.00000000000E+00 -0.15426432882E+04  0.15426432882E+04  0.00000000000E+00 0. -1.
          6    1    1    2  501    0  0.63966869157E+02 -0.72283108493E+02 -0.13203878033E+03  0.23807529825E+03  0.17300000000E+03 0.  1.
         -6    1    1    2    0  503 -0.63966869157E+02  0.72283108493E+02 -0.13503591559E+04  0.13648133419E+04  0.17300000000E+03 0. -1.
<mgrwt>
<rscale>  2 0.19810504E+03</rscale>
<asrwt>0</asrwt>
<pdfrwt beam="1">  1       21 0.92685157E-02 0.19810504E+03</pdfrwt>
<pdfrwt beam="2">  1       21 0.23732974E+00 0.19810504E+03</pdfrwt>
<totfact> 0.72932239E+03</totfact>
</mgrwt>
</event>
<event>
 4    3  0.3906307E+000  0.1765651E+03  0.7546771E-02  0.1171169E+00
         21   -1    0    0  501  502  0.00000000000E+00  0.00000000000E+00  0.59137786887E+03  0.59137786887E+03  0.00000000000E+00 0. -1.
         21   -1    0    0  502  503 -0.00000000000E+00 -0.00000000000E+00 -0.73007799236E+02  0.73007799236E+02  0.00000000000E+00 0. -1.
          6    1    1    2  501    0 -0.28342160703E+02 -0.21046765468E+02  0.43431596620E+03  0.46883430218E+03  0.17300000000E+03 0. -1.
         -6    1    1    2    0  503  0.28342160703E+02  0.21046765468E+02  0.84054103437E+02  0.19555136592E+03  0.17300000000E+03 0. -1.
<mgrwt>
<rscale>  2 0.17656513E+03</rscale>
<asrwt>0</asrwt>
<pdfrwt beam="1">  1       21 0.90981208E-01 0.17656513E+03</pdfrwt>
<pdfrwt beam="2">  1       21 0.11231969E-01 0.17656513E+03</pdfrwt>
<totfact> 0.68150992E+04</totfact>
</mgrwt>
</event>
<event>
 4    3  0.3906307E+000  0.1802800E+03  0.7546771E-02  0.1167532E+00
         21   -1    0    0  501  502  0.00000000000E+00  0.00000000000E+00  0.65623450215E+03  0.65623450215E+03  0.00000000000E+00 0.  1.
         21   -1    0    0  502  503 -0.00000000000E+00 -0.00000000000E+00 -0.66618047525E+02  0.66618047525E+02  0.00000000000E+00 0. -1.
          6    1    1    2  501    0 -0.50476103903E+02 -0.49038742821E+01  0.47787800459E+03  0.51075265277E+03  0.17300000000E+03 0.  1.
         -6    1    1    2    0  503  0.50476103903E+02  0.49038742821E+01  0.11173845004E+03  0.21209989690E+03  0.17300000000E+03 0. -1.
<mgrwt>
<rscale>  2 0.18028002E+03</rscale>
<asrwt>0</asrwt>
<pdfrwt beam="1">  1       21 0.10095915E+00 0.18028002E+03</pdfrwt>
<pdfrwt beam="2">  1       21 0.10248931E-01 0.18028002E+03</pdfrwt>
<totfact> 0.62715103E+04</totfact>
</mgrwt>
</event>
<event>
 4    3  0.3906307E+000  0.1909987E+03  0.7546771E-02  0.1157564E+00
         21   -1    0    0  501  502  0.00000000000E+00  0.00000000000E+00  0.56342774562E+03  0.56342774562E+03  0.00000000000E+00 0. -1.
         21   -1    0    0  502  503 -0.00000000000E+00 -0.00000000000E+00 -0.74423842888E+02  0.74423842888E+02  0.00000000000E+00 0.  1.
          6    1    1    2  501    0 -0.80929042864E+02 -0.14078200652E+01  0.35950015543E+03  0.40708826278E+03  0.17300000000E+03 0. -1.
         -6    1    1    2    0  503  0.80929042864E+02  0.14078200652E+01  0.12950374730E+03  0.23076332573E+03  0.17300000000E+03 0. -1.
<mgrwt>
<rscale>  2 0.19099867E+03</rscale>
<asrwt>0</asrwt>
<pdfrwt beam="1">  1       21 0.86681189E-01 0.19099867E+03</pdfrwt>
<pdfrwt beam="2">  1       21 0.11449822E-01 0.19099867E+03</pdfrwt>
<totfact> 0.73162693E+04</totfact>
</mgrwt>
</event>
<event>
 4    3  0.3906307E+000  0.3193556E+03  0.7546771E-02  0.1075946E+00
         21   -1    0    0  501  502  0.00000000000E+00  0.00000000000E+00  0.56345902092E+03  0.56345902092E+03  0.00000000000E+00 0. -1.
         21   -1    0    0  502  503 -0.00000000000E+00 -0.00000000000E+00 -0.66305017780E+03  0.66305017780E+03  0.00000000000E+00 0.  1.
          6    1    1    2  501    0 -0.21954929754E+03 -0.15445749033E+03  0.47309666405E+03  0.57079634188E+03  0.17300000000E+03 0. -1.
         -6    1    1    2    0  503  0.21954929754E+03  0.15445749033E+03 -0.57268782094E+03  0.65571285684E+03  0.17300000000E+03 0. -1.
<mgrwt>
<rscale>  2 0.31935562E+03</rscale>
<asrwt>0</asrwt>
<pdfrwt beam="1">  1       21 0.86686003E-01 0.31935562E+03</pdfrwt>
<pdfrwt beam="2">  1       21 0.10200772E+00 0.31935562E+03</pdfrwt>
<totfact> 0.81029107E+02</totfact>
</mgrwt>
</event>
<event>
 4    3  0.3906307E+000  0.1764092E+03  0.7546771E-02  0.1171324E+00
         21   -1    0    0  501  502  0.00000000000E+00  0.00000000000E+00  0.56523544431E+02  0.56523544431E+02  0.00000000000E+00 0. -1.
         21   -1    0    0  502  503 -0.00000000000E+00 -0.00000000000E+00 -0.10900862310E+04  0.10900862310E+04  0.00000000000E+00 0. -1.
          6    1    1    2  501    0 -0.13725626068E+02 -0.31667410932E+02 -0.11345450716E+03  0.20974304022E+03  0.17300000000E+03 0. -1.
         -6    1    1    2    0  503  0.13725626068E+02  0.31667410932E+02 -0.92010817942E+03  0.93686673522E+03  0.17300000000E+03 0. -1.
<mgrwt>
<rscale>  2 0.17640923E+03</rscale>
<asrwt>0</asrwt>
<pdfrwt beam="1">  1       21 0.86959296E-02 0.17640923E+03</pdfrwt>
<pdfrwt beam="2">  1       21 0.16770558E+00 0.17640923E+03</pdfrwt>
<totfact> 0.23239006E+04</totfact>
</mgrwt>
</event>
<event>
 4    3  0.3906307E+000  0.1775570E+03  0.7546771E-02  0.1170189E+00
         21   -1    0    0  501  502  0.00000000000E+00  0.00000000000E+00  0.61112254560E+03  0.61112254560E+03  0.00000000000E+00 0.  1.
         21   -1    0    0  502  503 -0.00000000000E+00 -0.00000000000E+00 -0.80394933683E+02  0.80394933683E+02  0.00000000000E+00 0.  1.
          6    1    1    2  501    0 -0.25331867411E+01  0.39888280121E+02  0.47233435439E+03  0.50460502798E+03  0.17300000000E+03 0.  1.
         -6    1    1    2    0  503  0.25331867411E+01 -0.39888280121E+02  0.58393257522E+02  0.18691245130E+03  0.17300000000E+03 0.  1.
<mgrwt>
<rscale>  2 0.17755701E+03</rscale>
<asrwt>0</asrwt>
<pdfrwt beam="1">  1       21 0.94018850E-01 0.17755701E+03</pdfrwt>
<pdfrwt beam="2">  1       21 0.12368452E-01 0.17755701E+03</pdfrwt>
<totfact> 0.53149990E+04</totfact>
</mgrwt>
</event>
<event>
 4    3  0.3906307E+000  0.1863717E+03  0.7546771E-02  0.1161775E+00
         21   -1    0    0  501  502  0.00000000000E+00  0.00000000000E+00  0.23320749875E+04  0.23320749875E+04  0.00000000000E+00 0. -1.
         21   -1    0    0  502  503 -0.00000000000E+00 -0.00000000000E+00 -0.21214736675E+02  0.21214736675E+02  0.00000000000E+00 0. -1.
          6    1    1    2  501    0  0.54642850889E+02 -0.42656622184E+02  0.17976784921E+04  0.18073135836E+04  0.17300000000E+03 0. -1.
         -6    1    1    2    0  503 -0.54642850889E+02  0.42656622184E+02  0.51318175873E+03  0.54597614056E+03  0.17300000000E+03 0. -1.
<mgrwt>
<rscale>  2 0.18637175E+03</rscale>
<asrwt>0</asrwt>
<pdfrwt beam="1">  1       21 0.35878057E+00 0.18637175E+03</pdfrwt>
<pdfrwt beam="2">  1       21 0.32638075E-02 0.18637175E+03</pdfrwt>
<totfact> 0.86030707E+03</totfact>
</mgrwt>
</event>
<event>
 4    3  0.3906307E+000  0.2274255E+03  0.7546771E-02  0.1128465E+00
         21   -1    0    0  503  502  0.00000000000E+00  0.00000000000E+00  0.87077009439E+02  0.87077009439E+02  0.00000000000E+00 0.  1.
         21   -1    0    0  501  503 -0.00000000000E+00 -0.00000000000E+00 -0.76170300897E+03  0.76170300897E+03  0.00000000000E+00 0.  1.
          6    1    1    2  501    0  0.11961419557E+03 -0.86520485835E+02 -0.53645527349E+03  0.58267195806E+03  0.17300000000E+03 0.  1.
         -6    1    1    2    0  502 -0.11961419557E+03  0.86520485835E+02 -0.13817072604E+03  0.26610806035E+03  0.17300000000E+03 0.  1.
<mgrwt>
<rscale>  2 0.22742548E+03</rscale>
<asrwt>0</asrwt>
<pdfrwt beam="1">  1       21 0.13396463E-01 0.22742548E+03</pdfrwt>
<pdfrwt beam="2">  1       21 0.11718507E+00 0.22742548E+03</pdfrwt>
<totfact> 0.26426431E+04</totfact>
</mgrwt>
</event>
<event>
 4    3  0.3906307E+000  0.1841448E+03  0.7546771E-02  0.1163851E+00
         21   -1    0    0  503  502  0.00000000000E+00  0.00000000000E+00  0.86182695361E+02  0.86182695361E+02  0.00000000000E+00 0.  1.
         21   -1    0    0  501  503 -0.00000000000E+00 -0.00000000000E+00 -0.44422268029E+03  0.44422268029E+03  0.00000000000E+00 0.  1.
          6    1    1    2  501    0 -0.61768566346E+02  0.12843249638E+02 -0.26867131537E+03  0.32572009541E+03  0.17300000000E+03 0.  1.
         -6    1    1    2    0  502  0.61768566346E+02 -0.12843249638E+02 -0.89368669558E+02  0.20468528024E+03  0.17300000000E+03 0.  1.
<mgrwt>
<rscale>  2 0.18414479E+03</rscale>
<asrwt>0</asrwt>
<pdfrwt beam="1">  1       21 0.13258876E-01 0.18414479E+03</pdfrwt>
<pdfrwt beam="2">  1       21 0.68341950E-01 0.18414479E+03</pdfrwt>
<totfact> 0.96138776E+04</totfact>
</mgrwt>
</event>
<event>
 4    3  0.3906307E+000  0.1842765E+03  0.7546771E-02  0.1163727E+00
         21   -1    0    0  501  502  0.00000000000E+00  0.00000000000E+00  0.14441145856E+03  0.14441145856E+03  0.00000000000E+00 0. -1.
         21   -1    0    0  502  503 -0.00000000000E+00 -0.00000000000E+00 -0.40103550931E+03  0.40103550931E+03  0.00000000000E+00 0. -1.
          6    1    1    2  501    0  0.57947061483E+02 -0.25903363522E+02  0.47092161077E+02  0.19019862726E+03  0.17300000000E+03 0. -1.
         -6    1    1    2    0  503 -0.57947061483E+02  0.25903363522E+02 -0.30371621183E+03  0.35524834061E+03  0.17300000000E+03 0. -1.
<mgrwt>
<rscale>  2 0.18427655E+03</rscale>
<asrwt>0</asrwt>
<pdfrwt beam="1">  1       21 0.22217148E-01 0.18427655E+03</pdfrwt>
<pdfrwt beam="2">  1       21 0.61697770E-01 0.18427655E+03</pdfrwt>
<totfact> 0.46425497E+04</totfact>
</mgrwt>
</event>
<event>
 4    3  0.3906307E+000  0.1838697E+03  0.7546771E-02  0.1164110E+00
         21   -1    0    0  503  502  0.00000000000E+00  0.00000000000E+00  0.37834371869E+03  0.37834371869E+03  0.00000000000E+00 0. -1.
         21   -1    0    0  501  503 -0.00000000000E+00 -0.00000000000E+00 -0.89393648450E+02  0.89393648450E+02  0.00000000000E+00 0. -1.
          6    1    1    2  501    0  0.10232359820E+02  0.61435908143E+02  0.13981068373E+03  0.23098722753E+03  0.17300000000E+03 0. -1.
         -6    1    1    2    0  502 -0.10232359820E+02 -0.61435908143E+02  0.14913938651E+03  0.23675013961E+03  0.17300000000E+03 0. -1.
<mgrwt>
<rscale>  2 0.18386971E+03</rscale>
<asrwt>0</asrwt>
<pdfrwt beam="1">  1       21 0.58206725E-01 0.18386971E+03</pdfrwt>
<pdfrwt beam="2">  1       21 0.13752869E-01 0.18386971E+03</pdfrwt>
<totfact> 0.12736957E+05</totfact>
</mgrwt>
</event>
<event>
 4    3  0.3906307E+000  0.2070779E+03  0.7546771E-02  0.1143901E+00
         21   -1    0    0  501  502  0.00000000000E+00  0.00000000000E+00  0.49792081520E+03  0.49792081520E+03  0.00000000000E+00 0.  1.
         21   -1    0    0  502  503 -0.00000000000E+00 -0.00000000000E+00 -0.14138446180E+03  0.14138446180E+03  0.00000000000E+00 0.  1.
          6    1    1    2  501    0 -0.57536213590E+02  0.98192808606E+02  0.37811536112E+03  0.43110610046E+03  0.17300000000E+03 0.  1.
         -6    1    1    2    0  503  0.57536213590E+02 -0.98192808606E+02 -0.21579007720E+02  0.20819917654E+03  0.17300000000E+03 0.  1.
<mgrwt>
<rscale>  2 0.20707787E+03</rscale>
<asrwt>0</asrwt>
<pdfrwt beam="1">  1       21 0.76603202E-01 0.20707787E+03</pdfrwt>
<pdfrwt beam="2">  1       21 0.21751456E-01 0.20707787E+03</pdfrwt>
<totfact> 0.29666014E+04</totfact>
</mgrwt>
</event>
<event>
 4    3  0.3906307E+000  0.1926379E+03  0.7546771E-02  0.1156103E+00
         21   -1    0    0  503  502  0.00000000000E+00  0.00000000000E+00  0.43123317657E+03  0.43123317657E+03  0.00000000000E+00 0.  1.
         21   -1    0    0  501  503 -0.00000000000E+00 -0.00000000000E+00 -0.34458485025E+03  0.34458485025E+03  0.00000000000E+00 0.  1.
          6    1    1    2  501    0 -0.80558367306E+02 -0.26281645098E+02 -0.29267477037E+03  0.35038250045E+03  0.17300000000E+03 0.  1.
         -6    1    1    2    0  502  0.80558367306E+02  0.26281645098E+02  0.37932309669E+03  0.42543552637E+03  0.17300000000E+03 0.  1.
<mgrwt>
<rscale>  2 0.19263794E+03</rscale>
<asrwt>0</asrwt>
<pdfrwt beam="1">  1       21 0.66343566E-01 0.19263794E+03</pdfrwt>
<pdfrwt beam="2">  1       21 0.53013054E-01 0.19263794E+03</pdfrwt>
<totfact> 0.70269468E+03</totfact>
</mgrwt>
</event>
<event>
 4    3  0.3906307E+000  0.3251468E+03  0.7546771E-02  0.1073305E+00
         21   -1    0    0  501  502  0.00000000000E+00  0.00000000000E+00  0.18229607610E+03  0.18229607610E+03  0.00000000000E+00 0.  1.
         21   -1    0    0  502  503 -0.00000000000E+00 -0.00000000000E+00 -0.58454205409E+03  0.58454205409E+03  0.00000000000E+00 0.  1.
          6    1    1    2  501    0  0.21436885363E+03  0.17273516002E+03 -0.16709540758E+03  0.36556985126E+03  0.17300000000E+03 0.  1.
         -6    1    1    2    0  503 -0.21436885363E+03 -0.17273516002E+03 -0.23515057041E+03  0.40126827893E+03  0.17300000000E+03 0.  1.
<mgrwt>
<rscale>  2 0.32514680E+03</rscale>
<asrwt>0</asrwt>
<pdfrwt beam="1">  1       21 0.28045551E-01 0.32514680E+03</pdfrwt>
<pdfrwt beam="2">  1       21 0.89929545E-01 0.32514680E+03</pdfrwt>
<totfact> 0.11917711E+04</totfact>
</mgrwt>
</event>
<event>
 4    3  0.3906307E+000  0.1851047E+03  0.7546771E-02  0.1162952E+00
         21   -1    0    0  503  502  0.00000000000E+00  0.00000000000E+00  0.68661672896E+03  0.68661672896E+03  0.00000000000E+00 0. -1.
         21   -1    0    0  501  503 -0.00000000000E+00 -0.00000000000E+00 -0.16017743879E+03  0.16017743879E+03  0.00000000000E+00 0. -1.
          6    1    1    2  501    0 -0.51791587697E+02  0.40649514566E+02 -0.88086707733E+02  0.20499516987E+03  0.17300000000E+03 0. -1.
         -6    1    1    2    0  502  0.51791587697E+02 -0.40649514566E+02  0.61452599790E+03  0.64179899788E+03  0.17300000000E+03 0. -1.
<mgrwt>
<rscale>  2 0.18510470E+03</rscale>
<asrwt>0</asrwt>
<pdfrwt beam="1">  1       21 0.10563334E+00 0.18510470E+03</pdfrwt>
<pdfrwt beam="2">  1       21 0.24642683E-01 0.18510470E+03</pdfrwt>
<totfact> 0.11270319E+04</totfact>
</mgrwt>
</event>
<event>
 4    3  0.3906307E+000  0.1996399E+03  0.7546771E-02  0.1150043E+00
         21   -1    0    0  503  502  0.00000000000E+00  0.00000000000E+00  0.10473214359E+04  0.10473214359E+04  0.00000000000E+00 0.  1.
         21   -1    0    0  501  503 -0.00000000000E+00 -0.00000000000E+00 -0.38073863872E+02  0.38073863872E+02  0.00000000000E+00 0.  1.
          6    1    1    2  501    0 -0.25167076876E+02 -0.96403940411E+02  0.51661637768E+03  0.55384888116E+03  0.17300000000E+03 0.  1.
         -6    1    1    2    0  502  0.25167076876E+02  0.96403940411E+02  0.49263119435E+03  0.53154641860E+03  0.17300000000E+03 0.  1.
<mgrwt>
<rscale>  2 0.19963993E+03</rscale>
<asrwt>0</asrwt>
<pdfrwt beam="1">  1       21 0.16112635E+00 0.19963993E+03</pdfrwt>
<pdfrwt beam="2">  1       21 0.58575183E-02 0.19963993E+03</pdfrwt>
<totfact> 0.50534025E+04</totfact>
</mgrwt>
</event>
<event>
 4    3  0.3906307E+000  0.2315918E+03  0.7546771E-02  0.1125524E+00
         21   -1    0    0  501  502  0.00000000000E+00  0.00000000000E+00  0.49708938455E+03  0.49708938455E+03  0.00000000000E+00 0. -1.
         21   -1    0    0  502  503 -0.00000000000E+00 -0.00000000000E+00 -0.19067300860E+03  0.19067300860E+03  0.00000000000E+00 0. -1.
          6    1    1    2  501    0 -0.55826078430E+02 -0.14348933649E+03  0.37978452086E+03  0.44482695850E+03  0.17300000000E+03 0. -1.
         -6    1    1    2    0  503  0.55826078430E+02  0.14348933649E+03 -0.73368144920E+02  0.24293543465E+03  0.17300000000E+03 0. -1.
<mgrwt>
<rscale>  2 0.23159175E+03</rscale>
<asrwt>0</asrwt>
<pdfrwt beam="1">  1       21 0.76475290E-01 0.23159175E+03</pdfrwt>
<pdfrwt beam="2">  1       21 0.29334309E-01 0.23159175E+03</pdfrwt>
<totfact> 0.16555453E+04</totfact>
</mgrwt>
</event>
<event>
 4    3  0.3906307E+000  0.1881949E+03  0.7546771E-02  0.1160100E+00
         21   -1    0    0  501  502  0.00000000000E+00  0.00000000000E+00  0.48795885682E+02  0.48795885682E+02  0.00000000000E+00 0. -1.
         21   -1    0    0  502  503 -0.00000000000E+00 -0.00000000000E+00 -0.10849818749E+04  0.10849818749E+04  0.00000000000E+00 0. -1.
          6    1    1    2  501    0  0.72421397609E+02 -0.15603819521E+02 -0.19193502710E+03  0.26880549222E+03  0.17300000000E+03 0. -1.
         -6    1    1    2    0  503 -0.72421397609E+02  0.15603819521E+02 -0.84425096215E+03  0.86497226841E+03  0.17300000000E+03 0. -1.
<mgrwt>
<rscale>  2 0.18819495E+03</rscale>
<asrwt>0</asrwt>
<pdfrwt beam="1">  1       21 0.75070593E-02 0.18819495E+03</pdfrwt>
<pdfrwt beam="2">  1       21 0.16692029E+00 0.18819495E+03</pdfrwt>
<totfact> 0.30155471E+04</totfact>
</mgrwt>
</event>
<event>
 4    3  0.3906307E+000  0.1902038E+03  0.7546771E-02  0.1158278E+00
         21   -1    0    0  501  502  0.00000000000E+00  0.00000000000E+00  0.52712938677E+03  0.52712938677E+03  0.00000000000E+00 0.  1.
         21   -1    0    0  502  503 -0.00000000000E+00 -0.00000000000E+00 -0.71637247127E+02  0.71637247127E+02  0.00000000000E+00 0.  1.
          6    1    1    2  501    0 -0.59487859709E+02  0.52054549725E+02  0.16641767033E+03  0.25272974221E+03  0.17300000000E+03 0.  1.
         -6    1    1    2    0  503  0.59487859709E+02 -0.52054549725E+02  0.28907446931E+03  0.34603689169E+03  0.17300000000E+03 0.  1.
<mgrwt>
<rscale>  2 0.19020379E+03</rscale>
<asrwt>0</asrwt>
<pdfrwt beam="1">  1       21 0.81096826E-01 0.19020379E+03</pdfrwt>
<pdfrwt beam="2">  1       21 0.11021115E-01 0.19020379E+03</pdfrwt>
<totfact> 0.91178722E+04</totfact>
</mgrwt>
</event>
<event>
 4    3  0.3906307E+000  0.1765627E+03  0.7546771E-02  0.1171172E+00
         21   -1    0    0  501  502  0.00000000000E+00  0.00000000000E+00  0.39293004604E+03  0.39293004604E+03  0.00000000000E+00 0.  1.
         21   -1    0    0  502  503 -0.00000000000E+00 -0.00000000000E+00 -0.79348791749E+02  0.79348791749E+02  0.00000000000E+00 0.  1.
          6    1    1    2  501    0 -0.59351625080E+01  0.34787369050E+02  0.15407047150E+03  0.23433330405E+03  0.17300000000E+03 0.  1.
         -6    1    1    2    0  503  0.59351625080E+01 -0.34787369050E+02  0.15951078280E+03  0.23794553374E+03  0.17300000000E+03 0.  1.
<mgrwt>
<rscale>  2 0.17656270E+03</rscale>
<asrwt>0</asrwt>
<pdfrwt beam="1">  1       21 0.60450775E-01 0.17656270E+03</pdfrwt>
<pdfrwt beam="2">  1       21 0.12207507E-01 0.17656270E+03</pdfrwt>
<totfact> 0.14589491E+05</totfact>
</mgrwt>
</event>
<event>
 4    3  0.3906307E+000  0.2085478E+03  0.7546771E-02  0.1142721E+00
         21   -1    0    0  501  502  0.00000000000E+00  0.00000000000E+00  0.25003845392E+03  0.25003845392E+03  0.00000000000E+00 0. -1.
         21   -1    0    0  502  503 -0.00000000000E+00 -0.00000000000E+00 -0.17839608778E+03  0.17839608778E+03  0.00000000000E+00 0. -1.
          6    1    1    2  501    0  0.27366332050E+02  0.11320020695E+03  0.69669605308E+02  0.21987736784E+03  0.17300000000E+03 0. -1.
         -6    1    1    2    0  503 -0.27366332050E+02 -0.11320020695E+03  0.19727608255E+01  0.20855717386E+03  0.17300000000E+03 0. -1.
<mgrwt>
<rscale>  2 0.20854784E+03</rscale>
<asrwt>0</asrwt>
<pdfrwt beam="1">  1       21 0.38467454E-01 0.20854784E+03</pdfrwt>
<pdfrwt beam="2">  1       21 0.27445552E-01 0.20854784E+03</pdfrwt>
<totfact> 0.81969451E+04</totfact>
</mgrwt>
</event>
<event>
 4    3  0.3906307E+000  0.1736530E+03  0.7546771E-02  0.1174091E+00
         21   -1    0    0  501  502  0.00000000000E+00  0.00000000000E+00  0.11695307738E+03  0.11695307738E+03  0.00000000000E+00 0.  1.
         21   -1    0    0  502  503 -0.00000000000E+00 -0.00000000000E+00 -0.67167220660E+03  0.67167220660E+03  0.00000000000E+00 0.  1.
          6    1    1    2  501    0  0.18681834734E+01  0.14928992669E+02  0.32149471291E+02  0.17660394513E+03  0.17300000000E+03 0.  1.
         -6    1    1    2    0  503 -0.18681834734E+01 -0.14928992669E+02 -0.58686860051E+03  0.61202133884E+03  0.17300000000E+03 0.  1.
<mgrwt>
<rscale>  2 0.17365300E+03</rscale>
<asrwt>0</asrwt>
<pdfrwt beam="1">  1       21 0.17992782E-01 0.17365300E+03</pdfrwt>
<pdfrwt beam="2">  1       21 0.10333418E+00 0.17365300E+03</pdfrwt>
<totfact> 0.21583124E+04</totfact>
</mgrwt>
</event>
<event>
 4    3  0.3906307E+000  0.2990533E+03  0.7546771E-02  0.1085715E+00
         21   -1    0    0  503  502  0.00000000000E+00  0.00000000000E+00  0.52777409533E+03  0.52777409533E+03  0.00000000000E+00 0.  1.
         21   -1    0    0  501  503 -0.00000000000E+00 -0.00000000000E+00 -0.34410659046E+03  0.34410659046E+03  0.00000000000E+00 0. -1.
          6    1    1    2  501    0  0.20371683101E+03 -0.13417654431E+03 -0.21874329174E+03  0.37051520881E+03  0.17300000000E+03 0. -1.
         -6    1    1    2    0  502 -0.20371683101E+03  0.13417654431E+03  0.40241079661E+03  0.50136547698E+03  0.17300000000E+03 0.  1.
<mgrwt>
<rscale>  2 0.29905333E+03</rscale>
<asrwt>0</asrwt>
<pdfrwt beam="1">  1       21 0.81196015E-01 0.29905333E+03</pdfrwt>
<pdfrwt beam="2">  1       21 0.52939475E-01 0.29905333E+03</pdfrwt>
<totfact> 0.41938785E+03</totfact>
</mgrwt>
</event>
<event>
 4    3  0.3906307E+000  0.2114151E+03  0.7546771E-02  0.1140450E+00
         21   -1    0    0  503  502  0.00000000000E+00  0.00000000000E+00  0.36243533429E+02  0.36243533429E+02  0.00000000000E+00 0. -1.
         21   -1    0    0  501  503 -0.00000000000E+00 -0.00000000000E+00 -0.15980558989E+04  0.15980558989E+04  0.00000000000E+00 0.  1.
          6    1    1    2  501    0 -0.12150724298E+03  0.18234612618E+01 -0.11713450470E+04  0.11902712104E+04  0.17300000000E+03 0.  1.
         -6    1    1    2    0  502  0.12150724298E+03 -0.18234612618E+01 -0.39046731852E+03  0.44402822201E+03  0.17300000000E+03 0. -1.
<mgrwt>
<rscale>  2 0.21141508E+03</rscale>
<asrwt>0</asrwt>
<pdfrwt beam="1">  1       21 0.55759272E-02 0.21141508E+03</pdfrwt>
<pdfrwt beam="2">  1       21 0.24585480E+00 0.21141508E+03</pdfrwt>
<totfact> 0.15465772E+04</totfact>
</mgrwt>
</event>
<event>
 4    3  0.3906307E+000  0.1854852E+03  0.7546771E-02  0.1162598E+00
         21   -1    0    0  501  502  0.00000000000E+00  0.00000000000E+00  0.55883206851E+03  0.55883206851E+03  0.00000000000E+00 0. -1.
         21   -1    0    0  502  503 -0.00000000000E+00 -0.00000000000E+00 -0.63806594761E+02  0.63806594761E+02  0.00000000000E+00 0.  1.
          6    1    1    2  501    0  0.40597965970E+02 -0.53174680989E+02  0.30585850222E+03  0.35770681420E+03  0.17300000000E+03 0. -1.
         -6    1    1    2    0  503 -0.40597965970E+02  0.53174680989E+02  0.18916697152E+03  0.26493184908E+03  0.17300000000E+03 0.  1.
<mgrwt>
<rscale>  2 0.18548515E+03</rscale>
<asrwt>0</asrwt>
<pdfrwt beam="1">  1       21 0.85974161E-01 0.18548515E+03</pdfrwt>
<pdfrwt beam="2">  1       21 0.98163996E-02 0.18548515E+03</pdfrwt>
<totfact> 0.98158301E+04</totfact>
</mgrwt>
</event>
<event>
 4    3  0.3906307E+000  0.1923455E+03  0.7546771E-02  0.1156363E+00
         21   -1    0    0  501  502  0.00000000000E+00  0.00000000000E+00  0.25455620200E+03  0.25455620200E+03  0.00000000000E+00 0.  1.
         21   -1    0    0  502  503 -0.00000000000E+00 -0.00000000000E+00 -0.19838055034E+03  0.19838055034E+03  0.00000000000E+00 0. -1.
          6    1    1    2  501    0  0.31667520447E+02  0.77877939748E+02 -0.89015263585E+02  0.21194462131E+03  0.17300000000E+03 0. -1.
         -6    1    1    2    0  503 -0.31667520447E+02 -0.77877939748E+02  0.14519091525E+03  0.24099213103E+03  0.17300000000E+03 0.  1.
<mgrwt>
<rscale>  2 0.19234554E+03</rscale>
<asrwt>0</asrwt>
<pdfrwt beam="1">  1       21 0.39162493E-01 0.19234554E+03</pdfrwt>
<pdfrwt beam="2">  1       21 0.30520084E-01 0.19234554E+03</pdfrwt>
<totfact> 0.64790651E+04</totfact>
</mgrwt>
</event>
<event>
 4    3  0.3906307E+000  0.2874871E+03  0.7546771E-02  0.1091669E+00
         21   -1    0    0  503  502  0.00000000000E+00  0.00000000000E+00  0.81615902570E+03  0.81615902570E+03  0.00000000000E+00 0. -1.
         21   -1    0    0  501  503 -0.00000000000E+00 -0.00000000000E+00 -0.10136095334E+03  0.10136095334E+03  0.00000000000E+00 0.  1.
          6    1    1    2  501    0 -0.16961493098E+03  0.15475975031E+03  0.34332569857E+03  0.44779609246E+03  0.17300000000E+03 0. -1.
         -6    1    1    2    0  502  0.16961493098E+03 -0.15475975031E+03  0.37147237379E+03  0.46972388657E+03  0.17300000000E+03 0.  1.
<mgrwt>
<rscale>  2 0.28748705E+03</rscale>
<asrwt>0</asrwt>
<pdfrwt beam="1">  1       21 0.12556292E+00 0.28748705E+03</pdfrwt>
<pdfrwt beam="2">  1       21 0.15593993E-01 0.28748705E+03</pdfrwt>
<totfact> 0.16345040E+04</totfact>
</mgrwt>
</event>
<event>
 4    3  0.3906307E+000  0.2174244E+03  0.7546771E-02  0.1135818E+00
         21   -1    0    0  501  502  0.00000000000E+00  0.00000000000E+00  0.36995553960E+03  0.36995553960E+03  0.00000000000E+00 0.  1.
         21   -1    0    0  502  503 -0.00000000000E+00 -0.00000000000E+00 -0.14340498045E+03  0.14340498045E+03  0.00000000000E+00 0.  1.
          6    1    1    2  501    0  0.99670575344E+02 -0.86082088285E+02  0.19799878494E+03  0.29406949578E+03  0.17300000000E+03 0.  1.
         -6    1    1    2    0  503 -0.99670575344E+02  0.86082088285E+02  0.28551774220E+02  0.21929102427E+03  0.17300000000E+03 0.  1.
<mgrwt>
<rscale>  2 0.21742435E+03</rscale>
<asrwt>0</asrwt>
<pdfrwt beam="1">  1       21 0.56916236E-01 0.21742435E+03</pdfrwt>
<pdfrwt beam="2">  1       21 0.22062305E-01 0.21742435E+03</pdfrwt>
<totfact> 0.55051972E+04</totfact>
</mgrwt>
</event>
<event>
 4    3  0.3906307E+000  0.2175978E+03  0.7546771E-02  0.1135687E+00
         21   -1    0    0  501  502  0.00000000000E+00  0.00000000000E+00  0.72881412015E+02  0.72881412015E+02  0.00000000000E+00 0. -1.
         21   -1    0    0  502  503 -0.00000000000E+00 -0.00000000000E+00 -0.12384297640E+04  0.12384297640E+04  0.00000000000E+00 0.  1.
          6    1    1    2  501    0  0.11621656117E+03  0.62558223118E+02 -0.13070033937E+03  0.25383340813E+03  0.17300000000E+03 0. -1.
         -6    1    1    2    0  503 -0.11621656117E+03 -0.62558223118E+02 -0.10348480126E+04  0.10574777679E+04  0.17300000000E+03 0.  1.
<mgrwt>
<rscale>  2 0.21759784E+03</rscale>
<asrwt>0</asrwt>
<pdfrwt beam="1">  1       21 0.11212525E-01 0.21759784E+03</pdfrwt>
<pdfrwt beam="2">  1       21 0.19052765E+00 0.21759784E+03</pdfrwt>
<totfact> 0.10047557E+04</totfact>
</mgrwt>
</event>
<event>
 4    3  0.3906307E+000  0.1950676E+03  0.7546771E-02  0.1153968E+00
         21   -1    0    0  503  502  0.00000000000E+00  0.00000000000E+00  0.11120642283E+03  0.11120642283E+03  0.00000000000E+00 0. -1.
         21   -1    0    0  501  503 -0.00000000000E+00 -0.00000000000E+00 -0.90335578482E+03  0.90335578482E+03  0.00000000000E+00 0. -1.
          6    1    1    2  501    0  0.54773052144E+02  0.71570101289E+02 -0.79590255797E+03  0.81945850928E+03  0.17300000000E+03 0. -1.
         -6    1    1    2    0  502 -0.54773052144E+02 -0.71570101289E+02  0.37531959821E+01  0.19510369838E+03  0.17300000000E+03 0. -1.
<mgrwt>
<rscale>  2 0.19506760E+03</rscale>
<asrwt>0</asrwt>
<pdfrwt beam="1">  1       21 0.17108680E-01 0.19506760E+03</pdfrwt>
<pdfrwt beam="2">  1       21 0.13897782E+00 0.19506760E+03</pdfrwt>
<totfact> 0.11224298E+04</totfact>
</mgrwt>
</event>
<event>
 4    3  0.3906307E+000  0.2180466E+03  0.7546771E-02  0.1135348E+00
         21   -1    0    0  503  502  0.00000000000E+00  0.00000000000E+00  0.29305011711E+03  0.29305011711E+03  0.00000000000E+00 0. -1.
         21   -1    0    0  501  503 -0.00000000000E+00 -0.00000000000E+00 -0.16265359515E+03  0.16265359515E+03  0.00000000000E+00 0. -1.
          6    1    1    2  501    0 -0.13014895352E+03 -0.26011233126E+02  0.76693482465E+02  0.23114113568E+03  0.17300000000E+03 0. -1.
         -6    1    1    2    0  502  0.13014895352E+03  0.26011233126E+02  0.53703039495E+02  0.22456257659E+03  0.17300000000E+03 0. -1.
<mgrwt>
<rscale>  2 0.21804663E+03</rscale>
<asrwt>0</asrwt>
<pdfrwt beam="1">  1       21 0.45084633E-01 0.21804663E+03</pdfrwt>
<pdfrwt beam="2">  1       21 0.25023630E-01 0.21804663E+03</pdfrwt>
<totfact> 0.70585457E+04</totfact>
</mgrwt>
</event>
<event>
 4    3  0.3906307E+000  0.2778790E+03  0.7546771E-02  0.1096853E+00
         21   -1    0    0  501  502  0.00000000000E+00  0.00000000000E+00  0.40880638975E+03  0.40880638975E+03  0.00000000000E+00 0. -1.
         21   -1    0    0  502  503 -0.00000000000E+00 -0.00000000000E+00 -0.22555969198E+03  0.22555969198E+03  0.00000000000E+00 0.  1.
          6    1    1    2  501    0 -0.21736982315E+03  0.61722404727E+01  0.21952377301E+03  0.35412910567E+03  0.17300000000E+03 0.  1.
         -6    1    1    2    0  503  0.21736982315E+03 -0.61722404727E+01 -0.36277075233E+02  0.28023697607E+03  0.17300000000E+03 0. -1.
<mgrwt>
<rscale>  2 0.27787900E+03</rscale>
<asrwt>0</asrwt>
<pdfrwt beam="1">  1       21 0.62893291E-01 0.27787900E+03</pdfrwt>
<pdfrwt beam="2">  1       21 0.34701491E-01 0.27787900E+03</pdfrwt>
<totfact> 0.17914153E+04</totfact>
</mgrwt>
</event>
<event>
 4    3  0.3906307E+000  0.1877758E+03  0.7546771E-02  0.1160483E+00
         21   -1    0    0  501  502  0.00000000000E+00  0.00000000000E+00  0.27825348430E+02  0.27825348430E+02  0.00000000000E+00 0.  1.
         21   -1    0    0  502  503 -0.00000000000E+00 -0.00000000000E+00 -0.12681918072E+04  0.12681918072E+04  0.00000000000E+00 0.  1.
          6    1    1    2  501    0 -0.69783431791E+02 -0.21471033924E+02 -0.63848437730E+03  0.66552387839E+03  0.17300000000E+03 0. -1.
         -6    1    1    2    0  503  0.69783431791E+02  0.21471033924E+02 -0.60188208144E+03  0.63049327721E+03  0.17300000000E+03 0. -1.
<mgrwt>
<rscale>  2 0.18777575E+03</rscale>
<asrwt>0</asrwt>
<pdfrwt beam="1">  1       21 0.42808224E-02 0.18777575E+03</pdfrwt>
<pdfrwt beam="2">  1       21 0.19510645E+00 0.18777575E+03</pdfrwt>
<totfact> 0.50651977E+04</totfact>
</mgrwt>
</event>
<event>
 4    3  0.3906307E+000  0.1732584E+03  0.7546771E-02  0.1174492E+00
         21   -1    0    0  503  502  0.00000000000E+00  0.00000000000E+00  0.98330630739E+02  0.98330630739E+02  0.00000000000E+00 0.  1.
         21   -1    0    0  501  503 -0.00000000000E+00 -0.00000000000E+00 -0.33912649291E+03  0.33912649291E+03  0.00000000000E+00 0.  1.
          6    1    1    2  501    0  0.52315140083E+01 -0.78799158148E+01 -0.18949757481E+03  0.25676407979E+03  0.17300000000E+03 0.  1.
         -6    1    1    2    0  502 -0.52315140083E+01  0.78799158148E+01 -0.51298287361E+02  0.18069304386E+03  0.17300000000E+03 0.  1.
<mgrwt>
<rscale>  2 0.17325837E+03</rscale>
<asrwt>0</asrwt>
<pdfrwt beam="1">  1       21 0.15127790E-01 0.17325837E+03</pdfrwt>
<pdfrwt beam="2">  1       21 0.52173306E-01 0.17325837E+03</pdfrwt>
<totfact> 0.13555311E+05</totfact>
</mgrwt>
</event>
<event>
 4    3  0.3906307E+000  0.1979900E+03  0.7546771E-02  0.1151446E+00
         21   -1    0    0  503  502  0.00000000000E+00  0.00000000000E+00  0.41328220581E+03  0.41328220581E+03  0.00000000000E+00 0. -1.
         21   -1    0    0  501  503 -0.00000000000E+00 -0.00000000000E+00 -0.18296893381E+03  0.18296893381E+03  0.00000000000E+00 0.  1.
          6    1    1    2  501    0  0.87148461580E+02 -0.40941373803E+02 -0.91735400262E+02  0.21820961048E+03  0.17300000000E+03 0.  1.
         -6    1    1    2    0  502 -0.87148461580E+02  0.40941373803E+02  0.32204867227E+03  0.37804152914E+03  0.17300000000E+03 0. -1.
<mgrwt>
<rscale>  2 0.19799003E+03</rscale>
<asrwt>0</asrwt>
<pdfrwt beam="1">  1       21 0.63581878E-01 0.19799003E+03</pdfrwt>
<pdfrwt beam="2">  1       21 0.28149067E-01 0.19799003E+03</pdfrwt>
<totfact> 0.27489779E+04</totfact>
</mgrwt>
</event>
<event>
 4    3  0.3906307E+000  0.2024234E+03  0.7546771E-02  0.1147710E+00
         21   -1    0    0  503  502  0.00000000000E+00  0.00000000000E+00  0.15359373777E+03  0.15359373777E+03  0.00000000000E+00 0. -1.
         21   -1    0    0  501  503 -0.00000000000E+00 -0.00000000000E+00 -0.36942010997E+03  0.36942010997E+03  0.00000000000E+00 0. -1.
          6    1    1    2  501    0  0.99858371060E+01 -0.10462564250E+03  0.29930952159E+02  0.20462429941E+03  0.17300000000E+03 0. -1.
         -6    1    1    2    0  502 -0.99858371060E+01  0.10462564250E+03 -0.24575732436E+03  0.31838954833E+03  0.17300000000E+03 0. -1.
<mgrwt>
<rscale>  2 0.20242342E+03</rscale>
<asrwt>0</asrwt>
<pdfrwt beam="1">  1       21 0.23629806E-01 0.20242342E+03</pdfrwt>
<pdfrwt beam="2">  1       21 0.56833863E-01 0.20242342E+03</pdfrwt>
<totfact> 0.48826195E+04</totfact>
</mgrwt>
</event>
<event>
 4    3  0.3906307E+000  0.4087476E+03  0.7546771E-02  0.1040792E+00
         21   -1    0    0  503  502  0.00000000000E+00  0.00000000000E+00  0.70969831629E+03  0.70969831629E+03  0.00000000000E+00 0. -1.
         21   -1    0    0  501  503 -0.00000000000E+00 -0.00000000000E+00 -0.23543272460E+03  0.23543272460E+03  0.00000000000E+00 0. -1.
          6    1    1    2  501    0 -0.35799908498E+03 -0.94774718651E+02  0.23319256154E+03  0.47058831573E+03  0.17300000000E+03 0. -1.
         -6    1    1    2    0  502  0.35799908498E+03  0.94774718651E+02  0.24107303015E+03  0.47454272517E+03  0.17300000000E+03 0. -1.
<mgrwt>
<rscale>  2 0.40874759E+03</rscale>
<asrwt>0</asrwt>
<pdfrwt beam="1">  1       21 0.10918436E+00 0.40874759E+03</pdfrwt>
<pdfrwt beam="2">  1       21 0.36220420E-01 0.40874759E+03</pdfrwt>
<totfact> 0.43388109E+03</totfact>
</mgrwt>
</event>
<event>
 4    3  0.3906307E+000  0.3584717E+03  0.7546771E-02  0.1059191E+00
         21   -1    0    0  503  502  0.00000000000E+00  0.00000000000E+00  0.79743456122E+03  0.79743456122E+03  0.00000000000E+00 0. -1.
         21   -1    0    0  501  503 -0.00000000000E+00 -0.00000000000E+00 -0.16120313892E+03  0.16120313892E+03  0.00000000000E+00 0. -1.
          6    1    1    2  501    0  0.30764413742E+03  0.62673924878E+02  0.30894879498E+03  0.47323492482E+03  0.17300000000E+03 0. -1.
         -6    1    1    2    0  502 -0.30764413742E+03 -0.62673924878E+02  0.32728262731E+03  0.48540277532E+03  0.17300000000E+03 0. -1.
<mgrwt>
<rscale>  2 0.35847167E+03</rscale>
<asrwt>0</asrwt>
<pdfrwt beam="1">  1       21 0.12268224E+00 0.35847167E+03</pdfrwt>
<pdfrwt beam="2">  1       21 0.24800483E-01 0.35847167E+03</pdfrwt>
<totfact> 0.70018956E+03</totfact>
</mgrwt>
</event>
<event>
 4    3  0.3906307E+000  0.2019380E+03  0.7546771E-02  0.1148114E+00
         21   -1    0    0  503  502  0.00000000000E+00  0.00000000000E+00  0.18881951276E+04  0.18881951276E+04  0.00000000000E+00 0. -1.
         21   -1    0    0  501  503 -0.00000000000E+00 -0.00000000000E+00 -0.21905229949E+02  0.21905229949E+02  0.00000000000E+00 0. -1.
          6    1    1    2  501    0 -0.10401489343E+03  0.55540413654E+01  0.81981605287E+03  0.84432061800E+03  0.17300000000E+03 0. -1.
         -6    1    1    2    0  502  0.10401489343E+03 -0.55540413654E+01  0.10464738448E+04  0.10657797396E+04  0.17300000000E+03 0. -1.
<mgrwt>
<rscale>  2 0.20193797E+03</rscale>
<asrwt>0</asrwt>
<pdfrwt beam="1">  1       21 0.29049143E+00 0.20193797E+03</pdfrwt>
<pdfrwt beam="2">  1       21 0.33700369E-02 0.20193797E+03</pdfrwt>
<totfact> 0.20020353E+04</totfact>
</mgrwt>
</event>
<event>
 4    3  0.3906307E+000  0.1969651E+03  0.7546771E-02  0.1152325E+00
         21   -1    0    0  503  502  0.00000000000E+00  0.00000000000E+00  0.37109071922E+03  0.37109071922E+03  0.00000000000E+00 0.  1.
         21   -1    0    0  501  503 -0.00000000000E+00 -0.00000000000E+00 -0.10961716032E+03  0.10961716032E+03  0.00000000000E+00 0.  1.
          6    1    1    2  501    0  0.91456925853E+02 -0.22402459910E+02  0.79028607547E+02  0.21222808558E+03  0.17300000000E+03 0.  1.
         -6    1    1    2    0  502 -0.91456925853E+02  0.22402459910E+02  0.18244495135E+03  0.26847979397E+03  0.17300000000E+03 0.  1.
<mgrwt>
<rscale>  2 0.19696507E+03</rscale>
<asrwt>0</asrwt>
<pdfrwt beam="1">  1       21 0.57090879E-01 0.19696507E+03</pdfrwt>
<pdfrwt beam="2">  1       21 0.16864179E-01 0.19696507E+03</pdfrwt>
<totfact> 0.91076009E+04</totfact>
</mgrwt>
</event>
<event>
 4    3  0.3906307E+000  0.1808887E+03  0.7546771E-02  0.1166946E+00
         21   -1    0    0  501  502  0.00000000000E+00  0.00000000000E+00  0.17984684476E+04  0.17984684476E+04  0.00000000000E+00 0. -1.
         21   -1    0    0  502  503 -0.00000000000E+00 -0.00000000000E+00 -0.18869886521E+02  0.18869886521E+02  0.00000000000E+00 0. -1.
          6    1    1    2  501    0  0.36163777813E+02  0.38521593200E+02  0.10618140461E+04  0.10771117864E+04  0.17300000000E+03 0. -1.
         -6    1    1    2    0  503 -0.36163777813E+02 -0.38521593200E+02  0.71778451506E+03  0.74022654778E+03  0.17300000000E+03 0. -1.
<mgrwt>
<rscale>  2 0.18088873E+03</rscale>
<asrwt>0</asrwt>
<pdfrwt beam="1">  1       21 0.27668732E+00 0.18088873E+03</pdfrwt>
<pdfrwt beam="2">  1       21 0.29030609E-02 0.18088873E+03</pdfrwt>
<totfact> 0.31402406E+04</totfact>
</mgrwt>
</event>
<event>
 4    3  0.3906307E+000  0.2289817E+03  0.7546771E-02  0.1127359E+00
         21   -1    0    0  503  502  0.00000000000E+00  0.00000000000E+00  0.38276854173E+02  0.38276854173E+02  0.00000000000E+00 0. -1.
         21   -1    0    0  501  503 -0.00000000000E+00 -0.00000000000E+00 -0.13719138249E+04  0.13719138249E+04  0.00000000000E+00 0.  1.
          6    1    1    2  501    0  0.14954760586E+03 -0.11794951008E+02 -0.69432865628E+03  0.73111209142E+03  0.17300000000E+03 0.  1.
         -6    1    1    2    0  502 -0.14954760586E+03  0.11794951008E+02 -0.63930831445E+03  0.67907858766E+03  0.17300000000E+03 0.  1.
<mgrwt>
<rscale>  2 0.22898167E+03</rscale>
<asrwt>0</asrwt>
<pdfrwt beam="1">  1       21 0.58887467E-02 0.22898167E+03</pdfrwt>
<pdfrwt beam="2">  1       21 0.21106367E+00 0.22898167E+03</pdfrwt>
<totfact> 0.22657923E+04</totfact>
</mgrwt>
</event>
<event>
 4    3  0.3906307E+000  0.1851099E+03  0.7546771E-02  0.1162947E+00
         21   -1    0    0  501  502  0.00000000000E+00  0.00000000000E+00  0.74216483963E+02  0.74216483963E+02  0.00000000000E+00 0. -1.
         21   -1    0    0  502  503 -0.00000000000E+00 -0.00000000000E+00 -0.88939035334E+03  0.88939035334E+03  0.00000000000E+00 0. -1.
          6    1    1    2  501    0 -0.62220077230E+02 -0.21571487459E+02 -0.73477323520E+02  0.19915969510E+03  0.17300000000E+03 0. -1.
         -6    1    1    2    0  503  0.62220077230E+02  0.21571487459E+02 -0.74169654586E+03  0.76444714220E+03  0.17300000000E+03 0. -1.
<mgrwt>
<rscale>  2 0.18510988E+03</rscale>
<asrwt>0</asrwt>
<pdfrwt beam="1">  1       21 0.11417920E-01 0.18510988E+03</pdfrwt>
<pdfrwt beam="2">  1       21 0.13682929E+00 0.18510988E+03</pdfrwt>
<totfact> 0.24458817E+04</totfact>
</mgrwt>
</event>
<event>
 4    3  0.3906307E+000  0.2087062E+03  0.7546771E-02  0.1142595E+00
         21   -1    0    0  503  502  0.00000000000E+00  0.00000000000E+00  0.21128613003E+03  0.21128613003E+03  0.00000000000E+00 0.  1.
         21   -1    0    0  501  503 -0.00000000000E+00 -0.00000000000E+00 -0.22643479306E+03  0.22643479306E+03  0.00000000000E+00 0.  1.
          6    1    1    2  501    0  0.31258090400E+02 -0.11248205112E+03 -0.73067755331E+02  0.22112706055E+03  0.17300000000E+03 0.  1.
         -6    1    1    2    0  502 -0.31258090400E+02  0.11248205112E+03  0.57919092300E+02  0.21659386255E+03  0.17300000000E+03 0.  1.
<mgrwt>
<rscale>  2 0.20870621E+03</rscale>
<asrwt>0</asrwt>
<pdfrwt beam="1">  1       21 0.32505558E-01 0.20870621E+03</pdfrwt>
<pdfrwt beam="2">  1       21 0.34836122E-01 0.20870621E+03</pdfrwt>
<totfact> 0.71830732E+04</totfact>
</mgrwt>
</event>
<event>
 4    3  0.3906307E+000  0.1733627E+03  0.7546771E-02  0.1174386E+00
         21   -1    0    0  501  502  0.00000000000E+00  0.00000000000E+00  0.10668213424E+04  0.10668213424E+04  0.00000000000E+00 0. -1.
         21   -1    0    0  502  503 -0.00000000000E+00 -0.00000000000E+00 -0.64471910414E+02  0.64471910414E+02  0.00000000000E+00 0. -1.
          6    1    1    2  501    0  0.61987940782E+01  0.93380515606E+01  0.92561046900E+03  0.94170556151E+03  0.17300000000E+03 0. -1.
         -6    1    1    2    0  503 -0.61987940782E+01 -0.93380515606E+01  0.76738962989E+02  0.18958769131E+03  0.17300000000E+03 0. -1.
<mgrwt>
<rscale>  2 0.17336270E+03</rscale>
<asrwt>0</asrwt>
<pdfrwt beam="1">  1       21 0.16412635E+00 0.17336270E+03</pdfrwt>
<pdfrwt beam="2">  1       21 0.99187562E-02 0.17336270E+03</pdfrwt>
<totfact> 0.19607766E+04</totfact>
</mgrwt>
</event>
<event>
 4    3  0.3906307E+000  0.2391489E+03  0.7546771E-02  0.1120361E+00
         21   -1    0    0  501  502  0.00000000000E+00  0.00000000000E+00  0.70011972593E+03  0.70011972593E+03  0.00000000000E+00 0. -1.
         21   -1    0    0  502  503 -0.00000000000E+00 -0.00000000000E+00 -0.81721079779E+02  0.81721079779E+02  0.00000000000E+00 0.  1.
          6    1    1    2  501    0  0.13101209596E+03 -0.10049403418E+03  0.31692044002E+03  0.39702743671E+03  0.17300000000E+03 0. -1.
         -6    1    1    2    0  503 -0.13101209596E+03  0.10049403418E+03  0.30147820613E+03  0.38481336900E+03  0.17300000000E+03 0.  1.
<mgrwt>
<rscale>  2 0.23914895E+03</rscale>
<asrwt>0</asrwt>
<pdfrwt beam="1">  1       21 0.10771072E+00 0.23914895E+03</pdfrwt>
<pdfrwt beam="2">  1       21 0.12572474E-01 0.23914895E+03</pdfrwt>
<totfact> 0.36206915E+04</totfact>
</mgrwt>
</event>
<event>
 4    3  0.3906307E+000  0.2214585E+03  0.7546771E-02  0.1132800E+00
         21   -1    0    0  501  502  0.00000000000E+00  0.00000000000E+00  0.12676500281E+03  0.12676500281E+03  0.00000000000E+00 0.  1.
         21   -1    0    0  502  503 -0.00000000000E+00 -0.00000000000E+00 -0.42036856969E+03  0.42036856969E+03  0.00000000000E+00 0.  1.
          6    1    1    2  501    0  0.13779502432E+03 -0.11286541437E+02 -0.69596884835E+02  0.23213698784E+03  0.17300000000E+03 0.  1.
         -6    1    1    2    0  503 -0.13779502432E+03  0.11286541437E+02 -0.22400668205E+03  0.31499658466E+03  0.17300000000E+03 0.  1.
<mgrwt>
<rscale>  2 0.22145847E+03</rscale>
<asrwt>0</asrwt>
<pdfrwt beam="1">  1       21 0.19502309E-01 0.22145847E+03</pdfrwt>
<pdfrwt beam="2">  1       21 0.64672086E-01 0.22145847E+03</pdfrwt>
<totfact> 0.52595621E+04</totfact>
</mgrwt>
</event>
<event>
 4    3  0.3906307E+000  0.3138387E+03  0.7546771E-02  0.1078520E+00
         21   -1    0    0  503  502  0.00000000000E+00  0.00000000000E+00  0.15636039484E+03  0.15636039484E+03  0.00000000000E+00 0.  1.
         21   -1    0    0  501  503 -0.00000000000E+00 -0.00000000000E+00 -0.63007368085E+03  0.63007368085E+03  0.00000000000E+00 0. -1.
          6    1    1    2  501    0  0.71603846180E+02  0.25187025446E+03 -0.24297265819E+03  0.39690105630E+03  0.17300000000E+03 0. -1.
         -6    1    1    2    0  502 -0.71603846180E+02 -0.25187025446E+03 -0.23074062782E+03  0.38953301939E+03  0.17300000000E+03 0.  1.
<mgrwt>
<rscale>  2 0.31383871E+03</rscale>
<asrwt>0</asrwt>
<pdfrwt beam="1">  1       21 0.24055445E-01 0.31383871E+03</pdfrwt>
<pdfrwt beam="2">  1       21 0.96934414E-01 0.31383871E+03</pdfrwt>
<totfact> 0.13503448E+04</totfact>
</mgrwt>
</event>
<event>
 4    3  0.3906307E+000  0.2174725E+03  0.7546771E-02  0.1135782E+00
         21   -1    0    0  503  502  0.00000000000E+00  0.00000000000E+00  0.20849312510E+03  0.20849312510E+03  0.00000000000E+00 0. -1.
         21   -1    0    0  501  503 -0.00000000000E+00 -0.00000000000E+00 -0.23305210549E+03  0.23305210549E+03  0.00000000000E+00 0.  1.
          6    1    1    2  501    0  0.76600305355E+02  0.10722732584E+03  0.23768751241E+02  0.21876759294E+03  0.17300000000E+03 0. -1.
         -6    1    1    2    0  502 -0.76600305355E+02 -0.10722732584E+03 -0.48327731631E+02  0.22277763764E+03  0.17300000000E+03 0.  1.
<mgrwt>
<rscale>  2 0.21747254E+03</rscale>
<asrwt>0</asrwt>
<pdfrwt beam="1">  1       21 0.32075865E-01 0.21747254E+03</pdfrwt>
<pdfrwt beam="2">  1       21 0.35854170E-01 0.21747254E+03</pdfrwt>
<totfact> 0.69369640E+04</totfact>
</mgrwt>
</event>
<event>
 4    3  0.3906307E+000  0.2638804E+03  0.7546771E-02  0.1104834E+00
         21   -1    0    0  501  502  0.00000000000E+00  0.00000000000E+00  0.10311307635E+04  0.10311307635E+04  0.00000000000E+00 0. -1.
         21   -1    0    0  502  503 -0.00000000000E+00 -0.00000000000E+00 -0.68438411876E+02  0.68438411876E+02  0.00000000000E+00 0.  1.
          6    1    1    2  501    0 -0.19578778180E+03 -0.37026838791E+02  0.54466736703E+03  0.60522341577E+03  0.17300000000E+03 0. -1.
         -6    1    1    2    0  503  0.19578778180E+03  0.37026838791E+02  0.41802498459E+03  0.49434575959E+03  0.17300000000E+03 0. -1.
<mgrwt>
<rscale>  2 0.26388036E+03</rscale>
<asrwt>0</asrwt>
<pdfrwt beam="1">  1       21 0.15863549E+00 0.26388036E+03</pdfrwt>
<pdfrwt beam="2">  1       21 0.10528987E-01 0.26388036E+03</pdfrwt>
<totfact> 0.18262473E+04</totfact>
</mgrwt>
</event>
<event>
 4    3  0.3906307E+000  0.1900933E+03  0.7546771E-02  0.1158377E+00
         21   -1    0    0  501  502  0.00000000000E+00  0.00000000000E+00  0.36789885271E+03  0.36789885271E+03  0.00000000000E+00 0. -1.
         21   -1    0    0  502  503 -0.00000000000E+00 -0.00000000000E+00 -0.12506830249E+03  0.12506830249E+03  0.00000000000E+00 0. -1.
          6    1    1    2  501    0 -0.78446627335E+02 -0.72530526702E+01  0.23561440075E+03  0.30273689229E+03  0.17300000000E+03 0. -1.
         -6    1    1    2    0  503  0.78446627335E+02  0.72530526702E+01  0.72161494773E+01  0.19023026291E+03  0.17300000000E+03 0. -1.
<mgrwt>
<rscale>  2 0.19009335E+03</rscale>
<asrwt>0</asrwt>
<pdfrwt beam="1">  1       21 0.56599823E-01 0.19009335E+03</pdfrwt>
<pdfrwt beam="2">  1       21 0.19241277E-01 0.19009335E+03</pdfrwt>
<totfact> 0.72899923E+04</totfact>
</mgrwt>
</event>
<event>
 4    3  0.3906307E+000  0.2107767E+03  0.7546771E-02  0.1140952E+00
         21   -1    0    0  503  502  0.00000000000E+00  0.00000000000E+00  0.43329975310E+03  0.43329975310E+03  0.00000000000E+00 0. -1.
         21   -1    0    0  501  503 -0.00000000000E+00 -0.00000000000E+00 -0.17109803766E+03  0.17109803766E+03  0.00000000000E+00 0. -1.
          6    1    1    2  501    0 -0.77410609257E+02 -0.92224799237E+02 -0.60204392588E+02  0.21920626110E+03  0.17300000000E+03 0. -1.
         -6    1    1    2    0  502  0.77410609257E+02  0.92224799237E+02  0.32240610804E+03  0.38519152966E+03  0.17300000000E+03 0. -1.
<mgrwt>
<rscale>  2 0.21077670E+03</rscale>
<asrwt>0</asrwt>
<pdfrwt beam="1">  1       21 0.66661500E-01 0.21077670E+03</pdfrwt>
<pdfrwt beam="2">  1       21 0.26322775E-01 0.21077670E+03</pdfrwt>
<totfact> 0.28023533E+04</totfact>
</mgrwt>
</event>
<event>
 4    3  0.3906307E+000  0.1773995E+03  0.7546771E-02  0.1170344E+00
         21   -1    0    0  503  502  0.00000000000E+00  0.00000000000E+00  0.85998098010E+03  0.85998098010E+03  0.00000000000E+00 0.  1.
         21   -1    0    0  501  503 -0.00000000000E+00 -0.00000000000E+00 -0.39507643557E+02  0.39507643557E+02  0.00000000000E+00 0.  1.
          6    1    1    2  501    0 -0.19927422874E+01 -0.39212354013E+02  0.53236194495E+03  0.56114153309E+03  0.17300000000E+03 0.  1.
         -6    1    1    2    0  502  0.19927422874E+01  0.39212354013E+02  0.28811139159E+03  0.33834709057E+03  0.17300000000E+03 0.  1.
<mgrwt>
<rscale>  2 0.17739949E+03</rscale>
<asrwt>0</asrwt>
<pdfrwt beam="1">  1       21 0.13230475E+00 0.17739949E+03</pdfrwt>
<pdfrwt beam="2">  1       21 0.60780996E-02 0.17739949E+03</pdfrwt>
<totfact> 0.80326507E+04</totfact>
</mgrwt>
</event>
<event>
 4    3  0.3906307E+000  0.2603622E+03  0.7546771E-02  0.1106926E+00
         21   -1    0    0  503  502  0.00000000000E+00  0.00000000000E+00  0.53594309485E+02  0.53594309485E+02  0.00000000000E+00 0.  1.
         21   -1    0    0  501  503 -0.00000000000E+00 -0.00000000000E+00 -0.18302951651E+04  0.18302951651E+04  0.00000000000E+00 0.  1.
          6    1    1    2  501    0  0.45855296172E+02  0.18909457575E+03 -0.14119053214E+04  0.14357106615E+04  0.17300000000E+03 0.  1.
         -6    1    1    2    0  502 -0.45855296172E+02 -0.18909457575E+03 -0.36479553418E+03  0.44817881311E+03  0.17300000000E+03 0.  1.
<mgrwt>
<rscale>  2 0.26036218E+03</rscale>
<asrwt>0</asrwt>
<pdfrwt beam="1">  1       21 0.82452773E-02 0.26036218E+03</pdfrwt>
<pdfrwt beam="2">  1       21 0.28158391E+00 0.26036218E+03</pdfrwt>
<totfact> 0.46458498E+03</totfact>
</mgrwt>
</event>
<event>
 4    3  0.3906307E+000  0.1847971E+03  0.7546771E-02  0.1163240E+00
         21   -1    0    0  501  502  0.00000000000E+00  0.00000000000E+00  0.95305108231E+03  0.95305108231E+03  0.00000000000E+00 0. -1.
         21   -1    0    0  502  503 -0.00000000000E+00 -0.00000000000E+00 -0.40139128434E+02  0.40139128434E+02  0.00000000000E+00 0. -1.
          6    1    1    2  501    0  0.55463343238E+02 -0.33834458231E+02  0.61912332557E+03  0.64611426642E+03  0.17300000000E+03 0. -1.
         -6    1    1    2    0  503 -0.55463343238E+02  0.33834458231E+02  0.29378862831E+03  0.34707594433E+03  0.17300000000E+03 0. -1.
<mgrwt>
<rscale>  2 0.18479706E+03</rscale>
<asrwt>0</asrwt>
<pdfrwt beam="1">  1       21 0.14662323E+00 0.18479706E+03</pdfrwt>
<pdfrwt beam="2">  1       21 0.61752513E-02 0.18479706E+03</pdfrwt>
<totfact> 0.59803624E+04</totfact>
</mgrwt>
</event>
<event>
 4    3  0.3906307E+000  0.1738755E+03  0.7546771E-02  0.1173866E+00
         21   -1    0    0  501  502  0.00000000000E+00  0.00000000000E+00  0.14419520785E+03  0.14419520785E+03  0.00000000000E+00 0.  1.
         21   -1    0    0  502  503 -0.00000000000E+00 -0.00000000000E+00 -0.56634597768E+03  0.56634597768E+03  0.00000000000E+00 0.  1.
          6    1    1    2  501    0 -0.13841269400E+02 -0.10588539478E+02  0.70865646288E+02  0.18776218397E+03  0.17300000000E+03 0.  1.
         -6    1    1    2    0  503  0.13841269400E+02  0.10588539478E+02 -0.49301641612E+03  0.52277900156E+03  0.17300000000E+03 0.  1.
<mgrwt>
<rscale>  2 0.17387552E+03</rscale>
<asrwt>0</asrwt>
<pdfrwt beam="1">  1       21 0.22183878E-01 0.17387552E+03</pdfrwt>
<pdfrwt beam="2">  1       21 0.87130150E-01 0.17387552E+03</pdfrwt>
<totfact> 0.21759886E+04</totfact>
</mgrwt>
</event>
<event>
 4    3  0.3906307E+000  0.2160349E+03  0.7546771E-02  0.1136874E+00
         21   -1    0    0  501  502  0.00000000000E+00  0.00000000000E+00  0.12705678073E+04  0.12705678073E+04  0.00000000000E+00 0.  1.
         21   -1    0    0  502  503 -0.00000000000E+00 -0.00000000000E+00 -0.42186160800E+02  0.42186160800E+02  0.00000000000E+00 0. -1.
          6    1    1    2  501    0 -0.88416170464E+01  0.12908866733E+03  0.85019229692E+03  0.87721035104E+03  0.17300000000E+03 0.  1.
         -6    1    1    2    0  503  0.88416170464E+01 -0.12908866733E+03  0.37818934954E+03  0.43554361703E+03  0.17300000000E+03 0. -1.
<mgrwt>
<rscale>  2 0.21603485E+03</rscale>
<asrwt>0</asrwt>
<pdfrwt beam="1">  1       21 0.19547194E+00 0.21603485E+03</pdfrwt>
<pdfrwt beam="2">  1       21 0.64901796E-02 0.21603485E+03</pdfrwt>
<totfact> 0.24342638E+04</totfact>
</mgrwt>
</event>
<event>
 4    3  0.3906307E+000  0.3042321E+03  0.7546771E-02  0.1083144E+00
         21   -1    0    0  501  502  0.00000000000E+00  0.00000000000E+00  0.60779666374E+03  0.60779666374E+03  0.00000000000E+00 0. -1.
         21   -1    0    0  502  503 -0.00000000000E+00 -0.00000000000E+00 -0.15772302128E+03  0.15772302128E+03  0.00000000000E+00 0.  1.
          6    1    1    2  501    0  0.25023020921E+03  0.36103383564E+01  0.15395262975E+03  0.34096716022E+03  0.17300000000E+03 0.  1.
         -6    1    1    2    0  503 -0.25023020921E+03 -0.36103383564E+01  0.29612101271E+03  0.42455252480E+03  0.17300000000E+03 0. -1.
<mgrwt>
<rscale>  2 0.30423214E+03</rscale>
<asrwt>0</asrwt>
<pdfrwt beam="1">  1       21 0.93507178E-01 0.30423214E+03</pdfrwt>
<pdfrwt beam="2">  1       21 0.24265080E-01 0.30423214E+03</pdfrwt>
<totfact> 0.14523537E+04</totfact>
</mgrwt>
</event>
<event>
 4    3  0.3906307E+000  0.2145903E+03  0.7546771E-02  0.1137982E+00
         21   -1    0    0  503  502  0.00000000000E+00  0.00000000000E+00  0.10055590210E+04  0.10055590210E+04  0.00000000000E+00 0.  1.
         21   -1    0    0  501  503 -0.00000000000E+00 -0.00000000000E+00 -0.69076210067E+02  0.69076210067E+02  0.00000000000E+00 0. -1.
          6    1    1    2  501    0  0.63076106067E+02 -0.11018799073E+03  0.15629854760E+03  0.26547735203E+03  0.17300000000E+03 0. -1.
         -6    1    1    2    0  502 -0.63076106067E+02  0.11018799073E+03  0.78018426336E+03  0.80915787907E+03  0.17300000000E+03 0.  1.
<mgrwt>
<rscale>  2 0.21459028E+03</rscale>
<asrwt>0</asrwt>
<pdfrwt beam="1">  1       21 0.15470138E+00 0.21459028E+03</pdfrwt>
<pdfrwt beam="2">  1       21 0.10627110E-01 0.21459028E+03</pdfrwt>
<totfact> 0.19780468E+04</totfact>
</mgrwt>
</event>
<event>
 4    3  0.3906307E+000  0.2079387E+03  0.7546771E-02  0.1143209E+00
         21   -1    0    0  503  502  0.00000000000E+00  0.00000000000E+00  0.32265098210E+03  0.32265098210E+03  0.00000000000E+00 0. -1.
         21   -1    0    0  501  503 -0.00000000000E+00 -0.00000000000E+00 -0.17042935931E+03  0.17042935931E+03  0.00000000000E+00 0.  1.
          6    1    1    2  501    0 -0.91851871286E+02  0.69805085615E+02 -0.37856568301E+02  0.21135665592E+03  0.17300000000E+03 0.  1.
         -6    1    1    2    0  502  0.91851871286E+02 -0.69805085615E+02  0.19007819110E+03  0.28172368549E+03  0.17300000000E+03 0. -1.
<mgrwt>
<rscale>  2 0.20793873E+03</rscale>
<asrwt>0</asrwt>
<pdfrwt beam="1">  1       21 0.49638612E-01 0.20793873E+03</pdfrwt>
<pdfrwt beam="2">  1       21 0.26219902E-01 0.20793873E+03</pdfrwt>
<totfact> 0.53098496E+04</totfact>
</mgrwt>
</event>
<event>
 4    3  0.3906307E+000  0.2126202E+03  0.7546771E-02  0.1139508E+00
         21   -1    0    0  501  502  0.00000000000E+00  0.00000000000E+00  0.20780473662E+03  0.20780473662E+03  0.00000000000E+00 0.  1.
         21   -1    0    0  502  503 -0.00000000000E+00 -0.00000000000E+00 -0.32554395744E+03  0.32554395744E+03  0.00000000000E+00 0.  1.
          6    1    1    2  501    0  0.12102685042E+03 -0.25116462196E+02  0.94727063774E+02  0.23276716222E+03  0.17300000000E+03 0.  1.
         -6    1    1    2    0  503 -0.12102685042E+03  0.25116462196E+02 -0.21246628459E+03  0.30058153184E+03  0.17300000000E+03 0.  1.
<mgrwt>
<rscale>  2 0.21262017E+03</rscale>
<asrwt>0</asrwt>
<pdfrwt beam="1">  1       21 0.31969960E-01 0.21262017E+03</pdfrwt>
<pdfrwt beam="2">  1       21 0.50083685E-01 0.21262017E+03</pdfrwt>
<totfact> 0.35358753E+04</totfact>
</mgrwt>
</event>
<event>
 4    3  0.3906307E+000  0.1837787E+03  0.7546771E-02  0.1164195E+00
         21   -1    0    0  501  502  0.00000000000E+00  0.00000000000E+00  0.60510968286E+02  0.60510968286E+02  0.00000000000E+00 0. -1.
         21   -1    0    0  502  503 -0.00000000000E+00 -0.00000000000E+00 -0.69024472202E+03  0.69024472202E+03  0.00000000000E+00 0. -1.
          6    1    1    2  501    0 -0.59070275463E+02 -0.18876638320E+02 -0.47907634544E+03  0.51311672130E+03  0.17300000000E+03 0.  1.
         -6    1    1    2    0  503  0.59070275463E+02  0.18876638320E+02 -0.15065740830E+03  0.23763896901E+03  0.17300000000E+03 0.  1.
<mgrwt>
<rscale>  2 0.18377874E+03</rscale>
<asrwt>0</asrwt>
<pdfrwt beam="1">  1       21 0.93093802E-02 0.18377874E+03</pdfrwt>
<pdfrwt beam="2">  1       21 0.10619149E+00 0.18377874E+03</pdfrwt>
<totfact> 0.65727888E+04</totfact>
</mgrwt>
</event>
<event>
 4    3  0.3906307E+000  0.1926924E+03  0.7546771E-02  0.1156055E+00
         21   -1    0    0  501  502  0.00000000000E+00  0.00000000000E+00  0.50518841204E+02  0.50518841204E+02  0.00000000000E+00 0.  1.
         21   -1    0    0  502  503 -0.00000000000E+00 -0.00000000000E+00 -0.87810012713E+03  0.87810012713E+03  0.00000000000E+00 0.  1.
          6    1    1    2  501    0  0.54484681228E+02 -0.65059868818E+02 -0.22634082752E+03  0.29725500369E+03  0.17300000000E+03 0.  1.
         -6    1    1    2    0  503 -0.54484681228E+02  0.65059868818E+02 -0.60124045841E+03  0.63136396464E+03  0.17300000000E+03 0.  1.
<mgrwt>
<rscale>  2 0.19269242E+03</rscale>
<asrwt>0</asrwt>
<pdfrwt beam="1">  1       21 0.77721307E-02 0.19269242E+03</pdfrwt>
<pdfrwt beam="2">  1       21 0.13509231E+00 0.19269242E+03</pdfrwt>
<totfact> 0.49486295E+04</totfact>
</mgrwt>
</event>
<event>
 4    3  0.3906307E+000  0.1788505E+03  0.7546771E-02  0.1168920E+00
         21   -1    0    0  501  502  0.00000000000E+00  0.00000000000E+00  0.88088216825E+03  0.88088216825E+03  0.00000000000E+00 0. -1.
         21   -1    0    0  502  503 -0.00000000000E+00 -0.00000000000E+00 -0.53658787884E+02  0.53658787884E+02  0.00000000000E+00 0. -1.
          6    1    1    2  501    0 -0.37103348255E+02  0.26112180739E+02  0.67928290397E+03  0.70243346166E+03  0.17300000000E+03 0. -1.
         -6    1    1    2    0  503  0.37103348255E+02 -0.26112180739E+02  0.14794047640E+03  0.23210749447E+03  0.17300000000E+03 0. -1.
<mgrwt>
<rscale>  2 0.17885051E+03</rscale>
<asrwt>0</asrwt>
<pdfrwt beam="1">  1       21 0.13552032E+00 0.17885051E+03</pdfrwt>
<pdfrwt beam="2">  1       21 0.82551988E-02 0.17885051E+03</pdfrwt>
<totfact> 0.44536629E+04</totfact>
</mgrwt>
</event>
<event>
 4    3  0.3906307E+000  0.1841226E+03  0.7546771E-02  0.1163872E+00
         21   -1    0    0  503  502  0.00000000000E+00  0.00000000000E+00  0.56041099384E+03  0.56041099384E+03  0.00000000000E+00 0. -1.
         21   -1    0    0  501  503 -0.00000000000E+00 -0.00000000000E+00 -0.10177002489E+03  0.10177002489E+03  0.00000000000E+00 0. -1.
          6    1    1    2  501    0 -0.55355975191E+02  0.30130811797E+02  0.18462992374E+02  0.18504602643E+03  0.17300000000E+03 0. -1.
         -6    1    1    2    0  502  0.55355975191E+02 -0.30130811797E+02  0.44017797658E+03  0.47713499230E+03  0.17300000000E+03 0. -1.
<mgrwt>
<rscale>  2 0.18412265E+03</rscale>
<asrwt>0</asrwt>
<pdfrwt beam="1">  1       21 0.86217074E-01 0.18412265E+03</pdfrwt>
<pdfrwt beam="2">  1       21 0.15656927E-01 0.18412265E+03</pdfrwt>
<totfact> 0.42259778E+04</totfact>
</mgrwt>
</event>
<event>
 4    3  0.3906307E+000  0.2104355E+03  0.7546771E-02  0.1141222E+00
         21   -1    0    0  503  502  0.00000000000E+00  0.00000000000E+00  0.29677883601E+03  0.29677883601E+03  0.00000000000E+00 0. -1.
         21   -1    0    0  501  503 -0.00000000000E+00 -0.00000000000E+00 -0.39800952712E+03  0.39800952712E+03  0.00000000000E+00 0.  1.
          6    1    1    2  501    0 -0.54600267418E+02 -0.10664386078E+03 -0.32527725096E+03  0.38741243170E+03  0.17300000000E+03 0.  1.
         -6    1    1    2    0  502  0.54600267418E+02  0.10664386078E+03  0.22404655985E+03  0.30737593144E+03  0.17300000000E+03 0. -1.
<mgrwt>
<rscale>  2 0.21043551E+03</rscale>
<asrwt>0</asrwt>
<pdfrwt beam="1">  1       21 0.45658283E-01 0.21043551E+03</pdfrwt>
<pdfrwt beam="2">  1       21 0.61232235E-01 0.21043551E+03</pdfrwt>
<totfact> 0.11273613E+04</totfact>
</mgrwt>
</event>
<event>
 4    3  0.3906307E+000  0.1908950E+03  0.7546771E-02  0.1157657E+00
         21   -1    0    0  503  502  0.00000000000E+00  0.00000000000E+00  0.26894453260E+03  0.26894453260E+03  0.00000000000E+00 0. -1.
         21   -1    0    0  501  503 -0.00000000000E+00 -0.00000000000E+00 -0.14253894970E+03  0.14253894970E+03  0.00000000000E+00 0. -1.
          6    1    1    2  501    0  0.74986768435E+02 -0.29814265610E+02  0.10893616256E+03  0.21979079459E+03  0.17300000000E+03 0. -1.
         -6    1    1    2    0  502 -0.74986768435E+02  0.29814265610E+02  0.17469420330E+02  0.19169268771E+03  0.17300000000E+03 0. -1.
<mgrwt>
<rscale>  2 0.19089501E+03</rscale>
<asrwt>0</asrwt>
<pdfrwt beam="1">  1       21 0.41376082E-01 0.19089501E+03</pdfrwt>
<pdfrwt beam="2">  1       21 0.21929069E-01 0.19089501E+03</pdfrwt>
<totfact> 0.10931148E+05</totfact>
</mgrwt>
</event>
<event>
 4    3  0.3906307E+000  0.2408725E+03  0.7546771E-02  0.1119213E+00
         21   -1    0    0  501  502  0.00000000000E+00  0.00000000000E+00  0.58315958835E+03  0.58315958835E+03  0.00000000000E+00 0.  1.
         21   -1    0    0  502  503 -0.00000000000E+00 -0.00000000000E+00 -0.11454693332E+03  0.11454693332E+03  0.00000000000E+00 0.  1.
          6    1    1    2  501    0  0.12554254323E+03 -0.11103884655E+03  0.36077832665E+03  0.43379782916E+03  0.17300000000E+03 0.  1.
         -6    1    1    2    0  503 -0.12554254323E+03  0.11103884655E+03  0.10783432837E+03  0.26390869251E+03  0.17300000000E+03 0.  1.
<mgrwt>
<rscale>  2 0.24087249E+03</rscale>
<asrwt>0</asrwt>
<pdfrwt beam="1">  1       21 0.89716858E-01 0.24087249E+03</pdfrwt>
<pdfrwt beam="2">  1       21 0.17622605E-01 0.24087249E+03</pdfrwt>
<totfact> 0.30126170E+04</totfact>
</mgrwt>
</event>
<event>
 4    3  0.3906307E+000  0.1965523E+03  0.7546771E-02  0.1152681E+00
         21   -1    0    0  501  502  0.00000000000E+00  0.00000000000E+00  0.19532887443E+03  0.19532887443E+03  0.00000000000E+00 0.  1.
         21   -1    0    0  502  503 -0.00000000000E+00 -0.00000000000E+00 -0.20532743036E+03  0.20532743036E+03  0.00000000000E+00 0.  1.
          6    1    1    2  501    0 -0.38933104596E+02  0.84782108601E+02  0.33399961234E+02  0.19936988234E+03  0.17300000000E+03 0.  1.
         -6    1    1    2    0  503  0.38933104596E+02 -0.84782108601E+02 -0.43398517167E+02  0.20128642245E+03  0.17300000000E+03 0.  1.
<mgrwt>
<rscale>  2 0.19655226E+03</rscale>
<asrwt>0</asrwt>
<pdfrwt beam="1">  1       21 0.30050596E-01 0.19655226E+03</pdfrwt>
<pdfrwt beam="2">  1       21 0.31588835E-01 0.19655226E+03</pdfrwt>
<totfact> 0.10216524E+05</totfact>
</mgrwt>
</event>
<event>
 4    3  0.3906307E+000  0.1830597E+03  0.7546771E-02  0.1164874E+00
         21   -1    0    0  501  502  0.00000000000E+00  0.00000000000E+00  0.54829887227E+03  0.54829887227E+03  0.00000000000E+00 0.  1.
         21   -1    0    0  502  503 -0.00000000000E+00 -0.00000000000E+00 -0.62390638171E+02  0.62390638171E+02  0.00000000000E+00 0. -1.
          6    1    1    2  501    0  0.13333269768E+02 -0.58344419089E+02  0.28656642790E+03  0.34004582768E+03  0.17300000000E+03 0. -1.
         -6    1    1    2    0  503 -0.13333269768E+02  0.58344419089E+02  0.19934180620E+03  0.27064368276E+03  0.17300000000E+03 0. -1.
<mgrwt>
<rscale>  2 0.18305968E+03</rscale>
<asrwt>0</asrwt>
<pdfrwt beam="1">  1       21 0.84353670E-01 0.18305968E+03</pdfrwt>
<pdfrwt beam="2">  1       21 0.95985601E-02 0.18305968E+03</pdfrwt>
<totfact> 0.10675674E+05</totfact>
</mgrwt>
</event>
<event>
 4    3  0.3906307E+000  0.2299541E+03  0.7546771E-02  0.1126672E+00
         21   -1    0    0  503  502  0.00000000000E+00  0.00000000000E+00  0.21280925940E+03  0.21280925940E+03  0.00000000000E+00 0. -1.
         21   -1    0    0  501  503 -0.00000000000E+00 -0.00000000000E+00 -0.41388143939E+03  0.41388143939E+03  0.00000000000E+00 0.  1.
          6    1    1    2  501    0 -0.32579281989E+02 -0.14794751768E+03 -0.29862251669E+03  0.37690089557E+03  0.17300000000E+03 0.  1.
         -6    1    1    2    0  502  0.32579281989E+02  0.14794751768E+03  0.97550336702E+02  0.24978980322E+03  0.17300000000E+03 0. -1.
<mgrwt>
<rscale>  2 0.22995408E+03</rscale>
<asrwt>0</asrwt>
<pdfrwt beam="1">  1       21 0.32739887E-01 0.22995408E+03</pdfrwt>
<pdfrwt beam="2">  1       21 0.63674066E-01 0.22995408E+03</pdfrwt>
<totfact> 0.20034634E+04</totfact>
</mgrwt>
</event>
<event>
 4    3  0.3906307E+000  0.1835300E+03  0.7546771E-02  0.1164430E+00
         21   -1    0    0  503  502  0.00000000000E+00  0.00000000000E+00  0.11089422876E+04  0.11089422876E+04  0.00000000000E+00 0.  1.
         21   -1    0    0  501  503 -0.00000000000E+00 -0.00000000000E+00 -0.50964874643E+02  0.50964874643E+02  0.00000000000E+00 0.  1.
          6    1    1    2  501    0 -0.60772371699E+02  0.78092920160E+01  0.16035695126E+03  0.24371626540E+03  0.17300000000E+03 0.  1.
         -6    1    1    2    0  502  0.60772371699E+02 -0.78092920160E+01  0.89762046173E+03  0.91619089688E+03  0.17300000000E+03 0.  1.
<mgrwt>
<rscale>  2 0.18353001E+03</rscale>
<asrwt>0</asrwt>
<pdfrwt beam="1">  1       21 0.17060649E+00 0.18353001E+03</pdfrwt>
<pdfrwt beam="2">  1       21 0.78407508E-02 0.18353001E+03</pdfrwt>
<totfact> 0.26420793E+04</totfact>
</mgrwt>
</event>
<event>
 4    3  0.3906307E+000  0.1943025E+03  0.7546771E-02  0.1154637E+00
         21   -1    0    0  503  502  0.00000000000E+00  0.00000000000E+00  0.25774088093E+03  0.25774088093E+03  0.00000000000E+00 0. -1.
         21   -1    0    0  501  503 -0.00000000000E+00 -0.00000000000E+00 -0.18804266272E+03  0.18804266272E+03  0.00000000000E+00 0. -1.
          6    1    1    2  501    0  0.69027558735E+02  0.55314111720E+02 -0.69942431767E+02  0.20650762354E+03  0.17300000000E+03 0. -1.
         -6    1    1    2    0  502 -0.69027558735E+02 -0.55314111720E+02  0.13964064997E+03  0.23927592011E+03  0.17300000000E+03 0. -1.
<mgrwt>
<rscale>  2 0.19430248E+03</rscale>
<asrwt>0</asrwt>
<pdfrwt beam="1">  1       21 0.39652443E-01 0.19430248E+03</pdfrwt>
<pdfrwt beam="2">  1       21 0.28929640E-01 0.19430248E+03</pdfrwt>
<totfact> 0.70065045E+04</totfact>
</mgrwt>
</event>
<event>
 4    3  0.3906307E+000  0.2213394E+03  0.7546771E-02  0.1132888E+00
         21   -1    0    0  503  502  0.00000000000E+00  0.00000000000E+00  0.55226202072E+02  0.55226202072E+02  0.00000000000E+00 0. -1.
         21   -1    0    0  501  503 -0.00000000000E+00 -0.00000000000E+00 -0.12467744837E+04  0.12467744837E+04  0.00000000000E+00 0.  1.
          6    1    1    2  501    0  0.11589689126E+03  0.75033633227E+02 -0.24611701061E+03  0.33100561692E+03  0.17300000000E+03 0. -1.
         -6    1    1    2    0  502 -0.11589689126E+03 -0.75033633227E+02 -0.94543127103E+03  0.97099506886E+03  0.17300000000E+03 0.  1.
<mgrwt>
<rscale>  2 0.22133941E+03</rscale>
<asrwt>0</asrwt>
<pdfrwt beam="1">  1       21 0.84963388E-02 0.22133941E+03</pdfrwt>
<pdfrwt beam="2">  1       21 0.19181146E+00 0.22133941E+03</pdfrwt>
<totfact> 0.16051450E+04</totfact>
</mgrwt>
</event>
<event>
 4    3  0.3906307E+000  0.2057877E+03  0.7546771E-02  0.1144946E+00
         21   -1    0    0  501  502  0.00000000000E+00  0.00000000000E+00  0.14804148512E+03  0.14804148512E+03  0.00000000000E+00 0. -1.
         21   -1    0    0  502  503 -0.00000000000E+00 -0.00000000000E+00 -0.33484681560E+03  0.33484681560E+03  0.00000000000E+00 0. -1.
          6    1    1    2  501    0  0.93460126567E+02  0.60702328314E+02 -0.12410180291E+01  0.20579141879E+03  0.17300000000E+03 0. -1.
         -6    1    1    2    0  503 -0.93460126567E+02 -0.60702328314E+02 -0.18556431246E+03  0.27709688194E+03  0.17300000000E+03 0. -1.
<mgrwt>
<rscale>  2 0.20578768E+03</rscale>
<asrwt>0</asrwt>
<pdfrwt beam="1">  1       21 0.22775613E-01 0.20578768E+03</pdfrwt>
<pdfrwt beam="2">  1       21 0.51514895E-01 0.20578768E+03</pdfrwt>
<totfact> 0.64341545E+04</totfact>
</mgrwt>
</event>
<event>
 4    3  0.3906307E+000  0.2199373E+03  0.7546771E-02  0.1133930E+00
         21   -1    0    0  501  502  0.00000000000E+00  0.00000000000E+00  0.26954619778E+03  0.26954619778E+03  0.00000000000E+00 0. -1.
         21   -1    0    0  502  503 -0.00000000000E+00 -0.00000000000E+00 -0.25126248072E+03  0.25126248072E+03  0.00000000000E+00 0.  1.
          6    1    1    2  501    0 -0.10997857595E+03  0.79675067908E+02  0.14834791337E+03  0.26529136249E+03  0.17300000000E+03 0. -1.
         -6    1    1    2    0  503  0.10997857595E+03 -0.79675067908E+02 -0.13006419631E+03  0.25551731600E+03  0.17300000000E+03 0.  1.
<mgrwt>
<rscale>  2 0.21993727E+03</rscale>
<asrwt>0</asrwt>
<pdfrwt beam="1">  1       21 0.41468646E-01 0.21993727E+03</pdfrwt>
<pdfrwt beam="2">  1       21 0.38655767E-01 0.21993727E+03</pdfrwt>
<totfact> 0.35630050E+04</totfact>
</mgrwt>
</event>
<event>
 4    3  0.3906307E+000  0.1839301E+03  0.7546771E-02  0.1164053E+00
         21   -1    0    0  501  502  0.00000000000E+00  0.00000000000E+00  0.37992946510E+03  0.37992946510E+03  0.00000000000E+00 0. -1.
         21   -1    0    0  502  503 -0.00000000000E+00 -0.00000000000E+00 -0.89782795462E+02  0.89782795462E+02  0.00000000000E+00 0. -1.
          6    1    1    2  501    0  0.21448912001E+02  0.58661844035E+02  0.16638415174E+03  0.24802006717E+03  0.17300000000E+03 0. -1.
         -6    1    1    2    0  503 -0.21448912001E+02 -0.58661844035E+02  0.12376251790E+03  0.22169219339E+03  0.17300000000E+03 0. -1.
<mgrwt>
<rscale>  2 0.18393006E+03</rscale>
<asrwt>0</asrwt>
<pdfrwt beam="1">  1       21 0.58450686E-01 0.18393006E+03</pdfrwt>
<pdfrwt beam="2">  1       21 0.13812738E-01 0.18393006E+03</pdfrwt>
<totfact> 0.12524797E+05</totfact>
</mgrwt>
</event>
<event>
 4    3  0.3906307E+000  0.2558262E+03  0.7546771E-02  0.1109677E+00
         21   -1    0    0  503  502  0.00000000000E+00  0.00000000000E+00  0.15792948397E+03  0.15792948397E+03  0.00000000000E+00 0.  1.
         21   -1    0    0  501  503 -0.00000000000E+00 -0.00000000000E+00 -0.49914559366E+03  0.49914559366E+03  0.00000000000E+00 0.  1.
          6    1    1    2  501    0 -0.15420119774E+03 -0.10835139839E+03 -0.30597505216E+03  0.39883300698E+03  0.17300000000E+03 0.  1.
         -6    1    1    2    0  502  0.15420119774E+03  0.10835139839E+03 -0.35241057532E+02  0.25824207064E+03  0.17300000000E+03 0.  1.
<mgrwt>
<rscale>  2 0.25582618E+03</rscale>
<asrwt>0</asrwt>
<pdfrwt beam="1">  1       21 0.24296844E-01 0.25582618E+03</pdfrwt>
<pdfrwt beam="2">  1       21 0.76791630E-01 0.25582618E+03</pdfrwt>
<totfact> 0.23328366E+04</totfact>
</mgrwt>
</event>
<event>
 4    3  0.3906307E+000  0.2244209E+03  0.7546771E-02  0.1130629E+00
         21   -1    0    0  503  502  0.00000000000E+00  0.00000000000E+00  0.56945992579E+03  0.56945992579E+03  0.00000000000E+00 0. -1.
         21   -1    0    0  501  503 -0.00000000000E+00 -0.00000000000E+00 -0.10298335447E+03  0.10298335447E+03  0.00000000000E+00 0.  1.
          6    1    1    2  501    0  0.13625669527E+03 -0.43241720866E+02  0.10690147026E+03  0.24858129007E+03  0.17300000000E+03 0.  1.
         -6    1    1    2    0  502 -0.13625669527E+03  0.43241720866E+02  0.35957510106E+03  0.42386199020E+03  0.17300000000E+03 0. -1.
<mgrwt>
<rscale>  2 0.22442088E+03</rscale>
<asrwt>0</asrwt>
<pdfrwt beam="1">  1       21 0.87609217E-01 0.22442088E+03</pdfrwt>
<pdfrwt beam="2">  1       21 0.15843593E-01 0.22442088E+03</pdfrwt>
<totfact> 0.39045750E+04</totfact>
</mgrwt>
</event>
<event>
 4    3  0.3906307E+000  0.1932270E+03  0.7546771E-02  0.1155583E+00
         21   -1    0    0  503  502  0.00000000000E+00  0.00000000000E+00  0.71014216902E+02  0.71014216902E+02  0.00000000000E+00 0. -1.
         21   -1    0    0  501  503 -0.00000000000E+00 -0.00000000000E+00 -0.61632742396E+03  0.61632742396E+03  0.00000000000E+00 0. -1.
          6    1    1    2  501    0 -0.36787304956E+01  0.85989186769E+02 -0.40439575578E+03  0.44818813080E+03  0.17300000000E+03 0. -1.
         -6    1    1    2    0  502  0.36787304956E+01 -0.85989186769E+02 -0.14091745128E+03  0.23915351006E+03  0.17300000000E+03 0. -1.
<mgrwt>
<rscale>  2 0.19322700E+03</rscale>
<asrwt>0</asrwt>
<pdfrwt beam="1">  1       21 0.10925265E-01 0.19322700E+03</pdfrwt>
<pdfrwt beam="2">  1       21 0.94819600E-01 0.19322700E+03</pdfrwt>
<totfact> 0.64532880E+04</totfact>
</mgrwt>
</event>
<event>
 4    3  0.3906307E+000  0.2086491E+03  0.7546771E-02  0.1142640E+00
         21   -1    0    0  503  502  0.00000000000E+00  0.00000000000E+00  0.13318866044E+03  0.13318866044E+03  0.00000000000E+00 0. -1.
         21   -1    0    0  501  503 -0.00000000000E+00 -0.00000000000E+00 -0.50090952061E+03  0.50090952061E+03  0.00000000000E+00 0. -1.
          6    1    1    2  501    0 -0.94170512966E+02  0.68828349451E+02 -0.37074769546E+03  0.42542717460E+03  0.17300000000E+03 0.  1.
         -6    1    1    2    0  502  0.94170512966E+02 -0.68828349451E+02  0.30268352971E+01  0.20867100645E+03  0.17300000000E+03 0.  1.
<mgrwt>
<rscale>  2 0.20864905E+03</rscale>
<asrwt>0</asrwt>
<pdfrwt beam="1">  1       21 0.20490563E-01 0.20864905E+03</pdfrwt>
<pdfrwt beam="2">  1       21 0.77063004E-01 0.20864905E+03</pdfrwt>
<totfact> 0.32721277E+04</totfact>
</mgrwt>
</event>
<event>
 4    3  0.3906307E+000  0.1889849E+03  0.7546771E-02  0.1159380E+00
         21   -1    0    0  501  502  0.00000000000E+00  0.00000000000E+00  0.85632698619E+03  0.85632698619E+03  0.00000000000E+00 0. -1.
         21   -1    0    0  502  503 -0.00000000000E+00 -0.00000000000E+00 -0.88337308993E+02  0.88337308993E+02  0.00000000000E+00 0. -1.
          6    1    1    2  501    0  0.56729805535E+02 -0.50675617935E+02  0.72716306536E+03  0.75131978059E+03  0.17300000000E+03 0. -1.
         -6    1    1    2    0  503 -0.56729805535E+02  0.50675617935E+02  0.40826611843E+02  0.19334451459E+03  0.17300000000E+03 0. -1.
<mgrwt>
<rscale>  2 0.18898489E+03</rscale>
<asrwt>0</asrwt>
<pdfrwt beam="1">  1       21 0.13174261E+00 0.18898489E+03</pdfrwt>
<pdfrwt beam="2">  1       21 0.13590356E-01 0.18898489E+03</pdfrwt>
<totfact> 0.19656228E+04</totfact>
</mgrwt>
</event>
<event>
 4    3  0.3906307E+000  0.2434627E+03  0.7546771E-02  0.1117507E+00
         21   -1    0    0  503  502  0.00000000000E+00  0.00000000000E+00  0.14695123534E+04  0.14695123534E+04  0.00000000000E+00 0.  1.
         21   -1    0    0  501  503 -0.00000000000E+00 -0.00000000000E+00 -0.52307241036E+02  0.52307241036E+02  0.00000000000E+00 0.  1.
          6    1    1    2  501    0  0.54866316510E+02  0.16227993368E+03  0.34458373355E+03  0.42191472953E+03  0.17300000000E+03 0.  1.
         -6    1    1    2    0  502 -0.54866316510E+02 -0.16227993368E+03  0.10726213788E+04  0.10999048649E+04  0.17300000000E+03 0.  1.
<mgrwt>
<rscale>  2 0.24346271E+03</rscale>
<asrwt>0</asrwt>
<pdfrwt beam="1">  1       21 0.22607879E+00 0.24346271E+03</pdfrwt>
<pdfrwt beam="2">  1       21 0.80472690E-02 0.24346271E+03</pdfrwt>
<totfact> 0.10527846E+04</totfact>
</mgrwt>
</event>
<event>
 4    3  0.3906307E+000  0.2342566E+03  0.7546771E-02  0.1123679E+00
         21   -1    0    0  501  502  0.00000000000E+00  0.00000000000E+00  0.97536440898E+03  0.97536440898E+03  0.00000000000E+00 0. -1.
         21   -1    0    0  502  503 -0.00000000000E+00 -0.00000000000E+00 -0.12216674168E+03  0.12216674168E+03  0.00000000000E+00 0.  1.
          6    1    1    2  501    0  0.15753878964E+03 -0.11343860270E+02  0.82965727051E+03  0.86209473952E+03  0.17300000000E+03 0. -1.
         -6    1    1    2    0  503 -0.15753878964E+03  0.11343860270E+02  0.23540396796E+02  0.23543641113E+03  0.17300000000E+03 0.  1.
<mgrwt>
<rscale>  2 0.23425660E+03</rscale>
<asrwt>0</asrwt>
<pdfrwt beam="1">  1       21 0.15005606E+00 0.23425660E+03</pdfrwt>
<pdfrwt beam="2">  1       21 0.18794884E-01 0.23425660E+03</pdfrwt>
<totfact> 0.75035523E+03</totfact>
</mgrwt>
</event>
<event>
 4    3  0.3906307E+000  0.1958712E+03  0.7546771E-02  0.1153270E+00
         21   -1    0    0  503  502  0.00000000000E+00  0.00000000000E+00  0.36593199612E+03  0.36593199612E+03  0.00000000000E+00 0. -1.
         21   -1    0    0  501  503 -0.00000000000E+00 -0.00000000000E+00 -0.15418554095E+03  0.15418554095E+03  0.00000000000E+00 0.  1.
          6    1    1    2  501    0 -0.20705811541E+02  0.89486219594E+02  0.25298897391E+03  0.31995145733E+03  0.17300000000E+03 0. -1.
         -6    1    1    2    0  502  0.20705811541E+02 -0.89486219594E+02 -0.41242518740E+02  0.20016607975E+03  0.17300000000E+03 0.  1.
<mgrwt>
<rscale>  2 0.19587117E+03</rscale>
<asrwt>0</asrwt>
<pdfrwt beam="1">  1       21 0.56297230E-01 0.19587117E+03</pdfrwt>
<pdfrwt beam="2">  1       21 0.23720853E-01 0.19587117E+03</pdfrwt>
<totfact> 0.49620247E+04</totfact>
</mgrwt>
</event>
<event>
 4    3  0.3906307E+000  0.1940179E+03  0.7546771E-02  0.1154887E+00
         21   -1    0    0  501  502  0.00000000000E+00  0.00000000000E+00  0.15785446387E+03  0.15785446387E+03  0.00000000000E+00 0.  1.
         21   -1    0    0  502  503 -0.00000000000E+00 -0.00000000000E+00 -0.33923012211E+03  0.33923012211E+03  0.00000000000E+00 0. -1.
          6    1    1    2  501    0 -0.60844467848E+02  0.63339381018E+02  0.44770591073E+02  0.19911637873E+03  0.17300000000E+03 0.  1.
         -6    1    1    2    0  503  0.60844467848E+02 -0.63339381018E+02 -0.22614624931E+03  0.29796820725E+03  0.17300000000E+03 0. -1.
<mgrwt>
<rscale>  2 0.19401785E+03</rscale>
<asrwt>0</asrwt>
<pdfrwt beam="1">  1       21 0.24285303E-01 0.19401785E+03</pdfrwt>
<pdfrwt beam="2">  1       21 0.52189249E-01 0.19401785E+03</pdfrwt>
<totfact> 0.55733877E+04</totfact>
</mgrwt>
</event>
<event>
 4    3  0.3906307E+000  0.2050615E+03  0.7546771E-02  0.1145538E+00
         21   -1    0    0  503  502  0.00000000000E+00  0.00000000000E+00  0.11996712531E+04  0.11996712531E+04  0.00000000000E+00 0.  1.
         21   -1    0    0  501  503 -0.00000000000E+00 -0.00000000000E+00 -0.36807002869E+02  0.36807002869E+02  0.00000000000E+00 0. -1.
          6    1    1    2  501    0  0.89623051175E+02 -0.63944636472E+02  0.44641179794E+03  0.49125726577E+03  0.17300000000E+03 0.  1.
         -6    1    1    2    0  502 -0.89623051175E+02  0.63944636472E+02  0.71645245233E+03  0.74522099024E+03  0.17300000000E+03 0.  1.
<mgrwt>
<rscale>  2 0.20506147E+03</rscale>
<asrwt>0</asrwt>
<pdfrwt beam="1">  1       21 0.18456478E+00 0.20506147E+03</pdfrwt>
<pdfrwt beam="2">  1       21 0.56626167E-02 0.20506147E+03</pdfrwt>
<totfact> 0.36594739E+04</totfact>
</mgrwt>
</event>
<event>
 4    3  0.3906307E+000  0.1740344E+03  0.7546771E-02  0.1173705E+00
         21   -1    0    0  503  502  0.00000000000E+00  0.00000000000E+00  0.23350479576E+02  0.23350479576E+02  0.00000000000E+00 0. -1.
         21   -1    0    0  501  503 -0.00000000000E+00 -0.00000000000E+00 -0.15423257425E+04  0.15423257425E+04  0.00000000000E+00 0. -1.
          6    1    1    2  501    0  0.15749833219E+02 -0.10531819199E+02 -0.44733693821E+03  0.47999824244E+03  0.17300000000E+03 0. -1.
         -6    1    1    2    0  502 -0.15749833219E+02  0.10531819199E+02 -0.10716383248E+04  0.10856779797E+04  0.17300000000E+03 0. -1.
<mgrwt>
<rscale>  2 0.17403441E+03</rscale>
<asrwt>0</asrwt>
<pdfrwt beam="1">  1       21 0.35923814E-02 0.17403441E+03</pdfrwt>
<pdfrwt beam="2">  1       21 0.23728089E+00 0.17403441E+03</pdfrwt>
<totfact> 0.37643776E+04</totfact>
</mgrwt>
</event>
<event>
 4    3  0.3906307E+000  0.1801371E+03  0.7546771E-02  0.1167670E+00
         21   -1    0    0  501  502  0.00000000000E+00  0.00000000000E+00  0.72490007176E+03  0.72490007176E+03  0.00000000000E+00 0.  1.
         21   -1    0    0  502  503 -0.00000000000E+00 -0.00000000000E+00 -0.10029724947E+03  0.10029724947E+03  0.00000000000E+00 0.  1.
          6    1    1    2  501    0 -0.19414946208E+02  0.46297269935E+02  0.61931677718E+03  0.64498267251E+03  0.17300000000E+03 0.  1.
         -6    1    1    2    0  503  0.19414946208E+02 -0.46297269935E+02  0.52860451130E+01  0.18021464872E+03  0.17300000000E+03 0.  1.
<mgrwt>
<rscale>  2 0.18013711E+03</rscale>
<asrwt>0</asrwt>
<pdfrwt beam="1">  1       21 0.11152308E+00 0.18013711E+03</pdfrwt>
<pdfrwt beam="2">  1       21 0.15430347E-01 0.18013711E+03</pdfrwt>
<totfact> 0.23714794E+04</totfact>
</mgrwt>
</event>
<event>
 4    3  0.3906307E+000  0.1863784E+03  0.7546771E-02  0.1161769E+00
         21   -1    0    0  501  502  0.00000000000E+00  0.00000000000E+00  0.18439877705E+03  0.18439877705E+03  0.00000000000E+00 0.  1.
         21   -1    0    0  502  503 -0.00000000000E+00 -0.00000000000E+00 -0.35412930390E+03  0.35412930390E+03  0.00000000000E+00 0.  1.
          6    1    1    2  501    0  0.98592692327E+01 -0.68634494254E+02  0.99349441774E+02  0.21120419165E+03  0.17300000000E+03 0.  1.
         -6    1    1    2    0  503 -0.98592692327E+01  0.68634494254E+02 -0.26907996862E+03  0.32732388930E+03  0.17300000000E+03 0.  1.
<mgrwt>
<rscale>  2 0.18637838E+03</rscale>
<asrwt>0</asrwt>
<pdfrwt beam="1">  1       21 0.28369043E-01 0.18637838E+03</pdfrwt>
<pdfrwt beam="2">  1       21 0.54481431E-01 0.18637838E+03</pdfrwt>
<totfact> 0.37921434E+04</totfact>
</mgrwt>
</event>
<event>
 4    3  0.3906307E+000  0.1897126E+03  0.7546771E-02  0.1158721E+00
         21   -1    0    0  503  502  0.00000000000E+00  0.00000000000E+00  0.59229525544E+03  0.59229525544E+03  0.00000000000E+00 0. -1.
         21   -1    0    0  501  503 -0.00000000000E+00 -0.00000000000E+00 -0.15322022062E+03  0.15322022062E+03  0.00000000000E+00 0. -1.
          6    1    1    2  501    0 -0.47240092212E+02  0.61888868538E+02 -0.70019569180E+02  0.20222165668E+03  0.17300000000E+03 0. -1.
         -6    1    1    2    0  502  0.47240092212E+02 -0.61888868538E+02  0.50909460400E+03  0.54329381938E+03  0.17300000000E+03 0. -1.
<mgrwt>
<rscale>  2 0.18971257E+03</rscale>
<asrwt>0</asrwt>
<pdfrwt beam="1">  1       21 0.91122346E-01 0.18971257E+03</pdfrwt>
<pdfrwt beam="2">  1       21 0.23572342E-01 0.18971257E+03</pdfrwt>
<totfact> 0.17325733E+04</totfact>
</mgrwt>
</event>
<event>
 4    3  0.3906307E+000  0.2338796E+03  0.7546771E-02  0.1123939E+00
         21   -1    0    0  501  502  0.00000000000E+00  0.00000000000E+00  0.64405418608E+03  0.64405418608E+03  0.00000000000E+00 0. -1.
         21   -1    0    0  502  503 -0.00000000000E+00 -0.00000000000E+00 -0.59114131777E+03  0.59114131777E+03  0.00000000000E+00 0.  1.
          6    1    1    2  501    0  0.10507329877E+03 -0.11717622282E+03  0.59796912513E+03  0.64208001053E+03  0.17300000000E+03 0. -1.
         -6    1    1    2    0  503 -0.10507329877E+03  0.11717622282E+03 -0.54505625682E+03  0.59311549332E+03  0.17300000000E+03 0.  1.
<mgrwt>
<rscale>  2 0.23387960E+03</rscale>
<asrwt>0</asrwt>
<pdfrwt beam="1">  1       21 0.99085260E-01 0.23387960E+03</pdfrwt>
<pdfrwt beam="2">  1       21 0.90944818E-01 0.23387960E+03</pdfrwt>
<totfact> 0.82697180E+02</totfact>
</mgrwt>
</event>
<event>
 4    3  0.3906307E+000  0.2047409E+03  0.7546771E-02  0.1145800E+00
         21   -1    0    0  501  502  0.00000000000E+00  0.00000000000E+00  0.62802123046E+03  0.62802123046E+03  0.00000000000E+00 0. -1.
         21   -1    0    0  502  503 -0.00000000000E+00 -0.00000000000E+00 -0.55802721332E+03  0.55802721332E+03  0.00000000000E+00 0.  1.
          6    1    1    2  501    0  0.10627620468E+03  0.26366976640E+02  0.59142524052E+03  0.62586153761E+03  0.17300000000E+03 0. -1.
         -6    1    1    2    0  503 -0.10627620468E+03 -0.26366976640E+02 -0.52143122337E+03  0.56018690617E+03  0.17300000000E+03 0.  1.
<mgrwt>
<rscale>  2 0.20474093E+03</rscale>
<asrwt>0</asrwt>
<pdfrwt beam="1">  1       21 0.96618651E-01 0.20474093E+03</pdfrwt>
<pdfrwt beam="2">  1       21 0.85850341E-01 0.20474093E+03</pdfrwt>
<totfact> 0.10304254E+03</totfact>
</mgrwt>
</event>
<event>
 4    3  0.3906307E+000  0.2348860E+03  0.7546771E-02  0.1123247E+00
         21   -1    0    0  501  502  0.00000000000E+00  0.00000000000E+00  0.71801439379E+02  0.71801439379E+02  0.00000000000E+00 0.  1.
         21   -1    0    0  502  503 -0.00000000000E+00 -0.00000000000E+00 -0.10830308321E+04  0.10830308321E+04  0.00000000000E+00 0.  1.
          6    1    1    2  501    0 -0.84886865842E+02 -0.13430053861E+03 -0.19438792754E+03  0.30489027705E+03  0.17300000000E+03 0.  1.
         -6    1    1    2    0  503  0.84886865842E+02  0.13430053861E+03 -0.81684146522E+03  0.84994199447E+03  0.17300000000E+03 0.  1.
<mgrwt>
<rscale>  2 0.23488596E+03</rscale>
<asrwt>0</asrwt>
<pdfrwt beam="1">  1       21 0.11046376E-01 0.23488596E+03</pdfrwt>
<pdfrwt beam="2">  1       21 0.16662011E+00 0.23488596E+03</pdfrwt>
<totfact> 0.14896989E+04</totfact>
</mgrwt>
</event>
<event>
 4    3  0.3906307E+000  0.1877118E+03  0.7546771E-02  0.1160541E+00
         21   -1    0    0  503  502  0.00000000000E+00  0.00000000000E+00  0.93039196853E+02  0.93039196853E+02  0.00000000000E+00 0.  1.
         21   -1    0    0  501  503 -0.00000000000E+00 -0.00000000000E+00 -0.44831016275E+03  0.44831016275E+03  0.00000000000E+00 0.  1.
          6    1    1    2  501    0 -0.35754310253E+02  0.63469411653E+02 -0.70991946905E+02  0.20068780093E+03  0.17300000000E+03 0.  1.
         -6    1    1    2    0  502  0.35754310253E+02 -0.63469411653E+02 -0.28427901899E+03  0.34066155867E+03  0.17300000000E+03 0.  1.
<mgrwt>
<rscale>  2 0.18771185E+03</rscale>
<asrwt>0</asrwt>
<pdfrwt beam="1">  1       21 0.14313722E-01 0.18771185E+03</pdfrwt>
<pdfrwt beam="2">  1       21 0.68970795E-01 0.18771185E+03</pdfrwt>
<totfact> 0.81934983E+04</totfact>
</mgrwt>
</event>
<event>
 4    3  0.3906307E+000  0.1821886E+03  0.7546771E-02  0.1165702E+00
         21   -1    0    0  501  502  0.00000000000E+00  0.00000000000E+00  0.34467593110E+02  0.34467593110E+02  0.00000000000E+00 0. -1.
         21   -1    0    0  502  503 -0.00000000000E+00 -0.00000000000E+00 -0.11278650479E+04  0.11278650479E+04  0.00000000000E+00 0. -1.
          6    1    1    2  501    0  0.55691933496E+02 -0.12732254066E+02 -0.32451077148E+03  0.37215580414E+03  0.17300000000E+03 0. -1.
         -6    1    1    2    0  503 -0.55691933496E+02  0.12732254066E+02 -0.76888668332E+03  0.79017683688E+03  0.17300000000E+03 0. -1.
<mgrwt>
<rscale>  2 0.18218864E+03</rscale>
<asrwt>0</asrwt>
<pdfrwt beam="1">  1       21 0.53027062E-02 0.18218864E+03</pdfrwt>
<pdfrwt beam="2">  1       21 0.17351771E+00 0.18218864E+03</pdfrwt>
<totfact> 0.49399597E+04</totfact>
</mgrwt>
</event>
<event>
 4    3  0.3906307E+000  0.2002669E+03  0.7546771E-02  0.1149514E+00
         21   -1    0    0  501  502  0.00000000000E+00  0.00000000000E+00  0.38589838732E+03  0.38589838732E+03  0.00000000000E+00 0.  1.
         21   -1    0    0  502  503 -0.00000000000E+00 -0.00000000000E+00 -0.10542159465E+03  0.10542159465E+03  0.00000000000E+00 0.  1.
          6    1    1    2  501    0 -0.92459599754E+02 -0.40361715783E+02  0.16944857208E+03  0.26233502295E+03  0.17300000000E+03 0.  1.
         -6    1    1    2    0  503  0.92459599754E+02  0.40361715783E+02  0.11102822058E+03  0.22898495901E+03  0.17300000000E+03 0.  1.
<mgrwt>
<rscale>  2 0.20026694E+03</rscale>
<asrwt>0</asrwt>
<pdfrwt beam="1">  1       21 0.59368982E-01 0.20026694E+03</pdfrwt>
<pdfrwt beam="2">  1       21 0.16218707E-01 0.20026694E+03</pdfrwt>
<totfact> 0.89864775E+04</totfact>
</mgrwt>
</event>
<event>
 4    3  0.3906307E+000  0.1910279E+03  0.7546771E-02  0.1157537E+00
         21   -1    0    0  503  502  0.00000000000E+00  0.00000000000E+00  0.16239160875E+03  0.16239160875E+03  0.00000000000E+00 0.  1.
         21   -1    0    0  501  503 -0.00000000000E+00 -0.00000000000E+00 -0.22510831288E+03  0.22510831288E+03  0.00000000000E+00 0. -1.
          6    1    1    2  501    0 -0.47327725588E+02  0.65747584342E+02 -0.39467936427E+02  0.19506249373E+03  0.17300000000E+03 0.  1.
         -6    1    1    2    0  502  0.47327725588E+02 -0.65747584342E+02 -0.23248767700E+02  0.19243742790E+03  0.17300000000E+03 0.  1.
<mgrwt>
<rscale>  2 0.19102790E+03</rscale>
<asrwt>0</asrwt>
<pdfrwt beam="1">  1       21 0.24983325E-01 0.19102790E+03</pdfrwt>
<pdfrwt beam="2">  1       21 0.34632048E-01 0.19102790E+03</pdfrwt>
<totfact> 0.12194996E+05</totfact>
</mgrwt>
</event>
<event>
 4    3  0.3906307E+000  0.1860418E+03  0.7546771E-02  0.1162081E+00
         21   -1    0    0  501  502  0.00000000000E+00  0.00000000000E+00  0.30073974158E+03  0.30073974158E+03  0.00000000000E+00 0.  1.
         21   -1    0    0  502  503 -0.00000000000E+00 -0.00000000000E+00 -0.11600188651E+03  0.11600188651E+03  0.00000000000E+00 0.  1.
          6    1    1    2  501    0  0.21982383978E+02 -0.64802182999E+02  0.73874519922E+02  0.20017240774E+03  0.17300000000E+03 0.  1.
         -6    1    1    2    0  503 -0.21982383978E+02  0.64802182999E+02  0.11086333515E+03  0.21656922036E+03  0.17300000000E+03 0.  1.
<mgrwt>
<rscale>  2 0.18604179E+03</rscale>
<asrwt>0</asrwt>
<pdfrwt beam="1">  1       21 0.46267652E-01 0.18604179E+03</pdfrwt>
<pdfrwt beam="2">  1       21 0.17846444E-01 0.18604179E+03</pdfrwt>
<totfact> 0.12794538E+05</totfact>
</mgrwt>
</event>
<event>
 4    3  0.3906307E+000  0.3057839E+03  0.7546771E-02  0.1082384E+00
         21   -1    0    0  503  502  0.00000000000E+00  0.00000000000E+00  0.32170586097E+03  0.32170586097E+03  0.00000000000E+00 0.  1.
         21   -1    0    0  501  503 -0.00000000000E+00 -0.00000000000E+00 -0.29154932405E+03  0.29154932405E+03  0.00000000000E+00 0.  1.
          6    1    1    2  501    0 -0.65823047975E+02 -0.24339710379E+03  0.32107766401E+02  0.30746501011E+03  0.17300000000E+03 0.  1.
         -6    1    1    2    0  502  0.65823047975E+02  0.24339710379E+03 -0.19512294865E+01  0.30579017491E+03  0.17300000000E+03 0.  1.
<mgrwt>
<rscale>  2 0.30578395E+03</rscale>
<asrwt>0</asrwt>
<pdfrwt beam="1">  1       21 0.49493209E-01 0.30578395E+03</pdfrwt>
<pdfrwt beam="2">  1       21 0.44853742E-01 0.30578395E+03</pdfrwt>
<totfact> 0.17546085E+04</totfact>
</mgrwt>
</event>
<event>
 4    3  0.3906307E+000  0.1846749E+03  0.7546771E-02  0.1163354E+00
         21   -1    0    0  501  502  0.00000000000E+00  0.00000000000E+00  0.51589578102E+02  0.51589578102E+02  0.00000000000E+00 0.  1.
         21   -1    0    0  502  503 -0.00000000000E+00 -0.00000000000E+00 -0.70656260782E+03  0.70656260782E+03  0.00000000000E+00 0.  1.
          6    1    1    2  501    0 -0.64440680223E+02 -0.48198290332E+01 -0.23130882751E+03  0.29598750937E+03  0.17300000000E+03 0.  1.
         -6    1    1    2    0  503  0.64440680223E+02  0.48198290332E+01 -0.42366420221E+03  0.46216467655E+03  0.17300000000E+03 0.  1.
<mgrwt>
<rscale>  2 0.18467494E+03</rscale>
<asrwt>0</asrwt>
<pdfrwt beam="1">  1       21 0.79368587E-02 0.18467494E+03</pdfrwt>
<pdfrwt beam="2">  1       21 0.10870193E+00 0.18467494E+03</pdfrwt>
<totfact> 0.82065192E+04</totfact>
</mgrwt>
</event>
<event>
 4    3  0.3906307E+000  0.1793319E+03  0.7546771E-02  0.1168451E+00
         21   -1    0    0  503  502  0.00000000000E+00  0.00000000000E+00  0.71069751082E+03  0.71069751082E+03  0.00000000000E+00 0.  1.
         21   -1    0    0  501  503 -0.00000000000E+00 -0.00000000000E+00 -0.92356091174E+02  0.92356091174E+02  0.00000000000E+00 0.  1.
          6    1    1    2  501    0  0.41350538535E+02 -0.22826856989E+02  0.22413294364E+02  0.18072710976E+03  0.17300000000E+03 0.  1.
         -6    1    1    2    0  502 -0.41350538535E+02  0.22826856989E+02  0.59592812528E+03  0.62232649224E+03  0.17300000000E+03 0.  1.
<mgrwt>
<rscale>  2 0.17933191E+03</rscale>
<asrwt>0</asrwt>
<pdfrwt beam="1">  1       21 0.10933808E+00 0.17933191E+03</pdfrwt>
<pdfrwt beam="2">  1       21 0.14208630E-01 0.17933191E+03</pdfrwt>
<totfact> 0.28910040E+04</totfact>
</mgrwt>
</event>
<event>
 4    3  0.3906307E+000  0.2227128E+03  0.7546771E-02  0.1131877E+00
         21   -1    0    0  501  502  0.00000000000E+00  0.00000000000E+00  0.14355740133E+03  0.14355740133E+03  0.00000000000E+00 0.  1.
         21   -1    0    0  502  503 -0.00000000000E+00 -0.00000000000E+00 -0.72155595761E+03  0.72155595761E+03  0.00000000000E+00 0. -1.
          6    1    1    2  501    0  0.10239664499E+03  0.95848529696E+02  0.23268003139E+02  0.22392501763E+03  0.17300000000E+03 0.  1.
         -6    1    1    2    0  503 -0.10239664499E+03 -0.95848529696E+02 -0.60126655942E+03  0.64118834130E+03  0.17300000000E+03 0. -1.
<mgrwt>
<rscale>  2 0.22271285E+03</rscale>
<asrwt>0</asrwt>
<pdfrwt beam="1">  1       21 0.22085753E-01 0.22271285E+03</pdfrwt>
<pdfrwt beam="2">  1       21 0.11100861E+00 0.22271285E+03</pdfrwt>
<totfact> 0.11998668E+04</totfact>
</mgrwt>
</event>
<event>
 4    3  0.3906307E+000  0.1797327E+03  0.7546771E-02  0.1168062E+00
         21   -1    0    0  503  502  0.00000000000E+00  0.00000000000E+00  0.53903403411E+03  0.53903403411E+03  0.00000000000E+00 0. -1.
         21   -1    0    0  501  503 -0.00000000000E+00 -0.00000000000E+00 -0.66945792595E+02  0.66945792595E+02  0.00000000000E+00 0. -1.
          6    1    1    2  501    0 -0.22194581217E+02  0.43384861812E+02  0.13795258394E+03  0.22657175704E+03  0.17300000000E+03 0. -1.
         -6    1    1    2    0  502  0.22194581217E+02 -0.43384861812E+02  0.33413565757E+03  0.37940806967E+03  0.17300000000E+03 0. -1.
<mgrwt>
<rscale>  2 0.17973271E+03</rscale>
<asrwt>0</asrwt>
<pdfrwt beam="1">  1       21 0.82928310E-01 0.17973271E+03</pdfrwt>
<pdfrwt beam="2">  1       21 0.10299353E-01 0.17973271E+03</pdfrwt>
<totfact> 0.98141153E+04</totfact>
</mgrwt>
</event>
<event>
 4    3  0.3906307E+000  0.2018033E+03  0.7546771E-02  0.1148226E+00
         21   -1    0    0  501  502  0.00000000000E+00  0.00000000000E+00  0.12920964430E+04  0.12920964430E+04  0.00000000000E+00 0. -1.
         21   -1    0    0  502  503 -0.00000000000E+00 -0.00000000000E+00 -0.43010744371E+02  0.43010744371E+02  0.00000000000E+00 0. -1.
          6    1    1    2  501    0  0.65916300975E+02 -0.80315703313E+02  0.96961150136E+03  0.99038933481E+03  0.17300000000E+03 0. -1.
         -6    1    1    2    0  503 -0.65916300975E+02  0.80315703313E+02  0.27947419725E+03  0.34471785254E+03  0.17300000000E+03 0. -1.
<mgrwt>
<rscale>  2 0.20180330E+03</rscale>
<asrwt>0</asrwt>
<pdfrwt beam="1">  1       21 0.19878404E+00 0.20180330E+03</pdfrwt>
<pdfrwt beam="2">  1       21 0.66170386E-02 0.20180330E+03</pdfrwt>
<totfact> 0.22631985E+04</totfact>
</mgrwt>
</event>
<event>
 4    3  0.3906307E+000  0.2029262E+03  0.7546771E-02  0.1147293E+00
         21   -1    0    0  501  502  0.00000000000E+00  0.00000000000E+00  0.12058351001E+03  0.12058351001E+03  0.00000000000E+00 0.  1.
         21   -1    0    0  502  503 -0.00000000000E+00 -0.00000000000E+00 -0.35972901698E+03  0.35972901698E+03  0.00000000000E+00 0.  1.
          6    1    1    2  501    0 -0.76397358297E+01 -0.10579080454E+03 -0.17363678544E+03  0.26707450860E+03  0.17300000000E+03 0.  1.
         -6    1    1    2    0  503  0.76397358297E+01  0.10579080454E+03 -0.65508721537E+02  0.21323801839E+03  0.17300000000E+03 0.  1.
<mgrwt>
<rscale>  2 0.20292624E+03</rscale>
<asrwt>0</asrwt>
<pdfrwt beam="1">  1       21 0.18551310E-01 0.20292624E+03</pdfrwt>
<pdfrwt beam="2">  1       21 0.55342924E-01 0.20292624E+03</pdfrwt>
<totfact> 0.81371991E+04</totfact>
</mgrwt>
</event>
<event>
 4    3  0.3906307E+000  0.1794296E+03  0.7546771E-02  0.1168356E+00
         21   -1    0    0  503  502  0.00000000000E+00  0.00000000000E+00  0.11699026002E+03  0.11699026002E+03  0.00000000000E+00 0.  1.
         21   -1    0    0  501  503 -0.00000000000E+00 -0.00000000000E+00 -0.28014167824E+03  0.28014167824E+03  0.00000000000E+00 0.  1.
          6    1    1    2  501    0  0.44197333344E+02  0.17680194366E+02 -0.10796487783E+03  0.20940727875E+03  0.17300000000E+03 0.  1.
         -6    1    1    2    0  502 -0.44197333344E+02 -0.17680194366E+02 -0.55186540396E+02  0.18772465951E+03  0.17300000000E+03 0.  1.
<mgrwt>
<rscale>  2 0.17942963E+03</rscale>
<asrwt>0</asrwt>
<pdfrwt beam="1">  1       21 0.17998502E-01 0.17942963E+03</pdfrwt>
<pdfrwt beam="2">  1       21 0.43098719E-01 0.17942963E+03</pdfrwt>
<totfact> 0.14598742E+05</totfact>
</mgrwt>
</event>
<event>
 4    3  0.3906307E+000  0.2653746E+03  0.7546771E-02  0.1103956E+00
         21   -1    0    0  503  502  0.00000000000E+00  0.00000000000E+00  0.13625761384E+03  0.13625761384E+03  0.00000000000E+00 0. -1.
         21   -1    0    0  501  503 -0.00000000000E+00 -0.00000000000E+00 -0.94196651167E+03  0.94196651167E+03  0.00000000000E+00 0. -1.
          6    1    1    2  501    0 -0.18481257887E+03  0.79617873722E+02 -0.76503010066E+03  0.80974980707E+03  0.17300000000E+03 0. -1.
         -6    1    1    2    0  502  0.18481257887E+03 -0.79617873722E+02 -0.40678797171E+02  0.26847431844E+03  0.17300000000E+03 0. -1.
<mgrwt>
<rscale>  2 0.26537463E+03</rscale>
<asrwt>0</asrwt>
<pdfrwt beam="1">  1       21 0.20962710E-01 0.26537463E+03</pdfrwt>
<pdfrwt beam="2">  1       21 0.14491792E+00 0.26537463E+03</pdfrwt>
<totfact> 0.65729247E+03</totfact>
</mgrwt>
</event>
<event>
 4    3  0.3906307E+000  0.2647455E+03  0.7546771E-02  0.1104325E+00
         21   -1    0    0  503  502  0.00000000000E+00  0.00000000000E+00  0.33910558952E+03  0.33910558952E+03  0.00000000000E+00 0.  1.
         21   -1    0    0  501  503 -0.00000000000E+00 -0.00000000000E+00 -0.24094194312E+03  0.24094194312E+03  0.00000000000E+00 0. -1.
          6    1    1    2  501    0  0.11579792141E+03 -0.16356042553E+03 -0.60266422260E+02  0.27151834755E+03  0.17300000000E+03 0. -1.
         -6    1    1    2    0  502 -0.11579792141E+03  0.16356042553E+03  0.15843006865E+03  0.30852918509E+03  0.17300000000E+03 0.  1.
<mgrwt>
<rscale>  2 0.26474548E+03</rscale>
<asrwt>0</asrwt>
<pdfrwt beam="1">  1       21 0.52170091E-01 0.26474548E+03</pdfrwt>
<pdfrwt beam="2">  1       21 0.37067991E-01 0.26474548E+03</pdfrwt>
<totfact> 0.23586422E+04</totfact>
</mgrwt>
</event>
<event>
 4    3  0.3906307E+000  0.2412735E+03  0.7546771E-02  0.1118947E+00
         21   -1    0    0  503  502  0.00000000000E+00  0.00000000000E+00  0.40264579326E+03  0.40264579326E+03  0.00000000000E+00 0. -1.
         21   -1    0    0  501  503 -0.00000000000E+00 -0.00000000000E+00 -0.17695747997E+03  0.17695747997E+03  0.00000000000E+00 0. -1.
          6    1    1    2  501    0  0.16521544948E+03  0.31428925116E+02 -0.11125287448E+02  0.24152990312E+03  0.17300000000E+03 0. -1.
         -6    1    1    2    0  502 -0.16521544948E+03 -0.31428925116E+02  0.23681360074E+03  0.33807337011E+03  0.17300000000E+03 0. -1.
<mgrwt>
<rscale>  2 0.24127354E+03</rscale>
<asrwt>0</asrwt>
<pdfrwt beam="1">  1       21 0.61945506E-01 0.24127354E+03</pdfrwt>
<pdfrwt beam="2">  1       21 0.27224228E-01 0.24127354E+03</pdfrwt>
<totfact> 0.30353319E+04</totfact>
</mgrwt>
</event>
<event>
 4    3  0.3906307E+000  0.1853161E+03  0.7546771E-02  0.1162755E+00
         21   -1    0    0  503  502  0.00000000000E+00  0.00000000000E+00  0.14442093363E+03  0.14442093363E+03  0.00000000000E+00 0. -1.
         21   -1    0    0  501  503 -0.00000000000E+00 -0.00000000000E+00 -0.36193325533E+03  0.36193325533E+03  0.00000000000E+00 0.  1.
          6    1    1    2  501    0  0.58043010080E+02 -0.32312290474E+02 -0.25703154268E+03  0.31687109219E+03  0.17300000000E+03 0.  1.
         -6    1    1    2    0  502 -0.58043010080E+02  0.32312290474E+02  0.39519220978E+02  0.18948309677E+03  0.17300000000E+03 0. -1.
<mgrwt>
<rscale>  2 0.18531615E+03</rscale>
<asrwt>0</asrwt>
<pdfrwt beam="1">  1       21 0.22218605E-01 0.18531615E+03</pdfrwt>
<pdfrwt beam="2">  1       21 0.55682039E-01 0.18531615E+03</pdfrwt>
<totfact> 0.57765982E+04</totfact>
</mgrwt>
</event>
<event>
 4    3  0.3906307E+000  0.3444253E+03  0.7546771E-02  0.1064927E+00
         21   -1    0    0  501  502  0.00000000000E+00  0.00000000000E+00  0.23626034951E+03  0.23626034951E+03  0.00000000000E+00 0. -1.
         21   -1    0    0  502  503 -0.00000000000E+00 -0.00000000000E+00 -0.50211947677E+03  0.50211947677E+03  0.00000000000E+00 0.  1.
          6    1    1    2  501    0 -0.59004334371E+02 -0.29192174383E+03 -0.13448549919E+03  0.36975013926E+03  0.17300000000E+03 0. -1.
         -6    1    1    2    0  503  0.59004334371E+02  0.29192174383E+03 -0.13137362807E+03  0.36862968701E+03  0.17300000000E+03 0. -1.
<mgrwt>
<rscale>  2 0.34442534E+03</rscale>
<asrwt>0</asrwt>
<pdfrwt beam="1">  1       21 0.36347746E-01 0.34442534E+03</pdfrwt>
<pdfrwt beam="2">  1       21 0.77249150E-01 0.34442534E+03</pdfrwt>
<totfact> 0.10035086E+04</totfact>
</mgrwt>
</event>
<event>
 4    3  0.3906307E+000  0.2036635E+03  0.7546771E-02  0.1146684E+00
         21   -1    0    0  503  502  0.00000000000E+00  0.00000000000E+00  0.43747411671E+02  0.43747411671E+02  0.00000000000E+00 0.  1.
         21   -1    0    0  501  503 -0.00000000000E+00 -0.00000000000E+00 -0.11375521753E+04  0.11375521753E+04  0.00000000000E+00 0.  1.
          6    1    1    2  501    0 -0.78964524183E+02 -0.72900179026E+02 -0.78791740441E+03  0.81381365702E+03  0.17300000000E+03 0.  1.
         -6    1    1    2    0  502  0.78964524183E+02  0.72900179026E+02 -0.30588735922E+03  0.36748592995E+03  0.17300000000E+03 0.  1.
<mgrwt>
<rscale>  2 0.20366353E+03</rscale>
<asrwt>0</asrwt>
<pdfrwt beam="1">  1       21 0.67303712E-02 0.20366353E+03</pdfrwt>
<pdfrwt beam="2">  1       21 0.17500802E+00 0.20366353E+03</pdfrwt>
<totfact> 0.31642064E+04</totfact>
</mgrwt>
</event>
<event>
 4    3  0.3906307E+000  0.2540038E+03  0.7546771E-02  0.1110800E+00
         21   -1    0    0  501  502  0.00000000000E+00  0.00000000000E+00  0.16275315579E+03  0.16275315579E+03  0.00000000000E+00 0.  1.
         21   -1    0    0  502  503 -0.00000000000E+00 -0.00000000000E+00 -0.40186153712E+03  0.40186153712E+03  0.00000000000E+00 0.  1.
          6    1    1    2  501    0  0.12025091196E+03  0.14187541035E+03 -0.15241773450E+03  0.29622471146E+03  0.17300000000E+03 0.  1.
         -6    1    1    2    0  503 -0.12025091196E+03 -0.14187541035E+03 -0.86690646826E+02  0.26838998144E+03  0.17300000000E+03 0.  1.
<mgrwt>
<rscale>  2 0.25400377E+03</rscale>
<asrwt>0</asrwt>
<pdfrwt beam="1">  1       21 0.25038947E-01 0.25400377E+03</pdfrwt>
<pdfrwt beam="2">  1       21 0.61824851E-01 0.25400377E+03</pdfrwt>
<totfact> 0.35622813E+04</totfact>
</mgrwt>
</event>
<event>
 4    3  0.3906307E+000  0.2672785E+03  0.7546771E-02  0.1102847E+00
         21   -1    0    0  501  502  0.00000000000E+00  0.00000000000E+00  0.42416182520E+03  0.42416182520E+03  0.00000000000E+00 0. -1.
         21   -1    0    0  502  503 -0.00000000000E+00 -0.00000000000E+00 -0.17233713696E+03  0.17233713696E+03  0.00000000000E+00 0. -1.
          6    1    1    2  501    0 -0.20078527260E+03 -0.34555460949E+02  0.17087097489E+03  0.31722972061E+03  0.17300000000E+03 0. -1.
         -6    1    1    2    0  503  0.20078527260E+03  0.34555460949E+02  0.80953713349E+02  0.27926924156E+03  0.17300000000E+03 0. -1.
<mgrwt>
<rscale>  2 0.26727852E+03</rscale>
<asrwt>0</asrwt>
<pdfrwt beam="1">  1       21 0.65255665E-01 0.26727852E+03</pdfrwt>
<pdfrwt beam="2">  1       21 0.26513406E-01 0.26727852E+03</pdfrwt>
<totfact> 0.28191912E+04</totfact>
</mgrwt>
</event>
<event>
 4    3  0.3906307E+000  0.1730491E+03  0.7546771E-02  0.1174705E+00
         21   -1    0    0  503  502  0.00000000000E+00  0.00000000000E+00  0.15566980539E+03  0.15566980539E+03  0.00000000000E+00 0. -1.
         21   -1    0    0  501  503 -0.00000000000E+00 -0.00000000000E+00 -0.38767732023E+03  0.38767732023E+03  0.00000000000E+00 0. -1.
          6    1    1    2  501    0  0.18688395596E+01 -0.36737741279E+01 -0.30883302448E+03  0.35401105376E+03  0.17300000000E+03 0. -1.
         -6    1    1    2    0  502 -0.18688395596E+01  0.36737741279E+01  0.76825509633E+02  0.18933607186E+03  0.17300000000E+03 0. -1.
<mgrwt>
<rscale>  2 0.17304909E+03</rscale>
<asrwt>0</asrwt>
<pdfrwt beam="1">  1       21 0.23949201E-01 0.17304909E+03</pdfrwt>
<pdfrwt beam="2">  1       21 0.59642664E-01 0.17304909E+03</pdfrwt>
<totfact> 0.43568455E+04</totfact>
</mgrwt>
</event>
<event>
 4    3  0.3906307E+000  0.1932912E+03  0.7546771E-02  0.1155526E+00
         21   -1    0    0  503  502  0.00000000000E+00  0.00000000000E+00  0.80258129501E+02  0.80258129501E+02  0.00000000000E+00 0. -1.
         21   -1    0    0  501  503 -0.00000000000E+00 -0.00000000000E+00 -0.72986345558E+03  0.72986345558E+03  0.00000000000E+00 0. -1.
          6    1    1    2  501    0  0.65760722117E+02  0.55749614193E+02 -0.56857614914E+03  0.60053337079E+03  0.17300000000E+03 0. -1.
         -6    1    1    2    0  502 -0.65760722117E+02 -0.55749614193E+02 -0.81029176939E+02  0.20958821430E+03  0.17300000000E+03 0. -1.
<mgrwt>
<rscale>  2 0.19329121E+03</rscale>
<asrwt>0</asrwt>
<pdfrwt beam="1">  1       21 0.12347405E-01 0.19329121E+03</pdfrwt>
<pdfrwt beam="2">  1       21 0.11228668E+00 0.19329121E+03</pdfrwt>
<totfact> 0.34633708E+04</totfact>
</mgrwt>
</event>
<event>
 4    3  0.3906307E+000  0.1814742E+03  0.7546771E-02  0.1166384E+00
         21   -1    0    0  501  502  0.00000000000E+00  0.00000000000E+00  0.11197590752E+03  0.11197590752E+03  0.00000000000E+00 0. -1.
         21   -1    0    0  502  503 -0.00000000000E+00 -0.00000000000E+00 -0.29433029651E+03  0.29433029651E+03  0.00000000000E+00 0. -1.
          6    1    1    2  501    0  0.48228571021E+02 -0.26036428695E+02 -0.96773642995E+02  0.20566484547E+03  0.17300000000E+03 0. -1.
         -6    1    1    2    0  503 -0.48228571021E+02  0.26036428695E+02 -0.85580745989E+02  0.20064135856E+03  0.17300000000E+03 0. -1.
<mgrwt>
<rscale>  2 0.18147421E+03</rscale>
<asrwt>0</asrwt>
<pdfrwt beam="1">  1       21 0.17227063E-01 0.18147421E+03</pdfrwt>
<pdfrwt beam="2">  1       21 0.45281584E-01 0.18147421E+03</pdfrwt>
<totfact> 0.14295329E+05</totfact>
</mgrwt>
</event>
<event>
 4    3  0.3906307E+000  0.2035925E+03  0.7546771E-02  0.1146743E+00
         21   -1    0    0  503  502  0.00000000000E+00  0.00000000000E+00  0.37900888834E+03  0.37900888834E+03  0.00000000000E+00 0. -1.
         21   -1    0    0  501  503 -0.00000000000E+00 -0.00000000000E+00 -0.19192500696E+03  0.19192500696E+03  0.00000000000E+00 0.  1.
          6    1    1    2  501    0 -0.78248145954E+02  0.73472039167E+02 -0.93689010992E+02  0.22411502329E+03  0.17300000000E+03 0.  1.
         -6    1    1    2    0  502  0.78248145954E+02 -0.73472039167E+02  0.28077289238E+03  0.34681887200E+03  0.17300000000E+03 0. -1.
<mgrwt>
<rscale>  2 0.20359252E+03</rscale>
<asrwt>0</asrwt>
<pdfrwt beam="1">  1       21 0.58309060E-01 0.20359252E+03</pdfrwt>
<pdfrwt beam="2">  1       21 0.29526924E-01 0.20359252E+03</pdfrwt>
<totfact> 0.30096714E+04</totfact>
</mgrwt>
</event>
<event>
 4    3  0.3906307E+000  0.1758535E+03  0.7546771E-02  0.1171877E+00
         21   -1    0    0  501  502  0.00000000000E+00  0.00000000000E+00  0.53377709910E+03  0.53377709910E+03  0.00000000000E+00 0. -1.
         21   -1    0    0  502  503 -0.00000000000E+00 -0.00000000000E+00 -0.85568877752E+02  0.85568877752E+02  0.00000000000E+00 0. -1.
          6    1    1    2  501    0 -0.11440394993E+02 -0.29403587564E+02  0.40008486875E+03  0.43702672206E+03  0.17300000000E+03 0. -1.
         -6    1    1    2    0  503  0.11440394993E+02  0.29403587564E+02  0.48123352598E+02  0.18231925478E+03  0.17300000000E+03 0. -1.
<mgrwt>
<rscale>  2 0.17585350E+03</rscale>
<asrwt>0</asrwt>
<pdfrwt beam="1">  1       21 0.82119552E-01 0.17585350E+03</pdfrwt>
<pdfrwt beam="2">  1       21 0.13164443E-01 0.17585350E+03</pdfrwt>
<totfact> 0.64907645E+04</totfact>
</mgrwt>
</event>
<event>
 4    3  0.3906307E+000  0.1976287E+03  0.7546771E-02  0.1151755E+00
         21   -1    0    0  503  502  0.00000000000E+00  0.00000000000E+00  0.62180032362E+03  0.62180032362E+03  0.00000000000E+00 0. -1.
         21   -1    0    0  501  503 -0.00000000000E+00 -0.00000000000E+00 -0.11993648880E+03  0.11993648880E+03  0.00000000000E+00 0.  1.
          6    1    1    2  501    0  0.63449222608E+02  0.71430452142E+02 -0.50160708927E+01  0.19769237292E+03  0.17300000000E+03 0.  1.
         -6    1    1    2    0  502 -0.63449222608E+02 -0.71430452142E+02  0.50687990571E+03  0.54404443950E+03  0.17300000000E+03 0. -1.
<mgrwt>
<rscale>  2 0.19762873E+03</rscale>
<asrwt>0</asrwt>
<pdfrwt beam="1">  1       21 0.95661586E-01 0.19762873E+03</pdfrwt>
<pdfrwt beam="2">  1       21 0.18451768E-01 0.19762873E+03</pdfrwt>
<totfact> 0.24368735E+04</totfact>
</mgrwt>
</event>
<event>
 4    3  0.3906307E+000  0.1889356E+03  0.7546771E-02  0.1159425E+00
         21   -1    0    0  501  502  0.00000000000E+00  0.00000000000E+00  0.31559513115E+03  0.31559513115E+03  0.00000000000E+00 0. -1.
         21   -1    0    0  502  503 -0.00000000000E+00 -0.00000000000E+00 -0.16183424327E+03  0.16183424327E+03  0.00000000000E+00 0.  1.
          6    1    1    2  501    0 -0.48769851071E+02 -0.58216638386E+02  0.20786514559E+03  0.28089961571E+03  0.17300000000E+03 0. -1.
         -6    1    1    2    0  503  0.48769851071E+02  0.58216638386E+02 -0.54104257707E+02  0.19652975871E+03  0.17300000000E+03 0.  1.
<mgrwt>
<rscale>  2 0.18893564E+03</rscale>
<asrwt>0</asrwt>
<pdfrwt beam="1">  1       21 0.48553097E-01 0.18893564E+03</pdfrwt>
<pdfrwt beam="2">  1       21 0.24897576E-01 0.18893564E+03</pdfrwt>
<totfact> 0.61936581E+04</totfact>
</mgrwt>
</event>
<event>
 4    3  0.3906307E+000  0.2006968E+03  0.7546771E-02  0.1149152E+00
         21   -1    0    0  501  502  0.00000000000E+00  0.00000000000E+00  0.13211063094E+03  0.13211063094E+03  0.00000000000E+00 0. -1.
         21   -1    0    0  502  503 -0.00000000000E+00 -0.00000000000E+00 -0.67637292005E+03  0.67637292005E+03  0.00000000000E+00 0. -1.
          6    1    1    2  501    0 -0.11369327895E+02 -0.10109868857E+03  0.27452106405E+02  0.20256560565E+03  0.17300000000E+03 0. -1.
         -6    1    1    2    0  503  0.11369327895E+02  0.10109868857E+03 -0.57171439551E+03  0.60591794533E+03  0.17300000000E+03 0. -1.
<mgrwt>
<rscale>  2 0.20069680E+03</rscale>
<asrwt>0</asrwt>
<pdfrwt beam="1">  1       21 0.20324712E-01 0.20069680E+03</pdfrwt>
<pdfrwt beam="2">  1       21 0.10405737E+00 0.20069680E+03</pdfrwt>
<totfact> 0.16635564E+04</totfact>
</mgrwt>
</event>
<event>
 4    3  0.3906307E+000  0.1950092E+03  0.7546771E-02  0.1154019E+00
         21   -1    0    0  501  502  0.00000000000E+00  0.00000000000E+00  0.75862398099E+03  0.75862398099E+03  0.00000000000E+00 0. -1.
         21   -1    0    0  502  503 -0.00000000000E+00 -0.00000000000E+00 -0.88117008344E+02  0.88117008344E+02  0.00000000000E+00 0.  1.
          6    1    1    2  501    0 -0.78223093051E+02 -0.44505466297E+02  0.61323604010E+03  0.64349594380E+03  0.17300000000E+03 0. -1.
         -6    1    1    2    0  503  0.78223093051E+02  0.44505466297E+02  0.57270932545E+02  0.20324504553E+03  0.17300000000E+03 0.  1.
<mgrwt>
<rscale>  2 0.19500920E+03</rscale>
<asrwt>0</asrwt>
<pdfrwt beam="1">  1       21 0.11671138E+00 0.19500920E+03</pdfrwt>
<pdfrwt beam="2">  1       21 0.13556463E-01 0.19500920E+03</pdfrwt>
<totfact> 0.26614873E+04</totfact>
</mgrwt>
</event>
<event>
 4    3  0.3906307E+000  0.2605657E+03  0.7546771E-02  0.1106804E+00
         21   -1    0    0  501  502  0.00000000000E+00  0.00000000000E+00  0.13476877415E+03  0.13476877415E+03  0.00000000000E+00 0. -1.
         21   -1    0    0  502  503 -0.00000000000E+00 -0.00000000000E+00 -0.51128063951E+03  0.51128063951E+03  0.00000000000E+00 0. -1.
          6    1    1    2  501    0 -0.12327507218E+03  0.15089318338E+03 -0.22736778711E+03  0.34581874852E+03  0.17300000000E+03 0. -1.
         -6    1    1    2    0  503  0.12327507218E+03 -0.15089318338E+03 -0.14914407825E+03  0.30023066514E+03  0.17300000000E+03 0. -1.
<mgrwt>
<rscale>  2 0.26056572E+03</rscale>
<asrwt>0</asrwt>
<pdfrwt beam="1">  1       21 0.20733657E-01 0.26056572E+03</pdfrwt>
<pdfrwt beam="2">  1       21 0.78658561E-01 0.26056572E+03</pdfrwt>
<totfact> 0.29806609E+04</totfact>
</mgrwt>
</event>
<event>
 4    3  0.3906307E+000  0.1816676E+03  0.7546771E-02  0.1166199E+00
         21   -1    0    0  501  502  0.00000000000E+00  0.00000000000E+00  0.28297926852E+02  0.28297926852E+02  0.00000000000E+00 0. -1.
         21   -1    0    0  502  503 -0.00000000000E+00 -0.00000000000E+00 -0.13410786843E+04  0.13410786843E+04  0.00000000000E+00 0. -1.
          6    1    1    2  501    0 -0.31212835337E+02 -0.45824552489E+02 -0.40919373996E+03  0.44770821695E+03  0.17300000000E+03 0.  1.
         -6    1    1    2    0  503  0.31212835337E+02  0.45824552489E+02 -0.90358701747E+03  0.92166839418E+03  0.17300000000E+03 0.  1.
<mgrwt>
<rscale>  2 0.18166764E+03</rscale>
<asrwt>0</asrwt>
<pdfrwt beam="1">  1       21 0.43535265E-02 0.18166764E+03</pdfrwt>
<pdfrwt beam="2">  1       21 0.20631983E+00 0.18166764E+03</pdfrwt>
<totfact> 0.41916258E+04</totfact>
</mgrwt>
</event>
<event>
 4    3  0.3906307E+000  0.1845723E+03  0.7546771E-02  0.1163450E+00
         21   -1    0    0  501  502  0.00000000000E+00  0.00000000000E+00  0.16322217519E+03  0.16322217519E+03  0.00000000000E+00 0. -1.
         21   -1    0    0  502  503 -0.00000000000E+00 -0.00000000000E+00 -0.22189979732E+03  0.22189979732E+03  0.00000000000E+00 0. -1.
          6    1    1    2  501    0 -0.31493794993E+02 -0.56089945012E+02  0.17599134775E+02  0.18540946739E+03  0.17300000000E+03 0.  1.
         -6    1    1    2    0  503  0.31493794993E+02  0.56089945012E+02 -0.76276756902E+02  0.19971250511E+03  0.17300000000E+03 0.  1.
<mgrwt>
<rscale>  2 0.18457232E+03</rscale>
<asrwt>0</asrwt>
<pdfrwt beam="1">  1       21 0.25111104E-01 0.18457232E+03</pdfrwt>
<pdfrwt beam="2">  1       21 0.34138431E-01 0.18457232E+03</pdfrwt>
<totfact> 0.12452161E+05</totfact>
</mgrwt>
</event>
<event>
 4    3  0.3906307E+000  0.1789954E+03  0.7546771E-02  0.1168779E+00
         21   -1    0    0  501  502  0.00000000000E+00  0.00000000000E+00  0.20426939387E+03  0.20426939387E+03  0.00000000000E+00 0.  1.
         21   -1    0    0  502  503 -0.00000000000E+00 -0.00000000000E+00 -0.21295177352E+03  0.21295177352E+03  0.00000000000E+00 0.  1.
          6    1    1    2  501    0 -0.23651292463E+02 -0.39382372491E+02  0.10273420352E+03  0.20638234292E+03  0.17300000000E+03 0.  1.
         -6    1    1    2    0  503  0.23651292463E+02  0.39382372491E+02 -0.11141658316E+03  0.21083882447E+03  0.17300000000E+03 0.  1.
<mgrwt>
<rscale>  2 0.17899540E+03</rscale>
<asrwt>0</asrwt>
<pdfrwt beam="1">  1       21 0.31426061E-01 0.17899540E+03</pdfrwt>
<pdfrwt beam="2">  1       21 0.32761811E-01 0.17899540E+03</pdfrwt>
<totfact> 0.87741105E+04</totfact>
</mgrwt>
</event>
<event>
 4    3  0.3906307E+000  0.2810874E+03  0.7546771E-02  0.1095096E+00
         21   -1    0    0  503  502  0.00000000000E+00  0.00000000000E+00  0.67768387458E+02  0.67768387458E+02  0.00000000000E+00 0.  1.
         21   -1    0    0  501  503 -0.00000000000E+00 -0.00000000000E+00 -0.23242471929E+04  0.23242471929E+04  0.00000000000E+00 0. -1.
          6    1    1    2  501    0  0.15200930883E+03  0.16116547861E+03 -0.19725749070E+04  0.19925014191E+04  0.17300000000E+03 0. -1.
         -6    1    1    2    0  502 -0.15200930883E+03 -0.16116547861E+03 -0.28390389838E+03  0.39951416118E+03  0.17300000000E+03 0.  1.
<mgrwt>
<rscale>  2 0.28108743E+03</rscale>
<asrwt>0</asrwt>
<pdfrwt beam="1">  1       21 0.10425904E-01 0.28108743E+03</pdfrwt>
<pdfrwt beam="2">  1       21 0.35757656E+00 0.28108743E+03</pdfrwt>
<totfact> 0.10686169E+03</totfact>
</mgrwt>
</event>
<event>
 4    3  0.3906307E+000  0.2662159E+03  0.7546771E-02  0.1103465E+00
         21   -1    0    0  501  502  0.00000000000E+00  0.00000000000E+00  0.14752437128E+03  0.14752437128E+03  0.00000000000E+00 0.  1.
         21   -1    0    0  502  503 -0.00000000000E+00 -0.00000000000E+00 -0.64167378914E+03  0.64167378914E+03  0.00000000000E+00 0.  1.
          6    1    1    2  501    0  0.10821212017E+03 -0.17097388047E+03 -0.49250799486E+02  0.27073339654E+03  0.17300000000E+03 0.  1.
         -6    1    1    2    0  503 -0.10821212017E+03  0.17097388047E+03 -0.44489861838E+03  0.51846476388E+03  0.17300000000E+03 0.  1.
<mgrwt>
<rscale>  2 0.26621595E+03</rscale>
<asrwt>0</asrwt>
<pdfrwt beam="1">  1       21 0.22696057E-01 0.26621595E+03</pdfrwt>
<pdfrwt beam="2">  1       21 0.98719044E-01 0.26621595E+03</pdfrwt>
<totfact> 0.14766524E+04</totfact>
</mgrwt>
</event>
<event>
 4    3  0.3906307E+000  0.2118092E+03  0.7546771E-02  0.1140141E+00
         21   -1    0    0  503  502  0.00000000000E+00  0.00000000000E+00  0.24573297018E+03  0.24573297018E+03  0.00000000000E+00 0. -1.
         21   -1    0    0  501  503 -0.00000000000E+00 -0.00000000000E+00 -0.20488921382E+03  0.20488921382E+03  0.00000000000E+00 0. -1.
          6    1    1    2  501    0 -0.32236845307E+01  0.12216283036E+03 -0.53944238635E+02  0.21857065253E+03  0.17300000000E+03 0. -1.
         -6    1    1    2    0  502  0.32236845307E+01 -0.12216283036E+03  0.94787994996E+02  0.23205153147E+03  0.17300000000E+03 0. -1.
<mgrwt>
<rscale>  2 0.21180923E+03</rscale>
<asrwt>0</asrwt>
<pdfrwt beam="1">  1       21 0.37805072E-01 0.21180923E+03</pdfrwt>
<pdfrwt beam="2">  1       21 0.31521418E-01 0.21180923E+03</pdfrwt>
<totfact> 0.64718745E+04</totfact>
</mgrwt>
</event>
<event>
 4    3  0.3906307E+000  0.1733430E+03  0.7546771E-02  0.1174406E+00
         21   -1    0    0  503  502  0.00000000000E+00  0.00000000000E+00  0.20113048498E+02  0.20113048498E+02  0.00000000000E+00 0.  1.
         21   -1    0    0  501  503 -0.00000000000E+00 -0.00000000000E+00 -0.25109122803E+04  0.25109122803E+04  0.00000000000E+00 0.  1.
          6    1    1    2  501    0  0.13737157124E+01  0.10812791917E+02 -0.20507855726E+04  0.20580984594E+04  0.17300000000E+03 0.  1.
         -6    1    1    2    0  502 -0.13737157124E+01 -0.10812791917E+02 -0.44001365913E+03  0.47292686938E+03  0.17300000000E+03 0.  1.
<mgrwt>
<rscale>  2 0.17334302E+03</rscale>
<asrwt>0</asrwt>
<pdfrwt beam="1">  1       21 0.30943146E-02 0.17334302E+03</pdfrwt>
<pdfrwt beam="2">  1       21 0.38629427E+00 0.17334302E+03</pdfrwt>
<totfact> 0.65357581E+03</totfact>
</mgrwt>
</event>
<event>
 4    3  0.3906307E+000  0.1910140E+03  0.7546771E-02  0.1157550E+00
         21   -1    0    0  501  502  0.00000000000E+00  0.00000000000E+00  0.21706628846E+03  0.21706628846E+03  0.00000000000E+00 0. -1.
         21   -1    0    0  502  503 -0.00000000000E+00 -0.00000000000E+00 -0.23176856719E+03  0.23176856719E+03  0.00000000000E+00 0. -1.
          6    1    1    2  501    0  0.80870753864E+02 -0.41546132101E+01  0.11028240474E+03  0.22056415946E+03  0.17300000000E+03 0. -1.
         -6    1    1    2    0  503 -0.80870753864E+02  0.41546132101E+01 -0.12498468346E+03  0.22827069620E+03  0.17300000000E+03 0. -1.
<mgrwt>
<rscale>  2 0.19101398E+03</rscale>
<asrwt>0</asrwt>
<pdfrwt beam="1">  1       21 0.33394813E-01 0.19101398E+03</pdfrwt>
<pdfrwt beam="2">  1       21 0.35656703E-01 0.19101398E+03</pdfrwt>
<totfact> 0.65541637E+04</totfact>
</mgrwt>
</event>
<event>
 4    3  0.3906307E+000  0.2257756E+03  0.7546771E-02  0.1129649E+00
         21   -1    0    0  501  502  0.00000000000E+00  0.00000000000E+00  0.31758785304E+02  0.31758785304E+02  0.00000000000E+00 0.  1.
         21   -1    0    0  502  503 -0.00000000000E+00 -0.00000000000E+00 -0.16611002457E+04  0.16611002457E+04  0.00000000000E+00 0.  1.
          6    1    1    2  501    0  0.11636645698E+03 -0.86628325502E+02 -0.65919607965E+03  0.69678841159E+03  0.17300000000E+03 0.  1.
         -6    1    1    2    0  503 -0.11636645698E+03  0.86628325502E+02 -0.97014538074E+03  0.99607061941E+03  0.17300000000E+03 0.  1.
<mgrwt>
<rscale>  2 0.22577559E+03</rscale>
<asrwt>0</asrwt>
<pdfrwt beam="1">  1       21 0.48859669E-02 0.22577559E+03</pdfrwt>
<pdfrwt beam="2">  1       21 0.25555389E+00 0.22577559E+03</pdfrwt>
<totfact> 0.16771035E+04</totfact>
</mgrwt>
</event>
<event>
 4    3  0.3906307E+000  0.1891251E+03  0.7546771E-02  0.1159253E+00
         21   -1    0    0  503  502  0.00000000000E+00  0.00000000000E+00  0.28565595158E+03  0.28565595158E+03  0.00000000000E+00 0.  1.
         21   -1    0    0  501  503 -0.00000000000E+00 -0.00000000000E+00 -0.17155097108E+03  0.17155097108E+03  0.00000000000E+00 0. -1.
          6    1    1    2  501    0 -0.70725719534E+02  0.28933808635E+02 -0.61755943402E+02  0.19895247983E+03  0.17300000000E+03 0. -1.
         -6    1    1    2    0  502  0.70725719534E+02 -0.28933808635E+02  0.17586092390E+03  0.25825444283E+03  0.17300000000E+03 0.  1.
<mgrwt>
<rscale>  2 0.18912507E+03</rscale>
<asrwt>0</asrwt>
<pdfrwt beam="1">  1       21 0.43947069E-01 0.18912507E+03</pdfrwt>
<pdfrwt beam="2">  1       21 0.26392457E-01 0.18912507E+03</pdfrwt>
<totfact> 0.68021979E+04</totfact>
</mgrwt>
</event>
<event>
 4    3  0.3906307E+000  0.3021119E+03  0.7546771E-02  0.1084190E+00
         21   -1    0    0  501  502  0.00000000000E+00  0.00000000000E+00  0.97675314178E+02  0.97675314178E+02  0.00000000000E+00 0. -1.
         21   -1    0    0  502  503 -0.00000000000E+00 -0.00000000000E+00 -0.11867455843E+04  0.11867455843E+04  0.00000000000E+00 0. -1.
          6    1    1    2  501    0  0.20211145726E+03 -0.14315567660E+03 -0.84065200291E+03  0.89329019859E+03  0.17300000000E+03 0. -1.
         -6    1    1    2    0  503 -0.20211145726E+03  0.14315567660E+03 -0.24841826717E+03  0.39113069985E+03  0.17300000000E+03 0. -1.
<mgrwt>
<rscale>  2 0.30211188E+03</rscale>
<asrwt>0</asrwt>
<pdfrwt beam="1">  1       21 0.15026972E-01 0.30211188E+03</pdfrwt>
<pdfrwt beam="2">  1       21 0.18257624E+00 0.30211188E+03</pdfrwt>
<totfact> 0.63322532E+03</totfact>
</mgrwt>
</event>
<event>
 4    3  0.3906307E+000  0.1793440E+03  0.7546771E-02  0.1168439E+00
         21   -1    0    0  501  502  0.00000000000E+00  0.00000000000E+00  0.10597174317E+03  0.10597174317E+03  0.00000000000E+00 0. -1.
         21   -1    0    0  502  503 -0.00000000000E+00 -0.00000000000E+00 -0.48575123832E+03  0.48575123832E+03  0.00000000000E+00 0.  1.
          6    1    1    2  501    0  0.12281638980E+02  0.45655743233E+02 -0.86740577604E+01  0.17955368229E+03  0.17300000000E+03 0. -1.
         -6    1    1    2    0  503 -0.12281638980E+02 -0.45655743233E+02 -0.37110543739E+03  0.41216929920E+03  0.17300000000E+03 0.  1.
<mgrwt>
<rscale>  2 0.17934404E+03</rscale>
<asrwt>0</asrwt>
<pdfrwt beam="1">  1       21 0.16303345E-01 0.17934404E+03</pdfrwt>
<pdfrwt beam="2">  1       21 0.74730962E-01 0.17934404E+03</pdfrwt>
<totfact> 0.54333382E+04</totfact>
</mgrwt>
</event>
<event>
 4    3  0.3906307E+000  0.1884083E+03  0.7546771E-02  0.1159905E+00
         21   -1    0    0  503  502  0.00000000000E+00  0.00000000000E+00  0.36142049337E+03  0.36142049337E+03  0.00000000000E+00 0. -1.
         21   -1    0    0  501  503 -0.00000000000E+00 -0.00000000000E+00 -0.12431235391E+03  0.12431235391E+03  0.00000000000E+00 0. -1.
          6    1    1    2  501    0 -0.47352861319E+02  0.57674828783E+02  0.72807759281E+01  0.18854890360E+03  0.17300000000E+03 0. -1.
         -6    1    1    2    0  502  0.47352861319E+02 -0.57674828783E+02  0.22982736354E+03  0.29718394368E+03  0.17300000000E+03 0. -1.
<mgrwt>
<rscale>  2 0.18840828E+03</rscale>
<asrwt>0</asrwt>
<pdfrwt beam="1">  1       21 0.55603152E-01 0.18840828E+03</pdfrwt>
<pdfrwt beam="2">  1       21 0.19124978E-01 0.18840828E+03</pdfrwt>
<totfact> 0.76610632E+04</totfact>
</mgrwt>
</event>
<event>
 4    3  0.3906307E+000  0.1995166E+03  0.7546771E-02  0.1150148E+00
         21   -1    0    0  501  502  0.00000000000E+00  0.00000000000E+00  0.19955808343E+03  0.19955808343E+03  0.00000000000E+00 0. -1.
         21   -1    0    0  502  503 -0.00000000000E+00 -0.00000000000E+00 -0.37757180311E+03  0.37757180311E+03  0.00000000000E+00 0. -1.
          6    1    1    2  501    0  0.36255306390E+02  0.92538729358E+02  0.10917858805E+03  0.22743532654E+03  0.17300000000E+03 0. -1.
         -6    1    1    2    0  503 -0.36255306390E+02 -0.92538729358E+02 -0.28719230773E+03  0.34969455999E+03  0.17300000000E+03 0. -1.
<mgrwt>
<rscale>  2 0.19951657E+03</rscale>
<asrwt>0</asrwt>
<pdfrwt beam="1">  1       21 0.30701244E-01 0.19951657E+03</pdfrwt>
<pdfrwt beam="2">  1       21 0.58087970E-01 0.19951657E+03</pdfrwt>
<totfact> 0.28181830E+04</totfact>
</mgrwt>
</event>
<event>
 4    3  0.3906307E+000  0.1895590E+03  0.7546771E-02  0.1158860E+00
         21   -1    0    0  501  502  0.00000000000E+00  0.00000000000E+00  0.39517900610E+03  0.39517900610E+03  0.00000000000E+00 0. -1.
         21   -1    0    0  502  503 -0.00000000000E+00 -0.00000000000E+00 -0.91664339358E+02  0.91664339358E+02  0.00000000000E+00 0. -1.
          6    1    1    2  501    0  0.37722465861E+02 -0.67680285295E+02  0.17358315092E+03  0.25702862823E+03  0.17300000000E+03 0. -1.
         -6    1    1    2    0  503 -0.37722465861E+02  0.67680285295E+02  0.12993151582E+03  0.22981471722E+03  0.17300000000E+03 0. -1.
<mgrwt>
<rscale>  2 0.18955898E+03</rscale>
<asrwt>0</asrwt>
<pdfrwt beam="1">  1       21 0.60796769E-01 0.18955898E+03</pdfrwt>
<pdfrwt beam="2">  1       21 0.14102206E-01 0.18955898E+03</pdfrwt>
<totfact> 0.11065672E+05</totfact>
</mgrwt>
</event>
<event>
 4    3  0.3906307E+000  0.2381185E+03  0.7546771E-02  0.1121053E+00
         21   -1    0    0  503  502  0.00000000000E+00  0.00000000000E+00  0.53306115917E+03  0.53306115917E+03  0.00000000000E+00 0.  1.
         21   -1    0    0  501  503 -0.00000000000E+00 -0.00000000000E+00 -0.10771437224E+03  0.10771437224E+03  0.00000000000E+00 0. -1.
          6    1    1    2  501    0 -0.10435418568E+03 -0.12602224415E+03  0.17684754553E+03  0.29660656845E+03  0.17300000000E+03 0. -1.
         -6    1    1    2    0  502  0.10435418568E+03  0.12602224415E+03  0.24849924140E+03  0.34416896296E+03  0.17300000000E+03 0. -1.
<mgrwt>
<rscale>  2 0.23811846E+03</rscale>
<asrwt>0</asrwt>
<pdfrwt beam="1">  1       21 0.82009408E-01 0.23811846E+03</pdfrwt>
<pdfrwt beam="2">  1       21 0.16571442E-01 0.23811846E+03</pdfrwt>
<totfact> 0.41577412E+04</totfact>
</mgrwt>
</event>
<event>
 4    3  0.3906307E+000  0.2840750E+03  0.7546771E-02  0.1093484E+00
         21   -1    0    0  503  502  0.00000000000E+00  0.00000000000E+00  0.14691602107E+03  0.14691602107E+03  0.00000000000E+00 0.  1.
         21   -1    0    0  501  503 -0.00000000000E+00 -0.00000000000E+00 -0.63394218369E+03  0.63394218369E+03  0.00000000000E+00 0. -1.
          6    1    1    2  501    0  0.15010151570E+03  0.16804508745E+03 -0.38618939739E+03  0.47941721610E+03  0.17300000000E+03 0. -1.
         -6    1    1    2    0  502 -0.15010151570E+03 -0.16804508745E+03 -0.10083676523E+03  0.30144098867E+03  0.17300000000E+03 0.  1.
<mgrwt>
<rscale>  2 0.28407502E+03</rscale>
<asrwt>0</asrwt>
<pdfrwt beam="1">  1       21 0.22602465E-01 0.28407502E+03</pdfrwt>
<pdfrwt beam="2">  1       21 0.97529564E-01 0.28407502E+03</pdfrwt>
<totfact> 0.15189850E+04</totfact>
</mgrwt>
</event>
<event>
 4    3  0.3906307E+000  0.1891722E+03  0.7546771E-02  0.1159210E+00
         21   -1    0    0  501  502  0.00000000000E+00  0.00000000000E+00  0.79979882414E+03  0.79979882414E+03  0.00000000000E+00 0. -1.
         21   -1    0    0  502  503 -0.00000000000E+00 -0.00000000000E+00 -0.57727201421E+02  0.57727201421E+02  0.00000000000E+00 0. -1.
          6    1    1    2  501    0 -0.28457497817E+02  0.71044313813E+02  0.57437426914E+03  0.60472466856E+03  0.17300000000E+03 0. -1.
         -6    1    1    2    0  503  0.28457497817E+02 -0.71044313813E+02  0.16769735358E+03  0.25280135701E+03  0.17300000000E+03 0. -1.
<mgrwt>
<rscale>  2 0.18917221E+03</rscale>
<asrwt>0</asrwt>
<pdfrwt beam="1">  1       21 0.12304597E+00 0.18917221E+03</pdfrwt>
<pdfrwt beam="2">  1       21 0.88811085E-02 0.18917221E+03</pdfrwt>
<totfact> 0.49701866E+04</totfact>
</mgrwt>
</event>
<event>
 4    3  0.3906307E+000  0.2835937E+03  0.7546771E-02  0.1093742E+00
         21   -1    0    0  501  502  0.00000000000E+00  0.00000000000E+00  0.15720117875E+03  0.15720117875E+03  0.00000000000E+00 0. -1.
         21   -1    0    0  502  503 -0.00000000000E+00 -0.00000000000E+00 -0.55613514885E+03  0.55613514885E+03  0.00000000000E+00 0.  1.
          6    1    1    2  501    0 -0.19473511616E+03  0.11213653734E+03 -0.98544718512E+02  0.30022729726E+03  0.17300000000E+03 0. -1.
         -6    1    1    2    0  503  0.19473511616E+03 -0.11213653734E+03 -0.30038925159E+03  0.41310903033E+03  0.17300000000E+03 0. -1.
<mgrwt>
<rscale>  2 0.28359367E+03</rscale>
<asrwt>0</asrwt>
<pdfrwt beam="1">  1       21 0.24184797E-01 0.28359367E+03</pdfrwt>
<pdfrwt beam="2">  1       21 0.85559253E-01 0.28359367E+03</pdfrwt>
<totfact> 0.18152105E+04</totfact>
</mgrwt>
</event>
<event>
 4    3  0.3906307E+000  0.1799633E+03  0.7546771E-02  0.1167839E+00
         21   -1    0    0  503  502  0.00000000000E+00  0.00000000000E+00  0.31856235608E+03  0.31856235608E+03  0.00000000000E+00 0.  1.
         21   -1    0    0  501  503 -0.00000000000E+00 -0.00000000000E+00 -0.12227332345E+03  0.12227332345E+03  0.00000000000E+00 0.  1.
          6    1    1    2  501    0  0.34312616796E+02 -0.35783027519E+02  0.76551340615E+01  0.18012601646E+03  0.17300000000E+03 0.  1.
         -6    1    1    2    0  502 -0.34312616796E+02  0.35783027519E+02  0.18863389857E+03  0.26070966307E+03  0.17300000000E+03 0.  1.
<mgrwt>
<rscale>  2 0.17996328E+03</rscale>
<asrwt>0</asrwt>
<pdfrwt beam="1">  1       21 0.49009593E-01 0.17996328E+03</pdfrwt>
<pdfrwt beam="2">  1       21 0.18811281E-01 0.17996328E+03</pdfrwt>
<totfact> 0.10327317E+05</totfact>
</mgrwt>
</event>
<event>
 4    3  0.3906307E+000  0.2103608E+03  0.7546771E-02  0.1141281E+00
         21   -1    0    0  501  502  0.00000000000E+00  0.00000000000E+00  0.20358966785E+04  0.20358966785E+04  0.00000000000E+00 0. -1.
         21   -1    0    0  502  503 -0.00000000000E+00 -0.00000000000E+00 -0.33414939460E+02  0.33414939460E+02  0.00000000000E+00 0.  1.
          6    1    1    2  501    0  0.41106735407E+02  0.11239612448E+03  0.16129327605E+04  0.16265926787E+04  0.17300000000E+03 0. -1.
         -6    1    1    2    0  503 -0.41106735407E+02 -0.11239612448E+03  0.38954897846E+03  0.44271893918E+03  0.17300000000E+03 0.  1.
<mgrwt>
<rscale>  2 0.21036077E+03</rscale>
<asrwt>0</asrwt>
<pdfrwt beam="1">  1       21 0.31321478E+00 0.21036077E+03</pdfrwt>
<pdfrwt beam="2">  1       21 0.51407615E-02 0.21036077E+03</pdfrwt>
<totfact> 0.72084344E+03</totfact>
</mgrwt>
</event>
<event>
 4    3  0.3906307E+000  0.1946951E+03  0.7546771E-02  0.1154294E+00
         21   -1    0    0  503  502  0.00000000000E+00  0.00000000000E+00  0.10818606763E+03  0.10818606763E+03  0.00000000000E+00 0.  1.
         21   -1    0    0  501  503 -0.00000000000E+00 -0.00000000000E+00 -0.46536417551E+03  0.46536417551E+03  0.00000000000E+00 0.  1.
          6    1    1    2  501    0 -0.42395884415E+02  0.78611482155E+02 -0.32113834213E+03  0.37554761473E+03  0.17300000000E+03 0.  1.
         -6    1    1    2    0  502  0.42395884415E+02 -0.78611482155E+02 -0.36039765757E+02  0.19800262841E+03  0.17300000000E+03 0.  1.
<mgrwt>
<rscale>  2 0.19469509E+03</rscale>
<asrwt>0</asrwt>
<pdfrwt beam="1">  1       21 0.16644011E-01 0.19469509E+03</pdfrwt>
<pdfrwt beam="2">  1       21 0.71594488E-01 0.19469509E+03</pdfrwt>
<totfact> 0.57127642E+04</totfact>
</mgrwt>
</event>
<event>
 4    3  0.3906307E+000  0.2389640E+03  0.7546771E-02  0.1120485E+00
         21   -1    0    0  501  502  0.00000000000E+00  0.00000000000E+00  0.68792680490E+03  0.68792680490E+03  0.00000000000E+00 0. -1.
         21   -1    0    0  502  503 -0.00000000000E+00 -0.00000000000E+00 -0.27483409920E+03  0.27483409920E+03  0.00000000000E+00 0.  1.
          6    1    1    2  501    0  0.23792358787E+02 -0.16312179011E+03  0.60871331192E+03  0.65393859869E+03  0.17300000000E+03 0. -1.
         -6    1    1    2    0  503 -0.23792358787E+02  0.16312179011E+03 -0.19562060621E+03  0.30882230541E+03  0.17300000000E+03 0.  1.
<mgrwt>
<rscale>  2 0.23896400E+03</rscale>
<asrwt>0</asrwt>
<pdfrwt beam="1">  1       21 0.10583489E+00 0.23896400E+03</pdfrwt>
<pdfrwt beam="2">  1       21 0.42282169E-01 0.23896400E+03</pdfrwt>
<totfact> 0.37232630E+03</totfact>
</mgrwt>
</event>
<event>
 4    3  0.3906307E+000  0.2056026E+03  0.7546771E-02  0.1145096E+00
         21   -1    0    0  503  502  0.00000000000E+00  0.00000000000E+00  0.11960287088E+03  0.11960287088E+03  0.00000000000E+00 0. -1.
         21   -1    0    0  501  503 -0.00000000000E+00 -0.00000000000E+00 -0.47244630421E+03  0.47244630421E+03  0.00000000000E+00 0.  1.
          6    1    1    2  501    0 -0.90397104385E+02 -0.64589416256E+02 -0.32499361960E+03  0.38456895605E+03  0.17300000000E+03 0.  1.
         -6    1    1    2    0  502  0.90397104385E+02  0.64589416256E+02 -0.27849813729E+02  0.20748021905E+03  0.17300000000E+03 0. -1.
<mgrwt>
<rscale>  2 0.20560260E+03</rscale>
<asrwt>0</asrwt>
<pdfrwt beam="1">  1       21 0.18400442E-01 0.20560260E+03</pdfrwt>
<pdfrwt beam="2">  1       21 0.72684047E-01 0.20560260E+03</pdfrwt>
<totfact> 0.45656821E+04</totfact>
</mgrwt>
</event>
<event>
 4    3  0.3906307E+000  0.3058848E+03  0.7546771E-02  0.1082335E+00
         21   -1    0    0  501  502  0.00000000000E+00  0.00000000000E+00  0.14228945047E+04  0.14228945047E+04  0.00000000000E+00 0. -1.
         21   -1    0    0  502  503 -0.00000000000E+00 -0.00000000000E+00 -0.12616573878E+03  0.12616573878E+03  0.00000000000E+00 0.  1.
          6    1    1    2  501    0  0.17506981001E+03  0.18162351808E+03  0.11843051644E+04  0.12231697605E+04  0.17300000000E+03 0. -1.
         -6    1    1    2    0  503 -0.17506981001E+03 -0.18162351808E+03  0.11242360155E+03  0.32589048296E+03  0.17300000000E+03 0.  1.
<mgrwt>
<rscale>  2 0.30588485E+03</rscale>
<asrwt>0</asrwt>
<pdfrwt beam="1">  1       21 0.21890684E+00 0.30588485E+03</pdfrwt>
<pdfrwt beam="2">  1       21 0.19410115E-01 0.30588485E+03</pdfrwt>
<totfact> 0.22672513E+03</totfact>
</mgrwt>
</event>
<event>
 4    3  0.3906307E+000  0.2216107E+03  0.7546771E-02  0.1132688E+00
         21   -1    0    0  501  502  0.00000000000E+00  0.00000000000E+00  0.15601995274E+03  0.15601995274E+03  0.00000000000E+00 0. -1.
         21   -1    0    0  502  503 -0.00000000000E+00 -0.00000000000E+00 -0.84601410558E+03  0.84601410558E+03  0.00000000000E+00 0.  1.
          6    1    1    2  501    0 -0.11058886186E+03  0.83381198876E+02  0.52019222858E+02  0.22763418074E+03  0.17300000000E+03 0.  1.
         -6    1    1    2    0  503  0.11058886186E+03 -0.83381198876E+02 -0.74201337569E+03  0.77439987758E+03  0.17300000000E+03 0.  1.
<mgrwt>
<rscale>  2 0.22161074E+03</rscale>
<asrwt>0</asrwt>
<pdfrwt beam="1">  1       21 0.24003070E-01 0.22161074E+03</pdfrwt>
<pdfrwt beam="2">  1       21 0.13015602E+00 0.22161074E+03</pdfrwt>
<totfact> 0.69024765E+03</totfact>
</mgrwt>
</event>
<event>
 4    3  0.3906307E+000  0.2035184E+03  0.7546771E-02  0.1146804E+00
         21   -1    0    0  501  502  0.00000000000E+00  0.00000000000E+00  0.26145085443E+03  0.26145085443E+03  0.00000000000E+00 0. -1.
         21   -1    0    0  502  503 -0.00000000000E+00 -0.00000000000E+00 -0.19365649467E+03  0.19365649467E+03  0.00000000000E+00 0. -1.
          6    1    1    2  501    0 -0.21526322768E+02 -0.10501124521E+03  0.13095883049E+03  0.24201231265E+03  0.17300000000E+03 0. -1.
         -6    1    1    2    0  503  0.21526322768E+02  0.10501124521E+03 -0.63164470730E+02  0.21309503644E+03  0.17300000000E+03 0. -1.
<mgrwt>
<rscale>  2 0.20351841E+03</rscale>
<asrwt>0</asrwt>
<pdfrwt beam="1">  1       21 0.40223209E-01 0.20351841E+03</pdfrwt>
<pdfrwt beam="2">  1       21 0.29793307E-01 0.20351841E+03</pdfrwt>
<totfact> 0.64011870E+04</totfact>
</mgrwt>
</event>
<event>
 4    3  0.3906307E+000  0.2746580E+03  0.7546771E-02  0.1098643E+00
         21   -1    0    0  501  502  0.00000000000E+00  0.00000000000E+00  0.15496327263E+03  0.15496327263E+03  0.00000000000E+00 0.  1.
         21   -1    0    0  502  503 -0.00000000000E+00 -0.00000000000E+00 -0.16035840249E+04  0.16035840249E+04  0.00000000000E+00 0.  1.
          6    1    1    2  501    0  0.60576327816E+02  0.20454471779E+03  0.94624922959E+01  0.27482098142E+03  0.17300000000E+03 0.  1.
         -6    1    1    2    0  503 -0.60576327816E+02 -0.20454471779E+03 -0.14580832446E+04  0.14837263161E+04  0.17300000000E+03 0.  1.
<mgrwt>
<rscale>  2 0.27465803E+03</rscale>
<asrwt>0</asrwt>
<pdfrwt beam="1">  1       21 0.23840503E-01 0.27465803E+03</pdfrwt>
<pdfrwt beam="2">  1       21 0.24670524E+00 0.27465803E+03</pdfrwt>
<totfact> 0.10601618E+03</totfact>
</mgrwt>
</event>
<event>
 4    3  0.3906307E+000  0.2318056E+03  0.7546771E-02  0.1125375E+00
         21   -1    0    0  501  502  0.00000000000E+00  0.00000000000E+00  0.43969548576E+02  0.43969548576E+02  0.00000000000E+00 0.  1.
         21   -1    0    0  502  503 -0.00000000000E+00 -0.00000000000E+00 -0.12225878696E+04  0.12225878696E+04  0.00000000000E+00 0.  1.
          6    1    1    2  501    0  0.15205499520E+03 -0.26156018316E+02 -0.60234488939E+03  0.64540934656E+03  0.17300000000E+03 0.  1.
         -6    1    1    2    0  503 -0.15205499520E+03  0.26156018316E+02 -0.57627343163E+03  0.62114807161E+03  0.17300000000E+03 0.  1.
<mgrwt>
<rscale>  2 0.23180565E+03</rscale>
<asrwt>0</asrwt>
<pdfrwt beam="1">  1       21 0.67645458E-02 0.23180565E+03</pdfrwt>
<pdfrwt beam="2">  1       21 0.18809045E+00 0.23180565E+03</pdfrwt>
<totfact> 0.25096346E+04</totfact>
</mgrwt>
</event>
<event>
 4    3  0.3906307E+000  0.1960667E+03  0.7546771E-02  0.1153101E+00
         21   -1    0    0  503  502  0.00000000000E+00  0.00000000000E+00  0.20903669945E+03  0.20903669945E+03  0.00000000000E+00 0.  1.
         21   -1    0    0  501  503 -0.00000000000E+00 -0.00000000000E+00 -0.30257777556E+03  0.30257777556E+03  0.00000000000E+00 0.  1.
          6    1    1    2  501    0 -0.10506715772E+02 -0.91666603038E+02 -0.20697563025E+03  0.28509834918E+03  0.17300000000E+03 0.  1.
         -6    1    1    2    0  502  0.10506715772E+02  0.91666603038E+02  0.11343455414E+03  0.22651612583E+03  0.17300000000E+03 0.  1.
<mgrwt>
<rscale>  2 0.19606672E+03</rscale>
<asrwt>0</asrwt>
<pdfrwt beam="1">  1       21 0.32159492E-01 0.19606672E+03</pdfrwt>
<pdfrwt beam="2">  1       21 0.46550427E-01 0.19606672E+03</pdfrwt>
<totfact> 0.41034945E+04</totfact>
</mgrwt>
</event>
<event>
 4    3  0.3906307E+000  0.2041380E+03  0.7546771E-02  0.1146294E+00
         21   -1    0    0  501  502  0.00000000000E+00  0.00000000000E+00  0.33320367130E+03  0.33320367130E+03  0.00000000000E+00 0. -1.
         21   -1    0    0  502  503 -0.00000000000E+00 -0.00000000000E+00 -0.23559068015E+03  0.23559068015E+03  0.00000000000E+00 0. -1.
          6    1    1    2  501    0  0.58134415418E+02  0.91453295218E+02  0.24360097966E+03  0.31782660800E+03  0.17300000000E+03 0. -1.
         -6    1    1    2    0  503 -0.58134415418E+02 -0.91453295218E+02 -0.14598798851E+03  0.25096774345E+03  0.17300000000E+03 0. -1.
<mgrwt>
<rscale>  2 0.20413798E+03</rscale>
<asrwt>0</asrwt>
<pdfrwt beam="1">  1       21 0.51262103E-01 0.20413798E+03</pdfrwt>
<pdfrwt beam="2">  1       21 0.36244720E-01 0.20413798E+03</pdfrwt>
<totfact> 0.26380559E+04</totfact>
</mgrwt>
</event>
<event>
 4    3  0.3906307E+000  0.1779622E+03  0.7546771E-02  0.1169790E+00
         21   -1    0    0  503  502  0.00000000000E+00  0.00000000000E+00  0.92274820289E+03  0.92274820289E+03  0.00000000000E+00 0. -1.
         21   -1    0    0  501  503 -0.00000000000E+00 -0.00000000000E+00 -0.36391800896E+02  0.36391800896E+02  0.00000000000E+00 0. -1.
          6    1    1    2  501    0 -0.25763982964E+02  0.32829223456E+02  0.32880687778E+03  0.37387765861E+03  0.17300000000E+03 0. -1.
         -6    1    1    2    0  502  0.25763982964E+02 -0.32829223456E+02  0.55754952422E+03  0.58526234518E+03  0.17300000000E+03 0. -1.
<mgrwt>
<rscale>  2 0.17796219E+03</rscale>
<asrwt>0</asrwt>
<pdfrwt beam="1">  1       21 0.14196124E+00 0.17796219E+03</pdfrwt>
<pdfrwt beam="2">  1       21 0.55987393E-02 0.17796219E+03</pdfrwt>
<totfact> 0.77165454E+04</totfact>
</mgrwt>
</event>
<event>
 4    3  0.3906307E+000  0.1960660E+03  0.7546771E-02  0.1153101E+00
         21   -1    0    0  503  502  0.00000000000E+00  0.00000000000E+00  0.13256650230E+03  0.13256650230E+03  0.00000000000E+00 0.  1.
         21   -1    0    0  501  503 -0.00000000000E+00 -0.00000000000E+00 -0.29131483386E+03  0.29131483386E+03  0.00000000000E+00 0.  1.
          6    1    1    2  501    0  0.35213800035E+00  0.92264664236E+02 -0.93710227425E+02  0.21730968453E+03  0.17300000000E+03 0.  1.
         -6    1    1    2    0  502 -0.35213800035E+00 -0.92264664236E+02 -0.65038104127E+02  0.20657165163E+03  0.17300000000E+03 0.  1.
<mgrwt>
<rscale>  2 0.19606604E+03</rscale>
<asrwt>0</asrwt>
<pdfrwt beam="1">  1       21 0.20394847E-01 0.19606604E+03</pdfrwt>
<pdfrwt beam="2">  1       21 0.44817666E-01 0.19606604E+03</pdfrwt>
<totfact> 0.10619939E+05</totfact>
</mgrwt>
</event>
<event>
 4    3  0.3906307E+000  0.2089008E+03  0.7546771E-02  0.1142439E+00
         21   -1    0    0  501  502  0.00000000000E+00  0.00000000000E+00  0.38923038689E+03  0.38923038689E+03  0.00000000000E+00 0. -1.
         21   -1    0    0  502  503 -0.00000000000E+00 -0.00000000000E+00 -0.15532174715E+03  0.15532174715E+03  0.00000000000E+00 0. -1.
          6    1    1    2  501    0  0.10676542383E+03  0.48080141089E+02  0.26055494361E+03  0.33395873148E+03  0.17300000000E+03 0. -1.
         -6    1    1    2    0  503 -0.10676542383E+03 -0.48080141089E+02 -0.26646303876E+02  0.21059340256E+03  0.17300000000E+03 0. -1.
<mgrwt>
<rscale>  2 0.20890083E+03</rscale>
<asrwt>0</asrwt>
<pdfrwt beam="1">  1       21 0.59881598E-01 0.20890083E+03</pdfrwt>
<pdfrwt beam="2">  1       21 0.23895653E-01 0.20890083E+03</pdfrwt>
<totfact> 0.42605140E+04</totfact>
</mgrwt>
</event>
<event>
 4    3  0.3906307E+000  0.2203461E+03  0.7546771E-02  0.1133625E+00
         21   -1    0    0  501  502  0.00000000000E+00  0.00000000000E+00  0.37606128849E+03  0.37606128849E+03  0.00000000000E+00 0. -1.
         21   -1    0    0  502  503 -0.00000000000E+00 -0.00000000000E+00 -0.14773791987E+03  0.14773791987E+03  0.00000000000E+00 0. -1.
          6    1    1    2  501    0  0.13556611255E+03 -0.15660382930E+02  0.20716480436E+03  0.30243953880E+03  0.17300000000E+03 0. -1.
         -6    1    1    2    0  503 -0.13556611255E+03  0.15660382930E+02  0.21158564262E+02  0.22135966956E+03  0.17300000000E+03 0. -1.
<mgrwt>
<rscale>  2 0.22034613E+03</rscale>
<asrwt>0</asrwt>
<pdfrwt beam="1">  1       21 0.57855583E-01 0.22034613E+03</pdfrwt>
<pdfrwt beam="2">  1       21 0.22728911E-01 0.22034613E+03</pdfrwt>
<totfact> 0.50179021E+04</totfact>
</mgrwt>
</event>
<event>
 4    3  0.3906307E+000  0.1786464E+03  0.7546771E-02  0.1169120E+00
         21   -1    0    0  503  502  0.00000000000E+00  0.00000000000E+00  0.21312552477E+04  0.21312552477E+04  0.00000000000E+00 0.  1.
         21   -1    0    0  501  503 -0.00000000000E+00 -0.00000000000E+00 -0.22254887249E+02  0.22254887249E+02  0.00000000000E+00 0.  1.
          6    1    1    2  501    0  0.44252764029E+02 -0.52184808475E+01  0.43864208530E+03  0.47362582137E+03  0.17300000000E+03 0.  1.
         -6    1    1    2    0  502 -0.44252764029E+02  0.52184808475E+01  0.16703582752E+04  0.16798843136E+04  0.17300000000E+03 0.  1.
<mgrwt>
<rscale>  2 0.17864641E+03</rscale>
<asrwt>0</asrwt>
<pdfrwt beam="1">  1       21 0.32788526E+00 0.17864641E+03</pdfrwt>
<pdfrwt beam="2">  1       21 0.34238305E-02 0.17864641E+03</pdfrwt>
<totfact> 0.12166937E+04</totfact>
</mgrwt>
</event>
<event>
 4    3  0.3906307E+000  0.2187270E+03  0.7546771E-02  0.1134836E+00
         21   -1    0    0  501  502  0.00000000000E+00  0.00000000000E+00  0.28660961094E+03  0.28660961094E+03  0.00000000000E+00 0. -1.
         21   -1    0    0  502  503 -0.00000000000E+00 -0.00000000000E+00 -0.25830003395E+03  0.25830003395E+03  0.00000000000E+00 0. -1.
          6    1    1    2  501    0 -0.61641869100E+02  0.11879727352E+03  0.17620613811E+03  0.28087384237E+03  0.17300000000E+03 0. -1.
         -6    1    1    2    0  503  0.61641869100E+02 -0.11879727352E+03 -0.14789656112E+03  0.26403580252E+03  0.17300000000E+03 0. -1.
<mgrwt>
<rscale>  2 0.21872703E+03</rscale>
<asrwt>0</asrwt>
<pdfrwt beam="1">  1       21 0.44093786E-01 0.21872703E+03</pdfrwt>
<pdfrwt beam="2">  1       21 0.39738467E-01 0.21872703E+03</pdfrwt>
<totfact> 0.29737675E+04</totfact>
</mgrwt>
</event>
<event>
 4    3  0.3906307E+000  0.1860544E+03  0.7546771E-02  0.1162069E+00
         21   -1    0    0  501  502  0.00000000000E+00  0.00000000000E+00  0.76213751821E+02  0.76213751821E+02  0.00000000000E+00 0. -1.
         21   -1    0    0  502  503 -0.00000000000E+00 -0.00000000000E+00 -0.46522180045E+03  0.46522180045E+03  0.00000000000E+00 0. -1.
          6    1    1    2  501    0 -0.31360051821E+02 -0.60858776927E+02 -0.15283397616E+03  0.24077887750E+03  0.17300000000E+03 0. -1.
         -6    1    1    2    0  503  0.31360051821E+02  0.60858776927E+02 -0.23617407246E+03  0.30065667477E+03  0.17300000000E+03 0. -1.
<mgrwt>
<rscale>  2 0.18605441E+03</rscale>
<asrwt>0</asrwt>
<pdfrwt beam="1">  1       21 0.11725193E-01 0.18605441E+03</pdfrwt>
<pdfrwt beam="2">  1       21 0.71572584E-01 0.18605441E+03</pdfrwt>
<totfact> 0.10817054E+05</totfact>
</mgrwt>
</event>
<event>
 4    3  0.3906307E+000  0.2324570E+03  0.7546771E-02  0.1124922E+00
         21   -1    0    0  501  502  0.00000000000E+00  0.00000000000E+00  0.14225370826E+03  0.14225370826E+03  0.00000000000E+00 0. -1.
         21   -1    0    0  502  503 -0.00000000000E+00 -0.00000000000E+00 -0.83440701518E+03  0.83440701518E+03  0.00000000000E+00 0. -1.
          6    1    1    2  501    0  0.31293105265E+02  0.15207893521E+03  0.14348374024E+02  0.23289941350E+03  0.17300000000E+03 0. -1.
         -6    1    1    2    0  503 -0.31293105265E+02 -0.15207893521E+03 -0.70650168094E+03  0.74376130993E+03  0.17300000000E+03 0. -1.
<mgrwt>
<rscale>  2 0.23245701E+03</rscale>
<asrwt>0</asrwt>
<pdfrwt beam="1">  1       21 0.21885186E-01 0.23245701E+03</pdfrwt>
<pdfrwt beam="2">  1       21 0.12837031E+00 0.23245701E+03</pdfrwt>
<totfact> 0.84572859E+03</totfact>
</mgrwt>
</event>
<event>
 4    3  0.3906307E+000  0.1858789E+03  0.7546771E-02  0.1162232E+00
         21   -1    0    0  501  502  0.00000000000E+00  0.00000000000E+00  0.16004093174E+03  0.16004093174E+03  0.00000000000E+00 0. -1.
         21   -1    0    0  502  503 -0.00000000000E+00 -0.00000000000E+00 -0.25530864385E+03  0.25530864385E+03  0.00000000000E+00 0. -1.
          6    1    1    2  501    0 -0.41829266579E+02  0.53593783427E+02  0.33969994685E+02  0.18895751296E+03  0.17300000000E+03 0. -1.
         -6    1    1    2    0  503  0.41829266579E+02 -0.53593783427E+02 -0.12923770679E+03  0.22639206263E+03  0.17300000000E+03 0. -1.
<mgrwt>
<rscale>  2 0.18587894E+03</rscale>
<asrwt>0</asrwt>
<pdfrwt beam="1">  1       21 0.24621682E-01 0.18587894E+03</pdfrwt>
<pdfrwt beam="2">  1       21 0.39278253E-01 0.18587894E+03</pdfrwt>
<totfact> 0.97694604E+04</totfact>
</mgrwt>
</event>
<event>
 4    3  0.3906307E+000  0.1764695E+03  0.7546771E-02  0.1171264E+00
         21   -1    0    0  503  502  0.00000000000E+00  0.00000000000E+00  0.53365915288E+03  0.53365915288E+03  0.00000000000E+00 0.  1.
         21   -1    0    0  501  503 -0.00000000000E+00 -0.00000000000E+00 -0.11340389661E+03  0.11340389661E+03  0.00000000000E+00 0.  1.
          6    1    1    2  501    0  0.34220587428E+02  0.64381990043E+01 -0.15285010010E+02  0.17713026433E+03  0.17300000000E+03 0.  1.
         -6    1    1    2    0  502 -0.34220587428E+02 -0.64381990043E+01  0.43554026628E+03  0.46993278516E+03  0.17300000000E+03 0.  1.
<mgrwt>
<rscale>  2 0.17646954E+03</rscale>
<asrwt>0</asrwt>
<pdfrwt beam="1">  1       21 0.82101407E-01 0.17646954E+03</pdfrwt>
<pdfrwt beam="2">  1       21 0.17446754E-01 0.17646954E+03</pdfrwt>
<totfact> 0.38898491E+04</totfact>
</mgrwt>
</event>
<event>
 4    3  0.3906307E+000  0.1736073E+03  0.7546771E-02  0.1174137E+00
         21   -1    0    0  503  502  0.00000000000E+00  0.00000000000E+00  0.30768275986E+03  0.30768275986E+03  0.00000000000E+00 0. -1.
         21   -1    0    0  501  503 -0.00000000000E+00 -0.00000000000E+00 -0.32009871875E+03  0.32009871875E+03  0.00000000000E+00 0. -1.
          6    1    1    2  501    0  0.14506131728E+02  0.26466363271E+00 -0.26769622896E+03  0.31906232761E+03  0.17300000000E+03 0. -1.
         -6    1    1    2    0  502 -0.14506131728E+02 -0.26466363271E+00  0.25528027007E+03  0.30871915099E+03  0.17300000000E+03 0. -1.
<mgrwt>
<rscale>  2 0.17360731E+03</rscale>
<asrwt>0</asrwt>
<pdfrwt beam="1">  1       21 0.47335809E-01 0.17360731E+03</pdfrwt>
<pdfrwt beam="2">  1       21 0.49245957E-01 0.17360731E+03</pdfrwt>
<totfact> 0.16993099E+04</totfact>
</mgrwt>
</event>
<event>
 4    3  0.3906307E+000  0.1957810E+03  0.7546771E-02  0.1153348E+00
         21   -1    0    0  501  502  0.00000000000E+00  0.00000000000E+00  0.59117086905E+03  0.59117086905E+03  0.00000000000E+00 0.  1.
         21   -1    0    0  502  503 -0.00000000000E+00 -0.00000000000E+00 -0.93230345831E+02  0.93230345831E+02  0.00000000000E+00 0.  1.
          6    1    1    2  501    0  0.47062658319E+02 -0.78653136927E+02  0.43781479186E+03  0.47959566484E+03  0.17300000000E+03 0.  1.
         -6    1    1    2    0  503 -0.47062658319E+02  0.78653136927E+02  0.60125731353E+02  0.20480555004E+03  0.17300000000E+03 0.  1.
<mgrwt>
<rscale>  2 0.19578103E+03</rscale>
<asrwt>0</asrwt>
<pdfrwt beam="1">  1       21 0.90949362E-01 0.19578103E+03</pdfrwt>
<pdfrwt beam="2">  1       21 0.14343131E-01 0.19578103E+03</pdfrwt>
<totfact> 0.43563349E+04</totfact>
</mgrwt>
</event>
<event>
 4    3  0.3906307E+000  0.2047123E+03  0.7546771E-02  0.1145823E+00
         21   -1    0    0  503  502  0.00000000000E+00  0.00000000000E+00  0.63132432768E+03  0.63132432768E+03  0.00000000000E+00 0. -1.
         21   -1    0    0  501  503 -0.00000000000E+00 -0.00000000000E+00 -0.12445069876E+03  0.12445069876E+03  0.00000000000E+00 0. -1.
          6    1    1    2  501    0 -0.56157132070E+02 -0.93938769018E+02 -0.46961929597E+01  0.20476613498E+03  0.17300000000E+03 0. -1.
         -6    1    1    2    0  502  0.56157132070E+02  0.93938769018E+02  0.51156982188E+03  0.55100889146E+03  0.17300000000E+03 0. -1.
<mgrwt>
<rscale>  2 0.20471228E+03</rscale>
<asrwt>0</asrwt>
<pdfrwt beam="1">  1       21 0.97126818E-01 0.20471228E+03</pdfrwt>
<pdfrwt beam="2">  1       21 0.19146262E-01 0.20471228E+03</pdfrwt>
<totfact> 0.21859397E+04</totfact>
</mgrwt>
</event>
<event>
 4    3  0.3906307E+000  0.1869758E+03  0.7546771E-02  0.1161218E+00
         21   -1    0    0  503  502  0.00000000000E+00  0.00000000000E+00  0.36002492301E+03  0.36002492301E+03  0.00000000000E+00 0. -1.
         21   -1    0    0  501  503 -0.00000000000E+00 -0.00000000000E+00 -0.31234113059E+03  0.31234113059E+03  0.00000000000E+00 0. -1.
          6    1    1    2  501    0 -0.69086011311E+02  0.16064100281E+02 -0.25523223966E+03  0.31639125848E+03  0.17300000000E+03 0. -1.
         -6    1    1    2    0  502  0.69086011311E+02 -0.16064100281E+02  0.30291603207E+03  0.35597479512E+03  0.17300000000E+03 0. -1.
<mgrwt>
<rscale>  2 0.18697575E+03</rscale>
<asrwt>0</asrwt>
<pdfrwt beam="1">  1       21 0.55388450E-01 0.18697575E+03</pdfrwt>
<pdfrwt beam="2">  1       21 0.48052481E-01 0.18697575E+03</pdfrwt>
<totfact> 0.12765165E+04</totfact>
</mgrwt>
</event>
<event>
 4    3  0.3906307E+000  0.1822602E+03  0.7546771E-02  0.1165633E+00
         21   -1    0    0  503  502  0.00000000000E+00  0.00000000000E+00  0.33730714893E+03  0.33730714893E+03  0.00000000000E+00 0.  1.
         21   -1    0    0  501  503 -0.00000000000E+00 -0.00000000000E+00 -0.10006964150E+03  0.10006964150E+03  0.00000000000E+00 0.  1.
          6    1    1    2  501    0 -0.43076046133E+02  0.37871169580E+02  0.14616198316E+03  0.23362811594E+03  0.17300000000E+03 0.  1.
         -6    1    1    2    0  502  0.43076046133E+02 -0.37871169580E+02  0.91075524265E+02  0.20374867449E+03  0.17300000000E+03 0.  1.
<mgrwt>
<rscale>  2 0.18226017E+03</rscale>
<asrwt>0</asrwt>
<pdfrwt beam="1">  1       21 0.51893407E-01 0.18226017E+03</pdfrwt>
<pdfrwt beam="2">  1       21 0.15395330E-01 0.18226017E+03</pdfrwt>
<totfact> 0.13236395E+05</totfact>
</mgrwt>
</event>
<event>
 4    3  0.3906307E+000  0.1989880E+03  0.7546771E-02  0.1150596E+00
         21   -1    0    0  503  502  0.00000000000E+00  0.00000000000E+00  0.21821890468E+03  0.21821890468E+03  0.00000000000E+00 0.  1.
         21   -1    0    0  501  503 -0.00000000000E+00 -0.00000000000E+00 -0.38505998483E+03  0.38505998483E+03  0.00000000000E+00 0.  1.
          6    1    1    2  501    0  0.83514013545E+02 -0.51890526566E+02 -0.30276240605E+03  0.36230000238E+03  0.17300000000E+03 0.  1.
         -6    1    1    2    0  502 -0.83514013545E+02  0.51890526566E+02  0.13592132591E+03  0.24097888713E+03  0.17300000000E+03 0.  1.
<mgrwt>
<rscale>  2 0.19898798E+03</rscale>
<asrwt>0</asrwt>
<pdfrwt beam="1">  1       21 0.33572140E-01 0.19898798E+03</pdfrwt>
<pdfrwt beam="2">  1       21 0.59239997E-01 0.19898798E+03</pdfrwt>
<totfact> 0.22673256E+04</totfact>
</mgrwt>
</event>
<event>
 4    3  0.3906307E+000  0.1909386E+03  0.7546771E-02  0.1157617E+00
         21   -1    0    0  501  502  0.00000000000E+00  0.00000000000E+00  0.92004888908E+03  0.92004888908E+03  0.00000000000E+00 0. -1.
         21   -1    0    0  502  503 -0.00000000000E+00 -0.00000000000E+00 -0.67657203870E+02  0.67657203870E+02  0.00000000000E+00 0. -1.
          6    1    1    2  501    0  0.20251714258E+02  0.78220393464E+02  0.74407648110E+03  0.76818446458E+03  0.17300000000E+03 0. -1.
         -6    1    1    2    0  503 -0.20251714258E+02 -0.78220393464E+02  0.10831520411E+03  0.21952162838E+03  0.17300000000E+03 0. -1.
<mgrwt>
<rscale>  2 0.19093863E+03</rscale>
<asrwt>0</asrwt>
<pdfrwt beam="1">  1       21 0.14154597E+00 0.19093863E+03</pdfrwt>
<pdfrwt beam="2">  1       21 0.10408801E-01 0.19093863E+03</pdfrwt>
<totfact> 0.26320052E+04</totfact>
</mgrwt>
</event>
<event>
 4    3  0.3906307E+000  0.1766380E+03  0.7546771E-02  0.1171097E+00
         21   -1    0    0  501  502  0.00000000000E+00  0.00000000000E+00  0.10892069137E+03  0.10892069137E+03  0.00000000000E+00 0.  1.
         21   -1    0    0  502  503 -0.00000000000E+00 -0.00000000000E+00 -0.35996968303E+03  0.35996968303E+03  0.00000000000E+00 0.  1.
          6    1    1    2  501    0 -0.30913374115E+02  0.17786394582E+02 -0.19576618309E+02  0.17771954455E+03  0.17300000000E+03 0.  1.
         -6    1    1    2    0  503  0.30913374115E+02 -0.17786394582E+02 -0.23147237335E+03  0.29117082985E+03  0.17300000000E+03 0.  1.
<mgrwt>
<rscale>  2 0.17663803E+03</rscale>
<asrwt>0</asrwt>
<pdfrwt beam="1">  1       21 0.16757029E-01 0.17663803E+03</pdfrwt>
<pdfrwt beam="2">  1       21 0.55379952E-01 0.17663803E+03</pdfrwt>
<totfact> 0.99081752E+04</totfact>
</mgrwt>
</event>
<event>
 4    3  0.3906307E+000  0.3536487E+03  0.7546771E-02  0.1061127E+00
         21   -1    0    0  503  502  0.00000000000E+00  0.00000000000E+00  0.10000841073E+03  0.10000841073E+03  0.00000000000E+00 0.  1.
         21   -1    0    0  501  503 -0.00000000000E+00 -0.00000000000E+00 -0.18483001713E+04  0.18483001713E+04  0.00000000000E+00 0. -1.
          6    1    1    2  501    0  0.87655560448E+02  0.29572776619E+03 -0.14281263852E+04  0.14712621728E+04  0.17300000000E+03 0. -1.
         -6    1    1    2    0  502 -0.87655560448E+02 -0.29572776619E+03 -0.32016537533E+03  0.47704640920E+03  0.17300000000E+03 0.  1.
<mgrwt>
<rscale>  2 0.35364871E+03</rscale>
<asrwt>0</asrwt>
<pdfrwt beam="1">  1       21 0.15385909E-01 0.35364871E+03</pdfrwt>
<pdfrwt beam="2">  1       21 0.28435388E+00 0.35364871E+03</pdfrwt>
<totfact> 0.13574120E+03</totfact>
</mgrwt>
</event>
<event>
 4    3  0.3906307E+000  0.1736858E+03  0.7546771E-02  0.1174058E+00
         21   -1    0    0  503  502  0.00000000000E+00  0.00000000000E+00  0.27728880516E+03  0.27728880516E+03  0.00000000000E+00 0.  1.
         21   -1    0    0  501  503 -0.00000000000E+00 -0.00000000000E+00 -0.10989453924E+03  0.10989453924E+03  0.00000000000E+00 0.  1.
          6    1    1    2  501    0 -0.10071681746E+01 -0.15386285090E+02  0.10308956339E+03  0.20197576646E+03  0.17300000000E+03 0. -1.
         -6    1    1    2    0  502  0.10071681746E+01  0.15386285090E+02  0.64304702531E+02  0.18520757793E+03  0.17300000000E+03 0. -1.
<mgrwt>
<rscale>  2 0.17368579E+03</rscale>
<asrwt>0</asrwt>
<pdfrwt beam="1">  1       21 0.42659816E-01 0.17368579E+03</pdfrwt>
<pdfrwt beam="2">  1       21 0.16906852E-01 0.17368579E+03</pdfrwt>
<totfact> 0.16756427E+05</totfact>
</mgrwt>
</event>
<event>
 4    3  0.3906307E+000  0.4624988E+03  0.7546771E-02  0.1024059E+00
         21   -1    0    0  503  502  0.00000000000E+00  0.00000000000E+00  0.22450242763E+03  0.22450242763E+03  0.00000000000E+00 0.  1.
         21   -1    0    0  501  503 -0.00000000000E+00 -0.00000000000E+00 -0.96408554778E+03  0.96408554778E+03  0.00000000000E+00 0.  1.
          6    1    1    2  501    0  0.43915854046E+02  0.42667025054E+03 -0.43410091031E+03  0.63430962885E+03  0.17300000000E+03 0.  1.
         -6    1    1    2    0  502 -0.43915854046E+02 -0.42667025054E+03 -0.30548220984E+03  0.55427834655E+03  0.17300000000E+03 0.  1.
<mgrwt>
<rscale>  2 0.46249876E+03</rscale>
<asrwt>0</asrwt>
<pdfrwt beam="1">  1       21 0.34538835E-01 0.46249876E+03</pdfrwt>
<pdfrwt beam="2">  1       21 0.14832085E+00 0.46249876E+03</pdfrwt>
<totfact> 0.21226168E+03</totfact>
</mgrwt>
</event>
<event>
 4    3  0.3906307E+000  0.2964334E+03  0.7546771E-02  0.1087037E+00
         21   -1    0    0  501  502  0.00000000000E+00  0.00000000000E+00  0.54377816284E+03  0.54377816284E+03  0.00000000000E+00 0. -1.
         21   -1    0    0  502  503 -0.00000000000E+00 -0.00000000000E+00 -0.21111106884E+03  0.21111106884E+03  0.00000000000E+00 0. -1.
          6    1    1    2  501    0  0.63485089292E+02  0.23219259137E+03  0.34912814657E+03  0.45799914713E+03  0.17300000000E+03 0. -1.
         -6    1    1    2    0  503 -0.63485089292E+02 -0.23219259137E+03 -0.16461052566E+02  0.29689008454E+03  0.17300000000E+03 0. -1.
<mgrwt>
<rscale>  2 0.29643339E+03</rscale>
<asrwt>0</asrwt>
<pdfrwt beam="1">  1       21 0.83658178E-01 0.29643339E+03</pdfrwt>
<pdfrwt beam="2">  1       21 0.32478626E-01 0.29643339E+03</pdfrwt>
<totfact> 0.10689255E+04</totfact>
</mgrwt>
</event>
<event>
 4    3  0.3906307E+000  0.1849581E+03  0.7546771E-02  0.1163089E+00
         21   -1    0    0  501  502  0.00000000000E+00  0.00000000000E+00  0.81565631755E+02  0.81565631755E+02  0.00000000000E+00 0. -1.
         21   -1    0    0  502  503 -0.00000000000E+00 -0.00000000000E+00 -0.57972460457E+03  0.57972460457E+03  0.00000000000E+00 0. -1.
          6    1    1    2  501    0  0.65413958114E+02  0.12348188686E+01 -0.42295428715E+03  0.46162738189E+03  0.17300000000E+03 0.  1.
         -6    1    1    2    0  503 -0.65413958114E+02 -0.12348188686E+01 -0.75204685663E+02  0.19966285443E+03  0.17300000000E+03 0.  1.
<mgrwt>
<rscale>  2 0.18495813E+03</rscale>
<asrwt>0</asrwt>
<pdfrwt beam="1">  1       21 0.12548558E-01 0.18495813E+03</pdfrwt>
<pdfrwt beam="2">  1       21 0.89188403E-01 0.18495813E+03</pdfrwt>
<totfact> 0.58318780E+04</totfact>
</mgrwt>
</event>
<event>
 4    3  0.3906307E+000  0.2253760E+03  0.7546771E-02  0.1129937E+00
         21   -1    0    0  503  502  0.00000000000E+00  0.00000000000E+00  0.10212019294E+03  0.10212019294E+03  0.00000000000E+00 0.  1.
         21   -1    0    0  501  503 -0.00000000000E+00 -0.00000000000E+00 -0.10325190060E+04  0.10325190060E+04  0.00000000000E+00 0. -1.
          6    1    1    2  501    0  0.96760943893E+02  0.10725042362E+03 -0.87361747136E+03  0.90222049406E+03  0.17300000000E+03 0. -1.
         -6    1    1    2    0  502 -0.96760943893E+02 -0.10725042362E+03 -0.56781341737E+02  0.23241870493E+03  0.17300000000E+03 0.  1.
<mgrwt>
<rscale>  2 0.22537598E+03</rscale>
<asrwt>0</asrwt>
<pdfrwt beam="1">  1       21 0.15710799E-01 0.22537598E+03</pdfrwt>
<pdfrwt beam="2">  1       21 0.15884908E+00 0.22537598E+03</pdfrwt>
<totfact> 0.90288329E+03</totfact>
</mgrwt>
</event>
<event>
 4    3  0.3906307E+000  0.4150781E+03  0.7546771E-02  0.1038680E+00
         21   -1    0    0  503  502  0.00000000000E+00  0.00000000000E+00  0.14045274370E+03  0.14045274370E+03  0.00000000000E+00 0.  1.
         21   -1    0    0  501  503 -0.00000000000E+00 -0.00000000000E+00 -0.14187156788E+04  0.14187156788E+04  0.00000000000E+00 0. -1.
          6    1    1    2  501    0 -0.32345047909E+03  0.19426949391E+03 -0.92595325198E+03  0.10147311336E+04  0.17300000000E+03 0.  1.
         -6    1    1    2    0  502  0.32345047909E+03 -0.19426949391E+03 -0.35230968309E+03  0.54443728884E+03  0.17300000000E+03 0. -1.
<mgrwt>
<rscale>  2 0.41507812E+03</rscale>
<asrwt>0</asrwt>
<pdfrwt beam="1">  1       21 0.21608115E-01 0.41507812E+03</pdfrwt>
<pdfrwt beam="2">  1       21 0.21826394E+00 0.41507812E+03</pdfrwt>
<totfact> 0.17544741E+03</totfact>
</mgrwt>
</event>
<event>
 4    3  0.3906307E+000  0.2226804E+03  0.7546771E-02  0.1131900E+00
         21   -1    0    0  501  502  0.00000000000E+00  0.00000000000E+00  0.13026016873E+04  0.13026016873E+04  0.00000000000E+00 0.  1.
         21   -1    0    0  502  503 -0.00000000000E+00 -0.00000000000E+00 -0.38071374491E+02  0.38071374491E+02  0.00000000000E+00 0. -1.
          6    1    1    2  501    0 -0.62920169961E+02 -0.12529412042E+03  0.62535344243E+03  0.66381736370E+03  0.17300000000E+03 0.  1.
         -6    1    1    2    0  503  0.62920169961E+02  0.12529412042E+03  0.63917687037E+03  0.67685569808E+03  0.17300000000E+03 0. -1.
<mgrwt>
<rscale>  2 0.22268041E+03</rscale>
<asrwt>0</asrwt>
<pdfrwt beam="1">  1       21 0.20040023E+00 0.22268041E+03</pdfrwt>
<pdfrwt beam="2">  1       21 0.58571355E-02 0.22268041E+03</pdfrwt>
<totfact> 0.26857134E+04</totfact>
</mgrwt>
</event>
<event>
 4    3  0.3906307E+000  0.2049714E+03  0.7546771E-02  0.1145611E+00
         21   -1    0    0  501  502  0.00000000000E+00  0.00000000000E+00  0.22791723257E+04  0.22791723257E+04  0.00000000000E+00 0.  1.
         21   -1    0    0  502  503 -0.00000000000E+00 -0.00000000000E+00 -0.28536313064E+02  0.28536313064E+02  0.00000000000E+00 0.  1.
          6    1    1    2  501    0 -0.58263391440E+02  0.93218399956E+02  0.18118671139E+04  0.18234241775E+04  0.17300000000E+03 0.  1.
         -6    1    1    2    0  503  0.58263391440E+02 -0.93218399956E+02  0.43876889879E+03  0.48428446126E+03  0.17300000000E+03 0.  1.
<mgrwt>
<rscale>  2 0.20497144E+03</rscale>
<asrwt>0</asrwt>
<pdfrwt beam="1">  1       21 0.35064175E+00 0.20497144E+03</pdfrwt>
<pdfrwt beam="2">  1       21 0.43902038E-02 0.20497144E+03</pdfrwt>
<totfact> 0.57225755E+03</totfact>
</mgrwt>
</event>
<event>
 4    3  0.3906307E+000  0.1821904E+03  0.7546771E-02  0.1165700E+00
         21   -1    0    0  503  502  0.00000000000E+00  0.00000000000E+00  0.98464700114E+03  0.98464700114E+03  0.00000000000E+00 0.  1.
         21   -1    0    0  501  503 -0.00000000000E+00 -0.00000000000E+00 -0.25110960707E+03  0.25110960707E+03  0.00000000000E+00 0.  1.
          6    1    1    2  501    0 -0.71496832756E+01  0.56685171754E+02 -0.20814118024E+03  0.27661539650E+03  0.17300000000E+03 0.  1.
         -6    1    1    2    0  502  0.71496832756E+01 -0.56685171754E+02  0.94167857432E+03  0.95914121171E+03  0.17300000000E+03 0.  1.
<mgrwt>
<rscale>  2 0.18219036E+03</rscale>
<asrwt>0</asrwt>
<pdfrwt beam="1">  1       21 0.15148415E+00 0.18219036E+03</pdfrwt>
<pdfrwt beam="2">  1       21 0.38632248E-01 0.18219036E+03</pdfrwt>
<totfact> 0.19012826E+03</totfact>
</mgrwt>
</event>
<event>
 4    3  0.3906307E+000  0.2074033E+03  0.7546771E-02  0.1143639E+00
         21   -1    0    0  503  502  0.00000000000E+00  0.00000000000E+00  0.30114077439E+02  0.30114077439E+02  0.00000000000E+00 0.  1.
         21   -1    0    0  501  503 -0.00000000000E+00 -0.00000000000E+00 -0.14461521583E+04  0.14461521583E+04  0.00000000000E+00 0.  1.
          6    1    1    2  501    0  0.39923033093E+01  0.11432924571E+03 -0.62632716729E+03  0.65977407906E+03  0.17300000000E+03 0.  1.
         -6    1    1    2    0  502 -0.39923033093E+01 -0.11432924571E+03 -0.78971091361E+03  0.81649215672E+03  0.17300000000E+03 0.  1.
<mgrwt>
<rscale>  2 0.20740327E+03</rscale>
<asrwt>0</asrwt>
<pdfrwt beam="1">  1       21 0.46329361E-02 0.20740327E+03</pdfrwt>
<pdfrwt beam="2">  1       21 0.22248489E+00 0.20740327E+03</pdfrwt>
<totfact> 0.29398093E+04</totfact>
</mgrwt>
</event>
<event>
 4    3  0.3906307E+000  0.1805471E+03  0.7546771E-02  0.1167275E+00
         21   -1    0    0  503  502  0.00000000000E+00  0.00000000000E+00  0.54062952238E+03  0.54062952238E+03  0.00000000000E+00 0.  1.
         21   -1    0    0  501  503 -0.00000000000E+00 -0.00000000000E+00 -0.12369942871E+03  0.12369942871E+03  0.00000000000E+00 0.  1.
          6    1    1    2  501    0  0.69729593200E+01 -0.51182290210E+02 -0.29344444796E+02  0.18291622518E+03  0.17300000000E+03 0.  1.
         -6    1    1    2    0  502 -0.69729593200E+01  0.51182290210E+02  0.44627453846E+03  0.48141272592E+03  0.17300000000E+03 0.  1.
<mgrwt>
<rscale>  2 0.18054708E+03</rscale>
<asrwt>0</asrwt>
<pdfrwt beam="1">  1       21 0.83173771E-01 0.18054708E+03</pdfrwt>
<pdfrwt beam="2">  1       21 0.19030682E-01 0.18054708E+03</pdfrwt>
<totfact> 0.32095308E+04</totfact>
</mgrwt>
</event>
<event>
 4    3  0.3906307E+000  0.1792642E+03  0.7546771E-02  0.1168517E+00
         21   -1    0    0  503  502  0.00000000000E+00  0.00000000000E+00  0.67119073105E+03  0.67119073105E+03  0.00000000000E+00 0.  1.
         21   -1    0    0  501  503 -0.00000000000E+00 -0.00000000000E+00 -0.63187354267E+02  0.63187354267E+02  0.00000000000E+00 0.  1.
          6    1    1    2  501    0 -0.31197271228E+02 -0.35119555619E+02  0.12326556297E+03  0.21755471021E+03  0.17300000000E+03 0.  1.
         -6    1    1    2    0  502  0.31197271228E+02  0.35119555619E+02  0.48473781381E+03  0.51682337511E+03  0.17300000000E+03 0.  1.
<mgrwt>
<rscale>  2 0.17926420E+03</rscale>
<asrwt>0</asrwt>
<pdfrwt beam="1">  1       21 0.10326011E+00 0.17926420E+03</pdfrwt>
<pdfrwt beam="2">  1       21 0.97211319E-02 0.17926420E+03</pdfrwt>
<totfact> 0.65275893E+04</totfact>
</mgrwt>
</event>
<event>
 4    3  0.3906307E+000  0.2082320E+03  0.7546771E-02  0.1142974E+00
         21   -1    0    0  503  502  0.00000000000E+00  0.00000000000E+00  0.31802498473E+03  0.31802498473E+03  0.00000000000E+00 0.  1.
         21   -1    0    0  501  503 -0.00000000000E+00 -0.00000000000E+00 -0.13634331459E+03  0.13634331459E+03  0.00000000000E+00 0. -1.
          6    1    1    2  501    0 -0.90632147848E+02  0.72231532633E+02  0.90844259394E+02  0.22718551889E+03  0.17300000000E+03 0.  1.
         -6    1    1    2    0  502  0.90632147848E+02 -0.72231532633E+02  0.90837410742E+02  0.22718278042E+03  0.17300000000E+03 0. -1.
<mgrwt>
<rscale>  2 0.20823204E+03</rscale>
<asrwt>0</asrwt>
<pdfrwt beam="1">  1       21 0.48926921E-01 0.20823204E+03</pdfrwt>
<pdfrwt beam="2">  1       21 0.20975895E-01 0.20823204E+03</pdfrwt>
<totfact> 0.83613861E+04</totfact>
</mgrwt>
</event>
<event>
 4    3  0.3906307E+000  0.1877404E+03  0.7546771E-02  0.1160515E+00
         21   -1    0    0  501  502  0.00000000000E+00  0.00000000000E+00  0.75549837494E+02  0.75549837494E+02  0.00000000000E+00 0. -1.
         21   -1    0    0  502  503 -0.00000000000E+00 -0.00000000000E+00 -0.64166753716E+03  0.64166753716E+03  0.00000000000E+00 0.  1.
          6    1    1    2  501    0 -0.68665658774E+02 -0.24545720860E+02 -0.47040816864E+03  0.50648821332E+03  0.17300000000E+03 0.  1.
         -6    1    1    2    0  503  0.68665658774E+02  0.24545720860E+02 -0.95709531024E+02  0.21072916133E+03  0.17300000000E+03 0. -1.
<mgrwt>
<rscale>  2 0.18774042E+03</rscale>
<asrwt>0</asrwt>
<pdfrwt beam="1">  1       21 0.11623052E-01 0.18774042E+03</pdfrwt>
<pdfrwt beam="2">  1       21 0.98718079E-01 0.18774042E+03</pdfrwt>
<totfact> 0.52710180E+04</totfact>
</mgrwt>
</event>
<event>
 4    3  0.3906307E+000  0.1865638E+03  0.7546771E-02  0.1161598E+00
         21   -1    0    0  503  502  0.00000000000E+00  0.00000000000E+00  0.17913332206E+03  0.17913332206E+03  0.00000000000E+00 0.  1.
         21   -1    0    0  501  503 -0.00000000000E+00 -0.00000000000E+00 -0.26391944449E+03  0.26391944449E+03  0.00000000000E+00 0. -1.
          6    1    1    2  501    0  0.27692151565E+02  0.64110681212E+02 -0.15616824572E+03  0.24329931294E+03  0.17300000000E+03 0. -1.
         -6    1    1    2    0  502 -0.27692151565E+02 -0.64110681212E+02  0.71382123299E+02  0.19975345361E+03  0.17300000000E+03 0. -1.
<mgrwt>
<rscale>  2 0.18656376E+03</rscale>
<asrwt>0</asrwt>
<pdfrwt beam="1">  1       21 0.27558973E-01 0.18656376E+03</pdfrwt>
<pdfrwt beam="2">  1       21 0.40602991E-01 0.18656376E+03</pdfrwt>
<totfact> 0.73603939E+04</totfact>
</mgrwt>
</event>
<event>
 4    3  0.3906307E+000  0.1922747E+03  0.7546771E-02  0.1156426E+00
         21   -1    0    0  503  502  0.00000000000E+00  0.00000000000E+00  0.58699853069E+03  0.58699853069E+03  0.00000000000E+00 0. -1.
         21   -1    0    0  501  503 -0.00000000000E+00 -0.00000000000E+00 -0.63885117222E+02  0.63885117222E+02  0.00000000000E+00 0. -1.
          6    1    1    2  501    0  0.82404045726E+02  0.15816116023E+02  0.22283461750E+03  0.29432098640E+03  0.17300000000E+03 0. -1.
         -6    1    1    2    0  502 -0.82404045726E+02 -0.15816116023E+02  0.30027879597E+03  0.35656266151E+03  0.17300000000E+03 0. -1.
<mgrwt>
<rscale>  2 0.19227474E+03</rscale>
<asrwt>0</asrwt>
<pdfrwt beam="1">  1       21 0.90307463E-01 0.19227474E+03</pdfrwt>
<pdfrwt beam="2">  1       21 0.98284800E-02 0.19227474E+03</pdfrwt>
<totfact> 0.87220805E+04</totfact>
</mgrwt>
</event>
<event>
 4    3  0.3906307E+000  0.1933404E+03  0.7546771E-02  0.1155483E+00
         21   -1    0    0  501  502  0.00000000000E+00  0.00000000000E+00  0.12820205023E+03  0.12820205023E+03  0.00000000000E+00 0.  1.
         21   -1    0    0  502  503 -0.00000000000E+00 -0.00000000000E+00 -0.12253288693E+04  0.12253288693E+04  0.00000000000E+00 0.  1.
          6    1    1    2  501    0  0.86276056599E+02 -0.28223425271E+01  0.42219658999E+02  0.19789649609E+03  0.17300000000E+03 0.  1.
         -6    1    1    2    0  503 -0.86276056599E+02  0.28223425271E+01 -0.11393464781E+04  0.11556344234E+04  0.17300000000E+03 0.  1.
<mgrwt>
<rscale>  2 0.19334043E+03</rscale>
<asrwt>0</asrwt>
<pdfrwt beam="1">  1       21 0.19723392E-01 0.19334043E+03</pdfrwt>
<pdfrwt beam="2">  1       21 0.18851213E+00 0.19334043E+03</pdfrwt>
<totfact> 0.37773209E+03</totfact>
</mgrwt>
</event>
<event>
 4    3  0.3906307E+000  0.2510577E+03  0.7546771E-02  0.1112638E+00
         21   -1    0    0  503  502  0.00000000000E+00  0.00000000000E+00  0.65255493759E+03  0.65255493759E+03  0.00000000000E+00 0.  1.
         21   -1    0    0  501  503 -0.00000000000E+00 -0.00000000000E+00 -0.98240720612E+02  0.98240720612E+02  0.00000000000E+00 0. -1.
          6    1    1    2  501    0  0.63613747395E+02  0.17045312150E+03  0.32582521364E+03  0.41132960668E+03  0.17300000000E+03 0.  1.
         -6    1    1    2    0  502 -0.63613747395E+02 -0.17045312150E+03  0.22848900333E+03  0.33946605152E+03  0.17300000000E+03 0. -1.
<mgrwt>
<rscale>  2 0.25105771E+03</rscale>
<asrwt>0</asrwt>
<pdfrwt beam="1">  1       21 0.10039306E+00 0.25105771E+03</pdfrwt>
<pdfrwt beam="2">  1       21 0.15113957E-01 0.25105771E+03</pdfrwt>
<totfact> 0.30531015E+04</totfact>
</mgrwt>
</event>
<event>
 4    3  0.3906307E+000  0.1935740E+03  0.7546771E-02  0.1155277E+00
         21   -1    0    0  503  502  0.00000000000E+00  0.00000000000E+00  0.41854455047E+03  0.41854455047E+03  0.00000000000E+00 0.  1.
         21   -1    0    0  501  503 -0.00000000000E+00 -0.00000000000E+00 -0.89748461264E+02  0.89748461264E+02  0.00000000000E+00 0. -1.
          6    1    1    2  501    0  0.34490048324E+02  0.79701453263E+02  0.17703310699E+03  0.26231966388E+03  0.17300000000E+03 0.  1.
         -6    1    1    2    0  502 -0.34490048324E+02 -0.79701453263E+02  0.15176298222E+03  0.24597334786E+03  0.17300000000E+03 0. -1.
<mgrwt>
<rscale>  2 0.19357398E+03</rscale>
<asrwt>0</asrwt>
<pdfrwt beam="1">  1       21 0.64391468E-01 0.19357398E+03</pdfrwt>
<pdfrwt beam="2">  1       21 0.13807456E-01 0.19357398E+03</pdfrwt>
<totfact> 0.10139152E+05</totfact>
</mgrwt>
</event>
<event>
 4    3  0.3906307E+000  0.2002878E+03  0.7546771E-02  0.1149496E+00
         21   -1    0    0  501  502  0.00000000000E+00  0.00000000000E+00  0.32670486802E+02  0.32670486802E+02  0.00000000000E+00 0.  1.
         21   -1    0    0  502  503 -0.00000000000E+00 -0.00000000000E+00 -0.12909025506E+04  0.12909025506E+04  0.00000000000E+00 0. -1.
          6    1    1    2  501    0  0.82026058946E+02  0.58804108891E+02 -0.77534871868E+03  0.80080012059E+03  0.17300000000E+03 0.  1.
         -6    1    1    2    0  503 -0.82026058946E+02 -0.58804108891E+02 -0.48288334515E+03  0.52277291685E+03  0.17300000000E+03 0.  1.
<mgrwt>
<rscale>  2 0.20028779E+03</rscale>
<asrwt>0</asrwt>
<pdfrwt beam="1">  1       21 0.50262279E-02 0.20028779E+03</pdfrwt>
<pdfrwt beam="2">  1       21 0.19860042E+00 0.20028779E+03</pdfrwt>
<totfact> 0.36355880E+04</totfact>
</mgrwt>
</event>
<event>
 4    3  0.3906307E+000  0.1854195E+03  0.7546771E-02  0.1162659E+00
         21   -1    0    0  501  502  0.00000000000E+00  0.00000000000E+00  0.96544149467E+02  0.96544149467E+02  0.00000000000E+00 0.  1.
         21   -1    0    0  502  503 -0.00000000000E+00 -0.00000000000E+00 -0.65261488409E+03  0.65261488409E+03  0.00000000000E+00 0.  1.
          6    1    1    2  501    0  0.43335444004E+02  0.50729130271E+02 -0.25553062813E+02  0.18717201817E+03  0.17300000000E+03 0.  1.
         -6    1    1    2    0  503 -0.43335444004E+02 -0.50729130271E+02 -0.53051767181E+03  0.56198701539E+03  0.17300000000E+03 0.  1.
<mgrwt>
<rscale>  2 0.18541954E+03</rscale>
<asrwt>0</asrwt>
<pdfrwt beam="1">  1       21 0.14852947E-01 0.18541954E+03</pdfrwt>
<pdfrwt beam="2">  1       21 0.10040229E+00 0.18541954E+03</pdfrwt>
<totfact> 0.32606099E+04</totfact>
</mgrwt>
</event>
<event>
 4    3  0.3906307E+000  0.2085122E+03  0.7546771E-02  0.1142750E+00
         21   -1    0    0  501  502  0.00000000000E+00  0.00000000000E+00  0.20367533956E+03  0.20367533956E+03  0.00000000000E+00 0.  1.
         21   -1    0    0  502  503 -0.00000000000E+00 -0.00000000000E+00 -0.27568182689E+03  0.27568182689E+03  0.00000000000E+00 0. -1.
          6    1    1    2  501    0  0.10159889042E+03  0.56797986997E+02  0.77859775635E+02  0.22257468527E+03  0.17300000000E+03 0.  1.
         -6    1    1    2    0  503 -0.10159889042E+03 -0.56797986997E+02 -0.14986626297E+03  0.25678248117E+03  0.17300000000E+03 0. -1.
<mgrwt>
<rscale>  2 0.20851222E+03</rscale>
<asrwt>0</asrwt>
<pdfrwt beam="1">  1       21 0.31334668E-01 0.20851222E+03</pdfrwt>
<pdfrwt beam="2">  1       21 0.42412589E-01 0.20851222E+03</pdfrwt>
<totfact> 0.51953656E+04</totfact>
</mgrwt>
</event>
<event>
 4    3  0.3906307E+000  0.1950700E+03  0.7546771E-02  0.1153966E+00
         21   -1    0    0  503  502  0.00000000000E+00  0.00000000000E+00  0.34223104710E+03  0.34223104710E+03  0.00000000000E+00 0. -1.
         21   -1    0    0  501  503 -0.00000000000E+00 -0.00000000000E+00 -0.12664610908E+03  0.12664610908E+03  0.00000000000E+00 0. -1.
          6    1    1    2  501    0  0.79593765931E+02  0.42286397532E+02  0.25889782602E+02  0.19678055756E+03  0.17300000000E+03 0. -1.
         -6    1    1    2    0  502 -0.79593765931E+02 -0.42286397532E+02  0.18969515542E+03  0.27209659862E+03  0.17300000000E+03 0. -1.
<mgrwt>
<rscale>  2 0.19507001E+03</rscale>
<asrwt>0</asrwt>
<pdfrwt beam="1">  1       21 0.52650930E-01 0.19507001E+03</pdfrwt>
<pdfrwt beam="2">  1       21 0.19484017E-01 0.19507001E+03</pdfrwt>
<totfact> 0.82804062E+04</totfact>
</mgrwt>
</event>
<event>
 4    3  0.3906307E+000  0.2064764E+03  0.7546771E-02  0.1144387E+00
         21   -1    0    0  503  502  0.00000000000E+00  0.00000000000E+00  0.61722433517E+03  0.61722433517E+03  0.00000000000E+00 0. -1.
         21   -1    0    0  501  503 -0.00000000000E+00 -0.00000000000E+00 -0.16093437960E+03  0.16093437960E+03  0.00000000000E+00 0.  1.
          6    1    1    2  501    0  0.10938318134E+03 -0.27181350881E+02 -0.65812290203E+02  0.21671124506E+03  0.17300000000E+03 0.  1.
         -6    1    1    2    0  502 -0.10938318134E+03  0.27181350881E+02  0.52210224578E+03  0.56144746971E+03  0.17300000000E+03 0. -1.
<mgrwt>
<rscale>  2 0.20647641E+03</rscale>
<asrwt>0</asrwt>
<pdfrwt beam="1">  1       21 0.94957589E-01 0.20647641E+03</pdfrwt>
<pdfrwt beam="2">  1       21 0.24759136E-01 0.20647641E+03</pdfrwt>
<totfact> 0.14178576E+04</totfact>
</mgrwt>
</event>
<event>
 4    3  0.3906307E+000  0.2396149E+03  0.7546771E-02  0.1120050E+00
         21   -1    0    0  501  502  0.00000000000E+00  0.00000000000E+00  0.76804951630E+03  0.76804951630E+03  0.00000000000E+00 0.  1.
         21   -1    0    0  502  503 -0.00000000000E+00 -0.00000000000E+00 -0.13503594880E+03  0.13503594880E+03  0.00000000000E+00 0.  1.
          6    1    1    2  501    0 -0.57582999354E+02  0.15546859180E+03  0.61819989968E+03  0.66301312266E+03  0.17300000000E+03 0.  1.
         -6    1    1    2    0  503  0.57582999354E+02 -0.15546859180E+03  0.14813667823E+02  0.24007234244E+03  0.17300000000E+03 0.  1.
<mgrwt>
<rscale>  2 0.23961487E+03</rscale>
<asrwt>0</asrwt>
<pdfrwt beam="1">  1       21 0.11816146E+00 0.23961487E+03</pdfrwt>
<pdfrwt beam="2">  1       21 0.20774762E-01 0.23961487E+03</pdfrwt>
<totfact> 0.11439661E+04</totfact>
</mgrwt>
</event>
<event>
 4    3  0.3906307E+000  0.1865593E+03  0.7546771E-02  0.1161602E+00
         21   -1    0    0  503  502  0.00000000000E+00  0.00000000000E+00  0.13886278389E+03  0.13886278389E+03  0.00000000000E+00 0.  1.
         21   -1    0    0  501  503 -0.00000000000E+00 -0.00000000000E+00 -0.11029999612E+04  0.11029999612E+04  0.00000000000E+00 0.  1.
          6    1    1    2  501    0  0.19767971505E+02 -0.66967033660E+02 -0.10279116119E+04  0.10447040912E+04  0.17300000000E+03 0.  1.
         -6    1    1    2    0  502 -0.19767971505E+02  0.66967033660E+02  0.63774434587E+02  0.19715865388E+03  0.17300000000E+03 0.  1.
<mgrwt>
<rscale>  2 0.18655926E+03</rscale>
<asrwt>0</asrwt>
<pdfrwt beam="1">  1       21 0.21363505E-01 0.18655926E+03</pdfrwt>
<pdfrwt beam="2">  1       21 0.16969231E+00 0.18655926E+03</pdfrwt>
<totfact> 0.43986649E+03</totfact>
</mgrwt>
</event>
<event>
 4    3  0.3906307E+000  0.1778056E+03  0.7546771E-02  0.1169944E+00
         21   -1    0    0  501  502  0.00000000000E+00  0.00000000000E+00  0.24095528120E+03  0.24095528120E+03  0.00000000000E+00 0. -1.
         21   -1    0    0  502  503 -0.00000000000E+00 -0.00000000000E+00 -0.14674220935E+03  0.14674220935E+03  0.00000000000E+00 0. -1.
          6    1    1    2  501    0  0.38587124160E+02 -0.14030952382E+02  0.11018117890E+03  0.20917630353E+03  0.17300000000E+03 0. -1.
         -6    1    1    2    0  503 -0.38587124160E+02  0.14030952382E+02 -0.15968107044E+02  0.17852118703E+03  0.17300000000E+03 0. -1.
<mgrwt>
<rscale>  2 0.17780561E+03</rscale>
<asrwt>0</asrwt>
<pdfrwt beam="1">  1       21 0.37070043E-01 0.17780561E+03</pdfrwt>
<pdfrwt beam="2">  1       21 0.22575725E-01 0.17780561E+03</pdfrwt>
<totfact> 0.12968583E+05</totfact>
</mgrwt>
</event>
<event>
 4    3  0.3906307E+000  0.1798951E+03  0.7546771E-02  0.1167905E+00
         21   -1    0    0  503  502  0.00000000000E+00  0.00000000000E+00  0.11748405597E+04  0.11748405597E+04  0.00000000000E+00 0.  1.
         21   -1    0    0  501  503 -0.00000000000E+00 -0.00000000000E+00 -0.10133305163E+03  0.10133305163E+03  0.00000000000E+00 0.  1.
          6    1    1    2  501    0  0.37593751596E+02  0.31936994616E+02 -0.77414043533E+01  0.18006163146E+03  0.17300000000E+03 0.  1.
         -6    1    1    2    0  502 -0.37593751596E+02 -0.31936994616E+02  0.10812489124E+04  0.10961119798E+04  0.17300000000E+03 0.  1.
<mgrwt>
<rscale>  2 0.17989514E+03</rscale>
<asrwt>0</asrwt>
<pdfrwt beam="1">  1       21 0.18074469E+00 0.17989514E+03</pdfrwt>
<pdfrwt beam="2">  1       21 0.15589701E-01 0.17989514E+03</pdfrwt>
<totfact> 0.66499339E+03</totfact>
</mgrwt>
</event>
<event>
 4    3  0.3906307E+000  0.2390022E+03  0.7546771E-02  0.1120459E+00
         21   -1    0    0  501  502  0.00000000000E+00  0.00000000000E+00  0.24340964993E+03  0.24340964993E+03  0.00000000000E+00 0. -1.
         21   -1    0    0  502  503 -0.00000000000E+00 -0.00000000000E+00 -0.23498751389E+03  0.23498751389E+03  0.00000000000E+00 0. -1.
          6    1    1    2  501    0 -0.16344909970E+03  0.21850079473E+02  0.12941357353E+02  0.23935227782E+03  0.17300000000E+03 0. -1.
         -6    1    1    2    0  503  0.16344909970E+03 -0.21850079473E+02 -0.45192213135E+01  0.23904488601E+03  0.17300000000E+03 0. -1.
<mgrwt>
<rscale>  2 0.23900216E+03</rscale>
<asrwt>0</asrwt>
<pdfrwt beam="1">  1       21 0.37447639E-01 0.23900216E+03</pdfrwt>
<pdfrwt beam="2">  1       21 0.36151925E-01 0.23900216E+03</pdfrwt>
<totfact> 0.49686969E+04</totfact>
</mgrwt>
</event>
<event>
 4    3  0.3906307E+000  0.2232619E+03  0.7546771E-02  0.1131474E+00
         21   -1    0    0  501  502  0.00000000000E+00  0.00000000000E+00  0.80278422596E+02  0.80278422596E+02  0.00000000000E+00 0.  1.
         21   -1    0    0  502  503 -0.00000000000E+00 -0.00000000000E+00 -0.10593866760E+04  0.10593866760E+04  0.00000000000E+00 0.  1.
          6    1    1    2  501    0 -0.99055794925E+02 -0.10052278073E+03 -0.12295452736E+03  0.25487976724E+03  0.17300000000E+03 0.  1.
         -6    1    1    2    0  503  0.99055794925E+02  0.10052278073E+03 -0.85615372609E+03  0.88478533139E+03  0.17300000000E+03 0.  1.
<mgrwt>
<rscale>  2 0.22326191E+03</rscale>
<asrwt>0</asrwt>
<pdfrwt beam="1">  1       21 0.12350528E-01 0.22326191E+03</pdfrwt>
<pdfrwt beam="2">  1       21 0.16298255E+00 0.22326191E+03</pdfrwt>
<totfact> 0.13055431E+04</totfact>
</mgrwt>
</event>
<event>
 4    3  0.3906307E+000  0.1984315E+03  0.7546771E-02  0.1151069E+00
         21   -1    0    0  503  502  0.00000000000E+00  0.00000000000E+00  0.51904655682E+03  0.51904655682E+03  0.00000000000E+00 0. -1.
         21   -1    0    0  501  503 -0.00000000000E+00 -0.00000000000E+00 -0.76791376626E+02  0.76791376626E+02  0.00000000000E+00 0. -1.
          6    1    1    2  501    0 -0.65379506975E+02  0.71913685900E+02  0.18832403813E+03  0.27357083450E+03  0.17300000000E+03 0. -1.
         -6    1    1    2    0  502  0.65379506975E+02 -0.71913685900E+02  0.25393114206E+03  0.32226709894E+03  0.17300000000E+03 0. -1.
<mgrwt>
<rscale>  2 0.19843149E+03</rscale>
<asrwt>0</asrwt>
<pdfrwt beam="1">  1       21 0.79853314E-01 0.19843149E+03</pdfrwt>
<pdfrwt beam="2">  1       21 0.11814058E-01 0.19843149E+03</pdfrwt>
<totfact> 0.83127868E+04</totfact>
</mgrwt>
</event>
<event>
 4    3  0.3906307E+000  0.2226049E+03  0.7546771E-02  0.1131956E+00
         21   -1    0    0  503  502  0.00000000000E+00  0.00000000000E+00  0.17279167906E+03  0.17279167906E+03  0.00000000000E+00 0. -1.
         21   -1    0    0  501  503 -0.00000000000E+00 -0.00000000000E+00 -0.46196182365E+03  0.46196182365E+03  0.00000000000E+00 0. -1.
          6    1    1    2  501    0 -0.11472939114E+03 -0.80380946177E+02 -0.34002734810E+03  0.40641300072E+03  0.17300000000E+03 0. -1.
         -6    1    1    2    0  502  0.11472939114E+03  0.80380946177E+02  0.50857203507E+02  0.22834050199E+03  0.17300000000E+03 0. -1.
<mgrwt>
<rscale>  2 0.22260487E+03</rscale>
<asrwt>0</asrwt>
<pdfrwt beam="1">  1       21 0.26583336E-01 0.22260487E+03</pdfrwt>
<pdfrwt beam="2">  1       21 0.71071049E-01 0.22260487E+03</pdfrwt>
<totfact> 0.23724644E+04</totfact>
</mgrwt>
</event>
<event>
 4    3  0.3906307E+000  0.2011007E+03  0.7546771E-02  0.1148814E+00
         21   -1    0    0  503  502  0.00000000000E+00  0.00000000000E+00  0.15290508708E+03  0.15290508708E+03  0.00000000000E+00 0.  1.
         21   -1    0    0  501  503 -0.00000000000E+00 -0.00000000000E+00 -0.26601560697E+03  0.26601560697E+03  0.00000000000E+00 0.  1.
          6    1    1    2  501    0  0.84355271351E+02  0.58281099177E+02 -0.72430197587E+02  0.21374665342E+03  0.17300000000E+03 0.  1.
         -6    1    1    2    0  502 -0.84355271351E+02 -0.58281099177E+02 -0.40680322304E+02  0.20517404063E+03  0.17300000000E+03 0.  1.
<mgrwt>
<rscale>  2 0.20110072E+03</rscale>
<asrwt>0</asrwt>
<pdfrwt beam="1">  1       21 0.23523860E-01 0.20110072E+03</pdfrwt>
<pdfrwt beam="2">  1       21 0.40925478E-01 0.20110072E+03</pdfrwt>
<totfact> 0.97471912E+04</totfact>
</mgrwt>
</event>
<event>
 4    3  0.3906307E+000  0.2045723E+03  0.7546771E-02  0.1145938E+00
         21   -1    0    0  501  502  0.00000000000E+00  0.00000000000E+00  0.76837004031E+02  0.76837004031E+02  0.00000000000E+00 0. -1.
         21   -1    0    0  502  503 -0.00000000000E+00 -0.00000000000E+00 -0.97690705781E+03  0.97690705781E+03  0.00000000000E+00 0. -1.
          6    1    1    2  501    0 -0.55054269547E+02  0.94285968521E+02 -0.99568921408E+02  0.22751656328E+03  0.17300000000E+03 0. -1.
         -6    1    1    2    0  503  0.55054269547E+02 -0.94285968521E+02 -0.80050113237E+03  0.82622749856E+03  0.17300000000E+03 0. -1.
<mgrwt>
<rscale>  2 0.20457228E+03</rscale>
<asrwt>0</asrwt>
<pdfrwt beam="1">  1       21 0.11821078E-01 0.20457228E+03</pdfrwt>
<pdfrwt beam="2">  1       21 0.15029338E+00 0.20457228E+03</pdfrwt>
<totfact> 0.17779190E+04</totfact>
</mgrwt>
</event>
<event>
 4    3  0.3906307E+000  0.1830695E+03  0.7546771E-02  0.1164865E+00
         21   -1    0    0  503  502  0.00000000000E+00  0.00000000000E+00  0.19839649043E+03  0.19839649043E+03  0.00000000000E+00 0.  1.
         21   -1    0    0  501  503 -0.00000000000E+00 -0.00000000000E+00 -0.20194872401E+03  0.20194872401E+03  0.00000000000E+00 0.  1.
          6    1    1    2  501    0  0.98562779818E+01  0.59061863671E+02  0.79168209539E+02  0.19945439418E+03  0.17300000000E+03 0.  1.
         -6    1    1    2    0  502 -0.98562779818E+01 -0.59061863671E+02 -0.82720443122E+02  0.20089082026E+03  0.17300000000E+03 0.  1.
<mgrwt>
<rscale>  2 0.18306952E+03</rscale>
<asrwt>0</asrwt>
<pdfrwt beam="1">  1       21 0.30522537E-01 0.18306952E+03</pdfrwt>
<pdfrwt beam="2">  1       21 0.31069034E-01 0.18306952E+03</pdfrwt>
<totfact> 0.10290035E+05</totfact>
</mgrwt>
</event>
<event>
 4    3  0.3906307E+000  0.2368777E+03  0.7546771E-02  0.1121890E+00
         21   -1    0    0  503  502  0.00000000000E+00  0.00000000000E+00  0.11604410331E+03  0.11604410331E+03  0.00000000000E+00 0.  1.
         21   -1    0    0  501  503 -0.00000000000E+00 -0.00000000000E+00 -0.50766577210E+03  0.50766577210E+03  0.00000000000E+00 0.  1.
          6    1    1    2  501    0 -0.16965769249E+02 -0.16091675787E+03 -0.26380569066E+03  0.35454827980E+03  0.17300000000E+03 0.  1.
         -6    1    1    2    0  502  0.16965769249E+02  0.16091675787E+03 -0.12781597814E+03  0.26916159562E+03  0.17300000000E+03 0.  1.
<mgrwt>
<rscale>  2 0.23687769E+03</rscale>
<asrwt>0</asrwt>
<pdfrwt beam="1">  1       21 0.17852939E-01 0.23687769E+03</pdfrwt>
<pdfrwt beam="2">  1       21 0.78102427E-01 0.23687769E+03</pdfrwt>
<totfact> 0.40496575E+04</totfact>
</mgrwt>
</event>
<event>
 4    3  0.3906307E+000  0.2202096E+03  0.7546771E-02  0.1133727E+00
         21   -1    0    0  503  502  0.00000000000E+00  0.00000000000E+00  0.98969244176E+02  0.98969244176E+02  0.00000000000E+00 0.  1.
         21   -1    0    0  501  503 -0.00000000000E+00 -0.00000000000E+00 -0.49309491890E+03  0.49309491890E+03  0.00000000000E+00 0.  1.
          6    1    1    2  501    0 -0.11235204656E+03  0.77073129801E+02 -0.22061819960E+03  0.31171243109E+03  0.17300000000E+03 0.  1.
         -6    1    1    2    0  502  0.11235204656E+03 -0.77073129801E+02 -0.17350747513E+03  0.28035173199E+03  0.17300000000E+03 0.  1.
<mgrwt>
<rscale>  2 0.22020956E+03</rscale>
<asrwt>0</asrwt>
<pdfrwt beam="1">  1       21 0.15226037E-01 0.22020956E+03</pdfrwt>
<pdfrwt beam="2">  1       21 0.75860757E-01 0.22020956E+03</pdfrwt>
<totfact> 0.58410913E+04</totfact>
</mgrwt>
</event>
<event>
 4    3  0.3906307E+000  0.1960196E+03  0.7546771E-02  0.1153141E+00
         21   -1    0    0  501  502  0.00000000000E+00  0.00000000000E+00  0.41028957646E+03  0.41028957646E+03  0.00000000000E+00 0.  1.
         21   -1    0    0  502  503 -0.00000000000E+00 -0.00000000000E+00 -0.10196602341E+03  0.10196602341E+03  0.00000000000E+00 0.  1.
          6    1    1    2  501    0  0.29759127084E+02  0.87230005041E+02  0.22730649508E+03  0.30015316445E+03  0.17300000000E+03 0.  1.
         -6    1    1    2    0  503 -0.29759127084E+02 -0.87230005041E+02  0.81017057965E+02  0.21210243541E+03  0.17300000000E+03 0.  1.
<mgrwt>
<rscale>  2 0.19601959E+03</rscale>
<asrwt>0</asrwt>
<pdfrwt beam="1">  1       21 0.63121472E-01 0.19601959E+03</pdfrwt>
<pdfrwt beam="2">  1       21 0.15687081E-01 0.19601959E+03</pdfrwt>
<totfact> 0.83850871E+04</totfact>
</mgrwt>
</event>
<event>
 4    3  0.3906307E+000  0.2461197E+03  0.7546771E-02  0.1115782E+00
         21   -1    0    0  501  502  0.00000000000E+00  0.00000000000E+00  0.54069365864E+03  0.54069365864E+03  0.00000000000E+00 0.  1.
         21   -1    0    0  502  503 -0.00000000000E+00 -0.00000000000E+00 -0.11885135050E+03  0.11885135050E+03  0.00000000000E+00 0.  1.
          6    1    1    2  501    0 -0.28346642423E+02 -0.17274941287E+03  0.28991436881E+03  0.38029624377E+03  0.17300000000E+03 0.  1.
         -6    1    1    2    0  503  0.28346642423E+02  0.17274941287E+03  0.13192793933E+03  0.27924876537E+03  0.17300000000E+03 0.  1.
<mgrwt>
<rscale>  2 0.24611967E+03</rscale>
<asrwt>0</asrwt>
<pdfrwt beam="1">  1       21 0.83183639E-01 0.24611967E+03</pdfrwt>
<pdfrwt beam="2">  1       21 0.18284823E-01 0.24611967E+03</pdfrwt>
<totfact> 0.33418593E+04</totfact>
</mgrwt>
</event>
<event>
 4    3  0.3906307E+000  0.1848781E+03  0.7546771E-02  0.1163164E+00
         21   -1    0    0  503  502  0.00000000000E+00  0.00000000000E+00  0.45267794649E+03  0.45267794649E+03  0.00000000000E+00 0. -1.
         21   -1    0    0  501  503 -0.00000000000E+00 -0.00000000000E+00 -0.11120422327E+03  0.11120422327E+03  0.00000000000E+00 0.  1.
          6    1    1    2  501    0  0.62457673904E+02  0.18707060840E+02  0.10994229195E+02  0.18520471978E+03  0.17300000000E+03 0.  1.
         -6    1    1    2    0  502 -0.62457673904E+02 -0.18707060840E+02  0.33047949403E+03  0.37867744998E+03  0.17300000000E+03 0. -1.
<mgrwt>
<rscale>  2 0.18487811E+03</rscale>
<asrwt>0</asrwt>
<pdfrwt beam="1">  1       21 0.69642760E-01 0.18487811E+03</pdfrwt>
<pdfrwt beam="2">  1       21 0.17108342E-01 0.18487811E+03</pdfrwt>
<totfact> 0.57986526E+04</totfact>
</mgrwt>
</event>
<event>
 4    3  0.3906307E+000  0.2407293E+03  0.7546771E-02  0.1119308E+00
         21   -1    0    0  501  502  0.00000000000E+00  0.00000000000E+00  0.43476002087E+03  0.43476002087E+03  0.00000000000E+00 0.  1.
         21   -1    0    0  502  503 -0.00000000000E+00 -0.00000000000E+00 -0.19012012354E+03  0.19012012354E+03  0.00000000000E+00 0. -1.
          6    1    1    2  501    0  0.16648491704E+03 -0.17445986434E+02  0.29313630155E+03  0.37931448869E+03  0.17300000000E+03 0.  1.
         -6    1    1    2    0  503 -0.16648491704E+03  0.17445986434E+02 -0.48496404214E+02  0.24556565572E+03  0.17300000000E+03 0. -1.
<mgrwt>
<rscale>  2 0.24072929E+03</rscale>
<asrwt>0</asrwt>
<pdfrwt beam="1">  1       21 0.66886157E-01 0.24072929E+03</pdfrwt>
<pdfrwt beam="2">  1       21 0.29249250E-01 0.24072929E+03</pdfrwt>
<totfact> 0.22327947E+04</totfact>
</mgrwt>
</event>
<event>
 4    3  0.3906307E+000  0.2823479E+03  0.7546771E-02  0.1094413E+00
         21   -1    0    0  503  502  0.00000000000E+00  0.00000000000E+00  0.38585207183E+03  0.38585207183E+03  0.00000000000E+00 0. -1.
         21   -1    0    0  501  503 -0.00000000000E+00 -0.00000000000E+00 -0.38406441220E+03  0.38406441220E+03  0.00000000000E+00 0. -1.
          6    1    1    2  501    0  0.89878691081E+02  0.20423797110E+03  0.26256555231E+03  0.38556581437E+03  0.17300000000E+03 0. -1.
         -6    1    1    2    0  502 -0.89878691081E+02 -0.20423797110E+03 -0.26077789269E+03  0.38435066966E+03  0.17300000000E+03 0. -1.
<mgrwt>
<rscale>  2 0.28234788E+03</rscale>
<asrwt>0</asrwt>
<pdfrwt beam="1">  1       21 0.59361857E-01 0.28234788E+03</pdfrwt>
<pdfrwt beam="2">  1       21 0.59086833E-01 0.28234788E+03</pdfrwt>
<totfact> 0.67131754E+03</totfact>
</mgrwt>
</event>
<event>
 4    3  0.3906307E+000  0.3190376E+03  0.7546771E-02  0.1076093E+00
         21   -1    0    0  501  502  0.00000000000E+00  0.00000000000E+00  0.21491001400E+03  0.21491001400E+03  0.00000000000E+00 0.  1.
         21   -1    0    0  502  503 -0.00000000000E+00 -0.00000000000E+00 -0.49190337689E+03  0.49190337689E+03  0.00000000000E+00 0.  1.
          6    1    1    2  501    0 -0.86425444304E+02 -0.25374523866E+03 -0.70356936738E+02  0.32670338552E+03  0.17300000000E+03 0.  1.
         -6    1    1    2    0  503  0.86425444304E+02  0.25374523866E+03 -0.20663642615E+03  0.38011000536E+03  0.17300000000E+03 0.  1.
<mgrwt>
<rscale>  2 0.31903762E+03</rscale>
<asrwt>0</asrwt>
<pdfrwt beam="1">  1       21 0.33063079E-01 0.31903762E+03</pdfrwt>
<pdfrwt beam="2">  1       21 0.75677442E-01 0.31903762E+03</pdfrwt>
<totfact> 0.12848023E+04</totfact>
</mgrwt>
</event>
<event>
 4    3  0.3906307E+000  0.2954995E+03  0.7546771E-02  0.1087512E+00
         21   -1    0    0  503  502  0.00000000000E+00  0.00000000000E+00  0.91146473591E+02  0.91146473591E+02  0.00000000000E+00 0.  1.
         21   -1    0    0  501  503 -0.00000000000E+00 -0.00000000000E+00 -0.99753627703E+03  0.99753627703E+03  0.00000000000E+00 0.  1.
          6    1    1    2  501    0 -0.48763432751E+02  0.23454866109E+03 -0.56153941798E+03  0.63454429690E+03  0.17300000000E+03 0.  1.
         -6    1    1    2    0  502  0.48763432751E+02 -0.23454866109E+03 -0.34485038546E+03  0.45413845371E+03  0.17300000000E+03 0.  1.
<mgrwt>
<rscale>  2 0.29549949E+03</rscale>
<asrwt>0</asrwt>
<pdfrwt beam="1">  1       21 0.14022536E-01 0.29549949E+03</pdfrwt>
<pdfrwt beam="2">  1       21 0.15346711E+00 0.29549949E+03</pdfrwt>
<totfact> 0.11715235E+04</totfact>
</mgrwt>
</event>
<event>
 4    3  0.3906307E+000  0.1929419E+03  0.7546771E-02  0.1155834E+00
         21   -1    0    0  503  502  0.00000000000E+00  0.00000000000E+00  0.21778841239E+03  0.21778841239E+03  0.00000000000E+00 0.  1.
         21   -1    0    0  501  503 -0.00000000000E+00 -0.00000000000E+00 -0.29124250551E+03  0.29124250551E+03  0.00000000000E+00 0.  1.
          6    1    1    2  501    0 -0.70139421360E+02  0.48765312507E+02 -0.20031148966E+03  0.27812099350E+03  0.17300000000E+03 0.  1.
         -6    1    1    2    0  502  0.70139421360E+02 -0.48765312507E+02  0.12685739654E+03  0.23090992441E+03  0.17300000000E+03 0.  1.
<mgrwt>
<rscale>  2 0.19294194E+03</rscale>
<asrwt>0</asrwt>
<pdfrwt beam="1">  1       21 0.33505910E-01 0.19294194E+03</pdfrwt>
<pdfrwt beam="2">  1       21 0.44806539E-01 0.19294194E+03</pdfrwt>
<totfact> 0.41012164E+04</totfact>
</mgrwt>
</event>
<event>
 4    3  0.3906307E+000  0.1801288E+03  0.7546771E-02  0.1167678E+00
         21   -1    0    0  503  502  0.00000000000E+00  0.00000000000E+00  0.95934914851E+02  0.95934914851E+02  0.00000000000E+00 0.  1.
         21   -1    0    0  501  503 -0.00000000000E+00 -0.00000000000E+00 -0.36031928832E+03  0.36031928832E+03  0.00000000000E+00 0.  1.
          6    1    1    2  501    0 -0.19611779798E+02 -0.46181985862E+02 -0.75686143784E+02  0.19538369964E+03  0.17300000000E+03 0.  1.
         -6    1    1    2    0  502  0.19611779798E+02  0.46181985862E+02 -0.18869822969E+03  0.26087050353E+03  0.17300000000E+03 0.  1.
<mgrwt>
<rscale>  2 0.18012884E+03</rscale>
<asrwt>0</asrwt>
<pdfrwt beam="1">  1       21 0.14759218E-01 0.18012884E+03</pdfrwt>
<pdfrwt beam="2">  1       21 0.55433737E-01 0.18012884E+03</pdfrwt>
<totfact> 0.12448643E+05</totfact>
</mgrwt>
</event>
<event>
 4    3  0.3906307E+000  0.2339490E+03  0.7546771E-02  0.1123891E+00
         21   -1    0    0  501  502  0.00000000000E+00  0.00000000000E+00  0.12151693516E+03  0.12151693516E+03  0.00000000000E+00 0.  1.
         21   -1    0    0  502  503 -0.00000000000E+00 -0.00000000000E+00 -0.48828580619E+03  0.48828580619E+03  0.00000000000E+00 0. -1.
          6    1    1    2  501    0 -0.24476920397E+01  0.15747105521E+03 -0.98462812016E+02  0.25382484074E+03  0.17300000000E+03 0.  1.
         -6    1    1    2    0  503  0.24476920397E+01 -0.15747105521E+03 -0.26830605901E+03  0.35597790062E+03  0.17300000000E+03 0.  1.
<mgrwt>
<rscale>  2 0.23394898E+03</rscale>
<asrwt>0</asrwt>
<pdfrwt beam="1">  1       21 0.18694913E-01 0.23394898E+03</pdfrwt>
<pdfrwt beam="2">  1       21 0.75120895E-01 0.23394898E+03</pdfrwt>
<totfact> 0.40630586E+04</totfact>
</mgrwt>
</event>
<event>
 4    3  0.3906307E+000  0.2111235E+03  0.7546771E-02  0.1140679E+00
         21   -1    0    0  501  502  0.00000000000E+00  0.00000000000E+00  0.27597265434E+03  0.27597265434E+03  0.00000000000E+00 0.  1.
         21   -1    0    0  502  503 -0.00000000000E+00 -0.00000000000E+00 -0.16871122339E+03  0.16871122339E+03  0.00000000000E+00 0.  1.
          6    1    1    2  501    0 -0.75303495062E+02  0.94728558925E+02  0.99557715893E+02  0.23341991140E+03  0.17300000000E+03 0.  1.
         -6    1    1    2    0  503  0.75303495062E+02 -0.94728558925E+02  0.77037150543E+01  0.21126396633E+03  0.17300000000E+03 0.  1.
<mgrwt>
<rscale>  2 0.21112346E+03</rscale>
<asrwt>0</asrwt>
<pdfrwt beam="1">  1       21 0.42457331E-01 0.21112346E+03</pdfrwt>
<pdfrwt beam="2">  1       21 0.25955573E-01 0.21112346E+03</pdfrwt>
<totfact> 0.74644093E+04</totfact>
</mgrwt>
</event>
<event>
 4    3  0.3906307E+000  0.1821312E+03  0.7546771E-02  0.1165756E+00
         21   -1    0    0  503  502  0.00000000000E+00  0.00000000000E+00  0.25957866674E+03  0.25957866674E+03  0.00000000000E+00 0.  1.
         21   -1    0    0  501  503 -0.00000000000E+00 -0.00000000000E+00 -0.12780093275E+03  0.12780093275E+03  0.00000000000E+00 0.  1.
          6    1    1    2  501    0  0.53474202224E+02  0.19577356160E+02  0.64163450671E+02  0.19310285233E+03  0.17300000000E+03 0.  1.
         -6    1    1    2    0  502 -0.53474202224E+02 -0.19577356160E+02  0.67614283310E+02  0.19427674716E+03  0.17300000000E+03 0.  1.
<mgrwt>
<rscale>  2 0.18213117E+03</rscale>
<asrwt>0</asrwt>
<pdfrwt beam="1">  1       21 0.39935179E-01 0.18213117E+03</pdfrwt>
<pdfrwt beam="2">  1       21 0.19661682E-01 0.18213117E+03</pdfrwt>
<totfact> 0.14450632E+05</totfact>
</mgrwt>
</event>
<event>
 4    3  0.3906307E+000  0.2322527E+03  0.7546771E-02  0.1125064E+00
         21   -1    0    0  501  502  0.00000000000E+00  0.00000000000E+00  0.95682307023E+02  0.95682307023E+02  0.00000000000E+00 0.  1.
         21   -1    0    0  502  503 -0.00000000000E+00 -0.00000000000E+00 -0.59714724507E+03  0.59714724507E+03  0.00000000000E+00 0. -1.
          6    1    1    2  501    0  0.60285997407E+02  0.14275119788E+03 -0.33265124674E+03  0.40570698532E+03  0.17300000000E+03 0. -1.
         -6    1    1    2    0  503 -0.60285997407E+02 -0.14275119788E+03 -0.16881369131E+03  0.28712256678E+03  0.17300000000E+03 0.  1.
<mgrwt>
<rscale>  2 0.23225268E+03</rscale>
<asrwt>0</asrwt>
<pdfrwt beam="1">  1       21 0.14720355E-01 0.23225268E+03</pdfrwt>
<pdfrwt beam="2">  1       21 0.91868805E-01 0.23225268E+03</pdfrwt>
<totfact> 0.39857071E+04</totfact>
</mgrwt>
</event>
<event>
 4    3  0.3906307E+000  0.1875223E+03  0.7546771E-02  0.1160715E+00
         21   -1    0    0  501  502  0.00000000000E+00  0.00000000000E+00  0.57724530220E+02  0.57724530220E+02  0.00000000000E+00 0.  1.
         21   -1    0    0  502  503 -0.00000000000E+00 -0.00000000000E+00 -0.61236760841E+03  0.61236760841E+03  0.00000000000E+00 0.  1.
          6    1    1    2  501    0 -0.51494665779E+02 -0.50832281803E+02 -0.25314800436E+03  0.31503735269E+03  0.17300000000E+03 0. -1.
         -6    1    1    2    0  503  0.51494665779E+02  0.50832281803E+02 -0.30149507383E+03  0.35505478594E+03  0.17300000000E+03 0. -1.
<mgrwt>
<rscale>  2 0.18752232E+03</rscale>
<asrwt>0</asrwt>
<pdfrwt beam="1">  1       21 0.88806969E-02 0.18752232E+03</pdfrwt>
<pdfrwt beam="2">  1       21 0.94210401E-01 0.18752232E+03</pdfrwt>
<totfact> 0.94656134E+04</totfact>
</mgrwt>
</event>
<event>
 4    3  0.3906307E+000  0.2905582E+03  0.7546771E-02  0.1090058E+00
         21   -1    0    0  501  502  0.00000000000E+00  0.00000000000E+00  0.55995594698E+03  0.55995594698E+03  0.00000000000E+00 0. -1.
         21   -1    0    0  502  503 -0.00000000000E+00 -0.00000000000E+00 -0.18181631145E+03  0.18181631145E+03  0.00000000000E+00 0. -1.
          6    1    1    2  501    0  0.15437123824E+01  0.23343662631E+03  0.34233221963E+03  0.44901602437E+03  0.17300000000E+03 0. -1.
         -6    1    1    2    0  503 -0.15437123824E+01 -0.23343662631E+03  0.35807415901E+02  0.29275623406E+03  0.17300000000E+03 0. -1.
<mgrwt>
<rscale>  2 0.29055816E+03</rscale>
<asrwt>0</asrwt>
<pdfrwt beam="1">  1       21 0.86147068E-01 0.29055816E+03</pdfrwt>
<pdfrwt beam="2">  1       21 0.27971741E-01 0.29055816E+03</pdfrwt>
<totfact> 0.13440832E+04</totfact>
</mgrwt>
</event>
<event>
 4    3  0.3906307E+000  0.2275464E+03  0.7546771E-02  0.1128379E+00
         21   -1    0    0  503  502  0.00000000000E+00  0.00000000000E+00  0.57428179317E+03  0.57428179317E+03  0.00000000000E+00 0.  1.
         21   -1    0    0  501  503 -0.00000000000E+00 -0.00000000000E+00 -0.14677671431E+03  0.14677671431E+03  0.00000000000E+00 0.  1.
          6    1    1    2  501    0 -0.58603677034E+02 -0.13569809273E+03 -0.10162610894E+02  0.22777322493E+03  0.17300000000E+03 0.  1.
         -6    1    1    2    0  502  0.58603677034E+02  0.13569809273E+03  0.43766768975E+03  0.49328528255E+03  0.17300000000E+03 0.  1.
<mgrwt>
<rscale>  2 0.22754640E+03</rscale>
<asrwt>0</asrwt>
<pdfrwt beam="1">  1       21 0.88351044E-01 0.22754640E+03</pdfrwt>
<pdfrwt beam="2">  1       21 0.22581033E-01 0.22754640E+03</pdfrwt>
<totfact> 0.19740017E+04</totfact>
</mgrwt>
</event>
<event>
 4    3  0.3906307E+000  0.2302485E+03  0.7546771E-02  0.1126465E+00
         21   -1    0    0  501  502  0.00000000000E+00  0.00000000000E+00  0.49792674048E+03  0.49792674048E+03  0.00000000000E+00 0. -1.
         21   -1    0    0  502  503 -0.00000000000E+00 -0.00000000000E+00 -0.28779260919E+03  0.28779260919E+03  0.00000000000E+00 0.  1.
          6    1    1    2  501    0 -0.13039278894E+03  0.77994312947E+02  0.41690094423E+03  0.47625706248E+03  0.17300000000E+03 0. -1.
         -6    1    1    2    0  503  0.13039278894E+03 -0.77994312947E+02 -0.20676681294E+03  0.30946228719E+03  0.17300000000E+03 0.  1.
<mgrwt>
<rscale>  2 0.23024854E+03</rscale>
<asrwt>0</asrwt>
<pdfrwt beam="1">  1       21 0.76604114E-01 0.23024854E+03</pdfrwt>
<pdfrwt beam="2">  1       21 0.44275786E-01 0.23024854E+03</pdfrwt>
<totfact> 0.72376586E+03</totfact>
</mgrwt>
</event>
<event>
 4    3  0.3906307E+000  0.2063973E+03  0.7546771E-02  0.1144451E+00
         21   -1    0    0  503  502  0.00000000000E+00  0.00000000000E+00  0.49968636387E+02  0.49968636387E+02  0.00000000000E+00 0.  1.
         21   -1    0    0  501  503 -0.00000000000E+00 -0.00000000000E+00 -0.19440770993E+04  0.19440770993E+04  0.00000000000E+00 0.  1.
          6    1    1    2  501    0 -0.10651770625E+02 -0.11205979820E+03 -0.16941378797E+04  0.17066642945E+04  0.17300000000E+03 0.  1.
         -6    1    1    2    0  502  0.10651770625E+02  0.11205979820E+03 -0.19997058312E+03  0.28738144113E+03  0.17300000000E+03 0.  1.
<mgrwt>
<rscale>  2 0.20639733E+03</rscale>
<asrwt>0</asrwt>
<pdfrwt beam="1">  1       21 0.76874836E-02 0.20639733E+03</pdfrwt>
<pdfrwt beam="2">  1       21 0.29908874E+00 0.20639733E+03</pdfrwt>
<totfact> 0.43746160E+03</totfact>
</mgrwt>
</event>
<event>
 4    3  0.3906307E+000  0.2046012E+03  0.7546771E-02  0.1145914E+00
         21   -1    0    0  501  502  0.00000000000E+00  0.00000000000E+00  0.42565727320E+03  0.42565727320E+03  0.00000000000E+00 0.  1.
         21   -1    0    0  502  503 -0.00000000000E+00 -0.00000000000E+00 -0.10993007340E+03  0.10993007340E+03  0.00000000000E+00 0.  1.
          6    1    1    2  501    0  0.78504089643E+02  0.75959014147E+02  0.24479443680E+03  0.31903915153E+03  0.17300000000E+03 0.  1.
         -6    1    1    2    0  503 -0.78504089643E+02 -0.75959014147E+02  0.70932763000E+02  0.21654819507E+03  0.17300000000E+03 0.  1.
<mgrwt>
<rscale>  2 0.20460123E+03</rscale>
<asrwt>0</asrwt>
<pdfrwt beam="1">  1       21 0.65485734E-01 0.20460123E+03</pdfrwt>
<pdfrwt beam="2">  1       21 0.16912319E-01 0.20460123E+03</pdfrwt>
<totfact> 0.67171282E+04</totfact>
</mgrwt>
</event>
<event>
 4    3  0.3906307E+000  0.1879909E+03  0.7546771E-02  0.1160286E+00
         21   -1    0    0  503  502  0.00000000000E+00  0.00000000000E+00  0.15916936001E+03  0.15916936001E+03  0.00000000000E+00 0.  1.
         21   -1    0    0  501  503 -0.00000000000E+00 -0.00000000000E+00 -0.45537029444E+03  0.45537029444E+03  0.00000000000E+00 0.  1.
          6    1    1    2  501    0 -0.19611965487E+02  0.70901096199E+02 -0.36805410188E+03  0.41328490965E+03  0.17300000000E+03 0.  1.
         -6    1    1    2    0  502  0.19611965487E+02 -0.70901096199E+02  0.71853167448E+02  0.20125474480E+03  0.17300000000E+03 0.  1.
<mgrwt>
<rscale>  2 0.18799094E+03</rscale>
<asrwt>0</asrwt>
<pdfrwt beam="1">  1       21 0.24487594E-01 0.18799094E+03</pdfrwt>
<pdfrwt beam="2">  1       21 0.70056968E-01 0.18799094E+03</pdfrwt>
<totfact> 0.29218313E+04</totfact>
</mgrwt>
</event>
<event>
 4    3  0.3906307E+000  0.2021823E+03  0.7546771E-02  0.1147911E+00
         21   -1    0    0  503  502  0.00000000000E+00  0.00000000000E+00  0.27466183661E+03  0.27466183661E+03  0.00000000000E+00 0. -1.
         21   -1    0    0  501  503 -0.00000000000E+00 -0.00000000000E+00 -0.22167720704E+03  0.22167720704E+03  0.00000000000E+00 0. -1.
          6    1    1    2  501    0 -0.30215508396E+02 -0.10017845794E+03 -0.11577226063E+03  0.23298265324E+03  0.17300000000E+03 0. -1.
         -6    1    1    2    0  502  0.30215508396E+02  0.10017845794E+03  0.16875689020E+03  0.26335639041E+03  0.17300000000E+03 0. -1.
<mgrwt>
<rscale>  2 0.20218234E+03</rscale>
<asrwt>0</asrwt>
<pdfrwt beam="1">  1       21 0.42255667E-01 0.20218234E+03</pdfrwt>
<pdfrwt beam="2">  1       21 0.34104186E-01 0.20218234E+03</pdfrwt>
<totfact> 0.44433073E+04</totfact>
</mgrwt>
</event>
<event>
 4    3  0.3906307E+000  0.1867523E+03  0.7546771E-02  0.1161424E+00
         21   -1    0    0  501  502  0.00000000000E+00  0.00000000000E+00  0.22235165917E+03  0.22235165917E+03  0.00000000000E+00 0.  1.
         21   -1    0    0  502  503 -0.00000000000E+00 -0.00000000000E+00 -0.45006447809E+03  0.45006447809E+03  0.00000000000E+00 0.  1.
          6    1    1    2  501    0 -0.38524063384E+02 -0.58850008257E+02  0.15751342697E+03  0.24430903914E+03  0.17300000000E+03 0.  1.
         -6    1    1    2    0  503  0.38524063384E+02  0.58850008257E+02 -0.38522624590E+03  0.42810709812E+03  0.17300000000E+03 0.  1.
<mgrwt>
<rscale>  2 0.18675231E+03</rscale>
<asrwt>0</asrwt>
<pdfrwt beam="1">  1       21 0.34207948E-01 0.18675231E+03</pdfrwt>
<pdfrwt beam="2">  1       21 0.69240688E-01 0.18675231E+03</pdfrwt>
<totfact> 0.15687119E+04</totfact>
</mgrwt>
</event>
<event>
 4    3  0.3906307E+000  0.2313100E+03  0.7546771E-02  0.1125721E+00
         21   -1    0    0  503  502  0.00000000000E+00  0.00000000000E+00  0.14202497389E+03  0.14202497389E+03  0.00000000000E+00 0. -1.
         21   -1    0    0  501  503 -0.00000000000E+00 -0.00000000000E+00 -0.40204728580E+03  0.40204728580E+03  0.00000000000E+00 0.  1.
          6    1    1    2  501    0  0.71767888196E+02 -0.13573751536E+03 -0.19828318664E+03  0.30466461060E+03  0.17300000000E+03 0.  1.
         -6    1    1    2    0  502 -0.71767888196E+02  0.13573751536E+03 -0.61739125279E+02  0.23940764909E+03  0.17300000000E+03 0. -1.
<mgrwt>
<rscale>  2 0.23130997E+03</rscale>
<asrwt>0</asrwt>
<pdfrwt beam="1">  1       21 0.21849996E-01 0.23130997E+03</pdfrwt>
<pdfrwt beam="2">  1       21 0.61853428E-01 0.23130997E+03</pdfrwt>
<totfact> 0.46592913E+04</totfact>
</mgrwt>
</event>
<event>
 4    3  0.3906307E+000  0.1806361E+03  0.7546771E-02  0.1167189E+00
         21   -1    0    0  503  502  0.00000000000E+00  0.00000000000E+00  0.56171374098E+02  0.56171374098E+02  0.00000000000E+00 0.  1.
         21   -1    0    0  501  503 -0.00000000000E+00 -0.00000000000E+00 -0.13726731578E+04  0.13726731578E+04  0.00000000000E+00 0. -1.
          6    1    1    2  501    0  0.43983041438E+02  0.27674752993E+02 -0.12008442707E+04  0.12143542985E+04  0.17300000000E+03 0. -1.
         -6    1    1    2    0  502 -0.43983041438E+02 -0.27674752993E+02 -0.11565751296E+03  0.21449023332E+03  0.17300000000E+03 0.  1.
<mgrwt>
<rscale>  2 0.18063610E+03</rscale>
<asrwt>0</asrwt>
<pdfrwt beam="1">  1       21 0.86417510E-02 0.18063610E+03</pdfrwt>
<pdfrwt beam="2">  1       21 0.21118046E+00 0.18063610E+03</pdfrwt>
<totfact> 0.12089885E+04</totfact>
</mgrwt>
</event>
<event>
 4    3  0.3906307E+000  0.1970112E+03  0.7546771E-02  0.1152285E+00
         21   -1    0    0  503  502  0.00000000000E+00  0.00000000000E+00  0.15836177638E+03  0.15836177638E+03  0.00000000000E+00 0. -1.
         21   -1    0    0  501  503 -0.00000000000E+00 -0.00000000000E+00 -0.29137934881E+03  0.29137934881E+03  0.00000000000E+00 0.  1.
          6    1    1    2  501    0 -0.62481007170E+02  0.70572912658E+02 -0.15613359059E+03  0.25137842065E+03  0.17300000000E+03 0.  1.
         -6    1    1    2    0  502  0.62481007170E+02 -0.70572912658E+02  0.23116018164E+02  0.19836270454E+03  0.17300000000E+03 0. -1.
<mgrwt>
<rscale>  2 0.19701120E+03</rscale>
<asrwt>0</asrwt>
<pdfrwt beam="1">  1       21 0.24363350E-01 0.19701120E+03</pdfrwt>
<pdfrwt beam="2">  1       21 0.44827592E-01 0.19701120E+03</pdfrwt>
<totfact> 0.75847026E+04</totfact>
</mgrwt>
</event>
<event>
 4    3  0.3906307E+000  0.1847288E+03  0.7546771E-02  0.1163303E+00
         21   -1    0    0  503  502  0.00000000000E+00  0.00000000000E+00  0.65872631635E+02  0.65872631635E+02  0.00000000000E+00 0. -1.
         21   -1    0    0  501  503 -0.00000000000E+00 -0.00000000000E+00 -0.15765978449E+04  0.15765978449E+04  0.00000000000E+00 0.  1.
          6    1    1    2  501    0 -0.15850175386E+02  0.62805184143E+02 -0.14282838195E+04  0.14401803319E+04  0.17300000000E+03 0.  1.
         -6    1    1    2    0  502  0.15850175386E+02 -0.62805184143E+02 -0.82441393705E+02  0.20229014462E+03  0.17300000000E+03 0. -1.
<mgrwt>
<rscale>  2 0.18472877E+03</rscale>
<asrwt>0</asrwt>
<pdfrwt beam="1">  1       21 0.10134251E-01 0.18472877E+03</pdfrwt>
<pdfrwt beam="2">  1       21 0.24255352E+00 0.18472877E+03</pdfrwt>
<totfact> 0.58784092E+03</totfact>
</mgrwt>
</event>
<event>
 4    3  0.3906307E+000  0.3045753E+03  0.7546771E-02  0.1082976E+00
         21   -1    0    0  501  502  0.00000000000E+00  0.00000000000E+00  0.63610643581E+03  0.63610643581E+03  0.00000000000E+00 0.  1.
         21   -1    0    0  502  503 -0.00000000000E+00 -0.00000000000E+00 -0.16198202860E+03  0.16198202860E+03  0.00000000000E+00 0.  1.
          6    1    1    2  501    0  0.24844683088E+03  0.33335907479E+02  0.36305447273E+03  0.47389308991E+03  0.17300000000E+03 0.  1.
         -6    1    1    2    0  503 -0.24844683088E+03 -0.33335907479E+02  0.11106993449E+03  0.32419537450E+03  0.17300000000E+03 0.  1.
<mgrwt>
<rscale>  2 0.30457530E+03</rscale>
<asrwt>0</asrwt>
<pdfrwt beam="1">  1       21 0.97862528E-01 0.30457530E+03</pdfrwt>
<pdfrwt beam="2">  1       21 0.24920312E-01 0.30457530E+03</pdfrwt>
<totfact> 0.12380796E+04</totfact>
</mgrwt>
</event>
<event>
 4    3  0.3906307E+000  0.1753932E+03  0.7546771E-02  0.1172337E+00
         21   -1    0    0  501  502  0.00000000000E+00  0.00000000000E+00  0.40785679194E+03  0.40785679194E+03  0.00000000000E+00 0. -1.
         21   -1    0    0  502  503 -0.00000000000E+00 -0.00000000000E+00 -0.80448411728E+02  0.80448411728E+02  0.00000000000E+00 0. -1.
          6    1    1    2  501    0 -0.15983605906E+02  0.24047847386E+02  0.22471170623E+03  0.28505810905E+03  0.17300000000E+03 0.  1.
         -6    1    1    2    0  503  0.15983605906E+02 -0.24047847386E+02  0.10269667398E+03  0.20324709461E+03  0.17300000000E+03 0.  1.
<mgrwt>
<rscale>  2 0.17539320E+03</rscale>
<asrwt>0</asrwt>
<pdfrwt beam="1">  1       21 0.62747198E-01 0.17539320E+03</pdfrwt>
<pdfrwt beam="2">  1       21 0.12376679E-01 0.17539320E+03</pdfrwt>
<totfact> 0.13143020E+05</totfact>
</mgrwt>
</event>
<event>
 4    3  0.3906307E+000  0.1882903E+03  0.7546771E-02  0.1160012E+00
         21   -1    0    0  501  502  0.00000000000E+00  0.00000000000E+00  0.32515867333E+03  0.32515867333E+03  0.00000000000E+00 0.  1.
         21   -1    0    0  502  503 -0.00000000000E+00 -0.00000000000E+00 -0.11241656091E+03  0.11241656091E+03  0.00000000000E+00 0.  1.
          6    1    1    2  501    0  0.47073374657E+02 -0.57518214341E+02  0.68417648295E+02  0.20033527443E+03  0.17300000000E+03 0.  1.
         -6    1    1    2    0  503 -0.47073374657E+02  0.57518214341E+02  0.14432446413E+03  0.23723995981E+03  0.17300000000E+03 0.  1.
<mgrwt>
<rscale>  2 0.18829033E+03</rscale>
<asrwt>0</asrwt>
<pdfrwt beam="1">  1       21 0.50024411E-01 0.18829033E+03</pdfrwt>
<pdfrwt beam="2">  1       21 0.17294856E-01 0.18829033E+03</pdfrwt>
<totfact> 0.11523384E+05</totfact>
</mgrwt>
</event>
<event>
 4    3  0.3906307E+000  0.2254289E+03  0.7546771E-02  0.1129899E+00
         21   -1    0    0  503  502  0.00000000000E+00  0.00000000000E+00  0.55028796245E+03  0.55028796245E+03  0.00000000000E+00 0.  1.
         21   -1    0    0  501  503 -0.00000000000E+00 -0.00000000000E+00 -0.13967940237E+03  0.13967940237E+03  0.00000000000E+00 0.  1.
          6    1    1    2  501    0 -0.25080114256E+02 -0.14233819609E+03  0.44849365621E+01  0.22547347705E+03  0.17300000000E+03 0.  1.
         -6    1    1    2    0  502  0.25080114256E+02  0.14233819609E+03  0.40612362352E+03  0.46449388777E+03  0.17300000000E+03 0.  1.
<mgrwt>
<rscale>  2 0.22542887E+03</rscale>
<asrwt>0</asrwt>
<pdfrwt beam="1">  1       21 0.84659685E-01 0.22542887E+03</pdfrwt>
<pdfrwt beam="2">  1       21 0.21489139E-01 0.22542887E+03</pdfrwt>
<totfact> 0.23950895E+04</totfact>
</mgrwt>
</event>
<event>
 4    3  0.3906307E+000  0.1997155E+03  0.7546771E-02  0.1149979E+00
         21   -1    0    0  501  502  0.00000000000E+00  0.00000000000E+00  0.42972924224E+03  0.42972924224E+03  0.00000000000E+00 0.  1.
         21   -1    0    0  502  503 -0.00000000000E+00 -0.00000000000E+00 -0.95612028020E+02  0.95612028020E+02  0.00000000000E+00 0.  1.
          6    1    1    2  501    0 -0.84127708045E+02 -0.53663676604E+02  0.21196761386E+03  0.29123277764E+03  0.17300000000E+03 0.  1.
         -6    1    1    2    0  503  0.84127708045E+02  0.53663676604E+02  0.12214960035E+03  0.23410849261E+03  0.17300000000E+03 0.  1.
<mgrwt>
<rscale>  2 0.19971545E+03</rscale>
<asrwt>0</asrwt>
<pdfrwt beam="1">  1       21 0.66112190E-01 0.19971545E+03</pdfrwt>
<pdfrwt beam="2">  1       21 0.14709543E-01 0.19971545E+03</pdfrwt>
<totfact> 0.85119146E+04</totfact>
</mgrwt>
</event>
<event>
 4    3  0.3906307E+000  0.1911891E+03  0.7546771E-02  0.1157393E+00
         21   -1    0    0  503  502  0.00000000000E+00  0.00000000000E+00  0.41639385299E+03  0.41639385299E+03  0.00000000000E+00 0.  1.
         21   -1    0    0  501  503 -0.00000000000E+00 -0.00000000000E+00 -0.16093467561E+03  0.16093467561E+03  0.00000000000E+00 0.  1.
          6    1    1    2  501    0 -0.66107997440E+02 -0.47476449493E+02 -0.66884092913E+02  0.20255064173E+03  0.17300000000E+03 0.  1.
         -6    1    1    2    0  502  0.66107997440E+02  0.47476449493E+02  0.32234327029E+03  0.37477788687E+03  0.17300000000E+03 0.  1.
<mgrwt>
<rscale>  2 0.19118912E+03</rscale>
<asrwt>0</asrwt>
<pdfrwt beam="1">  1       21 0.64060592E-01 0.19118912E+03</pdfrwt>
<pdfrwt beam="2">  1       21 0.24759181E-01 0.19118912E+03</pdfrwt>
<totfact> 0.34736655E+04</totfact>
</mgrwt>
</event>
<event>
 4    3  0.3906307E+000  0.2186988E+03  0.7546771E-02  0.1134857E+00
         21   -1    0    0  501  502  0.00000000000E+00  0.00000000000E+00  0.47095243641E+03  0.47095243641E+03  0.00000000000E+00 0.  1.
         21   -1    0    0  502  503 -0.00000000000E+00 -0.00000000000E+00 -0.10795924889E+03  0.10795924889E+03  0.00000000000E+00 0. -1.
          6    1    1    2  501    0  0.13195608121E+03 -0.22085697052E+02  0.25197734080E+03  0.33364916553E+03  0.17300000000E+03 0. -1.
         -6    1    1    2    0  503 -0.13195608121E+03  0.22085697052E+02  0.11101584672E+03  0.24526251977E+03  0.17300000000E+03 0. -1.
<mgrwt>
<rscale>  2 0.21869885E+03</rscale>
<asrwt>0</asrwt>
<pdfrwt beam="1">  1       21 0.72454220E-01 0.21869885E+03</pdfrwt>
<pdfrwt beam="2">  1       21 0.16609115E-01 0.21869885E+03</pdfrwt>
<totfact> 0.55220579E+04</totfact>
</mgrwt>
</event>
<event>
 4    3  0.3906307E+000  0.4754108E+03  0.7546771E-02  0.1020404E+00
         21   -1    0    0  501  502  0.00000000000E+00  0.00000000000E+00  0.58013304344E+03  0.58013304344E+03  0.00000000000E+00 0. -1.
         21   -1    0    0  502  503 -0.00000000000E+00 -0.00000000000E+00 -0.39521656851E+03  0.39521656851E+03  0.00000000000E+00 0.  1.
          6    1    1    2  501    0  0.40720067614E+03  0.17399449471E+03  0.15063352983E+03  0.49870425620E+03  0.17300000000E+03 0.  1.
         -6    1    1    2    0  503 -0.40720067614E+03 -0.17399449471E+03  0.34282945089E+02  0.47664535576E+03  0.17300000000E+03 0. -1.
<mgrwt>
<rscale>  2 0.47541085E+03</rscale>
<asrwt>0</asrwt>
<pdfrwt beam="1">  1       21 0.89251237E-01 0.47541085E+03</pdfrwt>
<pdfrwt beam="2">  1       21 0.60802549E-01 0.47541085E+03</pdfrwt>
<totfact> 0.23143389E+03</totfact>
</mgrwt>
</event>
<event>
 4    3  0.3906307E+000  0.3463125E+03  0.7546771E-02  0.1064139E+00
         21   -1    0    0  501  502  0.00000000000E+00  0.00000000000E+00  0.40161472654E+03  0.40161472654E+03  0.00000000000E+00 0.  1.
         21   -1    0    0  502  503 -0.00000000000E+00 -0.00000000000E+00 -0.30000329931E+03  0.30000329931E+03  0.00000000000E+00 0. -1.
          6    1    1    2  501    0 -0.97379444995E+02 -0.28376150945E+03  0.27030768034E+02  0.34736582010E+03  0.17300000000E+03 0. -1.
         -6    1    1    2    0  503  0.97379444995E+02  0.28376150945E+03  0.74580659192E+02  0.35425220575E+03  0.17300000000E+03 0.  1.
<mgrwt>
<rscale>  2 0.34631250E+03</rscale>
<asrwt>0</asrwt>
<pdfrwt beam="1">  1       21 0.61786881E-01 0.34631250E+03</pdfrwt>
<pdfrwt beam="2">  1       21 0.46154354E-01 0.34631250E+03</pdfrwt>
<totfact> 0.10106818E+04</totfact>
</mgrwt>
</event>
<event>
 4    3  0.3906307E+000  0.2373316E+03  0.7546771E-02  0.1121583E+00
         21   -1    0    0  503  502  0.00000000000E+00  0.00000000000E+00  0.66720801434E+03  0.66720801434E+03  0.00000000000E+00 0.  1.
         21   -1    0    0  501  503 -0.00000000000E+00 -0.00000000000E+00 -0.89852259841E+02  0.89852259841E+02  0.00000000000E+00 0. -1.
          6    1    1    2  501    0 -0.16227667378E+03  0.79723872831E+01  0.19561175017E+03  0.30755525457E+03  0.17300000000E+03 0. -1.
         -6    1    1    2    0  502  0.16227667378E+03 -0.79723872831E+01  0.38174400433E+03  0.44950501961E+03  0.17300000000E+03 0.  1.
<mgrwt>
<rscale>  2 0.23733158E+03</rscale>
<asrwt>0</asrwt>
<pdfrwt beam="1">  1       21 0.10264738E+00 0.23733158E+03</pdfrwt>
<pdfrwt beam="2">  1       21 0.13823425E-01 0.23733158E+03</pdfrwt>
<totfact> 0.34284303E+04</totfact>
</mgrwt>
</event>
<event>
 4    3  0.3906307E+000  0.1983180E+03  0.7546771E-02  0.1151166E+00
         21   -1    0    0  503  502  0.00000000000E+00  0.00000000000E+00  0.10157445026E+03  0.10157445026E+03  0.00000000000E+00 0.  1.
         21   -1    0    0  501  503 -0.00000000000E+00 -0.00000000000E+00 -0.38755283789E+03  0.38755283789E+03  0.00000000000E+00 0. -1.
          6    1    1    2  501    0 -0.96811172397E+02 -0.53517714999E+01 -0.13565301188E+03  0.24027439354E+03  0.17300000000E+03 0. -1.
         -6    1    1    2    0  502  0.96811172397E+02  0.53517714999E+01 -0.15032537574E+03  0.24885289460E+03  0.17300000000E+03 0. -1.
<mgrwt>
<rscale>  2 0.19831804E+03</rscale>
<asrwt>0</asrwt>
<pdfrwt beam="1">  1       21 0.15626839E-01 0.19831804E+03</pdfrwt>
<pdfrwt beam="2">  1       21 0.59623513E-01 0.19831804E+03</pdfrwt>
<totfact> 0.95394831E+04</totfact>
</mgrwt>
</event>
<event>
 4    3  0.3906307E+000  0.1891578E+03  0.7546771E-02  0.1159223E+00
         21   -1    0    0  501  502  0.00000000000E+00  0.00000000000E+00  0.41321574474E+03  0.41321574474E+03  0.00000000000E+00 0. -1.
         21   -1    0    0  502  503 -0.00000000000E+00 -0.00000000000E+00 -0.18092783065E+03  0.18092783065E+03  0.00000000000E+00 0. -1.
          6    1    1    2  501    0  0.37211557349E+00 -0.76495429116E+02  0.33065506328E+03  0.38093760646E+03  0.17300000000E+03 0. -1.
         -6    1    1    2    0  503 -0.37211557349E+00  0.76495429116E+02 -0.98367149187E+02  0.21320596892E+03  0.17300000000E+03 0. -1.
<mgrwt>
<rscale>  2 0.18915784E+03</rscale>
<asrwt>0</asrwt>
<pdfrwt beam="1">  1       21 0.63571653E-01 0.18915784E+03</pdfrwt>
<pdfrwt beam="2">  1       21 0.27835051E-01 0.18915784E+03</pdfrwt>
<totfact> 0.28241608E+04</totfact>
</mgrwt>
</event>
<event>
 4    3  0.3906307E+000  0.1914204E+03  0.7546771E-02  0.1157186E+00
         21   -1    0    0  501  502  0.00000000000E+00  0.00000000000E+00  0.82897551639E+03  0.82897551639E+03  0.00000000000E+00 0.  1.
         21   -1    0    0  502  503 -0.00000000000E+00 -0.00000000000E+00 -0.10186431232E+03  0.10186431232E+03  0.00000000000E+00 0.  1.
          6    1    1    2  501    0  0.74503087769E+02 -0.34088832823E+02  0.71372868821E+03  0.73895223051E+03  0.17300000000E+03 0.  1.
         -6    1    1    2    0  503 -0.74503087769E+02  0.34088832823E+02  0.13382515871E+02  0.19188759820E+03  0.17300000000E+03 0.  1.
<mgrwt>
<rscale>  2 0.19142037E+03</rscale>
<asrwt>0</asrwt>
<pdfrwt beam="1">  1       21 0.12753469E+00 0.19142037E+03</pdfrwt>
<pdfrwt beam="2">  1       21 0.15671433E-01 0.19142037E+03</pdfrwt>
<totfact> 0.16442077E+04</totfact>
</mgrwt>
</event>
<event>
 4    3  0.3906307E+000  0.2548355E+03  0.7546771E-02  0.1110286E+00
         21   -1    0    0  501  502  0.00000000000E+00  0.00000000000E+00  0.71594338069E+03  0.71594338069E+03  0.00000000000E+00 0. -1.
         21   -1    0    0  502  503 -0.00000000000E+00 -0.00000000000E+00 -0.11630871656E+03  0.11630871656E+03  0.00000000000E+00 0. -1.
          6    1    1    2  501    0 -0.11918463130E+03 -0.14424692189E+03  0.49504997335E+03  0.55679046951E+03  0.17300000000E+03 0. -1.
         -6    1    1    2    0  503  0.11918463130E+03  0.14424692189E+03  0.10458469078E+03  0.27546162774E+03  0.17300000000E+03 0. -1.
<mgrwt>
<rscale>  2 0.25483554E+03</rscale>
<asrwt>0</asrwt>
<pdfrwt beam="1">  1       21 0.11014513E+00 0.25483554E+03</pdfrwt>
<pdfrwt beam="2">  1       21 0.17893649E-01 0.25483554E+03</pdfrwt>
<totfact> 0.17827669E+04</totfact>
</mgrwt>
</event>
<event>
 4    3  0.3906307E+000  0.2103521E+03  0.7546771E-02  0.1141288E+00
         21   -1    0    0  501  502  0.00000000000E+00  0.00000000000E+00  0.41823864076E+02  0.41823864076E+02  0.00000000000E+00 0. -1.
         21   -1    0    0  502  503 -0.00000000000E+00 -0.00000000000E+00 -0.14546299098E+04  0.14546299098E+04  0.00000000000E+00 0.  1.
          6    1    1    2  501    0  0.68671764483E+02 -0.97995787176E+02 -0.31567771016E+03  0.37934206494E+03  0.17300000000E+03 0. -1.
         -6    1    1    2    0  503 -0.68671764483E+02  0.97995787176E+02 -0.10971283355E+04  0.11171117089E+04  0.17300000000E+03 0.  1.
<mgrwt>
<rscale>  2 0.21035205E+03</rscale>
<asrwt>0</asrwt>
<pdfrwt beam="1">  1       21 0.64344411E-02 0.21035205E+03</pdfrwt>
<pdfrwt beam="2">  1       21 0.22378920E+00 0.21035205E+03</pdfrwt>
<totfact> 0.16441057E+04</totfact>
</mgrwt>
</event>
<event>
 4    3  0.3906307E+000  0.1793021E+03  0.7546771E-02  0.1168480E+00
         21   -1    0    0  503  502  0.00000000000E+00  0.00000000000E+00  0.28836612948E+03  0.28836612948E+03  0.00000000000E+00 0.  1.
         21   -1    0    0  501  503 -0.00000000000E+00 -0.00000000000E+00 -0.11149986242E+03  0.11149986242E+03  0.00000000000E+00 0.  1.
          6    1    1    2  501    0 -0.19889126176E+02  0.42716108945E+02  0.90531131701E+02  0.20086096960E+03  0.17300000000E+03 0.  1.
         -6    1    1    2    0  502  0.19889126176E+02 -0.42716108945E+02  0.86335135356E+02  0.19900502230E+03  0.17300000000E+03 0.  1.
<mgrwt>
<rscale>  2 0.17930210E+03</rscale>
<asrwt>0</asrwt>
<pdfrwt beam="1">  1       21 0.44364020E-01 0.17930210E+03</pdfrwt>
<pdfrwt beam="2">  1       21 0.17153825E-01 0.17930210E+03</pdfrwt>
<totfact> 0.15035774E+05</totfact>
</mgrwt>
</event>
<event>
 4    3  0.3906307E+000  0.1904878E+03  0.7546771E-02  0.1158022E+00
         21   -1    0    0  503  502  0.00000000000E+00  0.00000000000E+00  0.71052294924E+03  0.71052294924E+03  0.00000000000E+00 0.  1.
         21   -1    0    0  501  503 -0.00000000000E+00 -0.00000000000E+00 -0.21626996308E+03  0.21626996308E+03  0.00000000000E+00 0.  1.
          6    1    1    2  501    0  0.78501418818E+02  0.13932925288E+02 -0.15787914830E+03  0.24740942713E+03  0.17300000000E+03 0.  1.
         -6    1    1    2    0  502 -0.78501418818E+02 -0.13932925288E+02  0.65213213446E+03  0.67938348519E+03  0.17300000000E+03 0.  1.
<mgrwt>
<rscale>  2 0.19048779E+03</rscale>
<asrwt>0</asrwt>
<pdfrwt beam="1">  1       21 0.10931122E+00 0.19048779E+03</pdfrwt>
<pdfrwt beam="2">  1       21 0.33272302E-01 0.19048779E+03</pdfrwt>
<totfact> 0.57779509E+03</totfact>
</mgrwt>
</event>
<event>
 4    3  0.3906307E+000  0.2961333E+03  0.7546771E-02  0.1087190E+00
         21   -1    0    0  501  502  0.00000000000E+00  0.00000000000E+00  0.60481174488E+02  0.60481174488E+02  0.00000000000E+00 0.  1.
         21   -1    0    0  502  503 -0.00000000000E+00 -0.00000000000E+00 -0.14630760759E+04  0.14630760759E+04  0.00000000000E+00 0. -1.
          6    1    1    2  501    0  0.23864077666E+03  0.28574988105E+02 -0.77343951558E+03  0.82819299350E+03  0.17300000000E+03 0.  1.
         -6    1    1    2    0  503 -0.23864077666E+03 -0.28574988105E+02 -0.62915538583E+03  0.69536425688E+03  0.17300000000E+03 0. -1.
<mgrwt>
<rscale>  2 0.29613333E+03</rscale>
<asrwt>0</asrwt>
<pdfrwt beam="1">  1       21 0.93047973E-02 0.29613333E+03</pdfrwt>
<pdfrwt beam="2">  1       21 0.22508860E+00 0.29613333E+03</pdfrwt>
<totfact> 0.79842643E+03</totfact>
</mgrwt>
</event>
<event>
 4    3  0.3906307E+000  0.2160766E+03  0.7546771E-02  0.1136842E+00
         21   -1    0    0  503  502  0.00000000000E+00  0.00000000000E+00  0.66211661681E+03  0.66211661681E+03  0.00000000000E+00 0.  1.
         21   -1    0    0  501  503 -0.00000000000E+00 -0.00000000000E+00 -0.93845511731E+02  0.93845511731E+02  0.00000000000E+00 0.  1.
          6    1    1    2  501    0  0.79254795586E+02  0.10236580999E+03  0.47259869500E+03  0.51965239169E+03  0.17300000000E+03 0.  1.
         -6    1    1    2    0  502 -0.79254795586E+02 -0.10236580999E+03  0.95672410081E+02  0.23630973685E+03  0.17300000000E+03 0.  1.
<mgrwt>
<rscale>  2 0.21607656E+03</rscale>
<asrwt>0</asrwt>
<pdfrwt beam="1">  1       21 0.10186409E+00 0.21607656E+03</pdfrwt>
<pdfrwt beam="2">  1       21 0.14437771E-01 0.21607656E+03</pdfrwt>
<totfact> 0.32610651E+04</totfact>
</mgrwt>
</event>
<event>
 4    3  0.3906307E+000  0.1891688E+03  0.7546771E-02  0.1159213E+00
         21   -1    0    0  501  502  0.00000000000E+00  0.00000000000E+00  0.89679715866E+02  0.89679715866E+02  0.00000000000E+00 0. -1.
         21   -1    0    0  502  503 -0.00000000000E+00 -0.00000000000E+00 -0.62956956104E+03  0.62956956104E+03  0.00000000000E+00 0. -1.
          6    1    1    2  501    0 -0.52163888081E+02 -0.55989097361E+02 -0.52323923676E+02  0.19627186052E+03  0.17300000000E+03 0.  1.
         -6    1    1    2    0  503  0.52163888081E+02  0.55989097361E+02 -0.48756592149E+03  0.52297741638E+03  0.17300000000E+03 0.  1.
<mgrwt>
<rscale>  2 0.18916884E+03</rscale>
<asrwt>0</asrwt>
<pdfrwt beam="1">  1       21 0.13796880E-01 0.18916884E+03</pdfrwt>
<pdfrwt beam="2">  1       21 0.96856853E-01 0.18916884E+03</pdfrwt>
<totfact> 0.40489466E+04</totfact>
</mgrwt>
</event>
<event>
 4    3  0.3906307E+000  0.1940266E+03  0.7546771E-02  0.1154879E+00
         21   -1    0    0  503  502  0.00000000000E+00  0.00000000000E+00  0.22257224352E+03  0.22257224352E+03  0.00000000000E+00 0. -1.
         21   -1    0    0  501  503 -0.00000000000E+00 -0.00000000000E+00 -0.23722013839E+03  0.23722013839E+03  0.00000000000E+00 0.  1.
          6    1    1    2  501    0  0.16601758779E+02 -0.86265388519E+02 -0.13048106888E+03  0.23381968477E+03  0.17300000000E+03 0.  1.
         -6    1    1    2    0  502 -0.16601758779E+02  0.86265388519E+02  0.11583317401E+03  0.22597269714E+03  0.17300000000E+03 0. -1.
<mgrwt>
<rscale>  2 0.19402664E+03</rscale>
<asrwt>0</asrwt>
<pdfrwt beam="1">  1       21 0.34241884E-01 0.19402664E+03</pdfrwt>
<pdfrwt beam="2">  1       21 0.36495405E-01 0.19402664E+03</pdfrwt>
<totfact> 0.59473623E+04</totfact>
</mgrwt>
</event>
<event>
 4    3  0.3906307E+000  0.2047604E+03  0.7546771E-02  0.1145784E+00
         21   -1    0    0  501  502  0.00000000000E+00  0.00000000000E+00  0.29739175208E+02  0.29739175208E+02  0.00000000000E+00 0. -1.
         21   -1    0    0  502  503 -0.00000000000E+00 -0.00000000000E+00 -0.16665555657E+04  0.16665555657E+04  0.00000000000E+00 0.  1.
          6    1    1    2  501    0 -0.10255350724E+03  0.38478513924E+02 -0.48551392591E+03  0.52692560209E+03  0.17300000000E+03 0. -1.
         -6    1    1    2    0  503  0.10255350724E+03 -0.38478513924E+02 -0.11513024646E+04  0.11693691388E+04  0.17300000000E+03 0.  1.
<mgrwt>
<rscale>  2 0.20476039E+03</rscale>
<asrwt>0</asrwt>
<pdfrwt beam="1">  1       21 0.45752564E-02 0.20476039E+03</pdfrwt>
<pdfrwt beam="2">  1       21 0.25639324E+00 0.20476039E+03</pdfrwt>
<totfact> 0.18863079E+04</totfact>
</mgrwt>
</event>
<event>
 4    3  0.3906307E+000  0.1806673E+03  0.7546771E-02  0.1167159E+00
         21   -1    0    0  503  502  0.00000000000E+00  0.00000000000E+00  0.31103861717E+02  0.31103861717E+02  0.00000000000E+00 0. -1.
         21   -1    0    0  501  503 -0.00000000000E+00 -0.00000000000E+00 -0.24752470207E+04  0.24752470207E+04  0.00000000000E+00 0. -1.
          6    1    1    2  501    0 -0.40334744941E+02 -0.32935818110E+02 -0.21731969355E+04  0.21806938300E+04  0.17300000000E+03 0. -1.
         -6    1    1    2    0  502  0.40334744941E+02  0.32935818110E+02 -0.27094622348E+03  0.32565705240E+03  0.17300000000E+03 0. -1.
<mgrwt>
<rscale>  2 0.18066726E+03</rscale>
<asrwt>0</asrwt>
<pdfrwt beam="1">  1       21 0.47852094E-02 0.18066726E+03</pdfrwt>
<pdfrwt beam="2">  1       21 0.38080724E+00 0.18066726E+03</pdfrwt>
<totfact> 0.33705164E+03</totfact>
</mgrwt>
</event>
<event>
 4    3  0.3906307E+000  0.1846973E+03  0.7546771E-02  0.1163333E+00
         21   -1    0    0  501  502  0.00000000000E+00  0.00000000000E+00  0.40842745005E+02  0.40842745005E+02  0.00000000000E+00 0.  1.
         21   -1    0    0  502  503 -0.00000000000E+00 -0.00000000000E+00 -0.83564797344E+03  0.83564797344E+03  0.00000000000E+00 0.  1.
          6    1    1    2  501    0  0.56424880226E+02 -0.31627756387E+02 -0.40720492962E+03  0.44713413736E+03  0.17300000000E+03 0.  1.
         -6    1    1    2    0  503 -0.56424880226E+02  0.31627756387E+02 -0.38760029882E+03  0.42935658109E+03  0.17300000000E+03 0.  1.
<mgrwt>
<rscale>  2 0.18469727E+03</rscale>
<asrwt>0</asrwt>
<pdfrwt beam="1">  1       21 0.62834989E-02 0.18469727E+03</pdfrwt>
<pdfrwt beam="2">  1       21 0.12856123E+00 0.18469727E+03</pdfrwt>
<totfact> 0.81287544E+04</totfact>
</mgrwt>
</event>
<event>
 4    3  0.3906307E+000  0.3007979E+03  0.7546771E-02  0.1084842E+00
         21   -1    0    0  501  502  0.00000000000E+00  0.00000000000E+00  0.10034026496E+04  0.10034026496E+04  0.00000000000E+00 0.  1.
         21   -1    0    0  502  503 -0.00000000000E+00 -0.00000000000E+00 -0.28638086903E+03  0.28638086903E+03  0.00000000000E+00 0. -1.
          6    1    1    2  501    0 -0.54084131364E+02 -0.24005261927E+03  0.89230473216E+03  0.94164063651E+03  0.17300000000E+03 0.  1.
         -6    1    1    2    0  503  0.54084131364E+02  0.24005261927E+03 -0.17528295157E+03  0.34814288216E+03  0.17300000000E+03 0. -1.
<mgrwt>
<rscale>  2 0.30079786E+03</rscale>
<asrwt>0</asrwt>
<pdfrwt beam="1">  1       21 0.15436964E+00 0.30079786E+03</pdfrwt>
<pdfrwt beam="2">  1       21 0.44058596E-01 0.30079786E+03</pdfrwt>
<totfact> 0.12546916E+03</totfact>
</mgrwt>
</event>
<event>
 4    3  0.3906307E+000  0.1932591E+03  0.7546771E-02  0.1155554E+00
         21   -1    0    0  501  502  0.00000000000E+00  0.00000000000E+00  0.14779137590E+03  0.14779137590E+03  0.00000000000E+00 0. -1.
         21   -1    0    0  502  503 -0.00000000000E+00 -0.00000000000E+00 -0.36396369353E+03  0.36396369353E+03  0.00000000000E+00 0. -1.
          6    1    1    2  501    0 -0.85540092946E+02  0.10147437263E+02  0.33379440647E+02  0.19612053702E+03  0.17300000000E+03 0. -1.
         -6    1    1    2    0  503  0.85540092946E+02 -0.10147437263E+02 -0.24955175828E+03  0.31563453240E+03  0.17300000000E+03 0. -1.
<mgrwt>
<rscale>  2 0.19325910E+03</rscale>
<asrwt>0</asrwt>
<pdfrwt beam="1">  1       21 0.22737135E-01 0.19325910E+03</pdfrwt>
<pdfrwt beam="2">  1       21 0.55994414E-01 0.19325910E+03</pdfrwt>
<totfact> 0.54458574E+04</totfact>
</mgrwt>
</event>
<event>
 4    3  0.3906307E+000  0.2241055E+03  0.7546771E-02  0.1130859E+00
         21   -1    0    0  501  502  0.00000000000E+00  0.00000000000E+00  0.53814486997E+02  0.53814486997E+02  0.00000000000E+00 0. -1.
         21   -1    0    0  502  503 -0.00000000000E+00 -0.00000000000E+00 -0.93707733429E+03  0.93707733429E+03  0.00000000000E+00 0. -1.
          6    1    1    2  501    0 -0.12272179689E+03  0.72344012397E+02 -0.47322353935E+03  0.52360654480E+03  0.17300000000E+03 0. -1.
         -6    1    1    2    0  503  0.12272179689E+03 -0.72344012397E+02 -0.41003930794E+03  0.46728527649E+03  0.17300000000E+03 0. -1.
<mgrwt>
<rscale>  2 0.22410555E+03</rscale>
<asrwt>0</asrwt>
<pdfrwt beam="1">  1       21 0.82791525E-02 0.22410555E+03</pdfrwt>
<pdfrwt beam="2">  1       21 0.14416573E+00 0.22410555E+03</pdfrwt>
<totfact> 0.36816283E+04</totfact>
</mgrwt>
</event>
<event>
 4    3  0.3906307E+000  0.1776661E+03  0.7546771E-02  0.1170081E+00
         21   -1    0    0  501  502  0.00000000000E+00  0.00000000000E+00  0.25756898511E+03  0.25756898511E+03  0.00000000000E+00 0. -1.
         21   -1    0    0  502  503 -0.00000000000E+00 -0.00000000000E+00 -0.31741477327E+03  0.31741477327E+03  0.00000000000E+00 0. -1.
          6    1    1    2  501    0 -0.69172379095E+01 -0.39854814028E+02  0.19533391288E+03  0.26404657146E+03  0.17300000000E+03 0. -1.
         -6    1    1    2    0  503  0.69172379095E+01  0.39854814028E+02 -0.25517970104E+03  0.31093718691E+03  0.17300000000E+03 0. -1.
<mgrwt>
<rscale>  2 0.17766613E+03</rscale>
<asrwt>0</asrwt>
<pdfrwt beam="1">  1       21 0.39625998E-01 0.17766613E+03</pdfrwt>
<pdfrwt beam="2">  1       21 0.48833042E-01 0.17766613E+03</pdfrwt>
<totfact> 0.24780847E+04</totfact>
</mgrwt>
</event>
<event>
 4    3  0.3906307E+000  0.2311699E+03  0.7546771E-02  0.1125819E+00
         21   -1    0    0  501  502  0.00000000000E+00  0.00000000000E+00  0.22987559960E+03  0.22987559960E+03  0.00000000000E+00 0.  1.
         21   -1    0    0  502  503 -0.00000000000E+00 -0.00000000000E+00 -0.79395954170E+03  0.79395954170E+03  0.00000000000E+00 0.  1.
          6    1    1    2  501    0  0.11605898298E+03  0.10020389847E+03  0.14845602450E+03  0.27473387124E+03  0.17300000000E+03 0.  1.
         -6    1    1    2    0  503 -0.11605898298E+03 -0.10020389847E+03 -0.71253996660E+03  0.74910127006E+03  0.17300000000E+03 0.  1.
<mgrwt>
<rscale>  2 0.23116987E+03</rscale>
<asrwt>0</asrwt>
<pdfrwt beam="1">  1       21 0.35365477E-01 0.23116987E+03</pdfrwt>
<pdfrwt beam="2">  1       21 0.12214762E+00 0.23116987E+03</pdfrwt>
<totfact> 0.37779543E+03</totfact>
</mgrwt>
</event>
<event>
 4    3  0.3906307E+000  0.2376596E+03  0.7546771E-02  0.1121362E+00
         21   -1    0    0  501  502  0.00000000000E+00  0.00000000000E+00  0.27436923721E+03  0.27436923721E+03  0.00000000000E+00 0. -1.
         21   -1    0    0  502  503 -0.00000000000E+00 -0.00000000000E+00 -0.49416583688E+03  0.49416583688E+03  0.00000000000E+00 0. -1.
          6    1    1    2  501    0 -0.15067471974E+03  0.62050053444E+02  0.18361168313E+03  0.30032537436E+03  0.17300000000E+03 0. -1.
         -6    1    1    2    0  503  0.15067471974E+03 -0.62050053444E+02 -0.40340828279E+03  0.46820969973E+03  0.17300000000E+03 0. -1.
<mgrwt>
<rscale>  2 0.23765959E+03</rscale>
<asrwt>0</asrwt>
<pdfrwt beam="1">  1       21 0.42210652E-01 0.23765959E+03</pdfrwt>
<pdfrwt beam="2">  1       21 0.76025513E-01 0.23765959E+03</pdfrwt>
<totfact> 0.80833504E+03</totfact>
</mgrwt>
</event>
<event>
 4    3  0.3906307E+000  0.1904437E+03  0.7546771E-02  0.1158062E+00
         21   -1    0    0  503  502  0.00000000000E+00  0.00000000000E+00  0.24537290531E+02  0.24537290531E+02  0.00000000000E+00 0.  1.
         21   -1    0    0  501  503 -0.00000000000E+00 -0.00000000000E+00 -0.17898713293E+04  0.17898713293E+04  0.00000000000E+00 0.  1.
          6    1    1    2  501    0 -0.65491243416E+02  0.45284469796E+02 -0.12612892639E+04  0.12755859020E+04  0.17300000000E+03 0.  1.
         -6    1    1    2    0  502  0.65491243416E+02 -0.45284469796E+02 -0.50404477484E+03  0.53882271780E+03  0.17300000000E+03 0.  1.
<mgrwt>
<rscale>  2 0.19044366E+03</rscale>
<asrwt>0</asrwt>
<pdfrwt beam="1">  1       21 0.37749682E-02 0.19044366E+03</pdfrwt>
<pdfrwt beam="2">  1       21 0.27536479E+00 0.19044366E+03</pdfrwt>
<totfact> 0.20475933E+04</totfact>
</mgrwt>
</event>
<event>
 4    3  0.3906307E+000  0.1733157E+03  0.7546771E-02  0.1174434E+00
         21   -1    0    0  503  502  0.00000000000E+00  0.00000000000E+00  0.10206494281E+03  0.10206494281E+03  0.00000000000E+00 0.  1.
         21   -1    0    0  501  503 -0.00000000000E+00 -0.00000000000E+00 -0.32201401662E+03  0.32201401662E+03  0.00000000000E+00 0.  1.
          6    1    1    2  501    0 -0.73993642314E+01  0.73889017555E+01 -0.17217310953E+03  0.24429884589E+03  0.17300000000E+03 0.  1.
         -6    1    1    2    0  502  0.73993642314E+01 -0.73889017555E+01 -0.47775964285E+02  0.17978011354E+03  0.17300000000E+03 0.  1.
<mgrwt>
<rscale>  2 0.17331574E+03</rscale>
<asrwt>0</asrwt>
<pdfrwt beam="1">  1       21 0.15702299E-01 0.17331574E+03</pdfrwt>
<pdfrwt beam="2">  1       21 0.49540616E-01 0.17331574E+03</pdfrwt>
<totfact> 0.14109503E+05</totfact>
</mgrwt>
</event>
<event>
 4    3  0.3906307E+000  0.2308396E+03  0.7546771E-02  0.1126050E+00
         21   -1    0    0  501  502  0.00000000000E+00  0.00000000000E+00  0.17780122801E+03  0.17780122801E+03  0.00000000000E+00 0.  1.
         21   -1    0    0  502  503 -0.00000000000E+00 -0.00000000000E+00 -0.48392822354E+03  0.48392822354E+03  0.00000000000E+00 0. -1.
          6    1    1    2  501    0  0.17510864716E+02 -0.15182650309E+03  0.51081530751E+02  0.23642385710E+03  0.17300000000E+03 0.  1.
         -6    1    1    2    0  503 -0.17510864716E+02  0.15182650309E+03 -0.35720852628E+03  0.42530559445E+03  0.17300000000E+03 0. -1.
<mgrwt>
<rscale>  2 0.23083959E+03</rscale>
<asrwt>0</asrwt>
<pdfrwt beam="1">  1       21 0.27354035E-01 0.23083959E+03</pdfrwt>
<pdfrwt beam="2">  1       21 0.74450496E-01 0.23083959E+03</pdfrwt>
<totfact> 0.20152660E+04</totfact>
</mgrwt>
</event>
<event>
 4    3  0.3906307E+000  0.1954683E+03  0.7546771E-02  0.1153620E+00
         21   -1    0    0  501  502  0.00000000000E+00  0.00000000000E+00  0.98514343437E+02  0.98514343437E+02  0.00000000000E+00 0. -1.
         21   -1    0    0  502  503 -0.00000000000E+00 -0.00000000000E+00 -0.42961247146E+03  0.42961247146E+03  0.00000000000E+00 0. -1.
          6    1    1    2  501    0 -0.88126324678E+02  0.22640425830E+02 -0.83208654934E+02  0.21244179965E+03  0.17300000000E+03 0. -1.
         -6    1    1    2    0  503  0.88126324678E+02 -0.22640425830E+02 -0.24788947309E+03  0.31568501525E+03  0.17300000000E+03 0. -1.
<mgrwt>
<rscale>  2 0.19546825E+03</rscale>
<asrwt>0</asrwt>
<pdfrwt beam="1">  1       21 0.15156053E-01 0.19546825E+03</pdfrwt>
<pdfrwt beam="2">  1       21 0.66094226E-01 0.19546825E+03</pdfrwt>
<totfact> 0.80806890E+04</totfact>
</mgrwt>
</event>
<event>
 4    3  0.3906307E+000  0.2027728E+03  0.7546771E-02  0.1147420E+00
         21   -1    0    0  503  502  0.00000000000E+00  0.00000000000E+00  0.61378244510E+02  0.61378244510E+02  0.00000000000E+00 0. -1.
         21   -1    0    0  501  503 -0.00000000000E+00 -0.00000000000E+00 -0.12050432754E+04  0.12050432754E+04  0.00000000000E+00 0.  1.
          6    1    1    2  501    0  0.69329846371E+02 -0.79882310917E+02 -0.99380597790E+03  0.10142815846E+04  0.17300000000E+03 0.  1.
         -6    1    1    2    0  502 -0.69329846371E+02  0.79882310917E+02 -0.14985905295E+03  0.25213993525E+03  0.17300000000E+03 0. -1.
<mgrwt>
<rscale>  2 0.20277281E+03</rscale>
<asrwt>0</asrwt>
<pdfrwt beam="1">  1       21 0.94428071E-02 0.20277281E+03</pdfrwt>
<pdfrwt beam="2">  1       21 0.18539127E+00 0.20277281E+03</pdfrwt>
<totfact> 0.14908268E+04</totfact>
</mgrwt>
</event>
<event>
 4    3  0.3906307E+000  0.1963034E+03  0.7546771E-02  0.1152896E+00
         21   -1    0    0  503  502  0.00000000000E+00  0.00000000000E+00  0.18529006276E+03  0.18529006276E+03  0.00000000000E+00 0. -1.
         21   -1    0    0  501  503 -0.00000000000E+00 -0.00000000000E+00 -0.28173759847E+03  0.28173759847E+03  0.00000000000E+00 0. -1.
          6    1    1    2  501    0 -0.90838749660E+02  0.18824167970E+02 -0.16771031216E+03  0.25818941989E+03  0.17300000000E+03 0. -1.
         -6    1    1    2    0  502  0.90838749660E+02 -0.18824167970E+02  0.71262776450E+02  0.20883824134E+03  0.17300000000E+03 0. -1.
<mgrwt>
<rscale>  2 0.19630341E+03</rscale>
<asrwt>0</asrwt>
<pdfrwt beam="1">  1       21 0.28506164E-01 0.19630341E+03</pdfrwt>
<pdfrwt beam="2">  1       21 0.43344246E-01 0.19630341E+03</pdfrwt>
<totfact> 0.60115702E+04</totfact>
</mgrwt>
</event>
<event>
 4    3  0.3906307E+000  0.3113039E+03  0.7546771E-02  0.1079723E+00
         21   -1    0    0  503  502  0.00000000000E+00  0.00000000000E+00  0.53351486095E+03  0.53351486095E+03  0.00000000000E+00 0.  1.
         21   -1    0    0  501  503 -0.00000000000E+00 -0.00000000000E+00 -0.19808672297E+03  0.19808672297E+03  0.00000000000E+00 0. -1.
          6    1    1    2  501    0 -0.18024171914E+03  0.18572572659E+03  0.62325094694E+02  0.31748155894E+03  0.17300000000E+03 0. -1.
         -6    1    1    2    0  502  0.18024171914E+03 -0.18572572659E+03  0.27310304329E+03  0.41412002498E+03  0.17300000000E+03 0.  1.
<mgrwt>
<rscale>  2 0.31130391E+03</rscale>
<asrwt>0</asrwt>
<pdfrwt beam="1">  1       21 0.82079208E-01 0.31130391E+03</pdfrwt>
<pdfrwt beam="2">  1       21 0.30474881E-01 0.31130391E+03</pdfrwt>
<totfact> 0.12588314E+04</totfact>
</mgrwt>
</event>
<event>
 4    3  0.3906307E+000  0.1931892E+03  0.7546771E-02  0.1155616E+00
         21   -1    0    0  501  502  0.00000000000E+00  0.00000000000E+00  0.14170596000E+04  0.14170596000E+04  0.00000000000E+00 0.  1.
         21   -1    0    0  502  503 -0.00000000000E+00 -0.00000000000E+00 -0.18745572361E+03  0.18745572361E+03  0.00000000000E+00 0. -1.
          6    1    1    2  501    0  0.87690485712E+01  0.85534641026E+02  0.13585684192E+04  0.13722354830E+04  0.17300000000E+03 0.  1.
         -6    1    1    2    0  503 -0.87690485712E+01 -0.85534641026E+02 -0.12896454288E+03  0.23227984060E+03  0.17300000000E+03 0. -1.
<mgrwt>
<rscale>  2 0.19318921E+03</rscale>
<asrwt>0</asrwt>
<pdfrwt beam="1">  1       21 0.21800916E+00 0.19318921E+03</pdfrwt>
<pdfrwt beam="2">  1       21 0.28839343E-01 0.19318921E+03</pdfrwt>
<totfact> 0.11898731E+03</totfact>
</mgrwt>
</event>
<event>
 4    3  0.3906307E+000  0.2662302E+03  0.7546771E-02  0.1103457E+00
         21   -1    0    0  503  502  0.00000000000E+00  0.00000000000E+00  0.11711466937E+03  0.11711466937E+03  0.00000000000E+00 0.  1.
         21   -1    0    0  501  503 -0.00000000000E+00 -0.00000000000E+00 -0.69712717222E+03  0.69712717222E+03  0.00000000000E+00 0. -1.
          6    1    1    2  501    0 -0.78878768716E+02  0.18635355903E+03 -0.14217201595E+03  0.30181350407E+03  0.17300000000E+03 0.  1.
         -6    1    1    2    0  502  0.78878768716E+02 -0.18635355903E+03 -0.43784048690E+03  0.51242833752E+03  0.17300000000E+03 0. -1.
<mgrwt>
<rscale>  2 0.26623018E+03</rscale>
<asrwt>0</asrwt>
<pdfrwt beam="1">  1       21 0.18017641E-01 0.26623018E+03</pdfrwt>
<pdfrwt beam="2">  1       21 0.10725034E+00 0.26623018E+03</pdfrwt>
<totfact> 0.18675774E+04</totfact>
</mgrwt>
</event>
<event>
 4    3  0.3906307E+000  0.2037794E+03  0.7546771E-02  0.1146589E+00
         21   -1    0    0  503  502  0.00000000000E+00  0.00000000000E+00  0.59781182830E+02  0.59781182830E+02  0.00000000000E+00 0. -1.
         21   -1    0    0  501  503 -0.00000000000E+00 -0.00000000000E+00 -0.70437167908E+03  0.70437167908E+03  0.00000000000E+00 0. -1.
          6    1    1    2  501    0  0.10752801909E+03 -0.58967793237E+01 -0.27737157428E+03  0.34418169201E+03  0.17300000000E+03 0. -1.
         -6    1    1    2    0  502 -0.10752801909E+03  0.58967793237E+01 -0.36721892197E+03  0.41997116990E+03  0.17300000000E+03 0. -1.
<mgrwt>
<rscale>  2 0.20377941E+03</rscale>
<asrwt>0</asrwt>
<pdfrwt beam="1">  1       21 0.91971051E-02 0.20377941E+03</pdfrwt>
<pdfrwt beam="2">  1       21 0.10836487E+00 0.20377941E+03</pdfrwt>
<totfact> 0.63331648E+04</totfact>
</mgrwt>
</event>
<event>
 4    3  0.3906307E+000  0.1938336E+03  0.7546771E-02  0.1155048E+00
         21   -1    0    0  501  502  0.00000000000E+00  0.00000000000E+00  0.41503919650E+02  0.41503919650E+02  0.00000000000E+00 0. -1.
         21   -1    0    0  502  503 -0.00000000000E+00 -0.00000000000E+00 -0.90638456479E+03  0.90638456479E+03  0.00000000000E+00 0. -1.
          6    1    1    2  501    0  0.58503847038E+02  0.64959628013E+02 -0.44920312701E+03  0.48923910586E+03  0.17300000000E+03 0. -1.
         -6    1    1    2    0  503 -0.58503847038E+02 -0.64959628013E+02 -0.41567751813E+03  0.45864937858E+03  0.17300000000E+03 0. -1.
<mgrwt>
<rscale>  2 0.19383357E+03</rscale>
<asrwt>0</asrwt>
<pdfrwt beam="1">  1       21 0.63852184E-02 0.19383357E+03</pdfrwt>
<pdfrwt beam="2">  1       21 0.13944378E+00 0.19383357E+03</pdfrwt>
<totfact> 0.64033350E+04</totfact>
</mgrwt>
</event>
<event>
 4    3  0.3906307E+000  0.1807532E+03  0.7546771E-02  0.1167076E+00
         21   -1    0    0  503  502  0.00000000000E+00  0.00000000000E+00  0.33637774461E+02  0.33637774461E+02  0.00000000000E+00 0.  1.
         21   -1    0    0  501  503 -0.00000000000E+00 -0.00000000000E+00 -0.97148837843E+03  0.97148837843E+03  0.00000000000E+00 0.  1.
          6    1    1    2  501    0 -0.39094431426E+02  0.34847417076E+02 -0.47627541877E+03  0.50942123195E+03  0.17300000000E+03 0.  1.
         -6    1    1    2    0  502  0.39094431426E+02 -0.34847417076E+02 -0.46157518520E+03  0.49570492093E+03  0.17300000000E+03 0.  1.
<mgrwt>
<rscale>  2 0.18075319E+03</rscale>
<asrwt>0</asrwt>
<pdfrwt beam="1">  1       21 0.51750422E-02 0.18075319E+03</pdfrwt>
<pdfrwt beam="2">  1       21 0.14945975E+00 0.18075319E+03</pdfrwt>
<totfact> 0.77028283E+04</totfact>
</mgrwt>
</event>
<event>
 4    3  0.3906307E+000  0.1843262E+03  0.7546771E-02  0.1163681E+00
         21   -1    0    0  501  502  0.00000000000E+00  0.00000000000E+00  0.36143691248E+02  0.36143691248E+02  0.00000000000E+00 0.  1.
         21   -1    0    0  502  503 -0.00000000000E+00 -0.00000000000E+00 -0.10922840009E+04  0.10922840009E+04  0.00000000000E+00 0.  1.
          6    1    1    2  501    0  0.62194966592E+02  0.13377204141E+02 -0.73871941603E+03  0.76136885876E+03  0.17300000000E+03 0.  1.
         -6    1    1    2    0  503 -0.62194966592E+02 -0.13377204141E+02 -0.31742089357E+03  0.36705883334E+03  0.17300000000E+03 0.  1.
<mgrwt>
<rscale>  2 0.18432624E+03</rscale>
<asrwt>0</asrwt>
<pdfrwt beam="1">  1       21 0.55605678E-02 0.18432624E+03</pdfrwt>
<pdfrwt beam="2">  1       21 0.16804370E+00 0.18432624E+03</pdfrwt>
<totfact> 0.49702164E+04</totfact>
</mgrwt>
</event>
<event>
 4    3  0.3906307E+000  0.1848435E+03  0.7546771E-02  0.1163196E+00
         21   -1    0    0  503  502  0.00000000000E+00  0.00000000000E+00  0.10744512289E+03  0.10744512289E+03  0.00000000000E+00 0. -1.
         21   -1    0    0  501  503 -0.00000000000E+00 -0.00000000000E+00 -0.34204783926E+03  0.34204783926E+03  0.00000000000E+00 0. -1.
          6    1    1    2  501    0 -0.16299461302E+02 -0.63027360851E+02 -0.17689823587E+03  0.25585172758E+03  0.17300000000E+03 0. -1.
         -6    1    1    2    0  502  0.16299461302E+02  0.63027360851E+02 -0.57704480503E+02  0.19364123457E+03  0.17300000000E+03 0. -1.
<mgrwt>
<rscale>  2 0.18484350E+03</rscale>
<asrwt>0</asrwt>
<pdfrwt beam="1">  1       21 0.16530019E-01 0.18484350E+03</pdfrwt>
<pdfrwt beam="2">  1       21 0.52622745E-01 0.18484350E+03</pdfrwt>
<totfact> 0.11277538E+05</totfact>
</mgrwt>
</event>
<event>
 4    3  0.3906307E+000  0.2208391E+03  0.7546771E-02  0.1133259E+00
         21   -1    0    0  501  502  0.00000000000E+00  0.00000000000E+00  0.54079383694E+03  0.54079383694E+03  0.00000000000E+00 0.  1.
         21   -1    0    0  502  503 -0.00000000000E+00 -0.00000000000E+00 -0.18663595112E+03  0.18663595112E+03  0.00000000000E+00 0.  1.
          6    1    1    2  501    0 -0.61339199040E+02 -0.12279411798E+03  0.43854983543E+03  0.49101512289E+03  0.17300000000E+03 0.  1.
         -6    1    1    2    0  503  0.61339199040E+02  0.12279411798E+03 -0.84391949601E+02  0.23641466517E+03  0.17300000000E+03 0.  1.
<mgrwt>
<rscale>  2 0.22083907E+03</rscale>
<asrwt>0</asrwt>
<pdfrwt beam="1">  1       21 0.83199051E-01 0.22083907E+03</pdfrwt>
<pdfrwt beam="2">  1       21 0.28713223E-01 0.22083907E+03</pdfrwt>
<totfact> 0.14344738E+04</totfact>
</mgrwt>
</event>
<event>
 4    3  0.3906307E+000  0.2400273E+03  0.7546771E-02  0.1119775E+00
         21   -1    0    0  501  502  0.00000000000E+00  0.00000000000E+00  0.84860200018E+03  0.84860200018E+03  0.00000000000E+00 0.  1.
         21   -1    0    0  502  503 -0.00000000000E+00 -0.00000000000E+00 -0.12183586744E+03  0.12183586744E+03  0.00000000000E+00 0.  1.
          6    1    1    2  501    0 -0.16530223231E+03 -0.18954495045E+02  0.68624889438E+03  0.72701488701E+03  0.17300000000E+03 0.  1.
         -6    1    1    2    0  503  0.16530223231E+03  0.18954495045E+02  0.40517238360E+02  0.24342298062E+03  0.17300000000E+03 0.  1.
<mgrwt>
<rscale>  2 0.24002729E+03</rscale>
<asrwt>0</asrwt>
<pdfrwt beam="1">  1       21 0.13055415E+00 0.24002729E+03</pdfrwt>
<pdfrwt beam="2">  1       21 0.18743980E-01 0.24002729E+03</pdfrwt>
<totfact> 0.10790848E+04</totfact>
</mgrwt>
</event>
<event>
 4    3  0.3906307E+000  0.1807165E+03  0.7546771E-02  0.1167111E+00
         21   -1    0    0  503  502  0.00000000000E+00  0.00000000000E+00  0.40529407852E+02  0.40529407852E+02  0.00000000000E+00 0.  1.
         21   -1    0    0  501  503 -0.00000000000E+00 -0.00000000000E+00 -0.13693976742E+04  0.13693976742E+04  0.00000000000E+00 0.  1.
          6    1    1    2  501    0  0.42572072024E+02  0.30282948431E+02 -0.11166939135E+04  0.11312222305E+04  0.17300000000E+03 0.  1.
         -6    1    1    2    0  502 -0.42572072024E+02 -0.30282948431E+02 -0.21217435284E+03  0.27870485156E+03  0.17300000000E+03 0.  1.
<mgrwt>
<rscale>  2 0.18071646E+03</rscale>
<asrwt>0</asrwt>
<pdfrwt beam="1">  1       21 0.62352948E-02 0.18071646E+03</pdfrwt>
<pdfrwt beam="2">  1       21 0.21067652E+00 0.18071646E+03</pdfrwt>
<totfact> 0.21413395E+04</totfact>
</mgrwt>
</event>
<event>
 4    3  0.3906307E+000  0.2283144E+03  0.7546771E-02  0.1127832E+00
         21   -1    0    0  503  502  0.00000000000E+00  0.00000000000E+00  0.94653691296E+02  0.94653691296E+02  0.00000000000E+00 0. -1.
         21   -1    0    0  501  503 -0.00000000000E+00 -0.00000000000E+00 -0.21657613312E+04  0.21657613312E+04  0.00000000000E+00 0.  1.
          6    1    1    2  501    0  0.13612640548E+03 -0.60564451289E+02 -0.20115430799E+04  0.20244586964E+04  0.17300000000E+03 0.  1.
         -6    1    1    2    0  502 -0.13612640548E+03  0.60564451289E+02 -0.59564560010E+02  0.23595632613E+03  0.17300000000E+03 0. -1.
<mgrwt>
<rscale>  2 0.22831437E+03</rscale>
<asrwt>0</asrwt>
<pdfrwt beam="1">  1       21 0.14562107E-01 0.22831437E+03</pdfrwt>
<pdfrwt beam="2">  1       21 0.33319403E+00 0.22831437E+03</pdfrwt>
<totfact> 0.86600688E+02</totfact>
</mgrwt>
</event>
<event>
 4    3  0.3906307E+000  0.1927354E+03  0.7546771E-02  0.1156017E+00
         21   -1    0    0  501  502  0.00000000000E+00  0.00000000000E+00  0.25756305398E+03  0.25756305398E+03  0.00000000000E+00 0. -1.
         21   -1    0    0  502  503 -0.00000000000E+00 -0.00000000000E+00 -0.10355040166E+04  0.10355040166E+04  0.00000000000E+00 0. -1.
          6    1    1    2  501    0  0.74791884682E+01 -0.84628609498E+02  0.21085110383E+03  0.28566611243E+03  0.17300000000E+03 0. -1.
         -6    1    1    2    0  503 -0.74791884682E+01  0.84628609498E+02 -0.98879206649E+03  0.10074009582E+04  0.17300000000E+03 0. -1.
<mgrwt>
<rscale>  2 0.19273541E+03</rscale>
<asrwt>0</asrwt>
<pdfrwt beam="1">  1       21 0.39625085E-01 0.19273541E+03</pdfrwt>
<pdfrwt beam="2">  1       21 0.15930831E+00 0.19273541E+03</pdfrwt>
<totfact> 0.15632958E+03</totfact>
</mgrwt>
</event>
<event>
 4    3  0.3906307E+000  0.1849464E+03  0.7546771E-02  0.1163100E+00
         21   -1    0    0  501  502  0.00000000000E+00  0.00000000000E+00  0.24424495359E+03  0.24424495359E+03  0.00000000000E+00 0.  1.
         21   -1    0    0  502  503 -0.00000000000E+00 -0.00000000000E+00 -0.11671201990E+04  0.11671201990E+04  0.00000000000E+00 0. -1.
          6    1    1    2  501    0  0.52093739029E+02 -0.39527205784E+02  0.20055451721E+03  0.27281362139E+03  0.17300000000E+03 0.  1.
         -6    1    1    2    0  503 -0.52093739029E+02  0.39527205784E+02 -0.11234297626E+04  0.11385515312E+04  0.17300000000E+03 0. -1.
<mgrwt>
<rscale>  2 0.18494636E+03</rscale>
<asrwt>0</asrwt>
<pdfrwt beam="1">  1       21 0.37576147E-01 0.18494636E+03</pdfrwt>
<pdfrwt beam="2">  1       21 0.17955695E+00 0.18494636E+03</pdfrwt>
<totfact> 0.12620214E+03</totfact>
</mgrwt>
</event>
<event>
 4    3  0.3906307E+000  0.2022968E+03  0.7546771E-02  0.1147816E+00
         21   -1    0    0  501  502  0.00000000000E+00  0.00000000000E+00  0.42533165669E+03  0.42533165669E+03  0.00000000000E+00 0. -1.
         21   -1    0    0  502  503 -0.00000000000E+00 -0.00000000000E+00 -0.13008148411E+03  0.13008148411E+03  0.00000000000E+00 0. -1.
          6    1    1    2  501    0 -0.87745410270E+02 -0.57408476761E+02  0.28931953743E+03  0.35302943924E+03  0.17300000000E+03 0. -1.
         -6    1    1    2    0  503  0.87745410270E+02  0.57408476761E+02  0.59306351477E+01  0.20238370157E+03  0.17300000000E+03 0. -1.
<mgrwt>
<rscale>  2 0.20229679E+03</rscale>
<asrwt>0</asrwt>
<pdfrwt beam="1">  1       21 0.65435639E-01 0.20229679E+03</pdfrwt>
<pdfrwt beam="2">  1       21 0.20012536E-01 0.20229679E+03</pdfrwt>
<totfact> 0.49288914E+04</totfact>
</mgrwt>
</event>
<event>
 4    3  0.3906307E+000  0.1784175E+03  0.7546771E-02  0.1169343E+00
         21   -1    0    0  501  502  0.00000000000E+00  0.00000000000E+00  0.37495782217E+04  0.37495782217E+04  0.00000000000E+00 0.  1.
         21   -1    0    0  502  503 -0.00000000000E+00 -0.00000000000E+00 -0.15312210212E+02  0.15312210212E+02  0.00000000000E+00 0.  1.
          6    1    1    2  501    0 -0.34572671762E+02 -0.26618244664E+02  0.61059552385E+03  0.63612867749E+03  0.17300000000E+03 0.  1.
         -6    1    1    2    0  503  0.34572671762E+02  0.26618244664E+02  0.31236704876E+04  0.31287617544E+04  0.17300000000E+03 0.  1.
<mgrwt>
<rscale>  2 0.17841749E+03</rscale>
<asrwt>0</asrwt>
<pdfrwt beam="1">  1       21 0.57685746E+00 0.17841749E+03</pdfrwt>
<pdfrwt beam="2">  1       21 0.23557276E-02 0.17841749E+03</pdfrwt>
<totfact> 0.49708538E+02</totfact>
</mgrwt>
</event>
<event>
 4    3  0.3906307E+000  0.2514872E+03  0.7546771E-02  0.1112369E+00
         21   -1    0    0  503  502  0.00000000000E+00  0.00000000000E+00  0.29451704602E+02  0.29451704602E+02  0.00000000000E+00 0.  1.
         21   -1    0    0  501  503 -0.00000000000E+00 -0.00000000000E+00 -0.24598543240E+04  0.24598543240E+04  0.00000000000E+00 0.  1.
          6    1    1    2  501    0 -0.12942537892E+03 -0.12870846311E+03 -0.16587674570E+04  0.16777232411E+04  0.17300000000E+03 0.  1.
         -6    1    1    2    0  502  0.12942537892E+03  0.12870846311E+03 -0.77163516238E+03  0.81158278753E+03  0.17300000000E+03 0.  1.
<mgrwt>
<rscale>  2 0.25148717E+03</rscale>
<asrwt>0</asrwt>
<pdfrwt beam="1">  1       21 0.45310293E-02 0.25148717E+03</pdfrwt>
<pdfrwt beam="2">  1       21 0.37843931E+00 0.25148717E+03</pdfrwt>
<totfact> 0.35009862E+03</totfact>
</mgrwt>
</event>
<event>
 4    3  0.3906307E+000  0.2464601E+03  0.7546771E-02  0.1115563E+00
         21   -1    0    0  503  502  0.00000000000E+00  0.00000000000E+00  0.40105637610E+03  0.40105637610E+03  0.00000000000E+00 0.  1.
         21   -1    0    0  501  503 -0.00000000000E+00 -0.00000000000E+00 -0.17667793252E+03  0.17667793252E+03  0.00000000000E+00 0.  1.
          6    1    1    2  501    0  0.64682573863E+02 -0.16318629641E+03  0.30472692140E+01  0.24647898196E+03  0.17300000000E+03 0.  1.
         -6    1    1    2    0  502 -0.64682573863E+02  0.16318629641E+03  0.22133117436E+03  0.33125532666E+03  0.17300000000E+03 0.  1.
<mgrwt>
<rscale>  2 0.24646014E+03</rscale>
<asrwt>0</asrwt>
<pdfrwt beam="1">  1       21 0.61700980E-01 0.24646014E+03</pdfrwt>
<pdfrwt beam="2">  1       21 0.27181221E-01 0.24646014E+03</pdfrwt>
<totfact> 0.30637055E+04</totfact>
</mgrwt>
</event>
<event>
 4    3  0.3906307E+000  0.2030499E+03  0.7546771E-02  0.1147191E+00
         21   -1    0    0  501  502  0.00000000000E+00  0.00000000000E+00  0.11683422287E+04  0.11683422287E+04  0.00000000000E+00 0. -1.
         21   -1    0    0  502  503 -0.00000000000E+00 -0.00000000000E+00 -0.68651214302E+02  0.68651214302E+02  0.00000000000E+00 0. -1.
          6    1    1    2  501    0 -0.10178380796E+03  0.30664630842E+02  0.98100977462E+03  0.10018030949E+04  0.17300000000E+03 0. -1.
         -6    1    1    2    0  503  0.10178380796E+03 -0.30664630842E+02  0.11868123980E+03  0.23519034808E+03  0.17300000000E+03 0. -1.
<mgrwt>
<rscale>  2 0.20304990E+03</rscale>
<asrwt>0</asrwt>
<pdfrwt beam="1">  1       21 0.17974494E+00 0.20304990E+03</pdfrwt>
<pdfrwt beam="2">  1       21 0.10561726E-01 0.20304990E+03</pdfrwt>
<totfact> 0.13350776E+04</totfact>
</mgrwt>
</event>
<event>
 4    3  0.3906307E+000  0.4232633E+03  0.7546771E-02  0.1036009E+00
         21   -1    0    0  503  502  0.00000000000E+00  0.00000000000E+00  0.11204161280E+03  0.11204161280E+03  0.00000000000E+00 0.  1.
         21   -1    0    0  501  503 -0.00000000000E+00 -0.00000000000E+00 -0.19657425053E+04  0.19657425053E+04  0.00000000000E+00 0.  1.
          6    1    1    2  501    0  0.36236711148E+03  0.13383917703E+03 -0.13755978528E+04  0.14392433087E+04  0.17300000000E+03 0.  1.
         -6    1    1    2    0  502 -0.36236711148E+03 -0.13383917703E+03 -0.47810303967E+03  0.63854080945E+03  0.17300000000E+03 0.  1.
<mgrwt>
<rscale>  2 0.42326333E+03</rscale>
<asrwt>0</asrwt>
<pdfrwt beam="1">  1       21 0.17237172E-01 0.42326333E+03</pdfrwt>
<pdfrwt beam="2">  1       21 0.30242191E+00 0.42326333E+03</pdfrwt>
<totfact> 0.82027164E+02</totfact>
</mgrwt>
</event>
<event>
 4    3  0.3906307E+000  0.2067570E+03  0.7546771E-02  0.1144160E+00
         21   -1    0    0  501  502  0.00000000000E+00  0.00000000000E+00  0.70972339476E+02  0.70972339476E+02  0.00000000000E+00 0.  1.
         21   -1    0    0  502  503 -0.00000000000E+00 -0.00000000000E+00 -0.72481860728E+03  0.72481860728E+03  0.00000000000E+00 0.  1.
          6    1    1    2  501    0  0.97298770334E+02  0.57899979136E+02 -0.16335076372E+03  0.26349939336E+03  0.17300000000E+03 0.  1.
         -6    1    1    2    0  503 -0.97298770334E+02 -0.57899979136E+02 -0.49049550408E+03  0.53229155340E+03  0.17300000000E+03 0.  1.
<mgrwt>
<rscale>  2 0.20675700E+03</rscale>
<asrwt>0</asrwt>
<pdfrwt beam="1">  1       21 0.10918821E-01 0.20675700E+03</pdfrwt>
<pdfrwt beam="2">  1       21 0.11151056E+00 0.20675700E+03</pdfrwt>
<totfact> 0.43547563E+04</totfact>
</mgrwt>
</event>
<event>
 4    3  0.3906307E+000  0.1878023E+03  0.7546771E-02  0.1160459E+00
         21   -1    0    0  501  502  0.00000000000E+00  0.00000000000E+00  0.70724435009E+02  0.70724435009E+02  0.00000000000E+00 0. -1.
         21   -1    0    0  502  503 -0.00000000000E+00 -0.00000000000E+00 -0.68856917112E+03  0.68856917112E+03  0.00000000000E+00 0. -1.
          6    1    1    2  501    0 -0.56338185555E+01 -0.72862722674E+02 -0.10956043590E+03  0.21742402209E+03  0.17300000000E+03 0. -1.
         -6    1    1    2    0  503  0.56338185555E+01  0.72862722674E+02 -0.50828430021E+03  0.54186958404E+03  0.17300000000E+03 0. -1.
<mgrwt>
<rscale>  2 0.18780233E+03</rscale>
<asrwt>0</asrwt>
<pdfrwt beam="1">  1       21 0.10880683E-01 0.18780233E+03</pdfrwt>
<pdfrwt beam="2">  1       21 0.10593371E+00 0.18780233E+03</pdfrwt>
<totfact> 0.50098707E+04</totfact>
</mgrwt>
</event>
<event>
 4    3  0.3906307E+000  0.1806636E+03  0.7546771E-02  0.1167162E+00
         21   -1    0    0  501  502  0.00000000000E+00  0.00000000000E+00  0.83952622773E+03  0.83952622773E+03  0.00000000000E+00 0. -1.
         21   -1    0    0  502  503 -0.00000000000E+00 -0.00000000000E+00 -0.40035078055E+02  0.40035078055E+02  0.00000000000E+00 0. -1.
          6    1    1    2  501    0 -0.39099474548E+00  0.52059491469E+02  0.47450101711E+03  0.50773079360E+03  0.17300000000E+03 0. -1.
         -6    1    1    2    0  503  0.39099474548E+00 -0.52059491469E+02  0.32499013257E+03  0.37183051219E+03  0.17300000000E+03 0. -1.
<mgrwt>
<rscale>  2 0.18066362E+03</rscale>
<asrwt>0</asrwt>
<pdfrwt beam="1">  1       21 0.12915787E+00 0.18066362E+03</pdfrwt>
<pdfrwt beam="2">  1       21 0.61592434E-02 0.18066362E+03</pdfrwt>
<totfact> 0.83302983E+04</totfact>
</mgrwt>
</event>
<event>
 4    3  0.3906307E+000  0.2800976E+03  0.7546771E-02  0.1095636E+00
         21   -1    0    0  501  502  0.00000000000E+00  0.00000000000E+00  0.77457986112E+02  0.77457986112E+02  0.00000000000E+00 0.  1.
         21   -1    0    0  502  503 -0.00000000000E+00 -0.00000000000E+00 -0.11962250686E+04  0.11962250686E+04  0.00000000000E+00 0.  1.
          6    1    1    2  501    0 -0.34680770761E+01  0.22025817304E+03 -0.31005377016E+03  0.41783732569E+03  0.17300000000E+03 0.  1.
         -6    1    1    2    0  503  0.34680770761E+01 -0.22025817304E+03 -0.80871331228E+03  0.85584572898E+03  0.17300000000E+03 0.  1.
<mgrwt>
<rscale>  2 0.28009764E+03</rscale>
<asrwt>0</asrwt>
<pdfrwt beam="1">  1       21 0.11916615E-01 0.28009764E+03</pdfrwt>
<pdfrwt beam="2">  1       21 0.18403461E+00 0.28009764E+03</pdfrwt>
<totfact> 0.95579325E+03</totfact>
</mgrwt>
</event>
<event>
 4    3  0.3906307E+000  0.3558936E+03  0.7546771E-02  0.1060222E+00
         21   -1    0    0  503  502  0.00000000000E+00  0.00000000000E+00  0.72676456190E+03  0.72676456190E+03  0.00000000000E+00 0. -1.
         21   -1    0    0  501  503 -0.00000000000E+00 -0.00000000000E+00 -0.14675018042E+04  0.14675018042E+04  0.00000000000E+00 0.  1.
          6    1    1    2  501    0 -0.64317034263E+02  0.30429353928E+03 -0.14002960032E+04  0.14448145678E+04  0.17300000000E+03 0.  1.
         -6    1    1    2    0  502  0.64317034263E+02 -0.30429353928E+03  0.65955876084E+03  0.74945179828E+03  0.17300000000E+03 0. -1.
<mgrwt>
<rscale>  2 0.35589358E+03</rscale>
<asrwt>0</asrwt>
<pdfrwt beam="1">  1       21 0.11180993E+00 0.35589358E+03</pdfrwt>
<pdfrwt beam="2">  1       21 0.22576951E+00 0.35589358E+03</pdfrwt>
<totfact> 0.48392632E+01</totfact>
</mgrwt>
</event>
<event>
 4    3  0.3906307E+000  0.2361492E+03  0.7546771E-02  0.1122385E+00
         21   -1    0    0  503  502  0.00000000000E+00  0.00000000000E+00  0.79451994012E+03  0.79451994012E+03  0.00000000000E+00 0. -1.
         21   -1    0    0  501  503 -0.00000000000E+00 -0.00000000000E+00 -0.78207980265E+02  0.78207980265E+02  0.00000000000E+00 0. -1.
          6    1    1    2  501    0  0.16016501166E+03  0.13587907885E+02  0.49788488232E+03  0.55104974207E+03  0.17300000000E+03 0. -1.
         -6    1    1    2    0  502 -0.16016501166E+03 -0.13587907885E+02  0.21842707754E+03  0.32167817831E+03  0.17300000000E+03 0. -1.
<mgrwt>
<rscale>  2 0.23614924E+03</rscale>
<asrwt>0</asrwt>
<pdfrwt beam="1">  1       21 0.12223383E+00 0.23614924E+03</pdfrwt>
<pdfrwt beam="2">  1       21 0.12031997E-01 0.23614924E+03</pdfrwt>
<totfact> 0.28750690E+04</totfact>
</mgrwt>
</event>
<event>
 4    3  0.3906307E+000  0.2883783E+03  0.7546771E-02  0.1091199E+00
         21   -1    0    0  503  502  0.00000000000E+00  0.00000000000E+00  0.78047669165E+02  0.78047669165E+02  0.00000000000E+00 0. -1.
         21   -1    0    0  501  503 -0.00000000000E+00 -0.00000000000E+00 -0.16540738170E+04  0.16540738170E+04  0.00000000000E+00 0. -1.
          6    1    1    2  501    0  0.18187277406E+03  0.14196957462E+03 -0.27140566942E+03  0.39600896891E+03  0.17300000000E+03 0. -1.
         -6    1    1    2    0  502 -0.18187277406E+03 -0.14196957462E+03 -0.13046204784E+04  0.13361125173E+04  0.17300000000E+03 0. -1.
<mgrwt>
<rscale>  2 0.28837834E+03</rscale>
<asrwt>0</asrwt>
<pdfrwt beam="1">  1       21 0.12007333E-01 0.28837834E+03</pdfrwt>
<pdfrwt beam="2">  1       21 0.25447291E+00 0.28837834E+03</pdfrwt>
<totfact> 0.33674966E+03</totfact>
</mgrwt>
</event>
<event>
 4    3  0.3906307E+000  0.1936466E+03  0.7546771E-02  0.1155213E+00
         21   -1    0    0  503  502  0.00000000000E+00  0.00000000000E+00  0.41940565441E+03  0.41940565441E+03  0.00000000000E+00 0. -1.
         21   -1    0    0  501  503 -0.00000000000E+00 -0.00000000000E+00 -0.16305603085E+03  0.16305603085E+03  0.00000000000E+00 0. -1.
          6    1    1    2  501    0 -0.84099632951E+02 -0.22299549278E+02 -0.67549104640E+02  0.20508997952E+03  0.17300000000E+03 0. -1.
         -6    1    1    2    0  502  0.84099632951E+02  0.22299549278E+02  0.32389872821E+03  0.37737170574E+03  0.17300000000E+03 0. -1.
<mgrwt>
<rscale>  2 0.19364663E+03</rscale>
<asrwt>0</asrwt>
<pdfrwt beam="1">  1       21 0.64523947E-01 0.19364663E+03</pdfrwt>
<pdfrwt beam="2">  1       21 0.25085543E-01 0.19364663E+03</pdfrwt>
<totfact> 0.33310499E+04</totfact>
</mgrwt>
</event>
<event>
 4    3  0.3906307E+000  0.2166332E+03  0.7546771E-02  0.1136418E+00
         21   -1    0    0  501  502  0.00000000000E+00  0.00000000000E+00  0.43698484120E+03  0.43698484120E+03  0.00000000000E+00 0.  1.
         21   -1    0    0  502  503 -0.00000000000E+00 -0.00000000000E+00 -0.11005696898E+03  0.11005696898E+03  0.00000000000E+00 0.  1.
          6    1    1    2  501    0 -0.65009704483E+02  0.11302510162E+03  0.20600348752E+03  0.29894376083E+03  0.17300000000E+03 0.  1.
         -6    1    1    2    0  503  0.65009704483E+02 -0.11302510162E+03  0.12092438471E+03  0.24809804935E+03  0.17300000000E+03 0.  1.
<mgrwt>
<rscale>  2 0.21663318E+03</rscale>
<asrwt>0</asrwt>
<pdfrwt beam="1">  1       21 0.67228436E-01 0.21663318E+03</pdfrwt>
<pdfrwt beam="2">  1       21 0.16931842E-01 0.21663318E+03</pdfrwt>
<totfact> 0.62946331E+04</totfact>
</mgrwt>
</event>
<event>
 4    3  0.3906307E+000  0.1793565E+03  0.7546771E-02  0.1168427E+00
         21   -1    0    0  501  502  0.00000000000E+00  0.00000000000E+00  0.57934432465E+03  0.57934432465E+03  0.00000000000E+00 0. -1.
         21   -1    0    0  502  503 -0.00000000000E+00 -0.00000000000E+00 -0.55531039604E+02  0.55531039604E+02  0.00000000000E+00 0. -1.
          6    1    1    2  501    0 -0.32094760095E+02  0.34780369942E+02  0.25892157602E+03  0.31497480897E+03  0.17300000000E+03 0.  1.
         -6    1    1    2    0  503  0.32094760095E+02 -0.34780369942E+02  0.26489170903E+03  0.31990055529E+03  0.17300000000E+03 0.  1.
<mgrwt>
<rscale>  2 0.17935648E+03</rscale>
<asrwt>0</asrwt>
<pdfrwt beam="1">  1       21 0.89129892E-01 0.17935648E+03</pdfrwt>
<pdfrwt beam="2">  1       21 0.85432373E-02 0.17935648E+03</pdfrwt>
<totfact> 0.11556359E+05</totfact>
</mgrwt>
</event>
<event>
 4    3  0.3906307E+000  0.2991100E+03  0.7546771E-02  0.1085686E+00
         21   -1    0    0  501  502  0.00000000000E+00  0.00000000000E+00  0.96222901264E+03  0.96222901264E+03  0.00000000000E+00 0.  1.
         21   -1    0    0  502  503 -0.00000000000E+00 -0.00000000000E+00 -0.93226200225E+02  0.93226200225E+02  0.00000000000E+00 0. -1.
          6    1    1    2  501    0 -0.13512202769E+03  0.20317439264E+03  0.40730981934E+03  0.50533957407E+03  0.17300000000E+03 0. -1.
         -6    1    1    2    0  503  0.13512202769E+03 -0.20317439264E+03  0.46169299307E+03  0.55011563879E+03  0.17300000000E+03 0.  1.
<mgrwt>
<rscale>  2 0.29911001E+03</rscale>
<asrwt>0</asrwt>
<pdfrwt beam="1">  1       21 0.14803523E+00 0.29911001E+03</pdfrwt>
<pdfrwt beam="2">  1       21 0.14342493E-01 0.29911001E+03</pdfrwt>
<totfact> 0.12359103E+04</totfact>
</mgrwt>
</event>
<event>
 4    3  0.3906307E+000  0.2250443E+03  0.7546771E-02  0.1130177E+00
         21   -1    0    0  501  502  0.00000000000E+00  0.00000000000E+00  0.17072425588E+03  0.17072425588E+03  0.00000000000E+00 0.  1.
         21   -1    0    0  502  503 -0.00000000000E+00 -0.00000000000E+00 -0.32150128017E+03  0.32150128017E+03  0.00000000000E+00 0.  1.
          6    1    1    2  501    0 -0.37274528005E+02  0.13901989205E+03 -0.69596741683E+01  0.22515185517E+03  0.17300000000E+03 0.  1.
         -6    1    1    2    0  503  0.37274528005E+02 -0.13901989205E+03 -0.14381735012E+03  0.26707368088E+03  0.17300000000E+03 0.  1.
<mgrwt>
<rscale>  2 0.22504426E+03</rscale>
<asrwt>0</asrwt>
<pdfrwt beam="1">  1       21 0.26265270E-01 0.22504426E+03</pdfrwt>
<pdfrwt beam="2">  1       21 0.49461736E-01 0.22504426E+03</pdfrwt>
<totfact> 0.52909574E+04</totfact>
</mgrwt>
</event>
<event>
 4    3  0.3906307E+000  0.2260275E+03  0.7546771E-02  0.1129467E+00
         21   -1    0    0  503  502  0.00000000000E+00  0.00000000000E+00  0.42597885321E+02  0.42597885321E+02  0.00000000000E+00 0. -1.
         21   -1    0    0  501  503 -0.00000000000E+00 -0.00000000000E+00 -0.12158118229E+04  0.12158118229E+04  0.00000000000E+00 0.  1.
          6    1    1    2  501    0  0.14208687721E+03 -0.31156842032E+02 -0.65989173719E+03  0.69752816021E+03  0.17300000000E+03 0.  1.
         -6    1    1    2    0  502 -0.14208687721E+03  0.31156842032E+02 -0.51332220036E+03  0.56088154798E+03  0.17300000000E+03 0. -1.
<mgrwt>
<rscale>  2 0.22602750E+03</rscale>
<asrwt>0</asrwt>
<pdfrwt beam="1">  1       21 0.65535213E-02 0.22602750E+03</pdfrwt>
<pdfrwt beam="2">  1       21 0.18704796E+00 0.22602750E+03</pdfrwt>
<totfact> 0.27036927E+04</totfact>
</mgrwt>
</event>
<event>
 4    3  0.3906307E+000  0.2428535E+03  0.7546771E-02  0.1117906E+00
         21   -1    0    0  501  502  0.00000000000E+00  0.00000000000E+00  0.15064650525E+03  0.15064650525E+03  0.00000000000E+00 0.  1.
         21   -1    0    0  502  503 -0.00000000000E+00 -0.00000000000E+00 -0.51394844796E+03  0.51394844796E+03  0.00000000000E+00 0.  1.
          6    1    1    2  501    0  0.10907903838E+03 -0.13096026368E+03 -0.19452335695E+02  0.24363132114E+03  0.17300000000E+03 0.  1.
         -6    1    1    2    0  503 -0.10907903838E+03  0.13096026368E+03 -0.34384960701E+03  0.42096363206E+03  0.17300000000E+03 0.  1.
<mgrwt>
<rscale>  2 0.24285351E+03</rscale>
<asrwt>0</asrwt>
<pdfrwt beam="1">  1       21 0.23176385E-01 0.24285351E+03</pdfrwt>
<pdfrwt beam="2">  1       21 0.79068992E-01 0.24285351E+03</pdfrwt>
<totfact> 0.24042269E+04</totfact>
</mgrwt>
</event>
<event>
 4    3  0.3906307E+000  0.2786759E+03  0.7546771E-02  0.1096414E+00
         21   -1    0    0  501  502  0.00000000000E+00  0.00000000000E+00  0.19639388179E+03  0.19639388179E+03  0.00000000000E+00 0.  1.
         21   -1    0    0  502  503 -0.00000000000E+00 -0.00000000000E+00 -0.41890219040E+03  0.41890219040E+03  0.00000000000E+00 0. -1.
          6    1    1    2  501    0 -0.21841422311E+03  0.51459526660E+01 -0.18407642724E+03  0.33398261145E+03  0.17300000000E+03 0. -1.
         -6    1    1    2    0  503  0.21841422311E+03 -0.51459526660E+01 -0.38431881380E+02  0.28131346074E+03  0.17300000000E+03 0.  1.
<mgrwt>
<rscale>  2 0.27867589E+03</rscale>
<asrwt>0</asrwt>
<pdfrwt beam="1">  1       21 0.30214444E-01 0.27867589E+03</pdfrwt>
<pdfrwt beam="2">  1       21 0.64446490E-01 0.27867589E+03</pdfrwt>
<totfact> 0.22343116E+04</totfact>
</mgrwt>
</event>
<event>
 4    3  0.3906307E+000  0.2029892E+03  0.7546771E-02  0.1147241E+00
         21   -1    0    0  501  502  0.00000000000E+00  0.00000000000E+00  0.66721278321E+02  0.66721278321E+02  0.00000000000E+00 0.  1.
         21   -1    0    0  502  503 -0.00000000000E+00 -0.00000000000E+00 -0.90350364344E+03  0.90350364344E+03  0.00000000000E+00 0. -1.
          6    1    1    2  501    0 -0.10549824500E+03 -0.12071514698E+02 -0.14548377365E+03  0.24974012405E+03  0.17300000000E+03 0.  1.
         -6    1    1    2    0  503  0.10549824500E+03  0.12071514698E+02 -0.69129859147E+03  0.72048479771E+03  0.17300000000E+03 0. -1.
<mgrwt>
<rscale>  2 0.20298917E+03</rscale>
<asrwt>0</asrwt>
<pdfrwt beam="1">  1       21 0.10264813E-01 0.20298917E+03</pdfrwt>
<pdfrwt beam="2">  1       21 0.13900055E+00 0.20298917E+03</pdfrwt>
<totfact> 0.28062050E+04</totfact>
</mgrwt>
</event>
<event>
 4    3  0.3906307E+000  0.2934703E+03  0.7546771E-02  0.1088551E+00
         21   -1    0    0  501  502  0.00000000000E+00  0.00000000000E+00  0.87810028359E+02  0.87810028359E+02  0.00000000000E+00 0.  1.
         21   -1    0    0  502  503 -0.00000000000E+00 -0.00000000000E+00 -0.11169387167E+04  0.11169387167E+04  0.00000000000E+00 0. -1.
          6    1    1    2  501    0 -0.22577819473E+03  0.72249530290E+02 -0.72485971190E+03  0.78201431558E+03  0.17300000000E+03 0. -1.
         -6    1    1    2    0  503  0.22577819473E+03 -0.72249530290E+02 -0.30426897646E+03  0.42273442950E+03  0.17300000000E+03 0.  1.
<mgrwt>
<rscale>  2 0.29347025E+03</rscale>
<asrwt>0</asrwt>
<pdfrwt beam="1">  1       21 0.13509236E-01 0.29347025E+03</pdfrwt>
<pdfrwt beam="2">  1       21 0.17183672E+00 0.29347025E+03</pdfrwt>
<totfact> 0.91927873E+03</totfact>
</mgrwt>
</event>
<event>
 4    3  0.3906307E+000  0.1983415E+03  0.7546771E-02  0.1151146E+00
         21   -1    0    0  501  502  0.00000000000E+00  0.00000000000E+00  0.28792402966E+03  0.28792402966E+03  0.00000000000E+00 0. -1.
         21   -1    0    0  502  503 -0.00000000000E+00 -0.00000000000E+00 -0.13918951359E+03  0.13918951359E+03  0.00000000000E+00 0. -1.
          6    1    1    2  501    0 -0.82980436439E+02  0.50245192195E+02  0.45413252892E+02  0.20347406643E+03  0.17300000000E+03 0. -1.
         -6    1    1    2    0  503  0.82980436439E+02 -0.50245192195E+02  0.10332126318E+03  0.22363947683E+03  0.17300000000E+03 0. -1.
<mgrwt>
<rscale>  2 0.19834145E+03</rscale>
<asrwt>0</asrwt>
<pdfrwt beam="1">  1       21 0.44296004E-01 0.19834145E+03</pdfrwt>
<pdfrwt beam="2">  1       21 0.21413771E-01 0.19834145E+03</pdfrwt>
<totfact> 0.99177888E+04</totfact>
</mgrwt>
</event>
<event>
 4    3  0.3906307E+000  0.1740345E+03  0.7546771E-02  0.1173705E+00
         21   -1    0    0  501  502  0.00000000000E+00  0.00000000000E+00  0.81882983506E+02  0.81882983506E+02  0.00000000000E+00 0. -1.
         21   -1    0    0  502  503 -0.00000000000E+00 -0.00000000000E+00 -0.37921489602E+03  0.37921489602E+03  0.00000000000E+00 0. -1.
          6    1    1    2  501    0  0.17333371731E+02  0.76536733529E+01 -0.18481103809E+03  0.25385654274E+03  0.17300000000E+03 0.  1.
         -6    1    1    2    0  503 -0.17333371731E+02 -0.76536733529E+01 -0.11252087442E+03  0.20724133678E+03  0.17300000000E+03 0.  1.
<mgrwt>
<rscale>  2 0.17403455E+03</rscale>
<asrwt>0</asrwt>
<pdfrwt beam="1">  1       21 0.12597382E-01 0.17403455E+03</pdfrwt>
<pdfrwt beam="2">  1       21 0.58340754E-01 0.17403455E+03</pdfrwt>
<totfact> 0.14893036E+05</totfact>
</mgrwt>
</event>
<event>
 4    3  0.3906307E+000  0.2207036E+03  0.7546771E-02  0.1133360E+00
         21   -1    0    0  501  502  0.00000000000E+00  0.00000000000E+00  0.29502036460E+03  0.29502036460E+03  0.00000000000E+00 0. -1.
         21   -1    0    0  502  503 -0.00000000000E+00 -0.00000000000E+00 -0.19943282903E+03  0.19943282903E+03  0.00000000000E+00 0.  1.
          6    1    1    2  501    0  0.26949795477E+02 -0.13436810751E+03  0.15035993204E+03  0.26705465537E+03  0.17300000000E+03 0.  1.
         -6    1    1    2    0  503 -0.26949795477E+02  0.13436810751E+03 -0.54772396466E+02  0.22739853827E+03  0.17300000000E+03 0. -1.
<mgrwt>
<rscale>  2 0.22070360E+03</rscale>
<asrwt>0</asrwt>
<pdfrwt beam="1">  1       21 0.45387748E-01 0.22070360E+03</pdfrwt>
<pdfrwt beam="2">  1       21 0.30681974E-01 0.22070360E+03</pdfrwt>
<totfact> 0.46848433E+04</totfact>
</mgrwt>
</event>
<event>
 4    3  0.3906307E+000  0.2472519E+03  0.7546771E-02  0.1115054E+00
         21   -1    0    0  501  502  0.00000000000E+00  0.00000000000E+00  0.24465305689E+03  0.24465305689E+03  0.00000000000E+00 0.  1.
         21   -1    0    0  502  503 -0.00000000000E+00 -0.00000000000E+00 -0.33654910210E+03  0.33654910210E+03  0.00000000000E+00 0.  1.
          6    1    1    2  501    0  0.13975083226E+03  0.10804731835E+03  0.10152382608E+03  0.26728375443E+03  0.17300000000E+03 0.  1.
         -6    1    1    2    0  503 -0.13975083226E+03 -0.10804731835E+03 -0.19341987128E+03  0.31391840457E+03  0.17300000000E+03 0.  1.
<mgrwt>
<rscale>  2 0.24725193E+03</rscale>
<asrwt>0</asrwt>
<pdfrwt beam="1">  1       21 0.37638932E-01 0.24725193E+03</pdfrwt>
<pdfrwt beam="2">  1       21 0.51776785E-01 0.24725193E+03</pdfrwt>
<totfact> 0.23424987E+04</totfact>
</mgrwt>
</event>
<event>
 4    3  0.3906307E+000  0.2557560E+03  0.7546771E-02  0.1109720E+00
         21   -1    0    0  501  502  0.00000000000E+00  0.00000000000E+00  0.42122444260E+03  0.42122444260E+03  0.00000000000E+00 0. -1.
         21   -1    0    0  502  503 -0.00000000000E+00 -0.00000000000E+00 -0.15546838811E+03  0.15546838811E+03  0.00000000000E+00 0. -1.
          6    1    1    2  501    0 -0.10372145911E+03  0.15723866585E+03  0.14269752336E+03  0.29287151157E+03  0.17300000000E+03 0. -1.
         -6    1    1    2    0  503  0.10372145911E+03 -0.15723866585E+03  0.12305853113E+03  0.28382131914E+03  0.17300000000E+03 0. -1.
<mgrwt>
<rscale>  2 0.25575601E+03</rscale>
<asrwt>0</asrwt>
<pdfrwt beam="1">  1       21 0.64803760E-01 0.25575601E+03</pdfrwt>
<pdfrwt beam="2">  1       21 0.23918214E-01 0.25575601E+03</pdfrwt>
<totfact> 0.35070839E+04</totfact>
</mgrwt>
</event>
<event>
 4    3  0.3906307E+000  0.1879530E+03  0.7546771E-02  0.1160321E+00
         21   -1    0    0  501  502  0.00000000000E+00  0.00000000000E+00  0.51373886582E+03  0.51373886582E+03  0.00000000000E+00 0.  1.
         21   -1    0    0  502  503 -0.00000000000E+00 -0.00000000000E+00 -0.68901495381E+02  0.68901495381E+02  0.00000000000E+00 0.  1.
          6    1    1    2  501    0  0.13590245058E+02  0.72198564044E+02  0.23547026376E+03  0.30128486940E+03  0.17300000000E+03 0.  1.
         -6    1    1    2    0  503 -0.13590245058E+02 -0.72198564044E+02  0.20936710668E+03  0.28135549181E+03  0.17300000000E+03 0.  1.
<mgrwt>
<rscale>  2 0.18795299E+03</rscale>
<asrwt>0</asrwt>
<pdfrwt beam="1">  1       21 0.79036746E-01 0.18795299E+03</pdfrwt>
<pdfrwt beam="2">  1       21 0.10600230E-01 0.18795299E+03</pdfrwt>
<totfact> 0.10364242E+05</totfact>
</mgrwt>
</event>
<event>
 4    3  0.3906307E+000  0.2083712E+03  0.7546771E-02  0.1142862E+00
         21   -1    0    0  501  502  0.00000000000E+00  0.00000000000E+00  0.67702725810E+02  0.67702725810E+02  0.00000000000E+00 0. -1.
         21   -1    0    0  502  503 -0.00000000000E+00 -0.00000000000E+00 -0.12691576686E+04  0.12691576686E+04  0.00000000000E+00 0. -1.
          6    1    1    2  501    0 -0.10555091794E+03 -0.48461837962E+02 -0.13059002004E+03  0.24591116150E+03  0.17300000000E+03 0. -1.
         -6    1    1    2    0  503  0.10555091794E+03  0.48461837962E+02 -0.10708649228E+04  0.10909492329E+04  0.17300000000E+03 0. -1.
<mgrwt>
<rscale>  2 0.20837117E+03</rscale>
<asrwt>0</asrwt>
<pdfrwt beam="1">  1       21 0.10415805E-01 0.20837117E+03</pdfrwt>
<pdfrwt beam="2">  1       21 0.19525501E+00 0.20837117E+03</pdfrwt>
<totfact> 0.10741372E+04</totfact>
</mgrwt>
</event>
<event>
 4    3  0.3906307E+000  0.2482417E+03  0.7546771E-02  0.1114421E+00
         21   -1    0    0  503  502  0.00000000000E+00  0.00000000000E+00  0.19088031430E+03  0.19088031430E+03  0.00000000000E+00 0. -1.
         21   -1    0    0  501  503 -0.00000000000E+00 -0.00000000000E+00 -0.32292737757E+03  0.32292737757E+03  0.00000000000E+00 0. -1.
          6    1    1    2  501    0  0.20315942872E+02 -0.17686770799E+03 -0.61813252716E+02  0.25582181666E+03  0.17300000000E+03 0. -1.
         -6    1    1    2    0  502 -0.20315942872E+02  0.17686770799E+03 -0.70233810552E+02  0.25798587521E+03  0.17300000000E+03 0. -1.
<mgrwt>
<rscale>  2 0.24824166E+03</rscale>
<asrwt>0</asrwt>
<pdfrwt beam="1">  1       21 0.29366203E-01 0.24824166E+03</pdfrwt>
<pdfrwt beam="2">  1       21 0.49681134E-01 0.24824166E+03</pdfrwt>
<totfact> 0.41799190E+04</totfact>
</mgrwt>
</event>
<event>
 4    3  0.3906307E+000  0.2452775E+03  0.7546771E-02  0.1116326E+00
         21   -1    0    0  503  502  0.00000000000E+00  0.00000000000E+00  0.62199998795E+03  0.62199998795E+03  0.00000000000E+00 0. -1.
         21   -1    0    0  501  503 -0.00000000000E+00 -0.00000000000E+00 -0.20655612681E+03  0.20655612681E+03  0.00000000000E+00 0. -1.
          6    1    1    2  501    0 -0.12555137290E+03  0.12028674820E+03 -0.94371755725E+02  0.26280615919E+03  0.17300000000E+03 0. -1.
         -6    1    1    2    0  502  0.12555137290E+03 -0.12028674820E+03  0.50981561686E+03  0.56574995557E+03  0.17300000000E+03 0. -1.
<mgrwt>
<rscale>  2 0.24527749E+03</rscale>
<asrwt>0</asrwt>
<pdfrwt beam="1">  1       21 0.95692305E-01 0.24527749E+03</pdfrwt>
<pdfrwt beam="2">  1       21 0.31777866E-01 0.24527749E+03</pdfrwt>
<totfact> 0.83747797E+03</totfact>
</mgrwt>
</event>
<event>
 4    3  0.3906307E+000  0.1833733E+03  0.7546771E-02  0.1164578E+00
         21   -1    0    0  501  502  0.00000000000E+00  0.00000000000E+00  0.88781995212E+02  0.88781995212E+02  0.00000000000E+00 0. -1.
         21   -1    0    0  502  503 -0.00000000000E+00 -0.00000000000E+00 -0.43172013082E+03  0.43172013082E+03  0.00000000000E+00 0. -1.
          6    1    1    2  501    0  0.60799296178E+02 -0.45703031507E+00 -0.26263365227E+03  0.32031577950E+03  0.17300000000E+03 0. -1.
         -6    1    1    2    0  503 -0.60799296178E+02  0.45703031507E+00 -0.80304483333E+02  0.20018634653E+03  0.17300000000E+03 0. -1.
<mgrwt>
<rscale>  2 0.18337329E+03</rscale>
<asrwt>0</asrwt>
<pdfrwt beam="1">  1       21 0.13658769E-01 0.18337329E+03</pdfrwt>
<pdfrwt beam="2">  1       21 0.66418482E-01 0.18337329E+03</pdfrwt>
<totfact> 0.97023106E+04</totfact>
</mgrwt>
</event>
<event>
 4    3  0.3906307E+000  0.1983667E+03  0.7546771E-02  0.1151124E+00
         21   -1    0    0  501  502  0.00000000000E+00  0.00000000000E+00  0.24027523024E+03  0.24027523024E+03  0.00000000000E+00 0. -1.
         21   -1    0    0  502  503 -0.00000000000E+00 -0.00000000000E+00 -0.20111601858E+03  0.20111601858E+03  0.00000000000E+00 0. -1.
          6    1    1    2  501    0 -0.14523341617E+02 -0.95965666031E+02  0.11468509054E+03  0.22913316325E+03  0.17300000000E+03 0. -1.
         -6    1    1    2    0  503  0.14523341617E+02  0.95965666031E+02 -0.75525878881E+02  0.21225808557E+03  0.17300000000E+03 0. -1.
<mgrwt>
<rscale>  2 0.19836667E+03</rscale>
<asrwt>0</asrwt>
<pdfrwt beam="1">  1       21 0.36965420E-01 0.19836667E+03</pdfrwt>
<pdfrwt beam="2">  1       21 0.30940926E-01 0.19836667E+03</pdfrwt>
<totfact> 0.70631920E+04</totfact>
</mgrwt>
</event>
<event>
 4    3  0.3906307E+000  0.1778793E+03  0.7546771E-02  0.1169871E+00
         21   -1    0    0  503  502  0.00000000000E+00  0.00000000000E+00  0.26858742045E+03  0.26858742045E+03  0.00000000000E+00 0. -1.
         21   -1    0    0  501  503 -0.00000000000E+00 -0.00000000000E+00 -0.17193039107E+03  0.17193039107E+03  0.00000000000E+00 0. -1.
          6    1    1    2  501    0 -0.33048689700E+02 -0.24896252709E+02 -0.75253766712E+02  0.19314287120E+03  0.17300000000E+03 0. -1.
         -6    1    1    2    0  502  0.33048689700E+02  0.24896252709E+02  0.17191079609E+03  0.24737494033E+03  0.17300000000E+03 0. -1.
<mgrwt>
<rscale>  2 0.17787928E+03</rscale>
<asrwt>0</asrwt>
<pdfrwt beam="1">  1       21 0.41321141E-01 0.17787928E+03</pdfrwt>
<pdfrwt beam="2">  1       21 0.26450830E-01 0.17787928E+03</pdfrwt>
<totfact> 0.77148911E+04</totfact>
</mgrwt>
</event>
<event>
 4    3  0.3906307E+000  0.1755133E+03  0.7546771E-02  0.1172217E+00
         21   -1    0    0  501  502  0.00000000000E+00  0.00000000000E+00  0.13895116264E+03  0.13895116264E+03  0.00000000000E+00 0. -1.
         21   -1    0    0  502  503 -0.00000000000E+00 -0.00000000000E+00 -0.17426778369E+04  0.17426778369E+04  0.00000000000E+00 0. -1.
          6    1    1    2  501    0 -0.27294341664E+02 -0.11442504095E+02  0.77073096444E+02  0.19169030800E+03  0.17300000000E+03 0. -1.
         -6    1    1    2    0  503  0.27294341664E+02  0.11442504095E+02 -0.16807997707E+04  0.16899386916E+04  0.17300000000E+03 0. -1.
<mgrwt>
<rscale>  2 0.17551328E+03</rscale>
<asrwt>0</asrwt>
<pdfrwt beam="1">  1       21 0.21377101E-01 0.17551328E+03</pdfrwt>
<pdfrwt beam="2">  1       21 0.26810429E+00 0.17551328E+03</pdfrwt>
<totfact> 0.10867543E+03</totfact>
</mgrwt>
</event>
<event>
 4    3  0.3906307E+000  0.3047874E+03  0.7546771E-02  0.1082872E+00
         21   -1    0    0  501  502  0.00000000000E+00  0.00000000000E+00  0.37793879582E+03  0.37793879582E+03  0.00000000000E+00 0. -1.
         21   -1    0    0  502  503 -0.00000000000E+00 -0.00000000000E+00 -0.75781075664E+03  0.75781075664E+03  0.00000000000E+00 0.  1.
          6    1    1    2  501    0  0.20228483683E+03  0.14848300162E+03  0.27684589187E+03  0.41175114429E+03  0.17300000000E+03 0. -1.
         -6    1    1    2    0  503 -0.20228483683E+03 -0.14848300162E+03 -0.65671785269E+03  0.72399840817E+03  0.17300000000E+03 0.  1.
<mgrwt>
<rscale>  2 0.30478740E+03</rscale>
<asrwt>0</asrwt>
<pdfrwt beam="1">  1       21 0.58144431E-01 0.30478740E+03</pdfrwt>
<pdfrwt beam="2">  1       21 0.11658627E+00 0.30478740E+03</pdfrwt>
<totfact> 0.14415529E+03</totfact>
</mgrwt>
</event>
<event>
 4    3  0.3906307E+000  0.1860259E+03  0.7546771E-02  0.1162095E+00
         21   -1    0    0  503  502  0.00000000000E+00  0.00000000000E+00  0.55220705623E+03  0.55220705623E+03  0.00000000000E+00 0.  1.
         21   -1    0    0  501  503 -0.00000000000E+00 -0.00000000000E+00 -0.10610243336E+03  0.10610243336E+03  0.00000000000E+00 0. -1.
          6    1    1    2  501    0 -0.52372488308E+02 -0.43974399822E+02  0.12453793607E+02  0.18644227618E+03  0.17300000000E+03 0. -1.
         -6    1    1    2    0  502  0.52372488308E+02  0.43974399822E+02  0.43365082926E+03  0.47186721341E+03  0.17300000000E+03 0.  1.
<mgrwt>
<rscale>  2 0.18602587E+03</rscale>
<asrwt>0</asrwt>
<pdfrwt beam="1">  1       21 0.84954929E-01 0.18602587E+03</pdfrwt>
<pdfrwt beam="2">  1       21 0.16323452E-01 0.18602587E+03</pdfrwt>
<totfact> 0.40462541E+04</totfact>
</mgrwt>
</event>
<event>
 4    3  0.3906307E+000  0.2341337E+03  0.7546771E-02  0.1123764E+00
         21   -1    0    0  501  502  0.00000000000E+00  0.00000000000E+00  0.50662367044E+03  0.50662367044E+03  0.00000000000E+00 0.  1.
         21   -1    0    0  502  503 -0.00000000000E+00 -0.00000000000E+00 -0.19366721864E+03  0.19366721864E+03  0.00000000000E+00 0. -1.
          6    1    1    2  501    0 -0.12805373232E+03  0.92151167359E+02  0.38907870503E+03  0.45409342069E+03  0.17300000000E+03 0.  1.
         -6    1    1    2    0  503  0.12805373232E+03 -0.92151167359E+02 -0.76122253229E+02  0.24619746840E+03  0.17300000000E+03 0. -1.
<mgrwt>
<rscale>  2 0.23413371E+03</rscale>
<asrwt>0</asrwt>
<pdfrwt beam="1">  1       21 0.77942103E-01 0.23413371E+03</pdfrwt>
<pdfrwt beam="2">  1       21 0.29794957E-01 0.23413371E+03</pdfrwt>
<totfact> 0.15363582E+04</totfact>
</mgrwt>
</event>
<event>
 4    3  0.3906307E+000  0.2155409E+03  0.7546771E-02  0.1137252E+00
         21   -1    0    0  503  502  0.00000000000E+00  0.00000000000E+00  0.15243920261E+03  0.15243920261E+03  0.00000000000E+00 0. -1.
         21   -1    0    0  501  503 -0.00000000000E+00 -0.00000000000E+00 -0.30660218131E+03  0.30660218131E+03  0.00000000000E+00 0.  1.
          6    1    1    2  501    0 -0.12808348024E+03 -0.11112575119E+02 -0.94856777602E+02  0.23549028747E+03  0.17300000000E+03 0.  1.
         -6    1    1    2    0  502  0.12808348024E+03  0.11112575119E+02 -0.59306201095E+02  0.22355109645E+03  0.17300000000E+03 0.  1.
<mgrwt>
<rscale>  2 0.21554087E+03</rscale>
<asrwt>0</asrwt>
<pdfrwt beam="1">  1       21 0.23452185E-01 0.21554087E+03</pdfrwt>
<pdfrwt beam="2">  1       21 0.47169566E-01 0.21554087E+03</pdfrwt>
<totfact> 0.72835120E+04</totfact>
</mgrwt>
</event>
<event>
 4    3  0.3906307E+000  0.1957977E+03  0.7546771E-02  0.1153334E+00
         21   -1    0    0  503  502  0.00000000000E+00  0.00000000000E+00  0.10929524287E+04  0.10929524287E+04  0.00000000000E+00 0.  1.
         21   -1    0    0  501  503 -0.00000000000E+00 -0.00000000000E+00 -0.39458432551E+02  0.39458432551E+02  0.00000000000E+00 0.  1.
          6    1    1    2  501    0 -0.81149604827E+02 -0.42690741407E+02  0.71543552261E+03  0.74174439315E+03  0.17300000000E+03 0.  1.
         -6    1    1    2    0  502  0.81149604827E+02  0.42690741407E+02  0.33805847356E+03  0.39066646812E+03  0.17300000000E+03 0.  1.
<mgrwt>
<rscale>  2 0.19579775E+03</rscale>
<asrwt>0</asrwt>
<pdfrwt beam="1">  1       21 0.16814650E+00 0.19579775E+03</pdfrwt>
<pdfrwt beam="2">  1       21 0.60705289E-02 0.19579775E+03</pdfrwt>
<totfact> 0.42419348E+04</totfact>
</mgrwt>
</event>
<event>
 4    3  0.3906307E+000  0.1738060E+03  0.7546771E-02  0.1173936E+00
         21   -1    0    0  503  502  0.00000000000E+00  0.00000000000E+00  0.52457727809E+02  0.52457727809E+02  0.00000000000E+00 0.  1.
         21   -1    0    0  501  503 -0.00000000000E+00 -0.00000000000E+00 -0.13581159065E+04  0.13581159065E+04  0.00000000000E+00 0.  1.
          6    1    1    2  501    0  0.16684285397E+02  0.10836779031E+01 -0.11880961803E+04  0.12007418846E+04  0.17300000000E+03 0.  1.
         -6    1    1    2    0  502 -0.16684285397E+02 -0.10836779031E+01 -0.11756199843E+03  0.20983174977E+03  0.17300000000E+03 0.  1.
<mgrwt>
<rscale>  2 0.17380604E+03</rscale>
<asrwt>0</asrwt>
<pdfrwt beam="1">  1       21 0.80704200E-02 0.17380604E+03</pdfrwt>
<pdfrwt beam="2">  1       21 0.20894090E+00 0.17380604E+03</pdfrwt>
<totfact> 0.14149587E+04</totfact>
</mgrwt>
</event>
<event>
 4    3  0.3906307E+000  0.1954981E+03  0.7546771E-02  0.1153594E+00
         21   -1    0    0  503  502  0.00000000000E+00  0.00000000000E+00  0.31198508355E+03  0.31198508355E+03  0.00000000000E+00 0. -1.
         21   -1    0    0  501  503 -0.00000000000E+00 -0.00000000000E+00 -0.16418071904E+03  0.16418071904E+03  0.00000000000E+00 0. -1.
          6    1    1    2  501    0 -0.12849623646E+02  0.90140952319E+02 -0.46051199781E+02  0.20084874188E+03  0.17300000000E+03 0. -1.
         -6    1    1    2    0  502  0.12849623646E+02 -0.90140952319E+02  0.19385556429E+03  0.27531706072E+03  0.17300000000E+03 0. -1.
<mgrwt>
<rscale>  2 0.19549809E+03</rscale>
<asrwt>0</asrwt>
<pdfrwt beam="1">  1       21 0.47997705E-01 0.19549809E+03</pdfrwt>
<pdfrwt beam="2">  1       21 0.25258572E-01 0.19549809E+03</pdfrwt>
<totfact> 0.61531923E+04</totfact>
</mgrwt>
</event>
<event>
 4    3  0.3906307E+000  0.2188285E+03  0.7546771E-02  0.1134759E+00
         21   -1    0    0  503  502  0.00000000000E+00  0.00000000000E+00  0.35519047700E+03  0.35519047700E+03  0.00000000000E+00 0. -1.
         21   -1    0    0  501  503 -0.00000000000E+00 -0.00000000000E+00 -0.25448980384E+03  0.25448980384E+03  0.00000000000E+00 0. -1.
          6    1    1    2  501    0  0.10576842300E+03 -0.82279766351E+02 -0.15869170917E+03  0.27031274075E+03  0.17300000000E+03 0. -1.
         -6    1    1    2    0  502 -0.10576842300E+03  0.82279766351E+02  0.25939238234E+03  0.33936754009E+03  0.17300000000E+03 0. -1.
<mgrwt>
<rscale>  2 0.21882852E+03</rscale>
<asrwt>0</asrwt>
<pdfrwt beam="1">  1       21 0.54644689E-01 0.21882852E+03</pdfrwt>
<pdfrwt beam="2">  1       21 0.39152277E-01 0.21882852E+03</pdfrwt>
<totfact> 0.19585741E+04</totfact>
</mgrwt>
</event>
<event>
 4    3  0.3906307E+000  0.1853872E+03  0.7546771E-02  0.1162689E+00
         21   -1    0    0  503  502  0.00000000000E+00  0.00000000000E+00  0.11006372599E+04  0.11006372599E+04  0.00000000000E+00 0. -1.
         21   -1    0    0  501  503 -0.00000000000E+00 -0.00000000000E+00 -0.55555285003E+02  0.55555285003E+02  0.00000000000E+00 0. -1.
          6    1    1    2  501    0  0.59067426443E+02 -0.30829360538E+02  0.13997806916E+03  0.23229780495E+03  0.17300000000E+03 0. -1.
         -6    1    1    2    0  502 -0.59067426443E+02  0.30829360538E+02  0.90510390574E+03  0.92389473996E+03  0.17300000000E+03 0. -1.
<mgrwt>
<rscale>  2 0.18538719E+03</rscale>
<asrwt>0</asrwt>
<pdfrwt beam="1">  1       21 0.16932879E+00 0.18538719E+03</pdfrwt>
<pdfrwt beam="2">  1       21 0.85469678E-02 0.18538719E+03</pdfrwt>
<totfact> 0.23180992E+04</totfact>
</mgrwt>
</event>
<event>
 4    3  0.3906307E+000  0.1735442E+03  0.7546771E-02  0.1174201E+00
         21   -1    0    0  503  502  0.00000000000E+00  0.00000000000E+00  0.51274368408E+02  0.51274368408E+02  0.00000000000E+00 0. -1.
         21   -1    0    0  501  503 -0.00000000000E+00 -0.00000000000E+00 -0.63144701725E+03  0.63144701725E+03  0.00000000000E+00 0. -1.
          6    1    1    2  501    0 -0.19089373122E+01 -0.13599312546E+02 -0.38026365612E+03  0.41799286299E+03  0.17300000000E+03 0. -1.
         -6    1    1    2    0  502  0.19089373122E+01  0.13599312546E+02 -0.19990899272E+03  0.26472852267E+03  0.17300000000E+03 0. -1.
<mgrwt>
<rscale>  2 0.17354419E+03</rscale>
<asrwt>0</asrwt>
<pdfrwt beam="1">  1       21 0.78883646E-02 0.17354419E+03</pdfrwt>
<pdfrwt beam="2">  1       21 0.97145692E-01 0.17354419E+03</pdfrwt>
<totfact> 0.10893326E+05</totfact>
</mgrwt>
</event>
<event>
 4    3  0.3906307E+000  0.2723484E+03  0.7546771E-02  0.1099943E+00
         21   -1    0    0  503  502  0.00000000000E+00  0.00000000000E+00  0.59182914987E+03  0.59182914987E+03  0.00000000000E+00 0. -1.
         21   -1    0    0  501  503 -0.00000000000E+00 -0.00000000000E+00 -0.52028955224E+03  0.52028955224E+03  0.00000000000E+00 0.  1.
          6    1    1    2  501    0  0.17158478961E+03  0.12166886635E+03 -0.44870945022E+03  0.52489410721E+03  0.17300000000E+03 0.  1.
         -6    1    1    2    0  502 -0.17158478961E+03 -0.12166886635E+03  0.52024904785E+03  0.58722459490E+03  0.17300000000E+03 0. -1.
<mgrwt>
<rscale>  2 0.27234840E+03</rscale>
<asrwt>0</asrwt>
<pdfrwt beam="1">  1       21 0.91050639E-01 0.27234840E+03</pdfrwt>
<pdfrwt beam="2">  1       21 0.80044546E-01 0.27234840E+03</pdfrwt>
<totfact> 0.13157335E+03</totfact>
</mgrwt>
</event>
<event>
 4    3  0.3906307E+000  0.1825357E+03  0.7546771E-02  0.1165371E+00
         21   -1    0    0  503  502  0.00000000000E+00  0.00000000000E+00  0.30254373998E+03  0.30254373998E+03  0.00000000000E+00 0. -1.
         21   -1    0    0  501  503 -0.00000000000E+00 -0.00000000000E+00 -0.11943757896E+03  0.11943757896E+03  0.00000000000E+00 0. -1.
          6    1    1    2  501    0 -0.37117585773E+02  0.44861811672E+02  0.32655273125E+02  0.18543371911E+03  0.17300000000E+03 0.  1.
         -6    1    1    2    0  502  0.37117585773E+02 -0.44861811672E+02  0.15045088790E+03  0.23654759984E+03  0.17300000000E+03 0.  1.
<mgrwt>
<rscale>  2 0.18253574E+03</rscale>
<asrwt>0</asrwt>
<pdfrwt beam="1">  1       21 0.46545191E-01 0.18253574E+03</pdfrwt>
<pdfrwt beam="2">  1       21 0.18375012E-01 0.18253574E+03</pdfrwt>
<totfact> 0.11988908E+05</totfact>
</mgrwt>
</event>
<event>
 4    3  0.3906307E+000  0.2141220E+03  0.7546771E-02  0.1138343E+00
         21   -1    0    0  501  502  0.00000000000E+00  0.00000000000E+00  0.41468671441E+03  0.41468671441E+03  0.00000000000E+00 0. -1.
         21   -1    0    0  502  503 -0.00000000000E+00 -0.00000000000E+00 -0.12084514948E+03  0.12084514948E+03  0.00000000000E+00 0.  1.
          6    1    1    2  501    0 -0.12486306339E+03  0.18123674941E+02  0.22503338594E+03  0.31062562190E+03  0.17300000000E+03 0. -1.
         -6    1    1    2    0  503  0.12486306339E+03 -0.18123674941E+02  0.68808178993E+02  0.22490624200E+03  0.17300000000E+03 0.  1.
<mgrwt>
<rscale>  2 0.21412205E+03</rscale>
<asrwt>0</asrwt>
<pdfrwt beam="1">  1       21 0.63797955E-01 0.21412205E+03</pdfrwt>
<pdfrwt beam="2">  1       21 0.18591562E-01 0.21412205E+03</pdfrwt>
<totfact> 0.59425779E+04</totfact>
</mgrwt>
</event>
<event>
 4    3  0.3906307E+000  0.3041754E+03  0.7546771E-02  0.1083172E+00
         21   -1    0    0  501  502  0.00000000000E+00  0.00000000000E+00  0.37610839227E+03  0.37610839227E+03  0.00000000000E+00 0. -1.
         21   -1    0    0  502  503 -0.00000000000E+00 -0.00000000000E+00 -0.25541933454E+03  0.25541933454E+03  0.00000000000E+00 0.  1.
          6    1    1    2  501    0 -0.20769519780E+03 -0.13948611927E+03  0.12098256860E+03  0.32735218735E+03  0.17300000000E+03 0. -1.
         -6    1    1    2    0  503  0.20769519780E+03  0.13948611927E+03 -0.29351086212E+00  0.30417553946E+03  0.17300000000E+03 0.  1.
<mgrwt>
<rscale>  2 0.30417540E+03</rscale>
<asrwt>0</asrwt>
<pdfrwt beam="1">  1       21 0.57862830E-01 0.30417540E+03</pdfrwt>
<pdfrwt beam="2">  1       21 0.39295282E-01 0.30417540E+03</pdfrwt>
<totfact> 0.16521291E+04</totfact>
</mgrwt>
</event>
<event>
 4    3  0.3906307E+000  0.2201737E+03  0.7546771E-02  0.1133754E+00
         21   -1    0    0  503  502  0.00000000000E+00  0.00000000000E+00  0.56433996619E+03  0.56433996619E+03  0.00000000000E+00 0. -1.
         21   -1    0    0  501  503 -0.00000000000E+00 -0.00000000000E+00 -0.17099113038E+03  0.17099113038E+03  0.00000000000E+00 0.  1.
          6    1    1    2  501    0 -0.27325975789E+02  0.13341949662E+03 -0.62689640441E+02  0.22892457720E+03  0.17300000000E+03 0.  1.
         -6    1    1    2    0  502  0.27325975789E+02 -0.13341949662E+03  0.45603847626E+03  0.50640651937E+03  0.17300000000E+03 0. -1.
<mgrwt>
<rscale>  2 0.22017373E+03</rscale>
<asrwt>0</asrwt>
<pdfrwt beam="1">  1       21 0.86821532E-01 0.22017373E+03</pdfrwt>
<pdfrwt beam="2">  1       21 0.26306328E-01 0.22017373E+03</pdfrwt>
<totfact> 0.15415546E+04</totfact>
</mgrwt>
</event>
<event>
 4    3  0.3906307E+000  0.1969018E+03  0.7546771E-02  0.1152380E+00
         21   -1    0    0  503  502  0.00000000000E+00  0.00000000000E+00  0.18822619643E+03  0.18822619643E+03  0.00000000000E+00 0. -1.
         21   -1    0    0  501  503 -0.00000000000E+00 -0.00000000000E+00 -0.24769865406E+03  0.24769865406E+03  0.00000000000E+00 0.  1.
          6    1    1    2  501    0  0.87240870375E+02  0.35076072120E+02 -0.11919020585E+03  0.23016647339E+03  0.17300000000E+03 0.  1.
         -6    1    1    2    0  502 -0.87240870375E+02 -0.35076072120E+02  0.59717748225E+02  0.20575837711E+03  0.17300000000E+03 0. -1.
<mgrwt>
<rscale>  2 0.19690175E+03</rscale>
<asrwt>0</asrwt>
<pdfrwt beam="1">  1       21 0.28957876E-01 0.19690175E+03</pdfrwt>
<pdfrwt beam="2">  1       21 0.38107485E-01 0.19690175E+03</pdfrwt>
<totfact> 0.75665453E+04</totfact>
</mgrwt>
</event>
<event>
 4    3  0.3906307E+000  0.2152768E+03  0.7546771E-02  0.1137454E+00
         21   -1    0    0  503  502  0.00000000000E+00  0.00000000000E+00  0.42990528588E+03  0.42990528588E+03  0.00000000000E+00 0. -1.
         21   -1    0    0  501  503 -0.00000000000E+00 -0.00000000000E+00 -0.10799973619E+03  0.10799973619E+03  0.00000000000E+00 0. -1.
          6    1    1    2  501    0 -0.93960838087E+02  0.87100275640E+02  0.17249831190E+03  0.27586185804E+03  0.17300000000E+03 0. -1.
         -6    1    1    2    0  502  0.93960838087E+02 -0.87100275640E+02  0.14940723779E+03  0.26204316403E+03  0.17300000000E+03 0. -1.
<mgrwt>
<rscale>  2 0.21527679E+03</rscale>
<asrwt>0</asrwt>
<pdfrwt beam="1">  1       21 0.66139274E-01 0.21527679E+03</pdfrwt>
<pdfrwt beam="2">  1       21 0.16615344E-01 0.21527679E+03</pdfrwt>
<totfact> 0.67589404E+04</totfact>
</mgrwt>
</event>
<event>
 4    3  0.3906307E+000  0.2259787E+03  0.7546771E-02  0.1129503E+00
         21   -1    0    0  501  502  0.00000000000E+00  0.00000000000E+00  0.10585242446E+03  0.10585242446E+03  0.00000000000E+00 0. -1.
         21   -1    0    0  502  503 -0.00000000000E+00 -0.00000000000E+00 -0.51391115315E+03  0.51391115315E+03  0.00000000000E+00 0.  1.
          6    1    1    2  501    0 -0.56658202305E+02  0.13389260171E+03 -0.12733249468E+03  0.25938377915E+03  0.17300000000E+03 0. -1.
         -6    1    1    2    0  503  0.56658202305E+02 -0.13389260171E+03 -0.28072623400E+03  0.36037979846E+03  0.17300000000E+03 0.  1.
<mgrwt>
<rscale>  2 0.22597872E+03</rscale>
<asrwt>0</asrwt>
<pdfrwt beam="1">  1       21 0.16284989E-01 0.22597872E+03</pdfrwt>
<pdfrwt beam="2">  1       21 0.79063253E-01 0.22597872E+03</pdfrwt>
<totfact> 0.46914961E+04</totfact>
</mgrwt>
</event>
<event>
 4    3  0.3906307E+000  0.1822356E+03  0.7546771E-02  0.1165657E+00
         21   -1    0    0  503  502  0.00000000000E+00  0.00000000000E+00  0.74802270078E+03  0.74802270078E+03  0.00000000000E+00 0.  1.
         21   -1    0    0  501  503 -0.00000000000E+00 -0.00000000000E+00 -0.47809776988E+02  0.47809776988E+02  0.00000000000E+00 0.  1.
          6    1    1    2  501    0  0.54892091535E+02  0.16360905821E+02  0.24379026977E+03  0.30437397489E+03  0.17300000000E+03 0.  1.
         -6    1    1    2    0  502 -0.54892091535E+02 -0.16360905821E+02  0.45642265402E+03  0.49145850288E+03  0.17300000000E+03 0.  1.
<mgrwt>
<rscale>  2 0.18223562E+03</rscale>
<asrwt>0</asrwt>
<pdfrwt beam="1">  1       21 0.11508041E+00 0.18223562E+03</pdfrwt>
<pdfrwt beam="2">  1       21 0.73553509E-02 0.18223562E+03</pdfrwt>
<totfact> 0.81646233E+04</totfact>
</mgrwt>
</event>
<event>
 4    3  0.3906307E+000  0.2217208E+03  0.7546771E-02  0.1132607E+00
         21   -1    0    0  503  502  0.00000000000E+00  0.00000000000E+00  0.94214359850E+03  0.94214359850E+03  0.00000000000E+00 0. -1.
         21   -1    0    0  501  503 -0.00000000000E+00 -0.00000000000E+00 -0.12727511498E+03  0.12727511498E+03  0.00000000000E+00 0.  1.
          6    1    1    2  501    0  0.10997171306E+02 -0.13823957904E+03 -0.32941688540E+01  0.22174528301E+03  0.17300000000E+03 0.  1.
         -6    1    1    2    0  502 -0.10997171306E+02  0.13823957904E+03  0.81816265237E+03  0.84767343047E+03  0.17300000000E+03 0. -1.
<mgrwt>
<rscale>  2 0.22172081E+03</rscale>
<asrwt>0</asrwt>
<pdfrwt beam="1">  1       21 0.14494516E+00 0.22172081E+03</pdfrwt>
<pdfrwt beam="2">  1       21 0.19580788E-01 0.22172081E+03</pdfrwt>
<totfact> 0.76824671E+03</totfact>
</mgrwt>
</event>
<event>
 4    3  0.3906307E+000  0.2427034E+03  0.7546771E-02  0.1118005E+00
         21   -1    0    0  503  502  0.00000000000E+00  0.00000000000E+00  0.25003307252E+03  0.25003307252E+03  0.00000000000E+00 0. -1.
         21   -1    0    0  501  503 -0.00000000000E+00 -0.00000000000E+00 -0.51840388371E+03  0.51840388371E+03  0.00000000000E+00 0.  1.
          6    1    1    2  501    0 -0.16870718117E+03 -0.22668037163E+02 -0.41797438559E+03  0.48332963896E+03  0.17300000000E+03 0.  1.
         -6    1    1    2    0  502  0.16870718117E+03  0.22668037163E+02  0.14960357440E+03  0.28510731727E+03  0.17300000000E+03 0. -1.
<mgrwt>
<rscale>  2 0.24270343E+03</rscale>
<asrwt>0</asrwt>
<pdfrwt beam="1">  1       21 0.38466627E-01 0.24270343E+03</pdfrwt>
<pdfrwt beam="2">  1       21 0.79754442E-01 0.24270343E+03</pdfrwt>
<totfact> 0.87353629E+03</totfact>
</mgrwt>
</event>
<event>
 4    3  0.3906307E+000  0.2828867E+03  0.7546771E-02  0.1094123E+00
         21   -1    0    0  503  502  0.00000000000E+00  0.00000000000E+00  0.13783308280E+04  0.13783308280E+04  0.00000000000E+00 0.  1.
         21   -1    0    0  501  503 -0.00000000000E+00 -0.00000000000E+00 -0.88433116794E+02  0.88433116794E+02  0.00000000000E+00 0.  1.
          6    1    1    2  501    0 -0.85341699008E+02  0.20691219949E+03  0.21514257676E+03  0.35540285905E+03  0.17300000000E+03 0.  1.
         -6    1    1    2    0  502  0.85341699008E+02 -0.20691219949E+03  0.10747551345E+04  0.11113610858E+04  0.17300000000E+03 0.  1.
<mgrwt>
<rscale>  2 0.28288666E+03</rscale>
<asrwt>0</asrwt>
<pdfrwt beam="1">  1       21 0.21205088E+00 0.28288666E+03</pdfrwt>
<pdfrwt beam="2">  1       21 0.13605096E-01 0.28288666E+03</pdfrwt>
<totfact> 0.49102588E+03</totfact>
</mgrwt>
</event>
<event>
 4    3  0.3906307E+000  0.1782793E+03  0.7546771E-02  0.1169479E+00
         21   -1    0    0  503  502  0.00000000000E+00  0.00000000000E+00  0.48315628758E+02  0.48315628758E+02  0.00000000000E+00 0. -1.
         21   -1    0    0  501  503 -0.00000000000E+00 -0.00000000000E+00 -0.66843147479E+03  0.66843147479E+03  0.00000000000E+00 0. -1.
          6    1    1    2  501    0 -0.42186862452E+02  0.86463977890E+01 -0.26492623929E+03  0.31932648469E+03  0.17300000000E+03 0. -1.
         -6    1    1    2    0  502  0.42186862452E+02 -0.86463977890E+01 -0.35518960675E+03  0.39742061886E+03  0.17300000000E+03 0. -1.
<mgrwt>
<rscale>  2 0.17827925E+03</rscale>
<asrwt>0</asrwt>
<pdfrwt beam="1">  1       21 0.74331738E-02 0.17827925E+03</pdfrwt>
<pdfrwt beam="2">  1       21 0.10283561E+00 0.17827925E+03</pdfrwt>
<totfact> 0.10532760E+05</totfact>
</mgrwt>
</event>
<event>
 4    3  0.3906307E+000  0.1886907E+03  0.7546771E-02  0.1159648E+00
         21   -1    0    0  503  502  0.00000000000E+00  0.00000000000E+00  0.44804392784E+03  0.44804392784E+03  0.00000000000E+00 0. -1.
         21   -1    0    0  501  503 -0.00000000000E+00 -0.00000000000E+00 -0.96121721935E+02  0.96121721935E+02  0.00000000000E+00 0. -1.
          6    1    1    2  501    0 -0.25883040676E+02  0.70747737941E+02  0.62701626939E+02  0.19883578209E+03  0.17300000000E+03 0. -1.
         -6    1    1    2    0  502  0.25883040676E+02 -0.70747737941E+02  0.28922057897E+03  0.34532986769E+03  0.17300000000E+03 0. -1.
<mgrwt>
<rscale>  2 0.18869068E+03</rscale>
<asrwt>0</asrwt>
<pdfrwt beam="1">  1       21 0.68929834E-01 0.18869068E+03</pdfrwt>
<pdfrwt beam="2">  1       21 0.14787957E-01 0.18869068E+03</pdfrwt>
<totfact> 0.77297333E+04</totfact>
</mgrwt>
</event>
<event>
 4    3  0.3906307E+000  0.2029941E+03  0.7546771E-02  0.1147237E+00
         21   -1    0    0  501  502  0.00000000000E+00  0.00000000000E+00  0.35501037466E+03  0.35501037466E+03  0.00000000000E+00 0. -1.
         21   -1    0    0  502  503 -0.00000000000E+00 -0.00000000000E+00 -0.11671072463E+03  0.11671072463E+03  0.00000000000E+00 0. -1.
          6    1    1    2  501    0 -0.10172192645E+03 -0.30500389579E+02  0.13660366138E+03  0.24467771535E+03  0.17300000000E+03 0. -1.
         -6    1    1    2    0  503  0.10172192645E+03  0.30500389579E+02  0.10169598865E+03  0.22704338394E+03  0.17300000000E+03 0. -1.
<mgrwt>
<rscale>  2 0.20299415E+03</rscale>
<asrwt>0</asrwt>
<pdfrwt beam="1">  1       21 0.54616980E-01 0.20299415E+03</pdfrwt>
<pdfrwt beam="2">  1       21 0.17955496E-01 0.20299415E+03</pdfrwt>
<totfact> 0.88896684E+04</totfact>
</mgrwt>
</event>
<event>
 4    3  0.3906307E+000  0.2629713E+03  0.7546771E-02  0.1105371E+00
         21   -1    0    0  501  502  0.00000000000E+00  0.00000000000E+00  0.50996590226E+03  0.50996590226E+03  0.00000000000E+00 0. -1.
         21   -1    0    0  502  503 -0.00000000000E+00 -0.00000000000E+00 -0.13774859688E+03  0.13774859688E+03  0.00000000000E+00 0.  1.
          6    1    1    2  501    0  0.19760993401E+03  0.13236709250E+02  0.22650922208E+03  0.34707394627E+03  0.17300000000E+03 0. -1.
         -6    1    1    2    0  503 -0.19760993401E+03 -0.13236709250E+02  0.14570808330E+03  0.30064055287E+03  0.17300000000E+03 0. -1.
<mgrwt>
<rscale>  2 0.26297128E+03</rscale>
<asrwt>0</asrwt>
<pdfrwt beam="1">  1       21 0.78456292E-01 0.26297128E+03</pdfrwt>
<pdfrwt beam="2">  1       21 0.21192092E-01 0.26297128E+03</pdfrwt>
<totfact> 0.28737739E+04</totfact>
</mgrwt>
</event>
<event>
 4    3  0.3906307E+000  0.2433613E+03  0.7546771E-02  0.1117574E+00
         21   -1    0    0  503  502  0.00000000000E+00  0.00000000000E+00  0.16756499591E+03  0.16756499591E+03  0.00000000000E+00 0.  1.
         21   -1    0    0  501  503 -0.00000000000E+00 -0.00000000000E+00 -0.71653627522E+03  0.71653627522E+03  0.00000000000E+00 0.  1.
          6    1    1    2  501    0  0.16273231920E+03  0.53046373983E+02 -0.58916035672E+03  0.63744384179E+03  0.17300000000E+03 0.  1.
         -6    1    1    2    0  502 -0.16273231920E+03 -0.53046373983E+02  0.40189077417E+02  0.24665742934E+03  0.17300000000E+03 0.  1.
<mgrwt>
<rscale>  2 0.24336131E+03</rscale>
<asrwt>0</asrwt>
<pdfrwt beam="1">  1       21 0.25779231E-01 0.24336131E+03</pdfrwt>
<pdfrwt beam="2">  1       21 0.11023635E+00 0.24336131E+03</pdfrwt>
<totfact> 0.89717080E+03</totfact>
</mgrwt>
</event>
<event>
 4    3  0.3906307E+000  0.1932843E+03  0.7546771E-02  0.1155532E+00
         21   -1    0    0  503  502  0.00000000000E+00  0.00000000000E+00  0.89791811962E+02  0.89791811962E+02  0.00000000000E+00 0.  1.
         21   -1    0    0  501  503 -0.00000000000E+00 -0.00000000000E+00 -0.78269881420E+03  0.78269881420E+03  0.00000000000E+00 0.  1.
          6    1    1    2  501    0 -0.96322035170E+01 -0.85656497525E+02 -0.64502780891E+03  0.67336445494E+03  0.17300000000E+03 0.  1.
         -6    1    1    2    0  502  0.96322035170E+01  0.85656497525E+02 -0.47879193335E+02  0.19912617123E+03  0.17300000000E+03 0.  1.
<mgrwt>
<rscale>  2 0.19328429E+03</rscale>
<asrwt>0</asrwt>
<pdfrwt beam="1">  1       21 0.13814125E-01 0.19328429E+03</pdfrwt>
<pdfrwt beam="2">  1       21 0.12041520E+00 0.19328429E+03</pdfrwt>
<totfact> 0.23843309E+04</totfact>
</mgrwt>
</event>
<event>
 4    3  0.3906307E+000  0.2603272E+03  0.7546771E-02  0.1106947E+00
         21   -1    0    0  501  502  0.00000000000E+00  0.00000000000E+00  0.69231321713E+03  0.69231321713E+03  0.00000000000E+00 0. -1.
         21   -1    0    0  502  503 -0.00000000000E+00 -0.00000000000E+00 -0.10572874391E+03  0.10572874391E+03  0.00000000000E+00 0. -1.
          6    1    1    2  501    0  0.11356370870E+03  0.15793844699E+03  0.40194313226E+03  0.47888260623E+03  0.17300000000E+03 0. -1.
         -6    1    1    2    0  503 -0.11356370870E+03 -0.15793844699E+03  0.18464134095E+03  0.31915935481E+03  0.17300000000E+03 0. -1.
<mgrwt>
<rscale>  2 0.26032723E+03</rscale>
<asrwt>0</asrwt>
<pdfrwt beam="1">  1       21 0.10650972E+00 0.26032723E+03</pdfrwt>
<pdfrwt beam="2">  1       21 0.16265961E-01 0.26032723E+03</pdfrwt>
<totfact> 0.23023680E+04</totfact>
</mgrwt>
</event>
<event>
 4    3  0.3906307E+000  0.1926084E+03  0.7546771E-02  0.1156130E+00
         21   -1    0    0  501  502  0.00000000000E+00  0.00000000000E+00  0.19414978168E+03  0.19414978168E+03  0.00000000000E+00 0. -1.
         21   -1    0    0  502  503 -0.00000000000E+00 -0.00000000000E+00 -0.41437205832E+03  0.41437205832E+03  0.00000000000E+00 0.  1.
          6    1    1    2  501    0  0.67716387662E+02  0.50827825254E+02  0.11324011783E+03  0.22343075273E+03  0.17300000000E+03 0. -1.
         -6    1    1    2    0  503 -0.67716387662E+02 -0.50827825254E+02 -0.33346239446E+03  0.38509108727E+03  0.17300000000E+03 0.  1.
<mgrwt>
<rscale>  2 0.19260835E+03</rscale>
<asrwt>0</asrwt>
<pdfrwt beam="1">  1       21 0.29869197E-01 0.19260835E+03</pdfrwt>
<pdfrwt beam="2">  1       21 0.63749547E-01 0.19260835E+03</pdfrwt>
<totfact> 0.24435685E+04</totfact>
</mgrwt>
</event>
<event>
 4    3  0.3906307E+000  0.2135665E+03  0.7546771E-02  0.1138772E+00
         21   -1    0    0  501  502  0.00000000000E+00  0.00000000000E+00  0.13418707565E+04  0.13418707565E+04  0.00000000000E+00 0.  1.
         21   -1    0    0  502  503 -0.00000000000E+00 -0.00000000000E+00 -0.16137621701E+03  0.16137621701E+03  0.00000000000E+00 0.  1.
          6    1    1    2  501    0  0.41155862744E+02  0.11827030035E+03  0.12580392287E+04  0.12760381538E+04  0.17300000000E+03 0.  1.
         -6    1    1    2    0  503 -0.41155862744E+02 -0.11827030035E+03 -0.77544689131E+02  0.22720881980E+03  0.17300000000E+03 0.  1.
<mgrwt>
<rscale>  2 0.21356654E+03</rscale>
<asrwt>0</asrwt>
<pdfrwt beam="1">  1       21 0.20644165E+00 0.21356654E+03</pdfrwt>
<pdfrwt beam="2">  1       21 0.24827111E-01 0.21356654E+03</pdfrwt>
<totfact> 0.18353469E+03</totfact>
</mgrwt>
</event>
<event>
 4    3  0.3906307E+000  0.2276451E+03  0.7546771E-02  0.1128308E+00
         21   -1    0    0  503  502  0.00000000000E+00  0.00000000000E+00  0.37088632558E+02  0.37088632558E+02  0.00000000000E+00 0.  1.
         21   -1    0    0  501  503 -0.00000000000E+00 -0.00000000000E+00 -0.22743510136E+04  0.22743510136E+04  0.00000000000E+00 0.  1.
          6    1    1    2  501    0 -0.13303496433E+03 -0.64768885917E+02 -0.18363381609E+04  0.18503945935E+04  0.17300000000E+03 0.  1.
         -6    1    1    2    0  502  0.13303496433E+03  0.64768885917E+02 -0.40092422010E+03  0.46104505266E+03  0.17300000000E+03 0.  1.
<mgrwt>
<rscale>  2 0.22764514E+03</rscale>
<asrwt>0</asrwt>
<pdfrwt beam="1">  1       21 0.57059452E-02 0.22764514E+03</pdfrwt>
<pdfrwt beam="2">  1       21 0.34990005E+00 0.22764514E+03</pdfrwt>
<totfact> 0.36055554E+03</totfact>
</mgrwt>
</event>
<event>
 4    3  0.3906307E+000  0.1875095E+03  0.7546771E-02  0.1160727E+00
         21   -1    0    0  503  502  0.00000000000E+00  0.00000000000E+00  0.82656413640E+02  0.82656413640E+02  0.00000000000E+00 0.  1.
         21   -1    0    0  501  503 -0.00000000000E+00 -0.00000000000E+00 -0.71851100981E+03  0.71851100981E+03  0.00000000000E+00 0.  1.
          6    1    1    2  501    0  0.67002499083E+02  0.27229844140E+02 -0.57379337245E+03  0.60365439911E+03  0.17300000000E+03 0.  1.
         -6    1    1    2    0  502 -0.67002499083E+02 -0.27229844140E+02 -0.62061223719E+02  0.19751302434E+03  0.17300000000E+03 0.  1.
<mgrwt>
<rscale>  2 0.18750946E+03</rscale>
<asrwt>0</asrwt>
<pdfrwt beam="1">  1       21 0.12716371E-01 0.18750946E+03</pdfrwt>
<pdfrwt beam="2">  1       21 0.11054016E+00 0.18750946E+03</pdfrwt>
<totfact> 0.34231721E+04</totfact>
</mgrwt>
</event>
<event>
 4    3  0.3906307E+000  0.1858931E+03  0.7546771E-02  0.1162218E+00
         21   -1    0    0  503  502  0.00000000000E+00  0.00000000000E+00  0.74253918617E+03  0.74253918617E+03  0.00000000000E+00 0. -1.
         21   -1    0    0  501  503 -0.00000000000E+00 -0.00000000000E+00 -0.57444969594E+02  0.57444969594E+02  0.00000000000E+00 0. -1.
          6    1    1    2  501    0  0.32769393516E+01 -0.67944996010E+02  0.16825481454E+03  0.25073081867E+03  0.17300000000E+03 0. -1.
         -6    1    1    2    0  502 -0.32769393516E+01  0.67944996010E+02  0.51683940203E+03  0.54925333709E+03  0.17300000000E+03 0. -1.
<mgrwt>
<rscale>  2 0.18589314E+03</rscale>
<asrwt>0</asrwt>
<pdfrwt beam="1">  1       21 0.11423679E+00 0.18589314E+03</pdfrwt>
<pdfrwt beam="2">  1       21 0.88376882E-02 0.18589314E+03</pdfrwt>
<totfact> 0.60289011E+04</totfact>
</mgrwt>
</event>
<event>
 4    3  0.3906307E+000  0.2038004E+03  0.7546771E-02  0.1146572E+00
         21   -1    0    0  503  502  0.00000000000E+00  0.00000000000E+00  0.88503317116E+03  0.88503317116E+03  0.00000000000E+00 0.  1.
         21   -1    0    0  501  503 -0.00000000000E+00 -0.00000000000E+00 -0.48565172399E+02  0.48565172399E+02  0.00000000000E+00 0.  1.
          6    1    1    2  501    0  0.19121262740E+02 -0.10601880945E+03  0.50388822532E+03  0.54354204461E+03  0.17300000000E+03 0.  1.
         -6    1    1    2    0  502 -0.19121262740E+02  0.10601880945E+03  0.33257977345E+03  0.39005629895E+03  0.17300000000E+03 0.  1.
<mgrwt>
<rscale>  2 0.20380042E+03</rscale>
<asrwt>0</asrwt>
<pdfrwt beam="1">  1       21 0.13615894E+00 0.20380042E+03</pdfrwt>
<pdfrwt beam="2">  1       21 0.74715657E-02 0.20380042E+03</pdfrwt>
<totfact> 0.51625234E+04</totfact>
</mgrwt>
</event>
<event>
 4    3  0.3906307E+000  0.3591078E+03  0.7546771E-02  0.1058938E+00
         21   -1    0    0  501  502  0.00000000000E+00  0.00000000000E+00  0.18366427167E+04  0.18366427167E+04  0.00000000000E+00 0. -1.
         21   -1    0    0  502  503 -0.00000000000E+00 -0.00000000000E+00 -0.75434162379E+02  0.75434162379E+02  0.00000000000E+00 0. -1.
          6    1    1    2  501    0  0.21711258892E+03 -0.22779720023E+03  0.11320962114E+04  0.11876869421E+04  0.17300000000E+03 0. -1.
         -6    1    1    2    0  503 -0.21711258892E+03  0.22779720023E+03  0.62911234294E+03  0.72438993694E+03  0.17300000000E+03 0. -1.
<mgrwt>
<rscale>  2 0.35910784E+03</rscale>
<asrwt>0</asrwt>
<pdfrwt beam="1">  1       21 0.28256038E+00 0.35910784E+03</pdfrwt>
<pdfrwt beam="2">  1       21 0.11605257E-01 0.35910784E+03</pdfrwt>
<totfact> 0.23221982E+03</totfact>
</mgrwt>
</event>
<event>
 4    3  0.3906307E+000  0.2850996E+03  0.7546771E-02  0.1092936E+00
         21   -1    0    0  501  502  0.00000000000E+00  0.00000000000E+00  0.30878664703E+03  0.30878664703E+03  0.00000000000E+00 0. -1.
         21   -1    0    0  502  503 -0.00000000000E+00 -0.00000000000E+00 -0.28596338443E+03  0.28596338443E+03  0.00000000000E+00 0. -1.
          6    1    1    2  501    0 -0.11794601439E+01  0.22660851431E+03  0.95258023642E+02  0.30059258300E+03  0.17300000000E+03 0. -1.
         -6    1    1    2    0  503  0.11794601439E+01 -0.22660851431E+03 -0.72434761043E+02  0.29415744847E+03  0.17300000000E+03 0. -1.
<mgrwt>
<rscale>  2 0.28509965E+03</rscale>
<asrwt>0</asrwt>
<pdfrwt beam="1">  1       21 0.47505638E-01 0.28509965E+03</pdfrwt>
<pdfrwt beam="2">  1       21 0.43994367E-01 0.28509965E+03</pdfrwt>
<totfact> 0.20071339E+04</totfact>
</mgrwt>
</event>
<event>
 4    3  0.3906307E+000  0.2546986E+03  0.7546771E-02  0.1110371E+00
         21   -1    0    0  501  502  0.00000000000E+00  0.00000000000E+00  0.39728265548E+03  0.39728265548E+03  0.00000000000E+00 0. -1.
         21   -1    0    0  502  503 -0.00000000000E+00 -0.00000000000E+00 -0.17378291823E+03  0.17378291823E+03  0.00000000000E+00 0. -1.
          6    1    1    2  501    0  0.17576460302E+03 -0.63633163351E+02  0.41580435988E+02  0.25807035438E+03  0.17300000000E+03 0. -1.
         -6    1    1    2    0  503 -0.17576460302E+03  0.63633163351E+02  0.18191930126E+03  0.31299521933E+03  0.17300000000E+03 0. -1.
<mgrwt>
<rscale>  2 0.25469860E+03</rscale>
<asrwt>0</asrwt>
<pdfrwt beam="1">  1       21 0.61120408E-01 0.25469860E+03</pdfrwt>
<pdfrwt beam="2">  1       21 0.26735834E-01 0.25469860E+03</pdfrwt>
<totfact> 0.32172385E+04</totfact>
</mgrwt>
</event>
<event>
 4    3  0.3906307E+000  0.1939028E+03  0.7546771E-02  0.1154988E+00
         21   -1    0    0  501  502  0.00000000000E+00  0.00000000000E+00  0.59508906010E+02  0.59508906010E+02  0.00000000000E+00 0. -1.
         21   -1    0    0  502  503 -0.00000000000E+00 -0.00000000000E+00 -0.13234033340E+04  0.13234033340E+04  0.00000000000E+00 0.  1.
          6    1    1    2  501    0 -0.73047746562E+02 -0.48304467639E+02 -0.13209219794E+03  0.23462021147E+03  0.17300000000E+03 0. -1.
         -6    1    1    2    0  503  0.73047746562E+02  0.48304467639E+02 -0.11318022301E+04  0.11482920285E+04  0.17300000000E+03 0.  1.
<mgrwt>
<rscale>  2 0.19390280E+03</rscale>
<asrwt>0</asrwt>
<pdfrwt beam="1">  1       21 0.91552168E-02 0.19390280E+03</pdfrwt>
<pdfrwt beam="2">  1       21 0.20360050E+00 0.19390280E+03</pdfrwt>
<totfact> 0.12059113E+04</totfact>
</mgrwt>
</event>
<event>
 4    3  0.3906307E+000  0.1869449E+03  0.7546771E-02  0.1161246E+00
         21   -1    0    0  503  502  0.00000000000E+00  0.00000000000E+00  0.10167868336E+04  0.10167868336E+04  0.00000000000E+00 0.  1.
         21   -1    0    0  501  503 -0.00000000000E+00 -0.00000000000E+00 -0.34819443738E+02  0.34819443738E+02  0.00000000000E+00 0.  1.
          6    1    1    2  501    0  0.49980975514E+02 -0.50212522296E+02  0.43133945726E+03  0.47010862862E+03  0.17300000000E+03 0. -1.
         -6    1    1    2    0  502 -0.49980975514E+02  0.50212522296E+02  0.55062793259E+03  0.58149764871E+03  0.17300000000E+03 0. -1.
<mgrwt>
<rscale>  2 0.18694490E+03</rscale>
<asrwt>0</asrwt>
<pdfrwt beam="1">  1       21 0.15642872E+00 0.18694490E+03</pdfrwt>
<pdfrwt beam="2">  1       21 0.53568383E-02 0.18694490E+03</pdfrwt>
<totfact> 0.64186392E+04</totfact>
</mgrwt>
</event>
<event>
 4    3  0.3906307E+000  0.2593417E+03  0.7546771E-02  0.1107539E+00
         21   -1    0    0  501  502  0.00000000000E+00  0.00000000000E+00  0.14652138921E+03  0.14652138921E+03  0.00000000000E+00 0. -1.
         21   -1    0    0  502  503 -0.00000000000E+00 -0.00000000000E+00 -0.46053594827E+03  0.46053594827E+03  0.00000000000E+00 0.  1.
          6    1    1    2  501    0 -0.18692763753E+03  0.48858728941E+02 -0.13966623520E+03  0.29455860932E+03  0.17300000000E+03 0. -1.
         -6    1    1    2    0  503  0.18692763753E+03 -0.48858728941E+02 -0.17434832387E+03  0.31249872816E+03  0.17300000000E+03 0.  1.
<mgrwt>
<rscale>  2 0.25934170E+03</rscale>
<asrwt>0</asrwt>
<pdfrwt beam="1">  1       21 0.22541752E-01 0.25934170E+03</pdfrwt>
<pdfrwt beam="2">  1       21 0.70851685E-01 0.25934170E+03</pdfrwt>
<totfact> 0.32196478E+04</totfact>
</mgrwt>
</event>
<event>
 4    3  0.3906307E+000  0.1912358E+03  0.7546771E-02  0.1157351E+00
         21   -1    0    0  503  502  0.00000000000E+00  0.00000000000E+00  0.26635793222E+03  0.26635793222E+03  0.00000000000E+00 0.  1.
         21   -1    0    0  501  503 -0.00000000000E+00 -0.00000000000E+00 -0.16045063481E+03  0.16045063481E+03  0.00000000000E+00 0.  1.
          6    1    1    2  501    0  0.61587407268E+02  0.53377098410E+02 -0.28106529002E+02  0.19329019722E+03  0.17300000000E+03 0.  1.
         -6    1    1    2    0  502 -0.61587407268E+02 -0.53377098410E+02  0.13401382641E+03  0.23351836981E+03  0.17300000000E+03 0.  1.
<mgrwt>
<rscale>  2 0.19123578E+03</rscale>
<asrwt>0</asrwt>
<pdfrwt beam="1">  1       21 0.40978143E-01 0.19123578E+03</pdfrwt>
<pdfrwt beam="2">  1       21 0.24684713E-01 0.19123578E+03</pdfrwt>
<totfact> 0.89065483E+04</totfact>
</mgrwt>
</event>
<event>
 4    3  0.3906307E+000  0.1900825E+03  0.7546771E-02  0.1158387E+00
         21   -1    0    0  501  502  0.00000000000E+00  0.00000000000E+00  0.21580222866E+03  0.21580222866E+03  0.00000000000E+00 0. -1.
         21   -1    0    0  502  503 -0.00000000000E+00 -0.00000000000E+00 -0.16961534130E+03  0.16961534130E+03  0.00000000000E+00 0.  1.
          6    1    1    2  501    0  0.78466756644E+02 -0.67310523952E+01  0.12094969398E+01  0.19008630105E+03  0.17300000000E+03 0. -1.
         -6    1    1    2    0  503 -0.78466756644E+02  0.67310523952E+01  0.44977390418E+02  0.19533126891E+03  0.17300000000E+03 0. -1.
<mgrwt>
<rscale>  2 0.19008245E+03</rscale>
<asrwt>0</asrwt>
<pdfrwt beam="1">  1       21 0.33200343E-01 0.19008245E+03</pdfrwt>
<pdfrwt beam="2">  1       21 0.26094668E-01 0.19008245E+03</pdfrwt>
<totfact> 0.12201362E+05</totfact>
</mgrwt>
</event>
<event>
 4    3  0.3906307E+000  0.1802856E+03  0.7546771E-02  0.1167527E+00
         21   -1    0    0  501  502  0.00000000000E+00  0.00000000000E+00  0.21265365922E+03  0.21265365922E+03  0.00000000000E+00 0. -1.
         21   -1    0    0  502  503 -0.00000000000E+00 -0.00000000000E+00 -0.20892149228E+03  0.20892149228E+03  0.00000000000E+00 0. -1.
          6    1    1    2  501    0 -0.39643456374E+02 -0.31659139810E+02  0.11107208029E+03  0.21175436663E+03  0.17300000000E+03 0. -1.
         -6    1    1    2    0  503  0.39643456374E+02  0.31659139810E+02 -0.10733991335E+03  0.20982078488E+03  0.17300000000E+03 0. -1.
<mgrwt>
<rscale>  2 0.18028562E+03</rscale>
<asrwt>0</asrwt>
<pdfrwt beam="1">  1       21 0.32715947E-01 0.18028562E+03</pdfrwt>
<pdfrwt beam="2">  1       21 0.32141768E-01 0.18028562E+03</pdfrwt>
<totfact> 0.84142927E+04</totfact>
</mgrwt>
</event>
<event>
 4    3  0.3906307E+000  0.2712782E+03  0.7546771E-02  0.1100550E+00
         21   -1    0    0  503  502  0.00000000000E+00  0.00000000000E+00  0.79740226128E+02  0.79740226128E+02  0.00000000000E+00 0.  1.
         21   -1    0    0  501  503 -0.00000000000E+00 -0.00000000000E+00 -0.13738339652E+04  0.13738339652E+04  0.00000000000E+00 0. -1.
          6    1    1    2  501    0 -0.20800139115E+03  0.19957187113E+02 -0.23065821055E+03  0.35608296524E+03  0.17300000000E+03 0.  1.
         -6    1    1    2    0  502  0.20800139115E+03 -0.19957187113E+02 -0.10634355286E+04  0.10974912261E+04  0.17300000000E+03 0. -1.
<mgrwt>
<rscale>  2 0.27127821E+03</rscale>
<asrwt>0</asrwt>
<pdfrwt beam="1">  1       21 0.12267727E-01 0.27127821E+03</pdfrwt>
<pdfrwt beam="2">  1       21 0.21135906E+00 0.27127821E+03</pdfrwt>
<totfact> 0.60312042E+03</totfact>
</mgrwt>
</event>
<event>
 4    3  0.3906307E+000  0.3298678E+03  0.7546771E-02  0.1071195E+00
         21   -1    0    0  501  502  0.00000000000E+00  0.00000000000E+00  0.36930763669E+03  0.36930763669E+03  0.00000000000E+00 0.  1.
         21   -1    0    0  502  503 -0.00000000000E+00 -0.00000000000E+00 -0.34567699419E+03  0.34567699419E+03  0.00000000000E+00 0. -1.
          6    1    1    2  501    0  0.14421861557E+03 -0.24100785353E+03  0.14917969278E+03  0.36203228486E+03  0.17300000000E+03 0.  1.
         -6    1    1    2    0  503 -0.14421861557E+03  0.24100785353E+03 -0.12554905028E+03  0.35295234603E+03  0.17300000000E+03 0.  1.
<mgrwt>
<rscale>  2 0.32986784E+03</rscale>
<asrwt>0</asrwt>
<pdfrwt beam="1">  1       21 0.56816560E-01 0.32986784E+03</pdfrwt>
<pdfrwt beam="2">  1       21 0.53181076E-01 0.32986784E+03</pdfrwt>
<totfact> 0.90510590E+03</totfact>
</mgrwt>
</event>
<event>
 4    3  0.3906307E+000  0.1953623E+03  0.7546771E-02  0.1153712E+00
         21   -1    0    0  503  502  0.00000000000E+00  0.00000000000E+00  0.10931670528E+04  0.10931670528E+04  0.00000000000E+00 0.  1.
         21   -1    0    0  501  503 -0.00000000000E+00 -0.00000000000E+00 -0.37505327995E+02  0.37505327995E+02  0.00000000000E+00 0. -1.
          6    1    1    2  501    0  0.63643165968E+02  0.64706962948E+02  0.37921969128E+03  0.42658412756E+03  0.17300000000E+03 0. -1.
         -6    1    1    2    0  502 -0.63643165968E+02 -0.64706962948E+02  0.67644203349E+03  0.70408825321E+03  0.17300000000E+03 0. -1.
<mgrwt>
<rscale>  2 0.19536234E+03</rscale>
<asrwt>0</asrwt>
<pdfrwt beam="1">  1       21 0.16817952E+00 0.19536234E+03</pdfrwt>
<pdfrwt beam="2">  1       21 0.57700513E-02 0.19536234E+03</pdfrwt>
<totfact> 0.46255906E+04</totfact>
</mgrwt>
</event>
<event>
 4    3  0.3906307E+000  0.2375069E+03  0.7546771E-02  0.1121465E+00
         21   -1    0    0  503  502  0.00000000000E+00  0.00000000000E+00  0.30423371845E+03  0.30423371845E+03  0.00000000000E+00 0. -1.
         21   -1    0    0  501  503 -0.00000000000E+00 -0.00000000000E+00 -0.35708959791E+03  0.35708959791E+03  0.00000000000E+00 0. -1.
          6    1    1    2  501    0  0.15589627338E+03 -0.46656885108E+02 -0.25569844281E+03  0.34898596911E+03  0.17300000000E+03 0. -1.
         -6    1    1    2    0  502 -0.15589627338E+03  0.46656885108E+02  0.20284256335E+03  0.31233734725E+03  0.17300000000E+03 0. -1.
<mgrwt>
<rscale>  2 0.23750687E+03</rscale>
<asrwt>0</asrwt>
<pdfrwt beam="1">  1       21 0.46805187E-01 0.23750687E+03</pdfrwt>
<pdfrwt beam="2">  1       21 0.54936861E-01 0.23750687E+03</pdfrwt>
<totfact> 0.13296414E+04</totfact>
</mgrwt>
</event>
<event>
 4    3  0.3906307E+000  0.2601510E+03  0.7546771E-02  0.1107053E+00
         21   -1    0    0  501  502  0.00000000000E+00  0.00000000000E+00  0.19156303387E+04  0.19156303387E+04  0.00000000000E+00 0.  1.
         21   -1    0    0  502  503 -0.00000000000E+00 -0.00000000000E+00 -0.35979423776E+02  0.35979423776E+02  0.00000000000E+00 0.  1.
          6    1    1    2  501    0  0.93363307274E+02 -0.17039025361E+03  0.80869075831E+03  0.84950531973E+03  0.17300000000E+03 0.  1.
         -6    1    1    2    0  503 -0.93363307274E+02  0.17039025361E+03  0.10709601566E+04  0.11021044427E+04  0.17300000000E+03 0.  1.
<mgrwt>
<rscale>  2 0.26015101E+03</rscale>
<asrwt>0</asrwt>
<pdfrwt beam="1">  1       21 0.29471228E+00 0.26015101E+03</pdfrwt>
<pdfrwt beam="2">  1       21 0.55352975E-02 0.26015101E+03</pdfrwt>
<totfact> 0.77726471E+03</totfact>
</mgrwt>
</event>
<event>
 4    3  0.3906307E+000  0.2065168E+03  0.7546771E-02  0.1144354E+00
         21   -1    0    0  503  502  0.00000000000E+00  0.00000000000E+00  0.18888561257E+04  0.18888561257E+04  0.00000000000E+00 0. -1.
         21   -1    0    0  501  503 -0.00000000000E+00 -0.00000000000E+00 -0.79821616952E+02  0.79821616952E+02  0.00000000000E+00 0. -1.
          6    1    1    2  501    0 -0.27953642371E+02 -0.10926473023E+03  0.70946057948E+02  0.21836329942E+03  0.17300000000E+03 0. -1.
         -6    1    1    2    0  502  0.27953642371E+02  0.10926473023E+03  0.17380884508E+04  0.17503144432E+04  0.17300000000E+03 0. -1.
<mgrwt>
<rscale>  2 0.20651680E+03</rscale>
<asrwt>0</asrwt>
<pdfrwt beam="1">  1       21 0.29059322E+00 0.20651680E+03</pdfrwt>
<pdfrwt beam="2">  1       21 0.12280250E-01 0.20651680E+03</pdfrwt>
<totfact> 0.21412464E+03</totfact>
</mgrwt>
</event>
<event>
 4    3  0.3906307E+000  0.3640570E+03  0.7546771E-02  0.1056989E+00
         21   -1    0    0  503  502  0.00000000000E+00  0.00000000000E+00  0.17833118031E+04  0.17833118031E+04  0.00000000000E+00 0. -1.
         21   -1    0    0  501  503 -0.00000000000E+00 -0.00000000000E+00 -0.74352919312E+02  0.74352919312E+02  0.00000000000E+00 0. -1.
          6    1    1    2  501    0 -0.30902141920E+03 -0.84346268565E+02  0.87372194514E+03  0.94653450437E+03  0.17300000000E+03 0. -1.
         -6    1    1    2    0  502  0.30902141920E+03  0.84346268565E+02  0.83523693863E+03  0.91113021802E+03  0.17300000000E+03 0. -1.
<mgrwt>
<rscale>  2 0.36405704E+03</rscale>
<asrwt>0</asrwt>
<pdfrwt beam="1">  1       21 0.27435563E+00 0.36405704E+03</pdfrwt>
<pdfrwt beam="2">  1       21 0.11438912E-01 0.36405704E+03</pdfrwt>
<totfact> 0.26600721E+03</totfact>
</mgrwt>
</event>
<event>
 4    3  0.3906307E+000  0.3236685E+03  0.7546771E-02  0.1073973E+00
         21   -1    0    0  503  502  0.00000000000E+00  0.00000000000E+00  0.73336545871E+03  0.73336545871E+03  0.00000000000E+00 0. -1.
         21   -1    0    0  501  503 -0.00000000000E+00 -0.00000000000E+00 -0.14308856417E+03  0.14308856417E+03  0.00000000000E+00 0.  1.
          6    1    1    2  501    0  0.24395966896E+03  0.12375778344E+03  0.31302938757E+03  0.45027625579E+03  0.17300000000E+03 0. -1.
         -6    1    1    2    0  502 -0.24395966896E+03 -0.12375778344E+03  0.27724750697E+03  0.42617776709E+03  0.17300000000E+03 0.  1.
<mgrwt>
<rscale>  2 0.32366852E+03</rscale>
<asrwt>0</asrwt>
<pdfrwt beam="1">  1       21 0.11282545E+00 0.32366852E+03</pdfrwt>
<pdfrwt beam="2">  1       21 0.22013626E-01 0.32366852E+03</pdfrwt>
<totfact> 0.11017151E+04</totfact>
</mgrwt>
</event>
<event>
 4    3  0.3906307E+000  0.2141188E+03  0.7546771E-02  0.1138345E+00
         21   -1    0    0  503  502  0.00000000000E+00  0.00000000000E+00  0.68910564494E+02  0.68910564494E+02  0.00000000000E+00 0.  1.
         21   -1    0    0  501  503 -0.00000000000E+00 -0.00000000000E+00 -0.66616129046E+03  0.66616129046E+03  0.00000000000E+00 0. -1.
          6    1    1    2  501    0  0.97265294803E+02 -0.80357539138E+02 -0.28548497516E+03  0.35685927578E+03  0.17300000000E+03 0.  1.
         -6    1    1    2    0  502 -0.97265294803E+02  0.80357539138E+02 -0.31176575081E+03  0.37821257918E+03  0.17300000000E+03 0.  1.
<mgrwt>
<rscale>  2 0.21411883E+03</rscale>
<asrwt>0</asrwt>
<pdfrwt beam="1">  1       21 0.10601625E-01 0.21411883E+03</pdfrwt>
<pdfrwt beam="2">  1       21 0.10248635E+00 0.21411883E+03</pdfrwt>
<totfact> 0.56059305E+04</totfact>
</mgrwt>
</event>
<event>
 4    3  0.3906307E+000  0.1820318E+03  0.7546771E-02  0.1165851E+00
         21   -1    0    0  501  502  0.00000000000E+00  0.00000000000E+00  0.68273805569E+03  0.68273805569E+03  0.00000000000E+00 0. -1.
         21   -1    0    0  502  503 -0.00000000000E+00 -0.00000000000E+00 -0.94770438915E+02  0.94770438915E+02  0.00000000000E+00 0. -1.
          6    1    1    2  501    0  0.12301737509E+02 -0.55274222567E+02  0.56552385705E+03  0.59409831284E+03  0.17300000000E+03 0. -1.
         -6    1    1    2    0  503 -0.12301737509E+02  0.55274222567E+02  0.22443759731E+02  0.18341018177E+03  0.17300000000E+03 0. -1.
<mgrwt>
<rscale>  2 0.18203179E+03</rscale>
<asrwt>0</asrwt>
<pdfrwt beam="1">  1       21 0.10503662E+00 0.18203179E+03</pdfrwt>
<pdfrwt beam="2">  1       21 0.14580068E-01 0.18203179E+03</pdfrwt>
<totfact> 0.30336625E+04</totfact>
</mgrwt>
</event>
<event>
 4    3  0.3906307E+000  0.2665512E+03  0.7546771E-02  0.1103270E+00
         21   -1    0    0  501  502  0.00000000000E+00  0.00000000000E+00  0.44323333588E+03  0.44323333588E+03  0.00000000000E+00 0.  1.
         21   -1    0    0  502  503 -0.00000000000E+00 -0.00000000000E+00 -0.36953110743E+03  0.36953110743E+03  0.00000000000E+00 0.  1.
          6    1    1    2  501    0  0.19532168607E+03 -0.54497368365E+02  0.34264172798E+03  0.43411159621E+03  0.17300000000E+03 0.  1.
         -6    1    1    2    0  503 -0.19532168607E+03  0.54497368365E+02 -0.26893949953E+03  0.37865284710E+03  0.17300000000E+03 0.  1.
<mgrwt>
<rscale>  2 0.26655117E+03</rscale>
<asrwt>0</asrwt>
<pdfrwt beam="1">  1       21 0.68189744E-01 0.26655117E+03</pdfrwt>
<pdfrwt beam="2">  1       21 0.56850940E-01 0.26655117E+03</pdfrwt>
<totfact> 0.54323392E+03</totfact>
</mgrwt>
</event>
<event>
 4    3  0.3906307E+000  0.3330844E+03  0.7546771E-02  0.1069780E+00
         21   -1    0    0  501  502  0.00000000000E+00  0.00000000000E+00  0.39474427249E+03  0.39474427249E+03  0.00000000000E+00 0.  1.
         21   -1    0    0  502  503 -0.00000000000E+00 -0.00000000000E+00 -0.28106784914E+03  0.28106784914E+03  0.00000000000E+00 0.  1.
          6    1    1    2  501    0 -0.17285814114E+03 -0.22613337316E+03  0.59033799229E+02  0.33827537432E+03  0.17300000000E+03 0.  1.
         -6    1    1    2    0  503  0.17285814114E+03  0.22613337316E+03  0.54642624124E+02  0.33753674732E+03  0.17300000000E+03 0.  1.
<mgrwt>
<rscale>  2 0.33308443E+03</rscale>
<asrwt>0</asrwt>
<pdfrwt beam="1">  1       21 0.60729888E-01 0.33308443E+03</pdfrwt>
<pdfrwt beam="2">  1       21 0.43241207E-01 0.33308443E+03</pdfrwt>
<totfact> 0.12081221E+04</totfact>
</mgrwt>
</event>
<event>
 4    3  0.3906307E+000  0.1891078E+03  0.7546771E-02  0.1159269E+00
         21   -1    0    0  501  502  0.00000000000E+00  0.00000000000E+00  0.76255792729E+02  0.76255792729E+02  0.00000000000E+00 0.  1.
         21   -1    0    0  502  503 -0.00000000000E+00 -0.00000000000E+00 -0.74199286006E+03  0.74199286006E+03  0.00000000000E+00 0.  1.
          6    1    1    2  501    0 -0.51108230499E+02 -0.56751182085E+02 -0.84695706190E+02  0.20720789208E+03  0.17300000000E+03 0.  1.
         -6    1    1    2    0  503  0.51108230499E+02  0.56751182085E+02 -0.58104136115E+03  0.61104076071E+03  0.17300000000E+03 0.  1.
<mgrwt>
<rscale>  2 0.18910777E+03</rscale>
<asrwt>0</asrwt>
<pdfrwt beam="1">  1       21 0.11731661E-01 0.18910777E+03</pdfrwt>
<pdfrwt beam="2">  1       21 0.11415275E+00 0.18910777E+03</pdfrwt>
<totfact> 0.36545011E+04</totfact>
</mgrwt>
</event>
<event>
 4    3  0.3906307E+000  0.1794751E+03  0.7546771E-02  0.1168312E+00
         21   -1    0    0  501  502  0.00000000000E+00  0.00000000000E+00  0.11234086668E+03  0.11234086668E+03  0.00000000000E+00 0. -1.
         21   -1    0    0  502  503 -0.00000000000E+00 -0.00000000000E+00 -0.28986517441E+03  0.28986517441E+03  0.00000000000E+00 0. -1.
          6    1    1    2  501    0 -0.45637894890E+02 -0.14123978754E+02 -0.10968255762E+03  0.21033679581E+03  0.17300000000E+03 0. -1.
         -6    1    1    2    0  503  0.45637894890E+02  0.14123978754E+02 -0.67841750105E+02  0.19186924528E+03  0.17300000000E+03 0. -1.
<mgrwt>
<rscale>  2 0.17947508E+03</rscale>
<asrwt>0</asrwt>
<pdfrwt beam="1">  1       21 0.17283211E-01 0.17947508E+03</pdfrwt>
<pdfrwt beam="2">  1       21 0.44594641E-01 0.17947508E+03</pdfrwt>
<totfact> 0.14672109E+05</totfact>
</mgrwt>
</event>
<event>
 4    3  0.3906307E+000  0.2470720E+03  0.7546771E-02  0.1115169E+00
         21   -1    0    0  501  502  0.00000000000E+00  0.00000000000E+00  0.10955932458E+03  0.10955932458E+03  0.00000000000E+00 0.  1.
         21   -1    0    0  502  503 -0.00000000000E+00 -0.00000000000E+00 -0.93033352081E+03  0.93033352081E+03  0.00000000000E+00 0.  1.
          6    1    1    2  501    0  0.52031616309E+02  0.16854754370E+03 -0.81094898617E+02  0.26004027797E+03  0.17300000000E+03 0.  1.
         -6    1    1    2    0  503 -0.52031616309E+02 -0.16854754370E+03 -0.73967929762E+03  0.77985256742E+03  0.17300000000E+03 0.  1.
<mgrwt>
<rscale>  2 0.24707198E+03</rscale>
<asrwt>0</asrwt>
<pdfrwt beam="1">  1       21 0.16855281E-01 0.24707198E+03</pdfrwt>
<pdfrwt beam="2">  1       21 0.14312823E+00 0.24707198E+03</pdfrwt>
<totfact> 0.10321739E+04</totfact>
</mgrwt>
</event>
<event>
 4    3  0.3906307E+000  0.2569148E+03  0.7546771E-02  0.1109011E+00
         21   -1    0    0  501  502  0.00000000000E+00  0.00000000000E+00  0.11158566055E+04  0.11158566055E+04  0.00000000000E+00 0.  1.
         21   -1    0    0  502  503 -0.00000000000E+00 -0.00000000000E+00 -0.20589903780E+03  0.20589903780E+03  0.00000000000E+00 0. -1.
          6    1    1    2  501    0 -0.95239583024E+02 -0.16433397432E+03  0.10129073272E+04  0.10449815725E+04  0.17300000000E+03 0.  1.
         -6    1    1    2    0  503  0.95239583024E+02  0.16433397432E+03 -0.10294975952E+03  0.27677407081E+03  0.17300000000E+03 0. -1.
<mgrwt>
<rscale>  2 0.25691484E+03</rscale>
<asrwt>0</asrwt>
<pdfrwt beam="1">  1       21 0.17167024E+00 0.25691484E+03</pdfrwt>
<pdfrwt beam="2">  1       21 0.31676776E-01 0.25691484E+03</pdfrwt>
<totfact> 0.18811423E+03</totfact>
</mgrwt>
</event>
<event>
 4    3  0.3906307E+000  0.2183428E+03  0.7546771E-02  0.1135125E+00
         21   -1    0    0  503  502  0.00000000000E+00  0.00000000000E+00  0.30015404136E+03  0.30015404136E+03  0.00000000000E+00 0. -1.
         21   -1    0    0  501  503 -0.00000000000E+00 -0.00000000000E+00 -0.45069485550E+03  0.45069485550E+03  0.00000000000E+00 0.  1.
          6    1    1    2  501    0  0.12868415599E+03 -0.34423476328E+02 -0.37738510327E+03  0.43599667876E+03  0.17300000000E+03 0.  1.
         -6    1    1    2    0  502 -0.12868415599E+03  0.34423476328E+02  0.22684428913E+03  0.31485221809E+03  0.17300000000E+03 0. -1.
<mgrwt>
<rscale>  2 0.21834282E+03</rscale>
<asrwt>0</asrwt>
<pdfrwt beam="1">  1       21 0.46177545E-01 0.21834282E+03</pdfrwt>
<pdfrwt beam="2">  1       21 0.69337670E-01 0.21834282E+03</pdfrwt>
<totfact> 0.83522197E+03</totfact>
</mgrwt>
</event>
<event>
 4    3  0.3906307E+000  0.1991031E+03  0.7546771E-02  0.1150498E+00
         21   -1    0    0  503  502  0.00000000000E+00  0.00000000000E+00  0.18963256570E+03  0.18963256570E+03  0.00000000000E+00 0. -1.
         21   -1    0    0  501  503 -0.00000000000E+00 -0.00000000000E+00 -0.21351356540E+03  0.21351356540E+03  0.00000000000E+00 0. -1.
          6    1    1    2  501    0  0.95053458634E+02 -0.26036570871E+02 -0.41096030759E+02  0.20330013961E+03  0.17300000000E+03 0. -1.
         -6    1    1    2    0  502 -0.95053458634E+02  0.26036570871E+02  0.17215031066E+02  0.19984599149E+03  0.17300000000E+03 0. -1.
<mgrwt>
<rscale>  2 0.19910315E+03</rscale>
<asrwt>0</asrwt>
<pdfrwt beam="1">  1       21 0.29174241E-01 0.19910315E+03</pdfrwt>
<pdfrwt beam="2">  1       21 0.32848241E-01 0.19910315E+03</pdfrwt>
<totfact> 0.10011333E+05</totfact>
</mgrwt>
</event>
<event>
 4    3  0.3906307E+000  0.1934493E+03  0.7546771E-02  0.1155387E+00
         21   -1    0    0  501  502  0.00000000000E+00  0.00000000000E+00  0.15564747945E+03  0.15564747945E+03  0.00000000000E+00 0. -1.
         21   -1    0    0  502  503 -0.00000000000E+00 -0.00000000000E+00 -0.30886731957E+03  0.30886731957E+03  0.00000000000E+00 0.  1.
          6    1    1    2  501    0  0.45848943074E+02  0.73426837102E+02  0.32716193227E+02  0.19619626726E+03  0.17300000000E+03 0. -1.
         -6    1    1    2    0  503 -0.45848943074E+02 -0.73426837102E+02 -0.18593603335E+03  0.26831853176E+03  0.17300000000E+03 0.  1.
<mgrwt>
<rscale>  2 0.19344929E+03</rscale>
<asrwt>0</asrwt>
<pdfrwt beam="1">  1       21 0.23945766E-01 0.19344929E+03</pdfrwt>
<pdfrwt beam="2">  1       21 0.47518048E-01 0.19344929E+03</pdfrwt>
<totfact> 0.69621999E+04</totfact>
</mgrwt>
</event>
<event>
 4    3  0.3906307E+000  0.3204584E+03  0.7546771E-02  0.1075439E+00
         21   -1    0    0  503  502  0.00000000000E+00  0.00000000000E+00  0.63998054809E+02  0.63998054809E+02  0.00000000000E+00 0.  1.
         21   -1    0    0  501  503 -0.00000000000E+00 -0.00000000000E+00 -0.16430761235E+04  0.16430761235E+04  0.00000000000E+00 0. -1.
          6    1    1    2  501    0  0.22014016718E+03  0.15589383095E+03 -0.92009183772E+03  0.97430106721E+03  0.17300000000E+03 0.  1.
         -6    1    1    2    0  502 -0.22014016718E+03 -0.15589383095E+03 -0.65898623095E+03  0.73277311108E+03  0.17300000000E+03 0. -1.
<mgrwt>
<rscale>  2 0.32045839E+03</rscale>
<asrwt>0</asrwt>
<pdfrwt beam="1">  1       21 0.98458542E-02 0.32045839E+03</pdfrwt>
<pdfrwt beam="2">  1       21 0.25278095E+00 0.32045839E+03</pdfrwt>
<totfact> 0.48178546E+03</totfact>
</mgrwt>
</event>
<event>
 4    3  0.3906307E+000  0.2016165E+03  0.7546771E-02  0.1148382E+00
         21   -1    0    0  501  502  0.00000000000E+00  0.00000000000E+00  0.23850813159E+03  0.23850813159E+03  0.00000000000E+00 0. -1.
         21   -1    0    0  502  503 -0.00000000000E+00 -0.00000000000E+00 -0.10912231052E+04  0.10912231052E+04  0.00000000000E+00 0. -1.
          6    1    1    2  501    0  0.94796540765E+02  0.41639459552E+02  0.18438459267E+03  0.27321586108E+03  0.17300000000E+03 0. -1.
         -6    1    1    2    0  503 -0.94796540765E+02 -0.41639459552E+02 -0.10370995663E+04  0.10565153757E+04  0.17300000000E+03 0. -1.
<mgrwt>
<rscale>  2 0.20161654E+03</rscale>
<asrwt>0</asrwt>
<pdfrwt beam="1">  1       21 0.36693559E-01 0.20161654E+03</pdfrwt>
<pdfrwt beam="2">  1       21 0.16788048E+00 0.20161654E+03</pdfrwt>
<totfact> 0.15677825E+03</totfact>
</mgrwt>
</event>
<event>
 4    3  0.3906307E+000  0.1832648E+03  0.7546771E-02  0.1164680E+00
         21   -1    0    0  501  502  0.00000000000E+00  0.00000000000E+00  0.25642651276E+03  0.25642651276E+03  0.00000000000E+00 0.  1.
         21   -1    0    0  502  503 -0.00000000000E+00 -0.00000000000E+00 -0.23456819228E+03  0.23456819228E+03  0.00000000000E+00 0.  1.
          6    1    1    2  501    0  0.25587385243E+02 -0.54792933443E+02  0.17407410895E+03  0.25276031185E+03  0.17300000000E+03 0.  1.
         -6    1    1    2    0  503 -0.25587385243E+02  0.54792933443E+02 -0.15221578847E+03  0.23823439319E+03  0.17300000000E+03 0.  1.
<mgrwt>
<rscale>  2 0.18326478E+03</rscale>
<asrwt>0</asrwt>
<pdfrwt beam="1">  1       21 0.39450233E-01 0.18326478E+03</pdfrwt>
<pdfrwt beam="2">  1       21 0.36087414E-01 0.18326478E+03</pdfrwt>
<totfact> 0.46073512E+04</totfact>
</mgrwt>
</event>
<event>
 4    3  0.3906307E+000  0.2137797E+03  0.7546771E-02  0.1138607E+00
         21   -1    0    0  503  502  0.00000000000E+00  0.00000000000E+00  0.65517100569E+03  0.65517100569E+03  0.00000000000E+00 0. -1.
         21   -1    0    0  501  503 -0.00000000000E+00 -0.00000000000E+00 -0.19869225887E+03  0.19869225887E+03  0.00000000000E+00 0.  1.
          6    1    1    2  501    0  0.75989351804E+01 -0.12535949278E+03 -0.11567974930E+03  0.24307108147E+03  0.17300000000E+03 0.  1.
         -6    1    1    2    0  502 -0.75989351804E+01  0.12535949278E+03  0.57215849612E+03  0.61079218310E+03  0.17300000000E+03 0. -1.
<mgrwt>
<rscale>  2 0.21377967E+03</rscale>
<asrwt>0</asrwt>
<pdfrwt beam="1">  1       21 0.10079554E+00 0.21377967E+03</pdfrwt>
<pdfrwt beam="2">  1       21 0.30568040E-01 0.21377967E+03</pdfrwt>
<totfact> 0.81522192E+03</totfact>
</mgrwt>
</event>
<event>
 4    3  0.3906307E+000  0.3052212E+03  0.7546771E-02  0.1082659E+00
         21   -1    0    0  503  502  0.00000000000E+00  0.00000000000E+00  0.15659054677E+03  0.15659054677E+03  0.00000000000E+00 0.  1.
         21   -1    0    0  501  503 -0.00000000000E+00 -0.00000000000E+00 -0.62488348237E+03  0.62488348237E+03  0.00000000000E+00 0. -1.
          6    1    1    2  501    0 -0.18299875155E+03 -0.17245994797E+03 -0.31969822503E+03  0.44200331652E+03  0.17300000000E+03 0.  1.
         -6    1    1    2    0  502  0.18299875155E+03  0.17245994797E+03 -0.14859471057E+03  0.33947071263E+03  0.17300000000E+03 0. -1.
<mgrwt>
<rscale>  2 0.30522119E+03</rscale>
<asrwt>0</asrwt>
<pdfrwt beam="1">  1       21 0.24090853E-01 0.30522119E+03</pdfrwt>
<pdfrwt beam="2">  1       21 0.96135920E-01 0.30522119E+03</pdfrwt>
<totfact> 0.13783472E+04</totfact>
</mgrwt>
</event>
<event>
 4    3  0.3906307E+000  0.1894687E+03  0.7546771E-02  0.1158941E+00
         21   -1    0    0  503  502  0.00000000000E+00  0.00000000000E+00  0.79890581194E+03  0.79890581194E+03  0.00000000000E+00 0.  1.
         21   -1    0    0  501  503 -0.00000000000E+00 -0.00000000000E+00 -0.88380724453E+02  0.88380724453E+02  0.00000000000E+00 0.  1.
          6    1    1    2  501    0  0.12113727123E+02 -0.76306145676E+02  0.44211593799E+02  0.19455856516E+03  0.17300000000E+03 0.  1.
         -6    1    1    2    0  502 -0.12113727123E+02  0.76306145676E+02  0.66631349369E+03  0.69272797123E+03  0.17300000000E+03 0.  1.
<mgrwt>
<rscale>  2 0.18946865E+03</rscale>
<asrwt>0</asrwt>
<pdfrwt beam="1">  1       21 0.12290858E+00 0.18946865E+03</pdfrwt>
<pdfrwt beam="2">  1       21 0.13597035E-01 0.18946865E+03</pdfrwt>
<totfact> 0.23369922E+04</totfact>
</mgrwt>
</event>
<event>
 4    3  0.3906307E+000  0.2074471E+03  0.7546771E-02  0.1143604E+00
         21   -1    0    0  501  502  0.00000000000E+00  0.00000000000E+00  0.28795878619E+03  0.28795878619E+03  0.00000000000E+00 0. -1.
         21   -1    0    0  502  503 -0.00000000000E+00 -0.00000000000E+00 -0.15969933384E+03  0.15969933384E+03  0.00000000000E+00 0. -1.
          6    1    1    2  501    0 -0.11390313133E+03  0.11462331522E+02  0.74149757383E+01  0.20757959976E+03  0.17300000000E+03 0. -1.
         -6    1    1    2    0  503  0.11390313133E+03 -0.11462331522E+02  0.12084447661E+03  0.24007852028E+03  0.17300000000E+03 0. -1.
<mgrwt>
<rscale>  2 0.20744712E+03</rscale>
<asrwt>0</asrwt>
<pdfrwt beam="1">  1       21 0.44301352E-01 0.20744712E+03</pdfrwt>
<pdfrwt beam="2">  1       21 0.24569128E-01 0.20744712E+03</pdfrwt>
<totfact> 0.76124215E+04</totfact>
</mgrwt>
</event>
<event>
 4    3  0.3906307E+000  0.1832215E+03  0.7546771E-02  0.1164721E+00
         21   -1    0    0  501  502  0.00000000000E+00  0.00000000000E+00  0.24191157620E+03  0.24191157620E+03  0.00000000000E+00 0.  1.
         21   -1    0    0  502  503 -0.00000000000E+00 -0.00000000000E+00 -0.25243354765E+03  0.25243354765E+03  0.00000000000E+00 0.  1.
          6    1    1    2  501    0  0.19717289071E+02  0.57029410357E+02  0.16059719113E+03  0.24364232582E+03  0.17300000000E+03 0.  1.
         -6    1    1    2    0  503 -0.19717289071E+02 -0.57029410357E+02 -0.17111916259E+03  0.25070279803E+03  0.17300000000E+03 0.  1.
<mgrwt>
<rscale>  2 0.18322152E+03</rscale>
<asrwt>0</asrwt>
<pdfrwt beam="1">  1       21 0.37217166E-01 0.18322152E+03</pdfrwt>
<pdfrwt beam="2">  1       21 0.38835930E-01 0.18322152E+03</pdfrwt>
<totfact> 0.44717113E+04</totfact>
</mgrwt>
</event>
<event>
 4    3  0.3906307E+000  0.1825201E+03  0.7546771E-02  0.1165386E+00
         21   -1    0    0  503  502  0.00000000000E+00  0.00000000000E+00  0.24914514353E+03  0.24914514353E+03  0.00000000000E+00 0. -1.
         21   -1    0    0  501  503 -0.00000000000E+00 -0.00000000000E+00 -0.27046044636E+03  0.27046044636E+03  0.00000000000E+00 0. -1.
          6    1    1    2  501    0 -0.47664614889E+02  0.33356630975E+02 -0.19539464542E+03  0.26738109096E+03  0.17300000000E+03 0. -1.
         -6    1    1    2    0  502  0.47664614889E+02 -0.33356630975E+02  0.17407934260E+03  0.25222449893E+03  0.17300000000E+03 0. -1.
<mgrwt>
<rscale>  2 0.18252008E+03</rscale>
<asrwt>0</asrwt>
<pdfrwt beam="1">  1       21 0.38330022E-01 0.18252008E+03</pdfrwt>
<pdfrwt beam="2">  1       21 0.41609299E-01 0.18252008E+03</pdfrwt>
<totfact> 0.36689071E+04</totfact>
</mgrwt>
</event>
<event>
 4    3  0.3906307E+000  0.2301795E+03  0.7546771E-02  0.1126514E+00
         21   -1    0    0  501  502  0.00000000000E+00  0.00000000000E+00  0.44100633132E+03  0.44100633132E+03  0.00000000000E+00 0.  1.
         21   -1    0    0  502  503 -0.00000000000E+00 -0.00000000000E+00 -0.14768289487E+03  0.14768289487E+03  0.00000000000E+00 0. -1.
          6    1    1    2  501    0  0.14865916481E+03  0.30887534631E+02  0.27377596862E+03  0.35768123807E+03  0.17300000000E+03 0.  1.
         -6    1    1    2    0  503 -0.14865916481E+03 -0.30887534631E+02  0.19547467832E+02  0.23100798812E+03  0.17300000000E+03 0. -1.
<mgrwt>
<rscale>  2 0.23017947E+03</rscale>
<asrwt>0</asrwt>
<pdfrwt beam="1">  1       21 0.67847127E-01 0.23017947E+03</pdfrwt>
<pdfrwt beam="2">  1       21 0.22720446E-01 0.23017947E+03</pdfrwt>
<totfact> 0.35367301E+04</totfact>
</mgrwt>
</event>
<event>
 4    3  0.3906307E+000  0.2304688E+03  0.7546771E-02  0.1126310E+00
         21   -1    0    0  501  502  0.00000000000E+00  0.00000000000E+00  0.32409260490E+03  0.32409260490E+03  0.00000000000E+00 0. -1.
         21   -1    0    0  502  503 -0.00000000000E+00 -0.00000000000E+00 -0.96306560648E+03  0.96306560648E+03  0.00000000000E+00 0. -1.
          6    1    1    2  501    0  0.14194143241E+03 -0.55131518803E+02  0.26677968046E+03  0.35254397244E+03  0.17300000000E+03 0. -1.
         -6    1    1    2    0  503 -0.14194143241E+03  0.55131518803E+02 -0.90575268204E+03  0.93461423894E+03  0.17300000000E+03 0. -1.
<mgrwt>
<rscale>  2 0.23046877E+03</rscale>
<asrwt>0</asrwt>
<pdfrwt beam="1">  1       21 0.49860401E-01 0.23046877E+03</pdfrwt>
<pdfrwt beam="2">  1       21 0.14816394E+00 0.23046877E+03</pdfrwt>
<totfact> 0.11410264E+03</totfact>
</mgrwt>
</event>
<event>
 4    3  0.3906307E+000  0.1837551E+03  0.7546771E-02  0.1164218E+00
         21   -1    0    0  503  502  0.00000000000E+00  0.00000000000E+00  0.43471588557E+02  0.43471588557E+02  0.00000000000E+00 0. -1.
         21   -1    0    0  501  503 -0.00000000000E+00 -0.00000000000E+00 -0.87534304134E+03  0.87534304134E+03  0.00000000000E+00 0.  1.
          6    1    1    2  501    0  0.53486056212E+02 -0.31243629679E+02 -0.57012849450E+03  0.59900953485E+03  0.17300000000E+03 0.  1.
         -6    1    1    2    0  502 -0.53486056212E+02  0.31243629679E+02 -0.26174295828E+03  0.31980509504E+03  0.17300000000E+03 0. -1.
<mgrwt>
<rscale>  2 0.18375506E+03</rscale>
<asrwt>0</asrwt>
<pdfrwt beam="1">  1       21 0.66879376E-02 0.18375506E+03</pdfrwt>
<pdfrwt beam="2">  1       21 0.13466814E+00 0.18375506E+03</pdfrwt>
<totfact> 0.64980037E+04</totfact>
</mgrwt>
</event>
<event>
 4    3  0.3906307E+000  0.2672622E+03  0.7546771E-02  0.1102857E+00
         21   -1    0    0  501  502  0.00000000000E+00  0.00000000000E+00  0.31646320028E+03  0.31646320028E+03  0.00000000000E+00 0. -1.
         21   -1    0    0  502  503 -0.00000000000E+00 -0.00000000000E+00 -0.28913427937E+03  0.28913427937E+03  0.00000000000E+00 0.  1.
          6    1    1    2  501    0  0.10571285885E+03 -0.17414043973E+03  0.15548200485E+03  0.30919856906E+03  0.17300000000E+03 0. -1.
         -6    1    1    2    0  503 -0.10571285885E+03  0.17414043973E+03 -0.12815308394E+03  0.29639891059E+03  0.17300000000E+03 0.  1.
<mgrwt>
<rscale>  2 0.26726223E+03</rscale>
<asrwt>0</asrwt>
<pdfrwt beam="1">  1       21 0.48686646E-01 0.26726223E+03</pdfrwt>
<pdfrwt beam="2">  1       21 0.44482197E-01 0.26726223E+03</pdfrwt>
<totfact> 0.18782652E+04</totfact>
</mgrwt>
</event>
<event>
 4    3  0.3906307E+000  0.1757827E+03  0.7546771E-02  0.1171948E+00
         21   -1    0    0  501  502  0.00000000000E+00  0.00000000000E+00  0.25129613926E+03  0.25129613926E+03  0.00000000000E+00 0.  1.
         21   -1    0    0  502  503 -0.00000000000E+00 -0.00000000000E+00 -0.16870988674E+03  0.16870988674E+03  0.00000000000E+00 0.  1.
          6    1    1    2  501    0  0.58178609745E+01  0.30605834644E+02  0.15065014359E+03  0.23150600507E+03  0.17300000000E+03 0.  1.
         -6    1    1    2    0  503 -0.58178609745E+01 -0.30605834644E+02 -0.68063891079E+02  0.18850002093E+03  0.17300000000E+03 0.  1.
<mgrwt>
<rscale>  2 0.17578272E+03</rscale>
<asrwt>0</asrwt>
<pdfrwt beam="1">  1       21 0.38660945E-01 0.17578272E+03</pdfrwt>
<pdfrwt beam="2">  1       21 0.25955367E-01 0.17578272E+03</pdfrwt>
<totfact> 0.91554308E+04</totfact>
</mgrwt>
</event>
<event>
 4    3  0.3906307E+000  0.2791240E+03  0.7546771E-02  0.1096168E+00
         21   -1    0    0  501  502  0.00000000000E+00  0.00000000000E+00  0.95409845465E+03  0.95409845465E+03  0.00000000000E+00 0. -1.
         21   -1    0    0  502  503 -0.00000000000E+00 -0.00000000000E+00 -0.18039496698E+03  0.18039496698E+03  0.00000000000E+00 0.  1.
          6    1    1    2  501    0 -0.21867319262E+03 -0.12776554396E+02  0.80651279975E+03  0.85344777326E+03  0.17300000000E+03 0. -1.
         -6    1    1    2    0  503  0.21867319262E+03  0.12776554396E+02 -0.32809312081E+02  0.28104564838E+03  0.17300000000E+03 0.  1.
<mgrwt>
<rscale>  2 0.27912400E+03</rscale>
<asrwt>0</asrwt>
<pdfrwt beam="1">  1       21 0.14678438E+00 0.27912400E+03</pdfrwt>
<pdfrwt beam="2">  1       21 0.27753072E-01 0.27912400E+03</pdfrwt>
<totfact> 0.36783139E+03</totfact>
</mgrwt>
</event>
<event>
 4    3  0.3906307E+000  0.3231410E+03  0.7546771E-02  0.1074213E+00
         21   -1    0    0  503  502  0.00000000000E+00  0.00000000000E+00  0.73364007362E+03  0.73364007362E+03  0.00000000000E+00 0. -1.
         21   -1    0    0  501  503 -0.00000000000E+00 -0.00000000000E+00 -0.15472189272E+03  0.15472189272E+03  0.00000000000E+00 0.  1.
          6    1    1    2  501    0  0.15792821297E+03  0.22259777356E+03  0.41515660235E+03  0.52609418712E+03  0.17300000000E+03 0. -1.
         -6    1    1    2    0  502 -0.15792821297E+03 -0.22259777356E+03  0.16376157854E+03  0.36226777921E+03  0.17300000000E+03 0.  1.
<mgrwt>
<rscale>  2 0.32314097E+03</rscale>
<asrwt>0</asrwt>
<pdfrwt beam="1">  1       21 0.11286770E+00 0.32314097E+03</pdfrwt>
<pdfrwt beam="2">  1       21 0.23803369E-01 0.32314097E+03</pdfrwt>
<totfact> 0.94789274E+03</totfact>
</mgrwt>
</event>
<event>
 4    3  0.3906307E+000  0.1733483E+03  0.7546771E-02  0.1174400E+00
         21   -1    0    0  503  502  0.00000000000E+00  0.00000000000E+00  0.11925772786E+03  0.11925772786E+03  0.00000000000E+00 0.  1.
         21   -1    0    0  501  503 -0.00000000000E+00 -0.00000000000E+00 -0.25291557078E+03  0.25291557078E+03  0.00000000000E+00 0.  1.
          6    1    1    2  501    0  0.89825908772E+01 -0.63193580306E+01 -0.55463395291E+02  0.18200497093E+03  0.17300000000E+03 0.  1.
         -6    1    1    2    0  502 -0.89825908772E+01  0.63193580306E+01 -0.78194447629E+02  0.19016832771E+03  0.17300000000E+03 0.  1.
<mgrwt>
<rscale>  2 0.17334827E+03</rscale>
<asrwt>0</asrwt>
<pdfrwt beam="1">  1       21 0.18347343E-01 0.17334827E+03</pdfrwt>
<pdfrwt beam="2">  1       21 0.38910087E-01 0.17334827E+03</pdfrwt>
<totfact> 0.17361196E+05</totfact>
</mgrwt>
</event>
<event>
 4    3  0.3906307E+000  0.1849171E+03  0.7546771E-02  0.1163127E+00
         21   -1    0    0  503  502  0.00000000000E+00  0.00000000000E+00  0.16100094781E+03  0.16100094781E+03  0.00000000000E+00 0.  1.
         21   -1    0    0  501  503 -0.00000000000E+00 -0.00000000000E+00 -0.39956779992E+03  0.39956779992E+03  0.00000000000E+00 0.  1.
          6    1    1    2  501    0  0.22726206711E+02  0.61227850529E+02 -0.31112184125E+03  0.36192696812E+03  0.17300000000E+03 0.  1.
         -6    1    1    2    0  502 -0.22726206711E+02 -0.61227850529E+02  0.72554989141E+02  0.19864177960E+03  0.17300000000E+03 0.  1.
<mgrwt>
<rscale>  2 0.18491709E+03</rscale>
<asrwt>0</asrwt>
<pdfrwt beam="1">  1       21 0.24769377E-01 0.18491709E+03</pdfrwt>
<pdfrwt beam="2">  1       21 0.61471969E-01 0.18491709E+03</pdfrwt>
<totfact> 0.38067996E+04</totfact>
</mgrwt>
</event>
<event>
 4    3  0.3906307E+000  0.1922322E+03  0.7546771E-02  0.1156463E+00
         21   -1    0    0  503  502  0.00000000000E+00  0.00000000000E+00  0.99690414498E+02  0.99690414498E+02  0.00000000000E+00 0. -1.
         21   -1    0    0  501  503 -0.00000000000E+00 -0.00000000000E+00 -0.60406671709E+03  0.60406671709E+03  0.00000000000E+00 0. -1.
          6    1    1    2  501    0  0.39385989250E+01 -0.83717913912E+02 -0.47090830943E+03  0.50863330363E+03  0.17300000000E+03 0. -1.
         -6    1    1    2    0  502 -0.39385989250E+01  0.83717913912E+02 -0.33467993165E+02  0.19512382796E+03  0.17300000000E+03 0. -1.
<mgrwt>
<rscale>  2 0.19223216E+03</rscale>
<asrwt>0</asrwt>
<pdfrwt beam="1">  1       21 0.15336987E-01 0.19223216E+03</pdfrwt>
<pdfrwt beam="2">  1       21 0.92933341E-01 0.19223216E+03</pdfrwt>
<totfact> 0.36746634E+04</totfact>
</mgrwt>
</event>
<event>
 4    3  0.3906307E+000  0.1770043E+03  0.7546771E-02  0.1170734E+00
         21   -1    0    0  501  502  0.00000000000E+00  0.00000000000E+00  0.12120760068E+04  0.12120760068E+04  0.00000000000E+00 0. -1.
         21   -1    0    0  502  503 -0.00000000000E+00 -0.00000000000E+00 -0.54225907076E+02  0.54225907076E+02  0.00000000000E+00 0. -1.
          6    1    1    2  501    0 -0.20878456257E+02 -0.31074463103E+02  0.10369498972E+04  0.10519484880E+04  0.17300000000E+03 0. -1.
         -6    1    1    2    0  503  0.20878456257E+02  0.31074463103E+02  0.12090020251E+03  0.21435342582E+03  0.17300000000E+03 0. -1.
<mgrwt>
<rscale>  2 0.17700433E+03</rscale>
<asrwt>0</asrwt>
<pdfrwt beam="1">  1       21 0.18647321E+00 0.17700433E+03</pdfrwt>
<pdfrwt beam="2">  1       21 0.83424482E-02 0.17700433E+03</pdfrwt>
<totfact> 0.18578523E+04</totfact>
</mgrwt>
</event>
<event>
 4    3  0.3906307E+000  0.1897295E+03  0.7546771E-02  0.1158706E+00
         21   -1    0    0  503  502  0.00000000000E+00  0.00000000000E+00  0.19728735857E+03  0.19728735857E+03  0.00000000000E+00 0. -1.
         21   -1    0    0  501  503 -0.00000000000E+00 -0.00000000000E+00 -0.24604764902E+03  0.24604764902E+03  0.00000000000E+00 0. -1.
          6    1    1    2  501    0 -0.56100090211E+02 -0.54046831911E+02 -0.13706741222E+03  0.23406143564E+03  0.17300000000E+03 0. -1.
         -6    1    1    2    0  502  0.56100090211E+02  0.54046831911E+02  0.88307121772E+02  0.20927357195E+03  0.17300000000E+03 0. -1.
<mgrwt>
<rscale>  2 0.18972949E+03</rscale>
<asrwt>0</asrwt>
<pdfrwt beam="1">  1       21 0.30351901E-01 0.18972949E+03</pdfrwt>
<pdfrwt beam="2">  1       21 0.37853484E-01 0.18972949E+03</pdfrwt>
<totfact> 0.70197178E+04</totfact>
</mgrwt>
</event>
<event>
 4    3  0.3906307E+000  0.2522889E+03  0.7546771E-02  0.1111867E+00
         21   -1    0    0  503  502  0.00000000000E+00  0.00000000000E+00  0.25560750619E+03  0.25560750619E+03  0.00000000000E+00 0.  1.
         21   -1    0    0  501  503 -0.00000000000E+00 -0.00000000000E+00 -0.97135116733E+03  0.97135116733E+03  0.00000000000E+00 0.  1.
          6    1    1    2  501    0  0.18338090015E+03 -0.95974033675E+01 -0.88690390333E+03  0.92208904041E+03  0.17300000000E+03 0.  1.
         -6    1    1    2    0  502 -0.18338090015E+03  0.95974033675E+01  0.17116024220E+03  0.30486963312E+03  0.17300000000E+03 0.  1.
<mgrwt>
<rscale>  2 0.25228885E+03</rscale>
<asrwt>0</asrwt>
<pdfrwt beam="1">  1       21 0.39324232E-01 0.25228885E+03</pdfrwt>
<pdfrwt beam="2">  1       21 0.14943864E+00 0.25228885E+03</pdfrwt>
<totfact> 0.17874696E+03</totfact>
</mgrwt>
</event>
<event>
 4    3  0.3906307E+000  0.1781492E+03  0.7546771E-02  0.1169606E+00
         21   -1    0    0  503  502  0.00000000000E+00  0.00000000000E+00  0.41014685421E+02  0.41014685421E+02  0.00000000000E+00 0.  1.
         21   -1    0    0  501  503 -0.00000000000E+00 -0.00000000000E+00 -0.77389399240E+03  0.77389399240E+03  0.00000000000E+00 0.  1.
          6    1    1    2  501    0  0.42225368717E+02 -0.50159701930E+01 -0.37094276152E+03  0.41150416042E+03  0.17300000000E+03 0.  1.
         -6    1    1    2    0  502 -0.42225368717E+02  0.50159701930E+01 -0.36193654546E+03  0.40340451741E+03  0.17300000000E+03 0.  1.
<mgrwt>
<rscale>  2 0.17814921E+03</rscale>
<asrwt>0</asrwt>
<pdfrwt beam="1">  1       21 0.63099521E-02 0.17814921E+03</pdfrwt>
<pdfrwt beam="2">  1       21 0.11906060E+00 0.17814921E+03</pdfrwt>
<totfact> 0.98011746E+04</totfact>
</mgrwt>
</event>
<event>
 4    3  0.3906307E+000  0.1773594E+03  0.7546771E-02  0.1170383E+00
         21   -1    0    0  503  502  0.00000000000E+00  0.00000000000E+00  0.10111359117E+03  0.10111359117E+03  0.00000000000E+00 0. -1.
         21   -1    0    0  501  503 -0.00000000000E+00 -0.00000000000E+00 -0.48136648567E+03  0.48136648567E+03  0.00000000000E+00 0. -1.
          6    1    1    2  501    0  0.18541153673E+02 -0.34403413605E+02 -0.36333870024E+03  0.40431594124E+03  0.17300000000E+03 0. -1.
         -6    1    1    2    0  502 -0.18541153673E+02  0.34403413605E+02 -0.16914194260E+02  0.17816413560E+03  0.17300000000E+03 0. -1.
<mgrwt>
<rscale>  2 0.17735944E+03</rscale>
<asrwt>0</asrwt>
<pdfrwt beam="1">  1       21 0.15555937E-01 0.17735944E+03</pdfrwt>
<pdfrwt beam="2">  1       21 0.74056383E-01 0.17735944E+03</pdfrwt>
<totfact> 0.60458847E+04</totfact>
</mgrwt>
</event>
<event>
 4    3  0.3906307E+000  0.1874409E+03  0.7546771E-02  0.1160790E+00
         21   -1    0    0  501  502  0.00000000000E+00  0.00000000000E+00  0.15413809695E+03  0.15413809695E+03  0.00000000000E+00 0. -1.
         21   -1    0    0  502  503 -0.00000000000E+00 -0.00000000000E+00 -0.24742853977E+03  0.24742853977E+03  0.00000000000E+00 0. -1.
          6    1    1    2  501    0  0.74491156687E+01 -0.71760781411E+02 -0.10299632304E+03  0.21387459324E+03  0.17300000000E+03 0. -1.
         -6    1    1    2    0  503 -0.74491156687E+01  0.71760781411E+02  0.97058802223E+01  0.18769204347E+03  0.17300000000E+03 0. -1.
<mgrwt>
<rscale>  2 0.18744092E+03</rscale>
<asrwt>0</asrwt>
<pdfrwt beam="1">  1       21 0.23713554E-01 0.18744092E+03</pdfrwt>
<pdfrwt beam="2">  1       21 0.38065929E-01 0.18744092E+03</pdfrwt>
<totfact> 0.11168530E+05</totfact>
</mgrwt>
</event>
<event>
 4    3  0.3906307E+000  0.2061604E+03  0.7546771E-02  0.1144643E+00
         21   -1    0    0  501  502  0.00000000000E+00  0.00000000000E+00  0.16691148293E+03  0.16691148293E+03  0.00000000000E+00 0. -1.
         21   -1    0    0  502  503 -0.00000000000E+00 -0.00000000000E+00 -0.25648217594E+03  0.25648217594E+03  0.00000000000E+00 0. -1.
          6    1    1    2  501    0 -0.98393613956E+02  0.53775470134E+02 -0.62733410219E+02  0.21549381711E+03  0.17300000000E+03 0. -1.
         -6    1    1    2    0  503  0.98393613956E+02 -0.53775470134E+02 -0.26837282787E+02  0.20789984176E+03  0.17300000000E+03 0. -1.
<mgrwt>
<rscale>  2 0.20616039E+03</rscale>
<asrwt>0</asrwt>
<pdfrwt beam="1">  1       21 0.25678690E-01 0.20616039E+03</pdfrwt>
<pdfrwt beam="2">  1       21 0.39458796E-01 0.20616039E+03</pdfrwt>
<totfact> 0.88599548E+04</totfact>
</mgrwt>
</event>
<event>
 4    3  0.3906307E+000  0.1844273E+03  0.7546771E-02  0.1163586E+00
         21   -1    0    0  501  502  0.00000000000E+00  0.00000000000E+00  0.23212334121E+03  0.23212334121E+03  0.00000000000E+00 0.  1.
         21   -1    0    0  502  503 -0.00000000000E+00 -0.00000000000E+00 -0.15199910022E+03  0.15199910022E+03  0.00000000000E+00 0.  1.
          6    1    1    2  501    0  0.59437530293E+02 -0.23486022477E+02  0.76488171971E+02  0.19965934416E+03  0.17300000000E+03 0. -1.
         -6    1    1    2    0  503 -0.59437530293E+02  0.23486022477E+02  0.36360690199E+01  0.18446309728E+03  0.17300000000E+03 0. -1.
<mgrwt>
<rscale>  2 0.18442726E+03</rscale>
<asrwt>0</asrwt>
<pdfrwt beam="1">  1       21 0.35711283E-01 0.18442726E+03</pdfrwt>
<pdfrwt beam="2">  1       21 0.23384477E-01 0.18442726E+03</pdfrwt>
<totfact> 0.13040850E+05</totfact>
</mgrwt>
</event>
<event>
 4    3  0.3906307E+000  0.1753660E+03  0.7546771E-02  0.1172365E+00
         21   -1    0    0  503  502  0.00000000000E+00  0.00000000000E+00  0.22245794741E+02  0.22245794741E+02  0.00000000000E+00 0.  1.
         21   -1    0    0  501  503 -0.00000000000E+00 -0.00000000000E+00 -0.14022408207E+04  0.14022408207E+04  0.00000000000E+00 0.  1.
          6    1    1    2  501    0  0.13592751394E+01 -0.28677530803E+02 -0.60533891385E+03  0.63022888622E+03  0.17300000000E+03 0.  1.
         -6    1    1    2    0  502 -0.13592751394E+01  0.28677530803E+02 -0.77465611206E+03  0.79425772918E+03  0.17300000000E+03 0.  1.
<mgrwt>
<rscale>  2 0.17536604E+03</rscale>
<asrwt>0</asrwt>
<pdfrwt beam="1">  1       21 0.34224298E-02 0.17536604E+03</pdfrwt>
<pdfrwt beam="2">  1       21 0.21572937E+00 0.17536604E+03</pdfrwt>
<totfact> 0.55000143E+04</totfact>
</mgrwt>
</event>
<event>
 4    3  0.3906307E+000  0.2990849E+03  0.7546771E-02  0.1085699E+00
         21   -1    0    0  501  502  0.00000000000E+00  0.00000000000E+00  0.20309535285E+03  0.20309535285E+03  0.00000000000E+00 0.  1.
         21   -1    0    0  502  503 -0.00000000000E+00 -0.00000000000E+00 -0.45294916344E+03  0.45294916344E+03  0.00000000000E+00 0. -1.
          6    1    1    2  501    0 -0.24096372053E+03 -0.38200367414E+02 -0.70419823965E+02  0.30726329799E+03  0.17300000000E+03 0.  1.
         -6    1    1    2    0  503  0.24096372053E+03  0.38200367414E+02 -0.17943398662E+03  0.34878121830E+03  0.17300000000E+03 0. -1.
<mgrwt>
<rscale>  2 0.29908491E+03</rscale>
<asrwt>0</asrwt>
<pdfrwt beam="1">  1       21 0.31245439E-01 0.29908491E+03</pdfrwt>
<pdfrwt beam="2">  1       21 0.69684486E-01 0.29908491E+03</pdfrwt>
<totfact> 0.17445399E+04</totfact>
</mgrwt>
</event>
<event>
 4    3  0.3906307E+000  0.1879106E+03  0.7546771E-02  0.1160359E+00
         21   -1    0    0  503  502  0.00000000000E+00  0.00000000000E+00  0.90675090224E+03  0.90675090224E+03  0.00000000000E+00 0.  1.
         21   -1    0    0  501  503 -0.00000000000E+00 -0.00000000000E+00 -0.44269362159E+02  0.44269362159E+02  0.00000000000E+00 0.  1.
          6    1    1    2  501    0 -0.69832036180E+02 -0.22469718766E+02  0.26628125018E+03  0.32590812469E+03  0.17300000000E+03 0.  1.
         -6    1    1    2    0  502  0.69832036180E+02  0.22469718766E+02  0.59620028990E+03  0.62511213971E+03  0.17300000000E+03 0.  1.
<mgrwt>
<rscale>  2 0.18791062E+03</rscale>
<asrwt>0</asrwt>
<pdfrwt beam="1">  1       21 0.13950012E+00 0.18791062E+03</pdfrwt>
<pdfrwt beam="2">  1       21 0.68106718E-02 0.18791062E+03</pdfrwt>
<totfact> 0.57419985E+04</totfact>
</mgrwt>
</event>
<event>
 4    3  0.3906307E+000  0.2080551E+03  0.7546771E-02  0.1143115E+00
         21   -1    0    0  503  502  0.00000000000E+00  0.00000000000E+00  0.26973005436E+03  0.26973005436E+03  0.00000000000E+00 0. -1.
         21   -1    0    0  501  503 -0.00000000000E+00 -0.00000000000E+00 -0.31300924285E+03  0.31300924285E+03  0.00000000000E+00 0.  1.
          6    1    1    2  501    0 -0.11421563431E+03  0.17684037043E+02 -0.22503391295E+03  0.30647544480E+03  0.17300000000E+03 0.  1.
         -6    1    1    2    0  502  0.11421563431E+03 -0.17684037043E+02  0.18175472446E+03  0.27626385241E+03  0.17300000000E+03 0. -1.
<mgrwt>
<rscale>  2 0.20805513E+03</rscale>
<asrwt>0</asrwt>
<pdfrwt beam="1">  1       21 0.41496932E-01 0.20805513E+03</pdfrwt>
<pdfrwt beam="2">  1       21 0.48155268E-01 0.20805513E+03</pdfrwt>
<totfact> 0.22833357E+04</totfact>
</mgrwt>
</event>
<event>
 4    3  0.3906307E+000  0.1749554E+03  0.7546771E-02  0.1172777E+00
         21   -1    0    0  503  502  0.00000000000E+00  0.00000000000E+00  0.33263914647E+02  0.33263914647E+02  0.00000000000E+00 0.  1.
         21   -1    0    0  501  503 -0.00000000000E+00 -0.00000000000E+00 -0.10931134917E+04  0.10931134917E+04  0.00000000000E+00 0.  1.
          6    1    1    2  501    0  0.19954804216E+02 -0.16798343869E+02 -0.30592964346E+03  0.35242350278E+03  0.17300000000E+03 0.  1.
         -6    1    1    2    0  502 -0.19954804216E+02  0.16798343869E+02 -0.75391993360E+03  0.77395390357E+03  0.17300000000E+03 0.  1.
<mgrwt>
<rscale>  2 0.17495536E+03</rscale>
<asrwt>0</asrwt>
<pdfrwt beam="1">  1       21 0.51175257E-02 0.17495536E+03</pdfrwt>
<pdfrwt beam="2">  1       21 0.16817129E+00 0.17495536E+03</pdfrwt>
<totfact> 0.57431944E+04</totfact>
</mgrwt>
</event>
<event>
 4    3  0.3906307E+000  0.2152374E+03  0.7546771E-02  0.1137484E+00
         21   -1    0    0  503  502  0.00000000000E+00  0.00000000000E+00  0.74861677760E+03  0.74861677760E+03  0.00000000000E+00 0.  1.
         21   -1    0    0  501  503 -0.00000000000E+00 -0.00000000000E+00 -0.12163477113E+03  0.12163477113E+03  0.00000000000E+00 0. -1.
          6    1    1    2  501    0 -0.12144342414E+03  0.40615793527E+02  0.85197375757E+01  0.21540597457E+03  0.17300000000E+03 0. -1.
         -6    1    1    2    0  502  0.12144342414E+03 -0.40615793527E+02  0.61846226890E+03  0.65484557416E+03  0.17300000000E+03 0.  1.
<mgrwt>
<rscale>  2 0.21523742E+03</rscale>
<asrwt>0</asrwt>
<pdfrwt beam="1">  1       21 0.11517181E+00 0.21523742E+03</pdfrwt>
<pdfrwt beam="2">  1       21 0.18713042E-01 0.21523742E+03</pdfrwt>
<totfact> 0.15037862E+04</totfact>
</mgrwt>
</event>
<event>
 4    3  0.3906307E+000  0.1814783E+03  0.7546771E-02  0.1166380E+00
         21   -1    0    0  503  502  0.00000000000E+00  0.00000000000E+00  0.66004206947E+03  0.66004206947E+03  0.00000000000E+00 0. -1.
         21   -1    0    0  501  503 -0.00000000000E+00 -0.00000000000E+00 -0.13694236106E+03  0.13694236106E+03  0.00000000000E+00 0. -1.
          6    1    1    2  501    0  0.24700113618E+02  0.48941668219E+02 -0.56154199457E+02  0.18996756728E+03  0.17300000000E+03 0. -1.
         -6    1    1    2    0  502 -0.24700113618E+02 -0.48941668219E+02  0.57925390787E+03  0.60701686326E+03  0.17300000000E+03 0. -1.
<mgrwt>
<rscale>  2 0.18147833E+03</rscale>
<asrwt>0</asrwt>
<pdfrwt beam="1">  1       21 0.10154493E+00 0.18147833E+03</pdfrwt>
<pdfrwt beam="2">  1       21 0.21068056E-01 0.18147833E+03</pdfrwt>
<totfact> 0.16694505E+04</totfact>
</mgrwt>
</event>
<event>
 4    3  0.3906307E+000  0.2177937E+03  0.7546771E-02  0.1135539E+00
         21   -1    0    0  503  502  0.00000000000E+00  0.00000000000E+00  0.30738724316E+03  0.30738724316E+03  0.00000000000E+00 0. -1.
         21   -1    0    0  501  503 -0.00000000000E+00 -0.00000000000E+00 -0.33709232418E+03  0.33709232418E+03  0.00000000000E+00 0. -1.
          6    1    1    2  501    0 -0.77529128377E+02 -0.10721156608E+03 -0.25213593105E+03  0.33317654986E+03  0.17300000000E+03 0. -1.
         -6    1    1    2    0  502  0.77529128377E+02  0.10721156608E+03  0.22243085003E+03  0.31130301748E+03  0.17300000000E+03 0. -1.
<mgrwt>
<rscale>  2 0.21779368E+03</rscale>
<asrwt>0</asrwt>
<pdfrwt beam="1">  1       21 0.47290345E-01 0.21779368E+03</pdfrwt>
<pdfrwt beam="2">  1       21 0.51860357E-01 0.21779368E+03</pdfrwt>
<totfact> 0.14867702E+04</totfact>
</mgrwt>
</event>
<event>
 4    3  0.3906307E+000  0.1938735E+03  0.7546771E-02  0.1155013E+00
         21   -1    0    0  501  502  0.00000000000E+00  0.00000000000E+00  0.41581507971E+03  0.41581507971E+03  0.00000000000E+00 0. -1.
         21   -1    0    0  502  503 -0.00000000000E+00 -0.00000000000E+00 -0.91664666860E+02  0.91664666860E+02  0.00000000000E+00 0.  1.
          6    1    1    2  501    0  0.21478925925E+02 -0.84832804349E+02  0.19195667510E+03  0.27282652743E+03  0.17300000000E+03 0. -1.
         -6    1    1    2    0  503 -0.21478925925E+02  0.84832804349E+02  0.13219373774E+03  0.23465321914E+03  0.17300000000E+03 0.  1.
<mgrwt>
<rscale>  2 0.19387354E+03</rscale>
<asrwt>0</asrwt>
<pdfrwt beam="1">  1       21 0.63971549E-01 0.19387354E+03</pdfrwt>
<pdfrwt beam="2">  1       21 0.14102257E-01 0.19387354E+03</pdfrwt>
<totfact> 0.98970164E+04</totfact>
</mgrwt>
</event>
<event>
 4    3  0.3906307E+000  0.2212396E+03  0.7546771E-02  0.1132962E+00
         21   -1    0    0  503  502  0.00000000000E+00  0.00000000000E+00  0.64558166385E+03  0.64558166385E+03  0.00000000000E+00 0. -1.
         21   -1    0    0  501  503 -0.00000000000E+00 -0.00000000000E+00 -0.88407290025E+02  0.88407290025E+02  0.00000000000E+00 0.  1.
          6    1    1    2  501    0  0.10238252233E+03 -0.92389330717E+02  0.14010012674E+03  0.26186831580E+03  0.17300000000E+03 0.  1.
         -6    1    1    2    0  502 -0.10238252233E+03  0.92389330717E+02  0.41707424709E+03  0.47212063807E+03  0.17300000000E+03 0. -1.
<mgrwt>
<rscale>  2 0.22123962E+03</rscale>
<asrwt>0</asrwt>
<pdfrwt beam="1">  1       21 0.99320253E-01 0.22123962E+03</pdfrwt>
<pdfrwt beam="2">  1       21 0.13601122E-01 0.22123962E+03</pdfrwt>
<totfact> 0.38505585E+04</totfact>
</mgrwt>
</event>
<event>
 4    3  0.3906307E+000  0.2097996E+03  0.7546771E-02  0.1141725E+00
         21   -1    0    0  501  502  0.00000000000E+00  0.00000000000E+00  0.50282022154E+02  0.50282022154E+02  0.00000000000E+00 0.  1.
         21   -1    0    0  502  503 -0.00000000000E+00 -0.00000000000E+00 -0.94857182189E+03  0.94857182189E+03  0.00000000000E+00 0.  1.
          6    1    1    2  501    0  0.14650986044E+02 -0.11778047390E+03 -0.31041590448E+03  0.37466508402E+03  0.17300000000E+03 0.  1.
         -6    1    1    2    0  503 -0.14650986044E+02  0.11778047390E+03 -0.58787389525E+03  0.62418876003E+03  0.17300000000E+03 0.  1.
<mgrwt>
<rscale>  2 0.20979965E+03</rscale>
<asrwt>0</asrwt>
<pdfrwt beam="1">  1       21 0.77356953E-02 0.20979965E+03</pdfrwt>
<pdfrwt beam="2">  1       21 0.14593413E+00 0.20979965E+03</pdfrwt>
<totfact> 0.40463443E+04</totfact>
</mgrwt>
</event>
<event>
 4    3  0.3906307E+000  0.1742434E+03  0.7546771E-02  0.1173493E+00
         21   -1    0    0  503  502  0.00000000000E+00  0.00000000000E+00  0.15864996509E+03  0.15864996509E+03  0.00000000000E+00 0.  1.
         21   -1    0    0  501  503 -0.00000000000E+00 -0.00000000000E+00 -0.20289647442E+03  0.20289647442E+03  0.00000000000E+00 0.  1.
          6    1    1    2  501    0  0.17595046586E+02 -0.11053975740E+02 -0.65210937207E+02  0.18604634470E+03  0.17300000000E+03 0. -1.
         -6    1    1    2    0  502 -0.17595046586E+02  0.11053975740E+02  0.20964427874E+02  0.17550009482E+03  0.17300000000E+03 0. -1.
<mgrwt>
<rscale>  2 0.17424344E+03</rscale>
<asrwt>0</asrwt>
<pdfrwt beam="1">  1       21 0.24407687E-01 0.17424344E+03</pdfrwt>
<pdfrwt beam="2">  1       21 0.31214842E-01 0.17424344E+03</pdfrwt>
<totfact> 0.15726851E+05</totfact>
</mgrwt>
</event>
<event>
 4    3  0.3906307E+000  0.2846804E+03  0.7546771E-02  0.1093160E+00
         21   -1    0    0  503  502  0.00000000000E+00  0.00000000000E+00  0.11931053285E+04  0.11931053285E+04  0.00000000000E+00 0.  1.
         21   -1    0    0  501  503 -0.00000000000E+00 -0.00000000000E+00 -0.71940683624E+02  0.71940683624E+02  0.00000000000E+00 0. -1.
          6    1    1    2  501    0 -0.22219408510E+03  0.41757793667E+02  0.41116108080E+03  0.50009634986E+03  0.17300000000E+03 0. -1.
         -6    1    1    2    0  502  0.22219408510E+03 -0.41757793667E+02  0.71000356406E+03  0.76494966224E+03  0.17300000000E+03 0. -1.
<mgrwt>
<rscale>  2 0.28468039E+03</rscale>
<asrwt>0</asrwt>
<pdfrwt beam="1">  1       21 0.18355465E+00 0.28468039E+03</pdfrwt>
<pdfrwt beam="2">  1       21 0.11067798E-01 0.28468039E+03</pdfrwt>
<totfact> 0.10971470E+04</totfact>
</mgrwt>
</event>
<event>
 4    3  0.3906307E+000  0.3006458E+03  0.7546771E-02  0.1084918E+00
         21   -1    0    0  503  502  0.00000000000E+00  0.00000000000E+00  0.86374896592E+02  0.86374896592E+02  0.00000000000E+00 0.  1.
         21   -1    0    0  501  503 -0.00000000000E+00 -0.00000000000E+00 -0.11450133796E+04  0.11450133796E+04  0.00000000000E+00 0. -1.
          6    1    1    2  501    0 -0.14241548815E+03  0.20044127940E+03 -0.70995154090E+03  0.77098577690E+03  0.17300000000E+03 0. -1.
         -6    1    1    2    0  502  0.14241548815E+03 -0.20044127940E+03 -0.34868694209E+03  0.46040249927E+03  0.17300000000E+03 0.  1.
<mgrwt>
<rscale>  2 0.30064577E+03</rscale>
<asrwt>0</asrwt>
<pdfrwt beam="1">  1       21 0.13288446E-01 0.30064577E+03</pdfrwt>
<pdfrwt beam="2">  1       21 0.17615590E+00 0.30064577E+03</pdfrwt>
<totfact> 0.87965506E+03</totfact>
</mgrwt>
</event>
<event>
 4    3  0.3906307E+000  0.1831730E+03  0.7546771E-02  0.1164767E+00
         21   -1    0    0  501  502  0.00000000000E+00  0.00000000000E+00  0.23736040806E+03  0.23736040806E+03  0.00000000000E+00 0. -1.
         21   -1    0    0  502  503 -0.00000000000E+00 -0.00000000000E+00 -0.29098047987E+03  0.29098047987E+03  0.00000000000E+00 0. -1.
          6    1    1    2  501    0  0.28898804660E+01  0.60124748785E+02  0.16262203582E+03  0.24494542935E+03  0.17300000000E+03 0. -1.
         -6    1    1    2    0  503 -0.28898804660E+01 -0.60124748785E+02 -0.21624210764E+03  0.28339545857E+03  0.17300000000E+03 0. -1.
<mgrwt>
<rscale>  2 0.18317297E+03</rscale>
<asrwt>0</asrwt>
<pdfrwt beam="1">  1       21 0.36516986E-01 0.18317297E+03</pdfrwt>
<pdfrwt beam="2">  1       21 0.44766228E-01 0.18317297E+03</pdfrwt>
<totfact> 0.34809354E+04</totfact>
</mgrwt>
</event>
<event>
 4    3  0.3906307E+000  0.2313818E+03  0.7546771E-02  0.1125671E+00
         21   -1    0    0  503  502  0.00000000000E+00  0.00000000000E+00  0.88095226350E+03  0.88095226350E+03  0.00000000000E+00 0. -1.
         21   -1    0    0  501  503 -0.00000000000E+00 -0.00000000000E+00 -0.35031772905E+03  0.35031772905E+03  0.00000000000E+00 0. -1.
          6    1    1    2  501    0  0.23834777909E+02 -0.15179084075E+03 -0.29437659741E+03  0.37442641076E+03  0.17300000000E+03 0. -1.
         -6    1    1    2    0  502 -0.23834777909E+02  0.15179084075E+03  0.82501113185E+03  0.85684358179E+03  0.17300000000E+03 0. -1.
<mgrwt>
<rscale>  2 0.23138184E+03</rscale>
<asrwt>0</asrwt>
<pdfrwt beam="1">  1       21 0.13553112E+00 0.23138184E+03</pdfrwt>
<pdfrwt beam="2">  1       21 0.53895035E-01 0.23138184E+03</pdfrwt>
<totfact> 0.12210830E+03</totfact>
</mgrwt>
</event>
<event>
 4    3  0.3906307E+000  0.1961182E+03  0.7546771E-02  0.1153056E+00
         21   -1    0    0  501  502  0.00000000000E+00  0.00000000000E+00  0.16782571176E+04  0.16782571176E+04  0.00000000000E+00 0. -1.
         21   -1    0    0  502  503 -0.00000000000E+00 -0.00000000000E+00 -0.66886554569E+02  0.66886554569E+02  0.00000000000E+00 0.  1.
          6    1    1    2  501    0  0.86833906607E+02  0.31515318575E+02  0.15131466625E+04  0.15258031212E+04  0.17300000000E+03 0. -1.
         -6    1    1    2    0  503 -0.86833906607E+02 -0.31515318575E+02  0.98223900567E+02  0.21934055093E+03  0.17300000000E+03 0.  1.
<mgrwt>
<rscale>  2 0.19611819E+03</rscale>
<asrwt>0</asrwt>
<pdfrwt beam="1">  1       21 0.25819337E+00 0.19611819E+03</pdfrwt>
<pdfrwt beam="2">  1       21 0.10290240E-01 0.19611819E+03</pdfrwt>
<totfact> 0.45757770E+03</totfact>
</mgrwt>
</event>
<event>
 4    3  0.3906307E+000  0.1853834E+03  0.7546771E-02  0.1162692E+00
         21   -1    0    0  503  502  0.00000000000E+00  0.00000000000E+00  0.31206243658E+03  0.31206243658E+03  0.00000000000E+00 0.  1.
         21   -1    0    0  501  503 -0.00000000000E+00 -0.00000000000E+00 -0.18044708766E+03  0.18044708766E+03  0.00000000000E+00 0.  1.
          6    1    1    2  501    0 -0.49820725110E+02 -0.44225631324E+02 -0.87917269245E+02  0.20517421219E+03  0.17300000000E+03 0.  1.
         -6    1    1    2    0  502  0.49820725110E+02  0.44225631324E+02  0.21953261816E+03  0.28733531205E+03  0.17300000000E+03 0.  1.
<mgrwt>
<rscale>  2 0.18538342E+03</rscale>
<asrwt>0</asrwt>
<pdfrwt beam="1">  1       21 0.48009606E-01 0.18538342E+03</pdfrwt>
<pdfrwt beam="2">  1       21 0.27761090E-01 0.18538342E+03</pdfrwt>
<totfact> 0.51532325E+04</totfact>
</mgrwt>
</event>
<event>
 4    3  0.3906307E+000  0.1750572E+03  0.7546771E-02  0.1172674E+00
         21   -1    0    0  501  502  0.00000000000E+00  0.00000000000E+00  0.17944091498E+03  0.17944091498E+03  0.00000000000E+00 0. -1.
         21   -1    0    0  502  503 -0.00000000000E+00 -0.00000000000E+00 -0.26984314135E+03  0.26984314135E+03  0.00000000000E+00 0. -1.
          6    1    1    2  501    0 -0.24577829852E+02  0.10580417982E+02  0.90908939038E+02  0.19725478489E+03  0.17300000000E+03 0. -1.
         -6    1    1    2    0  503  0.24577829852E+02 -0.10580417982E+02 -0.18131116540E+03  0.25202927144E+03  0.17300000000E+03 0. -1.
<mgrwt>
<rscale>  2 0.17505718E+03</rscale>
<asrwt>0</asrwt>
<pdfrwt beam="1">  1       21 0.27606295E-01 0.17505718E+03</pdfrwt>
<pdfrwt beam="2">  1       21 0.41514329E-01 0.17505718E+03</pdfrwt>
<totfact> 0.70482967E+04</totfact>
</mgrwt>
</event>
<event>
 4    3  0.3906307E+000  0.1820233E+03  0.7546771E-02  0.1165859E+00
         21   -1    0    0  503  502  0.00000000000E+00  0.00000000000E+00  0.14870408874E+03  0.14870408874E+03  0.00000000000E+00 0.  1.
         21   -1    0    0  501  503 -0.00000000000E+00 -0.00000000000E+00 -0.22312542762E+03  0.22312542762E+03  0.00000000000E+00 0.  1.
          6    1    1    2  501    0 -0.54660164784E+02 -0.14688206212E+02 -0.44221769737E+02  0.18731802352E+03  0.17300000000E+03 0.  1.
         -6    1    1    2    0  502  0.54660164784E+02  0.14688206212E+02 -0.30199569147E+02  0.18451149285E+03  0.17300000000E+03 0.  1.
<mgrwt>
<rscale>  2 0.18202329E+03</rscale>
<asrwt>0</asrwt>
<pdfrwt beam="1">  1       21 0.22877552E-01 0.18202329E+03</pdfrwt>
<pdfrwt beam="2">  1       21 0.34326988E-01 0.18202329E+03</pdfrwt>
<totfact> 0.14712846E+05</totfact>
</mgrwt>
</event>
<event>
 4    3  0.3906307E+000  0.1892155E+03  0.7546771E-02  0.1159171E+00
         21   -1    0    0  503  502  0.00000000000E+00  0.00000000000E+00  0.91517428733E+03  0.91517428733E+03  0.00000000000E+00 0.  1.
         21   -1    0    0  501  503 -0.00000000000E+00 -0.00000000000E+00 -0.52987802679E+02  0.52987802679E+02  0.00000000000E+00 0.  1.
          6    1    1    2  501    0 -0.76427097460E+02  0.56935096892E+01  0.18345451457E+03  0.26354900150E+03  0.17300000000E+03 0.  1.
         -6    1    1    2    0  502  0.76427097460E+02 -0.56935096892E+01  0.67873197009E+03  0.70461308851E+03  0.17300000000E+03 0.  1.
<mgrwt>
<rscale>  2 0.18921553E+03</rscale>
<asrwt>0</asrwt>
<pdfrwt beam="1">  1       21 0.14079603E+00 0.18921553E+03</pdfrwt>
<pdfrwt beam="2">  1       21 0.81519703E-02 0.18921553E+03</pdfrwt>
<totfact> 0.41031092E+04</totfact>
</mgrwt>
</event>
<event>
 4    3  0.3906307E+000  0.2335530E+03  0.7546771E-02  0.1124164E+00
         21   -1    0    0  501  502  0.00000000000E+00  0.00000000000E+00  0.63010268275E+03  0.63010268275E+03  0.00000000000E+00 0.  1.
         21   -1    0    0  502  503 -0.00000000000E+00 -0.00000000000E+00 -0.17265807522E+03  0.17265807522E+03  0.00000000000E+00 0. -1.
          6    1    1    2  501    0  0.13651281228E+03  0.77345048280E+02  0.51214728884E+03  0.56288706672E+03  0.17300000000E+03 0.  1.
         -6    1    1    2    0  503 -0.13651281228E+03 -0.77345048280E+02 -0.54702681314E+02  0.23987369125E+03  0.17300000000E+03 0. -1.
<mgrwt>
<rscale>  2 0.23355300E+03</rscale>
<asrwt>0</asrwt>
<pdfrwt beam="1">  1       21 0.96938873E-01 0.23355300E+03</pdfrwt>
<pdfrwt beam="2">  1       21 0.26562781E-01 0.23355300E+03</pdfrwt>
<totfact> 0.11604461E+04</totfact>
</mgrwt>
</event>
<event>
 4    3  0.3906307E+000  0.2628516E+03  0.7546771E-02  0.1105442E+00
         21   -1    0    0  503  502  0.00000000000E+00  0.00000000000E+00  0.22045502343E+03  0.22045502343E+03  0.00000000000E+00 0. -1.
         21   -1    0    0  501  503 -0.00000000000E+00 -0.00000000000E+00 -0.46272967001E+03  0.46272967001E+03  0.00000000000E+00 0.  1.
          6    1    1    2  501    0  0.43523982984E+02  0.19304818749E+03 -0.31518806112E+03  0.41040766764E+03  0.17300000000E+03 0.  1.
         -6    1    1    2    0  502 -0.43523982984E+02 -0.19304818749E+03  0.72913414539E+02  0.27277702580E+03  0.17300000000E+03 0.  1.
<mgrwt>
<rscale>  2 0.26285155E+03</rscale>
<asrwt>0</asrwt>
<pdfrwt beam="1">  1       21 0.33916157E-01 0.26285155E+03</pdfrwt>
<pdfrwt beam="2">  1       21 0.71189180E-01 0.26285155E+03</pdfrwt>
<totfact> 0.14366340E+04</totfact>
</mgrwt>
</event>
<event>
 4    3  0.3906307E+000  0.2605417E+03  0.7546771E-02  0.1106818E+00
         21   -1    0    0  501  502  0.00000000000E+00  0.00000000000E+00  0.42186892401E+03  0.42186892401E+03  0.00000000000E+00 0. -1.
         21   -1    0    0  502  503 -0.00000000000E+00 -0.00000000000E+00 -0.20549441086E+03  0.20549441086E+03  0.00000000000E+00 0. -1.
          6    1    1    2  501    0  0.17543130327E+03  0.84716111999E+02  0.25430124910E+03  0.36407566122E+03  0.17300000000E+03 0. -1.
         -6    1    1    2    0  503 -0.17543130327E+03 -0.84716111999E+02 -0.37926735952E+02  0.26328767365E+03  0.17300000000E+03 0. -1.
<mgrwt>
<rscale>  2 0.26054167E+03</rscale>
<asrwt>0</asrwt>
<pdfrwt beam="1">  1       21 0.64902911E-01 0.26054167E+03</pdfrwt>
<pdfrwt beam="2">  1       21 0.31614525E-01 0.26054167E+03</pdfrwt>
<totfact> 0.20282838E+04</totfact>
</mgrwt>
</event>
<event>
 4    3  0.3906307E+000  0.2609410E+03  0.7546771E-02  0.1106579E+00
         21   -1    0    0  503  502  0.00000000000E+00  0.00000000000E+00  0.15703508806E+03  0.15703508806E+03  0.00000000000E+00 0.  1.
         21   -1    0    0  501  503 -0.00000000000E+00 -0.00000000000E+00 -0.55113676636E+03  0.55113676636E+03  0.00000000000E+00 0. -1.
          6    1    1    2  501    0 -0.13194105934E+02 -0.19490279572E+03 -0.36056996220E+03  0.44508525234E+03  0.17300000000E+03 0. -1.
         -6    1    1    2    0  502  0.13194105934E+02  0.19490279572E+03 -0.33531716090E+02  0.26308660208E+03  0.17300000000E+03 0.  1.
<mgrwt>
<rscale>  2 0.26094096E+03</rscale>
<asrwt>0</asrwt>
<pdfrwt beam="1">  1       21 0.24159244E-01 0.26094096E+03</pdfrwt>
<pdfrwt beam="2">  1       21 0.84790272E-01 0.26094096E+03</pdfrwt>
<totfact> 0.18765596E+04</totfact>
</mgrwt>
</event>
<event>
 4    3  0.3906307E+000  0.1954464E+03  0.7546771E-02  0.1153639E+00
         21   -1    0    0  501  502  0.00000000000E+00  0.00000000000E+00  0.97838646204E+03  0.97838646204E+03  0.00000000000E+00 0.  1.
         21   -1    0    0  502  503 -0.00000000000E+00 -0.00000000000E+00 -0.42765920996E+02  0.42765920996E+02  0.00000000000E+00 0.  1.
          6    1    1    2  501    0 -0.90941167684E+02 -0.13443799307E+00  0.61845132104E+03  0.64859953018E+03  0.17300000000E+03 0.  1.
         -6    1    1    2    0  503  0.90941167684E+02  0.13443799307E+00  0.31716922000E+03  0.37255285286E+03  0.17300000000E+03 0.  1.
<mgrwt>
<rscale>  2 0.19544645E+03</rscale>
<asrwt>0</asrwt>
<pdfrwt beam="1">  1       21 0.15052098E+00 0.19544645E+03</pdfrwt>
<pdfrwt beam="2">  1       21 0.65793732E-02 0.19544645E+03</pdfrwt>
<totfact> 0.49776344E+04</totfact>
</mgrwt>
</event>
<event>
 4    3  0.3906307E+000  0.2925850E+03  0.7546771E-02  0.1089007E+00
         21   -1    0    0  503  502  0.00000000000E+00  0.00000000000E+00  0.54124436992E+03  0.54124436992E+03  0.00000000000E+00 0.  1.
         21   -1    0    0  501  503 -0.00000000000E+00 -0.00000000000E+00 -0.20527422983E+03  0.20527422983E+03  0.00000000000E+00 0. -1.
          6    1    1    2  501    0  0.16033188283E+03 -0.17312033575E+03 -0.10826665599E+02  0.29278521136E+03  0.17300000000E+03 0. -1.
         -6    1    1    2    0  502 -0.16033188283E+03  0.17312033575E+03  0.34679680569E+03  0.45373338839E+03  0.17300000000E+03 0.  1.
<mgrwt>
<rscale>  2 0.29258497E+03</rscale>
<asrwt>0</asrwt>
<pdfrwt beam="1">  1       21 0.83268364E-01 0.29258497E+03</pdfrwt>
<pdfrwt beam="2">  1       21 0.31580651E-01 0.29258497E+03</pdfrwt>
<totfact> 0.11442994E+04</totfact>
</mgrwt>
</event>
<event>
 4    3  0.3906307E+000  0.2944841E+03  0.7546771E-02  0.1088031E+00
         21   -1    0    0  501  502  0.00000000000E+00  0.00000000000E+00  0.23959562635E+03  0.23959562635E+03  0.00000000000E+00 0. -1.
         21   -1    0    0  502  503 -0.00000000000E+00 -0.00000000000E+00 -0.53561485330E+03  0.53561485330E+03  0.00000000000E+00 0.  1.
          6    1    1    2  501    0 -0.21714358590E+03  0.98186244248E+02  0.72701028656E+02  0.30332542760E+03  0.17300000000E+03 0. -1.
         -6    1    1    2    0  503  0.21714358590E+03 -0.98186244248E+02 -0.36872025561E+03  0.47188505205E+03  0.17300000000E+03 0.  1.
<mgrwt>
<rscale>  2 0.29448408E+03</rscale>
<asrwt>0</asrwt>
<pdfrwt beam="1">  1       21 0.36860866E-01 0.29448408E+03</pdfrwt>
<pdfrwt beam="2">  1       21 0.82402285E-01 0.29448408E+03</pdfrwt>
<totfact> 0.85981417E+03</totfact>
</mgrwt>
</event>
<event>
 4    3  0.3906307E+000  0.1962855E+03  0.7546771E-02  0.1152911E+00
         21   -1    0    0  503  502  0.00000000000E+00  0.00000000000E+00  0.10722363917E+03  0.10722363917E+03  0.00000000000E+00 0.  1.
         21   -1    0    0  501  503 -0.00000000000E+00 -0.00000000000E+00 -0.38154614067E+03  0.38154614067E+03  0.00000000000E+00 0.  1.
          6    1    1    2  501    0 -0.63932254754E+02  0.67168847344E+02 -0.78182254228E+02  0.21128287230E+03  0.17300000000E+03 0.  1.
         -6    1    1    2    0  502  0.63932254754E+02 -0.67168847344E+02 -0.19614024728E+03  0.27748690753E+03  0.17300000000E+03 0.  1.
<mgrwt>
<rscale>  2 0.19628547E+03</rscale>
<asrwt>0</asrwt>
<pdfrwt beam="1">  1       21 0.16495945E-01 0.19628547E+03</pdfrwt>
<pdfrwt beam="2">  1       21 0.58699406E-01 0.19628547E+03</pdfrwt>
<totfact> 0.89408847E+04</totfact>
</mgrwt>
</event>
<event>
 4    3  0.3906307E+000  0.1795961E+03  0.7546771E-02  0.1168195E+00
         21   -1    0    0  501  502  0.00000000000E+00  0.00000000000E+00  0.29045313228E+03  0.29045313228E+03  0.00000000000E+00 0.  1.
         21   -1    0    0  502  503 -0.00000000000E+00 -0.00000000000E+00 -0.18184216978E+03  0.18184216978E+03  0.00000000000E+00 0.  1.
          6    1    1    2  501    0 -0.27579082437E+02 -0.39561854353E+02  0.20164855426E+03  0.27003126771E+03  0.17300000000E+03 0.  1.
         -6    1    1    2    0  503  0.27579082437E+02  0.39561854353E+02 -0.93037591765E+02  0.20226403434E+03  0.17300000000E+03 0.  1.
<mgrwt>
<rscale>  2 0.17959606E+03</rscale>
<asrwt>0</asrwt>
<pdfrwt beam="1">  1       21 0.44685097E-01 0.17959606E+03</pdfrwt>
<pdfrwt beam="2">  1       21 0.27975719E-01 0.17959606E+03</pdfrwt>
<totfact> 0.59014336E+04</totfact>
</mgrwt>
</event>
<event>
 4    3  0.3906307E+000  0.1787413E+03  0.7546771E-02  0.1169027E+00
         21   -1    0    0  503  502  0.00000000000E+00  0.00000000000E+00  0.16676259062E+03  0.16676259062E+03  0.00000000000E+00 0.  1.
         21   -1    0    0  501  503 -0.00000000000E+00 -0.00000000000E+00 -0.62546502202E+03  0.62546502202E+03  0.00000000000E+00 0.  1.
          6    1    1    2  501    0  0.16584332770E+02  0.41765976125E+02 -0.55926891557E+03  0.58713725549E+03  0.17300000000E+03 0.  1.
         -6    1    1    2    0  502 -0.16584332770E+02 -0.41765976125E+02  0.10056648418E+03  0.20509035715E+03  0.17300000000E+03 0.  1.
<mgrwt>
<rscale>  2 0.17874126E+03</rscale>
<asrwt>0</asrwt>
<pdfrwt beam="1">  1       21 0.25655784E-01 0.17874126E+03</pdfrwt>
<pdfrwt beam="2">  1       21 0.96225387E-01 0.17874126E+03</pdfrwt>
<totfact> 0.13080478E+04</totfact>
</mgrwt>
</event>
<event>
 4    3  0.3906307E+000  0.1824116E+03  0.7546771E-02  0.1165489E+00
         21   -1    0    0  503  502  0.00000000000E+00  0.00000000000E+00  0.20210815033E+03  0.20210815033E+03  0.00000000000E+00 0. -1.
         21   -1    0    0  501  503 -0.00000000000E+00 -0.00000000000E+00 -0.50123924965E+03  0.50123924965E+03  0.00000000000E+00 0. -1.
          6    1    1    2  501    0  0.28998563698E+02  0.50040803916E+02 -0.43775454757E+03  0.47423943601E+03  0.17300000000E+03 0. -1.
         -6    1    1    2    0  502 -0.28998563698E+02 -0.50040803916E+02  0.13862344825E+03  0.22910796398E+03  0.17300000000E+03 0. -1.
<mgrwt>
<rscale>  2 0.18241162E+03</rscale>
<asrwt>0</asrwt>
<pdfrwt beam="1">  1       21 0.31093562E-01 0.18241162E+03</pdfrwt>
<pdfrwt beam="2">  1       21 0.77113731E-01 0.18241162E+03</pdfrwt>
<totfact> 0.14943073E+04</totfact>
</mgrwt>
</event>
<event>
 4    3  0.3906307E+000  0.1749672E+03  0.7546771E-02  0.1172765E+00
         21   -1    0    0  501  502  0.00000000000E+00  0.00000000000E+00  0.56964195460E+03  0.56964195460E+03  0.00000000000E+00 0. -1.
         21   -1    0    0  502  503 -0.00000000000E+00 -0.00000000000E+00 -0.56236879507E+02  0.56236879507E+02  0.00000000000E+00 0. -1.
          6    1    1    2  501    0 -0.25354368650E+02  0.64569699066E+01  0.32261979312E+03  0.36701099082E+03  0.17300000000E+03 0. -1.
         -6    1    1    2    0  503  0.25354368650E+02 -0.64569699066E+01  0.19078528197E+03  0.25886784329E+03  0.17300000000E+03 0. -1.
<mgrwt>
<rscale>  2 0.17496724E+03</rscale>
<asrwt>0</asrwt>
<pdfrwt beam="1">  1       21 0.87637220E-01 0.17496724E+03</pdfrwt>
<pdfrwt beam="2">  1       21 0.86518280E-02 0.17496724E+03</pdfrwt>
<totfact> 0.11772533E+05</totfact>
</mgrwt>
</event>
<event>
 4    3  0.3906307E+000  0.1730199E+03  0.7546771E-02  0.1174735E+00
         21   -1    0    0  501  502  0.00000000000E+00  0.00000000000E+00  0.70177071584E+02  0.70177071584E+02  0.00000000000E+00 0.  1.
         21   -1    0    0  502  503 -0.00000000000E+00 -0.00000000000E+00 -0.48321938713E+03  0.48321938713E+03  0.00000000000E+00 0.  1.
          6    1    1    2  501    0 -0.20074150001E+01 -0.16941975724E+01 -0.11178705960E+03  0.20599088988E+03  0.17300000000E+03 0.  1.
         -6    1    1    2    0  503  0.20074150001E+01  0.16941975724E+01 -0.30125525595E+03  0.34740556883E+03  0.17300000000E+03 0.  1.
<mgrwt>
<rscale>  2 0.17301994E+03</rscale>
<asrwt>0</asrwt>
<pdfrwt beam="1">  1       21 0.10796472E-01 0.17301994E+03</pdfrwt>
<pdfrwt beam="2">  1       21 0.74341446E-01 0.17301994E+03</pdfrwt>
<totfact> 0.11573079E+05</totfact>
</mgrwt>
</event>
<event>
 4    3  0.3906307E+000  0.2287939E+03  0.7546771E-02  0.1127492E+00
         21   -1    0    0  501  502  0.00000000000E+00  0.00000000000E+00  0.12454106334E+04  0.12454106334E+04  0.00000000000E+00 0.  1.
         21   -1    0    0  502  503 -0.00000000000E+00 -0.00000000000E+00 -0.11940266768E+03  0.11940266768E+03  0.00000000000E+00 0. -1.
          6    1    1    2  501    0  0.65881185094E+02 -0.13445192937E+03  0.11123239905E+04  0.11356105457E+04  0.17300000000E+03 0.  1.
         -6    1    1    2    0  503 -0.65881185094E+02  0.13445192937E+03  0.13683975222E+02  0.22920275530E+03  0.17300000000E+03 0. -1.
<mgrwt>
<rscale>  2 0.22879391E+03</rscale>
<asrwt>0</asrwt>
<pdfrwt beam="1">  1       21 0.19160163E+00 0.22879391E+03</pdfrwt>
<pdfrwt beam="2">  1       21 0.18369642E-01 0.22879391E+03</pdfrwt>
<totfact> 0.39870766E+03</totfact>
</mgrwt>
</event>
<event>
 4    3  0.3906307E+000  0.1836614E+03  0.7546771E-02  0.1164306E+00
         21   -1    0    0  501  502  0.00000000000E+00  0.00000000000E+00  0.17026035662E+03  0.17026035662E+03  0.00000000000E+00 0. -1.
         21   -1    0    0  502  503 -0.00000000000E+00 -0.00000000000E+00 -0.19811758345E+03  0.19811758345E+03  0.00000000000E+00 0. -1.
          6    1    1    2  501    0 -0.21845506932E+02 -0.57665340223E+02 -0.13698223140E+02  0.18417154762E+03  0.17300000000E+03 0. -1.
         -6    1    1    2    0  503  0.21845506932E+02  0.57665340223E+02 -0.14159003689E+02  0.18420639246E+03  0.17300000000E+03 0. -1.
<mgrwt>
<rscale>  2 0.18366142E+03</rscale>
<asrwt>0</asrwt>
<pdfrwt beam="1">  1       21 0.26193901E-01 0.18366142E+03</pdfrwt>
<pdfrwt beam="2">  1       21 0.30479628E-01 0.18366142E+03</pdfrwt>
<totfact> 0.14354271E+05</totfact>
</mgrwt>
</event>
<event>
 4    3  0.3906307E+000  0.2114736E+03  0.7546771E-02  0.1140404E+00
         21   -1    0    0  501  502  0.00000000000E+00  0.00000000000E+00  0.86340687784E+03  0.86340687784E+03  0.00000000000E+00 0.  1.
         21   -1    0    0  502  503 -0.00000000000E+00 -0.00000000000E+00 -0.72666122820E+02  0.72666122820E+02  0.00000000000E+00 0.  1.
          6    1    1    2  501    0 -0.32842713037E+02 -0.11710431948E+03  0.64619820451E+03  0.67992145499E+03  0.17300000000E+03 0.  1.
         -6    1    1    2    0  503  0.32842713037E+02  0.11710431948E+03  0.14454255051E+03  0.25615154567E+03  0.17300000000E+03 0.  1.
<mgrwt>
<rscale>  2 0.21147356E+03</rscale>
<asrwt>0</asrwt>
<pdfrwt beam="1">  1       21 0.13283182E+00 0.21147356E+03</pdfrwt>
<pdfrwt beam="2">  1       21 0.11179404E-01 0.21147356E+03</pdfrwt>
<totfact> 0.26946165E+04</totfact>
</mgrwt>
</event>
<event>
 4    3  0.3906307E+000  0.2849557E+03  0.7546771E-02  0.1093013E+00
         21   -1    0    0  503  502  0.00000000000E+00  0.00000000000E+00  0.26179167221E+04  0.26179167221E+04  0.00000000000E+00 0.  1.
         21   -1    0    0  501  503 -0.00000000000E+00 -0.00000000000E+00 -0.56408241119E+02  0.56408241119E+02  0.00000000000E+00 0. -1.
          6    1    1    2  501    0 -0.76336267796E+02 -0.21317493252E+03  0.38362431612E+03  0.47787801116E+03  0.17300000000E+03 0. -1.
         -6    1    1    2    0  502  0.76336267796E+02  0.21317493252E+03  0.21778841649E+04  0.21964469521E+04  0.17300000000E+03 0.  1.
<mgrwt>
<rscale>  2 0.28495575E+03</rscale>
<asrwt>0</asrwt>
<pdfrwt beam="1">  1       21 0.40275633E+00 0.28495575E+03</pdfrwt>
<pdfrwt beam="2">  1       21 0.86781930E-02 0.28495575E+03</pdfrwt>
<totfact> 0.77477887E+02</totfact>
</mgrwt>
</event>
<event>
 4    3  0.3906307E+000  0.2067875E+03  0.7546771E-02  0.1144136E+00
         21   -1    0    0  501  502  0.00000000000E+00  0.00000000000E+00  0.31182093741E+03  0.31182093741E+03  0.00000000000E+00 0.  1.
         21   -1    0    0  502  503 -0.00000000000E+00 -0.00000000000E+00 -0.24543460500E+03  0.24543460500E+03  0.00000000000E+00 0.  1.
          6    1    1    2  501    0  0.19798169974E+02 -0.11153515580E+03  0.21827900490E+03  0.30067720648E+03  0.17300000000E+03 0.  1.
         -6    1    1    2    0  503 -0.19798169974E+02  0.11153515580E+03 -0.15189267249E+03  0.25657833593E+03  0.17300000000E+03 0.  1.
<mgrwt>
<rscale>  2 0.20678747E+03</rscale>
<asrwt>0</asrwt>
<pdfrwt beam="1">  1       21 0.47972452E-01 0.20678747E+03</pdfrwt>
<pdfrwt beam="2">  1       21 0.37759170E-01 0.20678747E+03</pdfrwt>
<totfact> 0.27870667E+04</totfact>
</mgrwt>
</event>
<event>
 4    3  0.3906307E+000  0.1852300E+03  0.7546771E-02  0.1162835E+00
         21   -1    0    0  501  502  0.00000000000E+00  0.00000000000E+00  0.97965123673E+03  0.97965123673E+03  0.00000000000E+00 0.  1.
         21   -1    0    0  502  503 -0.00000000000E+00 -0.00000000000E+00 -0.48791529903E+02  0.48791529903E+02  0.00000000000E+00 0.  1.
          6    1    1    2  501    0  0.31217206946E+02  0.58366498794E+02  0.19226531117E+03  0.26697586421E+03  0.17300000000E+03 0.  1.
         -6    1    1    2    0  503 -0.31217206946E+02 -0.58366498794E+02  0.73859439566E+03  0.76146690243E+03  0.17300000000E+03 0.  1.
<mgrwt>
<rscale>  2 0.18523003E+03</rscale>
<asrwt>0</asrwt>
<pdfrwt beam="1">  1       21 0.15071556E+00 0.18523003E+03</pdfrwt>
<pdfrwt beam="2">  1       21 0.75063899E-02 0.18523003E+03</pdfrwt>
<totfact> 0.39739567E+04</totfact>
</mgrwt>
</event>
<event>
 4    3  0.3906307E+000  0.1765170E+03  0.7546771E-02  0.1171217E+00
         21   -1    0    0  501  502  0.00000000000E+00  0.00000000000E+00  0.38253428509E+03  0.38253428509E+03  0.00000000000E+00 0.  1.
         21   -1    0    0  502  503 -0.00000000000E+00 -0.00000000000E+00 -0.52218139138E+03  0.52218139138E+03  0.00000000000E+00 0.  1.
          6    1    1    2  501    0 -0.11725352930E+02 -0.33042148228E+02  0.34575901445E+03  0.38821072053E+03  0.17300000000E+03 0.  1.
         -6    1    1    2    0  503  0.11725352930E+02  0.33042148228E+02 -0.48540612074E+03  0.51650495594E+03  0.17300000000E+03 0.  1.
<mgrwt>
<rscale>  2 0.17651705E+03</rscale>
<asrwt>0</asrwt>
<pdfrwt beam="1">  1       21 0.58851429E-01 0.17651705E+03</pdfrwt>
<pdfrwt beam="2">  1       21 0.80335599E-01 0.17651705E+03</pdfrwt>
<totfact> 0.37300435E+03</totfact>
</mgrwt>
</event>
<event>
 4    3  0.3906307E+000  0.2073853E+03  0.7546771E-02  0.1143653E+00
         21   -1    0    0  503  502  0.00000000000E+00  0.00000000000E+00  0.12271768047E+03  0.12271768047E+03  0.00000000000E+00 0. -1.
         21   -1    0    0  501  503 -0.00000000000E+00 -0.00000000000E+00 -0.38697825380E+03  0.38697825380E+03  0.00000000000E+00 0.  1.
          6    1    1    2  501    0 -0.77881317198E+02  0.83750511996E+02 -0.21040905299E+03  0.29543293217E+03  0.17300000000E+03 0. -1.
         -6    1    1    2    0  502  0.77881317198E+02 -0.83750511996E+02 -0.53851520337E+02  0.21426300210E+03  0.17300000000E+03 0.  1.
<mgrwt>
<rscale>  2 0.20738526E+03</rscale>
<asrwt>0</asrwt>
<pdfrwt beam="1">  1       21 0.18879644E-01 0.20738526E+03</pdfrwt>
<pdfrwt beam="2">  1       21 0.59535114E-01 0.20738526E+03</pdfrwt>
<totfact> 0.67264164E+04</totfact>
</mgrwt>
</event>
<event>
 4    3  0.3906307E+000  0.2517335E+03  0.7546771E-02  0.1112214E+00
         21   -1    0    0  503  502  0.00000000000E+00  0.00000000000E+00  0.34576524261E+03  0.34576524261E+03  0.00000000000E+00 0. -1.
         21   -1    0    0  501  503 -0.00000000000E+00 -0.00000000000E+00 -0.29369923447E+03  0.29369923447E+03  0.00000000000E+00 0.  1.
          6    1    1    2  501    0  0.13547606179E+03  0.12282904174E+03 -0.17001816050E+03  0.30376950425E+03  0.17300000000E+03 0.  1.
         -6    1    1    2    0  502 -0.13547606179E+03 -0.12282904174E+03  0.22208416865E+03  0.33569497282E+03  0.17300000000E+03 0. -1.
<mgrwt>
<rscale>  2 0.25173346E+03</rscale>
<asrwt>0</asrwt>
<pdfrwt beam="1">  1       21 0.53194653E-01 0.25173346E+03</pdfrwt>
<pdfrwt beam="2">  1       21 0.45184498E-01 0.25173346E+03</pdfrwt>
<totfact> 0.15202683E+04</totfact>
</mgrwt>
</event>
<event>
 4    3  0.3906307E+000  0.1858125E+03  0.7546771E-02  0.1162293E+00
         21   -1    0    0  503  502  0.00000000000E+00  0.00000000000E+00  0.60617699434E+03  0.60617699434E+03  0.00000000000E+00 0. -1.
         21   -1    0    0  501  503 -0.00000000000E+00 -0.00000000000E+00 -0.67080977943E+02  0.67080977943E+02  0.00000000000E+00 0. -1.
          6    1    1    2  501    0  0.54503474068E+02  0.40331623242E+02  0.40032120078E+03  0.44134264729E+03  0.17300000000E+03 0. -1.
         -6    1    1    2    0  502 -0.54503474068E+02 -0.40331623242E+02  0.13877481561E+03  0.23191532500E+03  0.17300000000E+03 0. -1.
<mgrwt>
<rscale>  2 0.18581246E+03</rscale>
<asrwt>0</asrwt>
<pdfrwt beam="1">  1       21 0.93257995E-01 0.18581246E+03</pdfrwt>
<pdfrwt beam="2">  1       21 0.10320151E-01 0.18581246E+03</pdfrwt>
<totfact> 0.74459255E+04</totfact>
</mgrwt>
</event>
<event>
 4    3  0.3906307E+000  0.2381209E+03  0.7546771E-02  0.1121051E+00
         21   -1    0    0  503  502  0.00000000000E+00  0.00000000000E+00  0.10160617932E+03  0.10160617932E+03  0.00000000000E+00 0. -1.
         21   -1    0    0  501  503 -0.00000000000E+00 -0.00000000000E+00 -0.18204041928E+04  0.18204041928E+04  0.00000000000E+00 0.  1.
          6    1    1    2  501    0 -0.10212455574E+03 -0.12784024227E+03 -0.16596607427E+04  0.16766559973E+04  0.17300000000E+03 0.  1.
         -6    1    1    2    0  502  0.10212455574E+03  0.12784024227E+03 -0.59137270738E+02  0.24535437477E+03  0.17300000000E+03 0. -1.
<mgrwt>
<rscale>  2 0.23812088E+03</rscale>
<asrwt>0</asrwt>
<pdfrwt beam="1">  1       21 0.15631721E-01 0.23812088E+03</pdfrwt>
<pdfrwt beam="2">  1       21 0.28006217E+00 0.23812088E+03</pdfrwt>
<totfact> 0.15362431E+03</totfact>
</mgrwt>
</event>
<event>
 4    3  0.3906307E+000  0.2001872E+03  0.7546771E-02  0.1149581E+00
         21   -1    0    0  501  502  0.00000000000E+00  0.00000000000E+00  0.57617861169E+03  0.57617861169E+03  0.00000000000E+00 0. -1.
         21   -1    0    0  502  503 -0.00000000000E+00 -0.00000000000E+00 -0.22480568601E+03  0.22480568601E+03  0.00000000000E+00 0. -1.
          6    1    1    2  501    0  0.81615635786E+01  0.10039567322E+03  0.50850694106E+03  0.54649264536E+03  0.17300000000E+03 0. -1.
         -6    1    1    2    0  503 -0.81615635786E+01 -0.10039567322E+03 -0.15713401539E+03  0.25449165235E+03  0.17300000000E+03 0. -1.
<mgrwt>
<rscale>  2 0.20018717E+03</rscale>
<asrwt>0</asrwt>
<pdfrwt beam="1">  1       21 0.88642863E-01 0.20018717E+03</pdfrwt>
<pdfrwt beam="2">  1       21 0.34585490E-01 0.20018717E+03</pdfrwt>
<totfact> 0.87204236E+03</totfact>
</mgrwt>
</event>
<event>
 4    3  0.3906307E+000  0.1838181E+03  0.7546771E-02  0.1164158E+00
         21   -1    0    0  503  502  0.00000000000E+00  0.00000000000E+00  0.16780657063E+03  0.16780657063E+03  0.00000000000E+00 0.  1.
         21   -1    0    0  501  503 -0.00000000000E+00 -0.00000000000E+00 -0.20753636229E+03  0.20753636229E+03  0.00000000000E+00 0.  1.
          6    1    1    2  501    0 -0.61958659787E+02  0.46077568120E+01 -0.52247097197E+02  0.19109910024E+03  0.17300000000E+03 0. -1.
         -6    1    1    2    0  502  0.61958659787E+02 -0.46077568120E+01  0.12517305538E+02  0.18424383269E+03  0.17300000000E+03 0. -1.
<mgrwt>
<rscale>  2 0.18381814E+03</rscale>
<asrwt>0</asrwt>
<pdfrwt beam="1">  1       21 0.25816395E-01 0.18381814E+03</pdfrwt>
<pdfrwt beam="2">  1       21 0.31928671E-01 0.18381814E+03</pdfrwt>
<totfact> 0.13476792E+05</totfact>
</mgrwt>
</event>
<event>
 4    3  0.3906307E+000  0.1827728E+03  0.7546771E-02  0.1165146E+00
         21   -1    0    0  501  502  0.00000000000E+00  0.00000000000E+00  0.61195599941E+02  0.61195599941E+02  0.00000000000E+00 0.  1.
         21   -1    0    0  502  503 -0.00000000000E+00 -0.00000000000E+00 -0.94558849029E+03  0.94558849029E+03  0.00000000000E+00 0.  1.
          6    1    1    2  501    0 -0.38130749166E+02 -0.44977102295E+02 -0.11491374986E+03  0.21589595566E+03  0.17300000000E+03 0.  1.
         -6    1    1    2    0  503  0.38130749166E+02  0.44977102295E+02 -0.76947914048E+03  0.79088813457E+03  0.17300000000E+03 0.  1.
<mgrwt>
<rscale>  2 0.18277279E+03</rscale>
<asrwt>0</asrwt>
<pdfrwt beam="1">  1       21 0.94147080E-02 0.18277279E+03</pdfrwt>
<pdfrwt beam="2">  1       21 0.14547515E+00 0.18277279E+03</pdfrwt>
<totfact> 0.29409987E+04</totfact>
</mgrwt>
</event>
<event>
 4    3  0.3906307E+000  0.1766683E+03  0.7546771E-02  0.1171067E+00
         21   -1    0    0  503  502  0.00000000000E+00  0.00000000000E+00  0.85064240133E+02  0.85064240133E+02  0.00000000000E+00 0. -1.
         21   -1    0    0  501  503 -0.00000000000E+00 -0.00000000000E+00 -0.40503712206E+03  0.40503712206E+03  0.00000000000E+00 0. -1.
          6    1    1    2  501    0 -0.35144504485E+02 -0.68969841967E+01 -0.84811516893E+02  0.19597116621E+03  0.17300000000E+03 0.  1.
         -6    1    1    2    0  502  0.35144504485E+02  0.68969841967E+01 -0.23516136504E+03  0.29413019599E+03  0.17300000000E+03 0.  1.
<mgrwt>
<rscale>  2 0.17666835E+03</rscale>
<asrwt>0</asrwt>
<pdfrwt beam="1">  1       21 0.13086806E-01 0.17666835E+03</pdfrwt>
<pdfrwt beam="2">  1       21 0.62313405E-01 0.17666835E+03</pdfrwt>
<totfact> 0.12065435E+05</totfact>
</mgrwt>
</event>
<event>
 4    3  0.3906307E+000  0.2296007E+03  0.7546771E-02  0.1126921E+00
         21   -1    0    0  501  502  0.00000000000E+00  0.00000000000E+00  0.35111044295E+02  0.35111044295E+02  0.00000000000E+00 0.  1.
         21   -1    0    0  502  503 -0.00000000000E+00 -0.00000000000E+00 -0.15175613531E+04  0.15175613531E+04  0.00000000000E+00 0.  1.
          6    1    1    2  501    0 -0.14038911384E+03 -0.55482977241E+02 -0.82128806579E+03  0.85277813707E+03  0.17300000000E+03 0.  1.
         -6    1    1    2    0  503  0.14038911384E+03  0.55482977241E+02 -0.66116224297E+03  0.69989426028E+03  0.17300000000E+03 0.  1.
<mgrwt>
<rscale>  2 0.22960066E+03</rscale>
<asrwt>0</asrwt>
<pdfrwt beam="1">  1       21 0.54016984E-02 0.22960066E+03</pdfrwt>
<pdfrwt beam="2">  1       21 0.23347101E+00 0.22960066E+03</pdfrwt>
<totfact> 0.19094588E+04</totfact>
</mgrwt>
</event>
<event>
 4    3  0.3906307E+000  0.2927031E+03  0.7546771E-02  0.1088946E+00
         21   -1    0    0  503  502  0.00000000000E+00  0.00000000000E+00  0.61380428732E+03  0.61380428732E+03  0.00000000000E+00 0. -1.
         21   -1    0    0  501  503 -0.00000000000E+00 -0.00000000000E+00 -0.13989110556E+03  0.13989110556E+03  0.00000000000E+00 0. -1.
          6    1    1    2  501    0  0.23334391413E+03  0.36010365259E+02  0.21920025316E+03  0.36568275822E+03  0.17300000000E+03 0. -1.
         -6    1    1    2    0  502 -0.23334391413E+03 -0.36010365259E+02  0.25471292859E+03  0.38801263467E+03  0.17300000000E+03 0. -1.
<mgrwt>
<rscale>  2 0.29270314E+03</rscale>
<asrwt>0</asrwt>
<pdfrwt beam="1">  1       21 0.94431427E-01 0.29270314E+03</pdfrwt>
<pdfrwt beam="2">  1       21 0.21521709E-01 0.29270314E+03</pdfrwt>
<totfact> 0.17934449E+04</totfact>
</mgrwt>
</event>
<event>
 4    3  0.3906307E+000  0.2032634E+03  0.7546771E-02  0.1147015E+00
         21   -1    0    0  503  502  0.00000000000E+00  0.00000000000E+00  0.15716994973E+04  0.15716994973E+04  0.00000000000E+00 0. -1.
         21   -1    0    0  501  503 -0.00000000000E+00 -0.00000000000E+00 -0.44552658779E+02  0.44552658779E+02  0.00000000000E+00 0. -1.
          6    1    1    2  501    0 -0.92526985641E+02  0.53158043802E+02  0.24614025610E+03  0.31921943294E+03  0.17300000000E+03 0. -1.
         -6    1    1    2    0  502  0.92526985641E+02 -0.53158043802E+02  0.12810065825E+04  0.12970327232E+04  0.17300000000E+03 0. -1.
<mgrwt>
<rscale>  2 0.20326343E+03</rscale>
<asrwt>0</asrwt>
<pdfrwt beam="1">  1       21 0.24179988E+00 0.20326343E+03</pdfrwt>
<pdfrwt beam="2">  1       21 0.68542564E-02 0.20326343E+03</pdfrwt>
<totfact> 0.11548779E+04</totfact>
</mgrwt>
</event>
<event>
 4    3  0.3906307E+000  0.1848665E+03  0.7546771E-02  0.1163175E+00
         21   -1    0    0  503  502  0.00000000000E+00  0.00000000000E+00  0.44159322662E+03  0.44159322662E+03  0.00000000000E+00 0.  1.
         21   -1    0    0  501  503 -0.00000000000E+00 -0.00000000000E+00 -0.78446266479E+02  0.78446266479E+02  0.00000000000E+00 0.  1.
          6    1    1    2  501    0 -0.38925429943E+02 -0.52262970214E+02  0.21172279111E+03  0.28107320653E+03  0.17300000000E+03 0.  1.
         -6    1    1    2    0  502  0.38925429943E+02  0.52262970214E+02  0.15142416903E+03  0.23896628657E+03  0.17300000000E+03 0.  1.
<mgrwt>
<rscale>  2 0.18486646E+03</rscale>
<asrwt>0</asrwt>
<pdfrwt beam="1">  1       21 0.67937418E-01 0.18486646E+03</pdfrwt>
<pdfrwt beam="2">  1       21 0.12068657E-01 0.18486646E+03</pdfrwt>
<totfact> 0.11527332E+05</totfact>
</mgrwt>
</event>
<event>
 4    3  0.3906307E+000  0.2173257E+03  0.7546771E-02  0.1135893E+00
         21   -1    0    0  503  502  0.00000000000E+00  0.00000000000E+00  0.13960356924E+03  0.13960356924E+03  0.00000000000E+00 0.  1.
         21   -1    0    0  501  503 -0.00000000000E+00 -0.00000000000E+00 -0.37203336443E+03  0.37203336443E+03  0.00000000000E+00 0. -1.
          6    1    1    2  501    0 -0.64394371259E+02  0.11469456782E+03 -0.19322562932E+03  0.29080340913E+03  0.17300000000E+03 0. -1.
         -6    1    1    2    0  502  0.64394371259E+02 -0.11469456782E+03 -0.39204165868E+02  0.22083352454E+03  0.17300000000E+03 0.  1.
<mgrwt>
<rscale>  2 0.21732574E+03</rscale>
<asrwt>0</asrwt>
<pdfrwt beam="1">  1       21 0.21477473E-01 0.21732574E+03</pdfrwt>
<pdfrwt beam="2">  1       21 0.57235901E-01 0.21732574E+03</pdfrwt>
<totfact> 0.57231185E+04</totfact>
</mgrwt>
</event>
<event>
 4    3  0.3906307E+000  0.2206736E+03  0.7546771E-02  0.1133382E+00
         21   -1    0    0  503  502  0.00000000000E+00  0.00000000000E+00  0.19887983510E+03  0.19887983510E+03  0.00000000000E+00 0.  1.
         21   -1    0    0  501  503 -0.00000000000E+00 -0.00000000000E+00 -0.24673355262E+03  0.24673355262E+03  0.00000000000E+00 0.  1.
          6    1    1    2  501    0  0.49120166735E+02  0.12788679679E+03 -0.43365539161E+02  0.22489418303E+03  0.17300000000E+03 0.  1.
         -6    1    1    2    0  502 -0.49120166735E+02 -0.12788679679E+03 -0.44881783641E+01  0.22071920469E+03  0.17300000000E+03 0.  1.
<mgrwt>
<rscale>  2 0.22067357E+03</rscale>
<asrwt>0</asrwt>
<pdfrwt beam="1">  1       21 0.30596898E-01 0.22067357E+03</pdfrwt>
<pdfrwt beam="2">  1       21 0.37959008E-01 0.22067357E+03</pdfrwt>
<totfact> 0.67798544E+04</totfact>
</mgrwt>
</event>
<event>
 4    3  0.3906307E+000  0.2166835E+03  0.7546771E-02  0.1136380E+00
         21   -1    0    0  503  502  0.00000000000E+00  0.00000000000E+00  0.11485380269E+03  0.11485380269E+03  0.00000000000E+00 0. -1.
         21   -1    0    0  501  503 -0.00000000000E+00 -0.00000000000E+00 -0.42467169149E+03  0.42467169149E+03  0.00000000000E+00 0. -1.
          6    1    1    2  501    0  0.96886026813E+02 -0.87383331052E+02 -0.20706740766E+03  0.29971429737E+03  0.17300000000E+03 0. -1.
         -6    1    1    2    0  502 -0.96886026813E+02  0.87383331052E+02 -0.10275048114E+03  0.23981119680E+03  0.17300000000E+03 0. -1.
<mgrwt>
<rscale>  2 0.21668352E+03</rscale>
<asrwt>0</asrwt>
<pdfrwt beam="1">  1       21 0.17669816E-01 0.21668352E+03</pdfrwt>
<pdfrwt beam="2">  1       21 0.65334106E-01 0.21668352E+03</pdfrwt>
<totfact> 0.61932519E+04</totfact>
</mgrwt>
</event>
<event>
 4    3  0.3906307E+000  0.1820024E+03  0.7546771E-02  0.1165879E+00
         21   -1    0    0  503  502  0.00000000000E+00  0.00000000000E+00  0.92612450667E+02  0.92612450667E+02  0.00000000000E+00 0. -1.
         21   -1    0    0  501  503 -0.00000000000E+00 -0.00000000000E+00 -0.38090174452E+03  0.38090174452E+03  0.00000000000E+00 0.  1.
          6    1    1    2  501    0  0.55516469876E+02 -0.10668235218E+02 -0.85676704179E+02  0.20116010367E+03  0.17300000000E+03 0. -1.
         -6    1    1    2    0  502 -0.55516469876E+02  0.10668235218E+02 -0.20261258967E+03  0.27235409151E+03  0.17300000000E+03 0. -1.
<mgrwt>
<rscale>  2 0.18200244E+03</rscale>
<asrwt>0</asrwt>
<pdfrwt beam="1">  1       21 0.14248069E-01 0.18200244E+03</pdfrwt>
<pdfrwt beam="2">  1       21 0.58600269E-01 0.18200244E+03</pdfrwt>
<totfact> 0.11784771E+05</totfact>
</mgrwt>
</event>
<event>
 4    3  0.3906307E+000  0.2010606E+03  0.7546771E-02  0.1148847E+00
         21   -1    0    0  503  502  0.00000000000E+00  0.00000000000E+00  0.45953164376E+03  0.45953164376E+03  0.00000000000E+00 0.  1.
         21   -1    0    0  501  503 -0.00000000000E+00 -0.00000000000E+00 -0.95366491684E+02  0.95366491684E+02  0.00000000000E+00 0.  1.
          6    1    1    2  501    0 -0.10101393490E+03 -0.17104640046E+02  0.10481920510E+03  0.22674313553E+03  0.17300000000E+03 0.  1.
         -6    1    1    2    0  502  0.10101393490E+03  0.17104640046E+02  0.25934594698E+03  0.32815499991E+03  0.17300000000E+03 0.  1.
<mgrwt>
<rscale>  2 0.20106065E+03</rscale>
<asrwt>0</asrwt>
<pdfrwt beam="1">  1       21 0.70697175E-01 0.20106065E+03</pdfrwt>
<pdfrwt beam="2">  1       21 0.14671768E-01 0.20106065E+03</pdfrwt>
<totfact> 0.73755624E+04</totfact>
</mgrwt>
</event>
<event>
 4    3  0.3906307E+000  0.2061726E+03  0.7546771E-02  0.1144633E+00
         21   -1    0    0  501  502  0.00000000000E+00  0.00000000000E+00  0.31917627557E+03  0.31917627557E+03  0.00000000000E+00 0.  1.
         21   -1    0    0  502  503 -0.00000000000E+00 -0.00000000000E+00 -0.26220262115E+03  0.26220262115E+03  0.00000000000E+00 0. -1.
          6    1    1    2  501    0 -0.21551751553E+02 -0.11006207376E+03  0.23240112685E+03  0.31067253151E+03  0.17300000000E+03 0.  1.
         -6    1    1    2    0  503  0.21551751553E+02  0.11006207376E+03 -0.17542747244E+03  0.27070636520E+03  0.17300000000E+03 0. -1.
<mgrwt>
<rscale>  2 0.20617259E+03</rscale>
<asrwt>0</asrwt>
<pdfrwt beam="1">  1       21 0.49104042E-01 0.20617259E+03</pdfrwt>
<pdfrwt beam="2">  1       21 0.40338865E-01 0.20617259E+03</pdfrwt>
<totfact> 0.23246854E+04</totfact>
</mgrwt>
</event>
<event>
 4    3  0.3906307E+000  0.1771186E+03  0.7546771E-02  0.1170621E+00
         21   -1    0    0  501  502  0.00000000000E+00  0.00000000000E+00  0.11799575915E+03  0.11799575915E+03  0.00000000000E+00 0. -1.
         21   -1    0    0  502  503 -0.00000000000E+00 -0.00000000000E+00 -0.36956166554E+03  0.36956166554E+03  0.00000000000E+00 0. -1.
          6    1    1    2  501    0 -0.37399506196E+02  0.65783661335E+01  0.33490036718E+01  0.17715025766E+03  0.17300000000E+03 0. -1.
         -6    1    1    2    0  503  0.37399506196E+02 -0.65783661335E+01 -0.25491491006E+03  0.31040716702E+03  0.17300000000E+03 0. -1.
<mgrwt>
<rscale>  2 0.17711860E+03</rscale>
<asrwt>0</asrwt>
<pdfrwt beam="1">  1       21 0.18153194E-01 0.17711860E+03</pdfrwt>
<pdfrwt beam="2">  1       21 0.56855640E-01 0.17711860E+03</pdfrwt>
<totfact> 0.80867243E+04</totfact>
</mgrwt>
</event>
<event>
 4    3  0.3906307E+000  0.2203506E+03  0.7546771E-02  0.1133622E+00
         21   -1    0    0  501  502  0.00000000000E+00  0.00000000000E+00  0.41614316107E+03  0.41614316107E+03  0.00000000000E+00 0. -1.
         21   -1    0    0  502  503 -0.00000000000E+00 -0.00000000000E+00 -0.12592607596E+03  0.12592607596E+03  0.00000000000E+00 0.  1.
          6    1    1    2  501    0 -0.57303356671E+02 -0.12386172660E+03  0.21856201942E+03  0.31036069070E+03  0.17300000000E+03 0. -1.
         -6    1    1    2    0  503  0.57303356671E+02  0.12386172660E+03  0.71655065690E+02  0.23170854633E+03  0.17300000000E+03 0.  1.
<mgrwt>
<rscale>  2 0.22035063E+03</rscale>
<asrwt>0</asrwt>
<pdfrwt beam="1">  1       21 0.64022024E-01 0.22035063E+03</pdfrwt>
<pdfrwt beam="2">  1       21 0.19373243E-01 0.22035063E+03</pdfrwt>
<totfact> 0.54465211E+04</totfact>
</mgrwt>
</event>
<event>
 4    3  0.3906307E+000  0.2153675E+03  0.7546771E-02  0.1137385E+00
         21   -1    0    0  501  502  0.00000000000E+00  0.00000000000E+00  0.19517217595E+04  0.19517217595E+04  0.00000000000E+00 0.  1.
         21   -1    0    0  502  503 -0.00000000000E+00 -0.00000000000E+00 -0.27034064263E+02  0.27034064263E+02  0.00000000000E+00 0.  1.
          6    1    1    2  501    0 -0.81514727941E+02 -0.99042955391E+02  0.13063780197E+04  0.13240115891E+04  0.17300000000E+03 0.  1.
         -6    1    1    2    0  503  0.81514727941E+02  0.99042955391E+02  0.61830967562E+03  0.65474423468E+03  0.17300000000E+03 0.  1.
<mgrwt>
<rscale>  2 0.21536749E+03</rscale>
<asrwt>0</asrwt>
<pdfrwt beam="1">  1       21 0.30026478E+00 0.21536749E+03</pdfrwt>
<pdfrwt beam="2">  1       21 0.41590883E-02 0.21536749E+03</pdfrwt>
<totfact> 0.12202084E+04</totfact>
</mgrwt>
</event>
<event>
 4    3  0.3906307E+000  0.2204186E+03  0.7546771E-02  0.1133571E+00
         21   -1    0    0  501  502  0.00000000000E+00  0.00000000000E+00  0.15917194561E+03  0.15917194561E+03  0.00000000000E+00 0.  1.
         21   -1    0    0  502  503 -0.00000000000E+00 -0.00000000000E+00 -0.53617698089E+03  0.53617698089E+03  0.00000000000E+00 0. -1.
          6    1    1    2  501    0  0.13162232640E+03  0.36482098967E+02  0.39675036726E+02  0.22396090929E+03  0.17300000000E+03 0.  1.
         -6    1    1    2    0  503 -0.13162232640E+03 -0.36482098967E+02 -0.41668007201E+03  0.47138801721E+03  0.17300000000E+03 0. -1.
<mgrwt>
<rscale>  2 0.22041865E+03</rscale>
<asrwt>0</asrwt>
<pdfrwt beam="1">  1       21 0.24487992E-01 0.22041865E+03</pdfrwt>
<pdfrwt beam="2">  1       21 0.82488764E-01 0.22041865E+03</pdfrwt>
<totfact> 0.19887350E+04</totfact>
</mgrwt>
</event>
<event>
 4    3  0.3906307E+000  0.2326739E+03  0.7546771E-02  0.1124772E+00
         21   -1    0    0  503  502  0.00000000000E+00  0.00000000000E+00  0.35060756578E+03  0.35060756578E+03  0.00000000000E+00 0.  1.
         21   -1    0    0  501  503 -0.00000000000E+00 -0.00000000000E+00 -0.15721397036E+03  0.15721397036E+03  0.00000000000E+00 0.  1.
          6    1    1    2  501    0 -0.11735492090E+03  0.10215649559E+03  0.13060959406E+03  0.26682577295E+03  0.17300000000E+03 0. -1.
         -6    1    1    2    0  502  0.11735492090E+03 -0.10215649559E+03  0.62784001349E+02  0.24099576319E+03  0.17300000000E+03 0. -1.
<mgrwt>
<rscale>  2 0.23267386E+03</rscale>
<asrwt>0</asrwt>
<pdfrwt beam="1">  1       21 0.53939625E-01 0.23267386E+03</pdfrwt>
<pdfrwt beam="2">  1       21 0.24186765E-01 0.23267386E+03</pdfrwt>
<totfact> 0.51475862E+04</totfact>
</mgrwt>
</event>
<event>
 4    3  0.3906307E+000  0.3523065E+03  0.7546771E-02  0.1061672E+00
         21   -1    0    0  503  502  0.00000000000E+00  0.00000000000E+00  0.17732323824E+04  0.17732323824E+04  0.00000000000E+00 0. -1.
         21   -1    0    0  501  503 -0.00000000000E+00 -0.00000000000E+00 -0.52778475652E+03  0.52778475652E+03  0.00000000000E+00 0.  1.
          6    1    1    2  501    0  0.23142005784E+03 -0.20158271923E+03 -0.44878024558E+03  0.57054670684E+03  0.17300000000E+03 0.  1.
         -6    1    1    2    0  502 -0.23142005784E+03  0.20158271923E+03  0.16942278715E+04  0.17304704321E+04  0.17300000000E+03 0. -1.
<mgrwt>
<rscale>  2 0.35230645E+03</rscale>
<asrwt>0</asrwt>
<pdfrwt beam="1">  1       21 0.27280498E+00 0.35230645E+03</pdfrwt>
<pdfrwt beam="2">  1       21 0.81197656E-01 0.35230645E+03</pdfrwt>
<totfact> 0.53862532E+01</totfact>
</mgrwt>
</event>
<event>
 4    3  0.3906307E+000  0.1812416E+03  0.7546771E-02  0.1166607E+00
         21   -1    0    0  501  502  0.00000000000E+00  0.00000000000E+00  0.22404901159E+03  0.22404901159E+03  0.00000000000E+00 0. -1.
         21   -1    0    0  502  503 -0.00000000000E+00 -0.00000000000E+00 -0.26104730603E+03  0.26104730603E+03  0.00000000000E+00 0. -1.
          6    1    1    2  501    0  0.29432292161E+02  0.45312724630E+02  0.14209009593E+03  0.23030001780E+03  0.17300000000E+03 0. -1.
         -6    1    1    2    0  503 -0.29432292161E+02 -0.45312724630E+02 -0.17908839037E+03  0.25479629982E+03  0.17300000000E+03 0. -1.
<mgrwt>
<rscale>  2 0.18124156E+03</rscale>
<asrwt>0</asrwt>
<pdfrwt beam="1">  1       21 0.34469079E-01 0.18124156E+03</pdfrwt>
<pdfrwt beam="2">  1       21 0.40161124E-01 0.18124156E+03</pdfrwt>
<totfact> 0.48726675E+04</totfact>
</mgrwt>
</event>
<event>
 4    3  0.3906307E+000  0.2564574E+03  0.7546771E-02  0.1109291E+00
         21   -1    0    0  501  502  0.00000000000E+00  0.00000000000E+00  0.11452133275E+03  0.11452133275E+03  0.00000000000E+00 0.  1.
         21   -1    0    0  502  503 -0.00000000000E+00 -0.00000000000E+00 -0.63624214749E+03  0.63624214749E+03  0.00000000000E+00 0. -1.
          6    1    1    2  501    0  0.14627792125E+03 -0.12018378785E+03 -0.37798050618E+03  0.45677087928E+03  0.17300000000E+03 0. -1.
         -6    1    1    2    0  503 -0.14627792125E+03  0.12018378785E+03 -0.14374030856E+03  0.29399260095E+03  0.17300000000E+03 0.  1.
<mgrwt>
<rscale>  2 0.25645735E+03</rscale>
<asrwt>0</asrwt>
<pdfrwt beam="1">  1       21 0.17618667E-01 0.25645735E+03</pdfrwt>
<pdfrwt beam="2">  1       21 0.97883406E-01 0.25645735E+03</pdfrwt>
<totfact> 0.24377241E+04</totfact>
</mgrwt>
</event>
<event>
 4    3  0.3906307E+000  0.2269467E+03  0.7546771E-02  0.1128807E+00
         21   -1    0    0  501  502  0.00000000000E+00  0.00000000000E+00  0.78581424676E+03  0.78581424676E+03  0.00000000000E+00 0.  1.
         21   -1    0    0  502  503 -0.00000000000E+00 -0.00000000000E+00 -0.67946323825E+02  0.67946323825E+02  0.00000000000E+00 0.  1.
          6    1    1    2  501    0  0.13604963466E+03  0.55374292027E+02  0.43921392546E+03  0.49438212713E+03  0.17300000000E+03 0.  1.
         -6    1    1    2    0  503 -0.13604963466E+03 -0.55374292027E+02  0.27865399747E+03  0.35937844345E+03  0.17300000000E+03 0.  1.
<mgrwt>
<rscale>  2 0.22694672E+03</rscale>
<asrwt>0</asrwt>
<pdfrwt beam="1">  1       21 0.12089449E+00 0.22694672E+03</pdfrwt>
<pdfrwt beam="2">  1       21 0.10453281E-01 0.22694672E+03</pdfrwt>
<totfact> 0.38183313E+04</totfact>
</mgrwt>
</event>
<event>
 4    3  0.3906307E+000  0.2565568E+03  0.7546771E-02  0.1109230E+00
         21   -1    0    0  503  502  0.00000000000E+00  0.00000000000E+00  0.86435857362E+03  0.86435857362E+03  0.00000000000E+00 0. -1.
         21   -1    0    0  501  503 -0.00000000000E+00 -0.00000000000E+00 -0.76413141955E+02  0.76413141955E+02  0.00000000000E+00 0. -1.
          6    1    1    2  501    0 -0.14841464330E+03  0.11775185698E+03  0.42154588239E+03  0.49347982444E+03  0.17300000000E+03 0. -1.
         -6    1    1    2    0  502  0.14841464330E+03 -0.11775185698E+03  0.36639954928E+03  0.44729189114E+03  0.17300000000E+03 0. -1.
<mgrwt>
<rscale>  2 0.25655683E+03</rscale>
<asrwt>0</asrwt>
<pdfrwt beam="1">  1       21 0.13297824E+00 0.25655683E+03</pdfrwt>
<pdfrwt beam="2">  1       21 0.11755869E-01 0.25655683E+03</pdfrwt>
<totfact> 0.23968532E+04</totfact>
</mgrwt>
</event>
<event>
 4    3  0.3906307E+000  0.2161582E+03  0.7546771E-02  0.1136780E+00
         21   -1    0    0  501  502  0.00000000000E+00  0.00000000000E+00  0.22290477495E+03  0.22290477495E+03  0.00000000000E+00 0.  1.
         21   -1    0    0  502  503 -0.00000000000E+00 -0.00000000000E+00 -0.21350214069E+03  0.21350214069E+03  0.00000000000E+00 0.  1.
          6    1    1    2  501    0 -0.22678003016E+02 -0.12759728897E+03 -0.24738264661E+02  0.21756916535E+03  0.17300000000E+03 0.  1.
         -6    1    1    2    0  503  0.22678003016E+02  0.12759728897E+03  0.34140898918E+02  0.21883775029E+03  0.17300000000E+03 0.  1.
<mgrwt>
<rscale>  2 0.21615818E+03</rscale>
<asrwt>0</asrwt>
<pdfrwt beam="1">  1       21 0.34293042E-01 0.21615818E+03</pdfrwt>
<pdfrwt beam="2">  1       21 0.32846483E-01 0.21615818E+03</pdfrwt>
<totfact> 0.72370603E+04</totfact>
</mgrwt>
</event>
<event>
 4    3  0.3906307E+000  0.2023662E+03  0.7546771E-02  0.1147758E+00
         21   -1    0    0  503  502  0.00000000000E+00  0.00000000000E+00  0.56126246581E+03  0.56126246581E+03  0.00000000000E+00 0. -1.
         21   -1    0    0  501  503 -0.00000000000E+00 -0.00000000000E+00 -0.73037800662E+02  0.73037800662E+02  0.00000000000E+00 0.  1.
          6    1    1    2  501    0  0.72308723433E+02  0.76121688818E+02  0.23404412949E+03  0.30940057780E+03  0.17300000000E+03 0.  1.
         -6    1    1    2    0  502 -0.72308723433E+02 -0.76121688818E+02  0.25418053566E+03  0.32489968867E+03  0.17300000000E+03 0.  1.
<mgrwt>
<rscale>  2 0.20236616E+03</rscale>
<asrwt>0</asrwt>
<pdfrwt beam="1">  1       21 0.86348069E-01 0.20236616E+03</pdfrwt>
<pdfrwt beam="2">  1       21 0.11236585E-01 0.20236616E+03</pdfrwt>
<totfact> 0.75932753E+04</totfact>
</mgrwt>
</event>
<event>
 4    3  0.3906307E+000  0.2418044E+03  0.7546771E-02  0.1118597E+00
         21   -1    0    0  501  502  0.00000000000E+00  0.00000000000E+00  0.21641111428E+04  0.21641111428E+04  0.00000000000E+00 0.  1.
         21   -1    0    0  502  503 -0.00000000000E+00 -0.00000000000E+00 -0.59977123008E+02  0.59977123008E+02  0.00000000000E+00 0.  1.
          6    1    1    2  501    0  0.12013660387E+03  0.11877532911E+03  0.18764305483E+04  0.18919463484E+04  0.17300000000E+03 0.  1.
         -6    1    1    2    0  503 -0.12013660387E+03 -0.11877532911E+03  0.22770347142E+03  0.33214191739E+03  0.17300000000E+03 0.  1.
<mgrwt>
<rscale>  2 0.24180443E+03</rscale>
<asrwt>0</asrwt>
<pdfrwt beam="1">  1       21 0.33294012E+00 0.24180443E+03</pdfrwt>
<pdfrwt beam="2">  1       21 0.92272514E-02 0.24180443E+03</pdfrwt>
<totfact> 0.19398525E+03</totfact>
</mgrwt>
</event>
<event>
 4    3  0.3906307E+000  0.1815578E+03  0.7546771E-02  0.1166304E+00
         21   -1    0    0  503  502  0.00000000000E+00  0.00000000000E+00  0.28631696614E+03  0.28631696614E+03  0.00000000000E+00 0.  1.
         21   -1    0    0  501  503 -0.00000000000E+00 -0.00000000000E+00 -0.27276210348E+03  0.27276210348E+03  0.00000000000E+00 0. -1.
          6    1    1    2  501    0  0.46567112858E+02 -0.29423275618E+02 -0.20573077689E+03  0.27438727687E+03  0.17300000000E+03 0. -1.
         -6    1    1    2    0  502 -0.46567112858E+02  0.29423275618E+02  0.21928563955E+03  0.28469179275E+03  0.17300000000E+03 0.  1.
<mgrwt>
<rscale>  2 0.18155777E+03</rscale>
<asrwt>0</asrwt>
<pdfrwt beam="1">  1       21 0.44048764E-01 0.18155777E+03</pdfrwt>
<pdfrwt beam="2">  1       21 0.41963401E-01 0.18155777E+03</pdfrwt>
<totfact> 0.27227155E+04</totfact>
</mgrwt>
</event>
<event>
 4    3  0.3906307E+000  0.2029271E+03  0.7546771E-02  0.1147293E+00
         21   -1    0    0  503  502  0.00000000000E+00  0.00000000000E+00  0.21824424227E+04  0.21824424227E+04  0.00000000000E+00 0. -1.
         21   -1    0    0  501  503 -0.00000000000E+00 -0.00000000000E+00 -0.59817136380E+02  0.59817136380E+02  0.00000000000E+00 0.  1.
          6    1    1    2  501    0 -0.72651644190E+02  0.77279788430E+02  0.13370830383E+03  0.24301715499E+03  0.17300000000E+03 0.  1.
         -6    1    1    2    0  502  0.72651644190E+02 -0.77279788430E+02  0.19889169825E+04  0.19992424041E+04  0.17300000000E+03 0. -1.
<mgrwt>
<rscale>  2 0.20292715E+03</rscale>
<asrwt>0</asrwt>
<pdfrwt beam="1">  1       21 0.33576031E+00 0.20292715E+03</pdfrwt>
<pdfrwt beam="2">  1       21 0.92026381E-02 0.20292715E+03</pdfrwt>
<totfact> 0.19644665E+03</totfact>
</mgrwt>
</event>
<event>
 4    3  0.3906307E+000  0.2001074E+03  0.7546771E-02  0.1149648E+00
         21   -1    0    0  501  502  0.00000000000E+00  0.00000000000E+00  0.31155051071E+03  0.31155051071E+03  0.00000000000E+00 0. -1.
         21   -1    0    0  502  503 -0.00000000000E+00 -0.00000000000E+00 -0.28843983494E+03  0.28843983494E+03  0.00000000000E+00 0. -1.
          6    1    1    2  501    0 -0.69142223186E+02  0.73029547810E+02  0.23492642620E+03  0.30859907260E+03  0.17300000000E+03 0. -1.
         -6    1    1    2    0  503  0.69142223186E+02 -0.73029547810E+02 -0.21181575043E+03  0.29139127305E+03  0.17300000000E+03 0. -1.
<mgrwt>
<rscale>  2 0.20010738E+03</rscale>
<asrwt>0</asrwt>
<pdfrwt beam="1">  1       21 0.47930848E-01 0.20010738E+03</pdfrwt>
<pdfrwt beam="2">  1       21 0.44375359E-01 0.20010738E+03</pdfrwt>
<totfact> 0.20197171E+04</totfact>
</mgrwt>
</event>
<event>
 4    3  0.3906307E+000  0.2724307E+03  0.7546771E-02  0.1099896E+00
         21   -1    0    0  501  502  0.00000000000E+00  0.00000000000E+00  0.11808257077E+03  0.11808257077E+03  0.00000000000E+00 0.  1.
         21   -1    0    0  502  503 -0.00000000000E+00 -0.00000000000E+00 -0.15105974771E+04  0.15105974771E+04  0.00000000000E+00 0. -1.
          6    1    1    2  501    0  0.18597538573E+03  0.98502052349E+02 -0.73982698748E+02  0.28229760560E+03  0.17300000000E+03 0.  1.
         -6    1    1    2    0  503 -0.18597538573E+03 -0.98502052349E+02 -0.13185322076E+04  0.13463824423E+04  0.17300000000E+03 0. -1.
<mgrwt>
<rscale>  2 0.27243072E+03</rscale>
<asrwt>0</asrwt>
<pdfrwt beam="1">  1       21 0.18166551E-01 0.27243072E+03</pdfrwt>
<pdfrwt beam="2">  1       21 0.23239958E+00 0.27243072E+03</pdfrwt>
<totfact> 0.21680754E+03</totfact>
</mgrwt>
</event>
<event>
 4    3  0.3906307E+000  0.1898116E+03  0.7546771E-02  0.1158631E+00
         21   -1    0    0  501  502  0.00000000000E+00  0.00000000000E+00  0.54709323565E+03  0.54709323565E+03  0.00000000000E+00 0.  1.
         21   -1    0    0  502  503 -0.00000000000E+00 -0.00000000000E+00 -0.66026384319E+02  0.66026384319E+02  0.00000000000E+00 0.  1.
          6    1    1    2  501    0 -0.16311031501E+02  0.76376676611E+02  0.22488333218E+03  0.29428040976E+03  0.17300000000E+03 0.  1.
         -6    1    1    2    0  503  0.16311031501E+02 -0.76376676611E+02  0.25618351915E+03  0.31883921020E+03  0.17300000000E+03 0.  1.
<mgrwt>
<rscale>  2 0.18981161E+03</rscale>
<asrwt>0</asrwt>
<pdfrwt beam="1">  1       21 0.84168187E-01 0.18981161E+03</pdfrwt>
<pdfrwt beam="2">  1       21 0.10157906E-01 0.18981161E+03</pdfrwt>
<totfact> 0.96838474E+04</totfact>
</mgrwt>
</event>
<event>
 4    3  0.3906307E+000  0.1881879E+03  0.7546771E-02  0.1160106E+00
         21   -1    0    0  501  502  0.00000000000E+00  0.00000000000E+00  0.84544681550E+03  0.84544681550E+03  0.00000000000E+00 0. -1.
         21   -1    0    0  502  503 -0.00000000000E+00 -0.00000000000E+00 -0.11474982514E+03  0.11474982514E+03  0.00000000000E+00 0. -1.
          6    1    1    2  501    0  0.71362463543E+02  0.19826028565E+02  0.74791072565E+03  0.77122313642E+03  0.17300000000E+03 0.  1.
         -6    1    1    2    0  503 -0.71362463543E+02 -0.19826028565E+02 -0.17213735289E+02  0.18897350421E+03  0.17300000000E+03 0.  1.
<mgrwt>
<rscale>  2 0.18818787E+03</rscale>
<asrwt>0</asrwt>
<pdfrwt beam="1">  1       21 0.13006874E+00 0.18818787E+03</pdfrwt>
<pdfrwt beam="2">  1       21 0.17653820E-01 0.18818787E+03</pdfrwt>
<totfact> 0.12601828E+04</totfact>
</mgrwt>
</event>
<event>
 4    3  0.3906307E+000  0.1781995E+03  0.7546771E-02  0.1169557E+00
         21   -1    0    0  501  502  0.00000000000E+00  0.00000000000E+00  0.34696893598E+03  0.34696893598E+03  0.00000000000E+00 0. -1.
         21   -1    0    0  502  503 -0.00000000000E+00 -0.00000000000E+00 -0.98455996162E+02  0.98455996162E+02  0.00000000000E+00 0. -1.
          6    1    1    2  501    0  0.25844020692E+02  0.34031581077E+02  0.18336306087E+03  0.25568940926E+03  0.17300000000E+03 0.  1.
         -6    1    1    2    0  503 -0.25844020692E+02 -0.34031581077E+02  0.65149878945E+02  0.18973552288E+03  0.17300000000E+03 0.  1.
<mgrwt>
<rscale>  2 0.17819950E+03</rscale>
<asrwt>0</asrwt>
<pdfrwt beam="1">  1       21 0.53379836E-01 0.17819950E+03</pdfrwt>
<pdfrwt beam="2">  1       21 0.15147076E-01 0.17819950E+03</pdfrwt>
<totfact> 0.12868090E+05</totfact>
</mgrwt>
</event>
<event>
 4    3  0.3906307E+000  0.2737819E+03  0.7546771E-02  0.1099134E+00
         21   -1    0    0  501  502  0.00000000000E+00  0.00000000000E+00  0.35046004320E+03  0.35046004320E+03  0.00000000000E+00 0.  1.
         21   -1    0    0  502  503 -0.00000000000E+00 -0.00000000000E+00 -0.91485072516E+03  0.91485072516E+03  0.00000000000E+00 0. -1.
          6    1    1    2  501    0  0.18175004948E+03  0.10951906479E+03  0.27159060692E+03  0.38563968131E+03  0.17300000000E+03 0.  1.
         -6    1    1    2    0  503 -0.18175004948E+03 -0.10951906479E+03 -0.83598128888E+03  0.87967108705E+03  0.17300000000E+03 0. -1.
<mgrwt>
<rscale>  2 0.27378186E+03</rscale>
<asrwt>0</asrwt>
<pdfrwt beam="1">  1       21 0.53916930E-01 0.27378186E+03</pdfrwt>
<pdfrwt beam="2">  1       21 0.14074626E+00 0.27378186E+03</pdfrwt>
<totfact> 0.10698553E+03</totfact>
</mgrwt>
</event>
<event>
 4    3  0.3906307E+000  0.1780011E+03  0.7546771E-02  0.1169752E+00
         21   -1    0    0  503  502  0.00000000000E+00  0.00000000000E+00  0.12112029036E+04  0.12112029036E+04  0.00000000000E+00 0.  1.
         21   -1    0    0  501  503 -0.00000000000E+00 -0.00000000000E+00 -0.26811911601E+02  0.26811911601E+02  0.00000000000E+00 0.  1.
          6    1    1    2  501    0 -0.74134215407E+01 -0.41236420950E+02  0.49563275369E+03  0.52662721897E+03  0.17300000000E+03 0.  1.
         -6    1    1    2    0  502  0.74134215407E+01  0.41236420950E+02  0.68875823835E+03  0.71138759627E+03  0.17300000000E+03 0.  1.
<mgrwt>
<rscale>  2 0.17800113E+03</rscale>
<asrwt>0</asrwt>
<pdfrwt beam="1">  1       21 0.18633887E+00 0.17800113E+03</pdfrwt>
<pdfrwt beam="2">  1       21 0.41249104E-02 0.17800113E+03</pdfrwt>
<totfact> 0.61925933E+04</totfact>
</mgrwt>
</event>
<event>
 4    3  0.3906307E+000  0.1852151E+03  0.7546771E-02  0.1162849E+00
         21   -1    0    0  503  502  0.00000000000E+00  0.00000000000E+00  0.67705962181E+02  0.67705962181E+02  0.00000000000E+00 0.  1.
         21   -1    0    0  501  503 -0.00000000000E+00 -0.00000000000E+00 -0.10904601675E+04  0.10904601675E+04  0.00000000000E+00 0.  1.
          6    1    1    2  501    0 -0.14858865177E+02 -0.64458006469E+02 -0.93508262661E+03  0.95324925338E+03  0.17300000000E+03 0.  1.
         -6    1    1    2    0  502  0.14858865177E+02  0.64458006469E+02 -0.87671578667E+02  0.20491687627E+03  0.17300000000E+03 0.  1.
<mgrwt>
<rscale>  2 0.18521507E+03</rscale>
<asrwt>0</asrwt>
<pdfrwt beam="1">  1       21 0.10416301E-01 0.18521507E+03</pdfrwt>
<pdfrwt beam="2">  1       21 0.16776311E+00 0.18521507E+03</pdfrwt>
<totfact> 0.16796159E+04</totfact>
</mgrwt>
</event>
<event>
 4    3  0.3906307E+000  0.2677962E+03  0.7546771E-02  0.1102548E+00
         21   -1    0    0  501  502  0.00000000000E+00  0.00000000000E+00  0.25874270787E+03  0.25874270787E+03  0.00000000000E+00 0.  1.
         21   -1    0    0  502  503 -0.00000000000E+00 -0.00000000000E+00 -0.28952396098E+03  0.28952396098E+03  0.00000000000E+00 0. -1.
          6    1    1    2  501    0 -0.10398806559E+03 -0.17598938046E+03 -0.72025810652E+02  0.27731299504E+03  0.17300000000E+03 0. -1.
         -6    1    1    2    0  503  0.10398806559E+03  0.17598938046E+03  0.41244557546E+02  0.27095367380E+03  0.17300000000E+03 0.  1.
<mgrwt>
<rscale>  2 0.26779615E+03</rscale>
<asrwt>0</asrwt>
<pdfrwt beam="1">  1       21 0.39806570E-01 0.26779615E+03</pdfrwt>
<pdfrwt beam="2">  1       21 0.44542148E-01 0.26779615E+03</pdfrwt>
<totfact> 0.28376727E+04</totfact>
</mgrwt>
</event>
<event>
 4    3  0.3906307E+000  0.1745518E+03  0.7546771E-02  0.1173182E+00
         21   -1    0    0  503  502  0.00000000000E+00  0.00000000000E+00  0.33643647447E+03  0.33643647447E+03  0.00000000000E+00 0. -1.
         21   -1    0    0  501  503 -0.00000000000E+00 -0.00000000000E+00 -0.27426191746E+03  0.27426191746E+03  0.00000000000E+00 0. -1.
          6    1    1    2  501    0 -0.12886560483E+02 -0.19320206171E+02 -0.21881406984E+03  0.27990700415E+03  0.17300000000E+03 0. -1.
         -6    1    1    2    0  502  0.12886560483E+02  0.19320206171E+02  0.28098862685E+03  0.33079138778E+03  0.17300000000E+03 0. -1.
<mgrwt>
<rscale>  2 0.17455181E+03</rscale>
<asrwt>0</asrwt>
<pdfrwt beam="1">  1       21 0.51759457E-01 0.17455181E+03</pdfrwt>
<pdfrwt beam="2">  1       21 0.42194141E-01 0.17455181E+03</pdfrwt>
<totfact> 0.19371952E+04</totfact>
</mgrwt>
</event>
<event>
 4    3  0.3906307E+000  0.2321861E+03  0.7546771E-02  0.1125111E+00
         21   -1    0    0  501  502  0.00000000000E+00  0.00000000000E+00  0.18286127707E+04  0.18286127707E+04  0.00000000000E+00 0. -1.
         21   -1    0    0  502  503 -0.00000000000E+00 -0.00000000000E+00 -0.30577087840E+02  0.30577087840E+02  0.00000000000E+00 0.  1.
          6    1    1    2  501    0  0.83465031686E+02 -0.13044139805E+03  0.10749746255E+04  0.10997639816E+04  0.17300000000E+03 0.  1.
         -6    1    1    2    0  503 -0.83465031686E+02  0.13044139805E+03  0.72306105740E+03  0.75942587694E+03  0.17300000000E+03 0.  1.
<mgrwt>
<rscale>  2 0.23218607E+03</rscale>
<asrwt>0</asrwt>
<pdfrwt beam="1">  1       21 0.28132496E+00 0.23218607E+03</pdfrwt>
<pdfrwt beam="2">  1       21 0.47041688E-02 0.23218607E+03</pdfrwt>
<totfact> 0.12567431E+04</totfact>
</mgrwt>
</event>
<event>
 4    3  0.3906307E+000  0.2200424E+03  0.7546771E-02  0.1133851E+00
         21   -1    0    0  503  502  0.00000000000E+00  0.00000000000E+00  0.58964210777E+03  0.58964210777E+03  0.00000000000E+00 0. -1.
         21   -1    0    0  501  503 -0.00000000000E+00 -0.00000000000E+00 -0.82122946884E+02  0.82122946884E+02  0.00000000000E+00 0.  1.
          6    1    1    2  501    0 -0.64872688798E+02 -0.11950388929E+03  0.25052086456E+03  0.33343567428E+03  0.17300000000E+03 0.  1.
         -6    1    1    2    0  502  0.64872688798E+02  0.11950388929E+03  0.25699829633E+03  0.33832938037E+03  0.17300000000E+03 0. -1.
<mgrwt>
<rscale>  2 0.22004237E+03</rscale>
<asrwt>0</asrwt>
<pdfrwt beam="1">  1       21 0.90714168E-01 0.22004237E+03</pdfrwt>
<pdfrwt beam="2">  1       21 0.12634300E-01 0.22004237E+03</pdfrwt>
<totfact> 0.54469481E+04</totfact>
</mgrwt>
</event>
<event>
 4    3  0.3906307E+000  0.1911113E+03  0.7546771E-02  0.1157463E+00
         21   -1    0    0  501  502  0.00000000000E+00  0.00000000000E+00  0.40931949853E+02  0.40931949853E+02  0.00000000000E+00 0. -1.
         21   -1    0    0  502  503 -0.00000000000E+00 -0.00000000000E+00 -0.94509286078E+03  0.94509286078E+03  0.00000000000E+00 0. -1.
          6    1    1    2  501    0  0.62026241766E+02 -0.52414366677E+02 -0.56860410220E+03  0.59986177203E+03  0.17300000000E+03 0.  1.
         -6    1    1    2    0  503 -0.62026241766E+02  0.52414366677E+02 -0.33555680873E+03  0.38616303861E+03  0.17300000000E+03 0.  1.
<mgrwt>
<rscale>  2 0.19111128E+03</rscale>
<asrwt>0</asrwt>
<pdfrwt beam="1">  1       21 0.62972236E-02 0.19111128E+03</pdfrwt>
<pdfrwt beam="2">  1       21 0.14539889E+00 0.19111128E+03</pdfrwt>
<totfact> 0.58914591E+04</totfact>
</mgrwt>
</event>
<event>
 4    3  0.3906307E+000  0.1963290E+03  0.7546771E-02  0.1152874E+00
         21   -1    0    0  501  502  0.00000000000E+00  0.00000000000E+00  0.55539084128E+02  0.55539084128E+02  0.00000000000E+00 0. -1.
         21   -1    0    0  502  503 -0.00000000000E+00 -0.00000000000E+00 -0.76328062909E+03  0.76328062909E+03  0.00000000000E+00 0. -1.
          6    1    1    2  501    0  0.92374281570E+02 -0.91135790414E+01 -0.23054070101E+03  0.30281030372E+03  0.17300000000E+03 0. -1.
         -6    1    1    2    0  503 -0.92374281570E+02  0.91135790414E+01 -0.47720084395E+03  0.51600940950E+03  0.17300000000E+03 0. -1.
<mgrwt>
<rscale>  2 0.19632897E+03</rscale>
<asrwt>0</asrwt>
<pdfrwt beam="1">  1       21 0.85444744E-02 0.19632897E+03</pdfrwt>
<pdfrwt beam="2">  1       21 0.11742779E+00 0.19632897E+03</pdfrwt>
<totfact> 0.59488637E+04</totfact>
</mgrwt>
</event>
<event>
 4    3  0.3906307E+000  0.1812500E+03  0.7546771E-02  0.1166599E+00
         21   -1    0    0  503  502  0.00000000000E+00  0.00000000000E+00  0.15019583771E+04  0.15019583771E+04  0.00000000000E+00 0.  1.
         21   -1    0    0  501  503 -0.00000000000E+00 -0.00000000000E+00 -0.24502657361E+02  0.24502657361E+02  0.00000000000E+00 0.  1.
          6    1    1    2  501    0  0.18344619527E+02  0.50853048565E+02  0.48866943943E+03  0.52119994114E+03  0.17300000000E+03 0.  1.
         -6    1    1    2    0  502 -0.18344619527E+02 -0.50853048565E+02  0.98878628032E+03  0.10052610933E+04  0.17300000000E+03 0.  1.
<mgrwt>
<rscale>  2 0.18124999E+03</rscale>
<asrwt>0</asrwt>
<pdfrwt beam="1">  1       21 0.23107045E+00 0.18124999E+03</pdfrwt>
<pdfrwt beam="2">  1       21 0.37696408E-02 0.18124999E+03</pdfrwt>
<totfact> 0.37616287E+04</totfact>
</mgrwt>
</event>
<event>
 4    3  0.3906307E+000  0.1811680E+03  0.7546771E-02  0.1166677E+00
         21   -1    0    0  503  502  0.00000000000E+00  0.00000000000E+00  0.10565110661E+04  0.10565110661E+04  0.00000000000E+00 0. -1.
         21   -1    0    0  501  503 -0.00000000000E+00 -0.00000000000E+00 -0.89944445417E+02  0.89944445417E+02  0.00000000000E+00 0. -1.
          6    1    1    2  501    0  0.24413623638E+02 -0.47925224577E+02  0.19497743953E+02  0.18221419865E+03  0.17300000000E+03 0. -1.
         -6    1    1    2    0  502 -0.24413623638E+02  0.47925224577E+02  0.94706887672E+03  0.96424131286E+03  0.17300000000E+03 0. -1.
<mgrwt>
<rscale>  2 0.18116802E+03</rscale>
<asrwt>0</asrwt>
<pdfrwt beam="1">  1       21 0.16254016E+00 0.18116802E+03</pdfrwt>
<pdfrwt beam="2">  1       21 0.13837608E-01 0.18116802E+03</pdfrwt>
<totfact> 0.11051347E+04</totfact>
</mgrwt>
</event>
<event>
 4    3  0.3906307E+000  0.1768026E+03  0.7546771E-02  0.1170934E+00
         21   -1    0    0  501  502  0.00000000000E+00  0.00000000000E+00  0.52013613352E+03  0.52013613352E+03  0.00000000000E+00 0. -1.
         21   -1    0    0  502  503 -0.00000000000E+00 -0.00000000000E+00 -0.24975237910E+03  0.24975237910E+03  0.00000000000E+00 0. -1.
          6    1    1    2  501    0  0.17154673533E+02  0.32184939490E+02  0.47063928373E+03  0.50275291003E+03  0.17300000000E+03 0. -1.
         -6    1    1    2    0  503 -0.17154673533E+02 -0.32184939490E+02 -0.20025552931E+03  0.26713560260E+03  0.17300000000E+03 0. -1.
<mgrwt>
<rscale>  2 0.17680258E+03</rscale>
<asrwt>0</asrwt>
<pdfrwt beam="1">  1       21 0.80020943E-01 0.17680258E+03</pdfrwt>
<pdfrwt beam="2">  1       21 0.38423443E-01 0.17680258E+03</pdfrwt>
<totfact> 0.90808158E+03</totfact>
</mgrwt>
</event>
<event>
 4    3  0.3906307E+000  0.2871609E+03  0.7546771E-02  0.1091841E+00
         21   -1    0    0  501  502  0.00000000000E+00  0.00000000000E+00  0.62952189450E+02  0.62952189450E+02  0.00000000000E+00 0. -1.
         21   -1    0    0  502  503 -0.00000000000E+00 -0.00000000000E+00 -0.14106788606E+04  0.14106788606E+04  0.00000000000E+00 0. -1.
          6    1    1    2  501    0  0.48897865927E+02  0.22392272390E+03 -0.47693026965E+03  0.55670806504E+03  0.17300000000E+03 0. -1.
         -6    1    1    2    0  503 -0.48897865927E+02 -0.22392272390E+03 -0.87079640150E+03  0.91692298501E+03  0.17300000000E+03 0. -1.
<mgrwt>
<rscale>  2 0.28716091E+03</rscale>
<asrwt>0</asrwt>
<pdfrwt beam="1">  1       21 0.96849522E-02 0.28716091E+03</pdfrwt>
<pdfrwt beam="2">  1       21 0.21702752E+00 0.28716091E+03</pdfrwt>
<totfact> 0.83963447E+03</totfact>
</mgrwt>
</event>
<event>
 4    3  0.3906307E+000  0.1942156E+03  0.7546771E-02  0.1154713E+00
         21   -1    0    0  501  502  0.00000000000E+00  0.00000000000E+00  0.21572018550E+03  0.21572018550E+03  0.00000000000E+00 0.  1.
         21   -1    0    0  502  503 -0.00000000000E+00 -0.00000000000E+00 -0.23708784605E+03  0.23708784605E+03  0.00000000000E+00 0.  1.
          6    1    1    2  501    0 -0.81518107910E+02  0.33845399820E+02  0.10531135396E+03  0.22093029281E+03  0.17300000000E+03 0.  1.
         -6    1    1    2    0  503  0.81518107910E+02 -0.33845399820E+02 -0.12667901452E+03  0.23187773875E+03  0.17300000000E+03 0.  1.
<mgrwt>
<rscale>  2 0.19421564E+03</rscale>
<asrwt>0</asrwt>
<pdfrwt beam="1">  1       21 0.33187721E-01 0.19421564E+03</pdfrwt>
<pdfrwt beam="2">  1       21 0.36475053E-01 0.19421564E+03</pdfrwt>
<totfact> 0.63329440E+04</totfact>
</mgrwt>
</event>
<event>
 4    3  0.3906307E+000  0.3686182E+03  0.7546771E-02  0.1055223E+00
         21   -1    0    0  503  502  0.00000000000E+00  0.00000000000E+00  0.47514976224E+03  0.47514976224E+03  0.00000000000E+00 0. -1.
         21   -1    0    0  501  503 -0.00000000000E+00 -0.00000000000E+00 -0.30324612690E+03  0.30324612690E+03  0.00000000000E+00 0. -1.
          6    1    1    2  501    0 -0.23365461789E+02 -0.32466047854E+03 -0.69394959720E+01  0.36868350619E+03  0.17300000000E+03 0. -1.
         -6    1    1    2    0  502  0.23365461789E+02  0.32466047854E+03  0.17884313132E+03  0.40971238296E+03  0.17300000000E+03 0. -1.
<mgrwt>
<rscale>  2 0.36861819E+03</rscale>
<asrwt>0</asrwt>
<pdfrwt beam="1">  1       21 0.73099963E-01 0.36861819E+03</pdfrwt>
<pdfrwt beam="2">  1       21 0.46653251E-01 0.36861819E+03</pdfrwt>
<totfact> 0.67409898E+03</totfact>
</mgrwt>
</event>
<event>
 4    3  0.3906307E+000  0.1732604E+03  0.7546771E-02  0.1174490E+00
         21   -1    0    0  503  502  0.00000000000E+00  0.00000000000E+00  0.78175126349E+02  0.78175126349E+02  0.00000000000E+00 0.  1.
         21   -1    0    0  501  503 -0.00000000000E+00 -0.00000000000E+00 -0.48509965703E+03  0.48509965703E+03  0.00000000000E+00 0.  1.
          6    1    1    2  501    0 -0.94934342561E+01  0.19278066232E+00 -0.33203593381E+03  0.37452239425E+03  0.17300000000E+03 0.  1.
         -6    1    1    2    0  502  0.94934342561E+01 -0.19278066232E+00 -0.74888596874E+02  0.18875238912E+03  0.17300000000E+03 0.  1.
<mgrwt>
<rscale>  2 0.17326039E+03</rscale>
<asrwt>0</asrwt>
<pdfrwt beam="1">  1       21 0.12026943E-01 0.17326039E+03</pdfrwt>
<pdfrwt beam="2">  1       21 0.74630716E-01 0.17326039E+03</pdfrwt>
<totfact> 0.94693045E+04</totfact>
</mgrwt>
</event>
<event>
 4    3  0.3906307E+000  0.1780658E+03  0.7546771E-02  0.1169688E+00
         21   -1    0    0  501  502  0.00000000000E+00  0.00000000000E+00  0.11372962503E+04  0.11372962503E+04  0.00000000000E+00 0.  1.
         21   -1    0    0  502  503 -0.00000000000E+00 -0.00000000000E+00 -0.54103389367E+02  0.54103389367E+02  0.00000000000E+00 0.  1.
          6    1    1    2  501    0  0.42058609755E+02  0.30838025561E+01  0.95632354721E+03  0.97276007496E+03  0.17300000000E+03 0.  1.
         -6    1    1    2    0  503 -0.42058609755E+02 -0.30838025561E+01  0.12686931374E+03  0.21863956472E+03  0.17300000000E+03 0.  1.
<mgrwt>
<rscale>  2 0.17806582E+03</rscale>
<asrwt>0</asrwt>
<pdfrwt beam="1">  1       21 0.17496864E+00 0.17806582E+03</pdfrwt>
<pdfrwt beam="2">  1       21 0.83235992E-02 0.17806582E+03</pdfrwt>
<totfact> 0.22294137E+04</totfact>
</mgrwt>
</event>
<event>
 4    3  0.3906307E+000  0.2237369E+03  0.7546771E-02  0.1131127E+00
         21   -1    0    0  501  502  0.00000000000E+00  0.00000000000E+00  0.18492787389E+04  0.18492787389E+04  0.00000000000E+00 0. -1.
         21   -1    0    0  502  503 -0.00000000000E+00 -0.00000000000E+00 -0.49897840548E+02  0.49897840548E+02  0.00000000000E+00 0. -1.
          6    1    1    2  501    0  0.10217911864E+03  0.98430796616E+02  0.15419876855E+04  0.15581348518E+04  0.17300000000E+03 0. -1.
         -6    1    1    2    0  503 -0.10217911864E+03 -0.98430796616E+02  0.25739321285E+03  0.34104172770E+03  0.17300000000E+03 0. -1.
<mgrwt>
<rscale>  2 0.22373689E+03</rscale>
<asrwt>0</asrwt>
<pdfrwt beam="1">  1       21 0.28450437E+00 0.22373689E+03</pdfrwt>
<pdfrwt beam="2">  1       21 0.76765923E-02 0.22373689E+03</pdfrwt>
<totfact> 0.52310598E+03</totfact>
</mgrwt>
</event>
<event>
 4    3  0.3906307E+000  0.2029999E+03  0.7546771E-02  0.1147232E+00
         21   -1    0    0  503  502  0.00000000000E+00  0.00000000000E+00  0.60585587901E+02  0.60585587901E+02  0.00000000000E+00 0.  1.
         21   -1    0    0  501  503 -0.00000000000E+00 -0.00000000000E+00 -0.88785204754E+03  0.88785204754E+03  0.00000000000E+00 0.  1.
          6    1    1    2  501    0 -0.20850215761E+01 -0.10618675197E+03 -0.64298377471E+03  0.67426783117E+03  0.17300000000E+03 0.  1.
         -6    1    1    2    0  502  0.20850215761E+01  0.10618675197E+03 -0.18428268493E+03  0.27416980427E+03  0.17300000000E+03 0.  1.
<mgrwt>
<rscale>  2 0.20299993E+03</rscale>
<asrwt>0</asrwt>
<pdfrwt beam="1">  1       21 0.93208593E-02 0.20299993E+03</pdfrwt>
<pdfrwt beam="2">  1       21 0.13659263E+00 0.20299993E+03</pdfrwt>
<totfact> 0.34807285E+04</totfact>
</mgrwt>
</event>
<event>
 4    3  0.3906307E+000  0.2309875E+03  0.7546771E-02  0.1125947E+00
         21   -1    0    0  501  502  0.00000000000E+00  0.00000000000E+00  0.10382399871E+04  0.10382399871E+04  0.00000000000E+00 0.  1.
         21   -1    0    0  502  503 -0.00000000000E+00 -0.00000000000E+00 -0.19424671816E+03  0.19424671816E+03  0.00000000000E+00 0.  1.
          6    1    1    2  501    0  0.10246806504E+03  0.11369477795E+03  0.95047310763E+03  0.97813819843E+03  0.17300000000E+03 0.  1.
         -6    1    1    2    0  503 -0.10246806504E+03 -0.11369477795E+03 -0.10647983869E+03  0.25434850684E+03  0.17300000000E+03 0.  1.
<mgrwt>
<rscale>  2 0.23098746E+03</rscale>
<asrwt>0</asrwt>
<pdfrwt beam="1">  1       21 0.15972923E+00 0.23098746E+03</pdfrwt>
<pdfrwt beam="2">  1       21 0.29884111E-01 0.23098746E+03</pdfrwt>
<totfact> 0.26249172E+03</totfact>
</mgrwt>
</event>
<event>
 4    3  0.3906307E+000  0.2224419E+03  0.7546771E-02  0.1132076E+00
         21   -1    0    0  503  502  0.00000000000E+00  0.00000000000E+00  0.18914915881E+02  0.18914915881E+02  0.00000000000E+00 0. -1.
         21   -1    0    0  501  503 -0.00000000000E+00 -0.00000000000E+00 -0.26222021283E+04  0.26222021283E+04  0.00000000000E+00 0. -1.
          6    1    1    2  501    0 -0.57313659457E+02  0.12754037301E+03 -0.12371420080E+04  0.12569808074E+04  0.17300000000E+03 0. -1.
         -6    1    1    2    0  502  0.57313659457E+02 -0.12754037301E+03 -0.13661452044E+04  0.13841362367E+04  0.17300000000E+03 0. -1.
<mgrwt>
<rscale>  2 0.22244191E+03</rscale>
<asrwt>0</asrwt>
<pdfrwt beam="1">  1       21 0.29099873E-02 0.22244191E+03</pdfrwt>
<pdfrwt beam="2">  1       21 0.40341568E+00 0.22244191E+03</pdfrwt>
<totfact> 0.53149655E+03</totfact>
</mgrwt>
</event>
<event>
 4    3  0.3906307E+000  0.2362513E+03  0.7546771E-02  0.1122316E+00
         21   -1    0    0  503  502  0.00000000000E+00  0.00000000000E+00  0.13220307827E+04  0.13220307827E+04  0.00000000000E+00 0.  1.
         21   -1    0    0  501  503 -0.00000000000E+00 -0.00000000000E+00 -0.13476037438E+03  0.13476037438E+03  0.00000000000E+00 0. -1.
          6    1    1    2  501    0  0.12889261898E+03  0.96293122384E+02 -0.99720164780E+01  0.23646165389E+03  0.17300000000E+03 0. -1.
         -6    1    1    2    0  502 -0.12889261898E+03 -0.96293122384E+02  0.11972424248E+04  0.12203295032E+04  0.17300000000E+03 0.  1.
<mgrwt>
<rscale>  2 0.23625129E+03</rscale>
<asrwt>0</asrwt>
<pdfrwt beam="1">  1       21 0.20338934E+00 0.23625129E+03</pdfrwt>
<pdfrwt beam="2">  1       21 0.20732366E-01 0.23625129E+03</pdfrwt>
<totfact> 0.26468133E+03</totfact>
</mgrwt>
</event>
<event>
 4    3  0.3906307E+000  0.4159046E+03  0.7546771E-02  0.1038408E+00
         21   -1    0    0  503  502  0.00000000000E+00  0.00000000000E+00  0.21233906233E+03  0.21233906233E+03  0.00000000000E+00 0. -1.
         21   -1    0    0  501  503 -0.00000000000E+00 -0.00000000000E+00 -0.99318640936E+03  0.99318640936E+03  0.00000000000E+00 0.  1.
          6    1    1    2  501    0 -0.35137189683E+03  0.13994784116E+03 -0.64600280480E+03  0.76830738115E+03  0.17300000000E+03 0.  1.
         -6    1    1    2    0  502  0.35137189683E+03 -0.13994784116E+03 -0.13484454223E+03  0.43721809054E+03  0.17300000000E+03 0. -1.
<mgrwt>
<rscale>  2 0.41590457E+03</rscale>
<asrwt>0</asrwt>
<pdfrwt beam="1">  1       21 0.32667547E-01 0.41590457E+03</pdfrwt>
<pdfrwt beam="2">  1       21 0.15279791E+00 0.41590457E+03</pdfrwt>
<totfact> 0.22316254E+03</totfact>
</mgrwt>
</event>
<event>
 4    3  0.3906307E+000  0.2331613E+03  0.7546771E-02  0.1124434E+00
         21   -1    0    0  503  502  0.00000000000E+00  0.00000000000E+00  0.42483367129E+03  0.42483367129E+03  0.00000000000E+00 0. -1.
         21   -1    0    0  501  503 -0.00000000000E+00 -0.00000000000E+00 -0.13819872122E+03  0.13819872122E+03  0.00000000000E+00 0.  1.
          6    1    1    2  501    0  0.69500742400E+02 -0.14001728924E+03  0.66713642842E+02  0.24251784393E+03  0.17300000000E+03 0.  1.
         -6    1    1    2    0  502 -0.69500742400E+02  0.14001728924E+03  0.21992130723E+03  0.32051454859E+03  0.17300000000E+03 0. -1.
<mgrwt>
<rscale>  2 0.23316131E+03</rscale>
<asrwt>0</asrwt>
<pdfrwt beam="1">  1       21 0.65359026E-01 0.23316131E+03</pdfrwt>
<pdfrwt beam="2">  1       21 0.21261342E-01 0.23316131E+03</pdfrwt>
<totfact> 0.43472341E+04</totfact>
</mgrwt>
</event>
<event>
 4    3  0.3906307E+000  0.2238346E+03  0.7546771E-02  0.1131056E+00
         21   -1    0    0  503  502  0.00000000000E+00  0.00000000000E+00  0.14220379461E+04  0.14220379461E+04  0.00000000000E+00 0.  1.
         21   -1    0    0  501  503 -0.00000000000E+00 -0.00000000000E+00 -0.35719617740E+02  0.35719617740E+02  0.00000000000E+00 0.  1.
          6    1    1    2  501    0  0.12307501015E+03  0.70890551078E+02  0.77827811680E+03  0.80982637364E+03  0.17300000000E+03 0.  1.
         -6    1    1    2    0  502 -0.12307501015E+03 -0.70890551078E+02  0.60804021153E+03  0.64793119017E+03  0.17300000000E+03 0.  1.
<mgrwt>
<rscale>  2 0.22383460E+03</rscale>
<asrwt>0</asrwt>
<pdfrwt beam="1">  1       21 0.21877503E+00 0.22383460E+03</pdfrwt>
<pdfrwt beam="2">  1       21 0.54953269E-02 0.22383460E+03</pdfrwt>
<totfact> 0.22907367E+04</totfact>
</mgrwt>
</event>
<event>
 4    3  0.3906307E+000  0.1783666E+03  0.7546771E-02  0.1169393E+00
         21   -1    0    0  501  502  0.00000000000E+00  0.00000000000E+00  0.23859935654E+03  0.23859935654E+03  0.00000000000E+00 0. -1.
         21   -1    0    0  502  503 -0.00000000000E+00 -0.00000000000E+00 -0.13841704155E+03  0.13841704155E+03  0.00000000000E+00 0. -1.
          6    1    1    2  501    0 -0.21002383663E+02 -0.38007040009E+02  0.86196976965E+02  0.19810238274E+03  0.17300000000E+03 0. -1.
         -6    1    1    2    0  503  0.21002383663E+02  0.38007040009E+02  0.13985338030E+02  0.17891401535E+03  0.17300000000E+03 0. -1.
<mgrwt>
<rscale>  2 0.17836658E+03</rscale>
<asrwt>0</asrwt>
<pdfrwt beam="1">  1       21 0.36707593E-01 0.17836658E+03</pdfrwt>
<pdfrwt beam="2">  1       21 0.21294929E-01 0.17836658E+03</pdfrwt>
<totfact> 0.14757759E+05</totfact>
</mgrwt>
</event>
<event>
 4    3  0.3906307E+000  0.1850935E+03  0.7546771E-02  0.1162963E+00
         21   -1    0    0  503  502  0.00000000000E+00  0.00000000000E+00  0.97982532343E+02  0.97982532343E+02  0.00000000000E+00 0.  1.
         21   -1    0    0  501  503 -0.00000000000E+00 -0.00000000000E+00 -0.61875685010E+03  0.61875685010E+03  0.00000000000E+00 0.  1.
          6    1    1    2  501    0 -0.37925156091E+02 -0.53779903948E+02 -0.49672519012E+03  0.53009009615E+03  0.17300000000E+03 0.  1.
         -6    1    1    2    0  502  0.37925156091E+02  0.53779903948E+02 -0.24049127633E+02  0.18664928629E+03  0.17300000000E+03 0.  1.
<mgrwt>
<rscale>  2 0.18509348E+03</rscale>
<asrwt>0</asrwt>
<pdfrwt beam="1">  1       21 0.15074236E-01 0.18509348E+03</pdfrwt>
<pdfrwt beam="2">  1       21 0.95193361E-01 0.18509348E+03</pdfrwt>
<totfact> 0.35987750E+04</totfact>
</mgrwt>
</event>
<event>
 4    3  0.3906307E+000  0.3345120E+03  0.7546771E-02  0.1069158E+00
         21   -1    0    0  503  502  0.00000000000E+00  0.00000000000E+00  0.25758420641E+03  0.25758420641E+03  0.00000000000E+00 0. -1.
         21   -1    0    0  501  503 -0.00000000000E+00 -0.00000000000E+00 -0.48892525013E+03  0.48892525013E+03  0.00000000000E+00 0.  1.
          6    1    1    2  501    0  0.20058374031E+03  0.20429250149E+03 -0.24030148625E+03  0.41187749069E+03  0.17300000000E+03 0.  1.
         -6    1    1    2    0  502 -0.20058374031E+03 -0.20429250149E+03  0.89604425338E+01  0.33463196586E+03  0.17300000000E+03 0. -1.
<mgrwt>
<rscale>  2 0.33451198E+03</rscale>
<asrwt>0</asrwt>
<pdfrwt beam="1">  1       21 0.39628340E-01 0.33451198E+03</pdfrwt>
<pdfrwt beam="2">  1       21 0.75219268E-01 0.33451198E+03</pdfrwt>
<totfact> 0.89798300E+03</totfact>
</mgrwt>
</event>
<event>
 4    3  0.3906307E+000  0.2404325E+03  0.7546771E-02  0.1119505E+00
         21   -1    0    0  503  502  0.00000000000E+00  0.00000000000E+00  0.48257052022E+02  0.48257052022E+02  0.00000000000E+00 0. -1.
         21   -1    0    0  501  503 -0.00000000000E+00 -0.00000000000E+00 -0.12347659924E+04  0.12347659924E+04  0.00000000000E+00 0. -1.
          6    1    1    2  501    0  0.13848099712E+03 -0.93283412791E+02 -0.70408123051E+03  0.74400145217E+03  0.17300000000E+03 0. -1.
         -6    1    1    2    0  502 -0.13848099712E+03  0.93283412791E+02 -0.48242770982E+03  0.53902159221E+03  0.17300000000E+03 0. -1.
<mgrwt>
<rscale>  2 0.24043249E+03</rscale>
<asrwt>0</asrwt>
<pdfrwt beam="1">  1       21 0.74241619E-02 0.24043249E+03</pdfrwt>
<pdfrwt beam="2">  1       21 0.18996400E+00 0.24043249E+03</pdfrwt>
<totfact> 0.20638786E+04</totfact>
</mgrwt>
</event>
<event>
 4    3  0.3906307E+000  0.2163574E+03  0.7546771E-02  0.1136628E+00
         21   -1    0    0  503  502  0.00000000000E+00  0.00000000000E+00  0.43817836863E+02  0.43817836863E+02  0.00000000000E+00 0.  1.
         21   -1    0    0  501  503 -0.00000000000E+00 -0.00000000000E+00 -0.15378840769E+04  0.15378840769E+04  0.00000000000E+00 0.  1.
          6    1    1    2  501    0 -0.48480444543E+02  0.12054522407E+03 -0.31002401944E+03  0.37805475421E+03  0.17300000000E+03 0.  1.
         -6    1    1    2    0  502  0.48480444543E+02 -0.12054522407E+03 -0.11840422206E+04  0.12036471596E+04  0.17300000000E+03 0.  1.
<mgrwt>
<rscale>  2 0.21635735E+03</rscale>
<asrwt>0</asrwt>
<pdfrwt beam="1">  1       21 0.67412061E-02 0.21635735E+03</pdfrwt>
<pdfrwt beam="2">  1       21 0.23659753E+00 0.21635735E+03</pdfrwt>
<totfact> 0.12625543E+04</totfact>
</mgrwt>
</event>
<event>
 4    3  0.3906307E+000  0.2032475E+03  0.7546771E-02  0.1147028E+00
         21   -1    0    0  503  502  0.00000000000E+00  0.00000000000E+00  0.73332992147E+03  0.73332992147E+03  0.00000000000E+00 0.  1.
         21   -1    0    0  501  503 -0.00000000000E+00 -0.00000000000E+00 -0.59250753404E+02  0.59250753404E+02  0.00000000000E+00 0.  1.
          6    1    1    2  501    0 -0.20330006372E+02 -0.10472455113E+03  0.24907540353E+03  0.32147798900E+03  0.17300000000E+03 0.  1.
         -6    1    1    2    0  502  0.20330006372E+02  0.10472455113E+03  0.42500376453E+03  0.47110268587E+03  0.17300000000E+03 0.  1.
<mgrwt>
<rscale>  2 0.20324749E+03</rscale>
<asrwt>0</asrwt>
<pdfrwt beam="1">  1       21 0.11281998E+00 0.20324749E+03</pdfrwt>
<pdfrwt beam="2">  1       21 0.91155010E-02 0.20324749E+03</pdfrwt>
<totfact> 0.58356364E+04</totfact>
</mgrwt>
</event>
<event>
 4    3  0.3906307E+000  0.2539941E+03  0.7546771E-02  0.1110806E+00
         21   -1    0    0  501  502  0.00000000000E+00  0.00000000000E+00  0.78407904084E+03  0.78407904084E+03  0.00000000000E+00 0.  1.
         21   -1    0    0  502  503 -0.00000000000E+00 -0.00000000000E+00 -0.27047492246E+03  0.27047492246E+03  0.00000000000E+00 0. -1.
          6    1    1    2  501    0  0.27413541217E+02 -0.18393618296E+03 -0.18302377524E+03  0.31306664458E+03  0.17300000000E+03 0. -1.
         -6    1    1    2    0  503 -0.27413541217E+02  0.18393618296E+03  0.69662789362E+03  0.74148731872E+03  0.17300000000E+03 0.  1.
<mgrwt>
<rscale>  2 0.25399414E+03</rscale>
<asrwt>0</asrwt>
<pdfrwt beam="1">  1       21 0.12062754E+00 0.25399414E+03</pdfrwt>
<pdfrwt beam="2">  1       21 0.41611527E-01 0.25399414E+03</pdfrwt>
<totfact> 0.27622955E+03</totfact>
</mgrwt>
</event>
<event>
 4    3  0.3906307E+000  0.1944170E+03  0.7546771E-02  0.1154537E+00
         21   -1    0    0  503  502  0.00000000000E+00  0.00000000000E+00  0.31588857046E+03  0.31588857046E+03  0.00000000000E+00 0. -1.
         21   -1    0    0  501  503 -0.00000000000E+00 -0.00000000000E+00 -0.14653192570E+03  0.14653192570E+03  0.00000000000E+00 0. -1.
          6    1    1    2  501    0 -0.32354601224E+02  0.82596391615E+02 -0.14341495036E+02  0.19494528106E+03  0.17300000000E+03 0. -1.
         -6    1    1    2    0  502  0.32354601224E+02 -0.82596391615E+02  0.18369813979E+03  0.26747521510E+03  0.17300000000E+03 0. -1.
<mgrwt>
<rscale>  2 0.19441704E+03</rscale>
<asrwt>0</asrwt>
<pdfrwt beam="1">  1       21 0.48598242E-01 0.19441704E+03</pdfrwt>
<pdfrwt beam="2">  1       21 0.22543373E-01 0.19441704E+03</pdfrwt>
<totfact> 0.74471172E+04</totfact>
</mgrwt>
</event>
<event>
 4    3  0.3906307E+000  0.2261697E+03  0.7546771E-02  0.1129365E+00
         21   -1    0    0  503  502  0.00000000000E+00  0.00000000000E+00  0.97276208054E+02  0.97276208054E+02  0.00000000000E+00 0. -1.
         21   -1    0    0  501  503 -0.00000000000E+00 -0.00000000000E+00 -0.68910432399E+03  0.68910432399E+03  0.00000000000E+00 0. -1.
          6    1    1    2  501    0  0.14457905164E+03  0.17906311494E+02 -0.48729205848E+03  0.53722089351E+03  0.17300000000E+03 0. -1.
         -6    1    1    2    0  502 -0.14457905164E+03 -0.17906311494E+02 -0.10453605745E+03  0.24915963853E+03  0.17300000000E+03 0. -1.
<mgrwt>
<rscale>  2 0.22616971E+03</rscale>
<asrwt>0</asrwt>
<pdfrwt beam="1">  1       21 0.14965570E-01 0.22616971E+03</pdfrwt>
<pdfrwt beam="2">  1       21 0.10601605E+00 0.22616971E+03</pdfrwt>
<totfact> 0.27596505E+04</totfact>
</mgrwt>
</event>
<event>
 4    3  0.3906307E+000  0.2382595E+03  0.7546771E-02  0.1120958E+00
         21   -1    0    0  501  502  0.00000000000E+00  0.00000000000E+00  0.28747200970E+03  0.28747200970E+03  0.00000000000E+00 0. -1.
         21   -1    0    0  502  503 -0.00000000000E+00 -0.00000000000E+00 -0.46200816048E+03  0.46200816048E+03  0.00000000000E+00 0. -1.
          6    1    1    2  501    0 -0.16285558276E+03  0.17794825489E+02  0.19629394878E+03  0.30870521696E+03  0.17300000000E+03 0. -1.
         -6    1    1    2    0  503  0.16285558276E+03 -0.17794825489E+02 -0.37083009956E+03  0.44077495322E+03  0.17300000000E+03 0. -1.
<mgrwt>
<rscale>  2 0.23825952E+03</rscale>
<asrwt>0</asrwt>
<pdfrwt beam="1">  1       21 0.44226463E-01 0.23825952E+03</pdfrwt>
<pdfrwt beam="2">  1       21 0.71078178E-01 0.23825952E+03</pdfrwt>
<totfact> 0.85353605E+03</totfact>
</mgrwt>
</event>
<event>
 4    3  0.3906307E+000  0.1964424E+03  0.7546771E-02  0.1152776E+00
         21   -1    0    0  501  502  0.00000000000E+00  0.00000000000E+00  0.13398365604E+04  0.13398365604E+04  0.00000000000E+00 0.  1.
         21   -1    0    0  502  503 -0.00000000000E+00 -0.00000000000E+00 -0.28976566324E+02  0.28976566324E+02  0.00000000000E+00 0.  1.
          6    1    1    2  501    0  0.91550844556E+02  0.16705643122E+02  0.60227017056E+03  0.63349743015E+03  0.17300000000E+03 0.  1.
         -6    1    1    2    0  503 -0.91550844556E+02 -0.16705643122E+02  0.70858982354E+03  0.73531569661E+03  0.17300000000E+03 0.  1.
<mgrwt>
<rscale>  2 0.19644245E+03</rscale>
<asrwt>0</asrwt>
<pdfrwt beam="1">  1       21 0.20612865E+00 0.19644245E+03</pdfrwt>
<pdfrwt beam="2">  1       21 0.44579343E-02 0.19644245E+03</pdfrwt>
<totfact> 0.39975859E+04</totfact>
</mgrwt>
</event>
<event>
 4    3  0.3906307E+000  0.1778027E+03  0.7546771E-02  0.1169947E+00
         21   -1    0    0  501  502  0.00000000000E+00  0.00000000000E+00  0.47899497733E+03  0.47899497733E+03  0.00000000000E+00 0.  1.
         21   -1    0    0  502  503 -0.00000000000E+00 -0.00000000000E+00 -0.93528566254E+02  0.93528566254E+02  0.00000000000E+00 0.  1.
          6    1    1    2  501    0 -0.40363487330E+02  0.74555887836E+01  0.34803658218E+03  0.39082382150E+03  0.17300000000E+03 0.  1.
         -6    1    1    2    0  503  0.40363487330E+02 -0.74555887836E+01  0.37429828889E+02  0.18169972208E+03  0.17300000000E+03 0.  1.
<mgrwt>
<rscale>  2 0.17780269E+03</rscale>
<asrwt>0</asrwt>
<pdfrwt beam="1">  1       21 0.73691534E-01 0.17780269E+03</pdfrwt>
<pdfrwt beam="2">  1       21 0.14389010E-01 0.17780269E+03</pdfrwt>
<totfact> 0.70415190E+04</totfact>
</mgrwt>
</event>
<event>
 4    3  0.3906307E+000  0.2038972E+03  0.7546771E-02  0.1146492E+00
         21   -1    0    0  501  502  0.00000000000E+00  0.00000000000E+00  0.14505844802E+04  0.14505844802E+04  0.00000000000E+00 0.  1.
         21   -1    0    0  502  503 -0.00000000000E+00 -0.00000000000E+00 -0.30918844619E+02  0.30918844619E+02  0.00000000000E+00 0.  1.
          6    1    1    2  501    0  0.93133582637E+02  0.54508803797E+02  0.50962418572E+03  0.54889970357E+03  0.17300000000E+03 0.  1.
         -6    1    1    2    0  503 -0.93133582637E+02 -0.54508803797E+02  0.91004144990E+03  0.93260362129E+03  0.17300000000E+03 0.  1.
<mgrwt>
<rscale>  2 0.20389721E+03</rscale>
<asrwt>0</asrwt>
<pdfrwt beam="1">  1       21 0.22316679E+00 0.20389721E+03</pdfrwt>
<pdfrwt beam="2">  1       21 0.47567465E-02 0.20389721E+03</pdfrwt>
<totfact> 0.27918293E+04</totfact>
</mgrwt>
</event>
<event>
 4    3  0.3906307E+000  0.2992138E+03  0.7546771E-02  0.1085634E+00
         21   -1    0    0  503  502  0.00000000000E+00  0.00000000000E+00  0.10708072334E+04  0.10708072334E+04  0.00000000000E+00 0.  1.
         21   -1    0    0  501  503 -0.00000000000E+00 -0.00000000000E+00 -0.14382227825E+03  0.14382227825E+03  0.00000000000E+00 0.  1.
          6    1    1    2  501    0 -0.73963272780E+01 -0.24401882368E+03  0.70533095563E+02  0.30741471913E+03  0.17300000000E+03 0.  1.
         -6    1    1    2    0  502  0.73963272780E+01  0.24401882368E+03  0.85645185955E+03  0.90721479248E+03  0.17300000000E+03 0.  1.
<mgrwt>
<rscale>  2 0.29921379E+03</rscale>
<asrwt>0</asrwt>
<pdfrwt beam="1">  1       21 0.16473957E+00 0.29921379E+03</pdfrwt>
<pdfrwt beam="2">  1       21 0.22126505E-01 0.29921379E+03</pdfrwt>
<totfact> 0.41131087E+03</totfact>
</mgrwt>
</event>
<event>
 4    3  0.3906307E+000  0.2130475E+03  0.7546771E-02  0.1139175E+00
         21   -1    0    0  503  502  0.00000000000E+00  0.00000000000E+00  0.10653270570E+03  0.10653270570E+03  0.00000000000E+00 0. -1.
         21   -1    0    0  501  503 -0.00000000000E+00 -0.00000000000E+00 -0.48442749293E+03  0.48442749293E+03  0.00000000000E+00 0.  1.
          6    1    1    2  501    0 -0.11049980268E+03  0.57009149093E+02 -0.29151305568E+03  0.36106662973E+03  0.17300000000E+03 0.  1.
         -6    1    1    2    0  502  0.11049980268E+03 -0.57009149093E+02 -0.86381731555E+02  0.22989356890E+03  0.17300000000E+03 0.  1.
<mgrwt>
<rscale>  2 0.21304753E+03</rscale>
<asrwt>0</asrwt>
<pdfrwt beam="1">  1       21 0.16389647E-01 0.21304753E+03</pdfrwt>
<pdfrwt beam="2">  1       21 0.74527309E-01 0.21304753E+03</pdfrwt>
<totfact> 0.53274098E+04</totfact>
</mgrwt>
</event>
<event>
 4    3  0.3906307E+000  0.1853269E+03  0.7546771E-02  0.1162745E+00
         21   -1    0    0  503  502  0.00000000000E+00  0.00000000000E+00  0.18172945014E+03  0.18172945014E+03  0.00000000000E+00 0. -1.
         21   -1    0    0  501  503 -0.00000000000E+00 -0.00000000000E+00 -0.24779505789E+03  0.24779505789E+03  0.00000000000E+00 0. -1.
          6    1    1    2  501    0 -0.78991027026E+01 -0.65989767666E+02 -0.13764895188E+03  0.23085337168E+03  0.17300000000E+03 0. -1.
         -6    1    1    2    0  502  0.78991027026E+01  0.65989767666E+02  0.71583344133E+02  0.19867113635E+03  0.17300000000E+03 0. -1.
<mgrwt>
<rscale>  2 0.18532686E+03</rscale>
<asrwt>0</asrwt>
<pdfrwt beam="1">  1       21 0.27958377E-01 0.18532686E+03</pdfrwt>
<pdfrwt beam="2">  1       21 0.38122316E-01 0.18532686E+03</pdfrwt>
<totfact> 0.81317734E+04</totfact>
</mgrwt>
</event>
<event>
 4    3  0.3906307E+000  0.2435001E+03  0.7546771E-02  0.1117483E+00
         21   -1    0    0  501  502  0.00000000000E+00  0.00000000000E+00  0.92094060518E+02  0.92094060518E+02  0.00000000000E+00 0. -1.
         21   -1    0    0  502  503 -0.00000000000E+00 -0.00000000000E+00 -0.10058151650E+04  0.10058151650E+04  0.00000000000E+00 0.  1.
          6    1    1    2  501    0 -0.14321200130E+03 -0.94093737109E+02 -0.12753402794E+03  0.27487676686E+03  0.17300000000E+03 0. -1.
         -6    1    1    2    0  503  0.14321200130E+03  0.94093737109E+02 -0.78618707657E+03  0.82303245868E+03  0.17300000000E+03 0.  1.
<mgrwt>
<rscale>  2 0.24350012E+03</rscale>
<asrwt>0</asrwt>
<pdfrwt beam="1">  1       21 0.14168317E-01 0.24350012E+03</pdfrwt>
<pdfrwt beam="2">  1       21 0.15474080E+00 0.24350012E+03</pdfrwt>
<totfact> 0.11569141E+04</totfact>
</mgrwt>
</event>
<event>
 4    3  0.3906307E+000  0.1948810E+03  0.7546771E-02  0.1154131E+00
         21   -1    0    0  503  502  0.00000000000E+00  0.00000000000E+00  0.86776580754E+03  0.86776580754E+03  0.00000000000E+00 0. -1.
         21   -1    0    0  501  503 -0.00000000000E+00 -0.00000000000E+00 -0.11620495788E+03  0.11620495788E+03  0.00000000000E+00 0. -1.
          6    1    1    2  501    0 -0.43122900822E+02  0.78676767028E+02 -0.12661446094E+02  0.19529191090E+03  0.17300000000E+03 0. -1.
         -6    1    1    2    0  502  0.43122900822E+02 -0.78676767028E+02  0.76422229576E+03  0.78867885453E+03  0.17300000000E+03 0. -1.
<mgrwt>
<rscale>  2 0.19488104E+03</rscale>
<asrwt>0</asrwt>
<pdfrwt beam="1">  1       21 0.13350243E+00 0.19488104E+03</pdfrwt>
<pdfrwt beam="2">  1       21 0.17877686E-01 0.19488104E+03</pdfrwt>
<totfact> 0.11472055E+04</totfact>
</mgrwt>
</event>
<event>
 4    3  0.3906307E+000  0.2979336E+03  0.7546771E-02  0.1086278E+00
         21   -1    0    0  501  502  0.00000000000E+00  0.00000000000E+00  0.16594053190E+03  0.16594053190E+03  0.00000000000E+00 0.  1.
         21   -1    0    0  502  503 -0.00000000000E+00 -0.00000000000E+00 -0.58584042973E+03  0.58584042973E+03  0.00000000000E+00 0. -1.
          6    1    1    2  501    0  0.20035796307E+03  0.13671907990E+03 -0.99126858171E+02  0.31399132820E+03  0.17300000000E+03 0.  1.
         -6    1    1    2    0  503 -0.20035796307E+03 -0.13671907990E+03 -0.32077303966E+03  0.43778963344E+03  0.17300000000E+03 0. -1.
<mgrwt>
<rscale>  2 0.29793358E+03</rscale>
<asrwt>0</asrwt>
<pdfrwt beam="1">  1       21 0.25529313E-01 0.29793358E+03</pdfrwt>
<pdfrwt beam="2">  1       21 0.90129297E-01 0.29793358E+03</pdfrwt>
<totfact> 0.14398706E+04</totfact>
</mgrwt>
</event>
<event>
 4    3  0.3906307E+000  0.3070265E+03  0.7546771E-02  0.1081780E+00
         21   -1    0    0  503  502  0.00000000000E+00  0.00000000000E+00  0.13986692987E+04  0.13986692987E+04  0.00000000000E+00 0. -1.
         21   -1    0    0  501  503 -0.00000000000E+00 -0.00000000000E+00 -0.16342847979E+03  0.16342847979E+03  0.00000000000E+00 0. -1.
          6    1    1    2  501    0 -0.61269693799E+02 -0.24613469853E+03  0.18902109539E+02  0.30760779402E+03  0.17300000000E+03 0. -1.
         -6    1    1    2    0  502  0.61269693799E+02  0.24613469853E+03  0.12163387093E+04  0.12544899844E+04  0.17300000000E+03 0. -1.
<mgrwt>
<rscale>  2 0.30702649E+03</rscale>
<asrwt>0</asrwt>
<pdfrwt beam="1">  1       21 0.21517988E+00 0.30702649E+03</pdfrwt>
<pdfrwt beam="2">  1       21 0.25142844E-01 0.30702649E+03</pdfrwt>
<totfact> 0.14604189E+03</totfact>
</mgrwt>
</event>
<event>
 4    3  0.3906307E+000  0.2611792E+03  0.7546771E-02  0.1106437E+00
         21   -1    0    0  501  502  0.00000000000E+00  0.00000000000E+00  0.14518666299E+03  0.14518666299E+03  0.00000000000E+00 0.  1.
         21   -1    0    0  502  503 -0.00000000000E+00 -0.00000000000E+00 -0.48817080922E+03  0.48817080922E+03  0.00000000000E+00 0. -1.
          6    1    1    2  501    0 -0.18271704984E+03  0.70000557522E+02 -0.23285639436E+03  0.34990955796E+03  0.17300000000E+03 0. -1.
         -6    1    1    2    0  503  0.18271704984E+03 -0.70000557522E+02 -0.11012775188E+03  0.28344791425E+03  0.17300000000E+03 0. -1.
<mgrwt>
<rscale>  2 0.26117925E+03</rscale>
<asrwt>0</asrwt>
<pdfrwt beam="1">  1       21 0.22336409E-01 0.26117925E+03</pdfrwt>
<pdfrwt beam="2">  1       21 0.75103202E-01 0.26117925E+03</pdfrwt>
<totfact> 0.28731631E+04</totfact>
</mgrwt>
</event>
<event>
 4    3  0.3906307E+000  0.2929493E+03  0.7546771E-02  0.1088819E+00
         21   -1    0    0  501  502  0.00000000000E+00  0.00000000000E+00  0.63128829923E+03  0.63128829923E+03  0.00000000000E+00 0.  1.
         21   -1    0    0  502  503 -0.00000000000E+00 -0.00000000000E+00 -0.14762595640E+03  0.14762595640E+03  0.00000000000E+00 0. -1.
          6    1    1    2  501    0  0.22722106848E+03  0.65275408017E+02  0.13227100517E+03  0.32142637051E+03  0.17300000000E+03 0. -1.
         -6    1    1    2    0  503 -0.22722106848E+03 -0.65275408017E+02  0.35139133766E+03  0.45748788513E+03  0.17300000000E+03 0.  1.
<mgrwt>
<rscale>  2 0.29294930E+03</rscale>
<asrwt>0</asrwt>
<pdfrwt beam="1">  1       21 0.97121275E-01 0.29294930E+03</pdfrwt>
<pdfrwt beam="2">  1       21 0.22711686E-01 0.29294930E+03</pdfrwt>
<totfact> 0.15141917E+04</totfact>
</mgrwt>
</event>
<event>
 4    3  0.3906307E+000  0.2242113E+03  0.7546771E-02  0.1130782E+00
         21   -1    0    0  501  502  0.00000000000E+00  0.00000000000E+00  0.23123196062E+02  0.23123196062E+02  0.00000000000E+00 0. -1.
         21   -1    0    0  502  503 -0.00000000000E+00 -0.00000000000E+00 -0.25596313524E+04  0.25596313524E+04  0.00000000000E+00 0. -1.
          6    1    1    2  501    0 -0.93476691507E+02 -0.10772106353E+03 -0.76703349857E+03  0.79913147061E+03  0.17300000000E+03 0. -1.
         -6    1    1    2    0  503  0.93476691507E+02  0.10772106353E+03 -0.17694746578E+04  0.17836230779E+04  0.17300000000E+03 0. -1.
<mgrwt>
<rscale>  2 0.22421133E+03</rscale>
<asrwt>0</asrwt>
<pdfrwt beam="1">  1       21 0.35574151E-02 0.22421133E+03</pdfrwt>
<pdfrwt beam="2">  1       21 0.39378941E+00 0.22421133E+03</pdfrwt>
<totfact> 0.43592657E+03</totfact>
</mgrwt>
</event>
<event>
 4    3  0.3906307E+000  0.1870135E+03  0.7546771E-02  0.1161183E+00
         21   -1    0    0  501  502  0.00000000000E+00  0.00000000000E+00  0.31641612798E+03  0.31641612798E+03  0.00000000000E+00 0. -1.
         21   -1    0    0  502  503 -0.00000000000E+00 -0.00000000000E+00 -0.12032332120E+03  0.12032332120E+03  0.00000000000E+00 0. -1.
          6    1    1    2  501    0  0.70961635287E+02  0.30827421290E+01  0.16033975635E+03  0.24633898280E+03  0.17300000000E+03 0. -1.
         -6    1    1    2    0  503 -0.70961635287E+02 -0.30827421290E+01  0.35753050424E+02  0.19040046638E+03  0.17300000000E+03 0. -1.
<mgrwt>
<rscale>  2 0.18701352E+03</rscale>
<asrwt>0</asrwt>
<pdfrwt beam="1">  1       21 0.48679404E-01 0.18701352E+03</pdfrwt>
<pdfrwt beam="2">  1       21 0.18511280E-01 0.18701352E+03</pdfrwt>
<totfact> 0.10761656E+05</totfact>
</mgrwt>
</event>
<event>
 4    3  0.3906307E+000  0.1740120E+03  0.7546771E-02  0.1173727E+00
         21   -1    0    0  503  502  0.00000000000E+00  0.00000000000E+00  0.32641139694E+03  0.32641139694E+03  0.00000000000E+00 0. -1.
         21   -1    0    0  501  503 -0.00000000000E+00 -0.00000000000E+00 -0.19710120376E+03  0.19710120376E+03  0.00000000000E+00 0. -1.
          6    1    1    2  501    0  0.89358519414E+01  0.16471617028E+02 -0.12578839229E+03  0.21471581975E+03  0.17300000000E+03 0. -1.
         -6    1    1    2    0  502 -0.89358519414E+01 -0.16471617028E+02  0.25509858547E+03  0.30879678095E+03  0.17300000000E+03 0. -1.
<mgrwt>
<rscale>  2 0.17401196E+03</rscale>
<asrwt>0</asrwt>
<pdfrwt beam="1">  1       21 0.50217138E-01 0.17401196E+03</pdfrwt>
<pdfrwt beam="2">  1       21 0.30323262E-01 0.17401196E+03</pdfrwt>
<totfact> 0.39782584E+04</totfact>
</mgrwt>
</event>
<event>
 4    3  0.3906307E+000  0.1754828E+03  0.7546771E-02  0.1172248E+00
         21   -1    0    0  503  502  0.00000000000E+00  0.00000000000E+00  0.15318523479E+03  0.15318523479E+03  0.00000000000E+00 0.  1.
         21   -1    0    0  501  503 -0.00000000000E+00 -0.00000000000E+00 -0.25869500037E+03  0.25869500037E+03  0.00000000000E+00 0.  1.
          6    1    1    2  501    0  0.16033553818E+02  0.24660257508E+02 -0.14998894768E+03  0.23084819162E+03  0.17300000000E+03 0.  1.
         -6    1    1    2    0  502 -0.16033553818E+02 -0.24660257508E+02  0.44479182091E+02  0.18103204354E+03  0.17300000000E+03 0.  1.
<mgrwt>
<rscale>  2 0.17548277E+03</rscale>
<asrwt>0</asrwt>
<pdfrwt beam="1">  1       21 0.23566960E-01 0.17548277E+03</pdfrwt>
<pdfrwt beam="2">  1       21 0.39799230E-01 0.17548277E+03</pdfrwt>
<totfact> 0.10379406E+05</totfact>
</mgrwt>
</event>
<event>
 4    3  0.3906307E+000  0.2043341E+03  0.7546771E-02  0.1146133E+00
         21   -1    0    0  503  502  0.00000000000E+00  0.00000000000E+00  0.46747857676E+03  0.46747857676E+03  0.00000000000E+00 0. -1.
         21   -1    0    0  501  503 -0.00000000000E+00 -0.00000000000E+00 -0.23130761594E+03  0.23130761594E+03  0.00000000000E+00 0. -1.
          6    1    1    2  501    0 -0.77098903408E+02  0.76675876677E+02 -0.15566418766E+03  0.25687306260E+03  0.17300000000E+03 0. -1.
         -6    1    1    2    0  502  0.77098903408E+02 -0.76675876677E+02  0.39183514848E+03  0.44191313010E+03  0.17300000000E+03 0. -1.
<mgrwt>
<rscale>  2 0.20433412E+03</rscale>
<asrwt>0</asrwt>
<pdfrwt beam="1">  1       21 0.71919781E-01 0.20433412E+03</pdfrwt>
<pdfrwt beam="2">  1       21 0.35585787E-01 0.20433412E+03</pdfrwt>
<totfact> 0.13187889E+04</totfact>
</mgrwt>
</event>
<event>
 4    3  0.3906307E+000  0.2003902E+03  0.7546771E-02  0.1149410E+00
         21   -1    0    0  501  502  0.00000000000E+00  0.00000000000E+00  0.53532755906E+02  0.53532755906E+02  0.00000000000E+00 0.  1.
         21   -1    0    0  502  503 -0.00000000000E+00 -0.00000000000E+00 -0.82369387502E+03  0.82369387502E+03  0.00000000000E+00 0.  1.
          6    1    1    2  501    0 -0.94665319662E+02 -0.35576727319E+02 -0.25399714994E+03  0.32352863621E+03  0.17300000000E+03 0.  1.
         -6    1    1    2    0  503  0.94665319662E+02  0.35576727319E+02 -0.51616396918E+03  0.55369799471E+03  0.17300000000E+03 0.  1.
<mgrwt>
<rscale>  2 0.20039019E+03</rscale>
<asrwt>0</asrwt>
<pdfrwt beam="1">  1       21 0.82358088E-02 0.20039019E+03</pdfrwt>
<pdfrwt beam="2">  1       21 0.12672213E+00 0.20039019E+03</pdfrwt>
<totfact> 0.52367262E+04</totfact>
</mgrwt>
</event>
<event>
 4    3  0.3906307E+000  0.2005781E+03  0.7546771E-02  0.1149252E+00
         21   -1    0    0  501  502  0.00000000000E+00  0.00000000000E+00  0.15430434963E+03  0.15430434963E+03  0.00000000000E+00 0.  1.
         21   -1    0    0  502  503 -0.00000000000E+00 -0.00000000000E+00 -0.26985516207E+03  0.26985516207E+03  0.00000000000E+00 0.  1.
          6    1    1    2  501    0  0.99658281115E+02  0.19255709260E+02 -0.18773330534E+02  0.20145469285E+03  0.17300000000E+03 0.  1.
         -6    1    1    2    0  503 -0.99658281115E+02 -0.19255709260E+02 -0.96777481898E+02  0.22270481884E+03  0.17300000000E+03 0.  1.
<mgrwt>
<rscale>  2 0.20057805E+03</rscale>
<asrwt>0</asrwt>
<pdfrwt beam="1">  1       21 0.23739131E-01 0.20057805E+03</pdfrwt>
<pdfrwt beam="2">  1       21 0.41516179E-01 0.20057805E+03</pdfrwt>
<totfact> 0.93071339E+04</totfact>
</mgrwt>
</event>
<event>
 4    3  0.3906307E+000  0.2512842E+03  0.7546771E-02  0.1112496E+00
         21   -1    0    0  503  502  0.00000000000E+00  0.00000000000E+00  0.53324821038E+03  0.53324821038E+03  0.00000000000E+00 0.  1.
         21   -1    0    0  501  503 -0.00000000000E+00 -0.00000000000E+00 -0.15575751042E+03  0.15575751042E+03  0.00000000000E+00 0. -1.
          6    1    1    2  501    0 -0.25849188724E+02  0.18040661272E+03  0.20059182558E+02  0.25208351250E+03  0.17300000000E+03 0.  1.
         -6    1    1    2    0  502  0.25849188724E+02 -0.18040661272E+03  0.35743151741E+03  0.43692220830E+03  0.17300000000E+03 0. -1.
<mgrwt>
<rscale>  2 0.25128415E+03</rscale>
<asrwt>0</asrwt>
<pdfrwt beam="1">  1       21 0.82038186E-01 0.25128415E+03</pdfrwt>
<pdfrwt beam="2">  1       21 0.23962694E-01 0.25128415E+03</pdfrwt>
<totfact> 0.20657300E+04</totfact>
</mgrwt>
</event>
<event>
 4    3  0.3906307E+000  0.2167362E+03  0.7546771E-02  0.1136340E+00
         21   -1    0    0  501  502  0.00000000000E+00  0.00000000000E+00  0.16526987918E+03  0.16526987918E+03  0.00000000000E+00 0. -1.
         21   -1    0    0  502  503 -0.00000000000E+00 -0.00000000000E+00 -0.30577205938E+03  0.30577205938E+03  0.00000000000E+00 0. -1.
          6    1    1    2  501    0 -0.67000918780E+02  0.11205569057E+03 -0.13276515765E+03  0.25416763758E+03  0.17300000000E+03 0. -1.
         -6    1    1    2    0  503  0.67000918780E+02 -0.11205569057E+03 -0.77370225506E+01  0.21687430098E+03  0.17300000000E+03 0. -1.
<mgrwt>
<rscale>  2 0.21673625E+03</rscale>
<asrwt>0</asrwt>
<pdfrwt beam="1">  1       21 0.25426135E-01 0.21673625E+03</pdfrwt>
<pdfrwt beam="2">  1       21 0.47041855E-01 0.21673625E+03</pdfrwt>
<totfact> 0.62738507E+04</totfact>
</mgrwt>
</event>
<event>
 4    3  0.3906307E+000  0.2216662E+03  0.7546771E-02  0.1132647E+00
         21   -1    0    0  501  502  0.00000000000E+00  0.00000000000E+00  0.58794767295E+02  0.58794767295E+02  0.00000000000E+00 0. -1.
         21   -1    0    0  502  503 -0.00000000000E+00 -0.00000000000E+00 -0.10310393676E+04  0.10310393676E+04  0.00000000000E+00 0. -1.
          6    1    1    2  501    0  0.70366883300E+02 -0.11939605197E+03 -0.24894870417E+03  0.33333372587E+03  0.17300000000E+03 0. -1.
         -6    1    1    2    0  503 -0.70366883300E+02  0.11939605197E+03 -0.72329589611E+03  0.75650040901E+03  0.17300000000E+03 0. -1.
<mgrwt>
<rscale>  2 0.22166623E+03</rscale>
<asrwt>0</asrwt>
<pdfrwt beam="1">  1       21 0.90453492E-02 0.22166623E+03</pdfrwt>
<pdfrwt beam="2">  1       21 0.15862143E+00 0.22166623E+03</pdfrwt>
<totfact> 0.24485807E+04</totfact>
</mgrwt>
</event>
<event>
 4    3  0.3906307E+000  0.2502452E+03  0.7546771E-02  0.1113150E+00
         21   -1    0    0  501  502  0.00000000000E+00  0.00000000000E+00  0.50648596019E+03  0.50648596019E+03  0.00000000000E+00 0.  1.
         21   -1    0    0  502  503 -0.00000000000E+00 -0.00000000000E+00 -0.25400461261E+03  0.25400461261E+03  0.00000000000E+00 0.  1.
          6    1    1    2  501    0 -0.33834962723E+02 -0.17761994625E+03  0.39864908262E+03  0.47068433274E+03  0.17300000000E+03 0.  1.
         -6    1    1    2    0  503  0.33834962723E+02  0.17761994625E+03 -0.14616773505E+03  0.28980624006E+03  0.17300000000E+03 0.  1.
<mgrwt>
<rscale>  2 0.25024518E+03</rscale>
<asrwt>0</asrwt>
<pdfrwt beam="1">  1       21 0.77920917E-01 0.25024518E+03</pdfrwt>
<pdfrwt beam="2">  1       21 0.39077633E-01 0.25024518E+03</pdfrwt>
<totfact> 0.88814969E+03</totfact>
</mgrwt>
</event>
<event>
 4    3  0.3906307E+000  0.2328553E+03  0.7546771E-02  0.1124646E+00
         21   -1    0    0  501  502  0.00000000000E+00  0.00000000000E+00  0.53980243936E+02  0.53980243936E+02  0.00000000000E+00 0.  1.
         21   -1    0    0  502  503 -0.00000000000E+00 -0.00000000000E+00 -0.13800848803E+04  0.13800848803E+04  0.00000000000E+00 0.  1.
          6    1    1    2  501    0  0.15261993585E+03 -0.31619103433E+02 -0.28897915648E+03  0.37112068846E+03  0.17300000000E+03 0.  1.
         -6    1    1    2    0  503 -0.15261993585E+03  0.31619103433E+02 -0.10371254799E+04  0.10629444358E+04  0.17300000000E+03 0.  1.
<mgrwt>
<rscale>  2 0.23285535E+03</rscale>
<asrwt>0</asrwt>
<pdfrwt beam="1">  1       21 0.83046542E-02 0.23285535E+03</pdfrwt>
<pdfrwt beam="2">  1       21 0.21232072E+00 0.23285535E+03</pdfrwt>
<totfact> 0.12223264E+04</totfact>
</mgrwt>
</event>
<event>
 4    3  0.3906307E+000  0.1928663E+03  0.7546771E-02  0.1155901E+00
         21   -1    0    0  501  502  0.00000000000E+00  0.00000000000E+00  0.12362323843E+03  0.12362323843E+03  0.00000000000E+00 0.  1.
         21   -1    0    0  502  503 -0.00000000000E+00 -0.00000000000E+00 -0.32144993283E+03  0.32144993283E+03  0.00000000000E+00 0.  1.
          6    1    1    2  501    0  0.52472321462E+02 -0.67194345273E+02 -0.42637894403E+02  0.19752320015E+03  0.17300000000E+03 0. -1.
         -6    1    1    2    0  503 -0.52472321462E+02  0.67194345273E+02 -0.15518880000E+03  0.24754997112E+03  0.17300000000E+03 0. -1.
<mgrwt>
<rscale>  2 0.19286634E+03</rscale>
<asrwt>0</asrwt>
<pdfrwt beam="1">  1       21 0.19018960E-01 0.19286634E+03</pdfrwt>
<pdfrwt beam="2">  1       21 0.49453836E-01 0.19286634E+03</pdfrwt>
<totfact> 0.98833660E+04</totfact>
</mgrwt>
</event>
<event>
 4    3  0.3906307E+000  0.2507264E+03  0.7546771E-02  0.1112847E+00
         21   -1    0    0  501  502  0.00000000000E+00  0.00000000000E+00  0.26571763046E+03  0.26571763046E+03  0.00000000000E+00 0.  1.
         21   -1    0    0  502  503 -0.00000000000E+00 -0.00000000000E+00 -0.30189342235E+03  0.30189342235E+03  0.00000000000E+00 0.  1.
          6    1    1    2  501    0 -0.93005497591E+02  0.15583555391E+03  0.11391757230E+03  0.27539236686E+03  0.17300000000E+03 0.  1.
         -6    1    1    2    0  503  0.93005497591E+02 -0.15583555391E+03 -0.15009336419E+03  0.29221868595E+03  0.17300000000E+03 0.  1.
<mgrwt>
<rscale>  2 0.25072643E+03</rscale>
<asrwt>0</asrwt>
<pdfrwt beam="1">  1       21 0.40879635E-01 0.25072643E+03</pdfrwt>
<pdfrwt beam="2">  1       21 0.46445142E-01 0.25072643E+03</pdfrwt>
<totfact> 0.24832535E+04</totfact>
</mgrwt>
</event>
<event>
 4    3  0.3906307E+000  0.1939088E+03  0.7546771E-02  0.1154982E+00
         21   -1    0    0  503  502  0.00000000000E+00  0.00000000000E+00  0.18520513002E+03  0.18520513002E+03  0.00000000000E+00 0. -1.
         21   -1    0    0  501  503 -0.00000000000E+00 -0.00000000000E+00 -0.36873503041E+03  0.36873503041E+03  0.00000000000E+00 0. -1.
          6    1    1    2  501    0  0.50623965149E+02 -0.71476142847E+02 -0.27744046284E+03  0.33848757032E+03  0.17300000000E+03 0. -1.
         -6    1    1    2    0  502 -0.50623965149E+02  0.71476142847E+02  0.93910562455E+02  0.21545259011E+03  0.17300000000E+03 0. -1.
<mgrwt>
<rscale>  2 0.19390881E+03</rscale>
<asrwt>0</asrwt>
<pdfrwt beam="1">  1       21 0.28493097E-01 0.19390881E+03</pdfrwt>
<pdfrwt beam="2">  1       21 0.56728466E-01 0.19390881E+03</pdfrwt>
<totfact> 0.34385241E+04</totfact>
</mgrwt>
</event>
<event>
 4    3  0.3906307E+000  0.2101965E+03  0.7546771E-02  0.1141410E+00
         21   -1    0    0  501  502  0.00000000000E+00  0.00000000000E+00  0.24078813066E+03  0.24078813066E+03  0.00000000000E+00 0.  1.
         21   -1    0    0  502  503 -0.00000000000E+00 -0.00000000000E+00 -0.31797950536E+03  0.31797950536E+03  0.00000000000E+00 0. -1.
          6    1    1    2  501    0 -0.98959562614E+02 -0.66787562651E+02  0.14309951966E+03  0.25428339719E+03  0.17300000000E+03 0.  1.
         -6    1    1    2    0  503  0.98959562614E+02  0.66787562651E+02 -0.22029089436E+03  0.30448423883E+03  0.17300000000E+03 0. -1.
<mgrwt>
<rscale>  2 0.21019651E+03</rscale>
<asrwt>0</asrwt>
<pdfrwt beam="1">  1       21 0.37044328E-01 0.21019651E+03</pdfrwt>
<pdfrwt beam="2">  1       21 0.48919924E-01 0.21019651E+03</pdfrwt>
<totfact> 0.27754177E+04</totfact>
</mgrwt>
</event>
<event>
 4    3  0.3906307E+000  0.1743178E+03  0.7546771E-02  0.1173418E+00
         21   -1    0    0  503  502  0.00000000000E+00  0.00000000000E+00  0.58319236381E+02  0.58319236381E+02  0.00000000000E+00 0.  1.
         21   -1    0    0  501  503 -0.00000000000E+00 -0.00000000000E+00 -0.11339175819E+04  0.11339175819E+04  0.00000000000E+00 0.  1.
          6    1    1    2  501    0  0.38494632481E+01  0.21044876811E+02 -0.97605565814E+03  0.99149954766E+03  0.17300000000E+03 0.  1.
         -6    1    1    2    0  502 -0.38494632481E+01 -0.21044876811E+02 -0.99542687372E+02  0.20073727062E+03  0.17300000000E+03 0.  1.
<mgrwt>
<rscale>  2 0.17431783E+03</rscale>
<asrwt>0</asrwt>
<pdfrwt beam="1">  1       21 0.89721913E-02 0.17431783E+03</pdfrwt>
<pdfrwt beam="2">  1       21 0.17444884E+00 0.17431783E+03</pdfrwt>
<totfact> 0.19774742E+04</totfact>
</mgrwt>
</event>
<event>
 4    3  0.3906307E+000  0.1973599E+03  0.7546771E-02  0.1151986E+00
         21   -1    0    0  503  502  0.00000000000E+00  0.00000000000E+00  0.24899738158E+03  0.24899738158E+03  0.00000000000E+00 0. -1.
         21   -1    0    0  501  503 -0.00000000000E+00 -0.00000000000E+00 -0.16554691569E+03  0.16554691569E+03  0.00000000000E+00 0. -1.
          6    1    1    2  501    0 -0.47629096413E+02  0.82179003479E+02 -0.69132019911E+01  0.19748091503E+03  0.17300000000E+03 0. -1.
         -6    1    1    2    0  502  0.47629096413E+02 -0.82179003479E+02  0.90363667879E+02  0.21706338224E+03  0.17300000000E+03 0. -1.
<mgrwt>
<rscale>  2 0.19735987E+03</rscale>
<asrwt>0</asrwt>
<pdfrwt beam="1">  1       21 0.38307289E-01 0.19735987E+03</pdfrwt>
<pdfrwt beam="2">  1       21 0.25468756E-01 0.19735987E+03</pdfrwt>
<totfact> 0.95883677E+04</totfact>
</mgrwt>
</event>
<event>
 4    3  0.3906307E+000  0.2105969E+03  0.7546771E-02  0.1141094E+00
         21   -1    0    0  501  502  0.00000000000E+00  0.00000000000E+00  0.79668208982E+02  0.79668208982E+02  0.00000000000E+00 0.  1.
         21   -1    0    0  502  503 -0.00000000000E+00 -0.00000000000E+00 -0.66073216009E+03  0.66073216009E+03  0.00000000000E+00 0. -1.
          6    1    1    2  501    0 -0.11721593525E+03  0.26124485277E+02 -0.14363471983E+03  0.25491566635E+03  0.17300000000E+03 0.  1.
         -6    1    1    2    0  503  0.11721593525E+03 -0.26124485277E+02 -0.43742923128E+03  0.48548470273E+03  0.17300000000E+03 0. -1.
<mgrwt>
<rscale>  2 0.21059692E+03</rscale>
<asrwt>0</asrwt>
<pdfrwt beam="1">  1       21 0.12256647E-01 0.21059692E+03</pdfrwt>
<pdfrwt beam="2">  1       21 0.10165110E+00 0.21059692E+03</pdfrwt>
<totfact> 0.44193505E+04</totfact>
</mgrwt>
</event>
<event>
 4    3  0.3906307E+000  0.1858154E+03  0.7546771E-02  0.1162291E+00
         21   -1    0    0  503  502  0.00000000000E+00  0.00000000000E+00  0.61176703396E+03  0.61176703396E+03  0.00000000000E+00 0.  1.
         21   -1    0    0  501  503 -0.00000000000E+00 -0.00000000000E+00 -0.18140327239E+03  0.18140327239E+03  0.00000000000E+00 0.  1.
          6    1    1    2  501    0  0.29536295773E+02  0.61040673187E+02  0.54434205892E+03  0.57518313054E+03  0.17300000000E+03 0.  1.
         -6    1    1    2    0  502 -0.29536295773E+02 -0.61040673187E+02 -0.11397829734E+03  0.21798717581E+03  0.17300000000E+03 0.  1.
<mgrwt>
<rscale>  2 0.18581538E+03</rscale>
<asrwt>0</asrwt>
<pdfrwt beam="1">  1       21 0.94118004E-01 0.18581538E+03</pdfrwt>
<pdfrwt beam="2">  1       21 0.27908196E-01 0.18581538E+03</pdfrwt>
<totfact> 0.11662714E+04</totfact>
</mgrwt>
</event>
<event>
 4    3  0.3906307E+000  0.2162817E+03  0.7546771E-02  0.1136686E+00
         21   -1    0    0  503  502  0.00000000000E+00  0.00000000000E+00  0.12552076562E+03  0.12552076562E+03  0.00000000000E+00 0.  1.
         21   -1    0    0  501  503 -0.00000000000E+00 -0.00000000000E+00 -0.49587783824E+03  0.49587783824E+03  0.00000000000E+00 0.  1.
          6    1    1    2  501    0  0.64897102202E+02  0.11241506121E+03 -0.34005046705E+03  0.40300384614E+03  0.17300000000E+03 0.  1.
         -6    1    1    2    0  502 -0.64897102202E+02 -0.11241506121E+03 -0.30306605570E+02  0.21839475773E+03  0.17300000000E+03 0.  1.
<mgrwt>
<rscale>  2 0.21628171E+03</rscale>
<asrwt>0</asrwt>
<pdfrwt beam="1">  1       21 0.19310887E-01 0.21628171E+03</pdfrwt>
<pdfrwt beam="2">  1       21 0.76288898E-01 0.21628171E+03</pdfrwt>
<totfact> 0.37254022E+04</totfact>
</mgrwt>
</event>
<event>
 4    3  0.3906307E+000  0.2618387E+03  0.7546771E-02  0.1106044E+00
         21   -1    0    0  503  502  0.00000000000E+00  0.00000000000E+00  0.70946281903E+02  0.70946281903E+02  0.00000000000E+00 0. -1.
         21   -1    0    0  501  503 -0.00000000000E+00 -0.00000000000E+00 -0.97409426883E+03  0.97409426883E+03  0.00000000000E+00 0.  1.
          6    1    1    2  501    0 -0.15555428971E+03  0.12013888864E+03 -0.40500730615E+03  0.48227627729E+03  0.17300000000E+03 0. -1.
         -6    1    1    2    0  502  0.15555428971E+03 -0.12013888864E+03 -0.49814068078E+03  0.56276427344E+03  0.17300000000E+03 0.  1.
<mgrwt>
<rscale>  2 0.26183867E+03</rscale>
<asrwt>0</asrwt>
<pdfrwt beam="1">  1       21 0.10914813E-01 0.26183867E+03</pdfrwt>
<pdfrwt beam="2">  1       21 0.14986065E+00 0.26183867E+03</pdfrwt>
<totfact> 0.19979461E+04</totfact>
</mgrwt>
</event>
<event>
 4    3  0.3906307E+000  0.2019370E+03  0.7546771E-02  0.1148115E+00
         21   -1    0    0  503  502  0.00000000000E+00  0.00000000000E+00  0.50591197075E+02  0.50591197075E+02  0.00000000000E+00 0. -1.
         21   -1    0    0  501  503 -0.00000000000E+00 -0.00000000000E+00 -0.97563291676E+03  0.97563291676E+03  0.00000000000E+00 0.  1.
          6    1    1    2  501    0 -0.32394585207E+02 -0.98995760489E+02 -0.67645091742E+03  0.70594929947E+03  0.17300000000E+03 0.  1.
         -6    1    1    2    0  502  0.32394585207E+02  0.98995760489E+02 -0.24859080227E+03  0.32027481437E+03  0.17300000000E+03 0. -1.
<mgrwt>
<rscale>  2 0.20193704E+03</rscale>
<asrwt>0</asrwt>
<pdfrwt beam="1">  1       21 0.77832615E-02 0.20193704E+03</pdfrwt>
<pdfrwt beam="2">  1       21 0.15009736E+00 0.20193704E+03</pdfrwt>
<totfact> 0.37350220E+04</totfact>
</mgrwt>
</event>
<event>
 4    3  0.3906307E+000  0.2303216E+03  0.7546771E-02  0.1126414E+00
         21   -1    0    0  501  502  0.00000000000E+00  0.00000000000E+00  0.78606814475E+02  0.78606814475E+02  0.00000000000E+00 0.  1.
         21   -1    0    0  502  503 -0.00000000000E+00 -0.00000000000E+00 -0.93978836153E+03  0.93978836153E+03  0.00000000000E+00 0.  1.
          6    1    1    2  501    0 -0.52413257540E+02  0.14273017144E+03 -0.16023154435E+03  0.28057476582E+03  0.17300000000E+03 0.  1.
         -6    1    1    2    0  503  0.52413257540E+02 -0.14273017144E+03 -0.70095000270E+03  0.73782041019E+03  0.17300000000E+03 0.  1.
<mgrwt>
<rscale>  2 0.23032163E+03</rscale>
<asrwt>0</asrwt>
<pdfrwt beam="1">  1       21 0.12093356E-01 0.23032163E+03</pdfrwt>
<pdfrwt beam="2">  1       21 0.14458283E+00 0.23032163E+03</pdfrwt>
<totfact> 0.18593748E+04</totfact>
</mgrwt>
</event>
<event>
 4    3  0.3906307E+000  0.2632634E+03  0.7546771E-02  0.1105198E+00
         21   -1    0    0  503  502  0.00000000000E+00  0.00000000000E+00  0.41701722339E+03  0.41701722339E+03  0.00000000000E+00 0.  1.
         21   -1    0    0  501  503 -0.00000000000E+00 -0.00000000000E+00 -0.21491291838E+03  0.21491291838E+03  0.00000000000E+00 0. -1.
          6    1    1    2  501    0  0.19596761168E+03  0.31229883907E+02 -0.49378679905E+02  0.26785418516E+03  0.17300000000E+03 0. -1.
         -6    1    1    2    0  502 -0.19596761168E+03 -0.31229883907E+02  0.25148298492E+03  0.36407595661E+03  0.17300000000E+03 0.  1.
<mgrwt>
<rscale>  2 0.26326339E+03</rscale>
<asrwt>0</asrwt>
<pdfrwt beam="1">  1       21 0.64156496E-01 0.26326339E+03</pdfrwt>
<pdfrwt beam="2">  1       21 0.33063526E-01 0.26326339E+03</pdfrwt>
<totfact> 0.19012642E+04</totfact>
</mgrwt>
</event>
<event>
 4    3  0.3906307E+000  0.1811861E+03  0.7546771E-02  0.1166660E+00
         21   -1    0    0  503  502  0.00000000000E+00  0.00000000000E+00  0.25608200532E+03  0.25608200532E+03  0.00000000000E+00 0. -1.
         21   -1    0    0  501  503 -0.00000000000E+00 -0.00000000000E+00 -0.12871132860E+03  0.12871132860E+03  0.00000000000E+00 0. -1.
          6    1    1    2  501    0 -0.53608011016E+02  0.50577703682E+01  0.75872598634E+02  0.19643077944E+03  0.17300000000E+03 0. -1.
         -6    1    1    2    0  502  0.53608011016E+02 -0.50577703682E+01  0.51498078078E+02  0.18836255448E+03  0.17300000000E+03 0. -1.
<mgrwt>
<rscale>  2 0.18118609E+03</rscale>
<asrwt>0</asrwt>
<pdfrwt beam="1">  1       21 0.39397232E-01 0.18118609E+03</pdfrwt>
<pdfrwt beam="2">  1       21 0.19801743E-01 0.18118609E+03</pdfrwt>
<totfact> 0.14660494E+05</totfact>
</mgrwt>
</event>
<event>
 4    3  0.3906307E+000  0.1882261E+03  0.7546771E-02  0.1160071E+00
         21   -1    0    0  503  502  0.00000000000E+00  0.00000000000E+00  0.33553309733E+03  0.33553309733E+03  0.00000000000E+00 0. -1.
         21   -1    0    0  501  503 -0.00000000000E+00 -0.00000000000E+00 -0.10577638942E+03  0.10577638942E+03  0.00000000000E+00 0. -1.
          6    1    1    2  501    0 -0.64200413403E+02  0.37126598564E+02  0.12413068250E+03  0.22547173601E+03  0.17300000000E+03 0. -1.
         -6    1    1    2    0  502  0.64200413403E+02 -0.37126598564E+02  0.10562602541E+03  0.21583775074E+03  0.17300000000E+03 0. -1.
<mgrwt>
<rscale>  2 0.18822613E+03</rscale>
<asrwt>0</asrwt>
<pdfrwt beam="1">  1       21 0.51620476E-01 0.18822613E+03</pdfrwt>
<pdfrwt beam="2">  1       21 0.16273291E-01 0.18822613E+03</pdfrwt>
<totfact> 0.12068739E+05</totfact>
</mgrwt>
</event>
<event>
 4    3  0.3906307E+000  0.2570856E+03  0.7546771E-02  0.1108907E+00
         21   -1    0    0  501  502  0.00000000000E+00  0.00000000000E+00  0.50868693998E+03  0.50868693998E+03  0.00000000000E+00 0. -1.
         21   -1    0    0  502  503 -0.00000000000E+00 -0.00000000000E+00 -0.14885525855E+03  0.14885525855E+03  0.00000000000E+00 0.  1.
          6    1    1    2  501    0 -0.17158045531E+03  0.82001057955E+02  0.29714820392E+03  0.39292503260E+03  0.17300000000E+03 0. -1.
         -6    1    1    2    0  503  0.17158045531E+03 -0.82001057955E+02  0.62683477519E+02  0.26461716593E+03  0.17300000000E+03 0.  1.
<mgrwt>
<rscale>  2 0.25708564E+03</rscale>
<asrwt>0</asrwt>
<pdfrwt beam="1">  1       21 0.78259528E-01 0.25708564E+03</pdfrwt>
<pdfrwt beam="2">  1       21 0.22900809E-01 0.25708564E+03</pdfrwt>
<totfact> 0.25010479E+04</totfact>
</mgrwt>
</event>
<event>
 4    3  0.3906307E+000  0.2018278E+03  0.7546771E-02  0.1148206E+00
         21   -1    0    0  503  502  0.00000000000E+00  0.00000000000E+00  0.29434749348E+03  0.29434749348E+03  0.00000000000E+00 0. -1.
         21   -1    0    0  501  503 -0.00000000000E+00 -0.00000000000E+00 -0.17774924908E+03  0.17774924908E+03  0.00000000000E+00 0. -1.
          6    1    1    2  501    0 -0.10195316434E+03  0.20273792878E+02 -0.52778271625E+02  0.20861452575E+03  0.17300000000E+03 0. -1.
         -6    1    1    2    0  502  0.10195316434E+03 -0.20273792878E+02  0.16937651603E+03  0.26348221682E+03  0.17300000000E+03 0. -1.
<mgrwt>
<rscale>  2 0.20182783E+03</rscale>
<asrwt>0</asrwt>
<pdfrwt beam="1">  1       21 0.45284230E-01 0.20182783E+03</pdfrwt>
<pdfrwt beam="2">  1       21 0.27346038E-01 0.20182783E+03</pdfrwt>
<totfact> 0.59397740E+04</totfact>
</mgrwt>
</event>
<event>
 4    3  0.3906307E+000  0.1778214E+03  0.7546771E-02  0.1169928E+00
         21   -1    0    0  501  502  0.00000000000E+00  0.00000000000E+00  0.13841602056E+03  0.13841602056E+03  0.00000000000E+00 0.  1.
         21   -1    0    0  502  503 -0.00000000000E+00 -0.00000000000E+00 -0.40646251806E+03  0.40646251806E+03  0.00000000000E+00 0.  1.
          6    1    1    2  501    0 -0.83186752464E+01  0.40277129873E+02  0.46274717696E+02  0.18374383540E+03  0.17300000000E+03 0.  1.
         -6    1    1    2    0  503  0.83186752464E+01 -0.40277129873E+02 -0.31432121520E+03  0.36113470322E+03  0.17300000000E+03 0.  1.
<mgrwt>
<rscale>  2 0.17782139E+03</rscale>
<asrwt>0</asrwt>
<pdfrwt beam="1">  1       21 0.21294773E-01 0.17782139E+03</pdfrwt>
<pdfrwt beam="2">  1       21 0.62532694E-01 0.17782139E+03</pdfrwt>
<totfact> 0.48996015E+04</totfact>
</mgrwt>
</event>
<event>
 4    3  0.3906307E+000  0.1944801E+03  0.7546771E-02  0.1154482E+00
         21   -1    0    0  501  502  0.00000000000E+00  0.00000000000E+00  0.16761147546E+03  0.16761147546E+03  0.00000000000E+00 0. -1.
         21   -1    0    0  502  503 -0.00000000000E+00 -0.00000000000E+00 -0.30459526141E+03  0.30459526141E+03  0.00000000000E+00 0. -1.
          6    1    1    2  501    0 -0.82543588977E+02  0.32864061160E+02 -0.18868729973E+03  0.27097119345E+03  0.17300000000E+03 0. -1.
         -6    1    1    2    0  503  0.82543588977E+02 -0.32864061160E+02  0.51703513791E+02  0.20123554342E+03  0.17300000000E+03 0. -1.
<mgrwt>
<rscale>  2 0.19448005E+03</rscale>
<asrwt>0</asrwt>
<pdfrwt beam="1">  1       21 0.25786381E-01 0.19448005E+03</pdfrwt>
<pdfrwt beam="2">  1       21 0.46860809E-01 0.19448005E+03</pdfrwt>
<totfact> 0.62182773E+04</totfact>
</mgrwt>
</event>
<event>
 4    3  0.3906307E+000  0.1745559E+03  0.7546771E-02  0.1173178E+00
         21   -1    0    0  501  502  0.00000000000E+00  0.00000000000E+00  0.21488187484E+02  0.21488187484E+02  0.00000000000E+00 0.  1.
         21   -1    0    0  502  503 -0.00000000000E+00 -0.00000000000E+00 -0.16361142853E+04  0.16361142853E+04  0.00000000000E+00 0.  1.
          6    1    1    2  501    0 -0.22156724859E+02  0.70596420454E+01 -0.50468556467E+03  0.53401992303E+03  0.17300000000E+03 0.  1.
         -6    1    1    2    0  503  0.22156724859E+02 -0.70596420454E+01 -0.11099405332E+04  0.11235825498E+04  0.17300000000E+03 0.  1.
<mgrwt>
<rscale>  2 0.17455589E+03</rscale>
<asrwt>0</asrwt>
<pdfrwt beam="1">  1       21 0.33058744E-02 0.17455589E+03</pdfrwt>
<pdfrwt beam="2">  1       21 0.25170993E+00 0.17455589E+03</pdfrwt>
<totfact> 0.35531886E+04</totfact>
</mgrwt>
</event>
<event>
 4    3  0.3906307E+000  0.1998496E+03  0.7546771E-02  0.1149866E+00
         21   -1    0    0  503  502  0.00000000000E+00  0.00000000000E+00  0.29252784147E+03  0.29252784147E+03  0.00000000000E+00 0. -1.
         21   -1    0    0  501  503 -0.00000000000E+00 -0.00000000000E+00 -0.14222120635E+03  0.14222120635E+03  0.00000000000E+00 0.  1.
          6    1    1    2  501    0 -0.44895205554E+02  0.89416366200E+02  0.31682985083E+02  0.20234544119E+03  0.17300000000E+03 0.  1.
         -6    1    1    2    0  502  0.44895205554E+02 -0.89416366200E+02  0.11862365004E+03  0.23240360663E+03  0.17300000000E+03 0. -1.
<mgrwt>
<rscale>  2 0.19984961E+03</rscale>
<asrwt>0</asrwt>
<pdfrwt beam="1">  1       21 0.45004283E-01 0.19984961E+03</pdfrwt>
<pdfrwt beam="2">  1       21 0.21880186E-01 0.19984961E+03</pdfrwt>
<totfact> 0.92124218E+04</totfact>
</mgrwt>
</event>
<event>
 4    3  0.3906307E+000  0.1949777E+03  0.7546771E-02  0.1154047E+00
         21   -1    0    0  501  502  0.00000000000E+00  0.00000000000E+00  0.14334477567E+04  0.14334477567E+04  0.00000000000E+00 0.  1.
         21   -1    0    0  502  503 -0.00000000000E+00 -0.00000000000E+00 -0.41204069802E+02  0.41204069802E+02  0.00000000000E+00 0. -1.
          6    1    1    2  501    0  0.84102569550E+01  0.89535309035E+02  0.25597300137E+03  0.32177396013E+03  0.17300000000E+03 0. -1.
         -6    1    1    2    0  503 -0.84102569550E+01 -0.89535309035E+02  0.11362706855E+04  0.11528778663E+04  0.17300000000E+03 0.  1.
<mgrwt>
<rscale>  2 0.19497770E+03</rscale>
<asrwt>0</asrwt>
<pdfrwt beam="1">  1       21 0.22053039E+00 0.19497770E+03</pdfrwt>
<pdfrwt beam="2">  1       21 0.63390888E-02 0.19497770E+03</pdfrwt>
<totfact> 0.17882724E+04</totfact>
</mgrwt>
</event>
<event>
 4    3  0.3906307E+000  0.2787008E+03  0.7546771E-02  0.1096401E+00
         21   -1    0    0  501  502  0.00000000000E+00  0.00000000000E+00  0.26875661286E+03  0.26875661286E+03  0.00000000000E+00 0.  1.
         21   -1    0    0  502  503 -0.00000000000E+00 -0.00000000000E+00 -0.32756588221E+03  0.32756588221E+03  0.00000000000E+00 0. -1.
          6    1    1    2  501    0  0.21816950549E+03 -0.12133790653E+02  0.72884650628E+02  0.28807348767E+03  0.17300000000E+03 0. -1.
         -6    1    1    2    0  503 -0.21816950549E+03  0.12133790653E+02 -0.13169391998E+03  0.30824900739E+03  0.17300000000E+03 0.  1.
<mgrwt>
<rscale>  2 0.27870085E+03</rscale>
<asrwt>0</asrwt>
<pdfrwt beam="1">  1       21 0.41347171E-01 0.27870085E+03</pdfrwt>
<pdfrwt beam="2">  1       21 0.50394751E-01 0.27870085E+03</pdfrwt>
<totfact> 0.20202511E+04</totfact>
</mgrwt>
</event>
<event>
 4    3  0.3906307E+000  0.2016191E+03  0.7546771E-02  0.1148380E+00
         21   -1    0    0  503  502  0.00000000000E+00  0.00000000000E+00  0.60592748549E+03  0.60592748549E+03  0.00000000000E+00 0. -1.
         21   -1    0    0  501  503 -0.00000000000E+00 -0.00000000000E+00 -0.87751671167E+02  0.87751671167E+02  0.00000000000E+00 0. -1.
          6    1    1    2  501    0 -0.96656223097E+02  0.37132608297E+02  0.90778541184E+02  0.22111309233E+03  0.17300000000E+03 0. -1.
         -6    1    1    2    0  502  0.96656223097E+02 -0.37132608297E+02  0.42739727314E+03  0.47256606432E+03  0.17300000000E+03 0. -1.
<mgrwt>
<rscale>  2 0.20161909E+03</rscale>
<asrwt>0</asrwt>
<pdfrwt beam="1">  1       21 0.93219611E-01 0.20161909E+03</pdfrwt>
<pdfrwt beam="2">  1       21 0.13500257E-01 0.20161909E+03</pdfrwt>
<totfact> 0.45762103E+04</totfact>
</mgrwt>
</event>
<event>
 4    3  0.3906307E+000  0.2175254E+03  0.7546771E-02  0.1135742E+00
         21   -1    0    0  501  502  0.00000000000E+00  0.00000000000E+00  0.21927120538E+03  0.21927120538E+03  0.00000000000E+00 0. -1.
         21   -1    0    0  502  503 -0.00000000000E+00 -0.00000000000E+00 -0.31281873216E+03  0.31281873216E+03  0.00000000000E+00 0. -1.
          6    1    1    2  501    0  0.11586921593E+03 -0.62949272945E+02  0.10139312818E+03  0.23999552622E+03  0.17300000000E+03 0. -1.
         -6    1    1    2    0  503 -0.11586921593E+03  0.62949272945E+02 -0.19494065497E+03  0.29209441132E+03  0.17300000000E+03 0. -1.
<mgrwt>
<rscale>  2 0.21752537E+03</rscale>
<asrwt>0</asrwt>
<pdfrwt beam="1">  1       21 0.33734032E-01 0.21752537E+03</pdfrwt>
<pdfrwt beam="2">  1       21 0.48125959E-01 0.21752537E+03</pdfrwt>
<totfact> 0.34472747E+04</totfact>
</mgrwt>
</event>
<event>
 4    3  0.3906307E+000  0.2137764E+03  0.7546771E-02  0.1138610E+00
         21   -1    0    0  501  502  0.00000000000E+00  0.00000000000E+00  0.88126965819E+03  0.88126965819E+03  0.00000000000E+00 0.  1.
         21   -1    0    0  502  503 -0.00000000000E+00 -0.00000000000E+00 -0.62553424631E+02  0.62553424631E+02  0.00000000000E+00 0. -1.
          6    1    1    2  501    0  0.11396894186E+03  0.52748913878E+02  0.60449794466E+03  0.64118494424E+03  0.17300000000E+03 0.  1.
         -6    1    1    2    0  503 -0.11396894186E+03 -0.52748913878E+02  0.21421828890E+03  0.30263813858E+03  0.17300000000E+03 0. -1.
<mgrwt>
<rscale>  2 0.21377644E+03</rscale>
<asrwt>0</asrwt>
<pdfrwt beam="1">  1       21 0.13557994E+00 0.21377644E+03</pdfrwt>
<pdfrwt beam="2">  1       21 0.96236045E-02 0.21377644E+03</pdfrwt>
<totfact> 0.33324716E+04</totfact>
</mgrwt>
</event>
<event>
 4    3  0.3906307E+000  0.2147466E+03  0.7546771E-02  0.1137861E+00
         21   -1    0    0  503  502  0.00000000000E+00  0.00000000000E+00  0.41582614823E+02  0.41582614823E+02  0.00000000000E+00 0.  1.
         21   -1    0    0  501  503 -0.00000000000E+00 -0.00000000000E+00 -0.11741963414E+04  0.11741963414E+04  0.00000000000E+00 0.  1.
          6    1    1    2  501    0  0.66733742870E+02 -0.10832216314E+03 -0.70952192013E+03  0.74130792429E+03  0.17300000000E+03 0.  1.
         -6    1    1    2    0  502 -0.66733742870E+02  0.10832216314E+03 -0.42309180645E+03  0.47447103194E+03  0.17300000000E+03 0.  1.
<mgrwt>
<rscale>  2 0.21474656E+03</rscale>
<asrwt>0</asrwt>
<pdfrwt beam="1">  1       21 0.63973262E-02 0.21474656E+03</pdfrwt>
<pdfrwt beam="2">  1       21 0.18064557E+00 0.21474656E+03</pdfrwt>
<totfact> 0.31360924E+04</totfact>
</mgrwt>
</event>
<event>
 4    3  0.3906307E+000  0.2064962E+03  0.7546771E-02  0.1144371E+00
         21   -1    0    0  503  502  0.00000000000E+00  0.00000000000E+00  0.74897293995E+03  0.74897293995E+03  0.00000000000E+00 0.  1.
         21   -1    0    0  501  503 -0.00000000000E+00 -0.00000000000E+00 -0.65539005732E+02  0.65539005732E+02  0.00000000000E+00 0. -1.
          6    1    1    2  501    0 -0.11090429341E+03  0.20295594957E+02  0.48930075893E+03  0.53108935798E+03  0.17300000000E+03 0.  1.
         -6    1    1    2    0  502  0.11090429341E+03 -0.20295594957E+02  0.19413317528E+03  0.28342258769E+03  0.17300000000E+03 0. -1.
<mgrwt>
<rscale>  2 0.20649618E+03</rscale>
<asrwt>0</asrwt>
<pdfrwt beam="1">  1       21 0.11522660E+00 0.20649618E+03</pdfrwt>
<pdfrwt beam="2">  1       21 0.10082924E-01 0.20649618E+03</pdfrwt>
<totfact> 0.46315283E+04</totfact>
</mgrwt>
</event>
<event>
 4    3  0.3906307E+000  0.1854624E+03  0.7546771E-02  0.1162619E+00
         21   -1    0    0  503  502  0.00000000000E+00  0.00000000000E+00  0.97683535289E+02  0.97683535289E+02  0.00000000000E+00 0.  1.
         21   -1    0    0  501  503 -0.00000000000E+00 -0.00000000000E+00 -0.46121184683E+03  0.46121184683E+03  0.00000000000E+00 0.  1.
          6    1    1    2  501    0 -0.55782703138E+02 -0.36818159106E+02 -0.31767285416E+03  0.36784824192E+03  0.17300000000E+03 0. -1.
         -6    1    1    2    0  502  0.55782703138E+02  0.36818159106E+02 -0.45855457383E+02  0.19104714021E+03  0.17300000000E+03 0. -1.
<mgrwt>
<rscale>  2 0.18546236E+03</rscale>
<asrwt>0</asrwt>
<pdfrwt beam="1">  1       21 0.15028236E-01 0.18546236E+03</pdfrwt>
<pdfrwt beam="2">  1       21 0.70955669E-01 0.18546236E+03</pdfrwt>
<totfact> 0.70520220E+04</totfact>
</mgrwt>
</event>
<event>
 4    3  0.3906307E+000  0.1808382E+03  0.7546771E-02  0.1166994E+00
         21   -1    0    0  503  502  0.00000000000E+00  0.00000000000E+00  0.31810903966E+03  0.31810903966E+03  0.00000000000E+00 0.  1.
         21   -1    0    0  501  503 -0.00000000000E+00 -0.00000000000E+00 -0.11105719003E+03  0.11105719003E+03  0.00000000000E+00 0.  1.
          6    1    1    2  501    0  0.11503227096E+02  0.51391829369E+02  0.45024115549E+02  0.18635883489E+03  0.17300000000E+03 0.  1.
         -6    1    1    2    0  502 -0.11503227096E+02 -0.51391829369E+02  0.16202773408E+03  0.24280739480E+03  0.17300000000E+03 0.  1.
<mgrwt>
<rscale>  2 0.18083817E+03</rscale>
<asrwt>0</asrwt>
<pdfrwt beam="1">  1       21 0.48939852E-01 0.18083817E+03</pdfrwt>
<pdfrwt beam="2">  1       21 0.17085722E-01 0.18083817E+03</pdfrwt>
<totfact> 0.12366282E+05</totfact>
</mgrwt>
</event>
<event>
 4    3  0.3906307E+000  0.1907414E+03  0.7546771E-02  0.1157794E+00
         21   -1    0    0  501  502  0.00000000000E+00  0.00000000000E+00  0.77789400232E+03  0.77789400232E+03  0.00000000000E+00 0. -1.
         21   -1    0    0  502  503 -0.00000000000E+00 -0.00000000000E+00 -0.56993913979E+02  0.56993913979E+02  0.00000000000E+00 0.  1.
          6    1    1    2  501    0 -0.27656174726E+02 -0.75421569754E+02  0.53725228375E+03  0.57010726498E+03  0.17300000000E+03 0. -1.
         -6    1    1    2    0  503  0.27656174726E+02  0.75421569754E+02  0.18364780460E+03  0.26478065133E+03  0.17300000000E+03 0.  1.
<mgrwt>
<rscale>  2 0.19074139E+03</rscale>
<asrwt>0</asrwt>
<pdfrwt beam="1">  1       21 0.11967599E+00 0.19074139E+03</pdfrwt>
<pdfrwt beam="2">  1       21 0.87682950E-02 0.19074139E+03</pdfrwt>
<totfact> 0.54415896E+04</totfact>
</mgrwt>
</event>
<event>
 4    3  0.3906307E+000  0.2027736E+03  0.7546771E-02  0.1147420E+00
         21   -1    0    0  501  502  0.00000000000E+00  0.00000000000E+00  0.34552329894E+03  0.34552329894E+03  0.00000000000E+00 0.  1.
         21   -1    0    0  502  503 -0.00000000000E+00 -0.00000000000E+00 -0.11926251003E+03  0.11926251003E+03  0.00000000000E+00 0. -1.
          6    1    1    2  501    0  0.10576963436E+03 -0.96749634030E+00  0.10222018076E+03  0.22708174069E+03  0.17300000000E+03 0.  1.
         -6    1    1    2    0  503 -0.10576963436E+03  0.96749634030E+00  0.12404060815E+03  0.23770406827E+03  0.17300000000E+03 0. -1.
<mgrwt>
<rscale>  2 0.20277365E+03</rscale>
<asrwt>0</asrwt>
<pdfrwt beam="1">  1       21 0.53157430E-01 0.20277365E+03</pdfrwt>
<pdfrwt beam="2">  1       21 0.18348079E-01 0.20277365E+03</pdfrwt>
<totfact> 0.90440948E+04</totfact>
</mgrwt>
</event>
<event>
 4    3  0.3906307E+000  0.2047266E+03  0.7546771E-02  0.1145811E+00
         21   -1    0    0  503  502  0.00000000000E+00  0.00000000000E+00  0.56239326056E+02  0.56239326056E+02  0.00000000000E+00 0. -1.
         21   -1    0    0  501  503 -0.00000000000E+00 -0.00000000000E+00 -0.79430315525E+03  0.79430315525E+03  0.00000000000E+00 0.  1.
          6    1    1    2  501    0 -0.81232525698E+02  0.73384389852E+02 -0.47470306162E+03  0.51696807311E+03  0.17300000000E+03 0. -1.
         -6    1    1    2    0  502  0.81232525698E+02 -0.73384389852E+02 -0.26336076757E+03  0.33357440819E+03  0.17300000000E+03 0. -1.
<mgrwt>
<rscale>  2 0.20472663E+03</rscale>
<asrwt>0</asrwt>
<pdfrwt beam="1">  1       21 0.86522045E-02 0.20472663E+03</pdfrwt>
<pdfrwt beam="2">  1       21 0.12220048E+00 0.20472663E+03</pdfrwt>
<totfact> 0.52496909E+04</totfact>
</mgrwt>
</event>
<event>
 4    3  0.3906307E+000  0.5234291E+03  0.7546771E-02  0.1007838E+00
         21   -1    0    0  503  502  0.00000000000E+00  0.00000000000E+00  0.10662656081E+04  0.10662656081E+04  0.00000000000E+00 0. -1.
         21   -1    0    0  501  503 -0.00000000000E+00 -0.00000000000E+00 -0.36960925642E+03  0.36960925642E+03  0.00000000000E+00 0.  1.
          6    1    1    2  501    0  0.34892233946E+03 -0.34971732825E+03 -0.48038104225E+02  0.52562883112E+03  0.17300000000E+03 0.  1.
         -6    1    1    2    0  502 -0.34892233946E+03  0.34971732825E+03  0.74469445586E+03  0.91024603335E+03  0.17300000000E+03 0. -1.
<mgrwt>
<rscale>  2 0.52342909E+03</rscale>
<asrwt>0</asrwt>
<pdfrwt beam="1">  1       21 0.16404086E+00 0.52342909E+03</pdfrwt>
<pdfrwt beam="2">  1       21 0.56862963E-01 0.52342909E+03</pdfrwt>
<totfact> 0.55182507E+02</totfact>
</mgrwt>
</event>
<event>
 4    3  0.3906307E+000  0.2730887E+03  0.7546771E-02  0.1099525E+00
         21   -1    0    0  501  502  0.00000000000E+00  0.00000000000E+00  0.22245047114E+03  0.22245047114E+03  0.00000000000E+00 0. -1.
         21   -1    0    0  502  503 -0.00000000000E+00 -0.00000000000E+00 -0.36216088338E+03  0.36216088338E+03  0.00000000000E+00 0. -1.
          6    1    1    2  501    0 -0.19873147163E+03 -0.71792861424E+02  0.98190627734E+01  0.27326512174E+03  0.17300000000E+03 0. -1.
         -6    1    1    2    0  503  0.19873147163E+03  0.71792861424E+02 -0.14952947501E+03  0.31134623278E+03  0.17300000000E+03 0. -1.
<mgrwt>
<rscale>  2 0.27308865E+03</rscale>
<asrwt>0</asrwt>
<pdfrwt beam="1">  1       21 0.34223150E-01 0.27308865E+03</pdfrwt>
<pdfrwt beam="2">  1       21 0.55717058E-01 0.27308865E+03</pdfrwt>
<totfact> 0.23981859E+04</totfact>
</mgrwt>
</event>
<event>
 4    3  0.3906307E+000  0.2112214E+03  0.7546771E-02  0.1140602E+00
         21   -1    0    0  503  502  0.00000000000E+00  0.00000000000E+00  0.35111132950E+03  0.35111132950E+03  0.00000000000E+00 0.  1.
         21   -1    0    0  501  503 -0.00000000000E+00 -0.00000000000E+00 -0.26755652232E+03  0.26755652232E+03  0.00000000000E+00 0. -1.
          6    1    1    2  501    0 -0.59758507801E+02 -0.10542485427E+03 -0.18237456681E+03  0.27906085675E+03  0.17300000000E+03 0. -1.
         -6    1    1    2    0  502  0.59758507801E+02  0.10542485427E+03  0.26592937399E+03  0.33960699507E+03  0.17300000000E+03 0.  1.
<mgrwt>
<rscale>  2 0.21122140E+03</rscale>
<asrwt>0</asrwt>
<pdfrwt beam="1">  1       21 0.54017128E-01 0.21122140E+03</pdfrwt>
<pdfrwt beam="2">  1       21 0.41162542E-01 0.21122140E+03</pdfrwt>
<totfact> 0.18212498E+04</totfact>
</mgrwt>
</event>
<event>
 4    3  0.3906307E+000  0.1773997E+03  0.7546771E-02  0.1170344E+00
         21   -1    0    0  503  502  0.00000000000E+00  0.00000000000E+00  0.86161998997E+02  0.86161998997E+02  0.00000000000E+00 0. -1.
         21   -1    0    0  501  503 -0.00000000000E+00 -0.00000000000E+00 -0.38910227326E+03  0.38910227326E+03  0.00000000000E+00 0. -1.
          6    1    1    2  501    0  0.84365263151E+01 -0.38346696066E+02 -0.21030583773E+03  0.27513485686E+03  0.17300000000E+03 0. -1.
         -6    1    1    2    0  502 -0.84365263151E+01  0.38346696066E+02 -0.92634436530E+02  0.20012941540E+03  0.17300000000E+03 0. -1.
<mgrwt>
<rscale>  2 0.17739967E+03</rscale>
<asrwt>0</asrwt>
<pdfrwt beam="1">  1       21 0.13255692E-01 0.17739967E+03</pdfrwt>
<pdfrwt beam="2">  1       21 0.59861889E-01 0.17739967E+03</pdfrwt>
<totfact> 0.12848852E+05</totfact>
</mgrwt>
</event>
<event>
 4    3  0.3906307E+000  0.2512764E+03  0.7546771E-02  0.1112501E+00
         21   -1    0    0  503  502  0.00000000000E+00  0.00000000000E+00  0.74773347486E+02  0.74773347486E+02  0.00000000000E+00 0. -1.
         21   -1    0    0  501  503 -0.00000000000E+00 -0.00000000000E+00 -0.12889002741E+04  0.12889002741E+04  0.00000000000E+00 0. -1.
          6    1    1    2  501    0 -0.15980792596E+03 -0.87591503627E+02 -0.20665913281E+03  0.32534265303E+03  0.17300000000E+03 0. -1.
         -6    1    1    2    0  502  0.15980792596E+03  0.87591503627E+02 -0.10074677938E+04  0.10383309685E+04  0.17300000000E+03 0. -1.
<mgrwt>
<rscale>  2 0.25127643E+03</rscale>
<asrwt>0</asrwt>
<pdfrwt beam="1">  1       21 0.11503592E-01 0.25127643E+03</pdfrwt>
<pdfrwt beam="2">  1       21 0.19829235E+00 0.25127643E+03</pdfrwt>
<totfact> 0.83297440E+03</totfact>
</mgrwt>
</event>
<event>
 4    3  0.3906307E+000  0.2301927E+03  0.7546771E-02  0.1126504E+00
         21   -1    0    0  501  502  0.00000000000E+00  0.00000000000E+00  0.58392620013E+03  0.58392620013E+03  0.00000000000E+00 0. -1.
         21   -1    0    0  502  503 -0.00000000000E+00 -0.00000000000E+00 -0.91243358729E+02  0.91243358729E+02  0.00000000000E+00 0.  1.
          6    1    1    2  501    0  0.10489386848E+03  0.10980415462E+03  0.22140497655E+03  0.31938822718E+03  0.17300000000E+03 0. -1.
         -6    1    1    2    0  503 -0.10489386848E+03 -0.10980415462E+03  0.27127786485E+03  0.35578133168E+03  0.17300000000E+03 0.  1.
<mgrwt>
<rscale>  2 0.23019269E+03</rscale>
<asrwt>0</asrwt>
<pdfrwt beam="1">  1       21 0.89834798E-01 0.23019269E+03</pdfrwt>
<pdfrwt beam="2">  1       21 0.14037440E-01 0.23019269E+03</pdfrwt>
<totfact> 0.45833639E+04</totfact>
</mgrwt>
</event>
<event>
 4    3  0.3906307E+000  0.1972333E+03  0.7546771E-02  0.1152095E+00
         21   -1    0    0  501  502  0.00000000000E+00  0.00000000000E+00  0.13741302807E+03  0.13741302807E+03  0.00000000000E+00 0.  1.
         21   -1    0    0  502  503 -0.00000000000E+00 -0.00000000000E+00 -0.74794808053E+03  0.74794808053E+03  0.00000000000E+00 0. -1.
          6    1    1    2  501    0  0.23736646713E+02  0.91698020506E+02  0.43722107926E+02  0.20202123176E+03  0.17300000000E+03 0.  1.
         -6    1    1    2    0  503 -0.23736646713E+02 -0.91698020506E+02 -0.65425716038E+03  0.68333987683E+03  0.17300000000E+03 0. -1.
<mgrwt>
<rscale>  2 0.19723325E+03</rscale>
<asrwt>0</asrwt>
<pdfrwt beam="1">  1       21 0.21140466E-01 0.19723325E+03</pdfrwt>
<pdfrwt beam="2">  1       21 0.11506894E+00 0.19723325E+03</pdfrwt>
<totfact> 0.12141289E+04</totfact>
</mgrwt>
</event>
<event>
 4    3  0.3906307E+000  0.2846257E+03  0.7546771E-02  0.1093189E+00
         21   -1    0    0  501  502  0.00000000000E+00  0.00000000000E+00  0.53049188296E+02  0.53049188296E+02  0.00000000000E+00 0.  1.
         21   -1    0    0  502  503 -0.00000000000E+00 -0.00000000000E+00 -0.24091203467E+04  0.24091203467E+04  0.00000000000E+00 0. -1.
          6    1    1    2  501    0 -0.18910367063E+03  0.12378454447E+03 -0.19229324894E+04  0.19438830136E+04  0.17300000000E+03 0. -1.
         -6    1    1    2    0  503  0.18910367063E+03 -0.12378454447E+03 -0.43313866902E+03  0.51828652143E+03  0.17300000000E+03 0.  1.
<mgrwt>
<rscale>  2 0.28462574E+03</rscale>
<asrwt>0</asrwt>
<pdfrwt beam="1">  1       21 0.81614131E-02 0.28462574E+03</pdfrwt>
<pdfrwt beam="2">  1       21 0.37063392E+00 0.28462574E+03</pdfrwt>
<totfact> 0.13688230E+03</totfact>
</mgrwt>
</event>
<event>
 4    3  0.3906307E+000  0.2008341E+03  0.7546771E-02  0.1149037E+00
         21   -1    0    0  503  502  0.00000000000E+00  0.00000000000E+00  0.88978891684E+03  0.88978891684E+03  0.00000000000E+00 0.  1.
         21   -1    0    0  501  503 -0.00000000000E+00 -0.00000000000E+00 -0.54042852874E+02  0.54042852874E+02  0.00000000000E+00 0.  1.
          6    1    1    2  501    0 -0.15859160551E+02 -0.10076627609E+03  0.22839041025E+03  0.30413242981E+03  0.17300000000E+03 0.  1.
         -6    1    1    2    0  502  0.15859160551E+02  0.10076627609E+03  0.60735565371E+03  0.63969933990E+03  0.17300000000E+03 0.  1.
<mgrwt>
<rscale>  2 0.20083415E+03</rscale>
<asrwt>0</asrwt>
<pdfrwt beam="1">  1       21 0.13689059E+00 0.20083415E+03</pdfrwt>
<pdfrwt beam="2">  1       21 0.83142857E-02 0.20083415E+03</pdfrwt>
<totfact> 0.42345411E+04</totfact>
</mgrwt>
</event>
<event>
 4    3  0.3906307E+000  0.1777802E+03  0.7546771E-02  0.1169969E+00
         21   -1    0    0  503  502  0.00000000000E+00  0.00000000000E+00  0.32767259478E+02  0.32767259478E+02  0.00000000000E+00 0.  1.
         21   -1    0    0  501  503 -0.00000000000E+00 -0.00000000000E+00 -0.10390834660E+04  0.10390834660E+04  0.00000000000E+00 0.  1.
          6    1    1    2  501    0  0.40683103136E+02 -0.46574848935E+01 -0.35962843236E+03  0.40117130556E+03  0.17300000000E+03 0.  1.
         -6    1    1    2    0  502 -0.40683103136E+02  0.46574848935E+01 -0.64668777420E+03  0.67067941995E+03  0.17300000000E+03 0.  1.
<mgrwt>
<rscale>  2 0.17778022E+03</rscale>
<asrwt>0</asrwt>
<pdfrwt beam="1">  1       21 0.50411174E-02 0.17778022E+03</pdfrwt>
<pdfrwt beam="2">  1       21 0.15985898E+00 0.17778022E+03</pdfrwt>
<totfact> 0.67472640E+04</totfact>
</mgrwt>
</event>
<event>
 4    3  0.3906307E+000  0.1957141E+03  0.7546771E-02  0.1153406E+00
         21   -1    0    0  501  502  0.00000000000E+00  0.00000000000E+00  0.92456120638E+02  0.92456120638E+02  0.00000000000E+00 0.  1.
         21   -1    0    0  502  503 -0.00000000000E+00 -0.00000000000E+00 -0.15849309137E+04  0.15849309137E+04  0.00000000000E+00 0.  1.
          6    1    1    2  501    0  0.88440962707E+02 -0.23519973565E+02 -0.25446535788E+02  0.19736139244E+03  0.17300000000E+03 0.  1.
         -6    1    1    2    0  503 -0.88440962707E+02  0.23519973565E+02 -0.14670282572E+04  0.14800256419E+04  0.17300000000E+03 0.  1.
<mgrwt>
<rscale>  2 0.19571406E+03</rscale>
<asrwt>0</asrwt>
<pdfrwt beam="1">  1       21 0.14224019E-01 0.19571406E+03</pdfrwt>
<pdfrwt beam="2">  1       21 0.24383551E+00 0.19571406E+03</pdfrwt>
<totfact> 0.31133362E+03</totfact>
</mgrwt>
</event>
<event>
 4    3  0.3906307E+000  0.3504188E+03  0.7546771E-02  0.1062443E+00
         21   -1    0    0  501  502  0.00000000000E+00  0.00000000000E+00  0.11273987724E+04  0.11273987724E+04  0.00000000000E+00 0. -1.
         21   -1    0    0  502  503 -0.00000000000E+00 -0.00000000000E+00 -0.27480833160E+03  0.27480833160E+03  0.00000000000E+00 0.  1.
          6    1    1    2  501    0  0.23003114171E+03  0.19987505671E+03  0.97102173843E+03  0.10323161245E+04  0.17300000000E+03 0. -1.
         -6    1    1    2    0  503 -0.23003114171E+03 -0.19987505671E+03 -0.11843129762E+03  0.36989097949E+03  0.17300000000E+03 0.  1.
<mgrwt>
<rscale>  2 0.35041884E+03</rscale>
<asrwt>0</asrwt>
<pdfrwt beam="1">  1       21 0.17344596E+00 0.35041884E+03</pdfrwt>
<pdfrwt beam="2">  1       21 0.42278206E-01 0.35041884E+03</pdfrwt>
<totfact> 0.95904927E+02</totfact>
</mgrwt>
</event>
<event>
 4    3  0.3906307E+000  0.1802639E+03  0.7546771E-02  0.1167548E+00
         21   -1    0    0  501  502  0.00000000000E+00  0.00000000000E+00  0.46685714604E+02  0.46685714604E+02  0.00000000000E+00 0.  1.
         21   -1    0    0  502  503 -0.00000000000E+00 -0.00000000000E+00 -0.13824775068E+04  0.13824775068E+04  0.00000000000E+00 0.  1.
          6    1    1    2  501    0  0.29042374988E+02  0.41504204541E+02 -0.16436775159E+03  0.24395043821E+03  0.17300000000E+03 0.  1.
         -6    1    1    2    0  503 -0.29042374988E+02 -0.41504204541E+02 -0.11714240407E+04  0.11852127832E+04  0.17300000000E+03 0.  1.
<mgrwt>
<rscale>  2 0.18026386E+03</rscale>
<asrwt>0</asrwt>
<pdfrwt beam="1">  1       21 0.71824187E-02 0.18026386E+03</pdfrwt>
<pdfrwt beam="2">  1       21 0.21268882E+00 0.18026386E+03</pdfrwt>
<totfact> 0.16318405E+04</totfact>
</mgrwt>
</event>
<event>
 4    3  0.3906307E+000  0.4196518E+03  0.7546771E-02  0.1037180E+00
         21   -1    0    0  501  502  0.00000000000E+00  0.00000000000E+00  0.55472050912E+03  0.55472050912E+03  0.00000000000E+00 0. -1.
         21   -1    0    0  502  503 -0.00000000000E+00 -0.00000000000E+00 -0.82632070267E+03  0.82632070267E+03  0.00000000000E+00 0.  1.
          6    1    1    2  501    0 -0.78627288217E+02  0.37416089871E+03  0.40607241943E+03  0.58395414066E+03  0.17300000000E+03 0. -1.
         -6    1    1    2    0  503  0.78627288217E+02 -0.37416089871E+03 -0.67767261298E+03  0.79708707112E+03  0.17300000000E+03 0.  1.
<mgrwt>
<rscale>  2 0.41965179E+03</rscale>
<asrwt>0</asrwt>
<pdfrwt beam="1">  1       21 0.85341617E-01 0.41965179E+03</pdfrwt>
<pdfrwt beam="2">  1       21 0.12712626E+00 0.41965179E+03</pdfrwt>
<totfact> 0.45929951E+02</totfact>
</mgrwt>
</event>
<event>
 4    3  0.3906307E+000  0.2161347E+03  0.7546771E-02  0.1136798E+00
         21   -1    0    0  503  502  0.00000000000E+00  0.00000000000E+00  0.17334031159E+04  0.17334031159E+04  0.00000000000E+00 0.  1.
         21   -1    0    0  501  503 -0.00000000000E+00 -0.00000000000E+00 -0.28161274760E+02  0.28161274760E+02  0.00000000000E+00 0. -1.
          6    1    1    2  501    0 -0.41879878112E+02 -0.12260214874E+03  0.66990878088E+03  0.70391191620E+03  0.17300000000E+03 0. -1.
         -6    1    1    2    0  502  0.41879878112E+02  0.12260214874E+03  0.10353330603E+04  0.10576524745E+04  0.17300000000E+03 0.  1.
<mgrwt>
<rscale>  2 0.21613471E+03</rscale>
<asrwt>0</asrwt>
<pdfrwt beam="1">  1       21 0.26667732E+00 0.21613471E+03</pdfrwt>
<pdfrwt beam="2">  1       21 0.43325052E-02 0.21613471E+03</pdfrwt>
<totfact> 0.17831851E+04</totfact>
</mgrwt>
</event>
<event>
 4    3  0.3906307E+000  0.1766796E+03  0.7546771E-02  0.1171056E+00
         21   -1    0    0  501  502  0.00000000000E+00  0.00000000000E+00  0.72751223448E+02  0.72751223448E+02  0.00000000000E+00 0. -1.
         21   -1    0    0  502  503 -0.00000000000E+00 -0.00000000000E+00 -0.50274477916E+03  0.50274477916E+03  0.00000000000E+00 0. -1.
          6    1    1    2  501    0 -0.35518119660E+02 -0.50126571876E+01 -0.10484640902E+03  0.20544691052E+03  0.17300000000E+03 0. -1.
         -6    1    1    2    0  503  0.35518119660E+02  0.50126571876E+01 -0.32514714669E+03  0.37004909209E+03  0.17300000000E+03 0. -1.
<mgrwt>
<rscale>  2 0.17667955E+03</rscale>
<asrwt>0</asrwt>
<pdfrwt beam="1">  1       21 0.11192497E-01 0.17667955E+03</pdfrwt>
<pdfrwt beam="2">  1       21 0.77345346E-01 0.17667955E+03</pdfrwt>
<totfact> 0.99237359E+04</totfact>
</mgrwt>
</event>
<event>
 4    3  0.3906307E+000  0.1930935E+03  0.7546771E-02  0.1155700E+00
         21   -1    0    0  503  502  0.00000000000E+00  0.00000000000E+00  0.44745468505E+02  0.44745468505E+02  0.00000000000E+00 0. -1.
         21   -1    0    0  501  503 -0.00000000000E+00 -0.00000000000E+00 -0.11228892367E+04  0.11228892367E+04  0.00000000000E+00 0.  1.
          6    1    1    2  501    0  0.75781010547E+02 -0.40166199216E+02 -0.83556988070E+03  0.85759087603E+03  0.17300000000E+03 0.  1.
         -6    1    1    2    0  502 -0.75781010547E+02  0.40166199216E+02 -0.24257388753E+03  0.31004382921E+03  0.17300000000E+03 0. -1.
<mgrwt>
<rscale>  2 0.19309346E+03</rscale>
<asrwt>0</asrwt>
<pdfrwt beam="1">  1       21 0.68839182E-02 0.19309346E+03</pdfrwt>
<pdfrwt beam="2">  1       21 0.17275219E+00 0.19309346E+03</pdfrwt>
<totfact> 0.31774702E+04</totfact>
</mgrwt>
</event>
<event>
 4    3  0.3906307E+000  0.2096620E+03  0.7546771E-02  0.1141834E+00
         21   -1    0    0  501  502  0.00000000000E+00  0.00000000000E+00  0.16638360820E+03  0.16638360820E+03  0.00000000000E+00 0.  1.
         21   -1    0    0  502  503 -0.00000000000E+00 -0.00000000000E+00 -0.71622211546E+03  0.71622211546E+03  0.00000000000E+00 0.  1.
          6    1    1    2  501    0 -0.59260623158E+01 -0.11829633169E+03  0.75666208362E+02  0.22289799325E+03  0.17300000000E+03 0.  1.
         -6    1    1    2    0  503  0.59260623158E+01  0.11829633169E+03 -0.62550471562E+03  0.65970773042E+03  0.17300000000E+03 0.  1.
<mgrwt>
<rscale>  2 0.20966197E+03</rscale>
<asrwt>0</asrwt>
<pdfrwt beam="1">  1       21 0.25597478E-01 0.20966197E+03</pdfrwt>
<pdfrwt beam="2">  1       21 0.11018802E+00 0.20966197E+03</pdfrwt>
<totfact> 0.93032127E+03</totfact>
</mgrwt>
</event>
<event>
 4    3  0.3906307E+000  0.2237346E+03  0.7546771E-02  0.1131129E+00
         21   -1    0    0  501  502  0.00000000000E+00  0.00000000000E+00  0.98056997250E+02  0.98056997250E+02  0.00000000000E+00 0. -1.
         21   -1    0    0  502  503 -0.00000000000E+00 -0.00000000000E+00 -0.10678773750E+04  0.10678773750E+04  0.00000000000E+00 0. -1.
          6    1    1    2  501    0  0.95016953726E+02  0.10535638618E+03 -0.63736055577E+02  0.23263592668E+03  0.17300000000E+03 0. -1.
         -6    1    1    2    0  503 -0.95016953726E+02 -0.10535638618E+03 -0.90608432213E+03  0.93329844553E+03  0.17300000000E+03 0. -1.
<mgrwt>
<rscale>  2 0.22373464E+03</rscale>
<asrwt>0</asrwt>
<pdfrwt beam="1">  1       21 0.15085692E-01 0.22373464E+03</pdfrwt>
<pdfrwt beam="2">  1       21 0.16428883E+00 0.22373464E+03</pdfrwt>
<totfact> 0.88840435E+03</totfact>
</mgrwt>
</event>
<event>
 4    3  0.3906307E+000  0.2030206E+03  0.7546771E-02  0.1147215E+00
         21   -1    0    0  501  502  0.00000000000E+00  0.00000000000E+00  0.58051249727E+02  0.58051249727E+02  0.00000000000E+00 0.  1.
         21   -1    0    0  502  503 -0.00000000000E+00 -0.00000000000E+00 -0.81987161133E+03  0.81987161133E+03  0.00000000000E+00 0.  1.
          6    1    1    2  501    0 -0.10152532009E+03  0.31320566266E+02 -0.22022982763E+03  0.29953054180E+03  0.17300000000E+03 0.  1.
         -6    1    1    2    0  503  0.10152532009E+03 -0.31320566266E+02 -0.54159053397E+03  0.57839231926E+03  0.17300000000E+03 0.  1.
<mgrwt>
<rscale>  2 0.20302061E+03</rscale>
<asrwt>0</asrwt>
<pdfrwt beam="1">  1       21 0.89309616E-02 0.20302061E+03</pdfrwt>
<pdfrwt beam="2">  1       21 0.12613409E+00 0.20302061E+03</pdfrwt>
<totfact> 0.45912492E+04</totfact>
</mgrwt>
</event>
<event>
 4    3  0.3906307E+000  0.2351548E+03  0.7546771E-02  0.1123063E+00
         21   -1    0    0  503  502  0.00000000000E+00  0.00000000000E+00  0.62399616442E+03  0.62399616442E+03  0.00000000000E+00 0. -1.
         21   -1    0    0  501  503 -0.00000000000E+00 -0.00000000000E+00 -0.10267342891E+03  0.10267342891E+03  0.00000000000E+00 0.  1.
          6    1    1    2  501    0  0.36131240472E+02 -0.15512349353E+03  0.12623381034E+03  0.26689462276E+03  0.17300000000E+03 0.  1.
         -6    1    1    2    0  502 -0.36131240472E+02  0.15512349353E+03  0.39508892517E+03  0.45977497058E+03  0.17300000000E+03 0. -1.
<mgrwt>
<rscale>  2 0.23515477E+03</rscale>
<asrwt>0</asrwt>
<pdfrwt beam="1">  1       21 0.95999408E-01 0.23515477E+03</pdfrwt>
<pdfrwt beam="2">  1       21 0.15795913E-01 0.23515477E+03</pdfrwt>
<totfact> 0.31547015E+04</totfact>
</mgrwt>
</event>
<event>
 4    3  0.3906307E+000  0.2910986E+03  0.7546771E-02  0.1089777E+00
         21   -1    0    0  503  502  0.00000000000E+00  0.00000000000E+00  0.44821376938E+03  0.44821376938E+03  0.00000000000E+00 0.  1.
         21   -1    0    0  501  503 -0.00000000000E+00 -0.00000000000E+00 -0.19846666475E+03  0.19846666475E+03  0.00000000000E+00 0. -1.
          6    1    1    2  501    0  0.10300027690E+02 -0.23388740918E+03  0.19527463247E+03  0.35052901853E+03  0.17300000000E+03 0. -1.
         -6    1    1    2    0  502 -0.10300027690E+02  0.23388740918E+03  0.54472472159E+02  0.29615141561E+03  0.17300000000E+03 0.  1.
<mgrwt>
<rscale>  2 0.29109863E+03</rscale>
<asrwt>0</asrwt>
<pdfrwt beam="1">  1       21 0.68955964E-01 0.29109863E+03</pdfrwt>
<pdfrwt beam="2">  1       21 0.30533333E-01 0.29109863E+03</pdfrwt>
<totfact> 0.18752048E+04</totfact>
</mgrwt>
</event>
<event>
 4    3  0.3906307E+000  0.1850344E+03  0.7546771E-02  0.1163018E+00
         21   -1    0    0  501  502  0.00000000000E+00  0.00000000000E+00  0.44074993217E+03  0.44074993217E+03  0.00000000000E+00 0.  1.
         21   -1    0    0  502  503 -0.00000000000E+00 -0.00000000000E+00 -0.94303758004E+02  0.94303758004E+02  0.00000000000E+00 0.  1.
          6    1    1    2  501    0  0.47489531646E+01 -0.65468863121E+02  0.28554370245E+03  0.34025421467E+03  0.17300000000E+03 0.  1.
         -6    1    1    2    0  503 -0.47489531646E+01  0.65468863121E+02  0.60902471718E+02  0.19479947550E+03  0.17300000000E+03 0.  1.
<mgrwt>
<rscale>  2 0.18503439E+03</rscale>
<asrwt>0</asrwt>
<pdfrwt beam="1">  1       21 0.67807681E-01 0.18503439E+03</pdfrwt>
<pdfrwt beam="2">  1       21 0.14508271E-01 0.18503439E+03</pdfrwt>
<totfact> 0.83083111E+04</totfact>
</mgrwt>
</event>
<event>
 4    3  0.3906307E+000  0.1947979E+03  0.7546771E-02  0.1154204E+00
         21   -1    0    0  503  502  0.00000000000E+00  0.00000000000E+00  0.43722947153E+03  0.43722947153E+03  0.00000000000E+00 0.  1.
         21   -1    0    0  501  503 -0.00000000000E+00 -0.00000000000E+00 -0.88472052404E+02  0.88472052404E+02  0.00000000000E+00 0. -1.
          6    1    1    2  501    0 -0.27207360454E+02  0.85305250259E+02  0.21064451413E+03  0.28690998156E+03  0.17300000000E+03 0.  1.
         -6    1    1    2    0  502  0.27207360454E+02 -0.85305250259E+02  0.13811290500E+03  0.23879154238E+03  0.17300000000E+03 0. -1.
<mgrwt>
<rscale>  2 0.19479791E+03</rscale>
<asrwt>0</asrwt>
<pdfrwt beam="1">  1       21 0.67266072E-01 0.19479791E+03</pdfrwt>
<pdfrwt beam="2">  1       21 0.13611085E-01 0.19479791E+03</pdfrwt>
<totfact> 0.94546028E+04</totfact>
</mgrwt>
</event>
<event>
 4    3  0.3906307E+000  0.1905878E+03  0.7546771E-02  0.1157932E+00
         21   -1    0    0  501  502  0.00000000000E+00  0.00000000000E+00  0.11730216663E+03  0.11730216663E+03  0.00000000000E+00 0. -1.
         21   -1    0    0  502  503 -0.00000000000E+00 -0.00000000000E+00 -0.67586474558E+03  0.67586474558E+03  0.00000000000E+00 0. -1.
          6    1    1    2  501    0 -0.15139766821E+02 -0.78520699704E+02  0.12640871412E+02  0.19100655604E+03  0.17300000000E+03 0. -1.
         -6    1    1    2    0  503  0.15139766821E+02  0.78520699704E+02 -0.57120345037E+03  0.60216035616E+03  0.17300000000E+03 0. -1.
<mgrwt>
<rscale>  2 0.19058781E+03</rscale>
<asrwt>0</asrwt>
<pdfrwt beam="1">  1       21 0.18046487E-01 0.19058781E+03</pdfrwt>
<pdfrwt beam="2">  1       21 0.10397919E+00 0.19058781E+03</pdfrwt>
<totfact> 0.20925906E+04</totfact>
</mgrwt>
</event>
<event>
 4    3  0.3906307E+000  0.2686236E+03  0.7546771E-02  0.1102070E+00
         21   -1    0    0  503  502  0.00000000000E+00  0.00000000000E+00  0.47972191713E+03  0.47972191713E+03  0.00000000000E+00 0.  1.
         21   -1    0    0  501  503 -0.00000000000E+00 -0.00000000000E+00 -0.50002001472E+03  0.50002001472E+03  0.00000000000E+00 0. -1.
          6    1    1    2  501    0  0.16151522204E+03 -0.12705294858E+03 -0.41976345140E+03  0.49835727528E+03  0.17300000000E+03 0. -1.
         -6    1    1    2    0  502 -0.16151522204E+03  0.12705294858E+03  0.39946535380E+03  0.48138465657E+03  0.17300000000E+03 0.  1.
<mgrwt>
<rscale>  2 0.26862356E+03</rscale>
<asrwt>0</asrwt>
<pdfrwt beam="1">  1       21 0.73803372E-01 0.26862356E+03</pdfrwt>
<pdfrwt beam="2">  1       21 0.76926156E-01 0.26862356E+03</pdfrwt>
<totfact> 0.23366454E+03</totfact>
</mgrwt>
</event>
<event>
 4    3  0.3906307E+000  0.1800600E+03  0.7546771E-02  0.1167745E+00
         21   -1    0    0  503  502  0.00000000000E+00  0.00000000000E+00  0.15758724876E+03  0.15758724876E+03  0.00000000000E+00 0. -1.
         21   -1    0    0  501  503 -0.00000000000E+00 -0.00000000000E+00 -0.25167185963E+03  0.25167185963E+03  0.00000000000E+00 0. -1.
          6    1    1    2  501    0  0.80662405463E+01 -0.49270084402E+02  0.40379525155E+02  0.18453214220E+03  0.17300000000E+03 0. -1.
         -6    1    1    2    0  502 -0.80662405463E+01  0.49270084402E+02 -0.13446413603E+03  0.22472696619E+03  0.17300000000E+03 0. -1.
<mgrwt>
<rscale>  2 0.18006001E+03</rscale>
<asrwt>0</asrwt>
<pdfrwt beam="1">  1       21 0.24244192E-01 0.18006001E+03</pdfrwt>
<pdfrwt beam="2">  1       21 0.38718747E-01 0.18006001E+03</pdfrwt>
<totfact> 0.10377826E+05</totfact>
</mgrwt>
</event>
<event>
 4    3  0.3906307E+000  0.2064320E+03  0.7546771E-02  0.1144423E+00
         21   -1    0    0  503  502  0.00000000000E+00  0.00000000000E+00  0.57615648017E+03  0.57615648017E+03  0.00000000000E+00 0. -1.
         21   -1    0    0  501  503 -0.00000000000E+00 -0.00000000000E+00 -0.13319580787E+03  0.13319580787E+03  0.00000000000E+00 0. -1.
          6    1    1    2  501    0 -0.11083762108E+03 -0.20004885623E+02 -0.15039963481E+02  0.20697916368E+03  0.17300000000E+03 0. -1.
         -6    1    1    2    0  502  0.11083762108E+03  0.20004885623E+02  0.45800063578E+03  0.50237312435E+03  0.17300000000E+03 0. -1.
<mgrwt>
<rscale>  2 0.20643201E+03</rscale>
<asrwt>0</asrwt>
<pdfrwt beam="1">  1       21 0.88639457E-01 0.20643201E+03</pdfrwt>
<pdfrwt beam="2">  1       21 0.20491663E-01 0.20643201E+03</pdfrwt>
<totfact> 0.23809820E+04</totfact>
</mgrwt>
</event>
<event>
 4    3  0.3906307E+000  0.2246352E+03  0.7546771E-02  0.1130474E+00
         21   -1    0    0  503  502  0.00000000000E+00  0.00000000000E+00  0.12654271452E+03  0.12654271452E+03  0.00000000000E+00 0. -1.
         21   -1    0    0  501  503 -0.00000000000E+00 -0.00000000000E+00 -0.85261503838E+03  0.85261503838E+03  0.00000000000E+00 0. -1.
          6    1    1    2  501    0  0.12255336114E+03 -0.74247146556E+02 -0.72022819371E+03  0.75444656280E+03  0.17300000000E+03 0. -1.
         -6    1    1    2    0  502 -0.12255336114E+03  0.74247146556E+02 -0.58441301479E+01  0.22471119010E+03  0.17300000000E+03 0. -1.
<mgrwt>
<rscale>  2 0.22463518E+03</rscale>
<asrwt>0</asrwt>
<pdfrwt beam="1">  1       21 0.19468110E-01 0.22463518E+03</pdfrwt>
<pdfrwt beam="2">  1       21 0.13117154E+00 0.22463518E+03</pdfrwt>
<totfact> 0.10029549E+04</totfact>
</mgrwt>
</event>
<event>
 4    3  0.3906307E+000  0.1841933E+03  0.7546771E-02  0.1163805E+00
         21   -1    0    0  501  502  0.00000000000E+00  0.00000000000E+00  0.52631126681E+02  0.52631126681E+02  0.00000000000E+00 0. -1.
         21   -1    0    0  502  503 -0.00000000000E+00 -0.00000000000E+00 -0.64972446474E+03  0.64972446474E+03  0.00000000000E+00 0. -1.
          6    1    1    2  501    0  0.31702323670E+02 -0.54709455524E+02 -0.26742457195E+03  0.32471997711E+03  0.17300000000E+03 0. -1.
         -6    1    1    2    0  503 -0.31702323670E+02  0.54709455524E+02 -0.32966876611E+03  0.37763561431E+03  0.17300000000E+03 0. -1.
<mgrwt>
<rscale>  2 0.18419327E+03</rscale>
<asrwt>0</asrwt>
<pdfrwt beam="1">  1       21 0.80970965E-02 0.18419327E+03</pdfrwt>
<pdfrwt beam="2">  1       21 0.99957609E-01 0.18419327E+03</pdfrwt>
<totfact> 0.96905297E+04</totfact>
</mgrwt>
</event>
<event>
 4    3  0.3906307E+000  0.1940593E+03  0.7546771E-02  0.1154850E+00
         21   -1    0    0  501  502  0.00000000000E+00  0.00000000000E+00  0.92606218377E+03  0.92606218377E+03  0.00000000000E+00 0. -1.
         21   -1    0    0  502  503 -0.00000000000E+00 -0.00000000000E+00 -0.74080872016E+02  0.74080872016E+02  0.00000000000E+00 0. -1.
          6    1    1    2  501    0 -0.87911378836E+02  0.12594439058E+01  0.76184481194E+03  0.78617206400E+03  0.17300000000E+03 0. -1.
         -6    1    1    2    0  503  0.87911378836E+02 -0.12594439058E+01  0.90136499810E+02  0.21397099179E+03  0.17300000000E+03 0. -1.
<mgrwt>
<rscale>  2 0.19405926E+03</rscale>
<asrwt>0</asrwt>
<pdfrwt beam="1">  1       21 0.14247110E+00 0.19405926E+03</pdfrwt>
<pdfrwt beam="2">  1       21 0.11397058E-01 0.19405926E+03</pdfrwt>
<totfact> 0.21983387E+04</totfact>
</mgrwt>
</event>
<event>
 4    3  0.3906307E+000  0.1876146E+03  0.7546771E-02  0.1160631E+00
         21   -1    0    0  503  502  0.00000000000E+00  0.00000000000E+00  0.14460538793E+04  0.14460538793E+04  0.00000000000E+00 0.  1.
         21   -1    0    0  501  503 -0.00000000000E+00 -0.00000000000E+00 -0.30493703266E+02  0.30493703266E+02  0.00000000000E+00 0.  1.
          6    1    1    2  501    0 -0.57859384303E+02  0.43846736618E+02  0.37617233666E+03  0.42036278562E+03  0.17300000000E+03 0.  1.
         -6    1    1    2    0  502  0.57859384303E+02 -0.43846736618E+02  0.10393878393E+04  0.10561847969E+04  0.17300000000E+03 0.  1.
<mgrwt>
<rscale>  2 0.18761462E+03</rscale>
<asrwt>0</asrwt>
<pdfrwt beam="1">  1       21 0.22246977E+00 0.18761462E+03</pdfrwt>
<pdfrwt beam="2">  1       21 0.46913401E-02 0.18761462E+03</pdfrwt>
<totfact> 0.29223042E+04</totfact>
</mgrwt>
</event>
<event>
 4    3  0.3906307E+000  0.2088955E+03  0.7546771E-02  0.1142444E+00
         21   -1    0    0  503  502  0.00000000000E+00  0.00000000000E+00  0.85361888540E+02  0.85361888540E+02  0.00000000000E+00 0.  1.
         21   -1    0    0  501  503 -0.00000000000E+00 -0.00000000000E+00 -0.67252401689E+03  0.67252401689E+03  0.00000000000E+00 0. -1.
          6    1    1    2  501    0  0.72094247505E+02 -0.92253687897E+02 -0.47917522494E+03  0.52272958559E+03  0.17300000000E+03 0. -1.
         -6    1    1    2    0  502 -0.72094247505E+02  0.92253687897E+02 -0.10798690341E+03  0.23515631984E+03  0.17300000000E+03 0.  1.
<mgrwt>
<rscale>  2 0.20889548E+03</rscale>
<asrwt>0</asrwt>
<pdfrwt beam="1">  1       21 0.13132598E-01 0.20889548E+03</pdfrwt>
<pdfrwt beam="2">  1       21 0.10346524E+00 0.20889548E+03</pdfrwt>
<totfact> 0.37442357E+04</totfact>
</mgrwt>
</event>
<event>
 4    3  0.3906307E+000  0.2133795E+03  0.7546771E-02  0.1138917E+00
         21   -1    0    0  501  502  0.00000000000E+00  0.00000000000E+00  0.38816199134E+03  0.38816199134E+03  0.00000000000E+00 0. -1.
         21   -1    0    0  502  503 -0.00000000000E+00 -0.00000000000E+00 -0.11885045811E+03  0.11885045811E+03  0.00000000000E+00 0. -1.
          6    1    1    2  501    0 -0.12434004132E+03 -0.11889625897E+02  0.16362465925E+03  0.26889373030E+03  0.17300000000E+03 0. -1.
         -6    1    1    2    0  503  0.12434004132E+03  0.11889625897E+02  0.10568687399E+03  0.23811871916E+03  0.17300000000E+03 0. -1.
<mgrwt>
<rscale>  2 0.21337950E+03</rscale>
<asrwt>0</asrwt>
<pdfrwt beam="1">  1       21 0.59717229E-01 0.21337950E+03</pdfrwt>
<pdfrwt beam="2">  1       21 0.18284686E-01 0.21337950E+03</pdfrwt>
<totfact> 0.70736031E+04</totfact>
</mgrwt>
</event>
<event>
 4    3  0.3906307E+000  0.2560574E+03  0.7546771E-02  0.1109535E+00
         21   -1    0    0  503  502  0.00000000000E+00  0.00000000000E+00  0.12685817027E+03  0.12685817027E+03  0.00000000000E+00 0.  1.
         21   -1    0    0  501  503 -0.00000000000E+00 -0.00000000000E+00 -0.57320358938E+03  0.57320358938E+03  0.00000000000E+00 0.  1.
          6    1    1    2  501    0 -0.13598435229E+03 -0.13093761975E+03 -0.33293430008E+03  0.42001268136E+03  0.17300000000E+03 0.  1.
         -6    1    1    2    0  502  0.13598435229E+03  0.13093761975E+03 -0.11341111903E+03  0.28004907830E+03  0.17300000000E+03 0.  1.
<mgrwt>
<rscale>  2 0.25605742E+03</rscale>
<asrwt>0</asrwt>
<pdfrwt beam="1">  1       21 0.19516642E-01 0.25605742E+03</pdfrwt>
<pdfrwt beam="2">  1       21 0.88185168E-01 0.25605742E+03</pdfrwt>
<totfact> 0.25738417E+04</totfact>
</mgrwt>
</event>
<event>
 4    3  0.3906307E+000  0.1744751E+03  0.7546771E-02  0.1173260E+00
         21   -1    0    0  501  502  0.00000000000E+00  0.00000000000E+00  0.18002764736E+04  0.18002764736E+04  0.00000000000E+00 0. -1.
         21   -1    0    0  502  503 -0.00000000000E+00 -0.00000000000E+00 -0.21252426401E+02  0.21252426401E+02  0.00000000000E+00 0. -1.
          6    1    1    2  501    0  0.21699137684E+02 -0.64577118129E+01  0.13012293712E+04  0.13128744918E+04  0.17300000000E+03 0. -1.
         -6    1    1    2    0  503 -0.21699137684E+02  0.64577118129E+01  0.47779467597E+03  0.50865440822E+03  0.17300000000E+03 0. -1.
<mgrwt>
<rscale>  2 0.17447508E+03</rscale>
<asrwt>0</asrwt>
<pdfrwt beam="1">  1       21 0.27696549E+00 0.17447508E+03</pdfrwt>
<pdfrwt beam="2">  1       21 0.32696055E-02 0.17447508E+03</pdfrwt>
<totfact> 0.25858825E+04</totfact>
</mgrwt>
</event>
<event>
 4    3  0.3906307E+000  0.1913186E+03  0.7546771E-02  0.1157277E+00
         21   -1    0    0  501  502  0.00000000000E+00  0.00000000000E+00  0.89627119586E+03  0.89627119586E+03  0.00000000000E+00 0. -1.
         21   -1    0    0  502  503 -0.00000000000E+00 -0.00000000000E+00 -0.10254850643E+03  0.10254850643E+03  0.00000000000E+00 0. -1.
          6    1    1    2  501    0  0.53843793084E+02 -0.61438308408E+02  0.78426924225E+03  0.80726765335E+03  0.17300000000E+03 0. -1.
         -6    1    1    2    0  503 -0.53843793084E+02  0.61438308408E+02  0.94534471764E+01  0.19155204895E+03  0.17300000000E+03 0. -1.
<mgrwt>
<rscale>  2 0.19131863E+03</rscale>
<asrwt>0</asrwt>
<pdfrwt beam="1">  1       21 0.13788787E+00 0.19131863E+03</pdfrwt>
<pdfrwt beam="2">  1       21 0.15776694E-01 0.19131863E+03</pdfrwt>
<totfact> 0.13326682E+04</totfact>
</mgrwt>
</event>
<event>
 4    3  0.3906307E+000  0.2018657E+03  0.7546771E-02  0.1148174E+00
         21   -1    0    0  501  502  0.00000000000E+00  0.00000000000E+00  0.12122869842E+03  0.12122869842E+03  0.00000000000E+00 0.  1.
         21   -1    0    0  502  503 -0.00000000000E+00 -0.00000000000E+00 -0.61893924893E+03  0.61893924893E+03  0.00000000000E+00 0. -1.
          6    1    1    2  501    0 -0.43475870922E+02 -0.94501881393E+02  0.13035094503E+01  0.20186989889E+03  0.17300000000E+03 0.  1.
         -6    1    1    2    0  503  0.43475870922E+02  0.94501881393E+02 -0.49901405996E+03  0.53829804846E+03  0.17300000000E+03 0. -1.
<mgrwt>
<rscale>  2 0.20186569E+03</rscale>
<asrwt>0</asrwt>
<pdfrwt beam="1">  1       21 0.18650569E-01 0.20186569E+03</pdfrwt>
<pdfrwt beam="2">  1       21 0.95221423E-01 0.20186569E+03</pdfrwt>
<totfact> 0.24087726E+04</totfact>
</mgrwt>
</event>
<event>
 4    3  0.3906307E+000  0.1956725E+03  0.7546771E-02  0.1153442E+00
         21   -1    0    0  501  502  0.00000000000E+00  0.00000000000E+00  0.10183656825E+04  0.10183656825E+04  0.00000000000E+00 0.  1.
         21   -1    0    0  502  503 -0.00000000000E+00 -0.00000000000E+00 -0.42092767617E+02  0.42092767617E+02  0.00000000000E+00 0.  1.
          6    1    1    2  501    0 -0.38620811367E+02 -0.82868410625E+02  0.66141715232E+03  0.68975386184E+03  0.17300000000E+03 0.  1.
         -6    1    1    2    0  503  0.38620811367E+02  0.82868410625E+02  0.31485576261E+03  0.37070458831E+03  0.17300000000E+03 0.  1.
<mgrwt>
<rscale>  2 0.19567253E+03</rscale>
<asrwt>0</asrwt>
<pdfrwt beam="1">  1       21 0.15667163E+00 0.19567253E+03</pdfrwt>
<pdfrwt beam="2">  1       21 0.64758112E-02 0.19567253E+03</pdfrwt>
<totfact> 0.45988393E+04</totfact>
</mgrwt>
</event>
<event>
 4    3  0.3906307E+000  0.3389050E+03  0.7546771E-02  0.1067263E+00
         21   -1    0    0  503  502  0.00000000000E+00  0.00000000000E+00  0.87245725847E+02  0.87245725847E+02  0.00000000000E+00 0. -1.
         21   -1    0    0  501  503 -0.00000000000E+00 -0.00000000000E+00 -0.13568982559E+04  0.13568982559E+04  0.00000000000E+00 0.  1.
          6    1    1    2  501    0  0.25297548294E+03 -0.14467556699E+03 -0.51019271755E+03  0.61249752954E+03  0.17300000000E+03 0.  1.
         -6    1    1    2    0  502 -0.25297548294E+03  0.14467556699E+03 -0.75945981249E+03  0.83164645219E+03  0.17300000000E+03 0. -1.
<mgrwt>
<rscale>  2 0.33890502E+03</rscale>
<asrwt>0</asrwt>
<pdfrwt beam="1">  1       21 0.13422420E-01 0.33890502E+03</pdfrwt>
<pdfrwt beam="2">  1       21 0.20875357E+00 0.33890502E+03</pdfrwt>
<totfact> 0.51122937E+03</totfact>
</mgrwt>
</event>
<event>
 4    3  0.3906307E+000  0.2055578E+03  0.7546771E-02  0.1145133E+00
         21   -1    0    0  501  502  0.00000000000E+00  0.00000000000E+00  0.47944371940E+03  0.47944371940E+03  0.00000000000E+00 0.  1.
         21   -1    0    0  502  503 -0.00000000000E+00 -0.00000000000E+00 -0.10276282873E+03  0.10276282873E+03  0.00000000000E+00 0.  1.
          6    1    1    2  501    0  0.11060720374E+03  0.95418182850E+01  0.29818382049E+03  0.36217066504E+03  0.17300000000E+03 0.  1.
         -6    1    1    2    0  503 -0.11060720374E+03 -0.95418182850E+01  0.78497070180E+02  0.22003588308E+03  0.17300000000E+03 0.  1.
<mgrwt>
<rscale>  2 0.20555778E+03</rscale>
<asrwt>0</asrwt>
<pdfrwt beam="1">  1       21 0.73760571E-01 0.20555778E+03</pdfrwt>
<pdfrwt beam="2">  1       21 0.15809666E-01 0.20555778E+03</pdfrwt>
<totfact> 0.58448585E+04</totfact>
</mgrwt>
</event>
<event>
 4    3  0.3906307E+000  0.2045132E+03  0.7546771E-02  0.1145986E+00
         21   -1    0    0  503  502  0.00000000000E+00  0.00000000000E+00  0.12873850529E+04  0.12873850529E+04  0.00000000000E+00 0. -1.
         21   -1    0    0  501  503 -0.00000000000E+00 -0.00000000000E+00 -0.37984952858E+02  0.37984952858E+02  0.00000000000E+00 0. -1.
          6    1    1    2  501    0 -0.84673688754E+02  0.68753431170E+02  0.87677432520E+03  0.90031043823E+03  0.17300000000E+03 0. -1.
         -6    1    1    2    0  502  0.84673688754E+02 -0.68753431170E+02  0.37262577483E+03  0.42505956751E+03  0.17300000000E+03 0. -1.
<mgrwt>
<rscale>  2 0.20451325E+03</rscale>
<asrwt>0</asrwt>
<pdfrwt beam="1">  1       21 0.19805921E+00 0.20451325E+03</pdfrwt>
<pdfrwt beam="2">  1       21 0.58438399E-02 0.20451325E+03</pdfrwt>
<totfact> 0.28264934E+04</totfact>
</mgrwt>
</event>
<event>
 4    3  0.3906307E+000  0.2777216E+03  0.7546771E-02  0.1096940E+00
         21   -1    0    0  501  502  0.00000000000E+00  0.00000000000E+00  0.76700894046E+02  0.76700894046E+02  0.00000000000E+00 0.  1.
         21   -1    0    0  502  503 -0.00000000000E+00 -0.00000000000E+00 -0.14848170114E+04  0.14848170114E+04  0.00000000000E+00 0. -1.
          6    1    1    2  501    0 -0.30910833567E+02 -0.21504601925E+03 -0.26049700468E+03  0.38077284498E+03  0.17300000000E+03 0.  1.
         -6    1    1    2    0  503  0.30910833567E+02  0.21504601925E+03 -0.11476191127E+04  0.11807450604E+04  0.17300000000E+03 0.  1.
<mgrwt>
<rscale>  2 0.27772157E+03</rscale>
<asrwt>0</asrwt>
<pdfrwt beam="1">  1       21 0.11800138E-01 0.27772157E+03</pdfrwt>
<pdfrwt beam="2">  1       21 0.22843337E+00 0.27772157E+03</pdfrwt>
<totfact> 0.50367174E+03</totfact>
</mgrwt>
</event>
<event>
 4    3  0.3906307E+000  0.2219966E+03  0.7546771E-02  0.1132403E+00
         21   -1    0    0  503  502  0.00000000000E+00  0.00000000000E+00  0.43626787310E+03  0.43626787310E+03  0.00000000000E+00 0. -1.
         21   -1    0    0  501  503 -0.00000000000E+00 -0.00000000000E+00 -0.12236660650E+03  0.12236660650E+03  0.00000000000E+00 0.  1.
          6    1    1    2  501    0  0.12191386877E+03  0.67011316142E+02  0.79523463370E+02  0.23581028204E+03  0.17300000000E+03 0.  1.
         -6    1    1    2    0  502 -0.12191386877E+03 -0.67011316142E+02  0.23437780323E+03  0.32282419757E+03  0.17300000000E+03 0.  1.
<mgrwt>
<rscale>  2 0.22199664E+03</rscale>
<asrwt>0</asrwt>
<pdfrwt beam="1">  1       21 0.67118134E-01 0.22199664E+03</pdfrwt>
<pdfrwt beam="2">  1       21 0.18825632E-01 0.22199664E+03</pdfrwt>
<totfact> 0.51781306E+04</totfact>
</mgrwt>
</event>
<event>
 4    3  0.3906307E+000  0.2225289E+03  0.7546771E-02  0.1132012E+00
         21   -1    0    0  501  502  0.00000000000E+00  0.00000000000E+00  0.10271711804E+03  0.10271711804E+03  0.00000000000E+00 0. -1.
         21   -1    0    0  502  503 -0.00000000000E+00 -0.00000000000E+00 -0.17403993107E+04  0.17403993107E+04  0.00000000000E+00 0.  1.
          6    1    1    2  501    0  0.87208498390E+02 -0.10947507694E+03 -0.35246089368E+02  0.22530291050E+03  0.17300000000E+03 0. -1.
         -6    1    1    2    0  503 -0.87208498390E+02  0.10947507694E+03 -0.16024361033E+04  0.16178135182E+04  0.17300000000E+03 0.  1.
<mgrwt>
<rscale>  2 0.22252891E+03</rscale>
<asrwt>0</asrwt>
<pdfrwt beam="1">  1       21 0.15802634E-01 0.22252891E+03</pdfrwt>
<pdfrwt beam="2">  1       21 0.26775373E+00 0.22252891E+03</pdfrwt>
<totfact> 0.18061484E+03</totfact>
</mgrwt>
</event>
<event>
 4    3  0.3906307E+000  0.2005556E+03  0.7546771E-02  0.1149271E+00
         21   -1    0    0  501  502  0.00000000000E+00  0.00000000000E+00  0.11820070147E+03  0.11820070147E+03  0.00000000000E+00 0.  1.
         21   -1    0    0  502  503 -0.00000000000E+00 -0.00000000000E+00 -0.46141755963E+03  0.46141755963E+03  0.00000000000E+00 0.  1.
          6    1    1    2  501    0 -0.95388226377E+02 -0.34563239616E+02 -0.23122169316E+02  0.20188404092E+03  0.17300000000E+03 0.  1.
         -6    1    1    2    0  503  0.95388226377E+02  0.34563239616E+02 -0.32009468885E+03  0.37773422018E+03  0.17300000000E+03 0.  1.
<mgrwt>
<rscale>  2 0.20055556E+03</rscale>
<asrwt>0</asrwt>
<pdfrwt beam="1">  1       21 0.18184723E-01 0.20055556E+03</pdfrwt>
<pdfrwt beam="2">  1       21 0.70987317E-01 0.20055556E+03</pdfrwt>
<totfact> 0.49299989E+04</totfact>
</mgrwt>
</event>
<event>
 4    3  0.3906307E+000  0.1971853E+03  0.7546771E-02  0.1152136E+00
         21   -1    0    0  501  502  0.00000000000E+00  0.00000000000E+00  0.33928538843E+03  0.33928538843E+03  0.00000000000E+00 0. -1.
         21   -1    0    0  502  503 -0.00000000000E+00 -0.00000000000E+00 -0.12939850480E+03  0.12939850480E+03  0.00000000000E+00 0. -1.
          6    1    1    2  501    0  0.66525791584E+02 -0.67285598769E+02  0.18419311319E+03  0.26983168030E+03  0.17300000000E+03 0. -1.
         -6    1    1    2    0  503 -0.66525791584E+02  0.67285598769E+02  0.25693770442E+02  0.19885221293E+03  0.17300000000E+03 0. -1.
<mgrwt>
<rscale>  2 0.19718528E+03</rscale>
<asrwt>0</asrwt>
<pdfrwt beam="1">  1       21 0.52197752E-01 0.19718528E+03</pdfrwt>
<pdfrwt beam="2">  1       21 0.19907462E-01 0.19718528E+03</pdfrwt>
<totfact> 0.80929854E+04</totfact>
</mgrwt>
</event>
<event>
 4    3  0.3906307E+000  0.1918357E+03  0.7546771E-02  0.1156816E+00
         21   -1    0    0  503  502  0.00000000000E+00  0.00000000000E+00  0.49894899384E+03  0.49894899384E+03  0.00000000000E+00 0.  1.
         21   -1    0    0  501  503 -0.00000000000E+00 -0.00000000000E+00 -0.74101343763E+02  0.74101343763E+02  0.00000000000E+00 0.  1.
          6    1    1    2  501    0  0.53557802425E+02 -0.63273080772E+02  0.19288845465E+03  0.27204204986E+03  0.17300000000E+03 0.  1.
         -6    1    1    2    0  502 -0.53557802425E+02  0.63273080772E+02  0.23195919542E+03  0.30100828774E+03  0.17300000000E+03 0.  1.
<mgrwt>
<rscale>  2 0.19183566E+03</rscale>
<asrwt>0</asrwt>
<pdfrwt beam="1">  1       21 0.76761382E-01 0.19183566E+03</pdfrwt>
<pdfrwt beam="2">  1       21 0.11400207E-01 0.19183566E+03</pdfrwt>
<totfact> 0.97106789E+04</totfact>
</mgrwt>
</event>
<event>
 4    3  0.3906307E+000  0.2407303E+03  0.7546771E-02  0.1119307E+00
         21   -1    0    0  503  502  0.00000000000E+00  0.00000000000E+00  0.61284304523E+02  0.61284304523E+02  0.00000000000E+00 0.  1.
         21   -1    0    0  501  503 -0.00000000000E+00 -0.00000000000E+00 -0.16719897620E+04  0.16719897620E+04  0.00000000000E+00 0. -1.
          6    1    1    2  501    0 -0.11815324465E+03  0.11858280493E+03 -0.13765711551E+04  0.13974617046E+04  0.17300000000E+03 0. -1.
         -6    1    1    2    0  502  0.11815324465E+03 -0.11858280493E+03 -0.23413430234E+03  0.33581236186E+03  0.17300000000E+03 0.  1.
<mgrwt>
<rscale>  2 0.24073029E+03</rscale>
<asrwt>0</asrwt>
<pdfrwt beam="1">  1       21 0.94283551E-02 0.24073029E+03</pdfrwt>
<pdfrwt beam="2">  1       21 0.25722918E+00 0.24073029E+03</pdfrwt>
<totfact> 0.51859116E+03</totfact>
</mgrwt>
</event>
<event>
 4    3  0.3906307E+000  0.2877417E+03  0.7546771E-02  0.1091534E+00
         21   -1    0    0  503  502  0.00000000000E+00  0.00000000000E+00  0.62972052192E+03  0.62972052192E+03  0.00000000000E+00 0.  1.
         21   -1    0    0  501  503 -0.00000000000E+00 -0.00000000000E+00 -0.17268901477E+03  0.17268901477E+03  0.00000000000E+00 0. -1.
          6    1    1    2  501    0  0.76834724512E+02  0.21670877375E+03  0.32526128645E+02  0.28957419871E+03  0.17300000000E+03 0. -1.
         -6    1    1    2    0  502 -0.76834724512E+02 -0.21670877375E+03  0.42450537850E+03  0.51283533799E+03  0.17300000000E+03 0.  1.
<mgrwt>
<rscale>  2 0.28774167E+03</rscale>
<asrwt>0</asrwt>
<pdfrwt beam="1">  1       21 0.96880079E-01 0.28774167E+03</pdfrwt>
<pdfrwt beam="2">  1       21 0.26567541E-01 0.28774167E+03</pdfrwt>
<totfact> 0.11291172E+04</totfact>
</mgrwt>
</event>
<event>
 4    3  0.3906307E+000  0.2404152E+03  0.7546771E-02  0.1119517E+00
         21   -1    0    0  503  502  0.00000000000E+00  0.00000000000E+00  0.58739325085E+02  0.58739325085E+02  0.00000000000E+00 0. -1.
         21   -1    0    0  501  503 -0.00000000000E+00 -0.00000000000E+00 -0.17038106541E+04  0.17038106541E+04  0.00000000000E+00 0. -1.
          6    1    1    2  501    0  0.14947755677E+03  0.74343229126E+02 -0.13953450455E+04  0.14159050999E+04  0.17300000000E+03 0. -1.
         -6    1    1    2    0  502 -0.14947755677E+03 -0.74343229126E+02 -0.24972628343E+03  0.34664487928E+03  0.17300000000E+03 0. -1.
<mgrwt>
<rscale>  2 0.24041517E+03</rscale>
<asrwt>0</asrwt>
<pdfrwt beam="1">  1       21 0.90368189E-02 0.24041517E+03</pdfrwt>
<pdfrwt beam="2">  1       21 0.26212473E+00 0.24041517E+03</pdfrwt>
<totfact> 0.52309898E+03</totfact>
</mgrwt>
</event>
<event>
 4    3  0.3906307E+000  0.2348458E+03  0.7546771E-02  0.1123275E+00
         21   -1    0    0  501  502  0.00000000000E+00  0.00000000000E+00  0.14507318725E+03  0.14507318725E+03  0.00000000000E+00 0. -1.
         21   -1    0    0  502  503 -0.00000000000E+00 -0.00000000000E+00 -0.53108657323E+03  0.53108657323E+03  0.00000000000E+00 0.  1.
          6    1    1    2  501    0  0.15059588598E+03 -0.50442382611E+02 -0.12786136296E+02  0.23519362262E+03  0.17300000000E+03 0. -1.
         -6    1    1    2    0  503 -0.15059588598E+03  0.50442382611E+02 -0.37322724968E+03  0.44096613787E+03  0.17300000000E+03 0.  1.
<mgrwt>
<rscale>  2 0.23484581E+03</rscale>
<asrwt>0</asrwt>
<pdfrwt beam="1">  1       21 0.22318952E-01 0.23484581E+03</pdfrwt>
<pdfrwt beam="2">  1       21 0.81705626E-01 0.23484581E+03</pdfrwt>
<totfact> 0.24064826E+04</totfact>
</mgrwt>
</event>
<event>
 4    3  0.3906307E+000  0.2335892E+03  0.7546771E-02  0.1124139E+00
         21   -1    0    0  503  502  0.00000000000E+00  0.00000000000E+00  0.54357157868E+02  0.54357157868E+02  0.00000000000E+00 0.  1.
         21   -1    0    0  501  503 -0.00000000000E+00 -0.00000000000E+00 -0.15975525989E+04  0.15975525989E+04  0.00000000000E+00 0.  1.
          6    1    1    2  501    0  0.12701487320E+03  0.92207106894E+02 -0.12751331863E+04  0.12963520245E+04  0.17300000000E+03 0.  1.
         -6    1    1    2    0  502 -0.12701487320E+03 -0.92207106894E+02 -0.26806225473E+03  0.35555773229E+03  0.17300000000E+03 0.  1.
<mgrwt>
<rscale>  2 0.23358923E+03</rscale>
<asrwt>0</asrwt>
<pdfrwt beam="1">  1       21 0.83626399E-02 0.23358923E+03</pdfrwt>
<pdfrwt beam="2">  1       21 0.24577731E+00 0.23358923E+03</pdfrwt>
<totfact> 0.75358782E+03</totfact>
</mgrwt>
</event>
<event>
 4    3  0.3906307E+000  0.1798537E+03  0.7546771E-02  0.1167945E+00
         21   -1    0    0  501  502  0.00000000000E+00  0.00000000000E+00  0.45935993128E+03  0.45935993128E+03  0.00000000000E+00 0. -1.
         21   -1    0    0  502  503 -0.00000000000E+00 -0.00000000000E+00 -0.14110444635E+03  0.14110444635E+03  0.00000000000E+00 0.  1.
          6    1    1    2  501    0 -0.42681109588E+02 -0.24427196515E+02  0.37162529122E+03  0.41285920375E+03  0.17300000000E+03 0. -1.
         -6    1    1    2    0  503  0.42681109588E+02  0.24427196515E+02 -0.53369806281E+02  0.18760517388E+03  0.17300000000E+03 0.  1.
<mgrwt>
<rscale>  2 0.17985373E+03</rscale>
<asrwt>0</asrwt>
<pdfrwt beam="1">  1       21 0.70670758E-01 0.17985373E+03</pdfrwt>
<pdfrwt beam="2">  1       21 0.21708377E-01 0.17985373E+03</pdfrwt>
<totfact> 0.36154366E+04</totfact>
</mgrwt>
</event>
<event>
 4    3  0.3906307E+000  0.6310259E+03  0.7546771E-02  0.9843049E-01
         21   -1    0    0  503  502  0.00000000000E+00  0.00000000000E+00  0.50774183284E+03  0.50774183284E+03  0.00000000000E+00 0. -1.
         21   -1    0    0  501  503 -0.00000000000E+00 -0.00000000000E+00 -0.11314139612E+04  0.11314139612E+04  0.00000000000E+00 0.  1.
          6    1    1    2  501    0  0.32493953800E+03  0.51252213439E+03 -0.76583031114E+03  0.99231532643E+03  0.17300000000E+03 0.  1.
         -6    1    1    2    0  502 -0.32493953800E+03 -0.51252213439E+03  0.14215818280E+03  0.64684046761E+03  0.17300000000E+03 0. -1.
<mgrwt>
<rscale>  2 0.63102586E+03</rscale>
<asrwt>0</asrwt>
<pdfrwt beam="1">  1       21 0.78114128E-01 0.63102586E+03</pdfrwt>
<pdfrwt beam="2">  1       21 0.17406369E+00 0.63102586E+03</pdfrwt>
<totfact> 0.21915847E+02</totfact>
</mgrwt>
</event>
<event>
 4    3  0.3906307E+000  0.2514782E+03  0.7546771E-02  0.1112374E+00
         21   -1    0    0  503  502  0.00000000000E+00  0.00000000000E+00  0.72709293848E+03  0.72709293848E+03  0.00000000000E+00 0. -1.
         21   -1    0    0  501  503 -0.00000000000E+00 -0.00000000000E+00 -0.89071305297E+02  0.89071305297E+02  0.00000000000E+00 0. -1.
          6    1    1    2  501    0 -0.76126150494E+01  0.18235777097E+03  0.25645557460E+03  0.35918069308E+03  0.17300000000E+03 0. -1.
         -6    1    1    2    0  502  0.76126150494E+01 -0.18235777097E+03  0.38156605858E+03  0.45698355069E+03  0.17300000000E+03 0. -1.
<mgrwt>
<rscale>  2 0.25147825E+03</rscale>
<asrwt>0</asrwt>
<pdfrwt beam="1">  1       21 0.11186045E+00 0.25147825E+03</pdfrwt>
<pdfrwt beam="2">  1       21 0.13703278E-01 0.25147825E+03</pdfrwt>
<totfact> 0.28086761E+04</totfact>
</mgrwt>
</event>
<event>
 4    3  0.3906307E+000  0.2239014E+03  0.7546771E-02  0.1131007E+00
         21   -1    0    0  501  502  0.00000000000E+00  0.00000000000E+00  0.74221818419E+02  0.74221818419E+02  0.00000000000E+00 0. -1.
         21   -1    0    0  502  503 -0.00000000000E+00 -0.00000000000E+00 -0.68832243316E+03  0.68832243316E+03  0.00000000000E+00 0.  1.
          6    1    1    2  501    0 -0.65319066326E+02 -0.12623884680E+03 -0.25487502987E+03  0.33925375122E+03  0.17300000000E+03 0. -1.
         -6    1    1    2    0  503  0.65319066326E+02  0.12623884680E+03 -0.35922558487E+03  0.42329050036E+03  0.17300000000E+03 0.  1.
<mgrwt>
<rscale>  2 0.22390138E+03</rscale>
<asrwt>0</asrwt>
<pdfrwt beam="1">  1       21 0.11418741E-01 0.22390138E+03</pdfrwt>
<pdfrwt beam="2">  1       21 0.10589576E+00 0.22390138E+03</pdfrwt>
<totfact> 0.45175532E+04</totfact>
</mgrwt>
</event>
<event>
 4    3  0.3906307E+000  0.1748383E+03  0.7546771E-02  0.1172894E+00
         21   -1    0    0  501  502  0.00000000000E+00  0.00000000000E+00  0.38475684820E+03  0.38475684820E+03  0.00000000000E+00 0. -1.
         21   -1    0    0  502  503 -0.00000000000E+00 -0.00000000000E+00 -0.88862486010E+02  0.88862486010E+02  0.00000000000E+00 0. -1.
          6    1    1    2  501    0 -0.18759589008E+02  0.16956206005E+02  0.22502370804E+03  0.28496333849E+03  0.17300000000E+03 0. -1.
         -6    1    1    2    0  503  0.18759589008E+02 -0.16956206005E+02  0.70870654145E+02  0.18865599572E+03  0.17300000000E+03 0. -1.
<mgrwt>
<rscale>  2 0.17483831E+03</rscale>
<asrwt>0</asrwt>
<pdfrwt beam="1">  1       21 0.59193360E-01 0.17483831E+03</pdfrwt>
<pdfrwt beam="2">  1       21 0.13671152E-01 0.17483831E+03</pdfrwt>
<totfact> 0.12461197E+05</totfact>
</mgrwt>
</event>
<event>
 4    3  0.3906307E+000  0.1844097E+03  0.7546771E-02  0.1163602E+00
         21   -1    0    0  501  502  0.00000000000E+00  0.00000000000E+00  0.69541124471E+02  0.69541124471E+02  0.00000000000E+00 0. -1.
         21   -1    0    0  502  503 -0.00000000000E+00 -0.00000000000E+00 -0.49099142076E+03  0.49099142076E+03  0.00000000000E+00 0. -1.
          6    1    1    2  501    0  0.59532422677E+02  0.23104326497E+02 -0.22848962813E+03  0.29362293748E+03  0.17300000000E+03 0.  1.
         -6    1    1    2    0  503 -0.59532422677E+02 -0.23104326497E+02 -0.19296066816E+03  0.26690960775E+03  0.17300000000E+03 0.  1.
<mgrwt>
<rscale>  2 0.18440965E+03</rscale>
<asrwt>0</asrwt>
<pdfrwt beam="1">  1       21 0.10698635E-01 0.18440965E+03</pdfrwt>
<pdfrwt beam="2">  1       21 0.75537140E-01 0.18440965E+03</pdfrwt>
<totfact> 0.11301146E+05</totfact>
</mgrwt>
</event>
<event>
 4    3  0.3906307E+000  0.2268004E+03  0.7546771E-02  0.1128912E+00
         21   -1    0    0  501  502  0.00000000000E+00  0.00000000000E+00  0.14712875458E+04  0.14712875458E+04  0.00000000000E+00 0.  1.
         21   -1    0    0  502  503 -0.00000000000E+00 -0.00000000000E+00 -0.37486048706E+02  0.37486048706E+02  0.00000000000E+00 0. -1.
          6    1    1    2  501    0  0.42717857767E+02  0.14030178128E+03  0.91267337222E+03  0.94043133166E+03  0.17300000000E+03 0.  1.
         -6    1    1    2    0  503 -0.42717857767E+02 -0.14030178128E+03  0.52112812484E+03  0.56834226281E+03  0.17300000000E+03 0. -1.
<mgrwt>
<rscale>  2 0.22680036E+03</rscale>
<asrwt>0</asrwt>
<pdfrwt beam="1">  1       21 0.22635188E+00 0.22680036E+03</pdfrwt>
<pdfrwt beam="2">  1       21 0.57670856E-02 0.22680036E+03</pdfrwt>
<totfact> 0.18902180E+04</totfact>
</mgrwt>
</event>
<event>
 4    3  0.3906307E+000  0.1811119E+03  0.7546771E-02  0.1166731E+00
         21   -1    0    0  501  502  0.00000000000E+00  0.00000000000E+00  0.32727031932E+03  0.32727031932E+03  0.00000000000E+00 0. -1.
         21   -1    0    0  502  503 -0.00000000000E+00 -0.00000000000E+00 -0.10145766617E+03  0.10145766617E+03  0.00000000000E+00 0. -1.
          6    1    1    2  501    0  0.14681184202E+02 -0.51545854212E+02  0.13650986387E+03  0.22679606520E+03  0.17300000000E+03 0. -1.
         -6    1    1    2    0  503 -0.14681184202E+02  0.51545854212E+02  0.89302789283E+02  0.20193192028E+03  0.17300000000E+03 0. -1.
<mgrwt>
<rscale>  2 0.18111188E+03</rscale>
<asrwt>0</asrwt>
<pdfrwt beam="1">  1       21 0.50349280E-01 0.18111188E+03</pdfrwt>
<pdfrwt beam="2">  1       21 0.15608872E-01 0.18111188E+03</pdfrwt>
<totfact> 0.13754246E+05</totfact>
</mgrwt>
</event>
<event>
 4    3  0.3906307E+000  0.1999168E+03  0.7546771E-02  0.1149809E+00
         21   -1    0    0  503  502  0.00000000000E+00  0.00000000000E+00  0.58836049291E+02  0.58836049291E+02  0.00000000000E+00 0.  1.
         21   -1    0    0  501  503 -0.00000000000E+00 -0.00000000000E+00 -0.70090838931E+03  0.70090838931E+03  0.00000000000E+00 0. -1.
          6    1    1    2  501    0  0.93613465952E+02  0.35696369436E+02 -0.25432118804E+03  0.32349030663E+03  0.17300000000E+03 0. -1.
         -6    1    1    2    0  502 -0.93613465952E+02 -0.35696369436E+02 -0.38775115199E+03  0.43625413197E+03  0.17300000000E+03 0.  1.
<mgrwt>
<rscale>  2 0.19991676E+03</rscale>
<asrwt>0</asrwt>
<pdfrwt beam="1">  1       21 0.90516997E-02 0.19991676E+03</pdfrwt>
<pdfrwt beam="2">  1       21 0.10783206E+00 0.19991676E+03</pdfrwt>
<totfact> 0.66035993E+04</totfact>
</mgrwt>
</event>
<event>
 4    3  0.3906307E+000  0.3835973E+03  0.7546771E-02  0.1049612E+00
         21   -1    0    0  503  502  0.00000000000E+00  0.00000000000E+00  0.15005452804E+04  0.15005452804E+04  0.00000000000E+00 0. -1.
         21   -1    0    0  501  503 -0.00000000000E+00 -0.00000000000E+00 -0.11655491994E+03  0.11655491994E+03  0.00000000000E+00 0.  1.
          6    1    1    2  501    0 -0.21176268825E+03 -0.26902494814E+03  0.36993180361E+03  0.53291312442E+03  0.17300000000E+03 0.  1.
         -6    1    1    2    0  502  0.21176268825E+03  0.26902494814E+03  0.10140585569E+04  0.10841870759E+04  0.17300000000E+03 0.  1.
<mgrwt>
<rscale>  2 0.38359726E+03</rscale>
<asrwt>0</asrwt>
<pdfrwt beam="1">  1       21 0.23085311E+00 0.38359726E+03</pdfrwt>
<pdfrwt beam="2">  1       21 0.17931527E-01 0.38359726E+03</pdfrwt>
<totfact> 0.21149271E+03</totfact>
</mgrwt>
</event>
<event>
 4    3  0.3906307E+000  0.2108016E+03  0.7546771E-02  0.1140933E+00
         21   -1    0    0  501  502  0.00000000000E+00  0.00000000000E+00  0.50497000872E+02  0.50497000872E+02  0.00000000000E+00 0. -1.
         21   -1    0    0  502  503 -0.00000000000E+00 -0.00000000000E+00 -0.10477927150E+04  0.10477927150E+04  0.00000000000E+00 0. -1.
          6    1    1    2  501    0  0.34021389122E+02  0.11554597910E+03 -0.27889394293E+03  0.34959856923E+03  0.17300000000E+03 0. -1.
         -6    1    1    2    0  503 -0.34021389122E+02 -0.11554597910E+03 -0.71840177120E+03  0.74869114665E+03  0.17300000000E+03 0. -1.
<mgrwt>
<rscale>  2 0.21080163E+03</rscale>
<asrwt>0</asrwt>
<pdfrwt beam="1">  1       21 0.77687696E-02 0.21080163E+03</pdfrwt>
<pdfrwt beam="2">  1       21 0.16119888E+00 0.21080163E+03</pdfrwt>
<totfact> 0.30795037E+04</totfact>
</mgrwt>
</event>
<event>
 4    3  0.3906307E+000  0.2515915E+03  0.7546771E-02  0.1112303E+00
         21   -1    0    0  503  502  0.00000000000E+00  0.00000000000E+00  0.12327359895E+03  0.12327359895E+03  0.00000000000E+00 0.  1.
         21   -1    0    0  501  503 -0.00000000000E+00 -0.00000000000E+00 -0.14251384975E+04  0.14251384975E+04  0.00000000000E+00 0. -1.
          6    1    1    2  501    0  0.17963283531E+03  0.33185887100E+02 -0.31712933135E+02  0.25358227215E+03  0.17300000000E+03 0.  1.
         -6    1    1    2    0  502 -0.17963283531E+03 -0.33185887100E+02 -0.12701519654E+04  0.12948298243E+04  0.17300000000E+03 0. -1.
<mgrwt>
<rscale>  2 0.25159145E+03</rscale>
<asrwt>0</asrwt>
<pdfrwt beam="1">  1       21 0.18965168E-01 0.25159145E+03</pdfrwt>
<pdfrwt beam="2">  1       21 0.21925209E+00 0.25159145E+03</pdfrwt>
<totfact> 0.24522762E+03</totfact>
</mgrwt>
</event>
<event>
 4    3  0.3906307E+000  0.2028863E+03  0.7546771E-02  0.1147326E+00
         21   -1    0    0  503  502  0.00000000000E+00  0.00000000000E+00  0.24736035722E+03  0.24736035722E+03  0.00000000000E+00 0. -1.
         21   -1    0    0  501  503 -0.00000000000E+00 -0.00000000000E+00 -0.41142348779E+03  0.41142348779E+03  0.00000000000E+00 0.  1.
          6    1    1    2  501    0  0.74478456944E+02 -0.75410989580E+02 -0.33622525140E+03  0.39269616445E+03  0.17300000000E+03 0.  1.
         -6    1    1    2    0  502 -0.74478456944E+02  0.75410989580E+02  0.17216212083E+03  0.26608768056E+03  0.17300000000E+03 0. -1.
<mgrwt>
<rscale>  2 0.20288632E+03</rscale>
<asrwt>0</asrwt>
<pdfrwt beam="1">  1       21 0.38055439E-01 0.20288632E+03</pdfrwt>
<pdfrwt beam="2">  1       21 0.63295921E-01 0.20288632E+03</pdfrwt>
<totfact> 0.15275513E+04</totfact>
</mgrwt>
</event>
<event>
 4    3  0.3906307E+000  0.2460741E+03  0.7546771E-02  0.1115811E+00
         21   -1    0    0  503  502  0.00000000000E+00  0.00000000000E+00  0.20240730948E+03  0.20240730948E+03  0.00000000000E+00 0. -1.
         21   -1    0    0  501  503 -0.00000000000E+00 -0.00000000000E+00 -0.30917046971E+03  0.30917046971E+03  0.00000000000E+00 0.  1.
          6    1    1    2  501    0  0.13895084546E+03 -0.10637737974E+03 -0.99404724060E+02  0.26539363885E+03  0.17300000000E+03 0. -1.
         -6    1    1    2    0  502 -0.13895084546E+03  0.10637737974E+03 -0.73584361760E+01  0.24618414035E+03  0.17300000000E+03 0.  1.
<mgrwt>
<rscale>  2 0.24607414E+03</rscale>
<asrwt>0</asrwt>
<pdfrwt beam="1">  1       21 0.31139586E-01 0.24607414E+03</pdfrwt>
<pdfrwt beam="2">  1       21 0.47564687E-01 0.24607414E+03</pdfrwt>
<totfact> 0.40840215E+04</totfact>
</mgrwt>
</event>
<event>
 4    3  0.3906307E+000  0.2088743E+03  0.7546771E-02  0.1142461E+00
         21   -1    0    0  503  502  0.00000000000E+00  0.00000000000E+00  0.19792243631E+03  0.19792243631E+03  0.00000000000E+00 0. -1.
         21   -1    0    0  501  503 -0.00000000000E+00 -0.00000000000E+00 -0.45953614364E+03  0.45953614364E+03  0.00000000000E+00 0. -1.
          6    1    1    2  501    0 -0.72428966209E+02  0.91942942478E+02 -0.36792894537E+03  0.42308411534E+03  0.17300000000E+03 0. -1.
         -6    1    1    2    0  502  0.72428966209E+02 -0.91942942478E+02  0.10631523804E+03  0.23437446460E+03  0.17300000000E+03 0. -1.
<mgrwt>
<rscale>  2 0.20887427E+03</rscale>
<asrwt>0</asrwt>
<pdfrwt beam="1">  1       21 0.30449606E-01 0.20887427E+03</pdfrwt>
<pdfrwt beam="2">  1       21 0.70697868E-01 0.20887427E+03</pdfrwt>
<totfact> 0.18580504E+04</totfact>
</mgrwt>
</event>
<event>
 4    3  0.3906307E+000  0.3377562E+03  0.7546771E-02  0.1067756E+00
         21   -1    0    0  501  502  0.00000000000E+00  0.00000000000E+00  0.98813655624E+03  0.98813655624E+03  0.00000000000E+00 0. -1.
         21   -1    0    0  502  503 -0.00000000000E+00 -0.00000000000E+00 -0.11677177665E+03  0.11677177665E+03  0.00000000000E+00 0.  1.
          6    1    1    2  501    0  0.12206609497E+03 -0.26315413270E+03  0.49448480785E+03  0.59882756641E+03  0.17300000000E+03 0. -1.
         -6    1    1    2    0  503 -0.12206609497E+03  0.26315413270E+03  0.37687997174E+03  0.50608076648E+03  0.17300000000E+03 0.  1.
<mgrwt>
<rscale>  2 0.33775617E+03</rscale>
<asrwt>0</asrwt>
<pdfrwt beam="1">  1       21 0.15202100E+00 0.33775617E+03</pdfrwt>
<pdfrwt beam="2">  1       21 0.17964889E-01 0.33775617E+03</pdfrwt>
<totfact> 0.74472265E+03</totfact>
</mgrwt>
</event>
<event>
 4    3  0.3906307E+000  0.2211815E+03  0.7546771E-02  0.1133005E+00
         21   -1    0    0  503  502  0.00000000000E+00  0.00000000000E+00  0.10301867281E+04  0.10301867281E+04  0.00000000000E+00 0.  1.
         21   -1    0    0  501  503 -0.00000000000E+00 -0.00000000000E+00 -0.60999916206E+02  0.60999916206E+02  0.00000000000E+00 0.  1.
          6    1    1    2  501    0 -0.72951513849E+02 -0.11692015833E+03  0.22780999526E+03  0.31751951237E+03  0.17300000000E+03 0.  1.
         -6    1    1    2    0  502  0.72951513849E+02  0.11692015833E+03  0.74137681666E+03  0.77366713196E+03  0.17300000000E+03 0.  1.
<mgrwt>
<rscale>  2 0.22118148E+03</rscale>
<asrwt>0</asrwt>
<pdfrwt beam="1">  1       21 0.15849025E+00 0.22118148E+03</pdfrwt>
<pdfrwt beam="2">  1       21 0.93846033E-02 0.22118148E+03</pdfrwt>
<totfact> 0.23005311E+04</totfact>
</mgrwt>
</event>
<event>
 4    3  0.3906307E+000  0.2238142E+03  0.7546771E-02  0.1131071E+00
         21   -1    0    0  501  502  0.00000000000E+00  0.00000000000E+00  0.12921450054E+03  0.12921450054E+03  0.00000000000E+00 0. -1.
         21   -1    0    0  502  503 -0.00000000000E+00 -0.00000000000E+00 -0.39211091546E+03  0.39211091546E+03  0.00000000000E+00 0.  1.
          6    1    1    2  501    0  0.10432194074E+03 -0.96336599367E+02 -0.10371331027E+03  0.24667642454E+03  0.17300000000E+03 0. -1.
         -6    1    1    2    0  503 -0.10432194074E+03  0.96336599367E+02 -0.15918310465E+03  0.27464899145E+03  0.17300000000E+03 0.  1.
<mgrwt>
<rscale>  2 0.22381423E+03</rscale>
<asrwt>0</asrwt>
<pdfrwt beam="1">  1       21 0.19879154E-01 0.22381423E+03</pdfrwt>
<pdfrwt beam="2">  1       21 0.60324756E-01 0.22381423E+03</pdfrwt>
<totfact> 0.58955262E+04</totfact>
</mgrwt>
</event>
<event>
 4    3  0.3906307E+000  0.1858418E+03  0.7546771E-02  0.1162266E+00
         21   -1    0    0  503  502  0.00000000000E+00  0.00000000000E+00  0.14136104040E+03  0.14136104040E+03  0.00000000000E+00 0. -1.
         21   -1    0    0  501  503 -0.00000000000E+00 -0.00000000000E+00 -0.30595098301E+03  0.30595098301E+03  0.00000000000E+00 0. -1.
          6    1    1    2  501    0  0.46265092354E+02  0.49676270413E+02  0.18087447457E+02  0.18671996778E+03  0.17300000000E+03 0. -1.
         -6    1    1    2    0  502 -0.46265092354E+02 -0.49676270413E+02 -0.18267739008E+03  0.26059205563E+03  0.17300000000E+03 0. -1.
<mgrwt>
<rscale>  2 0.18584184E+03</rscale>
<asrwt>0</asrwt>
<pdfrwt beam="1">  1       21 0.21747852E-01 0.18584184E+03</pdfrwt>
<pdfrwt beam="2">  1       21 0.47069382E-01 0.18584184E+03</pdfrwt>
<totfact> 0.85439890E+04</totfact>
</mgrwt>
</event>
<event>
 4    3  0.3906307E+000  0.2233555E+03  0.7546771E-02  0.1131406E+00
         21   -1    0    0  503  502  0.00000000000E+00  0.00000000000E+00  0.37075750875E+03  0.37075750875E+03  0.00000000000E+00 0. -1.
         21   -1    0    0  501  503 -0.00000000000E+00 -0.00000000000E+00 -0.13754937051E+03  0.13754937051E+03  0.00000000000E+00 0.  1.
          6    1    1    2  501    0 -0.10853669774E+03 -0.90434862404E+02  0.15409625095E+03  0.27135462711E+03  0.17300000000E+03 0.  1.
         -6    1    1    2    0  502  0.10853669774E+03  0.90434862404E+02  0.79111887287E+02  0.23695225216E+03  0.17300000000E+03 0. -1.
<mgrwt>
<rscale>  2 0.22335550E+03</rscale>
<asrwt>0</asrwt>
<pdfrwt beam="1">  1       21 0.57039616E-01 0.22335550E+03</pdfrwt>
<pdfrwt beam="2">  1       21 0.21161442E-01 0.22335550E+03</pdfrwt>
<totfact> 0.59131690E+04</totfact>
</mgrwt>
</event>
<event>
 4    3  0.3906307E+000  0.1810345E+03  0.7546771E-02  0.1166806E+00
         21   -1    0    0  501  502  0.00000000000E+00  0.00000000000E+00  0.24597679499E+03  0.24597679499E+03  0.00000000000E+00 0. -1.
         21   -1    0    0  502  503 -0.00000000000E+00 -0.00000000000E+00 -0.42829321444E+03  0.42829321444E+03  0.00000000000E+00 0. -1.
          6    1    1    2  501    0 -0.21942369386E+02 -0.48610837397E+02  0.18866570201E+03  0.26147318831E+03  0.17300000000E+03 0. -1.
         -6    1    1    2    0  503  0.21942369386E+02  0.48610837397E+02 -0.37098212146E+03  0.41279682113E+03  0.17300000000E+03 0. -1.
<mgrwt>
<rscale>  2 0.18103447E+03</rscale>
<asrwt>0</asrwt>
<pdfrwt beam="1">  1       21 0.37842584E-01 0.18103447E+03</pdfrwt>
<pdfrwt beam="2">  1       21 0.65891264E-01 0.18103447E+03</pdfrwt>
<totfact> 0.14355371E+04</totfact>
</mgrwt>
</event>
<event>
 4    3  0.3906307E+000  0.2619011E+03  0.7546771E-02  0.1106006E+00
         21   -1    0    0  501  502  0.00000000000E+00  0.00000000000E+00  0.22313094718E+03  0.22313094718E+03  0.00000000000E+00 0. -1.
         21   -1    0    0  502  503 -0.00000000000E+00 -0.00000000000E+00 -0.49391087357E+03  0.49391087357E+03  0.00000000000E+00 0. -1.
          6    1    1    2  501    0  0.14555243034E+03 -0.13220313320E+03 -0.35569948750E+03  0.44171744794E+03  0.17300000000E+03 0. -1.
         -6    1    1    2    0  503 -0.14555243034E+03  0.13220313320E+03  0.84919561111E+02  0.27532437281E+03  0.17300000000E+03 0. -1.
<mgrwt>
<rscale>  2 0.26190109E+03</rscale>
<asrwt>0</asrwt>
<pdfrwt beam="1">  1       21 0.34327838E-01 0.26190109E+03</pdfrwt>
<pdfrwt beam="2">  1       21 0.75986288E-01 0.26190109E+03</pdfrwt>
<totfact> 0.12122335E+04</totfact>
</mgrwt>
</event>
<event>
 4    3  0.3906307E+000  0.1828091E+03  0.7546771E-02  0.1165112E+00
         21   -1    0    0  501  502  0.00000000000E+00  0.00000000000E+00  0.49927736550E+03  0.49927736550E+03  0.00000000000E+00 0. -1.
         21   -1    0    0  502  503 -0.00000000000E+00 -0.00000000000E+00 -0.84130002406E+02  0.84130002406E+02  0.00000000000E+00 0. -1.
          6    1    1    2  501    0  0.49360259527E+02  0.32461447844E+02  0.33944984677E+03  0.38554556059E+03  0.17300000000E+03 0. -1.
         -6    1    1    2    0  503 -0.49360259527E+02 -0.32461447844E+02  0.75697516319E+02  0.19786180731E+03  0.17300000000E+03 0. -1.
<mgrwt>
<rscale>  2 0.18280914E+03</rscale>
<asrwt>0</asrwt>
<pdfrwt beam="1">  1       21 0.76811900E-01 0.18280914E+03</pdfrwt>
<pdfrwt beam="2">  1       21 0.12943078E-01 0.18280914E+03</pdfrwt>
<totfact> 0.77543568E+04</totfact>
</mgrwt>
</event>
<event>
 4    3  0.3906307E+000  0.2797708E+03  0.7546771E-02  0.1095814E+00
         21   -1    0    0  501  502  0.00000000000E+00  0.00000000000E+00  0.40941024047E+03  0.40941024047E+03  0.00000000000E+00 0. -1.
         21   -1    0    0  502  503 -0.00000000000E+00 -0.00000000000E+00 -0.19340523548E+03  0.19340523548E+03  0.00000000000E+00 0. -1.
          6    1    1    2  501    0  0.15854540186E+03 -0.15233533168E+03  0.14032119449E+03  0.31298839492E+03  0.17300000000E+03 0. -1.
         -6    1    1    2    0  503 -0.15854540186E+03  0.15233533168E+03  0.75683810502E+02  0.28982708104E+03  0.17300000000E+03 0. -1.
<mgrwt>
<rscale>  2 0.27977079E+03</rscale>
<asrwt>0</asrwt>
<pdfrwt beam="1">  1       21 0.62986191E-01 0.27977079E+03</pdfrwt>
<pdfrwt beam="2">  1       21 0.29754652E-01 0.27977079E+03</pdfrwt>
<totfact> 0.24200989E+04</totfact>
</mgrwt>
</event>
<event>
 4    3  0.3906307E+000  0.1824456E+03  0.7546771E-02  0.1165457E+00
         21   -1    0    0  503  502  0.00000000000E+00  0.00000000000E+00  0.37702760222E+03  0.37702760222E+03  0.00000000000E+00 0.  1.
         21   -1    0    0  501  503 -0.00000000000E+00 -0.00000000000E+00 -0.23896290780E+03  0.23896290780E+03  0.00000000000E+00 0.  1.
          6    1    1    2  501    0 -0.42719962098E+02  0.39145695194E+02 -0.17553679642E+03  0.25317888441E+03  0.17300000000E+03 0.  1.
         -6    1    1    2    0  502  0.42719962098E+02 -0.39145695194E+02  0.31360149085E+03  0.36281162561E+03  0.17300000000E+03 0.  1.
<mgrwt>
<rscale>  2 0.18244556E+03</rscale>
<asrwt>0</asrwt>
<pdfrwt beam="1">  1       21 0.58004247E-01 0.18244556E+03</pdfrwt>
<pdfrwt beam="2">  1       21 0.36763524E-01 0.18244556E+03</pdfrwt>
<totfact> 0.20000091E+04</totfact>
</mgrwt>
</event>
<event>
 4    3  0.3906307E+000  0.1827286E+03  0.7546771E-02  0.1165188E+00
         21   -1    0    0  501  502  0.00000000000E+00  0.00000000000E+00  0.21161634378E+03  0.21161634378E+03  0.00000000000E+00 0.  1.
         21   -1    0    0  502  503 -0.00000000000E+00 -0.00000000000E+00 -0.15782248522E+03  0.15782248522E+03  0.00000000000E+00 0.  1.
          6    1    1    2  501    0  0.28028554723E+02 -0.51721937611E+02  0.24027584654E+02  0.18430161023E+03  0.17300000000E+03 0.  1.
         -6    1    1    2    0  503 -0.28028554723E+02  0.51721937611E+02  0.29766273913E+02  0.18513721877E+03  0.17300000000E+03 0.  1.
<mgrwt>
<rscale>  2 0.18272865E+03</rscale>
<asrwt>0</asrwt>
<pdfrwt beam="1">  1       21 0.32556361E-01 0.18272865E+03</pdfrwt>
<pdfrwt beam="2">  1       21 0.24280382E-01 0.18272865E+03</pdfrwt>
<totfact> 0.14586484E+05</totfact>
</mgrwt>
</event>
<event>
 4    3  0.3906307E+000  0.2286011E+03  0.7546771E-02  0.1127628E+00
         21   -1    0    0  503  502  0.00000000000E+00  0.00000000000E+00  0.10230093784E+03  0.10230093784E+03  0.00000000000E+00 0.  1.
         21   -1    0    0  501  503 -0.00000000000E+00 -0.00000000000E+00 -0.77938345495E+03  0.77938345495E+03  0.00000000000E+00 0. -1.
          6    1    1    2  501    0  0.93633789668E+01  0.14913683141E+03 -0.59731625534E+03  0.63956639705E+03  0.17300000000E+03 0. -1.
         -6    1    1    2    0  502 -0.93633789668E+01 -0.14913683141E+03 -0.79766261775E+02  0.24211799575E+03  0.17300000000E+03 0.  1.
<mgrwt>
<rscale>  2 0.22860111E+03</rscale>
<asrwt>0</asrwt>
<pdfrwt beam="1">  1       21 0.15738605E-01 0.22860111E+03</pdfrwt>
<pdfrwt beam="2">  1       21 0.11990515E+00 0.22860111E+03</pdfrwt>
<totfact> 0.18597988E+04</totfact>
</mgrwt>
</event>
<event>
 4    3  0.3906307E+000  0.1884917E+03  0.7546771E-02  0.1159829E+00
         21   -1    0    0  501  502  0.00000000000E+00  0.00000000000E+00  0.24455945602E+03  0.24455945602E+03  0.00000000000E+00 0. -1.
         21   -1    0    0  502  503 -0.00000000000E+00 -0.00000000000E+00 -0.36414970311E+03  0.36414970311E+03  0.00000000000E+00 0. -1.
          6    1    1    2  501    0  0.57824183518E+02 -0.47502632342E+02  0.17616279548E+03  0.25799702865E+03  0.17300000000E+03 0. -1.
         -6    1    1    2    0  503 -0.57824183518E+02  0.47502632342E+02 -0.29575304257E+03  0.35071213048E+03  0.17300000000E+03 0. -1.
<mgrwt>
<rscale>  2 0.18849174E+03</rscale>
<asrwt>0</asrwt>
<pdfrwt beam="1">  1       21 0.37624532E-01 0.18849174E+03</pdfrwt>
<pdfrwt beam="2">  1       21 0.56023031E-01 0.18849174E+03</pdfrwt>
<totfact> 0.20487037E+04</totfact>
</mgrwt>
</event>
<event>
 4    3  0.3906307E+000  0.1882790E+03  0.7546771E-02  0.1160023E+00
         21   -1    0    0  503  502  0.00000000000E+00  0.00000000000E+00  0.23291998862E+03  0.23291998862E+03  0.00000000000E+00 0. -1.
         21   -1    0    0  501  503 -0.00000000000E+00 -0.00000000000E+00 -0.17907460264E+03  0.17907460264E+03  0.00000000000E+00 0. -1.
          6    1    1    2  501    0 -0.18110570980E+02 -0.72055567425E+02 -0.52888713369E+02  0.19556639174E+03  0.17300000000E+03 0. -1.
         -6    1    1    2    0  502  0.18110570980E+02  0.72055567425E+02  0.10673409935E+03  0.21642819951E+03  0.17300000000E+03 0. -1.
<mgrwt>
<rscale>  2 0.18827904E+03</rscale>
<asrwt>0</asrwt>
<pdfrwt beam="1">  1       21 0.35833844E-01 0.18827904E+03</pdfrwt>
<pdfrwt beam="2">  1       21 0.27549939E-01 0.18827904E+03</pdfrwt>
<totfact> 0.94561735E+04</totfact>
</mgrwt>
</event>
<event>
 4    3  0.3906307E+000  0.1765205E+03  0.7546771E-02  0.1171214E+00
         21   -1    0    0  503  502  0.00000000000E+00  0.00000000000E+00  0.40239149311E+03  0.40239149311E+03  0.00000000000E+00 0.  1.
         21   -1    0    0  501  503 -0.00000000000E+00 -0.00000000000E+00 -0.78093713452E+02  0.78093713452E+02  0.00000000000E+00 0.  1.
          6    1    1    2  501    0 -0.27053439903E+02  0.22329083237E+02  0.14009671231E+03  0.22535874816E+03  0.17300000000E+03 0. -1.
         -6    1    1    2    0  502  0.27053439903E+02 -0.22329083237E+02  0.18420106734E+03  0.25512645840E+03  0.17300000000E+03 0. -1.
<mgrwt>
<rscale>  2 0.17652047E+03</rscale>
<asrwt>0</asrwt>
<pdfrwt beam="1">  1       21 0.61906382E-01 0.17652047E+03</pdfrwt>
<pdfrwt beam="2">  1       21 0.12014418E-01 0.17652047E+03</pdfrwt>
<totfact> 0.14262916E+05</totfact>
</mgrwt>
</event>
<event>
 4    3  0.3906307E+000  0.1836861E+03  0.7546771E-02  0.1164283E+00
         21   -1    0    0  501  502  0.00000000000E+00  0.00000000000E+00  0.11514189587E+04  0.11514189587E+04  0.00000000000E+00 0. -1.
         21   -1    0    0  502  503 -0.00000000000E+00 -0.00000000000E+00 -0.32715274526E+02  0.32715274526E+02  0.00000000000E+00 0. -1.
          6    1    1    2  501    0  0.18102227897E+02 -0.59024586241E+02  0.36815243667E+03  0.41143263004E+03  0.17300000000E+03 0. -1.
         -6    1    1    2    0  503 -0.18102227897E+02  0.59024586241E+02  0.75055124751E+03  0.77270160320E+03  0.17300000000E+03 0. -1.
<mgrwt>
<rscale>  2 0.18368612E+03</rscale>
<asrwt>0</asrwt>
<pdfrwt beam="1">  1       21 0.17714135E+00 0.18368612E+03</pdfrwt>
<pdfrwt beam="2">  1       21 0.50331200E-02 0.18368612E+03</pdfrwt>
<totfact> 0.50904654E+04</totfact>
</mgrwt>
</event>
<event>
 4    3  0.3906307E+000  0.1928135E+03  0.7546771E-02  0.1155948E+00
         21   -1    0    0  501  502  0.00000000000E+00  0.00000000000E+00  0.10638977717E+03  0.10638977717E+03  0.00000000000E+00 0.  1.
         21   -1    0    0  502  503 -0.00000000000E+00 -0.00000000000E+00 -0.41822707559E+03  0.41822707559E+03  0.00000000000E+00 0. -1.
          6    1    1    2  501    0 -0.37006047385E+02  0.76672118732E+02 -0.49540327114E+02  0.19907612952E+03  0.17300000000E+03 0.  1.
         -6    1    1    2    0  503  0.37006047385E+02 -0.76672118732E+02 -0.26229697131E+03  0.32554072324E+03  0.17300000000E+03 0. -1.
<mgrwt>
<rscale>  2 0.19281354E+03</rscale>
<asrwt>0</asrwt>
<pdfrwt beam="1">  1       21 0.16367658E-01 0.19281354E+03</pdfrwt>
<pdfrwt beam="2">  1       21 0.64342627E-01 0.19281354E+03</pdfrwt>
<totfact> 0.74525580E+04</totfact>
</mgrwt>
</event>
<event>
 4    3  0.3906307E+000  0.1976589E+03  0.7546771E-02  0.1151729E+00
         21   -1    0    0  503  502  0.00000000000E+00  0.00000000000E+00  0.25398153872E+03  0.25398153872E+03  0.00000000000E+00 0. -1.
         21   -1    0    0  501  503 -0.00000000000E+00 -0.00000000000E+00 -0.72468593828E+03  0.72468593828E+03  0.00000000000E+00 0. -1.
          6    1    1    2  501    0  0.28441294579E+02  0.91275056490E+02 -0.66965727857E+03  0.69821910165E+03  0.17300000000E+03 0. -1.
         -6    1    1    2    0  502 -0.28441294579E+02 -0.91275056490E+02  0.19895287900E+03  0.28044837535E+03  0.17300000000E+03 0. -1.
<mgrwt>
<rscale>  2 0.19765891E+03</rscale>
<asrwt>0</asrwt>
<pdfrwt beam="1">  1       21 0.39074083E-01 0.19765891E+03</pdfrwt>
<pdfrwt beam="2">  1       21 0.11149014E+00 0.19765891E+03</pdfrwt>
<totfact> 0.39754523E+03</totfact>
</mgrwt>
</event>
<event>
 4    3  0.3906307E+000  0.1819912E+03  0.7546771E-02  0.1165890E+00
         21   -1    0    0  503  502  0.00000000000E+00  0.00000000000E+00  0.36016658837E+02  0.36016658837E+02  0.00000000000E+00 0.  1.
         21   -1    0    0  501  503 -0.00000000000E+00 -0.00000000000E+00 -0.92285978250E+03  0.92285978250E+03  0.00000000000E+00 0.  1.
          6    1    1    2  501    0  0.19428240997E+02 -0.53050187024E+02 -0.41491013534E+03  0.45306864744E+03  0.17300000000E+03 0.  1.
         -6    1    1    2    0  502 -0.19428240997E+02  0.53050187024E+02 -0.47193298833E+03  0.50580779389E+03  0.17300000000E+03 0.  1.
<mgrwt>
<rscale>  2 0.18199115E+03</rscale>
<asrwt>0</asrwt>
<pdfrwt beam="1">  1       21 0.55410246E-02 0.18199115E+03</pdfrwt>
<pdfrwt beam="2">  1       21 0.14197842E+00 0.18199115E+03</pdfrwt>
<totfact> 0.78354450E+04</totfact>
</mgrwt>
</event>
<event>
 4    3  0.3906307E+000  0.1922986E+03  0.7546771E-02  0.1156404E+00
         21   -1    0    0  503  502  0.00000000000E+00  0.00000000000E+00  0.98853179091E+02  0.98853179091E+02  0.00000000000E+00 0. -1.
         21   -1    0    0  501  503 -0.00000000000E+00 -0.00000000000E+00 -0.53844716714E+03  0.53844716714E+03  0.00000000000E+00 0. -1.
          6    1    1    2  501    0  0.49020290368E+02 -0.68167224223E+02 -0.39585400533E+03  0.44008993724E+03  0.17300000000E+03 0. -1.
         -6    1    1    2    0  502 -0.49020290368E+02  0.68167224223E+02 -0.43739982721E+02  0.19721040899E+03  0.17300000000E+03 0. -1.
<mgrwt>
<rscale>  2 0.19229862E+03</rscale>
<asrwt>0</asrwt>
<pdfrwt beam="1">  1       21 0.15208181E-01 0.19229862E+03</pdfrwt>
<pdfrwt beam="2">  1       21 0.82838027E-01 0.19229862E+03</pdfrwt>
<totfact> 0.48626407E+04</totfact>
</mgrwt>
</event>
<event>
 4    3  0.3906307E+000  0.2038417E+03  0.7546771E-02  0.1146538E+00
         21   -1    0    0  501  502  0.00000000000E+00  0.00000000000E+00  0.12158606731E+03  0.12158606731E+03  0.00000000000E+00 0. -1.
         21   -1    0    0  502  503 -0.00000000000E+00 -0.00000000000E+00 -0.34320763352E+03  0.34320763352E+03  0.00000000000E+00 0.  1.
          6    1    1    2  501    0 -0.99192758265E+02  0.42228260567E+02 -0.95639542235E+02  0.22516294394E+03  0.17300000000E+03 0.  1.
         -6    1    1    2    0  503  0.99192758265E+02 -0.42228260567E+02 -0.12598202397E+03  0.23963075689E+03  0.17300000000E+03 0. -1.
<mgrwt>
<rscale>  2 0.20384168E+03</rscale>
<asrwt>0</asrwt>
<pdfrwt beam="1">  1       21 0.18705549E-01 0.20384168E+03</pdfrwt>
<pdfrwt beam="2">  1       21 0.52801173E-01 0.20384168E+03</pdfrwt>
<totfact> 0.88464675E+04</totfact>
</mgrwt>
</event>
<event>
 4    3  0.3906307E+000  0.3490588E+03  0.7546771E-02  0.1063002E+00
         21   -1    0    0  503  502  0.00000000000E+00  0.00000000000E+00  0.13762983663E+03  0.13762983663E+03  0.00000000000E+00 0. -1.
         21   -1    0    0  501  503 -0.00000000000E+00 -0.00000000000E+00 -0.11811596612E+04  0.11811596612E+04  0.00000000000E+00 0.  1.
          6    1    1    2  501    0  0.38434323479E+02 -0.30072548172E+03 -0.85178701524E+03  0.92053415575E+03  0.17300000000E+03 0.  1.
         -6    1    1    2    0  502 -0.38434323479E+02  0.30072548172E+03 -0.19174280936E+03  0.39825534211E+03  0.17300000000E+03 0. -1.
<mgrwt>
<rscale>  2 0.34905875E+03</rscale>
<asrwt>0</asrwt>
<pdfrwt beam="1">  1       21 0.21173822E-01 0.34905875E+03</pdfrwt>
<pdfrwt beam="2">  1       21 0.18171686E+00 0.34905875E+03</pdfrwt>
<totfact> 0.32958379E+03</totfact>
</mgrwt>
</event>
<event>
 4    3  0.3906307E+000  0.2062131E+03  0.7546771E-02  0.1144600E+00
         21   -1    0    0  501  502  0.00000000000E+00  0.00000000000E+00  0.12786280645E+03  0.12786280645E+03  0.00000000000E+00 0.  1.
         21   -1    0    0  502  503 -0.00000000000E+00 -0.00000000000E+00 -0.43750454047E+03  0.43750454047E+03  0.00000000000E+00 0.  1.
          6    1    1    2  501    0  0.97221872740E+02  0.56060243085E+02 -0.16381238643E+02  0.20686272833E+03  0.17300000000E+03 0.  1.
         -6    1    1    2    0  503 -0.97221872740E+02 -0.56060243085E+02 -0.29326049538E+03  0.35850461858E+03  0.17300000000E+03 0.  1.
<mgrwt>
<rscale>  2 0.20621310E+03</rscale>
<asrwt>0</asrwt>
<pdfrwt beam="1">  1       21 0.19671201E-01 0.20621310E+03</pdfrwt>
<pdfrwt beam="2">  1       21 0.67308390E-01 0.20621310E+03</pdfrwt>
<totfact> 0.47760714E+04</totfact>
</mgrwt>
</event>
<event>
 4    3  0.3906307E+000  0.2839749E+03  0.7546771E-02  0.1093538E+00
         21   -1    0    0  503  502  0.00000000000E+00  0.00000000000E+00  0.22290982185E+03  0.22290982185E+03  0.00000000000E+00 0.  1.
         21   -1    0    0  501  503 -0.00000000000E+00 -0.00000000000E+00 -0.48808740723E+03  0.48808740723E+03  0.00000000000E+00 0.  1.
          6    1    1    2  501    0  0.18392331598E+03 -0.12994207671E+03  0.48263268987E+02  0.28804699720E+03  0.17300000000E+03 0.  1.
         -6    1    1    2    0  502 -0.18392331598E+03  0.12994207671E+03 -0.31344085437E+03  0.42295023188E+03  0.17300000000E+03 0.  1.
<mgrwt>
<rscale>  2 0.28397487E+03</rscale>
<asrwt>0</asrwt>
<pdfrwt beam="1">  1       21 0.34293819E-01 0.28397487E+03</pdfrwt>
<pdfrwt beam="2">  1       21 0.75090370E-01 0.28397487E+03</pdfrwt>
<totfact> 0.12342329E+04</totfact>
</mgrwt>
</event>
<event>
 4    3  0.3906307E+000  0.3461155E+03  0.7546771E-02  0.1064221E+00
         21   -1    0    0  501  502  0.00000000000E+00  0.00000000000E+00  0.32989121930E+03  0.32989121930E+03  0.00000000000E+00 0.  1.
         21   -1    0    0  502  503 -0.00000000000E+00 -0.00000000000E+00 -0.67870899437E+03  0.67870899437E+03  0.00000000000E+00 0.  1.
          6    1    1    2  501    0 -0.28760760054E+03 -0.84550536821E+02  0.16946249248E+03  0.38537444327E+03  0.17300000000E+03 0.  1.
         -6    1    1    2    0  503  0.28760760054E+03  0.84550536821E+02 -0.51828026755E+03  0.62322577041E+03  0.17300000000E+03 0.  1.
<mgrwt>
<rscale>  2 0.34611548E+03</rscale>
<asrwt>0</asrwt>
<pdfrwt beam="1">  1       21 0.50752496E-01 0.34611548E+03</pdfrwt>
<pdfrwt beam="2">  1       21 0.10441677E+00 0.34611548E+03</pdfrwt>
<totfact> 0.24721862E+03</totfact>
</mgrwt>
</event>
<event>
 4    3  0.3906307E+000  0.2099592E+03  0.7546771E-02  0.1141598E+00
         21   -1    0    0  503  502  0.00000000000E+00  0.00000000000E+00  0.70566473345E+03  0.70566473345E+03  0.00000000000E+00 0. -1.
         21   -1    0    0  501  503 -0.00000000000E+00 -0.00000000000E+00 -0.83382739458E+02  0.83382739458E+02  0.00000000000E+00 0.  1.
          6    1    1    2  501    0  0.99100003996E+02  0.65826043060E+02  0.11356213505E+03  0.23870324098E+03  0.17300000000E+03 0.  1.
         -6    1    1    2    0  502 -0.99100003996E+02 -0.65826043060E+02  0.50871985894E+03  0.55034423193E+03  0.17300000000E+03 0. -1.
<mgrwt>
<rscale>  2 0.20995923E+03</rscale>
<asrwt>0</asrwt>
<pdfrwt beam="1">  1       21 0.10856380E+00 0.20995923E+03</pdfrwt>
<pdfrwt beam="2">  1       21 0.12828114E-01 0.20995923E+03</pdfrwt>
<totfact> 0.34763419E+04</totfact>
</mgrwt>
</event>
<event>
 4    3  0.3906307E+000  0.1858850E+03  0.7546771E-02  0.1162226E+00
         21   -1    0    0  501  502  0.00000000000E+00  0.00000000000E+00  0.16618166381E+03  0.16618166381E+03  0.00000000000E+00 0.  1.
         21   -1    0    0  502  503 -0.00000000000E+00 -0.00000000000E+00 -0.20800027067E+03  0.20800027067E+03  0.00000000000E+00 0.  1.
          6    1    1    2  501    0 -0.29478708746E+02 -0.61279961150E+02 -0.24481775005E+02  0.18749022699E+03  0.17300000000E+03 0.  1.
         -6    1    1    2    0  503  0.29478708746E+02  0.61279961150E+02 -0.17336831853E+02  0.18669170749E+03  0.17300000000E+03 0.  1.
<mgrwt>
<rscale>  2 0.18588499E+03</rscale>
<asrwt>0</asrwt>
<pdfrwt beam="1">  1       21 0.25566410E-01 0.18588499E+03</pdfrwt>
<pdfrwt beam="2">  1       21 0.32000042E-01 0.18588499E+03</pdfrwt>
<totfact> 0.13660595E+05</totfact>
</mgrwt>
</event>
<event>
 4    3  0.3906307E+000  0.2164764E+03  0.7546771E-02  0.1136538E+00
         21   -1    0    0  501  502  0.00000000000E+00  0.00000000000E+00  0.90261819611E+02  0.90261819611E+02  0.00000000000E+00 0.  1.
         21   -1    0    0  502  503 -0.00000000000E+00 -0.00000000000E+00 -0.52687974936E+03  0.52687974936E+03  0.00000000000E+00 0.  1.
          6    1    1    2  501    0 -0.42318876807E+02  0.12305337101E+03 -0.18100350884E+03  0.28217776252E+03  0.17300000000E+03 0. -1.
         -6    1    1    2    0  503  0.42318876807E+02 -0.12305337101E+03 -0.25561442091E+03  0.33496380644E+03  0.17300000000E+03 0. -1.
<mgrwt>
<rscale>  2 0.21647637E+03</rscale>
<asrwt>0</asrwt>
<pdfrwt beam="1">  1       21 0.13886434E-01 0.21647637E+03</pdfrwt>
<pdfrwt beam="2">  1       21 0.81058422E-01 0.21647637E+03</pdfrwt>
<totfact> 0.59573764E+04</totfact>
</mgrwt>
</event>
<event>
 4    3  0.3906307E+000  0.2171771E+03  0.7546771E-02  0.1136005E+00
         21   -1    0    0  501  502  0.00000000000E+00  0.00000000000E+00  0.57194676613E+03  0.57194676613E+03  0.00000000000E+00 0.  1.
         21   -1    0    0  502  503 -0.00000000000E+00 -0.00000000000E+00 -0.82523247031E+02  0.82523247031E+02  0.00000000000E+00 0. -1.
          6    1    1    2  501    0  0.32212444286E+02  0.12727625111E+03  0.25336688122E+03  0.33370744996E+03  0.17300000000E+03 0. -1.
         -6    1    1    2    0  503 -0.32212444286E+02 -0.12727625111E+03  0.23605663789E+03  0.32076256320E+03  0.17300000000E+03 0.  1.
<mgrwt>
<rscale>  2 0.21717708E+03</rscale>
<asrwt>0</asrwt>
<pdfrwt beam="1">  1       21 0.87991807E-01 0.21717708E+03</pdfrwt>
<pdfrwt beam="2">  1       21 0.12695885E-01 0.21717708E+03</pdfrwt>
<totfact> 0.58024010E+04</totfact>
</mgrwt>
</event>
<event>
 4    3  0.3906307E+000  0.2367472E+03  0.7546771E-02  0.1121979E+00
         21   -1    0    0  501  502  0.00000000000E+00  0.00000000000E+00  0.16500768832E+03  0.16500768832E+03  0.00000000000E+00 0. -1.
         21   -1    0    0  502  503 -0.00000000000E+00 -0.00000000000E+00 -0.37023209479E+03  0.37023209479E+03  0.00000000000E+00 0.  1.
          6    1    1    2  501    0  0.13665525542E+03 -0.86287766078E+02 -0.25729864794E+02  0.23814126764E+03  0.17300000000E+03 0. -1.
         -6    1    1    2    0  503 -0.13665525542E+03  0.86287766078E+02 -0.17949454167E+03  0.29709851547E+03  0.17300000000E+03 0.  1.
<mgrwt>
<rscale>  2 0.23674720E+03</rscale>
<asrwt>0</asrwt>
<pdfrwt beam="1">  1       21 0.25385798E-01 0.23674720E+03</pdfrwt>
<pdfrwt beam="2">  1       21 0.56958783E-01 0.23674720E+03</pdfrwt>
<totfact> 0.41708691E+04</totfact>
</mgrwt>
</event>
<event>
 4    3  0.3906307E+000  0.1932738E+03  0.7546771E-02  0.1155541E+00
         21   -1    0    0  501  502  0.00000000000E+00  0.00000000000E+00  0.54613825404E+02  0.54613825404E+02  0.00000000000E+00 0. -1.
         21   -1    0    0  502  503 -0.00000000000E+00 -0.00000000000E+00 -0.68775546599E+03  0.68775546599E+03  0.00000000000E+00 0. -1.
          6    1    1    2  501    0 -0.83951382799E+02  0.19440769655E+02 -0.28907012834E+03  0.34773023639E+03  0.17300000000E+03 0. -1.
         -6    1    1    2    0  503  0.83951382799E+02 -0.19440769655E+02 -0.34407151225E+03  0.39463905501E+03  0.17300000000E+03 0. -1.
<mgrwt>
<rscale>  2 0.19327384E+03</rscale>
<asrwt>0</asrwt>
<pdfrwt beam="1">  1       21 0.84021277E-02 0.19327384E+03</pdfrwt>
<pdfrwt beam="2">  1       21 0.10580852E+00 0.19327384E+03</pdfrwt>
<totfact> 0.79002759E+04</totfact>
</mgrwt>
</event>
<event>
 4    3  0.3906307E+000  0.2222522E+03  0.7546771E-02  0.1132215E+00
         21   -1    0    0  501  502  0.00000000000E+00  0.00000000000E+00  0.23763672526E+03  0.23763672526E+03  0.00000000000E+00 0. -1.
         21   -1    0    0  502  503 -0.00000000000E+00 -0.00000000000E+00 -0.21488022634E+03  0.21488022634E+03  0.00000000000E+00 0.  1.
          6    1    1    2  501    0  0.10103967527E+03  0.96218597948E+02 -0.29507276208E+02  0.22420239499E+03  0.17300000000E+03 0.  1.
         -6    1    1    2    0  503 -0.10103967527E+03 -0.96218597948E+02  0.52263775130E+02  0.22831455661E+03  0.17300000000E+03 0. -1.
<mgrwt>
<rscale>  2 0.22225219E+03</rscale>
<asrwt>0</asrwt>
<pdfrwt beam="1">  1       21 0.36559496E-01 0.22225219E+03</pdfrwt>
<pdfrwt beam="2">  1       21 0.33058496E-01 0.22225219E+03</pdfrwt>
<totfact> 0.62736080E+04</totfact>
</mgrwt>
</event>
<event>
 4    3  0.3906307E+000  0.2099989E+03  0.7546771E-02  0.1141567E+00
         21   -1    0    0  501  502  0.00000000000E+00  0.00000000000E+00  0.17674402389E+03  0.17674402389E+03  0.00000000000E+00 0. -1.
         21   -1    0    0  502  503 -0.00000000000E+00 -0.00000000000E+00 -0.46769565389E+03  0.46769565389E+03  0.00000000000E+00 0. -1.
          6    1    1    2  501    0  0.11494916103E+03  0.30939402776E+02  0.74605327934E+02  0.22285760302E+03  0.17300000000E+03 0. -1.
         -6    1    1    2    0  503 -0.11494916103E+03 -0.30939402776E+02 -0.36555695794E+03  0.42158207477E+03  0.17300000000E+03 0. -1.
<mgrwt>
<rscale>  2 0.20999894E+03</rscale>
<asrwt>0</asrwt>
<pdfrwt beam="1">  1       21 0.27191389E-01 0.20999894E+03</pdfrwt>
<pdfrwt beam="2">  1       21 0.71953176E-01 0.20999894E+03</pdfrwt>
<totfact> 0.22251726E+04</totfact>
</mgrwt>
</event>
<event>
 4    3  0.3906307E+000  0.3959458E+03  0.7546771E-02  0.1045193E+00
         21   -1    0    0  503  502  0.00000000000E+00  0.00000000000E+00  0.44525609493E+03  0.44525609493E+03  0.00000000000E+00 0. -1.
         21   -1    0    0  501  503 -0.00000000000E+00 -0.00000000000E+00 -0.36883890611E+03  0.36883890611E+03  0.00000000000E+00 0.  1.
          6    1    1    2  501    0  0.53797167634E+02 -0.35206530276E+03  0.12493186839E+03  0.41518801090E+03  0.17300000000E+03 0. -1.
         -6    1    1    2    0  502 -0.53797167634E+02  0.35206530276E+03 -0.48514679568E+02  0.39890699015E+03  0.17300000000E+03 0.  1.
<mgrwt>
<rscale>  2 0.39594585E+03</rscale>
<asrwt>0</asrwt>
<pdfrwt beam="1">  1       21 0.68500937E-01 0.39594585E+03</pdfrwt>
<pdfrwt beam="2">  1       21 0.56744447E-01 0.39594585E+03</pdfrwt>
<totfact> 0.50880877E+03</totfact>
</mgrwt>
</event>
<event>
 4    3  0.3906307E+000  0.1903886E+03  0.7546771E-02  0.1158111E+00
         21   -1    0    0  503  502  0.00000000000E+00  0.00000000000E+00  0.18922437375E+03  0.18922437375E+03  0.00000000000E+00 0. -1.
         21   -1    0    0  501  503 -0.00000000000E+00 -0.00000000000E+00 -0.25462460053E+03  0.25462460053E+03  0.00000000000E+00 0. -1.
          6    1    1    2  501    0 -0.79484546758E+02  0.10184986945E+01 -0.14314552974E+03  0.23819839041E+03  0.17300000000E+03 0. -1.
         -6    1    1    2    0  502  0.79484546758E+02 -0.10184986945E+01  0.77745302960E+02  0.20565058387E+03  0.17300000000E+03 0. -1.
<mgrwt>
<rscale>  2 0.19038863E+03</rscale>
<asrwt>0</asrwt>
<pdfrwt beam="1">  1       21 0.29111442E-01 0.19038863E+03</pdfrwt>
<pdfrwt beam="2">  1       21 0.39173016E-01 0.19038863E+03</pdfrwt>
<totfact> 0.71053962E+04</totfact>
</mgrwt>
</event>
<event>
 4    3  0.3906307E+000  0.1851026E+03  0.7546771E-02  0.1162954E+00
         21   -1    0    0  503  502  0.00000000000E+00  0.00000000000E+00  0.12857788536E+04  0.12857788536E+04  0.00000000000E+00 0.  1.
         21   -1    0    0  501  503 -0.00000000000E+00 -0.00000000000E+00 -0.27539374168E+02  0.27539374168E+02  0.00000000000E+00 0. -1.
          6    1    1    2  501    0 -0.61743425922E+02  0.22841234762E+02  0.51095700719E+03  0.54345196278E+03  0.17300000000E+03 0. -1.
         -6    1    1    2    0  502  0.61743425922E+02 -0.22841234762E+02  0.74728247222E+03  0.76986626497E+03  0.17300000000E+03 0.  1.
<mgrwt>
<rscale>  2 0.18510260E+03</rscale>
<asrwt>0</asrwt>
<pdfrwt beam="1">  1       21 0.19781209E+00 0.18510260E+03</pdfrwt>
<pdfrwt beam="2">  1       21 0.42368278E-02 0.18510260E+03</pdfrwt>
<totfact> 0.49588475E+04</totfact>
</mgrwt>
</event>
<event>
 4    3  0.3906307E+000  0.1806815E+03  0.7546771E-02  0.1167145E+00
         21   -1    0    0  503  502  0.00000000000E+00  0.00000000000E+00  0.13401212607E+04  0.13401212607E+04  0.00000000000E+00 0.  1.
         21   -1    0    0  501  503 -0.00000000000E+00 -0.00000000000E+00 -0.27680205938E+02  0.27680205938E+02  0.00000000000E+00 0. -1.
          6    1    1    2  501    0 -0.58352489769E+01  0.51795181883E+02  0.41937259938E+03  0.45663899100E+03  0.17300000000E+03 0.  1.
         -6    1    1    2    0  502  0.58352489769E+01 -0.51795181883E+02  0.89306845534E+03  0.91116247559E+03  0.17300000000E+03 0.  1.
<mgrwt>
<rscale>  2 0.18068146E+03</rscale>
<asrwt>0</asrwt>
<pdfrwt beam="1">  1       21 0.20617245E+00 0.18068146E+03</pdfrwt>
<pdfrwt beam="2">  1       21 0.42584943E-02 0.18068146E+03</pdfrwt>
<totfact> 0.43623596E+04</totfact>
</mgrwt>
</event>
<event>
 4    3  0.3906307E+000  0.2323631E+03  0.7546771E-02  0.1124987E+00
         21   -1    0    0  503  502  0.00000000000E+00  0.00000000000E+00  0.15664873391E+03  0.15664873391E+03  0.00000000000E+00 0.  1.
         21   -1    0    0  501  503 -0.00000000000E+00 -0.00000000000E+00 -0.44805403872E+03  0.44805403872E+03  0.00000000000E+00 0. -1.
          6    1    1    2  501    0 -0.12627895231E+03 -0.90095758153E+02 -0.29093615271E+03  0.37233917923E+03  0.17300000000E+03 0. -1.
         -6    1    1    2    0  502  0.12627895231E+03  0.90095758153E+02 -0.46915209622E+00  0.23236359340E+03  0.17300000000E+03 0.  1.
<mgrwt>
<rscale>  2 0.23236312E+03</rscale>
<asrwt>0</asrwt>
<pdfrwt beam="1">  1       21 0.24099805E-01 0.23236312E+03</pdfrwt>
<pdfrwt beam="2">  1       21 0.68931390E-01 0.23236312E+03</pdfrwt>
<totfact> 0.30493362E+04</totfact>
</mgrwt>
</event>
<event>
 4    3  0.3906307E+000  0.2044290E+03  0.7546771E-02  0.1146055E+00
         21   -1    0    0  501  502  0.00000000000E+00  0.00000000000E+00  0.17647858091E+03  0.17647858091E+03  0.00000000000E+00 0.  1.
         21   -1    0    0  502  503 -0.00000000000E+00 -0.00000000000E+00 -0.24772401861E+03  0.24772401861E+03  0.00000000000E+00 0.  1.
          6    1    1    2  501    0  0.10743602378E+03  0.17880677892E+02  0.89047174687E+01  0.20462285269E+03  0.17300000000E+03 0.  1.
         -6    1    1    2    0  503 -0.10743602378E+03 -0.17880677892E+02 -0.80150155169E+02  0.21957974684E+03  0.17300000000E+03 0.  1.
<mgrwt>
<rscale>  2 0.20442900E+03</rscale>
<asrwt>0</asrwt>
<pdfrwt beam="1">  1       21 0.27150551E-01 0.20442900E+03</pdfrwt>
<pdfrwt beam="2">  1       21 0.38111387E-01 0.20442900E+03</pdfrwt>
<totfact> 0.85424401E+04</totfact>
</mgrwt>
</event>
<event>
 4    3  0.3906307E+000  0.2934872E+03  0.7546771E-02  0.1088542E+00
         21   -1    0    0  503  502  0.00000000000E+00  0.00000000000E+00  0.38198920903E+03  0.38198920903E+03  0.00000000000E+00 0. -1.
         21   -1    0    0  501  503 -0.00000000000E+00 -0.00000000000E+00 -0.45301869317E+03  0.45301869317E+03  0.00000000000E+00 0.  1.
          6    1    1    2  501    0 -0.12081765662E+03 -0.20398242816E+03 -0.33139816797E+03  0.44267311064E+03  0.17300000000E+03 0.  1.
         -6    1    1    2    0  502  0.12081765662E+03  0.20398242816E+03  0.26036868383E+03  0.39233479156E+03  0.17300000000E+03 0. -1.
<mgrwt>
<rscale>  2 0.29348720E+03</rscale>
<asrwt>0</asrwt>
<pdfrwt beam="1">  1       21 0.58767571E-01 0.29348720E+03</pdfrwt>
<pdfrwt beam="2">  1       21 0.69695183E-01 0.29348720E+03</pdfrwt>
<totfact> 0.47482717E+03</totfact>
</mgrwt>
</event>
<event>
 4    3  0.3906307E+000  0.2506237E+03  0.7546771E-02  0.1112911E+00
         21   -1    0    0  501  502  0.00000000000E+00  0.00000000000E+00  0.67627195679E+03  0.67627195679E+03  0.00000000000E+00 0.  1.
         21   -1    0    0  502  503 -0.00000000000E+00 -0.00000000000E+00 -0.93010547228E+02  0.93010547228E+02  0.00000000000E+00 0. -1.
          6    1    1    2  501    0  0.12330218145E+03 -0.13296540099E+03  0.27722744427E+03  0.37372086063E+03  0.17300000000E+03 0. -1.
         -6    1    1    2    0  503 -0.12330218145E+03  0.13296540099E+03  0.30603396529E+03  0.39556164339E+03  0.17300000000E+03 0. -1.
<mgrwt>
<rscale>  2 0.25062367E+03</rscale>
<asrwt>0</asrwt>
<pdfrwt beam="1">  1       21 0.10404184E+00 0.25062367E+03</pdfrwt>
<pdfrwt beam="2">  1       21 0.14309315E-01 0.25062367E+03</pdfrwt>
<totfact> 0.30970947E+04</totfact>
</mgrwt>
</event>
<event>
 4    3  0.3906307E+000  0.2359281E+03  0.7546771E-02  0.1122536E+00
         21   -1    0    0  503  502  0.00000000000E+00  0.00000000000E+00  0.12924245942E+03  0.12924245942E+03  0.00000000000E+00 0. -1.
         21   -1    0    0  501  503 -0.00000000000E+00 -0.00000000000E+00 -0.43470726358E+03  0.43470726358E+03  0.00000000000E+00 0. -1.
          6    1    1    2  501    0 -0.10524884640E+03  0.12106093685E+03 -0.12559007106E+03  0.26727314876E+03  0.17300000000E+03 0. -1.
         -6    1    1    2    0  502  0.10524884640E+03 -0.12106093685E+03 -0.17987473309E+03  0.29667657424E+03  0.17300000000E+03 0. -1.
<mgrwt>
<rscale>  2 0.23592810E+03</rscale>
<asrwt>0</asrwt>
<pdfrwt beam="1">  1       21 0.19883455E-01 0.23592810E+03</pdfrwt>
<pdfrwt beam="2">  1       21 0.66878040E-01 0.23592810E+03</pdfrwt>
<totfact> 0.46832922E+04</totfact>
</mgrwt>
</event>
<event>
 4    3  0.3906307E+000  0.2272250E+03  0.7546771E-02  0.1128608E+00
         21   -1    0    0  503  502  0.00000000000E+00  0.00000000000E+00  0.45247591664E+03  0.45247591664E+03  0.00000000000E+00 0. -1.
         21   -1    0    0  501  503 -0.00000000000E+00 -0.00000000000E+00 -0.22406922477E+03  0.22406922477E+03  0.00000000000E+00 0. -1.
          6    1    1    2  501    0  0.14732802759E+02 -0.14657805983E+03  0.35117434262E+03  0.41827574878E+03  0.17300000000E+03 0. -1.
         -6    1    1    2    0  502 -0.14732802759E+02  0.14657805983E+03 -0.12276765075E+03  0.25826939263E+03  0.17300000000E+03 0. -1.
<mgrwt>
<rscale>  2 0.22722496E+03</rscale>
<asrwt>0</asrwt>
<pdfrwt beam="1">  1       21 0.69611679E-01 0.22722496E+03</pdfrwt>
<pdfrwt beam="2">  1       21 0.34472189E-01 0.22722496E+03</pdfrwt>
<totfact> 0.14894382E+04</totfact>
</mgrwt>
</event>
<event>
 4    3  0.3906307E+000  0.1962076E+03  0.7546771E-02  0.1152979E+00
         21   -1    0    0  503  502  0.00000000000E+00  0.00000000000E+00  0.33260260967E+03  0.33260260967E+03  0.00000000000E+00 0. -1.
         21   -1    0    0  501  503 -0.00000000000E+00 -0.00000000000E+00 -0.46061692409E+03  0.46061692409E+03  0.00000000000E+00 0. -1.
          6    1    1    2  501    0  0.58464985082E+02  0.71765256921E+02 -0.40718700586E+03  0.45199409767E+03  0.17300000000E+03 0. -1.
         -6    1    1    2    0  502 -0.58464985082E+02 -0.71765256921E+02  0.27917269145E+03  0.34122543608E+03  0.17300000000E+03 0. -1.
<mgrwt>
<rscale>  2 0.19620756E+03</rscale>
<asrwt>0</asrwt>
<pdfrwt beam="1">  1       21 0.51169632E-01 0.19620756E+03</pdfrwt>
<pdfrwt beam="2">  1       21 0.70864142E-01 0.19620756E+03</pdfrwt>
<totfact> 0.65304945E+03</totfact>
</mgrwt>
</event>
<event>
 4    3  0.3906307E+000  0.1824738E+03  0.7546771E-02  0.1165430E+00
         21   -1    0    0  503  502  0.00000000000E+00  0.00000000000E+00  0.31381324601E+03  0.31381324601E+03  0.00000000000E+00 0. -1.
         21   -1    0    0  501  503 -0.00000000000E+00 -0.00000000000E+00 -0.16009307501E+03  0.16009307501E+03  0.00000000000E+00 0.  1.
          6    1    1    2  501    0  0.56350867223E+02  0.13865457147E+02 -0.60744006374E+02  0.19231876000E+03  0.17300000000E+03 0.  1.
         -6    1    1    2    0  502 -0.56350867223E+02 -0.13865457147E+02  0.21446417738E+03  0.28158756102E+03  0.17300000000E+03 0. -1.
<mgrwt>
<rscale>  2 0.18247375E+03</rscale>
<asrwt>0</asrwt>
<pdfrwt beam="1">  1       21 0.48278961E-01 0.18247375E+03</pdfrwt>
<pdfrwt beam="2">  1       21 0.24629704E-01 0.18247375E+03</pdfrwt>
<totfact> 0.64153445E+04</totfact>
</mgrwt>
</event>
<event>
 4    3  0.3906307E+000  0.2984385E+03  0.7546771E-02  0.1086024E+00
         21   -1    0    0  501  502  0.00000000000E+00  0.00000000000E+00  0.19726830032E+04  0.19726830032E+04  0.00000000000E+00 0.  1.
         21   -1    0    0  502  503 -0.00000000000E+00 -0.00000000000E+00 -0.47740746375E+02  0.47740746375E+02  0.00000000000E+00 0.  1.
          6    1    1    2  501    0  0.16695210213E+03 -0.17681488688E+03  0.11978287569E+04  0.12344469367E+04  0.17300000000E+03 0.  1.
         -6    1    1    2    0  503 -0.16695210213E+03  0.17681488688E+03  0.72711349991E+03  0.78597681287E+03  0.17300000000E+03 0.  1.
<mgrwt>
<rscale>  2 0.29843845E+03</rscale>
<asrwt>0</asrwt>
<pdfrwt beam="1">  1       21 0.30348963E+00 0.29843845E+03</pdfrwt>
<pdfrwt beam="2">  1       21 0.73447317E-02 0.29843845E+03</pdfrwt>
<totfact> 0.41045154E+03</totfact>
</mgrwt>
</event>
<event>
 4    3  0.3906307E+000  0.1891499E+03  0.7546771E-02  0.1159230E+00
         21   -1    0    0  501  502  0.00000000000E+00  0.00000000000E+00  0.77356402169E+03  0.77356402169E+03  0.00000000000E+00 0.  1.
         21   -1    0    0  502  503 -0.00000000000E+00 -0.00000000000E+00 -0.46258359606E+02  0.46258359606E+02  0.00000000000E+00 0. -1.
          6    1    1    2  501    0  0.62823222123E+02  0.43611076970E+02  0.36901328664E+03  0.41466672038E+03  0.17300000000E+03 0.  1.
         -6    1    1    2    0  503 -0.62823222123E+02 -0.43611076970E+02  0.35829237545E+03  0.40515566092E+03  0.17300000000E+03 0.  1.
<mgrwt>
<rscale>  2 0.18914990E+03</rscale>
<asrwt>0</asrwt>
<pdfrwt beam="1">  1       21 0.11900984E+00 0.18914990E+03</pdfrwt>
<pdfrwt beam="2">  1       21 0.71166713E-02 0.18914990E+03</pdfrwt>
<totfact> 0.79372683E+04</totfact>
</mgrwt>
</event>
<event>
 4    3  0.3906307E+000  0.2383669E+03  0.7546771E-02  0.1120886E+00
         21   -1    0    0  503  502  0.00000000000E+00  0.00000000000E+00  0.66575673230E+03  0.66575673230E+03  0.00000000000E+00 0. -1.
         21   -1    0    0  501  503 -0.00000000000E+00 -0.00000000000E+00 -0.13456596533E+03  0.13456596533E+03  0.00000000000E+00 0.  1.
          6    1    1    2  501    0  0.16272664240E+03 -0.20244411387E+02  0.23579432486E+02  0.23953034458E+03  0.17300000000E+03 0.  1.
         -6    1    1    2    0  502 -0.16272664240E+03  0.20244411387E+02  0.50761133448E+03  0.56079235305E+03  0.17300000000E+03 0. -1.
<mgrwt>
<rscale>  2 0.23836694E+03</rscale>
<asrwt>0</asrwt>
<pdfrwt beam="1">  1       21 0.10242411E+00 0.23836694E+03</pdfrwt>
<pdfrwt beam="2">  1       21 0.20702457E-01 0.23836694E+03</pdfrwt>
<totfact> 0.16323123E+04</totfact>
</mgrwt>
</event>
<event>
 4    3  0.3906307E+000  0.1745731E+03  0.7546771E-02  0.1173161E+00
         21   -1    0    0  503  502  0.00000000000E+00  0.00000000000E+00  0.21313963898E+03  0.21313963898E+03  0.00000000000E+00 0.  1.
         21   -1    0    0  501  503 -0.00000000000E+00 -0.00000000000E+00 -0.19212965651E+03  0.19212965651E+03  0.00000000000E+00 0.  1.
          6    1    1    2  501    0 -0.21517951040E+02  0.91507177939E+01 -0.91978740966E+02  0.19732168315E+03  0.17300000000E+03 0.  1.
         -6    1    1    2    0  502  0.21517951040E+02 -0.91507177939E+01  0.11298872344E+03  0.20794761234E+03  0.17300000000E+03 0.  1.
<mgrwt>
<rscale>  2 0.17457307E+03</rscale>
<asrwt>0</asrwt>
<pdfrwt beam="1">  1       21 0.32790714E-01 0.17457307E+03</pdfrwt>
<pdfrwt beam="2">  1       21 0.29558409E-01 0.17457307E+03</pdfrwt>
<totfact> 0.98869049E+04</totfact>
</mgrwt>
</event>
<event>
 4    3  0.3906307E+000  0.1791633E+03  0.7546771E-02  0.1168615E+00
         21   -1    0    0  501  502  0.00000000000E+00  0.00000000000E+00  0.99541949923E+03  0.99541949923E+03  0.00000000000E+00 0. -1.
         21   -1    0    0  502  503 -0.00000000000E+00 -0.00000000000E+00 -0.60318814833E+02  0.60318814833E+02  0.00000000000E+00 0. -1.
          6    1    1    2  501    0 -0.29822183012E+02  0.35792775243E+02  0.82765905950E+03  0.84682879269E+03  0.17300000000E+03 0. -1.
         -6    1    1    2    0  503  0.29822183012E+02 -0.35792775243E+02  0.10744162490E+03  0.20890952137E+03  0.17300000000E+03 0. -1.
<mgrwt>
<rscale>  2 0.17916329E+03</rscale>
<asrwt>0</asrwt>
<pdfrwt beam="1">  1       21 0.15314145E+00 0.17916329E+03</pdfrwt>
<pdfrwt beam="2">  1       21 0.92798183E-02 0.17916329E+03</pdfrwt>
<totfact> 0.26425978E+04</totfact>
</mgrwt>
</event>
<event>
 4    3  0.3906307E+000  0.2573473E+03  0.7546771E-02  0.1108748E+00
         21   -1    0    0  503  502  0.00000000000E+00  0.00000000000E+00  0.51534212487E+03  0.51534212487E+03  0.00000000000E+00 0.  1.
         21   -1    0    0  501  503 -0.00000000000E+00 -0.00000000000E+00 -0.20102545406E+03  0.20102545406E+03  0.00000000000E+00 0.  1.
          6    1    1    2  501    0 -0.17594001962E+03 -0.73100820009E+02 -0.57966154097E+02  0.26379479792E+03  0.17300000000E+03 0.  1.
         -6    1    1    2    0  502  0.17594001962E+03  0.73100820009E+02  0.37228282490E+03  0.45257278100E+03  0.17300000000E+03 0.  1.
<mgrwt>
<rscale>  2 0.25734728E+03</rscale>
<asrwt>0</asrwt>
<pdfrwt beam="1">  1       21 0.79283403E-01 0.25734728E+03</pdfrwt>
<pdfrwt beam="2">  1       21 0.30926993E-01 0.25734728E+03</pdfrwt>
<totfact> 0.13570876E+04</totfact>
</mgrwt>
</event>
<event>
 4    3  0.3906307E+000  0.1764324E+03  0.7546771E-02  0.1171301E+00
         21   -1    0    0  501  502  0.00000000000E+00  0.00000000000E+00  0.34017771803E+03  0.34017771803E+03  0.00000000000E+00 0.  1.
         21   -1    0    0  502  503 -0.00000000000E+00 -0.00000000000E+00 -0.11268690724E+03  0.11268690724E+03  0.00000000000E+00 0.  1.
          6    1    1    2  501    0 -0.17615673952E+02  0.29817462850E+02  0.21191369295E+03  0.27574590898E+03  0.17300000000E+03 0.  1.
         -6    1    1    2    0  503  0.17615673952E+02 -0.29817462850E+02  0.15577117842E+02  0.17711871629E+03  0.17300000000E+03 0.  1.
<mgrwt>
<rscale>  2 0.17643240E+03</rscale>
<asrwt>0</asrwt>
<pdfrwt beam="1">  1       21 0.52335033E-01 0.17643240E+03</pdfrwt>
<pdfrwt beam="2">  1       21 0.17336447E-01 0.17643240E+03</pdfrwt>
<totfact> 0.10485499E+05</totfact>
</mgrwt>
</event>
<event>
 4    3  0.3906307E+000  0.1871517E+03  0.7546771E-02  0.1161056E+00
         21   -1    0    0  501  502  0.00000000000E+00  0.00000000000E+00  0.38107029473E+03  0.38107029473E+03  0.00000000000E+00 0. -1.
         21   -1    0    0  502  503 -0.00000000000E+00 -0.00000000000E+00 -0.92591255604E+02  0.92591255604E+02  0.00000000000E+00 0. -1.
          6    1    1    2  501    0  0.45536454979E+02  0.54983397051E+02  0.12398651839E+03  0.22449587842E+03  0.17300000000E+03 0. -1.
         -6    1    1    2    0  503 -0.45536454979E+02 -0.54983397051E+02  0.16449252073E+03  0.24916567192E+03  0.17300000000E+03 0. -1.
<mgrwt>
<rscale>  2 0.18715166E+03</rscale>
<asrwt>0</asrwt>
<pdfrwt beam="1">  1       21 0.58626198E-01 0.18715166E+03</pdfrwt>
<pdfrwt beam="2">  1       21 0.14244809E-01 0.18715166E+03</pdfrwt>
<totfact> 0.11756778E+05</totfact>
</mgrwt>
</event>
<event>
 4    3  0.3906307E+000  0.1861265E+03  0.7546771E-02  0.1162002E+00
         21   -1    0    0  501  502  0.00000000000E+00  0.00000000000E+00  0.45479533787E+03  0.45479533787E+03  0.00000000000E+00 0.  1.
         21   -1    0    0  502  503 -0.00000000000E+00 -0.00000000000E+00 -0.11476126603E+03  0.11476126603E+03  0.00000000000E+00 0. -1.
          6    1    1    2  501    0 -0.28843917081E+02 -0.62306477403E+02  0.33515143978E+03  0.38336608648E+03  0.17300000000E+03 0.  1.
         -6    1    1    2    0  503  0.28843917081E+02  0.62306477403E+02  0.48826320588E+01  0.18619051741E+03  0.17300000000E+03 0. -1.
<mgrwt>
<rscale>  2 0.18612649E+03</rscale>
<asrwt>0</asrwt>
<pdfrwt beam="1">  1       21 0.69968513E-01 0.18612649E+03</pdfrwt>
<pdfrwt beam="2">  1       21 0.17655580E-01 0.18612649E+03</pdfrwt>
<totfact> 0.54129560E+04</totfact>
</mgrwt>
</event>
<event>
 4    3  0.3906307E+000  0.2009725E+03  0.7546771E-02  0.1148921E+00
         21   -1    0    0  503  502  0.00000000000E+00  0.00000000000E+00  0.28578791241E+03  0.28578791241E+03  0.00000000000E+00 0.  1.
         21   -1    0    0  501  503 -0.00000000000E+00 -0.00000000000E+00 -0.15165464763E+03  0.15165464763E+03  0.00000000000E+00 0.  1.
          6    1    1    2  501    0  0.63631927469E+02  0.80074497770E+02  0.99931307145E+01  0.20122079924E+03  0.17300000000E+03 0.  1.
         -6    1    1    2    0  502 -0.63631927469E+02 -0.80074497770E+02  0.12414013407E+03  0.23622176080E+03  0.17300000000E+03 0.  1.
<mgrwt>
<rscale>  2 0.20097250E+03</rscale>
<asrwt>0</asrwt>
<pdfrwt beam="1">  1       21 0.43967371E-01 0.20097250E+03</pdfrwt>
<pdfrwt beam="2">  1       21 0.23331484E-01 0.20097250E+03</pdfrwt>
<totfact> 0.85543163E+04</totfact>
</mgrwt>
</event>
<event>
 4    3  0.3906307E+000  0.1743830E+03  0.7546771E-02  0.1173353E+00
         21   -1    0    0  503  502  0.00000000000E+00  0.00000000000E+00  0.35237973160E+03  0.35237973160E+03  0.00000000000E+00 0. -1.
         21   -1    0    0  501  503 -0.00000000000E+00 -0.00000000000E+00 -0.20706723419E+03  0.20706723419E+03  0.00000000000E+00 0. -1.
          6    1    1    2  501    0  0.12242127413E+02  0.18181607698E+02 -0.14096898103E+03  0.22423580034E+03  0.17300000000E+03 0. -1.
         -6    1    1    2    0  502 -0.12242127413E+02 -0.18181607698E+02  0.28628147844E+03  0.33521116545E+03  0.17300000000E+03 0. -1.
<mgrwt>
<rscale>  2 0.17438303E+03</rscale>
<asrwt>0</asrwt>
<pdfrwt beam="1">  1       21 0.54212266E-01 0.17438303E+03</pdfrwt>
<pdfrwt beam="2">  1       21 0.31856498E-01 0.17438303E+03</pdfrwt>
<totfact> 0.30775441E+04</totfact>
</mgrwt>
</event>
<event>
 4    3  0.3906307E+000  0.2141299E+03  0.7546771E-02  0.1138337E+00
         21   -1    0    0  503  502  0.00000000000E+00  0.00000000000E+00  0.64401983613E+02  0.64401983613E+02  0.00000000000E+00 0. -1.
         21   -1    0    0  501  503 -0.00000000000E+00 -0.00000000000E+00 -0.71361063550E+03  0.71361063550E+03  0.00000000000E+00 0. -1.
          6    1    1    2  501    0  0.78506119943E+02 -0.98789784857E+02 -0.30589494895E+03  0.37339436559E+03  0.17300000000E+03 0. -1.
         -6    1    1    2    0  502 -0.78506119943E+02  0.98789784857E+02 -0.34331370295E+03  0.40461825353E+03  0.17300000000E+03 0. -1.
<mgrwt>
<rscale>  2 0.21412994E+03</rscale>
<asrwt>0</asrwt>
<pdfrwt beam="1">  1       21 0.99079970E-02 0.21412994E+03</pdfrwt>
<pdfrwt beam="2">  1       21 0.10978626E+00 0.21412994E+03</pdfrwt>
<totfact> 0.53538744E+04</totfact>
</mgrwt>
</event>
<event>
 4    3  0.3906307E+000  0.2622920E+03  0.7546771E-02  0.1105774E+00
         21   -1    0    0  501  502  0.00000000000E+00  0.00000000000E+00  0.62143989454E+02  0.62143989454E+02  0.00000000000E+00 0.  1.
         21   -1    0    0  502  503 -0.00000000000E+00 -0.00000000000E+00 -0.11260650957E+04  0.11260650957E+04  0.00000000000E+00 0. -1.
          6    1    1    2  501    0 -0.18755899422E+03 -0.60742902393E+02 -0.60914415912E+03  0.66321465838E+03  0.17300000000E+03 0. -1.
         -6    1    1    2    0  503  0.18755899422E+03  0.60742902393E+02 -0.45477694714E+03  0.52499442678E+03  0.17300000000E+03 0.  1.
<mgrwt>
<rscale>  2 0.26229197E+03</rscale>
<asrwt>0</asrwt>
<pdfrwt beam="1">  1       21 0.95606137E-02 0.26229197E+03</pdfrwt>
<pdfrwt beam="2">  1       21 0.17324079E+00 0.26229197E+03</pdfrwt>
<totfact> 0.17012393E+04</totfact>
</mgrwt>
</event>
<event>
 4    3  0.3906307E+000  0.1976599E+03  0.7546771E-02  0.1151729E+00
         21   -1    0    0  501  502  0.00000000000E+00  0.00000000000E+00  0.50498080067E+03  0.50498080067E+03  0.00000000000E+00 0. -1.
         21   -1    0    0  502  503 -0.00000000000E+00 -0.00000000000E+00 -0.89747415438E+02  0.89747415438E+02  0.00000000000E+00 0. -1.
          6    1    1    2  501    0  0.95306425537E+02  0.75572453967E+01  0.31805637174E+03  0.37447200471E+03  0.17300000000E+03 0. -1.
         -6    1    1    2    0  503 -0.95306425537E+02 -0.75572453967E+01  0.97177013483E+02  0.22025621139E+03  0.17300000000E+03 0. -1.
<mgrwt>
<rscale>  2 0.19765988E+03</rscale>
<asrwt>0</asrwt>
<pdfrwt beam="1">  1       21 0.77689352E-01 0.19765988E+03</pdfrwt>
<pdfrwt beam="2">  1       21 0.13807295E-01 0.19765988E+03</pdfrwt>
<totfact> 0.66834842E+04</totfact>
</mgrwt>
</event>
<event>
 4    3  0.3906307E+000  0.2432160E+03  0.7546771E-02  0.1117669E+00
         21   -1    0    0  503  502  0.00000000000E+00  0.00000000000E+00  0.54336869768E+03  0.54336869768E+03  0.00000000000E+00 0.  1.
         21   -1    0    0  501  503 -0.00000000000E+00 -0.00000000000E+00 -0.11875918902E+03  0.11875918902E+03  0.00000000000E+00 0. -1.
          6    1    1    2  501    0 -0.11533250750E+03 -0.12618806624E+03  0.30786142708E+03  0.39234254630E+03  0.17300000000E+03 0.  1.
         -6    1    1    2    0  502  0.11533250750E+03  0.12618806624E+03  0.11674808158E+03  0.26978534041E+03  0.17300000000E+03 0. -1.
<mgrwt>
<rscale>  2 0.24321598E+03</rscale>
<asrwt>0</asrwt>
<pdfrwt beam="1">  1       21 0.83595183E-01 0.24321598E+03</pdfrwt>
<pdfrwt beam="2">  1       21 0.18270645E-01 0.24321598E+03</pdfrwt>
<totfact> 0.33133399E+04</totfact>
</mgrwt>
</event>
<event>
 4    3  0.3906307E+000  0.1878064E+03  0.7546771E-02  0.1160455E+00
         21   -1    0    0  503  502  0.00000000000E+00  0.00000000000E+00  0.35268737942E+02  0.35268737942E+02  0.00000000000E+00 0. -1.
         21   -1    0    0  501  503 -0.00000000000E+00 -0.00000000000E+00 -0.11023288577E+04  0.11023288577E+04  0.00000000000E+00 0. -1.
          6    1    1    2  501    0 -0.72657276277E+02 -0.79469558304E+01 -0.70677155185E+03  0.73129833885E+03  0.17300000000E+03 0. -1.
         -6    1    1    2    0  502  0.72657276277E+02  0.79469558304E+01 -0.36028856791E+03  0.40629925679E+03  0.17300000000E+03 0. -1.
<mgrwt>
<rscale>  2 0.18780637E+03</rscale>
<asrwt>0</asrwt>
<pdfrwt beam="1">  1       21 0.54259596E-02 0.18780637E+03</pdfrwt>
<pdfrwt beam="2">  1       21 0.16958906E+00 0.18780637E+03</pdfrwt>
<totfact> 0.50431285E+04</totfact>
</mgrwt>
</event>
<event>
 4    3  0.3906307E+000  0.1887220E+03  0.7546771E-02  0.1159619E+00
         21   -1    0    0  503  502  0.00000000000E+00  0.00000000000E+00  0.27558785895E+03  0.27558785895E+03  0.00000000000E+00 0. -1.
         21   -1    0    0  501  503 -0.00000000000E+00 -0.00000000000E+00 -0.20512866403E+03  0.20512866403E+03  0.00000000000E+00 0.  1.
          6    1    1    2  501    0  0.75182905082E+02  0.58743745933E+01 -0.11096949867E+03  0.21892968535E+03  0.17300000000E+03 0.  1.
         -6    1    1    2    0  502 -0.75182905082E+02 -0.58743745933E+01  0.18142869359E+03  0.26178683762E+03  0.17300000000E+03 0. -1.
<mgrwt>
<rscale>  2 0.18872196E+03</rscale>
<asrwt>0</asrwt>
<pdfrwt beam="1">  1       21 0.42398132E-01 0.18872196E+03</pdfrwt>
<pdfrwt beam="2">  1       21 0.31558256E-01 0.18872196E+03</pdfrwt>
<totfact> 0.51756420E+04</totfact>
</mgrwt>
</event>
<event>
 4    3  0.3906307E+000  0.2862017E+03  0.7546771E-02  0.1092349E+00
         21   -1    0    0  501  502  0.00000000000E+00  0.00000000000E+00  0.28856949098E+02  0.28856949098E+02  0.00000000000E+00 0.  1.
         21   -1    0    0  502  503 -0.00000000000E+00 -0.00000000000E+00 -0.29013127751E+04  0.29013127751E+04  0.00000000000E+00 0.  1.
          6    1    1    2  501    0  0.22439781833E+03  0.40348783308E+02 -0.12207141364E+04  0.12538159386E+04  0.17300000000E+03 0.  1.
         -6    1    1    2    0  503 -0.22439781833E+03 -0.40348783308E+02 -0.16517416896E+04  0.16763537856E+04  0.17300000000E+03 0.  1.
<mgrwt>
<rscale>  2 0.28620169E+03</rscale>
<asrwt>0</asrwt>
<pdfrwt beam="1">  1       21 0.44395303E-02 0.28620169E+03</pdfrwt>
<pdfrwt beam="2">  1       21 0.44635584E+00 0.28620169E+03</pdfrwt>
<totfact> 0.12854629E+03</totfact>
</mgrwt>
</event>
<event>
 4    3  0.3906307E+000  0.2101019E+03  0.7546771E-02  0.1141485E+00
         21   -1    0    0  503  502  0.00000000000E+00  0.00000000000E+00  0.11338845708E+03  0.11338845708E+03  0.00000000000E+00 0. -1.
         21   -1    0    0  501  503 -0.00000000000E+00 -0.00000000000E+00 -0.50130961328E+03  0.50130961328E+03  0.00000000000E+00 0. -1.
          6    1    1    2  501    0  0.50643209627E+02 -0.10793096902E+03 -0.48684376298E+02  0.21566872107E+03  0.17300000000E+03 0. -1.
         -6    1    1    2    0  502 -0.50643209627E+02  0.10793096902E+03 -0.33923677990E+03  0.39902934929E+03  0.17300000000E+03 0. -1.
<mgrwt>
<rscale>  2 0.21010195E+03</rscale>
<asrwt>0</asrwt>
<pdfrwt beam="1">  1       21 0.17444378E-01 0.21010195E+03</pdfrwt>
<pdfrwt beam="2">  1       21 0.77124556E-01 0.21010195E+03</pdfrwt>
<totfact> 0.44039445E+04</totfact>
</mgrwt>
</event>
<event>
 4    3  0.3906307E+000  0.2161595E+03  0.7546771E-02  0.1136779E+00
         21   -1    0    0  501  502  0.00000000000E+00  0.00000000000E+00  0.52530457612E+03  0.52530457612E+03  0.00000000000E+00 0. -1.
         21   -1    0    0  502  503 -0.00000000000E+00 -0.00000000000E+00 -0.20246076475E+03  0.20246076475E+03  0.00000000000E+00 0. -1.
          6    1    1    2  501    0 -0.40313445273E+02  0.12316959921E+03  0.43388821223E+03  0.48475138447E+03  0.17300000000E+03 0. -1.
         -6    1    1    2    0  503  0.40313445273E+02 -0.12316959921E+03 -0.11104440085E+03  0.24301395639E+03  0.17300000000E+03 0. -1.
<mgrwt>
<rscale>  2 0.21615949E+03</rscale>
<asrwt>0</asrwt>
<pdfrwt beam="1">  1       21 0.80816088E-01 0.21615949E+03</pdfrwt>
<pdfrwt beam="2">  1       21 0.31147810E-01 0.21615949E+03</pdfrwt>
<totfact> 0.13110191E+04</totfact>
</mgrwt>
</event>
<event>
 4    3  0.3906307E+000  0.1800570E+03  0.7546771E-02  0.1167748E+00
         21   -1    0    0  501  502  0.00000000000E+00  0.00000000000E+00  0.45473557110E+03  0.45473557110E+03  0.00000000000E+00 0. -1.
         21   -1    0    0  502  503 -0.00000000000E+00 -0.00000000000E+00 -0.10389635708E+03  0.10389635708E+03  0.00000000000E+00 0. -1.
          6    1    1    2  501    0 -0.32690515407E+02  0.37720667879E+02  0.33188247918E+03  0.37757979100E+03  0.17300000000E+03 0. -1.
         -6    1    1    2    0  503  0.32690515407E+02 -0.37720667879E+02  0.18956734834E+02  0.18105213718E+03  0.17300000000E+03 0. -1.
<mgrwt>
<rscale>  2 0.18005699E+03</rscale>
<asrwt>0</asrwt>
<pdfrwt beam="1">  1       21 0.69959318E-01 0.18005699E+03</pdfrwt>
<pdfrwt beam="2">  1       21 0.15984055E-01 0.18005699E+03</pdfrwt>
<totfact> 0.65171782E+04</totfact>
</mgrwt>
</event>
<event>
 4    3  0.3906307E+000  0.2221528E+03  0.7546771E-02  0.1132288E+00
         21   -1    0    0  501  502  0.00000000000E+00  0.00000000000E+00  0.29083338782E+03  0.29083338782E+03  0.00000000000E+00 0.  1.
         21   -1    0    0  502  503 -0.00000000000E+00 -0.00000000000E+00 -0.26000103305E+03  0.26000103305E+03  0.00000000000E+00 0.  1.
          6    1    1    2  501    0 -0.71521510177E+02  0.11961407406E+03  0.17773585421E+03  0.28450287697E+03  0.17300000000E+03 0.  1.
         -6    1    1    2    0  503  0.71521510177E+02 -0.11961407406E+03 -0.14690349944E+03  0.26633154391E+03  0.17300000000E+03 0.  1.
<mgrwt>
<rscale>  2 0.22215277E+03</rscale>
<asrwt>0</asrwt>
<pdfrwt beam="1">  1       21 0.44743598E-01 0.22215277E+03</pdfrwt>
<pdfrwt beam="2">  1       21 0.40000159E-01 0.22215277E+03</pdfrwt>
<totfact> 0.28425508E+04</totfact>
</mgrwt>
</event>
<event>
 4    3  0.3906307E+000  0.1799128E+03  0.7546771E-02  0.1167887E+00
         21   -1    0    0  503  502  0.00000000000E+00  0.00000000000E+00  0.13517167902E+04  0.13517167902E+04  0.00000000000E+00 0.  1.
         21   -1    0    0  501  503 -0.00000000000E+00 -0.00000000000E+00 -0.33943588041E+02  0.33943588041E+02  0.00000000000E+00 0.  1.
          6    1    1    2  501    0 -0.42122597463E+02  0.25793668472E+02  0.28288572345E+03  0.33525059147E+03  0.17300000000E+03 0.  1.
         -6    1    1    2    0  502  0.42122597463E+02 -0.25793668472E+02  0.10348874787E+04  0.10504097867E+04  0.17300000000E+03 0.  1.
<mgrwt>
<rscale>  2 0.17991283E+03</rscale>
<asrwt>0</asrwt>
<pdfrwt beam="1">  1       21 0.20795639E+00 0.17991283E+03</pdfrwt>
<pdfrwt beam="2">  1       21 0.52220915E-02 0.17991283E+03</pdfrwt>
<totfact> 0.30145710E+04</totfact>
</mgrwt>
</event>
<event>
 4    3  0.3906307E+000  0.2313788E+03  0.7546771E-02  0.1125673E+00
         21   -1    0    0  501  502  0.00000000000E+00  0.00000000000E+00  0.27648609911E+02  0.27648609911E+02  0.00000000000E+00 0. -1.
         21   -1    0    0  502  503 -0.00000000000E+00 -0.00000000000E+00 -0.25790485565E+04  0.25790485565E+04  0.00000000000E+00 0. -1.
          6    1    1    2  501    0  0.14596195471E+03  0.47981707995E+02 -0.62504649962E+03  0.66649775934E+03  0.17300000000E+03 0. -1.
         -6    1    1    2    0  503 -0.14596195471E+03 -0.47981707995E+02 -0.19263534470E+04  0.19401994071E+04  0.17300000000E+03 0. -1.
<mgrwt>
<rscale>  2 0.23137877E+03</rscale>
<asrwt>0</asrwt>
<pdfrwt beam="1">  1       21 0.42536321E-02 0.23137877E+03</pdfrwt>
<pdfrwt beam="2">  1       21 0.39677671E+00 0.23137877E+03</pdfrwt>
<totfact> 0.30658991E+03</totfact>
</mgrwt>
</event>
<event>
 4    3  0.3906307E+000  0.1758188E+03  0.7546771E-02  0.1171912E+00
         21   -1    0    0  501  502  0.00000000000E+00  0.00000000000E+00  0.17380558923E+03  0.17380558923E+03  0.00000000000E+00 0. -1.
         21   -1    0    0  502  503 -0.00000000000E+00 -0.00000000000E+00 -0.83427174767E+03  0.83427174767E+03  0.00000000000E+00 0. -1.
          6    1    1    2  501    0 -0.18484448058E+02 -0.25329032961E+02  0.11686194287E+03  0.21111359128E+03  0.17300000000E+03 0. -1.
         -6    1    1    2    0  503  0.18484448058E+02  0.25329032961E+02 -0.77732810132E+03  0.79696374562E+03  0.17300000000E+03 0. -1.
<mgrwt>
<rscale>  2 0.17581876E+03</rscale>
<asrwt>0</asrwt>
<pdfrwt beam="1">  1       21 0.26739322E-01 0.17581876E+03</pdfrwt>
<pdfrwt beam="2">  1       21 0.12834950E+00 0.17581876E+03</pdfrwt>
<totfact> 0.60260255E+03</totfact>
</mgrwt>
</event>
<event>
 4    3  0.3906307E+000  0.1763118E+03  0.7546771E-02  0.1171421E+00
         21   -1    0    0  503  502  0.00000000000E+00  0.00000000000E+00  0.12715013527E+03  0.12715013527E+03  0.00000000000E+00 0.  1.
         21   -1    0    0  501  503 -0.00000000000E+00 -0.00000000000E+00 -0.24469546731E+03  0.24469546731E+03  0.00000000000E+00 0.  1.
          6    1    1    2  501    0 -0.30606257637E+02  0.14835964807E+02 -0.64271223652E+02  0.18766096837E+03  0.17300000000E+03 0.  1.
         -6    1    1    2    0  502  0.30606257637E+02 -0.14835964807E+02 -0.53274108383E+02  0.18418463422E+03  0.17300000000E+03 0.  1.
<mgrwt>
<rscale>  2 0.17631179E+03</rscale>
<asrwt>0</asrwt>
<pdfrwt beam="1">  1       21 0.19561560E-01 0.17631179E+03</pdfrwt>
<pdfrwt beam="2">  1       21 0.37645456E-01 0.17631179E+03</pdfrwt>
<totfact> 0.16455495E+05</totfact>
</mgrwt>
</event>
<event>
 4    3  0.3906307E+000  0.1880436E+03  0.7546771E-02  0.1160238E+00
         21   -1    0    0  503  502  0.00000000000E+00  0.00000000000E+00  0.10862484949E+04  0.10862484949E+04  0.00000000000E+00 0.  1.
         21   -1    0    0  501  503 -0.00000000000E+00 -0.00000000000E+00 -0.75610479869E+02  0.75610479869E+02  0.00000000000E+00 0.  1.
          6    1    1    2  501    0 -0.73308955525E+02 -0.75626510952E+01  0.66931781142E+02  0.19960025045E+03  0.17300000000E+03 0.  1.
         -6    1    1    2    0  502  0.73308955525E+02  0.75626510952E+01  0.94370623385E+03  0.96225872429E+03  0.17300000000E+03 0.  1.
<mgrwt>
<rscale>  2 0.18804360E+03</rscale>
<asrwt>0</asrwt>
<pdfrwt beam="1">  1       21 0.16711514E+00 0.18804360E+03</pdfrwt>
<pdfrwt beam="2">  1       21 0.11632382E-01 0.18804360E+03</pdfrwt>
<totfact> 0.13921642E+04</totfact>
</mgrwt>
</event>
<event>
 4    3  0.3906307E+000  0.1815685E+03  0.7546771E-02  0.1166294E+00
         21   -1    0    0  501  502  0.00000000000E+00  0.00000000000E+00  0.14015318300E+03  0.14015318300E+03  0.00000000000E+00 0. -1.
         21   -1    0    0  502  503 -0.00000000000E+00 -0.00000000000E+00 -0.34065803516E+03  0.34065803516E+03  0.00000000000E+00 0. -1.
          6    1    1    2  501    0 -0.14453467159E+02  0.53190218520E+02  0.33493313643E+02  0.18463180690E+03  0.17300000000E+03 0. -1.
         -6    1    1    2    0  503  0.14453467159E+02 -0.53190218520E+02 -0.23399816580E+03  0.29617941127E+03  0.17300000000E+03 0. -1.
<mgrwt>
<rscale>  2 0.18156845E+03</rscale>
<asrwt>0</asrwt>
<pdfrwt beam="1">  1       21 0.21562029E-01 0.18156845E+03</pdfrwt>
<pdfrwt beam="2">  1       21 0.52408927E-01 0.18156845E+03</pdfrwt>
<totfact> 0.69556781E+04</totfact>
</mgrwt>
</event>
<event>
 4    3  0.3906307E+000  0.1900367E+03  0.7546771E-02  0.1158428E+00
         21   -1    0    0  501  502  0.00000000000E+00  0.00000000000E+00  0.70972228831E+03  0.70972228831E+03  0.00000000000E+00 0.  1.
         21   -1    0    0  502  503 -0.00000000000E+00 -0.00000000000E+00 -0.68109259425E+02  0.68109259425E+02  0.00000000000E+00 0.  1.
          6    1    1    2  501    0 -0.16277045701E+02 -0.76941567451E+02  0.51638792893E+03  0.55024579977E+03  0.17300000000E+03 0.  1.
         -6    1    1    2    0  503  0.16277045701E+02  0.76941567451E+02  0.12522509995E+03  0.22758574796E+03  0.17300000000E+03 0.  1.
<mgrwt>
<rscale>  2 0.19003670E+03</rscale>
<asrwt>0</asrwt>
<pdfrwt beam="1">  1       21 0.10918804E+00 0.19003670E+03</pdfrwt>
<pdfrwt beam="2">  1       21 0.10478348E-01 0.19003670E+03</pdfrwt>
<totfact> 0.49739827E+04</totfact>
</mgrwt>
</event>
<event>
 4    3  0.3906307E+000  0.2069131E+03  0.7546771E-02  0.1144034E+00
         21   -1    0    0  501  502  0.00000000000E+00  0.00000000000E+00  0.86670231834E+02  0.86670231834E+02  0.00000000000E+00 0.  1.
         21   -1    0    0  502  503 -0.00000000000E+00 -0.00000000000E+00 -0.54374876802E+03  0.54374876802E+03  0.00000000000E+00 0. -1.
          6    1    1    2  501    0  0.11130087236E+03  0.22274248664E+02 -0.13317285400E+03  0.24606510395E+03  0.17300000000E+03 0.  1.
         -6    1    1    2    0  503 -0.11130087236E+03 -0.22274248664E+02 -0.32390568218E+03  0.38435389590E+03  0.17300000000E+03 0. -1.
<mgrwt>
<rscale>  2 0.20691309E+03</rscale>
<asrwt>0</asrwt>
<pdfrwt beam="1">  1       21 0.13333882E-01 0.20691309E+03</pdfrwt>
<pdfrwt beam="2">  1       21 0.83653655E-01 0.20691309E+03</pdfrwt>
<totfact> 0.59938064E+04</totfact>
</mgrwt>
</event>
<event>
 4    3  0.3906307E+000  0.1730820E+03  0.7546771E-02  0.1174671E+00
         21   -1    0    0  501  502  0.00000000000E+00  0.00000000000E+00  0.59368307366E+03  0.59368307366E+03  0.00000000000E+00 0. -1.
         21   -1    0    0  502  503 -0.00000000000E+00 -0.00000000000E+00 -0.93632034115E+02  0.93632034115E+02  0.00000000000E+00 0. -1.
          6    1    1    2  501    0  0.48924866444E+00  0.53033606959E+01  0.48337881016E+03  0.51343201995E+03  0.17300000000E+03 0. -1.
         -6    1    1    2    0  503 -0.48924866444E+00 -0.53033606959E+01  0.16672229387E+02  0.17388308783E+03  0.17300000000E+03 0. -1.
<mgrwt>
<rscale>  2 0.17308196E+03</rscale>
<asrwt>0</asrwt>
<pdfrwt beam="1">  1       21 0.91335855E-01 0.17308196E+03</pdfrwt>
<pdfrwt beam="2">  1       21 0.14404929E-01 0.17308196E+03</pdfrwt>
<totfact> 0.43307701E+04</totfact>
</mgrwt>
</event>
<event>
 4    3  0.3906307E+000  0.1907020E+03  0.7546771E-02  0.1157830E+00
         21   -1    0    0  503  502  0.00000000000E+00  0.00000000000E+00  0.46188126421E+03  0.46188126421E+03  0.00000000000E+00 0. -1.
         21   -1    0    0  501  503 -0.00000000000E+00 -0.00000000000E+00 -0.78745106666E+02  0.78745106666E+02  0.00000000000E+00 0. -1.
          6    1    1    2  501    0  0.45254796525E+02  0.66258886876E+02  0.18885914507E+03  0.26839339294E+03  0.17300000000E+03 0. -1.
         -6    1    1    2    0  502 -0.45254796525E+02 -0.66258886876E+02  0.19427701247E+03  0.27223297793E+03  0.17300000000E+03 0. -1.
<mgrwt>
<rscale>  2 0.19070196E+03</rscale>
<asrwt>0</asrwt>
<pdfrwt beam="1">  1       21 0.71058654E-01 0.19070196E+03</pdfrwt>
<pdfrwt beam="2">  1       21 0.12114632E-01 0.19070196E+03</pdfrwt>
<totfact> 0.10349413E+05</totfact>
</mgrwt>
</event>
<event>
 4    3  0.3906307E+000  0.1789476E+03  0.7546771E-02  0.1168826E+00
         21   -1    0    0  503  502  0.00000000000E+00  0.00000000000E+00  0.27554380012E+02  0.27554380012E+02  0.00000000000E+00 0.  1.
         21   -1    0    0  501  503 -0.00000000000E+00 -0.00000000000E+00 -0.16233480237E+04  0.16233480237E+04  0.00000000000E+00 0.  1.
          6    1    1    2  501    0  0.38092064781E+02 -0.25342132194E+02 -0.12378747651E+04  0.12507422448E+04  0.17300000000E+03 0.  1.
         -6    1    1    2    0  502 -0.38092064781E+02  0.25342132194E+02 -0.35791887859E+03  0.40016015883E+03  0.17300000000E+03 0.  1.
<mgrwt>
<rscale>  2 0.17894756E+03</rscale>
<asrwt>0</asrwt>
<pdfrwt beam="1">  1       21 0.42391343E-02 0.17894756E+03</pdfrwt>
<pdfrwt beam="2">  1       21 0.24974592E+00 0.17894756E+03</pdfrwt>
<totfact> 0.24003058E+04</totfact>
</mgrwt>
</event>
<event>
 4    3  0.3906307E+000  0.1789932E+03  0.7546771E-02  0.1168781E+00
         21   -1    0    0  501  502  0.00000000000E+00  0.00000000000E+00  0.84088983390E+02  0.84088983390E+02  0.00000000000E+00 0. -1.
         21   -1    0    0  502  503 -0.00000000000E+00 -0.00000000000E+00 -0.50141662953E+03  0.50141662953E+03  0.00000000000E+00 0.  1.
          6    1    1    2  501    0 -0.41964412491E+02 -0.18670039673E+02 -0.65203977542E+02  0.19049971387E+03  0.17300000000E+03 0. -1.
         -6    1    1    2    0  503  0.41964412491E+02  0.18670039673E+02 -0.35212366859E+03  0.39500589905E+03  0.17300000000E+03 0.  1.
<mgrwt>
<rscale>  2 0.17899325E+03</rscale>
<asrwt>0</asrwt>
<pdfrwt beam="1">  1       21 0.12936767E-01 0.17899325E+03</pdfrwt>
<pdfrwt beam="2">  1       21 0.77141021E-01 0.17899325E+03</pdfrwt>
<totfact> 0.76998746E+04</totfact>
</mgrwt>
</event>
<event>
 4    3  0.3906307E+000  0.1941349E+03  0.7546771E-02  0.1154784E+00
         21   -1    0    0  501  502  0.00000000000E+00  0.00000000000E+00  0.13790357821E+03  0.13790357821E+03  0.00000000000E+00 0. -1.
         21   -1    0    0  502  503 -0.00000000000E+00 -0.00000000000E+00 -0.11553085709E+04  0.11553085709E+04  0.00000000000E+00 0. -1.
          6    1    1    2  501    0  0.71308303474E+02 -0.51715606330E+02  0.56271398381E+02  0.20212582309E+03  0.17300000000E+03 0. -1.
         -6    1    1    2    0  503 -0.71308303474E+02  0.51715606330E+02 -0.10736763911E+04  0.10910863260E+04  0.17300000000E+03 0. -1.
<mgrwt>
<rscale>  2 0.19413495E+03</rscale>
<asrwt>0</asrwt>
<pdfrwt beam="1">  1       21 0.21215935E-01 0.19413495E+03</pdfrwt>
<pdfrwt beam="2">  1       21 0.17773978E+00 0.19413495E+03</pdfrwt>
<totfact> 0.38915543E+03</totfact>
</mgrwt>
</event>
<event>
 4    3  0.3906307E+000  0.1808332E+03  0.7546771E-02  0.1166999E+00
         21   -1    0    0  501  502  0.00000000000E+00  0.00000000000E+00  0.29759443930E+02  0.29759443930E+02  0.00000000000E+00 0.  1.
         21   -1    0    0  502  503 -0.00000000000E+00 -0.00000000000E+00 -0.11799148128E+04  0.11799148128E+04  0.00000000000E+00 0.  1.
          6    1    1    2  501    0  0.43716771809E+02  0.29334196682E+02 -0.73363107904E+03  0.75558931395E+03  0.17300000000E+03 0.  1.
         -6    1    1    2    0  503 -0.43716771809E+02 -0.29334196682E+02 -0.41652428980E+03  0.45408494274E+03  0.17300000000E+03 0.  1.
<mgrwt>
<rscale>  2 0.18083321E+03</rscale>
<asrwt>0</asrwt>
<pdfrwt beam="1">  1       21 0.45783753E-02 0.18083321E+03</pdfrwt>
<pdfrwt beam="2">  1       21 0.18152538E+00 0.18083321E+03</pdfrwt>
<totfact> 0.55871428E+04</totfact>
</mgrwt>
</event>
<event>
 4    3  0.3906307E+000  0.2126491E+03  0.7546771E-02  0.1139485E+00
         21   -1    0    0  503  502  0.00000000000E+00  0.00000000000E+00  0.24677773565E+03  0.24677773565E+03  0.00000000000E+00 0.  1.
         21   -1    0    0  501  503 -0.00000000000E+00 -0.00000000000E+00 -0.21846657880E+03  0.21846657880E+03  0.00000000000E+00 0. -1.
          6    1    1    2  501    0  0.87825839812E+02  0.87047389030E+02  0.10756527578E+03  0.23830634618E+03  0.17300000000E+03 0.  1.
         -6    1    1    2    0  502 -0.87825839812E+02 -0.87047389030E+02 -0.79254118926E+02  0.22693796827E+03  0.17300000000E+03 0. -1.
<mgrwt>
<rscale>  2 0.21264907E+03</rscale>
<asrwt>0</asrwt>
<pdfrwt beam="1">  1       21 0.37965805E-01 0.21264907E+03</pdfrwt>
<pdfrwt beam="2">  1       21 0.33610243E-01 0.21264907E+03</pdfrwt>
<totfact> 0.56520923E+04</totfact>
</mgrwt>
</event>
<event>
 4    3  0.3906307E+000  0.1799119E+03  0.7546771E-02  0.1167888E+00
         21   -1    0    0  503  502  0.00000000000E+00  0.00000000000E+00  0.49073405822E+03  0.49073405822E+03  0.00000000000E+00 0. -1.
         21   -1    0    0  501  503 -0.00000000000E+00 -0.00000000000E+00 -0.26318000879E+03  0.26318000879E+03  0.00000000000E+00 0. -1.
          6    1    1    2  501    0 -0.18800030282E+02 -0.45671135008E+02 -0.21254175394E+03  0.27846416444E+03  0.17300000000E+03 0. -1.
         -6    1    1    2    0  502  0.18800030282E+02  0.45671135008E+02  0.44009580337E+03  0.47544990257E+03  0.17300000000E+03 0. -1.
<mgrwt>
<rscale>  2 0.17991191E+03</rscale>
<asrwt>0</asrwt>
<pdfrwt beam="1">  1       21 0.75497547E-01 0.17991191E+03</pdfrwt>
<pdfrwt beam="2">  1       21 0.40489232E-01 0.17991191E+03</pdfrwt>
<totfact> 0.92907469E+03</totfact>
</mgrwt>
</event>
<event>
 4    3  0.3906307E+000  0.1906026E+03  0.7546771E-02  0.1157919E+00
         21   -1    0    0  503  502  0.00000000000E+00  0.00000000000E+00  0.31353159531E+03  0.31353159531E+03  0.00000000000E+00 0.  1.
         21   -1    0    0  501  503 -0.00000000000E+00 -0.00000000000E+00 -0.18326002415E+03  0.18326002415E+03  0.00000000000E+00 0.  1.
          6    1    1    2  501    0 -0.56311892679E+02  0.56827106464E+02 -0.85491498405E+02  0.20889745232E+03  0.17300000000E+03 0.  1.
         -6    1    1    2    0  502  0.56311892679E+02 -0.56827106464E+02  0.21576306956E+03  0.28789416714E+03  0.17300000000E+03 0.  1.
<mgrwt>
<rscale>  2 0.19060260E+03</rscale>
<asrwt>0</asrwt>
<pdfrwt beam="1">  1       21 0.48235630E-01 0.19060260E+03</pdfrwt>
<pdfrwt beam="2">  1       21 0.28193850E-01 0.19060260E+03</pdfrwt>
<totfact> 0.49411509E+04</totfact>
</mgrwt>
</event>
<event>
 4    3  0.3906307E+000  0.2236875E+03  0.7546771E-02  0.1131163E+00
         21   -1    0    0  503  502  0.00000000000E+00  0.00000000000E+00  0.92179771240E+02  0.92179771240E+02  0.00000000000E+00 0.  1.
         21   -1    0    0  501  503 -0.00000000000E+00 -0.00000000000E+00 -0.92974898921E+03  0.92974898921E+03  0.00000000000E+00 0.  1.
          6    1    1    2  501    0 -0.12749230443E+03  0.62071016010E+02 -0.74841635649E+03  0.78112940118E+03  0.17300000000E+03 0.  1.
         -6    1    1    2    0  502  0.12749230443E+03 -0.62071016010E+02 -0.89152861483E+02  0.24079935928E+03  0.17300000000E+03 0.  1.
<mgrwt>
<rscale>  2 0.22368750E+03</rscale>
<asrwt>0</asrwt>
<pdfrwt beam="1">  1       21 0.14181503E-01 0.22368750E+03</pdfrwt>
<pdfrwt beam="2">  1       21 0.14303831E+00 0.22368750E+03</pdfrwt>
<totfact> 0.14397028E+04</totfact>
</mgrwt>
</event>
<event>
 4    3  0.3906307E+000  0.2562165E+03  0.7546771E-02  0.1109438E+00
         21   -1    0    0  503  502  0.00000000000E+00  0.00000000000E+00  0.48797141681E+02  0.48797141681E+02  0.00000000000E+00 0. -1.
         21   -1    0    0  501  503 -0.00000000000E+00 -0.00000000000E+00 -0.13972412535E+04  0.13972412535E+04  0.00000000000E+00 0.  1.
          6    1    1    2  501    0 -0.10314515524E+03  0.15836347907E+03 -0.53482292248E+03  0.59302822273E+03  0.17300000000E+03 0. -1.
         -6    1    1    2    0  502  0.10314515524E+03 -0.15836347907E+03 -0.81362118930E+03  0.85301017241E+03  0.17300000000E+03 0.  1.
<mgrwt>
<rscale>  2 0.25621654E+03</rscale>
<asrwt>0</asrwt>
<pdfrwt beam="1">  1       21 0.75072524E-02 0.25621654E+03</pdfrwt>
<pdfrwt beam="2">  1       21 0.21496020E+00 0.25621654E+03</pdfrwt>
<totfact> 0.13817002E+04</totfact>
</mgrwt>
</event>
<event>
 4    3  0.3906307E+000  0.2232519E+03  0.7546771E-02  0.1131482E+00
         21   -1    0    0  501  502  0.00000000000E+00  0.00000000000E+00  0.85223087014E+02  0.85223087014E+02  0.00000000000E+00 0.  1.
         21   -1    0    0  502  503 -0.00000000000E+00 -0.00000000000E+00 -0.76867807983E+03  0.76867807983E+03  0.00000000000E+00 0.  1.
          6    1    1    2  501    0 -0.13696305115E+03 -0.33963786438E+02 -0.13292802565E+03  0.25982932123E+03  0.17300000000E+03 0.  1.
         -6    1    1    2    0  503  0.13696305115E+03  0.33963786438E+02 -0.55052696717E+03  0.59407184561E+03  0.17300000000E+03 0.  1.
<mgrwt>
<rscale>  2 0.22325191E+03</rscale>
<asrwt>0</asrwt>
<pdfrwt beam="1">  1       21 0.13111244E-01 0.22325191E+03</pdfrwt>
<pdfrwt beam="2">  1       21 0.11825817E+00 0.22325191E+03</pdfrwt>
<totfact> 0.26927340E+04</totfact>
</mgrwt>
</event>
<event>
 4    3  0.3906307E+000  0.1807094E+03  0.7546771E-02  0.1167118E+00
         21   -1    0    0  503  502  0.00000000000E+00  0.00000000000E+00  0.16782444797E+04  0.16782444797E+04  0.00000000000E+00 0. -1.
         21   -1    0    0  501  503 -0.00000000000E+00 -0.00000000000E+00 -0.31358567111E+02  0.31358567111E+02  0.00000000000E+00 0. -1.
          6    1    1    2  501    0  0.49796825168E+02  0.15721446035E+02  0.29686288826E+03  0.34753915188E+03  0.17300000000E+03 0. -1.
         -6    1    1    2    0  502 -0.49796825168E+02 -0.15721446035E+02  0.13500230243E+04  0.13620638949E+04  0.17300000000E+03 0. -1.
<mgrwt>
<rscale>  2 0.18070940E+03</rscale>
<asrwt>0</asrwt>
<pdfrwt beam="1">  1       21 0.25819139E+00 0.18070940E+03</pdfrwt>
<pdfrwt beam="2">  1       21 0.48243962E-02 0.18070940E+03</pdfrwt>
<totfact> 0.17205537E+04</totfact>
</mgrwt>
</event>
<event>
 4    3  0.3906307E+000  0.2249560E+03  0.7546771E-02  0.1130241E+00
         21   -1    0    0  501  502  0.00000000000E+00  0.00000000000E+00  0.19108031717E+03  0.19108031717E+03  0.00000000000E+00 0. -1.
         21   -1    0    0  502  503 -0.00000000000E+00 -0.00000000000E+00 -0.39429528756E+03  0.39429528756E+03  0.00000000000E+00 0.  1.
          6    1    1    2  501    0 -0.11503593507E+03  0.86272547908E+02  0.66102163451E+02  0.23446687377E+03  0.17300000000E+03 0. -1.
         -6    1    1    2    0  503  0.11503593507E+03 -0.86272547908E+02 -0.26931713384E+03  0.35090873096E+03  0.17300000000E+03 0.  1.
<mgrwt>
<rscale>  2 0.22495604E+03</rscale>
<asrwt>0</asrwt>
<pdfrwt beam="1">  1       21 0.29396972E-01 0.22495604E+03</pdfrwt>
<pdfrwt beam="2">  1       21 0.60660813E-01 0.22495604E+03</pdfrwt>
<totfact> 0.27571704E+04</totfact>
</mgrwt>
</event>
<event>
 4    3  0.3906307E+000  0.2137298E+03  0.7546771E-02  0.1138646E+00
         21   -1    0    0  501  502  0.00000000000E+00  0.00000000000E+00  0.41210970947E+03  0.41210970947E+03  0.00000000000E+00 0.  1.
         21   -1    0    0  502  503 -0.00000000000E+00 -0.00000000000E+00 -0.20466349247E+03  0.20466349247E+03  0.00000000000E+00 0. -1.
          6    1    1    2  501    0  0.47378169246E+02  0.11621840336E+03  0.31251754934E+03  0.37861276636E+03  0.17300000000E+03 0.  1.
         -6    1    1    2    0  503 -0.47378169246E+02 -0.11621840336E+03 -0.10507133234E+03  0.23816043559E+03  0.17300000000E+03 0. -1.
<mgrwt>
<rscale>  2 0.21372976E+03</rscale>
<asrwt>0</asrwt>
<pdfrwt beam="1">  1       21 0.63401494E-01 0.21372976E+03</pdfrwt>
<pdfrwt beam="2">  1       21 0.31486691E-01 0.21372976E+03</pdfrwt>
<totfact> 0.22033005E+04</totfact>
</mgrwt>
</event>
<event>
 4    3  0.3906307E+000  0.2014770E+03  0.7546771E-02  0.1148499E+00
         21   -1    0    0  501  502  0.00000000000E+00  0.00000000000E+00  0.59843962260E+03  0.59843962260E+03  0.00000000000E+00 0.  1.
         21   -1    0    0  502  503 -0.00000000000E+00 -0.00000000000E+00 -0.67831345315E+02  0.67831345315E+02  0.00000000000E+00 0.  1.
          6    1    1    2  501    0  0.86778417528E+02  0.55977400637E+02  0.26536945607E+03  0.33318750178E+03  0.17300000000E+03 0.  1.
         -6    1    1    2    0  503 -0.86778417528E+02 -0.55977400637E+02  0.26523882122E+03  0.33308346613E+03  0.17300000000E+03 0.  1.
<mgrwt>
<rscale>  2 0.20147695E+03</rscale>
<asrwt>0</asrwt>
<pdfrwt beam="1">  1       21 0.92067631E-01 0.20147695E+03</pdfrwt>
<pdfrwt beam="2">  1       21 0.10435592E-01 0.20147695E+03</pdfrwt>
<totfact> 0.74693246E+04</totfact>
</mgrwt>
</event>
<event>
 4    3  0.3906307E+000  0.1796309E+03  0.7546771E-02  0.1168161E+00
         21   -1    0    0  503  502  0.00000000000E+00  0.00000000000E+00  0.47774992321E+03  0.47774992321E+03  0.00000000000E+00 0.  1.
         21   -1    0    0  501  503 -0.00000000000E+00 -0.00000000000E+00 -0.77030281415E+02  0.77030281415E+02  0.00000000000E+00 0.  1.
          6    1    1    2  501    0 -0.32510321082E+02  0.35795578833E+02  0.10299567391E+03  0.20706364549E+03  0.17300000000E+03 0.  1.
         -6    1    1    2    0  502  0.32510321082E+02 -0.35795578833E+02  0.29772396789E+03  0.34771655913E+03  0.17300000000E+03 0.  1.
<mgrwt>
<rscale>  2 0.17963086E+03</rscale>
<asrwt>0</asrwt>
<pdfrwt beam="1">  1       21 0.73499986E-01 0.17963086E+03</pdfrwt>
<pdfrwt beam="2">  1       21 0.11850813E-01 0.17963086E+03</pdfrwt>
<totfact> 0.10031240E+05</totfact>
</mgrwt>
</event>
<event>
 4    3  0.3906307E+000  0.1962424E+03  0.7546771E-02  0.1152949E+00
         21   -1    0    0  501  502  0.00000000000E+00  0.00000000000E+00  0.26203149379E+03  0.26203149379E+03  0.00000000000E+00 0.  1.
         21   -1    0    0  502  503 -0.00000000000E+00 -0.00000000000E+00 -0.15835527960E+03  0.15835527960E+03  0.00000000000E+00 0. -1.
          6    1    1    2  501    0  0.28720011669E+02 -0.88075236313E+02  0.10819557859E+03  0.22409232372E+03  0.17300000000E+03 0.  1.
         -6    1    1    2    0  503 -0.28720011669E+02  0.88075236313E+02 -0.45193644008E+01  0.19629444968E+03  0.17300000000E+03 0. -1.
<mgrwt>
<rscale>  2 0.19624242E+03</rscale>
<asrwt>0</asrwt>
<pdfrwt beam="1">  1       21 0.40312538E-01 0.19624242E+03</pdfrwt>
<pdfrwt beam="2">  1       21 0.24362351E-01 0.19624242E+03</pdfrwt>
<totfact> 0.94211699E+04</totfact>
</mgrwt>
</event>
<event>
 4    3  0.3906307E+000  0.1772951E+03  0.7546771E-02  0.1170447E+00
         21   -1    0    0  501  502  0.00000000000E+00  0.00000000000E+00  0.18972188386E+04  0.18972188386E+04  0.00000000000E+00 0. -1.
         21   -1    0    0  502  503 -0.00000000000E+00 -0.00000000000E+00 -0.17563813695E+02  0.17563813695E+02  0.00000000000E+00 0. -1.
          6    1    1    2  501    0 -0.13289673992E+01 -0.38765984249E+02  0.11677661039E+04  0.11811482723E+04  0.17300000000E+03 0. -1.
         -6    1    1    2    0  503  0.13289673992E+01  0.38765984249E+02  0.71188892093E+03  0.73363437994E+03  0.17300000000E+03 0. -1.
<mgrwt>
<rscale>  2 0.17729514E+03</rscale>
<asrwt>0</asrwt>
<pdfrwt beam="1">  1       21 0.29187966E+00 0.17729514E+03</pdfrwt>
<pdfrwt beam="2">  1       21 0.27021267E-02 0.17729514E+03</pdfrwt>
<totfact> 0.29014717E+04</totfact>
</mgrwt>
</event>
<event>
 4    3  0.3906307E+000  0.1861931E+03  0.7546771E-02  0.1161940E+00
         21   -1    0    0  501  502  0.00000000000E+00  0.00000000000E+00  0.39586037798E+02  0.39586037798E+02  0.00000000000E+00 0.  1.
         21   -1    0    0  502  503 -0.00000000000E+00 -0.00000000000E+00 -0.91616933400E+03  0.91616933400E+03  0.00000000000E+00 0.  1.
          6    1    1    2  501    0  0.66911324229E+02  0.16178078268E+02 -0.33792914627E+03  0.38582893026E+03  0.17300000000E+03 0.  1.
         -6    1    1    2    0  503 -0.66911324229E+02 -0.16178078268E+02 -0.53865414993E+03  0.56992644153E+03  0.17300000000E+03 0.  1.
<mgrwt>
<rscale>  2 0.18619306E+03</rscale>
<asrwt>0</asrwt>
<pdfrwt beam="1">  1       21 0.60901596E-02 0.18619306E+03</pdfrwt>
<pdfrwt beam="2">  1       21 0.14094913E+00 0.18619306E+03</pdfrwt>
<totfact> 0.67807064E+04</totfact>
</mgrwt>
</event>
<event>
 4    3  0.3906307E+000  0.1974714E+03  0.7546771E-02  0.1151890E+00
         21   -1    0    0  501  502  0.00000000000E+00  0.00000000000E+00  0.15895777476E+04  0.15895777476E+04  0.00000000000E+00 0. -1.
         21   -1    0    0  502  503 -0.00000000000E+00 -0.00000000000E+00 -0.71030923067E+02  0.71030923067E+02  0.00000000000E+00 0.  1.
          6    1    1    2  501    0 -0.30296091958E+02 -0.90266831103E+02  0.14310682933E+04  0.14446284692E+04  0.17300000000E+03 0. -1.
         -6    1    1    2    0  503  0.30296091958E+02  0.90266831103E+02  0.87478531208E+02  0.21598020142E+03  0.17300000000E+03 0.  1.
<mgrwt>
<rscale>  2 0.19747140E+03</rscale>
<asrwt>0</asrwt>
<pdfrwt beam="1">  1       21 0.24455040E+00 0.19747140E+03</pdfrwt>
<pdfrwt beam="2">  1       21 0.10927835E-01 0.19747140E+03</pdfrwt>
<totfact> 0.49403805E+03</totfact>
</mgrwt>
</event>
<event>
 4    3  0.3906307E+000  0.2227897E+03  0.7546771E-02  0.1131820E+00
         21   -1    0    0  503  502  0.00000000000E+00  0.00000000000E+00  0.40633201208E+03  0.40633201208E+03  0.00000000000E+00 0. -1.
         21   -1    0    0  501  503 -0.00000000000E+00 -0.00000000000E+00 -0.12267815053E+03  0.12267815053E+03  0.00000000000E+00 0.  1.
          6    1    1    2  501    0 -0.91129599028E+02 -0.10677853989E+03  0.15910897179E+03  0.27377166637E+03  0.17300000000E+03 0. -1.
         -6    1    1    2    0  502  0.91129599028E+02  0.10677853989E+03  0.12454488976E+03  0.25523849624E+03  0.17300000000E+03 0.  1.
<mgrwt>
<rscale>  2 0.22278972E+03</rscale>
<asrwt>0</asrwt>
<pdfrwt beam="1">  1       21 0.62512617E-01 0.22278972E+03</pdfrwt>
<pdfrwt beam="2">  1       21 0.18873562E-01 0.22278972E+03</pdfrwt>
<totfact> 0.60168211E+04</totfact>
</mgrwt>
</event>
<event>
 4    3  0.3906307E+000  0.1886285E+03  0.7546771E-02  0.1159704E+00
         21   -1    0    0  503  502  0.00000000000E+00  0.00000000000E+00  0.26275277277E+02  0.26275277277E+02  0.00000000000E+00 0.  1.
         21   -1    0    0  501  503 -0.00000000000E+00 -0.00000000000E+00 -0.14255206262E+04  0.14255206262E+04  0.00000000000E+00 0.  1.
          6    1    1    2  501    0 -0.74288625995E+02  0.11528952811E+02 -0.86204390042E+03  0.88244002797E+03  0.17300000000E+03 0.  1.
         -6    1    1    2    0  502  0.74288625995E+02 -0.11528952811E+02 -0.53720144852E+03  0.56935587553E+03  0.17300000000E+03 0.  1.
<mgrwt>
<rscale>  2 0.18862852E+03</rscale>
<asrwt>0</asrwt>
<pdfrwt beam="1">  1       21 0.40423506E-02 0.18862852E+03</pdfrwt>
<pdfrwt beam="2">  1       21 0.21931085E+00 0.18862852E+03</pdfrwt>
<totfact> 0.39222804E+04</totfact>
</mgrwt>
</event>
<event>
 4    3  0.3906307E+000  0.2063678E+03  0.7546771E-02  0.1144475E+00
         21   -1    0    0  503  502  0.00000000000E+00  0.00000000000E+00  0.13378441785E+03  0.13378441785E+03  0.00000000000E+00 0. -1.
         21   -1    0    0  501  503 -0.00000000000E+00 -0.00000000000E+00 -0.32161617201E+03  0.32161617201E+03  0.00000000000E+00 0. -1.
          6    1    1    2  501    0  0.38237950239E+02  0.10581357503E+03 -0.11693083993E+03  0.23719290636E+03  0.17300000000E+03 0. -1.
         -6    1    1    2    0  502 -0.38237950239E+02 -0.10581357503E+03 -0.70900914234E+02  0.21820768350E+03  0.17300000000E+03 0. -1.
<mgrwt>
<rscale>  2 0.20636776E+03</rscale>
<asrwt>0</asrwt>
<pdfrwt beam="1">  1       21 0.20582218E-01 0.20636776E+03</pdfrwt>
<pdfrwt beam="2">  1       21 0.49479411E-01 0.20636776E+03</pdfrwt>
<totfact> 0.84703940E+04</totfact>
</mgrwt>
</event>
<event>
 4    3  0.3906307E+000  0.1763449E+03  0.7546771E-02  0.1171388E+00
         21   -1    0    0  503  502  0.00000000000E+00  0.00000000000E+00  0.86879565286E+02  0.86879565286E+02  0.00000000000E+00 0. -1.
         21   -1    0    0  501  503 -0.00000000000E+00 -0.00000000000E+00 -0.48410323848E+03  0.48410323848E+03  0.00000000000E+00 0. -1.
          6    1    1    2  501    0  0.19189182233E+02 -0.28289583121E+02 -0.34435673208E+03  0.38688381221E+03  0.17300000000E+03 0.  1.
         -6    1    1    2    0  502 -0.19189182233E+02  0.28289583121E+02 -0.52866941122E+02  0.18409899155E+03  0.17300000000E+03 0.  1.
<mgrwt>
<rscale>  2 0.17634490E+03</rscale>
<asrwt>0</asrwt>
<pdfrwt beam="1">  1       21 0.13366087E-01 0.17634490E+03</pdfrwt>
<pdfrwt beam="2">  1       21 0.74477420E-01 0.17634490E+03</pdfrwt>
<totfact> 0.78622579E+04</totfact>
</mgrwt>
</event>
<event>
 4    3  0.3906307E+000  0.1754364E+03  0.7546771E-02  0.1172294E+00
         21   -1    0    0  501  502  0.00000000000E+00  0.00000000000E+00  0.80112139693E+03  0.80112139693E+03  0.00000000000E+00 0. -1.
         21   -1    0    0  502  503 -0.00000000000E+00 -0.00000000000E+00 -0.38611489780E+02  0.38611489780E+02  0.00000000000E+00 0. -1.
          6    1    1    2  501    0  0.25719121413E+02  0.13692089494E+02  0.41093263363E+03  0.44681492354E+03  0.17300000000E+03 0.  1.
         -6    1    1    2    0  503 -0.25719121413E+02 -0.13692089494E+02  0.35157727352E+03  0.39291796317E+03  0.17300000000E+03 0.  1.
<mgrwt>
<rscale>  2 0.17543645E+03</rscale>
<asrwt>0</asrwt>
<pdfrwt beam="1">  1       21 0.12324943E+00 0.17543645E+03</pdfrwt>
<pdfrwt beam="2">  1       21 0.59402298E-02 0.17543645E+03</pdfrwt>
<totfact> 0.99872237E+04</totfact>
</mgrwt>
</event>
<event>
 4    3  0.3906307E+000  0.2466274E+03  0.7546771E-02  0.1115455E+00
         21   -1    0    0  501  502  0.00000000000E+00  0.00000000000E+00  0.31098784780E+03  0.31098784780E+03  0.00000000000E+00 0.  1.
         21   -1    0    0  502  503 -0.00000000000E+00 -0.00000000000E+00 -0.66683041698E+03  0.66683041698E+03  0.00000000000E+00 0. -1.
          6    1    1    2  501    0  0.80445481518E+02 -0.15628372099E+03  0.23308006687E+03  0.33933964477E+03  0.17300000000E+03 0.  1.
         -6    1    1    2    0  503 -0.80445481518E+02  0.15628372099E+03 -0.58892263605E+03  0.63847862000E+03  0.17300000000E+03 0. -1.
<mgrwt>
<rscale>  2 0.24662741E+03</rscale>
<asrwt>0</asrwt>
<pdfrwt beam="1">  1       21 0.47844284E-01 0.24662741E+03</pdfrwt>
<pdfrwt beam="2">  1       21 0.10258929E+00 0.24662741E+03</pdfrwt>
<totfact> 0.30935856E+03</totfact>
</mgrwt>
</event>
<event>
 4    3  0.3906307E+000  0.2268336E+03  0.7546771E-02  0.1128888E+00
         21   -1    0    0  501  502  0.00000000000E+00  0.00000000000E+00  0.58946394163E+02  0.58946394163E+02  0.00000000000E+00 0. -1.
         21   -1    0    0  502  503 -0.00000000000E+00 -0.00000000000E+00 -0.87297790699E+03  0.87297790699E+03  0.00000000000E+00 0. -1.
          6    1    1    2  501    0  0.95170072466E+02 -0.11165639487E+03 -0.41179195300E+03  0.47013413593E+03  0.17300000000E+03 0. -1.
         -6    1    1    2    0  503 -0.95170072466E+02  0.11165639487E+03 -0.40223955982E+03  0.46179016522E+03  0.17300000000E+03 0. -1.
<mgrwt>
<rscale>  2 0.22683362E+03</rscale>
<asrwt>0</asrwt>
<pdfrwt beam="1">  1       21 0.90686763E-02 0.22683362E+03</pdfrwt>
<pdfrwt beam="2">  1       21 0.13430429E+00 0.22683362E+03</pdfrwt>
<totfact> 0.37643859E+04</totfact>
</mgrwt>
</event>
<event>
 4    3  0.3906307E+000  0.2092064E+03  0.7546771E-02  0.1142196E+00
         21   -1    0    0  503  502  0.00000000000E+00  0.00000000000E+00  0.13642978026E+03  0.13642978026E+03  0.00000000000E+00 0. -1.
         21   -1    0    0  501  503 -0.00000000000E+00 -0.00000000000E+00 -0.33856099459E+03  0.33856099459E+03  0.00000000000E+00 0. -1.
          6    1    1    2  501    0 -0.29294121682E+02  0.11393046765E+03 -0.15545503324E+03  0.26064068060E+03  0.17300000000E+03 0. -1.
         -6    1    1    2    0  502  0.29294121682E+02 -0.11393046765E+03 -0.46676181084E+02  0.21435009425E+03  0.17300000000E+03 0. -1.
<mgrwt>
<rscale>  2 0.20920635E+03</rscale>
<asrwt>0</asrwt>
<pdfrwt beam="1">  1       21 0.20989197E-01 0.20920635E+03</pdfrwt>
<pdfrwt beam="2">  1       21 0.52086306E-01 0.20920635E+03</pdfrwt>
<totfact> 0.73235605E+04</totfact>
</mgrwt>
</event>
<event>
 4    3  0.3906307E+000  0.2351810E+03  0.7546771E-02  0.1123045E+00
         21   -1    0    0  501  502  0.00000000000E+00  0.00000000000E+00  0.63263470249E+03  0.63263470249E+03  0.00000000000E+00 0.  1.
         21   -1    0    0  502  503 -0.00000000000E+00 -0.00000000000E+00 -0.10459459666E+03  0.10459459666E+03  0.00000000000E+00 0.  1.
          6    1    1    2  501    0  0.31292898094E+02  0.15621094356E+03  0.41335371547E+03  0.47557480847E+03  0.17300000000E+03 0.  1.
         -6    1    1    2    0  503 -0.31292898094E+02 -0.15621094356E+03  0.11468639036E+03  0.26165449068E+03  0.17300000000E+03 0.  1.
<mgrwt>
<rscale>  2 0.23518100E+03</rscale>
<asrwt>0</asrwt>
<pdfrwt beam="1">  1       21 0.97328413E-01 0.23518100E+03</pdfrwt>
<pdfrwt beam="2">  1       21 0.16091477E-01 0.23518100E+03</pdfrwt>
<totfact> 0.29514561E+04</totfact>
</mgrwt>
</event>
<event>
 4    3  0.3906307E+000  0.2484010E+03  0.7546771E-02  0.1114320E+00
         21   -1    0    0  501  502  0.00000000000E+00  0.00000000000E+00  0.13156951674E+03  0.13156951674E+03  0.00000000000E+00 0. -1.
         21   -1    0    0  502  503 -0.00000000000E+00 -0.00000000000E+00 -0.68913621056E+03  0.68913621056E+03  0.00000000000E+00 0.  1.
          6    1    1    2  501    0 -0.75143395211E+02 -0.16164008063E+03 -0.46844442786E+02  0.25277944404E+03  0.17300000000E+03 0. -1.
         -6    1    1    2    0  503  0.75143395211E+02  0.16164008063E+03 -0.51072225103E+03  0.56792628326E+03  0.17300000000E+03 0.  1.
<mgrwt>
<rscale>  2 0.24840098E+03</rscale>
<asrwt>0</asrwt>
<pdfrwt beam="1">  1       21 0.20241464E-01 0.24840098E+03</pdfrwt>
<pdfrwt beam="2">  1       21 0.10602095E+00 0.24840098E+03</pdfrwt>
<totfact> 0.15584574E+04</totfact>
</mgrwt>
</event>
<event>
 4    3  0.3906307E+000  0.2019692E+03  0.7546771E-02  0.1148088E+00
         21   -1    0    0  501  502  0.00000000000E+00  0.00000000000E+00  0.12767083597E+04  0.12767083597E+04  0.00000000000E+00 0. -1.
         21   -1    0    0  502  503 -0.00000000000E+00 -0.00000000000E+00 -0.68507231918E+02  0.68507231918E+02  0.00000000000E+00 0.  1.
          6    1    1    2  501    0 -0.10115695519E+03  0.25096444311E+02  0.10954347097E+04  0.11138980044E+04  0.17300000000E+03 0. -1.
         -6    1    1    2    0  503  0.10115695519E+03 -0.25096444311E+02  0.11276641814E+03  0.23131758723E+03  0.17300000000E+03 0.  1.
<mgrwt>
<rscale>  2 0.20196921E+03</rscale>
<asrwt>0</asrwt>
<pdfrwt beam="1">  1       21 0.19641665E+00 0.20196921E+03</pdfrwt>
<pdfrwt beam="2">  1       21 0.10539575E-01 0.20196921E+03</pdfrwt>
<totfact> 0.10390058E+04</totfact>
</mgrwt>
</event>
<event>
 4    3  0.3906307E+000  0.1733885E+03  0.7546771E-02  0.1174360E+00
         21   -1    0    0  503  502  0.00000000000E+00  0.00000000000E+00  0.27102180252E+03  0.27102180252E+03  0.00000000000E+00 0. -1.
         21   -1    0    0  501  503 -0.00000000000E+00 -0.00000000000E+00 -0.14514556136E+03  0.14514556136E+03  0.00000000000E+00 0. -1.
          6    1    1    2  501    0  0.11558133664E+02 -0.99369288466E+00 -0.38096069975E+02  0.17752433193E+03  0.17300000000E+03 0.  1.
         -6    1    1    2    0  502 -0.11558133664E+02  0.99369288466E+00  0.16397231114E+03  0.23864303195E+03  0.17300000000E+03 0.  1.
<mgrwt>
<rscale>  2 0.17338852E+03</rscale>
<asrwt>0</asrwt>
<pdfrwt beam="1">  1       21 0.41695662E-01 0.17338852E+03</pdfrwt>
<pdfrwt beam="2">  1       21 0.22330086E-01 0.17338852E+03</pdfrwt>
<totfact> 0.10468485E+05</totfact>
</mgrwt>
</event>
<event>
 4    3  0.3906307E+000  0.1883396E+03  0.7546771E-02  0.1159967E+00
         21   -1    0    0  503  502  0.00000000000E+00  0.00000000000E+00  0.17700695853E+03  0.17700695853E+03  0.00000000000E+00 0.  1.
         21   -1    0    0  501  503 -0.00000000000E+00 -0.00000000000E+00 -0.26801714079E+03  0.26801714079E+03  0.00000000000E+00 0.  1.
          6    1    1    2  501    0 -0.34165088342E+02 -0.66147899155E+02 -0.15727061219E+03  0.24536879036E+03  0.17300000000E+03 0.  1.
         -6    1    1    2    0  502  0.34165088342E+02  0.66147899155E+02  0.66260429923E+02  0.19965530896E+03  0.17300000000E+03 0.  1.
<mgrwt>
<rscale>  2 0.18833958E+03</rscale>
<asrwt>0</asrwt>
<pdfrwt beam="1">  1       21 0.27231840E-01 0.18833958E+03</pdfrwt>
<pdfrwt beam="2">  1       21 0.41233406E-01 0.18833958E+03</pdfrwt>
<totfact> 0.72950894E+04</totfact>
</mgrwt>
</event>
<event>
 4    3  0.3906307E+000  0.1889343E+03  0.7546771E-02  0.1159426E+00
         21   -1    0    0  501  502  0.00000000000E+00  0.00000000000E+00  0.24283382994E+03  0.24283382994E+03  0.00000000000E+00 0.  1.
         21   -1    0    0  502  503 -0.00000000000E+00 -0.00000000000E+00 -0.15071141232E+03  0.15071141232E+03  0.00000000000E+00 0.  1.
          6    1    1    2  501    0  0.25086113503E+02  0.71678712715E+02  0.15175123360E+02  0.18954270051E+03  0.17300000000E+03 0.  1.
         -6    1    1    2    0  503 -0.25086113503E+02 -0.71678712715E+02  0.76947294255E+02  0.20400254175E+03  0.17300000000E+03 0.  1.
<mgrwt>
<rscale>  2 0.18893425E+03</rscale>
<asrwt>0</asrwt>
<pdfrwt beam="1">  1       21 0.37359051E-01 0.18893425E+03</pdfrwt>
<pdfrwt beam="2">  1       21 0.23186371E-01 0.18893425E+03</pdfrwt>
<totfact> 0.12094283E+05</totfact>
</mgrwt>
</event>
<event>
 4    3  0.3906307E+000  0.1802602E+03  0.7546771E-02  0.1167551E+00
         21   -1    0    0  503  502  0.00000000000E+00  0.00000000000E+00  0.89730395524E+03  0.89730395524E+03  0.00000000000E+00 0.  1.
         21   -1    0    0  501  503 -0.00000000000E+00 -0.00000000000E+00 -0.43742493361E+02  0.43742493361E+02  0.00000000000E+00 0.  1.
          6    1    1    2  501    0 -0.22869183433E+02 -0.45185664335E+02  0.23156149984E+03  0.29345267424E+03  0.17300000000E+03 0.  1.
         -6    1    1    2    0  502  0.22869183433E+02  0.45185664335E+02  0.62199996204E+03  0.64759377436E+03  0.17300000000E+03 0.  1.
<mgrwt>
<rscale>  2 0.18026021E+03</rscale>
<asrwt>0</asrwt>
<pdfrwt beam="1">  1       21 0.13804675E+00 0.18026021E+03</pdfrwt>
<pdfrwt beam="2">  1       21 0.67296150E-02 0.18026021E+03</pdfrwt>
<totfact> 0.60460254E+04</totfact>
</mgrwt>
</event>
<event>
 4    3  0.3906307E+000  0.1798126E+03  0.7546771E-02  0.1167984E+00
         21   -1    0    0  501  502  0.00000000000E+00  0.00000000000E+00  0.36120511052E+03  0.36120511052E+03  0.00000000000E+00 0. -1.
         21   -1    0    0  502  503 -0.00000000000E+00 -0.00000000000E+00 -0.90081628393E+02  0.90081628393E+02  0.00000000000E+00 0. -1.
          6    1    1    2  501    0 -0.44210321629E+02  0.21190432906E+02  0.15348771914E+03  0.23641291613E+03  0.17300000000E+03 0.  1.
         -6    1    1    2    0  503  0.44210321629E+02 -0.21190432906E+02  0.11763576299E+03  0.21487382279E+03  0.17300000000E+03 0.  1.
<mgrwt>
<rscale>  2 0.17981264E+03</rscale>
<asrwt>0</asrwt>
<pdfrwt beam="1">  1       21 0.55570016E-01 0.17981264E+03</pdfrwt>
<pdfrwt beam="2">  1       21 0.13858712E-01 0.17981264E+03</pdfrwt>
<totfact> 0.13881266E+05</totfact>
</mgrwt>
</event>
<event>
 4    3  0.3906307E+000  0.1798134E+03  0.7546771E-02  0.1167984E+00
         21   -1    0    0  501  502  0.00000000000E+00  0.00000000000E+00  0.10197374289E+04  0.10197374289E+04  0.00000000000E+00 0. -1.
         21   -1    0    0  502  503 -0.00000000000E+00 -0.00000000000E+00 -0.60478167810E+02  0.60478167810E+02  0.00000000000E+00 0. -1.
          6    1    1    2  501    0  0.47831988674E+02  0.10768325881E+02  0.85215819104E+03  0.87092275119E+03  0.17300000000E+03 0. -1.
         -6    1    1    2    0  503 -0.47831988674E+02 -0.10768325881E+02  0.10710107006E+03  0.20929284553E+03  0.17300000000E+03 0. -1.
<mgrwt>
<rscale>  2 0.17981339E+03</rscale>
<asrwt>0</asrwt>
<pdfrwt beam="1">  1       21 0.15688267E+00 0.17981339E+03</pdfrwt>
<pdfrwt beam="2">  1       21 0.93043343E-02 0.17981339E+03</pdfrwt>
<totfact> 0.24660124E+04</totfact>
</mgrwt>
</event>
<event>
 4    3  0.3906307E+000  0.1928551E+03  0.7546771E-02  0.1155911E+00
         21   -1    0    0  501  502  0.00000000000E+00  0.00000000000E+00  0.77610759206E+03  0.77610759206E+03  0.00000000000E+00 0. -1.
         21   -1    0    0  502  503 -0.00000000000E+00 -0.00000000000E+00 -0.59656680859E+02  0.59656680859E+02  0.00000000000E+00 0.  1.
          6    1    1    2  501    0 -0.85168045095E+02 -0.32409871729E+01  0.54355670487E+03  0.57675557329E+03  0.17300000000E+03 0. -1.
         -6    1    1    2    0  503  0.85168045095E+02  0.32409871729E+01  0.17289420632E+03  0.25900869963E+03  0.17300000000E+03 0.  1.
<mgrwt>
<rscale>  2 0.19285513E+03</rscale>
<asrwt>0</asrwt>
<pdfrwt beam="1">  1       21 0.11940116E+00 0.19285513E+03</pdfrwt>
<pdfrwt beam="2">  1       21 0.91779515E-02 0.19285513E+03</pdfrwt>
<totfact> 0.50462621E+04</totfact>
</mgrwt>
</event>
<event>
 4    3  0.3906307E+000  0.2457982E+03  0.7546771E-02  0.1115989E+00
         21   -1    0    0  501  502  0.00000000000E+00  0.00000000000E+00  0.17835151707E+03  0.17835151707E+03  0.00000000000E+00 0. -1.
         21   -1    0    0  502  503 -0.00000000000E+00 -0.00000000000E+00 -0.33875242699E+03  0.33875242699E+03  0.00000000000E+00 0. -1.
          6    1    1    2  501    0 -0.10208437186E+03  0.14165641282E+03 -0.79673467265E+02  0.25838850527E+03  0.17300000000E+03 0. -1.
         -6    1    1    2    0  503  0.10208437186E+03 -0.14165641282E+03 -0.80727442659E+02  0.25871543879E+03  0.17300000000E+03 0. -1.
<mgrwt>
<rscale>  2 0.24579821E+03</rscale>
<asrwt>0</asrwt>
<pdfrwt beam="1">  1       21 0.27438695E-01 0.24579821E+03</pdfrwt>
<pdfrwt beam="2">  1       21 0.52115758E-01 0.24579821E+03</pdfrwt>
<totfact> 0.43186560E+04</totfact>
</mgrwt>
</event>
<event>
 4    3  0.3906307E+000  0.1861319E+03  0.7546771E-02  0.1161997E+00
         21   -1    0    0  501  502  0.00000000000E+00  0.00000000000E+00  0.14093618691E+03  0.14093618691E+03  0.00000000000E+00 0. -1.
         21   -1    0    0  502  503 -0.00000000000E+00 -0.00000000000E+00 -0.31196795177E+03  0.31196795177E+03  0.00000000000E+00 0. -1.
          6    1    1    2  501    0  0.49590772364E+01  0.68494486572E+02  0.18758091261E+02  0.18707472605E+03  0.17300000000E+03 0.  1.
         -6    1    1    2    0  503 -0.49590772364E+01 -0.68494486572E+02 -0.18978985612E+03  0.26582941264E+03  0.17300000000E+03 0.  1.
<mgrwt>
<rscale>  2 0.18613191E+03</rscale>
<asrwt>0</asrwt>
<pdfrwt beam="1">  1       21 0.21682491E-01 0.18613191E+03</pdfrwt>
<pdfrwt beam="2">  1       21 0.47995069E-01 0.18613191E+03</pdfrwt>
<totfact> 0.82523850E+04</totfact>
</mgrwt>
</event>
<event>
 4    3  0.3906307E+000  0.1926376E+03  0.7546771E-02  0.1156104E+00
         21   -1    0    0  503  502  0.00000000000E+00  0.00000000000E+00  0.30574131599E+03  0.30574131599E+03  0.00000000000E+00 0. -1.
         21   -1    0    0  501  503 -0.00000000000E+00 -0.00000000000E+00 -0.13530750314E+03  0.13530750314E+03  0.00000000000E+00 0. -1.
          6    1    1    2  501    0  0.76533471523E+02 -0.36371530341E+02  0.14452481844E+02  0.19317902245E+03  0.17300000000E+03 0. -1.
         -6    1    1    2    0  502 -0.76533471523E+02  0.36371530341E+02  0.15598133101E+03  0.24786979668E+03  0.17300000000E+03 0. -1.
<mgrwt>
<rscale>  2 0.19263764E+03</rscale>
<asrwt>0</asrwt>
<pdfrwt beam="1">  1       21 0.47037125E-01 0.19263764E+03</pdfrwt>
<pdfrwt beam="2">  1       21 0.20816539E-01 0.19263764E+03</pdfrwt>
<totfact> 0.92649809E+04</totfact>
</mgrwt>
</event>
<event>
 4    3  0.3906307E+000  0.1798132E+03  0.7546771E-02  0.1167984E+00
         21   -1    0    0  503  502  0.00000000000E+00  0.00000000000E+00  0.15632448855E+03  0.15632448855E+03  0.00000000000E+00 0. -1.
         21   -1    0    0  501  503 -0.00000000000E+00 -0.00000000000E+00 -0.40679994274E+03  0.40679994274E+03  0.00000000000E+00 0. -1.
          6    1    1    2  501    0  0.43738780358E+02 -0.22151902777E+02 -0.32264581767E+03  0.36936853055E+03  0.17300000000E+03 0. -1.
         -6    1    1    2    0  502 -0.43738780358E+02  0.22151902777E+02  0.72170363478E+02  0.19375590073E+03  0.17300000000E+03 0. -1.
<mgrwt>
<rscale>  2 0.17981320E+03</rscale>
<asrwt>0</asrwt>
<pdfrwt beam="1">  1       21 0.24049921E-01 0.17981320E+03</pdfrwt>
<pdfrwt beam="2">  1       21 0.62584606E-01 0.17981320E+03</pdfrwt>
<totfact> 0.38837546E+04</totfact>
</mgrwt>
</event>
<event>
 4    3  0.3906307E+000  0.1782056E+03  0.7546771E-02  0.1169551E+00
         21   -1    0    0  501  502  0.00000000000E+00  0.00000000000E+00  0.14255727083E+04  0.14255727083E+04  0.00000000000E+00 0.  1.
         21   -1    0    0  502  503 -0.00000000000E+00 -0.00000000000E+00 -0.70536646631E+02  0.70536646631E+02  0.00000000000E+00 0.  1.
          6    1    1    2  501    0  0.51796128941E+01 -0.42442954987E+02  0.12962731392E+04  0.13084652400E+04  0.17300000000E+03 0.  1.
         -6    1    1    2    0  503 -0.51796128941E+01  0.42442954987E+02  0.58762922463E+02  0.18764411495E+03  0.17300000000E+03 0.  1.
<mgrwt>
<rscale>  2 0.17820559E+03</rscale>
<asrwt>0</asrwt>
<pdfrwt beam="1">  1       21 0.21931886E+00 0.17820559E+03</pdfrwt>
<pdfrwt beam="2">  1       21 0.10851793E-01 0.17820559E+03</pdfrwt>
<totfact> 0.72292866E+03</totfact>
</mgrwt>
</event>
<event>
 4    3  0.3906307E+000  0.1993297E+03  0.7546771E-02  0.1150306E+00
         21   -1    0    0  503  502  0.00000000000E+00  0.00000000000E+00  0.55707040376E+02  0.55707040376E+02  0.00000000000E+00 0.  1.
         21   -1    0    0  501  503 -0.00000000000E+00 -0.00000000000E+00 -0.73014403814E+03  0.73014403814E+03  0.00000000000E+00 0.  1.
          6    1    1    2  501    0  0.95456700966E+02  0.26293726894E+02 -0.27742757532E+03  0.34161147724E+03  0.17300000000E+03 0.  1.
         -6    1    1    2    0  502 -0.95456700966E+02 -0.26293726894E+02 -0.39700942244E+03  0.44423960128E+03  0.17300000000E+03 0.  1.
<mgrwt>
<rscale>  2 0.19932973E+03</rscale>
<asrwt>0</asrwt>
<pdfrwt beam="1">  1       21 0.85703140E-02 0.19932973E+03</pdfrwt>
<pdfrwt beam="2">  1       21 0.11232985E+00 0.19932973E+03</pdfrwt>
<totfact> 0.65842490E+04</totfact>
</mgrwt>
</event>
<event>
 4    3  0.3906307E+000  0.2488881E+03  0.7546771E-02  0.1114010E+00
         21   -1    0    0  503  502  0.00000000000E+00  0.00000000000E+00  0.11564824338E+03  0.11564824338E+03  0.00000000000E+00 0. -1.
         21   -1    0    0  501  503 -0.00000000000E+00 -0.00000000000E+00 -0.14569534961E+04  0.14569534961E+04  0.00000000000E+00 0. -1.
          6    1    1    2  501    0 -0.91179255614E+02 -0.15395663658E+03 -0.12959270902E+04  0.13196106720E+04  0.17300000000E+03 0. -1.
         -6    1    1    2    0  502  0.91179255614E+02  0.15395663658E+03 -0.45378162582E+02  0.25299106751E+03  0.17300000000E+03 0. -1.
<mgrwt>
<rscale>  2 0.24888813E+03</rscale>
<asrwt>0</asrwt>
<pdfrwt beam="1">  1       21 0.17792039E-01 0.24888813E+03</pdfrwt>
<pdfrwt beam="2">  1       21 0.22414667E+00 0.24888813E+03</pdfrwt>
<totfact> 0.25814764E+03</totfact>
</mgrwt>
</event>
<event>
 4    3  0.3906307E+000  0.2911439E+03  0.7546771E-02  0.1089753E+00
         21   -1    0    0  501  502  0.00000000000E+00  0.00000000000E+00  0.12298193945E+04  0.12298193945E+04  0.00000000000E+00 0. -1.
         21   -1    0    0  502  503 -0.00000000000E+00 -0.00000000000E+00 -0.72332020982E+02  0.72332020982E+02  0.00000000000E+00 0.  1.
          6    1    1    2  501    0 -0.19559320143E+03  0.12875968021E+03  0.72005661453E+03  0.77668930971E+03  0.17300000000E+03 0. -1.
         -6    1    1    2    0  503  0.19559320143E+03 -0.12875968021E+03  0.43743075898E+03  0.52546210576E+03  0.17300000000E+03 0.  1.
<mgrwt>
<rscale>  2 0.29114387E+03</rscale>
<asrwt>0</asrwt>
<pdfrwt beam="1">  1       21 0.18920297E+00 0.29114387E+03</pdfrwt>
<pdfrwt beam="2">  1       21 0.11128004E-01 0.29114387E+03</pdfrwt>
<totfact> 0.99126075E+03</totfact>
</mgrwt>
</event>
<event>
 4    3  0.3906307E+000  0.2483977E+03  0.7546771E-02  0.1114322E+00
         21   -1    0    0  503  502  0.00000000000E+00  0.00000000000E+00  0.55255075245E+03  0.55255075245E+03  0.00000000000E+00 0.  1.
         21   -1    0    0  501  503 -0.00000000000E+00 -0.00000000000E+00 -0.15032681854E+03  0.15032681854E+03  0.00000000000E+00 0.  1.
          6    1    1    2  501    0 -0.12347012229E+03  0.12855953793E+03  0.22888866524E+02  0.24945004731E+03  0.17300000000E+03 0.  1.
         -6    1    1    2    0  502  0.12347012229E+03 -0.12855953793E+03  0.37933506738E+03  0.45342752369E+03  0.17300000000E+03 0.  1.
<mgrwt>
<rscale>  2 0.24839772E+03</rscale>
<asrwt>0</asrwt>
<pdfrwt beam="1">  1       21 0.85007807E-01 0.24839772E+03</pdfrwt>
<pdfrwt beam="2">  1       21 0.23127203E-01 0.24839772E+03</pdfrwt>
<totfact> 0.20401048E+04</totfact>
</mgrwt>
</event>
<event>
 4    3  0.3906307E+000  0.2822077E+03  0.7546771E-02  0.1094489E+00
         21   -1    0    0  501  502  0.00000000000E+00  0.00000000000E+00  0.15891364326E+04  0.15891364326E+04  0.00000000000E+00 0. -1.
         21   -1    0    0  502  503 -0.00000000000E+00 -0.00000000000E+00 -0.14460127525E+03  0.14460127525E+03  0.00000000000E+00 0. -1.
          6    1    1    2  501    0 -0.18399697816E+03  0.12592584179E+03  0.14229953667E+04  0.14507091436E+04  0.17300000000E+03 0. -1.
         -6    1    1    2    0  503  0.18399697816E+03 -0.12592584179E+03  0.21539790618E+02  0.28302856425E+03  0.17300000000E+03 0. -1.
<mgrwt>
<rscale>  2 0.28220773E+03</rscale>
<asrwt>0</asrwt>
<pdfrwt beam="1">  1       21 0.24448252E+00 0.28220773E+03</pdfrwt>
<pdfrwt beam="2">  1       21 0.22246351E-01 0.28220773E+03</pdfrwt>
<totfact> 0.12399238E+03</totfact>
</mgrwt>
</event>
<event>
 4    3  0.3906307E+000  0.1878770E+03  0.7546771E-02  0.1160390E+00
         21   -1    0    0  501  502  0.00000000000E+00  0.00000000000E+00  0.10414373567E+04  0.10414373567E+04  0.00000000000E+00 0.  1.
         21   -1    0    0  502  503 -0.00000000000E+00 -0.00000000000E+00 -0.34080587266E+02  0.34080587266E+02  0.00000000000E+00 0.  1.
          6    1    1    2  501    0  0.22057311101E+02  0.69873128998E+02  0.54353995863E+03  0.57509431032E+03  0.17300000000E+03 0.  1.
         -6    1    1    2    0  503 -0.22057311101E+02 -0.69873128998E+02  0.46381681076E+03  0.50042363360E+03  0.17300000000E+03 0.  1.
<mgrwt>
<rscale>  2 0.18787703E+03</rscale>
<asrwt>0</asrwt>
<pdfrwt beam="1">  1       21 0.16022111E+00 0.18787703E+03</pdfrwt>
<pdfrwt beam="2">  1       21 0.52431681E-02 0.18787703E+03</pdfrwt>
<totfact> 0.62390861E+04</totfact>
</mgrwt>
</event>
<event>
 4    3  0.3906307E+000  0.2101039E+03  0.7546771E-02  0.1141484E+00
         21   -1    0    0  501  502  0.00000000000E+00  0.00000000000E+00  0.64824880032E+02  0.64824880032E+02  0.00000000000E+00 0.  1.
         21   -1    0    0  502  503 -0.00000000000E+00 -0.00000000000E+00 -0.68387645653E+03  0.68387645653E+03  0.00000000000E+00 0.  1.
          6    1    1    2  501    0 -0.23784751899E+02 -0.11682856978E+03 -0.28511021819E+03  0.35416304953E+03  0.17300000000E+03 0.  1.
         -6    1    1    2    0  503  0.23784751899E+02  0.11682856978E+03 -0.33394135831E+03  0.39453828703E+03  0.17300000000E+03 0.  1.
<mgrwt>
<rscale>  2 0.21010385E+03</rscale>
<asrwt>0</asrwt>
<pdfrwt beam="1">  1       21 0.99730584E-02 0.21010385E+03</pdfrwt>
<pdfrwt beam="2">  1       21 0.10521176E+00 0.21010385E+03</pdfrwt>
<totfact> 0.58772331E+04</totfact>
</mgrwt>
</event>
<event>
 4    3  0.3906307E+000  0.1862508E+03  0.7546771E-02  0.1161887E+00
         21   -1    0    0  501  502  0.00000000000E+00  0.00000000000E+00  0.22659660008E+03  0.22659660008E+03  0.00000000000E+00 0.  1.
         21   -1    0    0  502  503 -0.00000000000E+00 -0.00000000000E+00 -0.79484343360E+03  0.79484343360E+03  0.00000000000E+00 0.  1.
          6    1    1    2  501    0  0.40249976026E+02 -0.56038475277E+02  0.17478564770E+03  0.25542003430E+03  0.17300000000E+03 0.  1.
         -6    1    1    2    0  503 -0.40249976026E+02  0.56038475277E+02 -0.74303248122E+03  0.76601999937E+03  0.17300000000E+03 0.  1.
<mgrwt>
<rscale>  2 0.18625083E+03</rscale>
<asrwt>0</asrwt>
<pdfrwt beam="1">  1       21 0.34861016E-01 0.18625083E+03</pdfrwt>
<pdfrwt beam="2">  1       21 0.12228360E+00 0.18625083E+03</pdfrwt>
<totfact> 0.40187103E+03</totfact>
</mgrwt>
</event>
<event>
 4    3  0.3906307E+000  0.3545547E+03  0.7546771E-02  0.1060761E+00
         21   -1    0    0  503  502  0.00000000000E+00  0.00000000000E+00  0.19661271937E+04  0.19661271937E+04  0.00000000000E+00 0.  1.
         21   -1    0    0  501  503 -0.00000000000E+00 -0.00000000000E+00 -0.20207482619E+03  0.20207482619E+03  0.00000000000E+00 0.  1.
          6    1    1    2  501    0 -0.27077840042E+03  0.14986354878E+03 -0.14306742620E+02  0.35484321646E+03  0.17300000000E+03 0.  1.
         -6    1    1    2    0  502  0.27077840042E+03 -0.14986354878E+03  0.17783591101E+04  0.18133588034E+04  0.17300000000E+03 0.  1.
<mgrwt>
<rscale>  2 0.35455469E+03</rscale>
<asrwt>0</asrwt>
<pdfrwt beam="1">  1       21 0.30248109E+00 0.35455469E+03</pdfrwt>
<pdfrwt beam="2">  1       21 0.31088436E-01 0.35455469E+03</pdfrwt>
<totfact> 0.27571104E+02</totfact>
</mgrwt>
</event>
<event>
 4    3  0.3906307E+000  0.2593842E+03  0.7546771E-02  0.1107514E+00
         21   -1    0    0  503  502  0.00000000000E+00  0.00000000000E+00  0.55339725203E+02  0.55339725203E+02  0.00000000000E+00 0. -1.
         21   -1    0    0  501  503 -0.00000000000E+00 -0.00000000000E+00 -0.13965583114E+04  0.13965583114E+04  0.00000000000E+00 0.  1.
          6    1    1    2  501    0  0.19312020968E+03 -0.74662603206E+01 -0.93180526525E+03  0.96723379427E+03  0.17300000000E+03 0. -1.
         -6    1    1    2    0  502 -0.19312020968E+03  0.74662603206E+01 -0.40941332095E+03  0.48466424234E+03  0.17300000000E+03 0.  1.
<mgrwt>
<rscale>  2 0.25938419E+03</rscale>
<asrwt>0</asrwt>
<pdfrwt beam="1">  1       21 0.85138039E-02 0.25938419E+03</pdfrwt>
<pdfrwt beam="2">  1       21 0.21485512E+00 0.25938419E+03</pdfrwt>
<totfact> 0.11077566E+04</totfact>
</mgrwt>
</event>
<event>
 4    3  0.3906307E+000  0.2103969E+03  0.7546771E-02  0.1141252E+00
         21   -1    0    0  501  502  0.00000000000E+00  0.00000000000E+00  0.89970512039E+03  0.89970512039E+03  0.00000000000E+00 0.  1.
         21   -1    0    0  502  503 -0.00000000000E+00 -0.00000000000E+00 -0.51516658902E+02  0.51516658902E+02  0.00000000000E+00 0.  1.
          6    1    1    2  501    0 -0.19745845499E+02  0.11810145687E+03  0.32326947107E+03  0.38570714727E+03  0.17300000000E+03 0.  1.
         -6    1    1    2    0  503  0.19745845499E+02 -0.11810145687E+03  0.52491899042E+03  0.56551463202E+03  0.17300000000E+03 0.  1.
<mgrwt>
<rscale>  2 0.21039689E+03</rscale>
<asrwt>0</asrwt>
<pdfrwt beam="1">  1       21 0.13841616E+00 0.21039689E+03</pdfrwt>
<pdfrwt beam="2">  1       21 0.79256405E-02 0.21039689E+03</pdfrwt>
<totfact> 0.44500314E+04</totfact>
</mgrwt>
</event>
<event>
 4    3  0.3906307E+000  0.2028594E+03  0.7546771E-02  0.1147349E+00
         21   -1    0    0  503  502  0.00000000000E+00  0.00000000000E+00  0.47235789751E+03  0.47235789751E+03  0.00000000000E+00 0. -1.
         21   -1    0    0  501  503 -0.00000000000E+00 -0.00000000000E+00 -0.90054288048E+02  0.90054288048E+02  0.00000000000E+00 0. -1.
          6    1    1    2  501    0 -0.36174281717E+02 -0.99570831398E+02  0.24191007433E+03  0.31570938089E+03  0.17300000000E+03 0.  1.
         -6    1    1    2    0  502  0.36174281717E+02  0.99570831398E+02  0.14039353514E+03  0.24670280467E+03  0.17300000000E+03 0.  1.
<mgrwt>
<rscale>  2 0.20285938E+03</rscale>
<asrwt>0</asrwt>
<pdfrwt beam="1">  1       21 0.72670444E-01 0.20285938E+03</pdfrwt>
<pdfrwt beam="2">  1       21 0.13854506E-01 0.20285938E+03</pdfrwt>
<totfact> 0.76936387E+04</totfact>
</mgrwt>
</event>
<event>
 4    3  0.3906307E+000  0.2209739E+03  0.7546771E-02  0.1133159E+00
         21   -1    0    0  503  502  0.00000000000E+00  0.00000000000E+00  0.58683218239E+02  0.58683218239E+02  0.00000000000E+00 0.  1.
         21   -1    0    0  501  503 -0.00000000000E+00 -0.00000000000E+00 -0.83368383077E+03  0.83368383077E+03  0.00000000000E+00 0.  1.
          6    1    1    2  501    0  0.13504592179E+03 -0.25750171830E+02 -0.40703497258E+03  0.46314894067E+03  0.17300000000E+03 0.  1.
         -6    1    1    2    0  502 -0.13504592179E+03  0.25750171830E+02 -0.36796563994E+03  0.42921810833E+03  0.17300000000E+03 0.  1.
<mgrwt>
<rscale>  2 0.22097392E+03</rscale>
<asrwt>0</asrwt>
<pdfrwt beam="1">  1       21 0.90281879E-02 0.22097392E+03</pdfrwt>
<pdfrwt beam="2">  1       21 0.12825904E+00 0.22097392E+03</pdfrwt>
<totfact> 0.42782881E+04</totfact>
</mgrwt>
</event>
<event>
 4    3  0.3906307E+000  0.2874417E+03  0.7546771E-02  0.1091692E+00
         21   -1    0    0  501  502  0.00000000000E+00  0.00000000000E+00  0.56323410348E+02  0.56323410348E+02  0.00000000000E+00 0.  1.
         21   -1    0    0  502  503 -0.00000000000E+00 -0.00000000000E+00 -0.18653916193E+04  0.18653916193E+04  0.00000000000E+00 0.  1.
          6    1    1    2  501    0  0.41534259644E+02 -0.22576238845E+03 -0.46045043265E+03  0.54280507707E+03  0.17300000000E+03 0.  1.
         -6    1    1    2    0  503 -0.41534259644E+02  0.22576238845E+03 -0.13486177763E+04  0.13789099526E+04  0.17300000000E+03 0.  1.
<mgrwt>
<rscale>  2 0.28744173E+03</rscale>
<asrwt>0</asrwt>
<pdfrwt beam="1">  1       21 0.86651392E-02 0.28744173E+03</pdfrwt>
<pdfrwt beam="2">  1       21 0.28698336E+00 0.28744173E+03</pdfrwt>
<totfact> 0.38717455E+03</totfact>
</mgrwt>
</event>
<event>
 4    3  0.3906307E+000  0.4594076E+03  0.7546771E-02  0.1024953E+00
         21   -1    0    0  503  502  0.00000000000E+00  0.00000000000E+00  0.65289504527E+03  0.65289504527E+03  0.00000000000E+00 0.  1.
         21   -1    0    0  501  503 -0.00000000000E+00 -0.00000000000E+00 -0.43099451447E+03  0.43099451447E+03  0.00000000000E+00 0.  1.
          6    1    1    2  501    0 -0.24421315351E+03  0.34854883617E+03  0.38190393803E+03  0.59741608065E+03  0.17300000000E+03 0.  1.
         -6    1    1    2    0  502  0.24421315351E+03 -0.34854883617E+03 -0.16000340722E+03  0.48647347909E+03  0.17300000000E+03 0.  1.
<mgrwt>
<rscale>  2 0.45940761E+03</rscale>
<asrwt>0</asrwt>
<pdfrwt beam="1">  1       21 0.10044539E+00 0.45940761E+03</pdfrwt>
<pdfrwt beam="2">  1       21 0.66306848E-01 0.45940761E+03</pdfrwt>
<totfact> 0.14472701E+03</totfact>
</mgrwt>
</event>
<event>
 4    3  0.3906307E+000  0.2183632E+03  0.7546771E-02  0.1135109E+00
         21   -1    0    0  503  502  0.00000000000E+00  0.00000000000E+00  0.96567561750E+03  0.96567561750E+03  0.00000000000E+00 0.  1.
         21   -1    0    0  501  503 -0.00000000000E+00 -0.00000000000E+00 -0.58962706629E+02  0.58962706629E+02  0.00000000000E+00 0.  1.
          6    1    1    2  501    0  0.13264561521E+03 -0.12594142833E+02  0.24679144178E+03  0.32952767320E+03  0.17300000000E+03 0.  1.
         -6    1    1    2    0  502 -0.13264561521E+03  0.12594142833E+02  0.65992146910E+03  0.69511065094E+03  0.17300000000E+03 0.  1.
<mgrwt>
<rscale>  2 0.21836316E+03</rscale>
<asrwt>0</asrwt>
<pdfrwt beam="1">  1       21 0.14856547E+00 0.21836316E+03</pdfrwt>
<pdfrwt beam="2">  1       21 0.90711864E-02 0.21836316E+03</pdfrwt>
<totfact> 0.29072568E+04</totfact>
</mgrwt>
</event>
<event>
 4    3  0.3906307E+000  0.1933637E+03  0.7546771E-02  0.1155462E+00
         21   -1    0    0  501  502  0.00000000000E+00  0.00000000000E+00  0.10243729055E+03  0.10243729055E+03  0.00000000000E+00 0.  1.
         21   -1    0    0  502  503 -0.00000000000E+00 -0.00000000000E+00 -0.44018148872E+03  0.44018148872E+03  0.00000000000E+00 0. -1.
          6    1    1    2  501    0 -0.51669487725E+02  0.69215586233E+02 -0.56746032131E+02  0.20151835029E+03  0.17300000000E+03 0. -1.
         -6    1    1    2    0  503  0.51669487725E+02 -0.69215586233E+02 -0.28099816604E+03  0.34110042899E+03  0.17300000000E+03 0. -1.
<mgrwt>
<rscale>  2 0.19336373E+03</rscale>
<asrwt>0</asrwt>
<pdfrwt beam="1">  1       21 0.15759583E-01 0.19336373E+03</pdfrwt>
<pdfrwt beam="2">  1       21 0.67720228E-01 0.19336373E+03</pdfrwt>
<totfact> 0.71419326E+04</totfact>
</mgrwt>
</event>
<event>
 4    3  0.3906307E+000  0.2550861E+03  0.7546771E-02  0.1110132E+00
         21   -1    0    0  503  502  0.00000000000E+00  0.00000000000E+00  0.37111779894E+03  0.37111779894E+03  0.00000000000E+00 0.  1.
         21   -1    0    0  501  503 -0.00000000000E+00 -0.00000000000E+00 -0.36842857967E+03  0.36842857967E+03  0.00000000000E+00 0. -1.
          6    1    1    2  501    0  0.17858032238E+03 -0.56999909001E+02 -0.26635378401E+03  0.36879975518E+03  0.17300000000E+03 0. -1.
         -6    1    1    2    0  502 -0.17858032238E+03  0.56999909001E+02  0.26904300328E+03  0.37074662342E+03  0.17300000000E+03 0.  1.
<mgrwt>
<rscale>  2 0.25508611E+03</rscale>
<asrwt>0</asrwt>
<pdfrwt beam="1">  1       21 0.57095046E-01 0.25508611E+03</pdfrwt>
<pdfrwt beam="2">  1       21 0.56681320E-01 0.25508611E+03</pdfrwt>
<totfact> 0.81016013E+03</totfact>
</mgrwt>
</event>
<event>
 4    3  0.3906307E+000  0.2916019E+03  0.7546771E-02  0.1089516E+00
         21   -1    0    0  503  502  0.00000000000E+00  0.00000000000E+00  0.36328574500E+03  0.36328574500E+03  0.00000000000E+00 0. -1.
         21   -1    0    0  501  503 -0.00000000000E+00 -0.00000000000E+00 -0.29557149332E+03  0.29557149332E+03  0.00000000000E+00 0. -1.
          6    1    1    2  501    0  0.73516497879E+02 -0.22293049871E+03 -0.11642186300E+03  0.31398365069E+03  0.17300000000E+03 0. -1.
         -6    1    1    2    0  502 -0.73516497879E+02  0.22293049871E+03  0.18413611468E+03  0.34487358763E+03  0.17300000000E+03 0. -1.
<mgrwt>
<rscale>  2 0.29160193E+03</rscale>
<asrwt>0</asrwt>
<pdfrwt beam="1">  1       21 0.55890114E-01 0.29160193E+03</pdfrwt>
<pdfrwt beam="2">  1       21 0.45472538E-01 0.29160193E+03</pdfrwt>
<totfact> 0.13252144E+04</totfact>
</mgrwt>
</event>
<event>
 4    3  0.3906307E+000  0.2337057E+03  0.7546771E-02  0.1124058E+00
         21   -1    0    0  501  502  0.00000000000E+00  0.00000000000E+00  0.23451209293E+03  0.23451209293E+03  0.00000000000E+00 0. -1.
         21   -1    0    0  502  503 -0.00000000000E+00 -0.00000000000E+00 -0.26630427751E+03  0.26630427751E+03  0.00000000000E+00 0. -1.
          6    1    1    2  501    0 -0.31053326733E+02 -0.15402930821E+03  0.72788352235E+02  0.24477843269E+03  0.17300000000E+03 0. -1.
         -6    1    1    2    0  503  0.31053326733E+02  0.15402930821E+03 -0.10458053682E+03  0.25603793776E+03  0.17300000000E+03 0. -1.
<mgrwt>
<rscale>  2 0.23370566E+03</rscale>
<asrwt>0</asrwt>
<pdfrwt beam="1">  1       21 0.36078784E-01 0.23370566E+03</pdfrwt>
<pdfrwt beam="2">  1       21 0.40969889E-01 0.23370566E+03</pdfrwt>
<totfact> 0.41682196E+04</totfact>
</mgrwt>
</event>
<event>
 4    3  0.3906307E+000  0.2200895E+03  0.7546771E-02  0.1133816E+00
         21   -1    0    0  503  502  0.00000000000E+00  0.00000000000E+00  0.44152029606E+03  0.44152029606E+03  0.00000000000E+00 0. -1.
         21   -1    0    0  501  503 -0.00000000000E+00 -0.00000000000E+00 -0.13606192413E+03  0.13606192413E+03  0.00000000000E+00 0.  1.
          6    1    1    2  501    0  0.11659749382E+03  0.70110112942E+02  0.27982104382E+03  0.35600452253E+03  0.17300000000E+03 0. -1.
         -6    1    1    2    0  502 -0.11659749382E+03 -0.70110112942E+02  0.25637328112E+02  0.22157769765E+03  0.17300000000E+03 0.  1.
<mgrwt>
<rscale>  2 0.22008954E+03</rscale>
<asrwt>0</asrwt>
<pdfrwt beam="1">  1       21 0.67926199E-01 0.22008954E+03</pdfrwt>
<pdfrwt beam="2">  1       21 0.20932604E-01 0.22008954E+03</pdfrwt>
<totfact> 0.41384981E+04</totfact>
</mgrwt>
</event>
<event>
 4    3  0.3906307E+000  0.2982905E+03  0.7546771E-02  0.1086098E+00
         21   -1    0    0  503  502  0.00000000000E+00  0.00000000000E+00  0.26596184563E+03  0.26596184563E+03  0.00000000000E+00 0.  1.
         21   -1    0    0  501  503 -0.00000000000E+00 -0.00000000000E+00 -0.33553820199E+03  0.33553820199E+03  0.00000000000E+00 0. -1.
          6    1    1    2  501    0 -0.16616434475E+03  0.17730659844E+03 -0.51119396570E+02  0.30263907881E+03  0.17300000000E+03 0. -1.
         -6    1    1    2    0  502  0.16616434475E+03 -0.17730659844E+03 -0.18456959795E+02  0.29886096881E+03  0.17300000000E+03 0.  1.
<mgrwt>
<rscale>  2 0.29829049E+03</rscale>
<asrwt>0</asrwt>
<pdfrwt beam="1">  1       21 0.40917207E-01 0.29829049E+03</pdfrwt>
<pdfrwt beam="2">  1       21 0.51621262E-01 0.29829049E+03</pdfrwt>
<totfact> 0.19459458E+04</totfact>
</mgrwt>
</event>
<event>
 4    3  0.3906307E+000  0.2051255E+03  0.7546771E-02  0.1145485E+00
         21   -1    0    0  501  502  0.00000000000E+00  0.00000000000E+00  0.46091611982E+03  0.46091611982E+03  0.00000000000E+00 0.  1.
         21   -1    0    0  502  503 -0.00000000000E+00 -0.00000000000E+00 -0.10031018247E+03  0.10031018247E+03  0.00000000000E+00 0.  1.
          6    1    1    2  501    0  0.81264008201E+02  0.74455622429E+02  0.26445645194E+03  0.33468446888E+03  0.17300000000E+03 0.  1.
         -6    1    1    2    0  503 -0.81264008201E+02 -0.74455622429E+02  0.96149485406E+02  0.22654183341E+03  0.17300000000E+03 0.  1.
<mgrwt>
<rscale>  2 0.20512552E+03</rscale>
<asrwt>0</asrwt>
<pdfrwt beam="1">  1       21 0.70910171E-01 0.20512552E+03</pdfrwt>
<pdfrwt beam="2">  1       21 0.15432336E-01 0.20512552E+03</pdfrwt>
<totfact> 0.66692865E+04</totfact>
</mgrwt>
</event>
<event>
 4    3  0.3906307E+000  0.2251355E+03  0.7546771E-02  0.1130111E+00
         21   -1    0    0  501  502  0.00000000000E+00  0.00000000000E+00  0.11561699488E+03  0.11561699488E+03  0.00000000000E+00 0.  1.
         21   -1    0    0  502  503 -0.00000000000E+00 -0.00000000000E+00 -0.44651931023E+03  0.44651931023E+03  0.00000000000E+00 0. -1.
          6    1    1    2  501    0 -0.42628802854E+02 -0.13762191364E+03 -0.20336197565E+03  0.30338440811E+03  0.17300000000E+03 0. -1.
         -6    1    1    2    0  503  0.42628802854E+02  0.13762191364E+03 -0.12754033970E+03  0.25875189699E+03  0.17300000000E+03 0.  1.
<mgrwt>
<rscale>  2 0.22513553E+03</rscale>
<asrwt>0</asrwt>
<pdfrwt beam="1">  1       21 0.17787230E-01 0.22513553E+03</pdfrwt>
<pdfrwt beam="2">  1       21 0.68695279E-01 0.22513553E+03</pdfrwt>
<totfact> 0.54594973E+04</totfact>
</mgrwt>
</event>
<event>
 4    3  0.3906307E+000  0.2108355E+03  0.7546771E-02  0.1140906E+00
         21   -1    0    0  503  502  0.00000000000E+00  0.00000000000E+00  0.13977774368E+03  0.13977774368E+03  0.00000000000E+00 0. -1.
         21   -1    0    0  501  503 -0.00000000000E+00 -0.00000000000E+00 -0.48598714501E+03  0.48598714501E+03  0.00000000000E+00 0. -1.
          6    1    1    2  501    0 -0.12235632809E+02 -0.11988703038E+03 -0.35704871788E+03  0.41465093476E+03  0.17300000000E+03 0. -1.
         -6    1    1    2    0  502  0.12235632809E+02  0.11988703038E+03  0.10839316544E+02  0.21111395393E+03  0.17300000000E+03 0. -1.
<mgrwt>
<rscale>  2 0.21083551E+03</rscale>
<asrwt>0</asrwt>
<pdfrwt beam="1">  1       21 0.21504268E-01 0.21083551E+03</pdfrwt>
<pdfrwt beam="2">  1       21 0.74767253E-01 0.21083551E+03</pdfrwt>
<totfact> 0.31941653E+04</totfact>
</mgrwt>
</event>
<event>
 4    3  0.3906307E+000  0.2234080E+03  0.7546771E-02  0.1131367E+00
         21   -1    0    0  501  502  0.00000000000E+00  0.00000000000E+00  0.12738116105E+03  0.12738116105E+03  0.00000000000E+00 0. -1.
         21   -1    0    0  502  503 -0.00000000000E+00 -0.00000000000E+00 -0.39510589985E+03  0.39510589985E+03  0.00000000000E+00 0. -1.
          6    1    1    2  501    0  0.12272701236E+03 -0.70144380977E+02 -0.15766744262E+03  0.27344135790E+03  0.17300000000E+03 0. -1.
         -6    1    1    2    0  503 -0.12272701236E+03  0.70144380977E+02 -0.11005729618E+03  0.24904570301E+03  0.17300000000E+03 0. -1.
<mgrwt>
<rscale>  2 0.22340804E+03</rscale>
<asrwt>0</asrwt>
<pdfrwt beam="1">  1       21 0.19597102E-01 0.22340804E+03</pdfrwt>
<pdfrwt beam="2">  1       21 0.60785522E-01 0.22340804E+03</pdfrwt>
<totfact> 0.59577607E+04</totfact>
</mgrwt>
</event>
<event>
 4    3  0.3906307E+000  0.1935805E+03  0.7546771E-02  0.1155271E+00
         21   -1    0    0  503  502  0.00000000000E+00  0.00000000000E+00  0.16225804402E+03  0.16225804402E+03  0.00000000000E+00 0. -1.
         21   -1    0    0  501  503 -0.00000000000E+00 -0.00000000000E+00 -0.96786752620E+03  0.96786752620E+03  0.00000000000E+00 0. -1.
          6    1    1    2  501    0  0.40711422851E+02  0.76726799410E+02 -0.89586309643E+03  0.91653920224E+03  0.17300000000E+03 0. -1.
         -6    1    1    2    0  502 -0.40711422851E+02 -0.76726799410E+02  0.90253614257E+02  0.21358636798E+03  0.17300000000E+03 0. -1.
<mgrwt>
<rscale>  2 0.19358053E+03</rscale>
<asrwt>0</asrwt>
<pdfrwt beam="1">  1       21 0.24962776E-01 0.19358053E+03</pdfrwt>
<pdfrwt beam="2">  1       21 0.14890270E+00 0.19358053E+03</pdfrwt>
<totfact> 0.46253551E+03</totfact>
</mgrwt>
</event>
<event>
 4    3  0.3906307E+000  0.1964164E+03  0.7546771E-02  0.1152798E+00
         21   -1    0    0  503  502  0.00000000000E+00  0.00000000000E+00  0.22157843657E+03  0.22157843657E+03  0.00000000000E+00 0.  1.
         21   -1    0    0  501  503 -0.00000000000E+00 -0.00000000000E+00 -0.26749612713E+03  0.26749612713E+03  0.00000000000E+00 0. -1.
          6    1    1    2  501    0  0.81694247195E+02 -0.44457428909E+02 -0.16744405945E+03  0.25810254949E+03  0.17300000000E+03 0. -1.
         -6    1    1    2    0  502 -0.81694247195E+02  0.44457428909E+02  0.12152636890E+03  0.23097201421E+03  0.17300000000E+03 0.  1.
<mgrwt>
<rscale>  2 0.19641643E+03</rscale>
<asrwt>0</asrwt>
<pdfrwt beam="1">  1       21 0.34088990E-01 0.19641643E+03</pdfrwt>
<pdfrwt beam="2">  1       21 0.41153250E-01 0.19641643E+03</pdfrwt>
<totfact> 0.47065283E+04</totfact>
</mgrwt>
</event>
<event>
 4    3  0.3906307E+000  0.1808486E+03  0.7546771E-02  0.1166984E+00
         21   -1    0    0  503  502  0.00000000000E+00  0.00000000000E+00  0.10510738615E+04  0.10510738615E+04  0.00000000000E+00 0. -1.
         21   -1    0    0  501  503 -0.00000000000E+00 -0.00000000000E+00 -0.49030413701E+02  0.49030413701E+02  0.00000000000E+00 0. -1.
          6    1    1    2  501    0 -0.47165531153E+02 -0.23508372198E+02  0.16854545421E+03  0.24721205680E+03  0.17300000000E+03 0. -1.
         -6    1    1    2    0  502  0.47165531153E+02  0.23508372198E+02  0.83349799362E+03  0.85289221843E+03  0.17300000000E+03 0. -1.
<mgrwt>
<rscale>  2 0.18084864E+03</rscale>
<asrwt>0</asrwt>
<pdfrwt beam="1">  1       21 0.16170365E+00 0.18084864E+03</pdfrwt>
<pdfrwt beam="2">  1       21 0.75431414E-02 0.18084864E+03</pdfrwt>
<totfact> 0.32753837E+04</totfact>
</mgrwt>
</event>
<event>
 4    3  0.3906307E+000  0.2175243E+03  0.7546771E-02  0.1135742E+00
         21   -1    0    0  503  502  0.00000000000E+00  0.00000000000E+00  0.43138064862E+03  0.43138064862E+03  0.00000000000E+00 0. -1.
         21   -1    0    0  501  503 -0.00000000000E+00 -0.00000000000E+00 -0.11934434156E+03  0.11934434156E+03  0.00000000000E+00 0.  1.
          6    1    1    2  501    0  0.13185318256E+03  0.15945080792E+01  0.23434939562E+03  0.31974434074E+03  0.17300000000E+03 0.  1.
         -6    1    1    2    0  502 -0.13185318256E+03 -0.15945080792E+01  0.77686911437E+02  0.23098064944E+03  0.17300000000E+03 0. -1.
<mgrwt>
<rscale>  2 0.21752426E+03</rscale>
<asrwt>0</asrwt>
<pdfrwt beam="1">  1       21 0.66366253E-01 0.21752426E+03</pdfrwt>
<pdfrwt beam="2">  1       21 0.18360668E-01 0.21752426E+03</pdfrwt>
<totfact> 0.55715758E+04</totfact>
</mgrwt>
</event>
<event>
 4    3  0.3906307E+000  0.1953398E+03  0.7546771E-02  0.1153731E+00
         21   -1    0    0  501  502  0.00000000000E+00  0.00000000000E+00  0.27793988167E+03  0.27793988167E+03  0.00000000000E+00 0.  1.
         21   -1    0    0  502  503 -0.00000000000E+00 -0.00000000000E+00 -0.13738408346E+03  0.13738408346E+03  0.00000000000E+00 0.  1.
          6    1    1    2  501    0 -0.84267093908E+02 -0.33581076100E+02  0.64767777310E+02  0.20579722244E+03  0.17300000000E+03 0.  1.
         -6    1    1    2    0  503  0.84267093908E+02  0.33581076100E+02  0.75788020897E+02  0.20952674268E+03  0.17300000000E+03 0.  1.
<mgrwt>
<rscale>  2 0.19533979E+03</rscale>
<asrwt>0</asrwt>
<pdfrwt beam="1">  1       21 0.42759982E-01 0.19533979E+03</pdfrwt>
<pdfrwt beam="2">  1       21 0.21136013E-01 0.19533979E+03</pdfrwt>
<totfact> 0.10938403E+05</totfact>
</mgrwt>
</event>
<event>
 4    3  0.3906307E+000  0.2343876E+03  0.7546771E-02  0.1123589E+00
         21   -1    0    0  503  502  0.00000000000E+00  0.00000000000E+00  0.13984833599E+03  0.13984833599E+03  0.00000000000E+00 0. -1.
         21   -1    0    0  501  503 -0.00000000000E+00 -0.00000000000E+00 -0.43679599318E+03  0.43679599318E+03  0.00000000000E+00 0. -1.
          6    1    1    2  501    0  0.15287900099E+03  0.40454449411E+02 -0.23994080400E+03  0.33542382271E+03  0.17300000000E+03 0. -1.
         -6    1    1    2    0  502 -0.15287900099E+03 -0.40454449411E+02 -0.57006853189E+02  0.24122050645E+03  0.17300000000E+03 0. -1.
<mgrwt>
<rscale>  2 0.23438761E+03</rscale>
<asrwt>0</asrwt>
<pdfrwt beam="1">  1       21 0.21515129E-01 0.23438761E+03</pdfrwt>
<pdfrwt beam="2">  1       21 0.67199383E-01 0.23438761E+03</pdfrwt>
<totfact> 0.39973996E+04</totfact>
</mgrwt>
</event>
<event>
 4    3  0.3906307E+000  0.2484071E+03  0.7546771E-02  0.1114316E+00
         21   -1    0    0  501  502  0.00000000000E+00  0.00000000000E+00  0.58249793379E+03  0.58249793379E+03  0.00000000000E+00 0. -1.
         21   -1    0    0  502  503 -0.00000000000E+00 -0.00000000000E+00 -0.10938122349E+03  0.10938122349E+03  0.00000000000E+00 0.  1.
          6    1    1    2  501    0 -0.98409248824E+02  0.14863615809E+03  0.29797561574E+03  0.38793756627E+03  0.17300000000E+03 0. -1.
         -6    1    1    2    0  503  0.98409248824E+02 -0.14863615809E+03  0.17514109455E+03  0.30394159101E+03  0.17300000000E+03 0.  1.
<mgrwt>
<rscale>  2 0.24840710E+03</rscale>
<asrwt>0</asrwt>
<pdfrwt beam="1">  1       21 0.89615065E-01 0.24840710E+03</pdfrwt>
<pdfrwt beam="2">  1       21 0.16827881E-01 0.24840710E+03</pdfrwt>
<totfact> 0.32787489E+04</totfact>
</mgrwt>
</event>
<event>
 4    3  0.3906307E+000  0.1804991E+03  0.7546771E-02  0.1167321E+00
         21   -1    0    0  503  502  0.00000000000E+00  0.00000000000E+00  0.33976972708E+02  0.33976972708E+02  0.00000000000E+00 0. -1.
         21   -1    0    0  501  503 -0.00000000000E+00 -0.00000000000E+00 -0.10060716714E+04  0.10060716714E+04  0.00000000000E+00 0. -1.
          6    1    1    2  501    0  0.50968071075E+02  0.72935124903E+01 -0.59867067104E+03  0.62528914268E+03  0.17300000000E+03 0. -1.
         -6    1    1    2    0  502 -0.50968071075E+02 -0.72935124903E+01 -0.37342402764E+03  0.41475950141E+03  0.17300000000E+03 0. -1.
<mgrwt>
<rscale>  2 0.18049914E+03</rscale>
<asrwt>0</asrwt>
<pdfrwt beam="1">  1       21 0.52272267E-02 0.18049914E+03</pdfrwt>
<pdfrwt beam="2">  1       21 0.15478025E+00 0.18049914E+03</pdfrwt>
<totfact> 0.69068501E+04</totfact>
</mgrwt>
</event>
<event>
 4    3  0.3906307E+000  0.1951948E+03  0.7546771E-02  0.1153858E+00
         21   -1    0    0  503  502  0.00000000000E+00  0.00000000000E+00  0.64296494334E+02  0.64296494334E+02  0.00000000000E+00 0. -1.
         21   -1    0    0  501  503 -0.00000000000E+00 -0.00000000000E+00 -0.71957923820E+03  0.71957923820E+03  0.00000000000E+00 0. -1.
          6    1    1    2  501    0 -0.72013736218E+02  0.54644661994E+02 -0.16298705063E+03  0.25429470298E+03  0.17300000000E+03 0. -1.
         -6    1    1    2    0  502  0.72013736218E+02 -0.54644661994E+02 -0.49229569323E+03  0.52958102955E+03  0.17300000000E+03 0. -1.
<mgrwt>
<rscale>  2 0.19519482E+03</rscale>
<asrwt>0</asrwt>
<pdfrwt beam="1">  1       21 0.98917687E-02 0.19519482E+03</pdfrwt>
<pdfrwt beam="2">  1       21 0.11070449E+00 0.19519482E+03</pdfrwt>
<totfact> 0.53127832E+04</totfact>
</mgrwt>
</event>
<event>
 4    3  0.3906307E+000  0.2982680E+03  0.7546771E-02  0.1086110E+00
         21   -1    0    0  501  502  0.00000000000E+00  0.00000000000E+00  0.44928011267E+03  0.44928011267E+03  0.00000000000E+00 0. -1.
         21   -1    0    0  502  503 -0.00000000000E+00 -0.00000000000E+00 -0.47012932083E+03  0.47012932083E+03  0.00000000000E+00 0.  1.
          6    1    1    2  501    0  0.12737046770E+03 -0.20690957458E+03  0.33931650976E+03  0.45177372864E+03  0.17300000000E+03 0. -1.
         -6    1    1    2    0  503 -0.12737046770E+03  0.20690957458E+03 -0.36016571792E+03  0.46763570486E+03  0.17300000000E+03 0.  1.
<mgrwt>
<rscale>  2 0.29826801E+03</rscale>
<asrwt>0</asrwt>
<pdfrwt beam="1">  1       21 0.69120017E-01 0.29826801E+03</pdfrwt>
<pdfrwt beam="2">  1       21 0.72327588E-01 0.29826801E+03</pdfrwt>
<totfact> 0.30542131E+03</totfact>
</mgrwt>
</event>
<event>
 4    3  0.3906307E+000  0.3514336E+03  0.7546771E-02  0.1062028E+00
         21   -1    0    0  501  502  0.00000000000E+00  0.00000000000E+00  0.50239681732E+03  0.50239681732E+03  0.00000000000E+00 0. -1.
         21   -1    0    0  502  503 -0.00000000000E+00 -0.00000000000E+00 -0.24590625895E+03  0.24590625895E+03  0.00000000000E+00 0.  1.
          6    1    1    2  501    0  0.12362266237E+03 -0.27981071288E+03  0.13471364582E+03  0.37636865446E+03  0.17300000000E+03 0. -1.
         -6    1    1    2    0  503 -0.12362266237E+03  0.27981071288E+03  0.12177691256E+03  0.37193442181E+03  0.17300000000E+03 0.  1.
<mgrwt>
<rscale>  2 0.35143363E+03</rscale>
<asrwt>0</asrwt>
<pdfrwt beam="1">  1       21 0.77291818E-01 0.35143363E+03</pdfrwt>
<pdfrwt beam="2">  1       21 0.37831732E-01 0.35143363E+03</pdfrwt>
<totfact> 0.92164634E+03</totfact>
</mgrwt>
</event>
<event>
 4    3  0.3906307E+000  0.2716408E+03  0.7546771E-02  0.1100344E+00
         21   -1    0    0  503  502  0.00000000000E+00  0.00000000000E+00  0.62984645486E+03  0.62984645486E+03  0.00000000000E+00 0.  1.
         21   -1    0    0  501  503 -0.00000000000E+00 -0.00000000000E+00 -0.11716199171E+03  0.11716199171E+03  0.00000000000E+00 0.  1.
          6    1    1    2  501    0 -0.50869814243E+02  0.20315504924E+03  0.25316106042E+03  0.37132093200E+03  0.17300000000E+03 0.  1.
         -6    1    1    2    0  502  0.50869814243E+02 -0.20315504924E+03  0.25952340273E+03  0.37568751456E+03  0.17300000000E+03 0.  1.
<mgrwt>
<rscale>  2 0.27164078E+03</rscale>
<asrwt>0</asrwt>
<pdfrwt beam="1">  1       21 0.96899452E-01 0.27164078E+03</pdfrwt>
<pdfrwt beam="2">  1       21 0.18024922E-01 0.27164078E+03</pdfrwt>
<totfact> 0.23767873E+04</totfact>
</mgrwt>
</event>
<event>
 4    3  0.3906307E+000  0.2331208E+03  0.7546771E-02  0.1124462E+00
         21   -1    0    0  503  502  0.00000000000E+00  0.00000000000E+00  0.34782864810E+03  0.34782864810E+03  0.00000000000E+00 0.  1.
         21   -1    0    0  501  503 -0.00000000000E+00 -0.00000000000E+00 -0.20305185338E+03  0.20305185338E+03  0.00000000000E+00 0.  1.
          6    1    1    2  501    0 -0.15612941812E+03 -0.63165323416E+01 -0.59861262902E+02  0.24068374391E+03  0.17300000000E+03 0.  1.
         -6    1    1    2    0  502  0.15612941812E+03  0.63165323416E+01  0.20463805762E+03  0.31019675758E+03  0.17300000000E+03 0.  1.
<mgrwt>
<rscale>  2 0.23312077E+03</rscale>
<asrwt>0</asrwt>
<pdfrwt beam="1">  1       21 0.53512100E-01 0.23312077E+03</pdfrwt>
<pdfrwt beam="2">  1       21 0.31238747E-01 0.23312077E+03</pdfrwt>
<totfact> 0.31874080E+04</totfact>
</mgrwt>
</event>
<event>
 4    3  0.3906307E+000  0.1763028E+03  0.7546771E-02  0.1171430E+00
         21   -1    0    0  501  502  0.00000000000E+00  0.00000000000E+00  0.18923277631E+04  0.18923277631E+04  0.00000000000E+00 0.  1.
         21   -1    0    0  502  503 -0.00000000000E+00 -0.00000000000E+00 -0.19866686757E+02  0.19866686757E+02  0.00000000000E+00 0.  1.
          6    1    1    2  501    0 -0.70695163576E+01 -0.33221990963E+02  0.53832026558E+03  0.56645510597E+03  0.17300000000E+03 0.  1.
         -6    1    1    2    0  503  0.70695163576E+01  0.33221990963E+02  0.13341408108E+04  0.13457393439E+04  0.17300000000E+03 0.  1.
<mgrwt>
<rscale>  2 0.17630280E+03</rscale>
<asrwt>0</asrwt>
<pdfrwt beam="1">  1       21 0.29112721E+00 0.17630280E+03</pdfrwt>
<pdfrwt beam="2">  1       21 0.30564148E-02 0.17630280E+03</pdfrwt>
<totfact> 0.23941062E+04</totfact>
</mgrwt>
</event>
<event>
 4    3  0.3906307E+000  0.1733391E+03  0.7546771E-02  0.1174410E+00
         21   -1    0    0  503  502  0.00000000000E+00  0.00000000000E+00  0.25864416882E+03  0.25864416882E+03  0.00000000000E+00 0.  1.
         21   -1    0    0  501  503 -0.00000000000E+00 -0.00000000000E+00 -0.73380253279E+03  0.73380253279E+03  0.00000000000E+00 0.  1.
          6    1    1    2  501    0  0.45925341474E+00 -0.10827405566E+02 -0.69283238996E+03  0.71418706527E+03  0.17300000000E+03 0.  1.
         -6    1    1    2    0  502 -0.45925341474E+00  0.10827405566E+02  0.21767402599E+03  0.27825963634E+03  0.17300000000E+03 0.  1.
<mgrwt>
<rscale>  2 0.17333910E+03</rscale>
<asrwt>0</asrwt>
<pdfrwt beam="1">  1       21 0.39791411E-01 0.17333910E+03</pdfrwt>
<pdfrwt beam="2">  1       21 0.11289270E+00 0.17333910E+03</pdfrwt>
<totfact> 0.37962800E+03</totfact>
</mgrwt>
</event>
<event>
 4    3  0.3906307E+000  0.1738865E+03  0.7546771E-02  0.1173854E+00
         21   -1    0    0  501  502  0.00000000000E+00  0.00000000000E+00  0.55126992664E+02  0.55126992664E+02  0.00000000000E+00 0.  1.
         21   -1    0    0  502  503 -0.00000000000E+00 -0.00000000000E+00 -0.61661072196E+03  0.61661072196E+03  0.00000000000E+00 0.  1.
          6    1    1    2  501    0 -0.48081539337E+01 -0.16864030732E+02 -0.39237909280E+03  0.42918278896E+03  0.17300000000E+03 0.  1.
         -6    1    1    2    0  503  0.48081539337E+01  0.16864030732E+02 -0.16910463650E+03  0.24255492566E+03  0.17300000000E+03 0.  1.
<mgrwt>
<rscale>  2 0.17388650E+03</rscale>
<asrwt>0</asrwt>
<pdfrwt beam="1">  1       21 0.84810761E-02 0.17388650E+03</pdfrwt>
<pdfrwt beam="2">  1       21 0.94863184E-01 0.17388650E+03</pdfrwt>
<totfact> 0.10151674E+05</totfact>
</mgrwt>
</event>
<event>
 4    3  0.3906307E+000  0.1786230E+03  0.7546771E-02  0.1169142E+00
         21   -1    0    0  501  502  0.00000000000E+00  0.00000000000E+00  0.12826080911E+03  0.12826080911E+03  0.00000000000E+00 0.  1.
         21   -1    0    0  502  503 -0.00000000000E+00 -0.00000000000E+00 -0.27354893172E+03  0.27354893172E+03  0.00000000000E+00 0.  1.
          6    1    1    2  501    0  0.44463945486E+02  0.34547703023E+00 -0.12165471036E+02  0.17903675737E+03  0.17300000000E+03 0.  1.
         -6    1    1    2    0  503 -0.44463945486E+02 -0.34547703023E+00 -0.13312265157E+03  0.22277298347E+03  0.17300000000E+03 0.  1.
<mgrwt>
<rscale>  2 0.17862296E+03</rscale>
<asrwt>0</asrwt>
<pdfrwt beam="1">  1       21 0.19732432E-01 0.17862296E+03</pdfrwt>
<pdfrwt beam="2">  1       21 0.42084451E-01 0.17862296E+03</pdfrwt>
<totfact> 0.12924762E+05</totfact>
</mgrwt>
</event>
<event>
 4    3  0.3906307E+000  0.2251749E+03  0.7546771E-02  0.1130083E+00
         21   -1    0    0  501  502  0.00000000000E+00  0.00000000000E+00  0.73665650161E+02  0.73665650161E+02  0.00000000000E+00 0.  1.
         21   -1    0    0  502  503 -0.00000000000E+00 -0.00000000000E+00 -0.69013212296E+03  0.69013212296E+03  0.00000000000E+00 0. -1.
          6    1    1    2  501    0  0.10695860423E+03  0.96615595911E+02 -0.32793580998E+03  0.39780097016E+03  0.17300000000E+03 0.  1.
         -6    1    1    2    0  503 -0.10695860423E+03 -0.96615595911E+02 -0.28853066281E+03  0.36599680296E+03  0.17300000000E+03 0.  1.
<mgrwt>
<rscale>  2 0.22517486E+03</rscale>
<asrwt>0</asrwt>
<pdfrwt beam="1">  1       21 0.11333177E-01 0.22517486E+03</pdfrwt>
<pdfrwt beam="2">  1       21 0.10617417E+00 0.22517486E+03</pdfrwt>
<totfact> 0.45470006E+04</totfact>
</mgrwt>
</event>
<event>
 4    3  0.3906307E+000  0.2070561E+03  0.7546771E-02  0.1143919E+00
         21   -1    0    0  503  502  0.00000000000E+00  0.00000000000E+00  0.28083578573E+03  0.28083578573E+03  0.00000000000E+00 0. -1.
         21   -1    0    0  501  503 -0.00000000000E+00 -0.00000000000E+00 -0.15375586895E+03  0.15375586895E+03  0.00000000000E+00 0.  1.
          6    1    1    2  501    0  0.10435561781E+03 -0.45311720149E+02  0.45190785440E+02  0.21193030468E+03  0.17300000000E+03 0.  1.
         -6    1    1    2    0  502 -0.10435561781E+03  0.45311720149E+02  0.81889131338E+02  0.22266135000E+03  0.17300000000E+03 0. -1.
<mgrwt>
<rscale>  2 0.20705614E+03</rscale>
<asrwt>0</asrwt>
<pdfrwt beam="1">  1       21 0.43205505E-01 0.20705614E+03</pdfrwt>
<pdfrwt beam="2">  1       21 0.23654749E-01 0.20705614E+03</pdfrwt>
<totfact> 0.86152785E+04</totfact>
</mgrwt>
</event>
<event>
 4    3  0.3906307E+000  0.1742047E+03  0.7546771E-02  0.1173533E+00
         21   -1    0    0  501  502  0.00000000000E+00  0.00000000000E+00  0.32832553804E+03  0.32832553804E+03  0.00000000000E+00 0.  1.
         21   -1    0    0  502  503 -0.00000000000E+00 -0.00000000000E+00 -0.15582610843E+03  0.15582610843E+03  0.00000000000E+00 0.  1.
          6    1    1    2  501    0  0.12126885193E+02 -0.16468827720E+02  0.24065458572E+03  0.29708906621E+03  0.17300000000E+03 0.  1.
         -6    1    1    2    0  503 -0.12126885193E+02  0.16468827720E+02 -0.68155156111E+02  0.18706258027E+03  0.17300000000E+03 0.  1.
<mgrwt>
<rscale>  2 0.17420472E+03</rscale>
<asrwt>0</asrwt>
<pdfrwt beam="1">  1       21 0.50511621E-01 0.17420472E+03</pdfrwt>
<pdfrwt beam="2">  1       21 0.23973247E-01 0.17420472E+03</pdfrwt>
<totfact> 0.61710490E+04</totfact>
</mgrwt>
</event>
<event>
 4    3  0.3906307E+000  0.2403503E+03  0.7546771E-02  0.1119560E+00
         21   -1    0    0  501  502  0.00000000000E+00  0.00000000000E+00  0.43151816567E+03  0.43151816567E+03  0.00000000000E+00 0.  1.
         21   -1    0    0  502  503 -0.00000000000E+00 -0.00000000000E+00 -0.17161695327E+03  0.17161695327E+03  0.00000000000E+00 0.  1.
          6    1    1    2  501    0 -0.14356860817E+03 -0.85013652187E+02  0.27137785329E+03  0.36251097303E+03  0.17300000000E+03 0.  1.
         -6    1    1    2    0  503  0.14356860817E+03  0.85013652187E+02 -0.11476640884E+02  0.24062414591E+03  0.17300000000E+03 0.  1.
<mgrwt>
<rscale>  2 0.24035030E+03</rscale>
<asrwt>0</asrwt>
<pdfrwt beam="1">  1       21 0.66387410E-01 0.24035030E+03</pdfrwt>
<pdfrwt beam="2">  1       21 0.26402608E-01 0.24035030E+03</pdfrwt>
<totfact> 0.27697472E+04</totfact>
</mgrwt>
</event>
<event>
 4    3  0.3906307E+000  0.2322251E+03  0.7546771E-02  0.1125083E+00
         21   -1    0    0  503  502  0.00000000000E+00  0.00000000000E+00  0.12132050501E+04  0.12132050501E+04  0.00000000000E+00 0. -1.
         21   -1    0    0  501  503 -0.00000000000E+00 -0.00000000000E+00 -0.53844820243E+02  0.53844820243E+02  0.00000000000E+00 0.  1.
          6    1    1    2  501    0  0.11641158823E+03 -0.10221465755E+03  0.31506975639E+03  0.39140445256E+03  0.17300000000E+03 0. -1.
         -6    1    1    2    0  502 -0.11641158823E+03  0.10221465755E+03  0.84429047345E+03  0.87564541776E+03  0.17300000000E+03 0. -1.
<mgrwt>
<rscale>  2 0.23222509E+03</rscale>
<asrwt>0</asrwt>
<pdfrwt beam="1">  1       21 0.18664691E+00 0.23222509E+03</pdfrwt>
<pdfrwt beam="2">  1       21 0.82838194E-02 0.23222509E+03</pdfrwt>
<totfact> 0.18028012E+04</totfact>
</mgrwt>
</event>
<event>
 4    3  0.3906307E+000  0.1746361E+03  0.7546771E-02  0.1173098E+00
         21   -1    0    0  501  502  0.00000000000E+00  0.00000000000E+00  0.30173516882E+03  0.30173516882E+03  0.00000000000E+00 0. -1.
         21   -1    0    0  502  503 -0.00000000000E+00 -0.00000000000E+00 -0.11920904147E+03  0.11920904147E+03  0.00000000000E+00 0. -1.
          6    1    1    2  501    0 -0.31523718198E+01 -0.23639555782E+02  0.17335336661E+03  0.24606738053E+03  0.17300000000E+03 0. -1.
         -6    1    1    2    0  503  0.31523718198E+01  0.23639555782E+02  0.91727607352E+01  0.17487682975E+03  0.17300000000E+03 0. -1.
<mgrwt>
<rscale>  2 0.17463610E+03</rscale>
<asrwt>0</asrwt>
<pdfrwt beam="1">  1       21 0.46420795E-01 0.17463610E+03</pdfrwt>
<pdfrwt beam="2">  1       21 0.18339853E-01 0.17463610E+03</pdfrwt>
<totfact> 0.12132585E+05</totfact>
</mgrwt>
</event>
<event>
 4    3  0.3906307E+000  0.2194020E+03  0.7546771E-02  0.1134330E+00
         21   -1    0    0  503  502  0.00000000000E+00  0.00000000000E+00  0.44974445557E+03  0.44974445557E+03  0.00000000000E+00 0. -1.
         21   -1    0    0  501  503 -0.00000000000E+00 -0.00000000000E+00 -0.12627026828E+03  0.12627026828E+03  0.00000000000E+00 0.  1.
          6    1    1    2  501    0  0.13274621068E+03  0.24221863330E+02  0.49320391092E+02  0.22487720224E+03  0.17300000000E+03 0.  1.
         -6    1    1    2    0  502 -0.13274621068E+03 -0.24221863330E+02  0.27415379620E+03  0.35113752161E+03  0.17300000000E+03 0. -1.
<mgrwt>
<rscale>  2 0.21940204E+03</rscale>
<asrwt>0</asrwt>
<pdfrwt beam="1">  1       21 0.69191454E-01 0.21940204E+03</pdfrwt>
<pdfrwt beam="2">  1       21 0.19426195E-01 0.21940204E+03</pdfrwt>
<totfact> 0.45723401E+04</totfact>
</mgrwt>
</event>
<event>
 4    3  0.3906307E+000  0.2378223E+03  0.7546771E-02  0.1121252E+00
         21   -1    0    0  503  502  0.00000000000E+00  0.00000000000E+00  0.15501623291E+03  0.15501623291E+03  0.00000000000E+00 0.  1.
         21   -1    0    0  501  503 -0.00000000000E+00 -0.00000000000E+00 -0.42114188890E+03  0.42114188890E+03  0.00000000000E+00 0. -1.
          6    1    1    2  501    0  0.12635140408E+03 -0.10327514337E+03 -0.23837451807E+03  0.33672220511E+03  0.17300000000E+03 0. -1.
         -6    1    1    2    0  502 -0.12635140408E+03  0.10327514337E+03 -0.27751137916E+02  0.23943591670E+03  0.17300000000E+03 0.  1.
<mgrwt>
<rscale>  2 0.23782227E+03</rscale>
<asrwt>0</asrwt>
<pdfrwt beam="1">  1       21 0.23848652E-01 0.23782227E+03</pdfrwt>
<pdfrwt beam="2">  1       21 0.64791059E-01 0.23782227E+03</pdfrwt>
<totfact> 0.35557896E+04</totfact>
</mgrwt>
</event>
<event>
 4    3  0.3906307E+000  0.2092934E+03  0.7546771E-02  0.1142127E+00
         21   -1    0    0  501  502  0.00000000000E+00  0.00000000000E+00  0.13713288109E+03  0.13713288109E+03  0.00000000000E+00 0. -1.
         21   -1    0    0  502  503 -0.00000000000E+00 -0.00000000000E+00 -0.32647684083E+03  0.32647684083E+03  0.00000000000E+00 0. -1.
          6    1    1    2  501    0 -0.10843726236E+03  0.46000853724E+02 -0.60604747650E+02  0.21789138085E+03  0.17300000000E+03 0. -1.
         -6    1    1    2    0  503  0.10843726236E+03 -0.46000853724E+02 -0.12873921209E+03  0.24571834108E+03  0.17300000000E+03 0. -1.
<mgrwt>
<rscale>  2 0.20929338E+03</rscale>
<asrwt>0</asrwt>
<pdfrwt beam="1">  1       21 0.21097367E-01 0.20929338E+03</pdfrwt>
<pdfrwt beam="2">  1       21 0.50227205E-01 0.20929338E+03</pdfrwt>
<totfact> 0.78271014E+04</totfact>
</mgrwt>
</event>
<event>
 4    3  0.3906307E+000  0.2309654E+03  0.7546771E-02  0.1125962E+00
         21   -1    0    0  503  502  0.00000000000E+00  0.00000000000E+00  0.25495614993E+02  0.25495614993E+02  0.00000000000E+00 0. -1.
         21   -1    0    0  501  503 -0.00000000000E+00 -0.00000000000E+00 -0.20975661494E+04  0.20975661494E+04  0.00000000000E+00 0. -1.
          6    1    1    2  501    0  0.11123380666E+03 -0.10508591873E+03 -0.98295236006E+03  0.10097229086E+04  0.17300000000E+03 0. -1.
         -6    1    1    2    0  502 -0.11123380666E+03  0.10508591873E+03 -0.10891181743E+04  0.11133388557E+04  0.17300000000E+03 0. -1.
<mgrwt>
<rscale>  2 0.23096539E+03</rscale>
<asrwt>0</asrwt>
<pdfrwt beam="1">  1       21 0.39224027E-02 0.23096539E+03</pdfrwt>
<pdfrwt beam="2">  1       21 0.32270245E+00 0.23096539E+03</pdfrwt>
<totfact> 0.98191034E+03</totfact>
</mgrwt>
</event>
<event>
 4    3  0.3906307E+000  0.1767055E+03  0.7546771E-02  0.1171030E+00
         21   -1    0    0  501  502  0.00000000000E+00  0.00000000000E+00  0.10348451395E+04  0.10348451395E+04  0.00000000000E+00 0.  1.
         21   -1    0    0  502  503 -0.00000000000E+00 -0.00000000000E+00 -0.30210998973E+02  0.30210998973E+02  0.00000000000E+00 0.  1.
          6    1    1    2  501    0 -0.35494795702E+02 -0.59970388193E+01  0.52109190822E+03  0.55023778660E+03  0.17300000000E+03 0.  1.
         -6    1    1    2    0  503  0.35494795702E+02  0.59970388193E+01  0.48354223232E+03  0.51481835188E+03  0.17300000000E+03 0.  1.
<mgrwt>
<rscale>  2 0.17670553E+03</rscale>
<asrwt>0</asrwt>
<pdfrwt beam="1">  1       21 0.15920692E+00 0.17670553E+03</pdfrwt>
<pdfrwt beam="2">  1       21 0.46478468E-02 0.17670553E+03</pdfrwt>
<totfact> 0.78297335E+04</totfact>
</mgrwt>
</event>
<event>
 4    3  0.3906307E+000  0.3094717E+03  0.7546771E-02  0.1080599E+00
         21   -1    0    0  503  502  0.00000000000E+00  0.00000000000E+00  0.17245883374E+04  0.17245883374E+04  0.00000000000E+00 0.  1.
         21   -1    0    0  501  503 -0.00000000000E+00 -0.00000000000E+00 -0.98677332549E+02  0.98677332549E+02  0.00000000000E+00 0.  1.
          6    1    1    2  501    0  0.13773960140E+03 -0.21649834504E+03  0.21016037939E+03  0.37408570711E+03  0.17300000000E+03 0.  1.
         -6    1    1    2    0  502 -0.13773960140E+03  0.21649834504E+03  0.14157506254E+04  0.14491799628E+04  0.17300000000E+03 0.  1.
<mgrwt>
<rscale>  2 0.30947170E+03</rscale>
<asrwt>0</asrwt>
<pdfrwt beam="1">  1       21 0.26532126E+00 0.30947170E+03</pdfrwt>
<pdfrwt beam="2">  1       21 0.15181129E-01 0.30947170E+03</pdfrwt>
<totfact> 0.18628391E+03</totfact>
</mgrwt>
</event>
<event>
 4    3  0.3906307E+000  0.2570678E+03  0.7546771E-02  0.1108918E+00
         21   -1    0    0  501  502  0.00000000000E+00  0.00000000000E+00  0.47513302190E+03  0.47513302190E+03  0.00000000000E+00 0.  1.
         21   -1    0    0  502  503 -0.00000000000E+00 -0.00000000000E+00 -0.21568182404E+03  0.21568182404E+03  0.00000000000E+00 0. -1.
          6    1    1    2  501    0 -0.15013673169E+03  0.11667835627E+03 -0.76114636541E+02  0.26809944968E+03  0.17300000000E+03 0. -1.
         -6    1    1    2    0  503  0.15013673169E+03 -0.11667835627E+03  0.33556583439E+03  0.42271539626E+03  0.17300000000E+03 0.  1.
<mgrwt>
<rscale>  2 0.25706785E+03</rscale>
<asrwt>0</asrwt>
<pdfrwt beam="1">  1       21 0.73097388E-01 0.25706785E+03</pdfrwt>
<pdfrwt beam="2">  1       21 0.33181819E-01 0.25706785E+03</pdfrwt>
<totfact> 0.14185127E+04</totfact>
</mgrwt>
</event>
<event>
 4    3  0.3906307E+000  0.1745192E+03  0.7546771E-02  0.1173215E+00
         21   -1    0    0  503  502  0.00000000000E+00  0.00000000000E+00  0.15033114502E+03  0.15033114502E+03  0.00000000000E+00 0.  1.
         21   -1    0    0  501  503 -0.00000000000E+00 -0.00000000000E+00 -0.55029641613E+03  0.55029641613E+03  0.00000000000E+00 0.  1.
          6    1    1    2  501    0 -0.38192047632E+01 -0.22657246678E+02 -0.47844058562E+03  0.50927628172E+03  0.17300000000E+03 0.  1.
         -6    1    1    2    0  502  0.38192047632E+01  0.22657246678E+02  0.78475314510E+02  0.19135127943E+03  0.17300000000E+03 0.  1.
<mgrwt>
<rscale>  2 0.17451916E+03</rscale>
<asrwt>0</asrwt>
<pdfrwt beam="1">  1       21 0.23127869E-01 0.17451916E+03</pdfrwt>
<pdfrwt beam="2">  1       21 0.84660987E-01 0.17451916E+03</pdfrwt>
<totfact> 0.21472980E+04</totfact>
</mgrwt>
</event>
<event>
 4    3  0.3906307E+000  0.2912482E+03  0.7546771E-02  0.1089699E+00
         21   -1    0    0  503  502  0.00000000000E+00  0.00000000000E+00  0.56305052006E+03  0.56305052006E+03  0.00000000000E+00 0. -1.
         21   -1    0    0  501  503 -0.00000000000E+00 -0.00000000000E+00 -0.53450269351E+03  0.53450269351E+03  0.00000000000E+00 0. -1.
          6    1    1    2  501    0 -0.79108175923E+02  0.22054120719E+03 -0.45077749214E+03  0.53668042166E+03  0.17300000000E+03 0. -1.
         -6    1    1    2    0  502  0.79108175923E+02 -0.22054120719E+03  0.47932531869E+03  0.56087279191E+03  0.17300000000E+03 0. -1.
<mgrwt>
<rscale>  2 0.29124822E+03</rscale>
<asrwt>0</asrwt>
<pdfrwt beam="1">  1       21 0.86623157E-01 0.29124822E+03</pdfrwt>
<pdfrwt beam="2">  1       21 0.82231183E-01 0.29124822E+03</pdfrwt>
<totfact> 0.13722940E+03</totfact>
</mgrwt>
</event>
<event>
 4    3  0.3906307E+000  0.1889900E+03  0.7546771E-02  0.1159375E+00
         21   -1    0    0  503  502  0.00000000000E+00  0.00000000000E+00  0.45846906128E+03  0.45846906128E+03  0.00000000000E+00 0.  1.
         21   -1    0    0  501  503 -0.00000000000E+00 -0.00000000000E+00 -0.20560847815E+03  0.20560847815E+03  0.00000000000E+00 0.  1.
          6    1    1    2  501    0 -0.52925905296E+02  0.54653956268E+02 -0.13524878812E+03  0.23239931385E+03  0.17300000000E+03 0.  1.
         -6    1    1    2    0  502  0.52925905296E+02 -0.54653956268E+02  0.38810937126E+03  0.43167822558E+03  0.17300000000E+03 0.  1.
<mgrwt>
<rscale>  2 0.18898996E+03</rscale>
<asrwt>0</asrwt>
<pdfrwt beam="1">  1       21 0.70533702E-01 0.18898996E+03</pdfrwt>
<pdfrwt beam="2">  1       21 0.31632074E-01 0.18898996E+03</pdfrwt>
<totfact> 0.17546243E+04</totfact>
</mgrwt>
</event>
<event>
 4    3  0.3906307E+000  0.1846681E+03  0.7546771E-02  0.1163360E+00
         21   -1    0    0  503  502  0.00000000000E+00  0.00000000000E+00  0.12873843527E+03  0.12873843527E+03  0.00000000000E+00 0. -1.
         21   -1    0    0  501  503 -0.00000000000E+00 -0.00000000000E+00 -0.87564768208E+03  0.87564768208E+03  0.00000000000E+00 0. -1.
          6    1    1    2  501    0  0.10322459119E+02  0.63771004253E+02 -0.79286420404E+03  0.81408595382E+03  0.17300000000E+03 0. -1.
         -6    1    1    2    0  502 -0.10322459119E+02 -0.63771004253E+02  0.45954957238E+02  0.19030016353E+03  0.17300000000E+03 0. -1.
<mgrwt>
<rscale>  2 0.18466806E+03</rscale>
<asrwt>0</asrwt>
<pdfrwt beam="1">  1       21 0.19805913E-01 0.18466806E+03</pdfrwt>
<pdfrwt beam="2">  1       21 0.13471503E+00 0.18466806E+03</pdfrwt>
<totfact> 0.93399705E+03</totfact>
</mgrwt>
</event>
<event>
 4    3  0.3906307E+000  0.2179820E+03  0.7546771E-02  0.1135397E+00
         21   -1    0    0  503  502  0.00000000000E+00  0.00000000000E+00  0.10085746231E+03  0.10085746231E+03  0.00000000000E+00 0. -1.
         21   -1    0    0  501  503 -0.00000000000E+00 -0.00000000000E+00 -0.57822598796E+03  0.57822598796E+03  0.00000000000E+00 0.  1.
          6    1    1    2  501    0  0.17769579900E+02  0.13142059614E+03 -0.38481714107E+03  0.44226729827E+03  0.17300000000E+03 0.  1.
         -6    1    1    2    0  502 -0.17769579900E+02 -0.13142059614E+03 -0.92551384571E+02  0.23681615200E+03  0.17300000000E+03 0. -1.
<mgrwt>
<rscale>  2 0.21798195E+03</rscale>
<asrwt>0</asrwt>
<pdfrwt beam="1">  1       21 0.15516532E-01 0.21798195E+03</pdfrwt>
<pdfrwt beam="2">  1       21 0.88957845E-01 0.21798195E+03</pdfrwt>
<totfact> 0.39281928E+04</totfact>
</mgrwt>
</event>
<event>
 4    3  0.3906307E+000  0.2251989E+03  0.7546771E-02  0.1130065E+00
         21   -1    0    0  503  502  0.00000000000E+00  0.00000000000E+00  0.16985695324E+03  0.16985695324E+03  0.00000000000E+00 0.  1.
         21   -1    0    0  501  503 -0.00000000000E+00 -0.00000000000E+00 -0.32036814956E+03  0.32036814956E+03  0.00000000000E+00 0. -1.
          6    1    1    2  501    0  0.14264746881E+03 -0.20910427912E+02 -0.13918929671E+03  0.26474177357E+03  0.17300000000E+03 0. -1.
         -6    1    1    2    0  502 -0.14264746881E+03  0.20910427912E+02 -0.11321899609E+02  0.22548332924E+03  0.17300000000E+03 0.  1.
<mgrwt>
<rscale>  2 0.22519890E+03</rscale>
<asrwt>0</asrwt>
<pdfrwt beam="1">  1       21 0.26131839E-01 0.22519890E+03</pdfrwt>
<pdfrwt beam="2">  1       21 0.49287407E-01 0.22519890E+03</pdfrwt>
<totfact> 0.53823062E+04</totfact>
</mgrwt>
</event>
<event>
 4    3  0.3906307E+000  0.1820877E+03  0.7546771E-02  0.1165798E+00
         21   -1    0    0  503  502  0.00000000000E+00  0.00000000000E+00  0.69734886733E+02  0.69734886733E+02  0.00000000000E+00 0. -1.
         21   -1    0    0  501  503 -0.00000000000E+00 -0.00000000000E+00 -0.51498263310E+03  0.51498263310E+03  0.00000000000E+00 0. -1.
          6    1    1    2  501    0  0.54024157925E+02  0.17558761164E+02 -0.14162838325E+03  0.23068272297E+03  0.17300000000E+03 0. -1.
         -6    1    1    2    0  502 -0.54024157925E+02 -0.17558761164E+02 -0.30361936311E+03  0.35403479686E+03  0.17300000000E+03 0. -1.
<mgrwt>
<rscale>  2 0.18208767E+03</rscale>
<asrwt>0</asrwt>
<pdfrwt beam="1">  1       21 0.10728444E-01 0.18208767E+03</pdfrwt>
<pdfrwt beam="2">  1       21 0.79228099E-01 0.18208767E+03</pdfrwt>
<totfact> 0.10113580E+05</totfact>
</mgrwt>
</event>
<event>
 4    3  0.3906307E+000  0.2197554E+03  0.7546771E-02  0.1134066E+00
         21   -1    0    0  501  502  0.00000000000E+00  0.00000000000E+00  0.41647296958E+03  0.41647296958E+03  0.00000000000E+00 0. -1.
         21   -1    0    0  502  503 -0.00000000000E+00 -0.00000000000E+00 -0.14845664506E+03  0.14845664506E+03  0.00000000000E+00 0. -1.
          6    1    1    2  501    0 -0.10710131092E+03  0.83022530670E+02  0.18444428036E+01  0.21976313014E+03  0.17300000000E+03 0. -1.
         -6    1    1    2    0  503  0.10710131092E+03 -0.83022530670E+02  0.26617188172E+03  0.34516648449E+03  0.17300000000E+03 0. -1.
<mgrwt>
<rscale>  2 0.21975539E+03</rscale>
<asrwt>0</asrwt>
<pdfrwt beam="1">  1       21 0.64072764E-01 0.21975539E+03</pdfrwt>
<pdfrwt beam="2">  1       21 0.22839484E-01 0.21975539E+03</pdfrwt>
<totfact> 0.39892956E+04</totfact>
</mgrwt>
</event>
<event>
 4    3  0.3906307E+000  0.1840137E+03  0.7546771E-02  0.1163974E+00
         21   -1    0    0  503  502  0.00000000000E+00  0.00000000000E+00  0.60431956740E+02  0.60431956740E+02  0.00000000000E+00 0. -1.
         21   -1    0    0  501  503 -0.00000000000E+00 -0.00000000000E+00 -0.60327441915E+03  0.60327441915E+03  0.00000000000E+00 0. -1.
          6    1    1    2  501    0 -0.59257958617E+02 -0.20507047663E+02 -0.35997525550E+03  0.40428112649E+03  0.17300000000E+03 0. -1.
         -6    1    1    2    0  502  0.59257958617E+02  0.20507047663E+02 -0.18286720691E+03  0.25942524940E+03  0.17300000000E+03 0. -1.
<mgrwt>
<rscale>  2 0.18401371E+03</rscale>
<asrwt>0</asrwt>
<pdfrwt beam="1">  1       21 0.92972239E-02 0.18401371E+03</pdfrwt>
<pdfrwt beam="2">  1       21 0.92811452E-01 0.18401371E+03</pdfrwt>
<totfact> 0.90573930E+04</totfact>
</mgrwt>
</event>
<event>
 4    3  0.3906307E+000  0.2323407E+03  0.7546771E-02  0.1125003E+00
         21   -1    0    0  503  502  0.00000000000E+00  0.00000000000E+00  0.19401053812E+03  0.19401053812E+03  0.00000000000E+00 0. -1.
         21   -1    0    0  501  503 -0.00000000000E+00 -0.00000000000E+00 -0.28546915291E+03  0.28546915291E+03  0.00000000000E+00 0.  1.
          6    1    1    2  501    0  0.36854616826E+02 -0.15064843801E+03 -0.83870339300E+02  0.24701507742E+03  0.17300000000E+03 0.  1.
         -6    1    1    2    0  502 -0.36854616826E+02  0.15064843801E+03 -0.75882754833E+01  0.23246461361E+03  0.17300000000E+03 0.  1.
<mgrwt>
<rscale>  2 0.23234073E+03</rscale>
<asrwt>0</asrwt>
<pdfrwt beam="1">  1       21 0.29847775E-01 0.23234073E+03</pdfrwt>
<pdfrwt beam="2">  1       21 0.43918331E-01 0.23234073E+03</pdfrwt>
<totfact> 0.52647057E+04</totfact>
</mgrwt>
</event>
<event>
 4    3  0.3906307E+000  0.2216981E+03  0.7546771E-02  0.1132623E+00
         21   -1    0    0  503  502  0.00000000000E+00  0.00000000000E+00  0.30060419369E+04  0.30060419369E+04  0.00000000000E+00 0.  1.
         21   -1    0    0  501  503 -0.00000000000E+00 -0.00000000000E+00 -0.16356161664E+02  0.16356161664E+02  0.00000000000E+00 0.  1.
          6    1    1    2  501    0 -0.12702111323E+03  0.55557958613E+02  0.14665304247E+04  0.14831930207E+04  0.17300000000E+03 0.  1.
         -6    1    1    2    0  502  0.12702111323E+03 -0.55557958613E+02  0.15231553505E+04  0.15392050779E+04  0.17300000000E+03 0.  1.
<mgrwt>
<rscale>  2 0.22169811E+03</rscale>
<asrwt>0</asrwt>
<pdfrwt beam="1">  1       21 0.46246755E+00 0.22169811E+03</pdfrwt>
<pdfrwt beam="2">  1       21 0.25163350E-02 0.22169811E+03</pdfrwt>
<totfact> 0.27893039E+03</totfact>
</mgrwt>
</event>
<event>
 4    3  0.3906307E+000  0.2754138E+03  0.7546771E-02  0.1098221E+00
         21   -1    0    0  501  502  0.00000000000E+00  0.00000000000E+00  0.34089917041E+03  0.34089917041E+03  0.00000000000E+00 0.  1.
         21   -1    0    0  502  503 -0.00000000000E+00 -0.00000000000E+00 -0.47271356996E+03  0.47271356996E+03  0.00000000000E+00 0. -1.
          6    1    1    2  501    0 -0.11377769560E+03  0.18159956955E+03  0.23005569086E+03  0.35885705870E+03  0.17300000000E+03 0.  1.
         -6    1    1    2    0  503  0.11377769560E+03 -0.18159956955E+03 -0.36187009042E+03  0.45475568168E+03  0.17300000000E+03 0. -1.
<mgrwt>
<rscale>  2 0.27541381E+03</rscale>
<asrwt>0</asrwt>
<pdfrwt beam="1">  1       21 0.52446026E-01 0.27541381E+03</pdfrwt>
<pdfrwt beam="2">  1       21 0.72725164E-01 0.27541381E+03</pdfrwt>
<totfact> 0.55615477E+03</totfact>
</mgrwt>
</event>
<event>
 4    3  0.3906307E+000  0.1826526E+03  0.7546771E-02  0.1165260E+00
         21   -1    0    0  503  502  0.00000000000E+00  0.00000000000E+00  0.46847097030E+03  0.46847097030E+03  0.00000000000E+00 0. -1.
         21   -1    0    0  501  503 -0.00000000000E+00 -0.00000000000E+00 -0.78364330118E+02  0.78364330118E+02  0.00000000000E+00 0. -1.
          6    1    1    2  501    0  0.57694692745E+02  0.10212914138E+02  0.27764030517E+03  0.33233435008E+03  0.17300000000E+03 0. -1.
         -6    1    1    2    0  502 -0.57694692745E+02 -0.10212914138E+02  0.11246633501E+03  0.21450095034E+03  0.17300000000E+03 0. -1.
<mgrwt>
<rscale>  2 0.18265262E+03</rscale>
<asrwt>0</asrwt>
<pdfrwt beam="1">  1       21 0.72072455E-01 0.18265262E+03</pdfrwt>
<pdfrwt beam="2">  1       21 0.12056051E-01 0.18265262E+03</pdfrwt>
<totfact> 0.10148504E+05</totfact>
</mgrwt>
</event>
<event>
 4    3  0.3906307E+000  0.1768703E+03  0.7546771E-02  0.1170867E+00
         21   -1    0    0  501  502  0.00000000000E+00  0.00000000000E+00  0.45306951018E+02  0.45306951018E+02  0.00000000000E+00 0. -1.
         21   -1    0    0  502  503 -0.00000000000E+00 -0.00000000000E+00 -0.85678848893E+03  0.85678848893E+03  0.00000000000E+00 0. -1.
          6    1    1    2  501    0 -0.27197176501E+02  0.24787604981E+02 -0.20701447578E+03  0.27228313380E+03  0.17300000000E+03 0. -1.
         -6    1    1    2    0  503  0.27197176501E+02 -0.24787604981E+02 -0.60446706213E+03  0.62981230615E+03  0.17300000000E+03 0. -1.
<mgrwt>
<rscale>  2 0.17687032E+03</rscale>
<asrwt>0</asrwt>
<pdfrwt beam="1">  1       21 0.69703008E-02 0.17687032E+03</pdfrwt>
<pdfrwt beam="2">  1       21 0.13181360E+00 0.17687032E+03</pdfrwt>
<totfact> 0.64111747E+04</totfact>
</mgrwt>
</event>
<event>
 4    3  0.3906307E+000  0.2625698E+03  0.7546771E-02  0.1105609E+00
         21   -1    0    0  503  502  0.00000000000E+00  0.00000000000E+00  0.34871296995E+03  0.34871296995E+03  0.00000000000E+00 0.  1.
         21   -1    0    0  501  503 -0.00000000000E+00 -0.00000000000E+00 -0.20471439179E+03  0.20471439179E+03  0.00000000000E+00 0. -1.
          6    1    1    2  501    0 -0.19189866211E+02  0.19658494086E+03  0.20802350390E+02  0.26339253543E+03  0.17300000000E+03 0. -1.
         -6    1    1    2    0  502  0.19189866211E+02 -0.19658494086E+03  0.12319622777E+03  0.29003482631E+03  0.17300000000E+03 0.  1.
<mgrwt>
<rscale>  2 0.26256978E+03</rscale>
<asrwt>0</asrwt>
<pdfrwt beam="1">  1       21 0.53648149E-01 0.26256978E+03</pdfrwt>
<pdfrwt beam="2">  1       21 0.31494522E-01 0.26256978E+03</pdfrwt>
<totfact> 0.30794055E+04</totfact>
</mgrwt>
</event>
<event>
 4    3  0.3906307E+000  0.2490822E+03  0.7546771E-02  0.1113886E+00
         21   -1    0    0  503  502  0.00000000000E+00  0.00000000000E+00  0.23232625779E+03  0.23232625779E+03  0.00000000000E+00 0.  1.
         21   -1    0    0  501  503 -0.00000000000E+00 -0.00000000000E+00 -0.34930861439E+03  0.34930861439E+03  0.00000000000E+00 0.  1.
          6    1    1    2  501    0  0.46041860457E+02  0.17318511608E+03 -0.19961991762E+03  0.31920220684E+03  0.17300000000E+03 0.  1.
         -6    1    1    2    0  502 -0.46041860457E+02 -0.17318511608E+03  0.82637561010E+02  0.26243266534E+03  0.17300000000E+03 0.  1.
<mgrwt>
<rscale>  2 0.24908219E+03</rscale>
<asrwt>0</asrwt>
<pdfrwt beam="1">  1       21 0.35742501E-01 0.24908219E+03</pdfrwt>
<pdfrwt beam="2">  1       21 0.53739787E-01 0.24908219E+03</pdfrwt>
<totfact> 0.24000695E+04</totfact>
</mgrwt>
</event>
