<event>
 4    1  0.4840632E-008  0.5832199E+03  0.7818608E-02  0.9940844E-01
         -2   -1    0    0    0  501 -0.00000000000E+00  0.00000000000E+00  0.29396456617E+03  0.29396456618E+03  0.25500000000E-02 0.  1.
          2   -1    0    0  501    0  0.00000000000E+00 -0.00000000000E+00 -0.25556963920E+04  0.25556963920E+04  0.25500000000E-02 0. -1.
    8880022    1    1    2    0    0  0.78793195276E+02  0.55726600572E+03 -0.21849015265E+04  0.22614022424E+04  0.15294330000E+03 0.  0.
    8880022    1    1    2    0    0 -0.78793195276E+02 -0.55726600572E+03 -0.76830299379E+02  0.58825871576E+03  0.15294330000E+03 0.  0.
<mgrwt>
<rscale>  0 0.58321987E+03</rscale>
<asrwt>0</asrwt>
<pdfrwt beam="1">  1        2 0.39318404E+00 0.58321987E+03</pdfrwt>
<pdfrwt beam="2">  1       -2 0.45225320E-01 0.58321987E+03</pdfrwt>
<totfact> 0.16184555E+01</totfact>
</mgrwt>
</event>
<event>
 4    1  0.4840632E-008  0.2785278E+03  0.7818608E-02  0.1096496E+00
         -2   -1    0    0    0  501 -0.00000000000E+00  0.00000000000E+00  0.37575130397E+03  0.37575130398E+03  0.25500000000E-02 0.  1.
          2   -1    0    0  501    0  0.00000000000E+00 -0.00000000000E+00 -0.45512760075E+03  0.45512760076E+03  0.25500000000E-02 0. -1.
    8880022    1    1    2    0    0 -0.22861159936E+03 -0.43849905963E+02  0.26739110908E+03  0.38610327096E+03  0.15294330000E+03 0.  1.
    8880022    1    1    2    0    0  0.22861159936E+03  0.43849905963E+02 -0.34676740586E+03  0.44477563377E+03  0.15294330000E+03 0.  0.
<mgrwt>
<rscale>  0 0.27852779E+03</rscale>
<asrwt>0</asrwt>
<pdfrwt beam="1">  1        2 0.70019631E-01 0.27852779E+03</pdfrwt>
<pdfrwt beam="2">  1       -2 0.57807893E-01 0.27852779E+03</pdfrwt>
<totfact> 0.19931154E+02</totfact>
</mgrwt>
</event>
<event>
 4    1  0.4840632E-008  0.1173024E+04  0.7818608E-02  0.9136802E-01
          2   -1    0    0  501    0  0.00000000000E+00  0.00000000000E+00  0.13970769136E+04  0.13970769136E+04  0.25500000000E-02 0. -1.
         -2   -1    0    0    0  501 -0.00000000000E+00 -0.00000000000E+00 -0.10161214012E+04  0.10161214012E+04  0.25500000000E-02 0.  1.
    8880022    1    1    2    0    0 -0.10033432667E+04 -0.58812833842E+03  0.40197280876E+03  0.12399864698E+04  0.15294330000E+03 0.  0.
    8880022    1    1    2    0    0  0.10033432667E+04  0.58812833842E+03 -0.21017296328E+02  0.11732118449E+04  0.15294330000E+03 0.  0.
<mgrwt>
<rscale>  0 0.11730236E+04</rscale>
<asrwt>0</asrwt>
<pdfrwt beam="1">  1        2 0.21493491E+00 0.11730236E+04</pdfrwt>
<pdfrwt beam="2">  1       -2 0.15632637E+00 0.11730236E+04</pdfrwt>
<totfact> 0.37969316E+00</totfact>
</mgrwt>
</event>
<event>
 4    1  0.4840632E-008  0.5059360E+03  0.7818608E-02  0.1012241E+00
         -2   -1    0    0    0  501 -0.00000000000E+00  0.00000000000E+00  0.24503591159E+03  0.24503591160E+03  0.25500000000E-02 0.  1.
          2   -1    0    0  501    0  0.00000000000E+00 -0.00000000000E+00 -0.23889621735E+04  0.23889621735E+04  0.25500000000E-02 0. -1.
    8880022    1    1    2    0    0 -0.42419889248E+03  0.22942286009E+03 -0.20599121979E+04  0.21211340046E+04  0.15294330000E+03 0.  0.
    8880022    1    1    2    0    0  0.42419889248E+03 -0.22942286009E+03 -0.84014063942E+02  0.51286408050E+03  0.15294330000E+03 0.  0.
<mgrwt>
<rscale>  0 0.50593597E+03</rscale>
<asrwt>0</asrwt>
<pdfrwt beam="1">  1        2 0.36753263E+00 0.50593597E+03</pdfrwt>
<pdfrwt beam="2">  1       -2 0.37697834E-01 0.50593597E+03</pdfrwt>
<totfact> 0.29096050E+01</totfact>
</mgrwt>
</event>
<event>
 4    1  0.4840632E-008  0.4039360E+03  0.7818608E-02  0.1042425E+00
          2   -1    0    0  501    0  0.00000000000E+00  0.00000000000E+00  0.22508753693E+04  0.22508753693E+04  0.25500000000E-02 0. -1.
         -2   -1    0    0    0  501 -0.00000000000E+00 -0.00000000000E+00 -0.10338712913E+03  0.10338712916E+03  0.25500000000E-02 0.  1.
    8880022    1    1    2    0    0 -0.36792645253E+03  0.66353328716E+02  0.17172550238E+04  0.17641227589E+04  0.15294330000E+03 0.  0.
    8880022    1    1    2    0    0  0.36792645253E+03 -0.66353328716E+02  0.43023321633E+03  0.59013973951E+03  0.15294330000E+03 0.  1.
<mgrwt>
<rscale>  0 0.40393600E+03</rscale>
<asrwt>0</asrwt>
<pdfrwt beam="1">  1        2 0.34628851E+00 0.40393600E+03</pdfrwt>
<pdfrwt beam="2">  1       -2 0.15905713E-01 0.40393600E+03</pdfrwt>
<totfact> 0.16555498E+02</totfact>
</mgrwt>
</event>
<event>
 4    1  0.4840632E-008  0.6519801E+03  0.7818608E-02  0.9803071E-01
         -2   -1    0    0    0  501 -0.00000000000E+00  0.00000000000E+00  0.63118965613E+03  0.63118965614E+03  0.25500000000E-02 0.  1.
          2   -1    0    0  501    0  0.00000000000E+00 -0.00000000000E+00 -0.10938669643E+04  0.10938669643E+04  0.25500000000E-02 0. -1.
    8880022    1    1    2    0    0  0.60644415912E+03 -0.18415180626E+03  0.30338383690E+03  0.71911043059E+03  0.15294330000E+03 0.  0.
    8880022    1    1    2    0    0 -0.60644415912E+03  0.18415180626E+03 -0.76606114503E+03  0.10059461898E+04  0.15294330000E+03 0.  0.
<mgrwt>
<rscale>  0 0.65198011E+03</rscale>
<asrwt>0</asrwt>
<pdfrwt beam="1">  1        2 0.16828722E+00 0.65198011E+03</pdfrwt>
<pdfrwt beam="2">  1       -2 0.97106101E-01 0.65198011E+03</pdfrwt>
<totfact> 0.20027004E+01</totfact>
</mgrwt>
</event>
<event>
 4    1  0.4840632E-008  0.7448883E+03  0.7818608E-02  0.9643404E-01
          2   -1    0    0  501    0  0.00000000000E+00  0.00000000000E+00  0.48770023386E+04  0.48770023386E+04  0.25500000000E-02 0. -1.
         -2   -1    0    0    0  501 -0.00000000000E+00 -0.00000000000E+00 -0.23834468192E+03  0.23834468193E+03  0.25500000000E-02 0.  1.
    8880022    1    1    2    0    0 -0.95086212556E+02  0.72279010625E+03  0.41684124127E+04  0.42344445469E+04  0.15294330000E+03 0. -1.
    8880022    1    1    2    0    0  0.95086212556E+02 -0.72279010625E+03  0.47024524398E+03  0.88090247361E+03  0.15294330000E+03 0.  0.
<mgrwt>
<rscale>  0 0.74488830E+03</rscale>
<asrwt>0</asrwt>
<pdfrwt beam="1">  1        2 0.75030802E+00 0.74488830E+03</pdfrwt>
<pdfrwt beam="2">  1       -2 0.36668414E-01 0.74488830E+03</pdfrwt>
<totfact> 0.39738098E-01</totfact>
</mgrwt>
</event>
<event>
 4    1  0.4840632E-008  0.3067787E+03  0.7818608E-02  0.1081900E+00
          2   -1    0    0  501    0  0.00000000000E+00  0.00000000000E+00  0.24505481381E+03  0.24505481382E+03  0.25500000000E-02 0. -1.
         -2   -1    0    0    0  501 -0.00000000000E+00 -0.00000000000E+00 -0.88534087858E+03  0.88534087858E+03  0.25500000000E-02 0.  1.
    8880022    1    1    2    0    0  0.26588814589E+03 -0.50007185695E+01  0.10515206781E+03  0.32429943523E+03  0.15294330000E+03 0. -1.
    8880022    1    1    2    0    0 -0.26588814589E+03  0.50007185695E+01 -0.74543813258E+03  0.80609625717E+03  0.15294330000E+03 0.  0.
<mgrwt>
<rscale>  0 0.30677869E+03</rscale>
<asrwt>0</asrwt>
<pdfrwt beam="1">  1        2 0.37700741E-01 0.30677869E+03</pdfrwt>
<pdfrwt beam="2">  1       -2 0.13620629E+00 0.30677869E+03</pdfrwt>
<totfact> 0.55529567E+01</totfact>
</mgrwt>
</event>
<event>
 4    1  0.4840632E-008  0.8872753E+03  0.7818608E-02  0.9441629E-01
          2   -1    0    0  501    0  0.00000000000E+00  0.00000000000E+00  0.17259239382E+04  0.17259239382E+04  0.25500000000E-02 0. -1.
         -2   -1    0    0    0  501 -0.00000000000E+00 -0.00000000000E+00 -0.62148094207E+03  0.62148094208E+03  0.25500000000E-02 0.  1.
    8880022    1    1    2    0    0 -0.19264258056E+03  0.85249907468E+03 -0.53172980001E+02  0.88886717512E+03  0.15294330000E+03 0.  0.
    8880022    1    1    2    0    0  0.19264258056E+03 -0.85249907468E+03  0.11576159761E+04  0.14585377052E+04  0.15294330000E+03 0.  0.
<mgrwt>
<rscale>  0 0.88727532E+03</rscale>
<asrwt>0</asrwt>
<pdfrwt beam="1">  1        2 0.26552676E+00 0.88727532E+03</pdfrwt>
<pdfrwt beam="2">  1       -2 0.95612452E-01 0.88727532E+03</pdfrwt>
<totfact> 0.88021209E+00</totfact>
</mgrwt>
</event>
<event>
 4    1  0.4840632E-008  0.6457383E+03  0.7818608E-02  0.9814809E-01
         -2   -1    0    0    0  501 -0.00000000000E+00  0.00000000000E+00  0.26644417097E+03  0.26644417098E+03  0.25500000000E-02 0.  1.
          2   -1    0    0  501    0  0.00000000000E+00 -0.00000000000E+00 -0.26961510831E+04  0.26961510831E+04  0.25500000000E-02 0. -1.
    8880022    1    1    2    0    0 -0.27270337895E+03 -0.56499484579E+03 -0.21743329235E+04  0.22681934715E+04  0.15294330000E+03 0.  0.
    8880022    1    1    2    0    0  0.27270337895E+03  0.56499484579E+03 -0.25537398864E+03  0.69440178265E+03  0.15294330000E+03 0.  0.
<mgrwt>
<rscale>  0 0.64573831E+03</rscale>
<asrwt>0</asrwt>
<pdfrwt beam="1">  1        2 0.41479246E+00 0.64573831E+03</pdfrwt>
<pdfrwt beam="2">  1       -2 0.40991413E-01 0.64573831E+03</pdfrwt>
<totfact> 0.16123301E+01</totfact>
</mgrwt>
</event>
<event>
 4    1  0.7603101E-008  0.9635609E+03  0.7818608E-02  0.9349439E-01
         -2   -1    0    0    0  501 -0.00000000000E+00  0.00000000000E+00  0.14938083210E+04  0.14938083210E+04  0.25500000000E-02 0.  1.
          2   -1    0    0  501    0  0.00000000000E+00 -0.00000000000E+00 -0.18964331556E+04  0.18964331556E+04  0.25500000000E-02 0. -1.
    8880022    1    1    2    0    0  0.59679146662E+03 -0.74087640954E+03 -0.15911694772E+04  0.18601800631E+04  0.15294330000E+03 0.  0.
    8880022    1    1    2    0    0 -0.59679146662E+03  0.74087640954E+03  0.11885446426E+04  0.15300614136E+04  0.15294330000E+03 0.  0.
<mgrwt>
<rscale>  0 0.96356088E+03</rscale>
<asrwt>0</asrwt>
<pdfrwt beam="1">  1        2 0.29175895E+00 0.96356088E+03</pdfrwt>
<pdfrwt beam="2">  1       -2 0.22981666E+00 0.96356088E+03</pdfrwt>
<totfact> 0.65761549E-01</totfact>
</mgrwt>
</event>
<event>
 4    1  0.4840632E-008  0.5749532E+03  0.7818608E-02  0.9958778E-01
         -2   -1    0    0    0  501 -0.00000000000E+00  0.00000000000E+00  0.37842098817E+03  0.37842098818E+03  0.25500000000E-02 0.  1.
          2   -1    0    0  501    0  0.00000000000E+00 -0.00000000000E+00 -0.14224316107E+04  0.14224316107E+04  0.25500000000E-02 0. -1.
    8880022    1    1    2    0    0 -0.20359349652E+03 -0.51548924443E+03  0.37327473082E+02  0.57616357591E+03  0.15294330000E+03 0.  1.
    8880022    1    1    2    0    0  0.20359349652E+03  0.51548924443E+03 -0.10813380956E+04  0.12246890229E+04  0.15294330000E+03 0.  0.
<mgrwt>
<rscale>  0 0.57495315E+03</rscale>
<asrwt>0</asrwt>
<pdfrwt beam="1">  1        2 0.21883563E+00 0.57495315E+03</pdfrwt>
<pdfrwt beam="2">  1       -2 0.58218614E-01 0.57495315E+03</pdfrwt>
<totfact> 0.40456640E+01</totfact>
</mgrwt>
</event>
<event>
 4    1  0.4840632E-008  0.5681941E+03  0.7818608E-02  0.9973683E-01
         -2   -1    0    0    0  501 -0.00000000000E+00  0.00000000000E+00  0.11317331226E+04  0.11317331226E+04  0.25500000000E-02 0.  1.
          2   -1    0    0  501    0  0.00000000000E+00 -0.00000000000E+00 -0.12242533221E+04  0.12242533221E+04  0.25500000000E-02 0. -1.
    8880022    1    1    2    0    0 -0.44079639153E+03  0.32427064556E+03  0.98540109640E+03  0.11374796192E+04  0.15294330000E+03 0.  0.
    8880022    1    1    2    0    0  0.44079639153E+03 -0.32427064556E+03 -0.10779212960E+04  0.12185068254E+04  0.15294330000E+03 0.  0.
<mgrwt>
<rscale>  0 0.56819412E+03</rscale>
<asrwt>0</asrwt>
<pdfrwt beam="1">  1        2 0.18834666E+00 0.56819412E+03</pdfrwt>
<pdfrwt beam="2">  1       -2 0.17411279E+00 0.56819412E+03</pdfrwt>
<totfact> 0.38588569E+00</totfact>
</mgrwt>
</event>
<event>
 4    1  0.4840632E-008  0.1562838E+03  0.7818608E-02  0.1192957E+00
         -2   -1    0    0    0  501 -0.00000000000E+00  0.00000000000E+00  0.71008484334E+03  0.71008484335E+03  0.25500000000E-02 0.  1.
          2   -1    0    0  501    0  0.00000000000E+00 -0.00000000000E+00 -0.54552515941E+03  0.54552515942E+03  0.25500000000E-02 0. -1.
    8880022    1    1    2    0    0 -0.13084093213E+02 -0.29355821548E+02  0.68997026068E+03  0.70744863517E+03  0.15294330000E+03 0.  0.
    8880022    1    1    2    0    0  0.13084093213E+02  0.29355821548E+02 -0.52541057675E+03  0.54816136760E+03  0.15294330000E+03 0. -1.
<mgrwt>
<rscale>  0 0.15628375E+03</rscale>
<asrwt>0</asrwt>
<pdfrwt beam="1">  1        2 0.83926948E-01 0.15628375E+03</pdfrwt>
<pdfrwt beam="2">  1       -2 0.10924382E+00 0.15628375E+03</pdfrwt>
<totfact> 0.40911605E+01</totfact>
</mgrwt>
</event>
<event>
 4    1  0.4840632E-008  0.6541806E+03  0.7818608E-02  0.9798966E-01
         -2   -1    0    0    0  501 -0.00000000000E+00  0.00000000000E+00  0.17553788396E+03  0.17553788398E+03  0.25500000000E-02 0.  1.
          2   -1    0    0  501    0  0.00000000000E+00 -0.00000000000E+00 -0.35770315973E+04  0.35770315973E+04  0.25500000000E-02 0. -1.
    8880022    1    1    2    0    0 -0.62343993940E+03  0.12602881700E+03 -0.27595497351E+04  0.28360301504E+04  0.15294330000E+03 0.  0.
    8880022    1    1    2    0    0  0.62343993940E+03 -0.12602881700E+03 -0.64194397826E+03  0.91653933085E+03  0.15294330000E+03 0.  0.
<mgrwt>
<rscale>  0 0.65418061E+03</rscale>
<asrwt>0</asrwt>
<pdfrwt beam="1">  1        2 0.55031250E+00 0.65418061E+03</pdfrwt>
<pdfrwt beam="2">  1       -2 0.27005831E-01 0.65418061E+03</pdfrwt>
<totfact> 0.98658120E+00</totfact>
</mgrwt>
</event>
<event>
 4    1  0.4840632E-008  0.5449010E+03  0.7818608E-02  0.1002681E+00
          2   -1    0    0  501    0  0.00000000000E+00  0.00000000000E+00  0.14823147827E+04  0.14823147827E+04  0.25500000000E-02 0. -1.
         -2   -1    0    0    0  501 -0.00000000000E+00 -0.00000000000E+00 -0.45622756756E+03  0.45622756756E+03  0.25500000000E-02 0.  1.
    8880022    1    1    2    0    0 -0.17853121632E+03  0.49158121258E+03 -0.21290794830E+03  0.58501874434E+03  0.15294330000E+03 0.  0.
    8880022    1    1    2    0    0  0.17853121632E+03 -0.49158121258E+03  0.12389951635E+04  0.13535236060E+04  0.15294330000E+03 0.  0.
<mgrwt>
<rscale>  0 0.54490103E+03</rscale>
<asrwt>0</asrwt>
<pdfrwt beam="1">  1        2 0.22804843E+00 0.54490103E+03</pdfrwt>
<pdfrwt beam="2">  1       -2 0.70188857E-01 0.54490103E+03</pdfrwt>
<totfact> 0.25272091E+01</totfact>
</mgrwt>
</event>
<event>
 4    1  0.4840632E-008  0.4752978E+03  0.7818608E-02  0.1020436E+00
         -2   -1    0    0    0  501 -0.00000000000E+00  0.00000000000E+00  0.25317237711E+03  0.25317237713E+03  0.25500000000E-02 0.  1.
          2   -1    0    0  501    0  0.00000000000E+00 -0.00000000000E+00 -0.97206648073E+03  0.97206648073E+03  0.25500000000E-02 0. -1.
    8880022    1    1    2    0    0  0.44465696320E+03  0.69256811001E+02 -0.18396662693E+03  0.50965840877E+03  0.15294330000E+03 0.  0.
    8880022    1    1    2    0    0 -0.44465696320E+03 -0.69256811001E+02 -0.53492747669E+03  0.71558044909E+03  0.15294330000E+03 0.  0.
<mgrwt>
<rscale>  0 0.47529777E+03</rscale>
<asrwt>0</asrwt>
<pdfrwt beam="1">  1        2 0.14954869E+00 0.47529777E+03</pdfrwt>
<pdfrwt beam="2">  1       -2 0.38949597E-01 0.47529777E+03</pdfrwt>
<totfact> 0.16891675E+02</totfact>
</mgrwt>
</event>
<event>
 4    1  0.4840632E-008  0.3090507E+03  0.7818608E-02  0.1080802E+00
          2   -1    0    0  501    0  0.00000000000E+00  0.00000000000E+00  0.10934343994E+04  0.10934343994E+04  0.25500000000E-02 0. -1.
         -2   -1    0    0    0  501 -0.00000000000E+00 -0.00000000000E+00 -0.24579241295E+03  0.24579241296E+03  0.25500000000E-02 0.  1.
    8880022    1    1    2    0    0 -0.12934965706E+03  0.23534937348E+03  0.96143998241E+03  0.10098906645E+04  0.15294330000E+03 0.  0.
    8880022    1    1    2    0    0  0.12934965706E+03 -0.23534937348E+03 -0.11379799600E+03  0.32933614786E+03  0.15294330000E+03 0.  0.
<mgrwt>
<rscale>  0 0.30905067E+03</rscale>
<asrwt>0</asrwt>
<pdfrwt beam="1">  1        2 0.16822067E+00 0.30905067E+03</pdfrwt>
<pdfrwt beam="2">  1       -2 0.37814218E-01 0.30905067E+03</pdfrwt>
<totfact> 0.15366202E+02</totfact>
</mgrwt>
</event>
<event>
 4    1  0.4840632E-008  0.8597752E+03  0.7818608E-02  0.9477310E-01
          2   -1    0    0  501    0  0.00000000000E+00  0.00000000000E+00  0.55492545944E+03  0.55492545944E+03  0.25500000000E-02 0. -1.
         -2   -1    0    0    0  501 -0.00000000000E+00 -0.00000000000E+00 -0.29157376747E+04  0.29157376747E+04  0.25500000000E-02 0.  1.
    8880022    1    1    2    0    0 -0.49652393355E+03 -0.68504436329E+03 -0.24593068401E+04  0.26052645899E+04  0.15294330000E+03 0.  0.
    8880022    1    1    2    0    0  0.49652393355E+03  0.68504436329E+03  0.98494624893E+02  0.86539854426E+03  0.15294330000E+03 0.  0.
<mgrwt>
<rscale>  0 0.85977523E+03</rscale>
<asrwt>0</asrwt>
<pdfrwt beam="1">  1        2 0.85373149E-01 0.85977523E+03</pdfrwt>
<pdfrwt beam="2">  1       -2 0.44857502E+00 0.85977523E+03</pdfrwt>
<totfact> 0.20180259E-01</totfact>
</mgrwt>
</event>
<event>
 4    1  0.4840632E-008  0.4659323E+03  0.7818608E-02  0.1023075E+00
         -2   -1    0    0    0  501 -0.00000000000E+00  0.00000000000E+00  0.39502448095E+03  0.39502448096E+03  0.25500000000E-02 0.  1.
          2   -1    0    0  501    0  0.00000000000E+00 -0.00000000000E+00 -0.14562223042E+04  0.14562223042E+04  0.25500000000E-02 0. -1.
    8880022    1    1    2    0    0  0.20391722223E+03  0.39002436846E+03 -0.12609661722E+04  0.13442948270E+04  0.15294330000E+03 0.  0.
    8880022    1    1    2    0    0 -0.20391722223E+03 -0.39002436846E+03  0.19976834902E+03  0.50695195808E+03  0.15294330000E+03 0.  0.
<mgrwt>
<rscale>  0 0.46593229E+03</rscale>
<asrwt>0</asrwt>
<pdfrwt beam="1">  1        2 0.22403420E+00 0.46593229E+03</pdfrwt>
<pdfrwt beam="2">  1       -2 0.60772998E-01 0.46593229E+03</pdfrwt>
<totfact> 0.36028122E+01</totfact>
</mgrwt>
</event>
<event>
 4    1  0.4840632E-008  0.2301199E+03  0.7818608E-02  0.1126555E+00
          2   -1    0    0  501    0  0.00000000000E+00  0.00000000000E+00  0.44491142713E+03  0.44491142714E+03  0.25500000000E-02 0. -1.
         -2   -1    0    0    0  501 -0.00000000000E+00 -0.00000000000E+00 -0.49604092208E+03  0.49604092209E+03  0.25500000000E-02 0.  1.
    8880022    1    1    2    0    0  0.25570160079E+02 -0.17002846863E+03 -0.43573037872E+03  0.49276376610E+03  0.15294330000E+03 0.  0.
    8880022    1    1    2    0    0 -0.25570160079E+02  0.17002846863E+03  0.38460088377E+03  0.44818858312E+03  0.15294330000E+03 0. -1.
<mgrwt>
<rscale>  0 0.23011990E+03</rscale>
<asrwt>0</asrwt>
<pdfrwt beam="1">  1        2 0.68447912E-01 0.23011990E+03</pdfrwt>
<pdfrwt beam="2">  1       -2 0.76313987E-01 0.23011990E+03</pdfrwt>
<totfact> 0.11392858E+02</totfact>
</mgrwt>
</event>
<event>
 4    1  0.4840632E-008  0.5112066E+03  0.7818608E-02  0.1010895E+00
         -2   -1    0    0    0  501 -0.00000000000E+00  0.00000000000E+00  0.15837361679E+04  0.15837361679E+04  0.25500000000E-02 0.  1.
          2   -1    0    0  501    0  0.00000000000E+00 -0.00000000000E+00 -0.52642580206E+03  0.52642580206E+03  0.25500000000E-02 0. -1.
    8880022    1    1    2    0    0 -0.35387337900E+03 -0.33572932726E+03  0.14028753479E+04  0.14931146789E+04  0.15294330000E+03 0.  0.
    8880022    1    1    2    0    0  0.35387337900E+03  0.33572932726E+03 -0.34556498208E+03  0.61704729106E+03  0.15294330000E+03 0.  0.
<mgrwt>
<rscale>  0 0.51120661E+03</rscale>
<asrwt>0</asrwt>
<pdfrwt beam="1">  1        2 0.80988585E-01 0.51120661E+03</pdfrwt>
<pdfrwt beam="2">  1       -2 0.24365172E+00 0.51120661E+03</pdfrwt>
<totfact> 0.43554017E+00</totfact>
</mgrwt>
</event>
<event>
 4    1  0.4840632E-008  0.4798571E+03  0.7818608E-02  0.1019174E+00
         -2   -1    0    0    0  501 -0.00000000000E+00  0.00000000000E+00  0.19018133111E+03  0.19018133113E+03  0.25500000000E-02 0.  1.
          2   -1    0    0  501    0  0.00000000000E+00 -0.00000000000E+00 -0.41322617841E+04  0.41322617841E+04  0.25500000000E-02 0. -1.
    8880022    1    1    2    0    0 -0.32605826330E+03  0.31710749588E+03 -0.15381439712E+03  0.50390641669E+03  0.15294330000E+03 0.  0.
    8880022    1    1    2    0    0  0.32605826330E+03 -0.31710749588E+03 -0.37882660559E+04  0.38185366986E+04  0.15294330000E+03 0.  0.
<mgrwt>
<rscale>  0 0.47985707E+03</rscale>
<asrwt>0</asrwt>
<pdfrwt beam="1">  1        2 0.63573251E+00 0.47985707E+03</pdfrwt>
<pdfrwt beam="2">  1       -2 0.29258669E-01 0.47985707E+03</pdfrwt>
<totfact> 0.34371330E+00</totfact>
</mgrwt>
</event>
<event>
 4    1  0.4840632E-008  0.4384959E+03  0.7818608E-02  0.1031209E+00
          2   -1    0    0  501    0  0.00000000000E+00  0.00000000000E+00  0.20616667377E+03  0.20616667379E+03  0.25500000000E-02 0. -1.
         -2   -1    0    0    0  501 -0.00000000000E+00 -0.00000000000E+00 -0.13475211999E+04  0.13475211999E+04  0.25500000000E-02 0.  1.
    8880022    1    1    2    0    0  0.23750751518E+03  0.33537614476E+03 -0.13962540764E+03  0.46018896740E+03  0.15294330000E+03 0.  0.
    8880022    1    1    2    0    0 -0.23750751518E+03 -0.33537614476E+03 -0.10017291185E+04  0.10934989063E+04  0.15294330000E+03 0.  0.
<mgrwt>
<rscale>  0 0.43849587E+03</rscale>
<asrwt>0</asrwt>
<pdfrwt beam="1">  1        2 0.31717951E-01 0.43849587E+03</pdfrwt>
<pdfrwt beam="2">  1       -2 0.20731095E+00 0.43849587E+03</pdfrwt>
<totfact> 0.20930388E+01</totfact>
</mgrwt>
</event>
<event>
 4    1  0.4840632E-008  0.3639581E+03  0.7818608E-02  0.1057028E+00
         -2   -1    0    0    0  501 -0.00000000000E+00  0.00000000000E+00  0.16439244291E+03  0.16439244293E+03  0.25500000000E-02 0.  1.
          2   -1    0    0  501    0  0.00000000000E+00 -0.00000000000E+00 -0.19582285966E+04  0.19582285966E+04  0.25500000000E-02 0. -1.
    8880022    1    1    2    0    0  0.71807082336E+02 -0.32236255625E+03 -0.17110972126E+04  0.17493768029E+04  0.15294330000E+03 0.  0.
    8880022    1    1    2    0    0 -0.71807082336E+02  0.32236255625E+03 -0.82738941082E+02  0.37324423657E+03  0.15294330000E+03 0.  1.
<mgrwt>
<rscale>  0 0.36395814E+03</rscale>
<asrwt>0</asrwt>
<pdfrwt beam="1">  1        2 0.30126592E+00 0.36395814E+03</pdfrwt>
<pdfrwt beam="2">  1       -2 0.25291146E-01 0.36395814E+03</pdfrwt>
<totfact> 0.10731691E+02</totfact>
</mgrwt>
</event>
<event>
 4    1  0.4840632E-008  0.7122698E+03  0.7818608E-02  0.9696476E-01
         -2   -1    0    0    0  501 -0.00000000000E+00  0.00000000000E+00  0.66496979113E+03  0.66496979114E+03  0.25500000000E-02 0.  1.
          2   -1    0    0  501    0  0.00000000000E+00 -0.00000000000E+00 -0.10752218072E+04  0.10752218072E+04  0.25500000000E-02 0. -1.
    8880022    1    1    2    0    0  0.40728037674E+03 -0.56396751219E+03 -0.67404226765E+03  0.98064330502E+03  0.15294330000E+03 0.  0.
    8880022    1    1    2    0    0 -0.40728037674E+03  0.56396751219E+03  0.26379025157E+03  0.75954829334E+03  0.15294330000E+03 0.  0.
<mgrwt>
<rscale>  0 0.71226983E+03</rscale>
<asrwt>0</asrwt>
<pdfrwt beam="1">  1        2 0.16541874E+00 0.71226983E+03</pdfrwt>
<pdfrwt beam="2">  1       -2 0.10230304E+00 0.71226983E+03</pdfrwt>
<totfact> 0.18045295E+01</totfact>
</mgrwt>
</event>
<event>
 4    1  0.4840632E-008  0.1184036E+04  0.7818608E-02  0.9126946E-01
          2   -1    0    0  501    0  0.00000000000E+00  0.00000000000E+00  0.13579022447E+04  0.13579022447E+04  0.25500000000E-02 0. -1.
         -2   -1    0    0    0  501 -0.00000000000E+00 -0.00000000000E+00 -0.11072835761E+04  0.11072835761E+04  0.25500000000E-02 0.  1.
    8880022    1    1    2    0    0  0.11738233786E+04 -0.26221715880E+02  0.44578364389E+03  0.12651733529E+04  0.15294330000E+03 0.  0.
    8880022    1    1    2    0    0 -0.11738233786E+04  0.26221715880E+02 -0.19516497528E+03  0.12000124679E+04  0.15294330000E+03 0.  0.
<mgrwt>
<rscale>  0 0.11840357E+04</rscale>
<asrwt>0</asrwt>
<pdfrwt beam="1">  1        2 0.20890804E+00 0.11840357E+04</pdfrwt>
<pdfrwt beam="2">  1       -2 0.17035132E+00 0.11840357E+04</pdfrwt>
<totfact> 0.31533643E+00</totfact>
</mgrwt>
</event>
<event>
 4    1  0.4840632E-008  0.8613982E+03  0.7818608E-02  0.9475165E-01
         -2   -1    0    0    0  501 -0.00000000000E+00  0.00000000000E+00  0.93590014661E+03  0.93590014662E+03  0.25500000000E-02 0.  1.
          2   -1    0    0  501    0  0.00000000000E+00 -0.00000000000E+00 -0.89365442475E+03  0.89365442476E+03  0.25500000000E-02 0. -1.
    8880022    1    1    2    0    0  0.84769857868E+03 -0.47213869857E+01  0.32839281152E+03  0.92187236832E+03  0.15294330000E+03 0.  0.
    8880022    1    1    2    0    0 -0.84769857868E+03  0.47213869857E+01 -0.28614708966E+03  0.90768220305E+03  0.15294330000E+03 0.  0.
<mgrwt>
<rscale>  0 0.86139818E+03</rscale>
<asrwt>0</asrwt>
<pdfrwt beam="1">  1        2 0.13748530E+00 0.86139818E+03</pdfrwt>
<pdfrwt beam="2">  1       -2 0.14398464E+00 0.86139818E+03</pdfrwt>
<totfact> 0.99298486E+00</totfact>
</mgrwt>
</event>
<event>
 4    1  0.4840632E-008  0.2780331E+03  0.7818608E-02  0.1096768E+00
          2   -1    0    0  501    0  0.00000000000E+00  0.00000000000E+00  0.16124150509E+04  0.16124150509E+04  0.25500000000E-02 0. -1.
         -2   -1    0    0    0  501 -0.00000000000E+00 -0.00000000000E+00 -0.15899733300E+03  0.15899733302E+03  0.25500000000E-02 0.  1.
    8880022    1    1    2    0    0  0.12583731047E+03  0.19513001788E+03  0.14669350824E+04  0.14930508838E+04  0.15294330000E+03 0.  0.
    8880022    1    1    2    0    0 -0.12583731047E+03 -0.19513001788E+03 -0.13517364539E+02  0.27836150011E+03  0.15294330000E+03 0.  0.
<mgrwt>
<rscale>  0 0.27803310E+03</rscale>
<asrwt>0</asrwt>
<pdfrwt beam="1">  1        2 0.24806385E+00 0.27803310E+03</pdfrwt>
<pdfrwt beam="2">  1       -2 0.24461129E-01 0.27803310E+03</pdfrwt>
<totfact> 0.17690339E+02</totfact>
</mgrwt>
</event>
<event>
 4    1  0.4840632E-008  0.2914547E+03  0.7818608E-02  0.1089592E+00
         -2   -1    0    0    0  501 -0.00000000000E+00  0.00000000000E+00  0.72560073486E+03  0.72560073486E+03  0.25500000000E-02 0.  1.
          2   -1    0    0  501    0  0.00000000000E+00 -0.00000000000E+00 -0.36818176069E+03  0.36818176069E+03  0.25500000000E-02 0. -1.
    8880022    1    1    2    0    0  0.23054993551E+03  0.91656364882E+02 -0.27294224291E+03  0.39930349731E+03  0.15294330000E+03 0.  0.
    8880022    1    1    2    0    0 -0.23054993551E+03 -0.91656364882E+02  0.63036121708E+03  0.69447899825E+03  0.15294330000E+03 0.  0.
<mgrwt>
<rscale>  0 0.29145465E+03</rscale>
<asrwt>0</asrwt>
<pdfrwt beam="1">  1        2 0.56643348E-01 0.29145465E+03</pdfrwt>
<pdfrwt beam="2">  1       -2 0.11163088E+00 0.29145465E+03</pdfrwt>
<totfact> 0.58244324E+01</totfact>
</mgrwt>
</event>
<event>
 4    1  0.4840632E-008  0.5151574E+03  0.7818608E-02  0.1009897E+00
          2   -1    0    0  501    0  0.00000000000E+00  0.00000000000E+00  0.83296197316E+03  0.83296197317E+03  0.25500000000E-02 0. -1.
         -2   -1    0    0    0  501 -0.00000000000E+00 -0.00000000000E+00 -0.34718410371E+03  0.34718410371E+03  0.25500000000E-02 0.  1.
    8880022    1    1    2    0    0 -0.45890824104E+03 -0.17719681908E+03  0.73596172700E+02  0.52038787076E+03  0.15294330000E+03 0.  0.
    8880022    1    1    2    0    0  0.45890824104E+03  0.17719681908E+03  0.41218169676E+03  0.65975820612E+03  0.15294330000E+03 0.  0.
<mgrwt>
<rscale>  0 0.51515739E+03</rscale>
<asrwt>0</asrwt>
<pdfrwt beam="1">  1        2 0.12814800E+00 0.51515739E+03</pdfrwt>
<pdfrwt beam="2">  1       -2 0.53412939E-01 0.51515739E+03</pdfrwt>
<totfact> 0.11111847E+02</totfact>
</mgrwt>
</event>
<event>
 4    1  0.4840632E-008  0.2798461E+03  0.7818608E-02  0.1095773E+00
          2   -1    0    0  501    0  0.00000000000E+00  0.00000000000E+00  0.50104817171E+03  0.50104817172E+03  0.25500000000E-02 0. -1.
         -2   -1    0    0    0  501 -0.00000000000E+00 -0.00000000000E+00 -0.19002660220E+03  0.19002660221E+03  0.25500000000E-02 0.  1.
    8880022    1    1    2    0    0  0.16677908840E+03 -0.16464179231E+03  0.99400623807E+01  0.28002257401E+03  0.15294330000E+03 0.  1.
    8880022    1    1    2    0    0 -0.16677908840E+03  0.16464179231E+03  0.30108150713E+03  0.41105219992E+03  0.15294330000E+03 0.  0.
<mgrwt>
<rscale>  0 0.27984610E+03</rscale>
<asrwt>0</asrwt>
<pdfrwt beam="1">  1        2 0.77084332E-01 0.27984610E+03</pdfrwt>
<pdfrwt beam="2">  1       -2 0.29234863E-01 0.27984610E+03</pdfrwt>
<totfact> 0.66832719E+02</totfact>
</mgrwt>
</event>
<event>
 4    1  0.4840632E-008  0.7347761E+03  0.7818608E-02  0.9659542E-01
         -2   -1    0    0    0  501 -0.00000000000E+00  0.00000000000E+00  0.12847331965E+04  0.12847331965E+04  0.25500000000E-02 0.  1.
          2   -1    0    0  501    0  0.00000000000E+00 -0.00000000000E+00 -0.81378688381E+03  0.81378688381E+03  0.25500000000E-02 0. -1.
    8880022    1    1    2    0    0  0.58928798152E+03  0.41139268125E+03  0.96514264280E+03  0.12130112272E+04  0.15294330000E+03 0.  0.
    8880022    1    1    2    0    0 -0.58928798152E+03 -0.41139268125E+03 -0.49419633007E+03  0.88550885316E+03  0.15294330000E+03 0.  0.
<mgrwt>
<rscale>  0 0.73477610E+03</rscale>
<asrwt>0</asrwt>
<pdfrwt beam="1">  1        2 0.12519798E+00 0.73477610E+03</pdfrwt>
<pdfrwt beam="2">  1       -2 0.19765126E+00 0.73477610E+03</pdfrwt>
<totfact> 0.47505914E+00</totfact>
</mgrwt>
</event>
<event>
 4    1  0.4840632E-008  0.3824222E+03  0.7818608E-02  0.1050042E+00
          2   -1    0    0  501    0  0.00000000000E+00  0.00000000000E+00  0.26797345218E+04  0.26797345218E+04  0.25500000000E-02 0. -1.
         -2   -1    0    0    0  501 -0.00000000000E+00 -0.00000000000E+00 -0.12402069426E+03  0.12402069429E+03  0.25500000000E-02 0.  1.
    8880022    1    1    2    0    0  0.80100503305E+02  0.34123159191E+03  0.22883294400E+03  0.44565823141E+03  0.15294330000E+03 0.  0.
    8880022    1    1    2    0    0 -0.80100503305E+02 -0.34123159191E+03  0.23268808835E+04  0.23580969846E+04  0.15294330000E+03 0.  0.
<mgrwt>
<rscale>  0 0.38242221E+03</rscale>
<asrwt>0</asrwt>
<pdfrwt beam="1">  1        2 0.41226690E+00 0.38242221E+03</pdfrwt>
<pdfrwt beam="2">  1       -2 0.19080105E-01 0.38242221E+03</pdfrwt>
<totfact> 0.70666154E+01</totfact>
</mgrwt>
</event>
<event>
 4    1  0.4840632E-008  0.5444890E+03  0.7818608E-02  0.1002778E+00
         -2   -1    0    0    0  501 -0.00000000000E+00  0.00000000000E+00  0.55309262192E+03  0.55309262193E+03  0.25500000000E-02 0.  1.
          2   -1    0    0  501    0  0.00000000000E+00 -0.00000000000E+00 -0.10520030877E+04  0.10520030877E+04  0.25500000000E-02 0. -1.
    8880022    1    1    2    0    0  0.21273581978E+03 -0.47730504591E+03 -0.81151239056E+03  0.97725157913E+03  0.15294330000E+03 0.  0.
    8880022    1    1    2    0    0 -0.21273581978E+03  0.47730504591E+03  0.31260192475E+03  0.62784413053E+03  0.15294330000E+03 0.  0.
<mgrwt>
<rscale>  0 0.54448902E+03</rscale>
<asrwt>0</asrwt>
<pdfrwt beam="1">  1        2 0.16184663E+00 0.54448902E+03</pdfrwt>
<pdfrwt beam="2">  1       -2 0.85091173E-01 0.54448902E+03</pdfrwt>
<totfact> 0.29217751E+01</totfact>
</mgrwt>
</event>
<event>
 4    1  0.4840632E-008  0.7609414E+03  0.7818608E-02  0.9618340E-01
         -2   -1    0    0    0  501 -0.00000000000E+00  0.00000000000E+00  0.18511124720E+03  0.18511124721E+03  0.25500000000E-02 0.  1.
          2   -1    0    0  501    0  0.00000000000E+00 -0.00000000000E+00 -0.35393249995E+04  0.35393249995E+04  0.25500000000E-02 0. -1.
    8880022    1    1    2    0    0  0.68297764462E+01 -0.74538141301E+03 -0.10422846372E+04  0.12904995214E+04  0.15294330000E+03 0.  0.
    8880022    1    1    2    0    0 -0.68297764462E+01  0.74538141301E+03 -0.23119291151E+04  0.24339367254E+04  0.15294330000E+03 0.  0.
<mgrwt>
<rscale>  0 0.76094136E+03</rscale>
<asrwt>0</asrwt>
<pdfrwt beam="1">  1        2 0.54451149E+00 0.76094136E+03</pdfrwt>
<pdfrwt beam="2">  1       -2 0.28478656E-01 0.76094136E+03</pdfrwt>
<totfact> 0.92974281E+00</totfact>
</mgrwt>
</event>
<event>
 4    1  0.4840632E-008  0.2260737E+03  0.7818608E-02  0.1129434E+00
         -2   -1    0    0    0  501 -0.00000000000E+00  0.00000000000E+00  0.19941554948E+03  0.19941554950E+03  0.25500000000E-02 0.  1.
          2   -1    0    0  501    0  0.00000000000E+00 -0.00000000000E+00 -0.16017128566E+04  0.16017128566E+04  0.25500000000E-02 0. -1.
    8880022    1    1    2    0    0 -0.12716403150E+03 -0.10745686240E+03  0.12422547453E+03  0.25795598408E+03  0.15294330000E+03 0.  1.
    8880022    1    1    2    0    0  0.12716403150E+03  0.10745686240E+03 -0.15265227817E+04  0.15431724221E+04  0.15294330000E+03 0.  0.
<mgrwt>
<rscale>  0 0.22607371E+03</rscale>
<asrwt>0</asrwt>
<pdfrwt beam="1">  1        2 0.24641735E+00 0.22607371E+03</pdfrwt>
<pdfrwt beam="2">  1       -2 0.30679316E-01 0.22607371E+03</pdfrwt>
<totfact> 0.12095488E+02</totfact>
</mgrwt>
</event>
<event>
 4    1  0.4840632E-008  0.1987697E+03  0.7818608E-02  0.1150781E+00
          2   -1    0    0  501    0  0.00000000000E+00  0.00000000000E+00  0.60355835120E+03  0.60355835121E+03  0.25500000000E-02 0. -1.
         -2   -1    0    0    0  501 -0.00000000000E+00 -0.00000000000E+00 -0.30053889407E+03  0.30053889408E+03  0.25500000000E-02 0.  1.
    8880022    1    1    2    0    0 -0.27941600665E+02  0.12384265399E+03  0.55130801172E+03  0.58604599887E+03  0.15294330000E+03 0. -1.
    8880022    1    1    2    0    0  0.27941600665E+02 -0.12384265399E+03 -0.24828855458E+03  0.31805124642E+03  0.15294330000E+03 0.  1.
<mgrwt>
<rscale>  0 0.19876969E+03</rscale>
<asrwt>0</asrwt>
<pdfrwt beam="1">  1        2 0.92855130E-01 0.19876969E+03</pdfrwt>
<pdfrwt beam="2">  1       -2 0.46236753E-01 0.19876969E+03</pdfrwt>
<totfact> 0.22884424E+02</totfact>
</mgrwt>
</event>
<event>
 4    1  0.4840632E-008  0.4976126E+03  0.7818608E-02  0.1014404E+00
          2   -1    0    0  501    0  0.00000000000E+00  0.00000000000E+00  0.35646320538E+04  0.35646320538E+04  0.25500000000E-02 0. -1.
         -2   -1    0    0    0  501 -0.00000000000E+00 -0.00000000000E+00 -0.21828389807E+03  0.21828389809E+03  0.25500000000E-02 0.  1.
    8880022    1    1    2    0    0  0.15634896712E+03  0.44696936094E+03  0.11141355907E+03  0.50993258701E+03  0.15294330000E+03 0.  0.
    8880022    1    1    2    0    0 -0.15634896712E+03 -0.44696936094E+03  0.32349345967E+04  0.32729833649E+04  0.15294330000E+03 0. -1.
<mgrwt>
<rscale>  0 0.49761256E+03</rscale>
<asrwt>0</asrwt>
<pdfrwt beam="1">  1        2 0.54840497E+00 0.49761256E+03</pdfrwt>
<pdfrwt beam="2">  1       -2 0.33582136E-01 0.49761256E+03</pdfrwt>
<totfact> 0.70071020E+00</totfact>
</mgrwt>
</event>
<event>
 4    1  0.4840632E-008  0.3083630E+03  0.7818608E-02  0.1081133E+00
         -2   -1    0    0    0  501 -0.00000000000E+00  0.00000000000E+00  0.23914061894E+04  0.23914061894E+04  0.25500000000E-02 0.  1.
          2   -1    0    0  501    0  0.00000000000E+00 -0.00000000000E+00 -0.84569752939E+03  0.84569752940E+03  0.25500000000E-02 0. -1.
    8880022    1    1    2    0    0 -0.12287140960E+03  0.23790486789E+03 -0.80718960653E+03  0.86408496305E+03  0.15294330000E+03 0.  0.
    8880022    1    1    2    0    0  0.12287140960E+03 -0.23790486789E+03  0.23528982665E+04  0.23730187557E+04  0.15294330000E+03 0.  0.
<mgrwt>
<rscale>  0 0.30836304E+03</rscale>
<asrwt>0</asrwt>
<pdfrwt beam="1">  1        2 0.13010731E+00 0.30836304E+03</pdfrwt>
<pdfrwt beam="2">  1       -2 0.36790864E+00 0.30836304E+03</pdfrwt>
<totfact> 0.46986172E-01</totfact>
</mgrwt>
</event>
<event>
 4    1  0.4840632E-008  0.4271725E+03  0.7818608E-02  0.1034757E+00
          2   -1    0    0  501    0  0.00000000000E+00  0.00000000000E+00  0.26612725372E+04  0.26612725372E+04  0.25500000000E-02 0. -1.
         -2   -1    0    0    0  501 -0.00000000000E+00 -0.00000000000E+00 -0.96178424294E+02  0.96178424327E+02  0.25500000000E-02 0.  1.
    8880022    1    1    2    0    0 -0.30552109903E+03  0.25640115387E+03  0.54382545380E+03  0.69153631204E+03  0.15294330000E+03 0.  0.
    8880022    1    1    2    0    0  0.30552109903E+03 -0.25640115387E+03  0.20212686591E+04  0.20659146495E+04  0.15294330000E+03 0.  0.
<mgrwt>
<rscale>  0 0.42717250E+03</rscale>
<asrwt>0</asrwt>
<pdfrwt beam="1">  1        2 0.40942652E+00 0.42717250E+03</pdfrwt>
<pdfrwt beam="2">  1       -2 0.14796682E-01 0.42717250E+03</pdfrwt>
<totfact> 0.11019659E+02</totfact>
</mgrwt>
</event>
<event>
 4    1  0.4840632E-008  0.5270912E+03  0.7818608E-02  0.1006940E+00
          2   -1    0    0  501    0  0.00000000000E+00  0.00000000000E+00  0.58257144462E+03  0.58257144463E+03  0.25500000000E-02 0. -1.
         -2   -1    0    0    0  501 -0.00000000000E+00 -0.00000000000E+00 -0.52233018662E+03  0.52233018663E+03  0.25500000000E-02 0.  1.
    8880022    1    1    2    0    0  0.37509483681E+03 -0.33724972780E+03 -0.13281617301E+03  0.54356720314E+03  0.15294330000E+03 0.  0.
    8880022    1    1    2    0    0 -0.37509483681E+03  0.33724972780E+03  0.19305743101E+03  0.56133442811E+03  0.15294330000E+03 0.  0.
<mgrwt>
<rscale>  0 0.52709123E+03</rscale>
<asrwt>0</asrwt>
<pdfrwt beam="1">  1        2 0.89626375E-01 0.52709123E+03</pdfrwt>
<pdfrwt beam="2">  1       -2 0.80358491E-01 0.52709123E+03</pdfrwt>
<totfact> 0.72354384E+01</totfact>
</mgrwt>
</event>
<event>
 4    1  0.4840632E-008  0.6599070E+03  0.7818608E-02  0.9788365E-01
          2   -1    0    0  501    0  0.00000000000E+00  0.00000000000E+00  0.14404915613E+04  0.14404915613E+04  0.25500000000E-02 0. -1.
         -2   -1    0    0    0  501 -0.00000000000E+00 -0.00000000000E+00 -0.57401863591E+03  0.57401863592E+03  0.25500000000E-02 0.  1.
    8880022    1    1    2    0    0  0.45845186364E+02 -0.64029983583E+03 -0.25975345758E+03  0.70918909511E+03  0.15294330000E+03 0.  0.
    8880022    1    1    2    0    0 -0.45845186364E+02  0.64029983583E+03  0.11262263829E+04  0.13053211021E+04  0.15294330000E+03 0.  0.
<mgrwt>
<rscale>  0 0.65990705E+03</rscale>
<asrwt>0</asrwt>
<pdfrwt beam="1">  1        2 0.22161409E+00 0.65990705E+03</pdfrwt>
<pdfrwt beam="2">  1       -2 0.88310560E-01 0.65990705E+03</pdfrwt>
<totfact> 0.15685923E+01</totfact>
</mgrwt>
</event>
<event>
 4    1  0.4840632E-008  0.2159890E+03  0.7818608E-02  0.1136909E+00
          2   -1    0    0  501    0  0.00000000000E+00  0.00000000000E+00  0.37814238053E+04  0.37814238053E+04  0.25500000000E-02 0. -1.
         -2   -1    0    0    0  501 -0.00000000000E+00 -0.00000000000E+00 -0.70251086914E+02  0.70251086961E+02  0.25500000000E-02 0.  1.
    8880022    1    1    2    0    0  0.15223907741E+03 -0.91028479055E+01  0.10700686045E+03  0.24104298316E+03  0.15294330000E+03 0.  0.
    8880022    1    1    2    0    0 -0.15223907741E+03  0.91028479055E+01  0.36041658579E+04  0.36106319091E+04  0.15294330000E+03 0. -1.
<mgrwt>
<rscale>  0 0.21598901E+03</rscale>
<asrwt>0</asrwt>
<pdfrwt beam="1">  1        2 0.58175764E+00 0.21598901E+03</pdfrwt>
<pdfrwt beam="2">  1       -2 0.10807857E-01 0.21598901E+03</pdfrwt>
<totfact> 0.39330288E+01</totfact>
</mgrwt>
</event>
<event>
 4    1  0.4840632E-008  0.2595544E+03  0.7818608E-02  0.1107411E+00
          2   -1    0    0  501    0  0.00000000000E+00  0.00000000000E+00  0.80746998228E+03  0.80746998229E+03  0.25500000000E-02 0. -1.
         -2   -1    0    0    0  501 -0.00000000000E+00 -0.00000000000E+00 -0.66924339353E+03  0.66924339353E+03  0.25500000000E-02 0.  1.
    8880022    1    1    2    0    0 -0.67374715564E+02  0.19858870732E+03 -0.62168814994E+03  0.67369476453E+03  0.15294330000E+03 0.  0.
    8880022    1    1    2    0    0  0.67374715564E+02 -0.19858870732E+03  0.75991473869E+03  0.80301861129E+03  0.15294330000E+03 0.  0.
<mgrwt>
<rscale>  0 0.25955439E+03</rscale>
<asrwt>0</asrwt>
<pdfrwt beam="1">  1        2 0.12422615E+00 0.25955439E+03</pdfrwt>
<pdfrwt beam="2">  1       -2 0.10296052E+00 0.25955439E+03</pdfrwt>
<totfact> 0.28598059E+01</totfact>
</mgrwt>
</event>
<event>
 4    1  0.4840632E-008  0.4841816E+03  0.7818608E-02  0.1017992E+00
          2   -1    0    0  501    0  0.00000000000E+00  0.00000000000E+00  0.13089316037E+04  0.13089316037E+04  0.25500000000E-02 0. -1.
         -2   -1    0    0    0  501 -0.00000000000E+00 -0.00000000000E+00 -0.18587294254E+03  0.18587294256E+03  0.25500000000E-02 0.  1.
    8880022    1    1    2    0    0  0.28662743139E+03 -0.35900545330E+03  0.70418238114E+03  0.85457865574E+03  0.15294330000E+03 0.  0.
    8880022    1    1    2    0    0 -0.28662743139E+03  0.35900545330E+03  0.41887628003E+03  0.64022589054E+03  0.15294330000E+03 0.  0.
<mgrwt>
<rscale>  0 0.48418163E+03</rscale>
<asrwt>0</asrwt>
<pdfrwt beam="1">  1        2 0.20137410E+00 0.48418163E+03</pdfrwt>
<pdfrwt beam="2">  1       -2 0.28595837E-01 0.48418163E+03</pdfrwt>
<totfact> 0.18973511E+02</totfact>
</mgrwt>
</event>
<event>
 4    1  0.4840632E-008  0.2082049E+03  0.7818608E-02  0.1142995E+00
          2   -1    0    0  501    0  0.00000000000E+00  0.00000000000E+00  0.11900483032E+04  0.11900483032E+04  0.25500000000E-02 0. -1.
         -2   -1    0    0    0  501 -0.00000000000E+00 -0.00000000000E+00 -0.30673845610E+03  0.30673845611E+03  0.25500000000E-02 0.  1.
    8880022    1    1    2    0    0 -0.12077299199E+03 -0.73290705374E+02  0.11442068839E+04  0.11629955672E+04  0.15294330000E+03 0. -1.
    8880022    1    1    2    0    0  0.12077299199E+03  0.73290705374E+02 -0.26089703683E+03  0.33379119211E+03  0.15294330000E+03 0.  0.
<mgrwt>
<rscale>  0 0.20820494E+03</rscale>
<asrwt>0</asrwt>
<pdfrwt beam="1">  1        2 0.18308435E+00 0.20820494E+03</pdfrwt>
<pdfrwt beam="2">  1       -2 0.47190532E-01 0.20820494E+03</pdfrwt>
<totfact> 0.89926024E+01</totfact>
</mgrwt>
</event>
<event>
 4    1  0.4840632E-008  0.1208382E+04  0.7818608E-02  0.9105551E-01
         -2   -1    0    0    0  501 -0.00000000000E+00  0.00000000000E+00  0.13557303715E+04  0.13557303715E+04  0.25500000000E-02 0.  1.
          2   -1    0    0  501    0  0.00000000000E+00 -0.00000000000E+00 -0.19406798681E+04  0.19406798681E+04  0.25500000000E-02 0. -1.
    8880022    1    1    2    0    0  0.72129547546E+03  0.95735494905E+03 -0.13919830722E+04  0.18433133721E+04  0.15294330000E+03 0.  0.
    8880022    1    1    2    0    0 -0.72129547546E+03 -0.95735494905E+03  0.80703357555E+03  0.14530968675E+04  0.15294330000E+03 0.  0.
<mgrwt>
<rscale>  0 0.12083821E+04</rscale>
<asrwt>0</asrwt>
<pdfrwt beam="1">  1        2 0.29856613E+00 0.12083821E+04</pdfrwt>
<pdfrwt beam="2">  1       -2 0.20857390E+00 0.12083821E+04</pdfrwt>
<totfact> 0.81786103E-01</totfact>
</mgrwt>
</event>
<event>
 4    1  0.4840632E-008  0.1897544E+03  0.7818608E-02  0.1158683E+00
         -2   -1    0    0    0  501 -0.00000000000E+00  0.00000000000E+00  0.22170473945E+03  0.22170473947E+03  0.25500000000E-02 0.  1.
          2   -1    0    0  501    0  0.00000000000E+00 -0.00000000000E+00 -0.27299192142E+03  0.27299192143E+03  0.25500000000E-02 0. -1.
    8880022    1    1    2    0    0 -0.66173634197E+02 -0.90753130393E+02 -0.18307054864E+03  0.26366941296E+03  0.15294330000E+03 0.  0.
    8880022    1    1    2    0    0  0.66173634197E+02  0.90753130393E+02  0.13178336667E+03  0.23102724793E+03  0.15294330000E+03 0.  1.
<mgrwt>
<rscale>  0 0.18975440E+03</rscale>
<asrwt>0</asrwt>
<pdfrwt beam="1">  1        2 0.41998757E-01 0.18975440E+03</pdfrwt>
<pdfrwt beam="2">  1       -2 0.34108422E-01 0.18975440E+03</pdfrwt>
<totfact> 0.97317003E+02</totfact>
</mgrwt>
</event>
<event>
 4    1  0.4840632E-008  0.4873014E+03  0.7818608E-02  0.1017148E+00
          2   -1    0    0  501    0  0.00000000000E+00  0.00000000000E+00  0.27701882041E+04  0.27701882042E+04  0.25500000000E-02 0. -1.
         -2   -1    0    0    0  501 -0.00000000000E+00 -0.00000000000E+00 -0.11758783303E+03  0.11758783305E+03  0.25500000000E-02 0.  1.
    8880022    1    1    2    0    0  0.36915210745E+03 -0.27892244759E+03  0.57463688703E+03  0.75343892596E+03  0.15294330000E+03 0.  0.
    8880022    1    1    2    0    0 -0.36915210745E+03  0.27892244759E+03  0.20779634841E+04  0.21343371112E+04  0.15294330000E+03 0.  0.
<mgrwt>
<rscale>  0 0.48730141E+03</rscale>
<asrwt>0</asrwt>
<pdfrwt beam="1">  1        2 0.42618279E+00 0.48730141E+03</pdfrwt>
<pdfrwt beam="2">  1       -2 0.18090436E-01 0.48730141E+03</pdfrwt>
<totfact> 0.67035806E+01</totfact>
</mgrwt>
</event>
<event>
 4    1  0.4840632E-008  0.4760392E+03  0.7818608E-02  0.1020229E+00
          2   -1    0    0  501    0  0.00000000000E+00  0.00000000000E+00  0.12041127974E+04  0.12041127974E+04  0.25500000000E-02 0. -1.
         -2   -1    0    0    0  501 -0.00000000000E+00 -0.00000000000E+00 -0.22273276625E+03  0.22273276626E+03  0.25500000000E-02 0.  1.
    8880022    1    1    2    0    0  0.17063387970E+03  0.41725977991E+03  0.20977534653E+03  0.52021052840E+03  0.15294330000E+03 0.  0.
    8880022    1    1    2    0    0 -0.17063387970E+03 -0.41725977991E+03  0.77160468461E+03  0.90663503526E+03  0.15294330000E+03 0.  0.
<mgrwt>
<rscale>  0 0.47603918E+03</rscale>
<asrwt>0</asrwt>
<pdfrwt beam="1">  1        2 0.18524813E+00 0.47603918E+03</pdfrwt>
<pdfrwt beam="2">  1       -2 0.34266579E-01 0.47603918E+03</pdfrwt>
<totfact> 0.15592076E+02</totfact>
</mgrwt>
</event>
<event>
 4    1  0.4840632E-008  0.3745894E+03  0.7818608E-02  0.1052952E+00
          2   -1    0    0  501    0  0.00000000000E+00  0.00000000000E+00  0.35864158261E+03  0.35864158261E+03  0.25500000000E-02 0. -1.
         -2   -1    0    0    0  501 -0.00000000000E+00 -0.00000000000E+00 -0.42703789845E+03  0.42703789846E+03  0.25500000000E-02 0.  1.
    8880022    1    1    2    0    0 -0.19452840181E+03  0.28121927124E+03  0.79531073257E+02  0.38293918872E+03  0.15294330000E+03 0.  0.
    8880022    1    1    2    0    0  0.19452840181E+03 -0.28121927124E+03 -0.14792738910E+03  0.40274029236E+03  0.15294330000E+03 0.  1.
<mgrwt>
<rscale>  0 0.37458942E+03</rscale>
<asrwt>0</asrwt>
<pdfrwt beam="1">  1        2 0.55175628E-01 0.37458942E+03</pdfrwt>
<pdfrwt beam="2">  1       -2 0.65698138E-01 0.37458942E+03</pdfrwt>
<totfact> 0.19685300E+02</totfact>
</mgrwt>
</event>
<event>
 4    1  0.4840632E-008  0.3441946E+03  0.7818608E-02  0.1065023E+00
         -2   -1    0    0    0  501 -0.00000000000E+00  0.00000000000E+00  0.37543825081E+03  0.37543825081E+03  0.25500000000E-02 0.  1.
          2   -1    0    0  501    0  0.00000000000E+00 -0.00000000000E+00 -0.15884486898E+04  0.15884486898E+04  0.25500000000E-02 0. -1.
    8880022    1    1    2    0    0 -0.30161623005E+03 -0.64077201830E+02 -0.14855209587E+04  0.15248745554E+04  0.15294330000E+03 0.  0.
    8880022    1    1    2    0    0  0.30161623005E+03  0.64077201830E+02  0.27251051968E+03  0.43901238522E+03  0.15294330000E+03 0.  0.
<mgrwt>
<rscale>  0 0.34419455E+03</rscale>
<asrwt>0</asrwt>
<pdfrwt beam="1">  1        2 0.24437672E+00 0.34419455E+03</pdfrwt>
<pdfrwt beam="2">  1       -2 0.57759732E-01 0.34419455E+03</pdfrwt>
<totfact> 0.34848691E+01</totfact>
</mgrwt>
</event>
<event>
 4    1  0.4840632E-008  0.3143287E+03  0.7818608E-02  0.1078289E+00
         -2   -1    0    0    0  501 -0.00000000000E+00  0.00000000000E+00  0.13082587652E+03  0.13082587654E+03  0.25500000000E-02 0.  1.
          2   -1    0    0  501    0  0.00000000000E+00 -0.00000000000E+00 -0.97381083504E+03  0.97381083504E+03  0.25500000000E-02 0. -1.
    8880022    1    1    2    0    0  0.85924078299E+02 -0.26082163243E+03 -0.15981485504E+03  0.35262347069E+03  0.15294330000E+03 0.  0.
    8880022    1    1    2    0    0 -0.85924078299E+02  0.26082163243E+03 -0.68317010348E+03  0.75201324089E+03  0.15294330000E+03 0.  0.
<mgrwt>
<rscale>  0 0.31432869E+03</rscale>
<asrwt>0</asrwt>
<pdfrwt beam="1">  1        2 0.14981705E+00 0.31432869E+03</pdfrwt>
<pdfrwt beam="2">  1       -2 0.20127059E-01 0.31432869E+03</pdfrwt>
<totfact> 0.56755112E+02</totfact>
</mgrwt>
</event>
<event>
 4    1  0.4840632E-008  0.6120431E+03  0.7818608E-02  0.9880731E-01
         -2   -1    0    0    0  501 -0.00000000000E+00  0.00000000000E+00  0.10048724616E+04  0.10048724616E+04  0.25500000000E-02 0.  1.
          2   -1    0    0  501    0  0.00000000000E+00 -0.00000000000E+00 -0.41417576439E+03  0.41417576439E+03  0.25500000000E-02 0. -1.
    8880022    1    1    2    0    0  0.46713454185E+03 -0.36467855885E+03  0.51965933019E+03  0.80289638431E+03  0.15294330000E+03 0.  0.
    8880022    1    1    2    0    0 -0.46713454185E+03  0.36467855885E+03  0.71037367015E+02  0.61615184168E+03  0.15294330000E+03 0.  0.
<mgrwt>
<rscale>  0 0.61204312E+03</rscale>
<asrwt>0</asrwt>
<pdfrwt beam="1">  1        2 0.63719349E-01 0.61204312E+03</pdfrwt>
<pdfrwt beam="2">  1       -2 0.15459576E+00 0.61204312E+03</pdfrwt>
<totfact> 0.21685534E+01</totfact>
</mgrwt>
</event>
<event>
 4    1  0.7842252E-008  0.7097964E+03  0.7818608E-02  0.9700624E-01
         -2   -1    0    0    0  501 -0.00000000000E+00  0.00000000000E+00  0.15002907026E+04  0.15002907026E+04  0.25500000000E-02 0.  1.
          2   -1    0    0  501    0  0.00000000000E+00 -0.00000000000E+00 -0.12255957580E+04  0.12255957580E+04  0.25500000000E-02 0. -1.
    8880022    1    1    2    0    0 -0.59343560853E+03  0.35812483068E+03  0.12986547624E+04  0.14799713040E+04  0.15294330000E+03 0.  0.
    8880022    1    1    2    0    0  0.59343560853E+03 -0.35812483068E+03 -0.10239598178E+04  0.12459151565E+04  0.15294330000E+03 0.  0.
<mgrwt>
<rscale>  0 0.70979636E+03</rscale>
<asrwt>0</asrwt>
<pdfrwt beam="1">  1        2 0.18855319E+00 0.70979636E+03</pdfrwt>
<pdfrwt beam="2">  1       -2 0.23081395E+00 0.70979636E+03</pdfrwt>
<totfact> 0.16081058E+00</totfact>
</mgrwt>
</event>
<event>
 4    1  0.4840632E-008  0.4285547E+03  0.7818608E-02  0.1034318E+00
         -2   -1    0    0    0  501 -0.00000000000E+00  0.00000000000E+00  0.90795138909E+03  0.90795138909E+03  0.25500000000E-02 0.  1.
          2   -1    0    0  501    0  0.00000000000E+00 -0.00000000000E+00 -0.16752807280E+04  0.16752807280E+04  0.25500000000E-02 0. -1.
    8880022    1    1    2    0    0 -0.38630563671E+03  0.10504960630E+03 -0.15947962531E+04  0.16513734304E+04  0.15294330000E+03 0.  0.
    8880022    1    1    2    0    0  0.38630563671E+03 -0.10504960630E+03  0.82746691423E+03  0.93185868665E+03  0.15294330000E+03 0.  0.
<mgrwt>
<rscale>  0 0.42855468E+03</rscale>
<asrwt>0</asrwt>
<pdfrwt beam="1">  1        2 0.25773550E+00 0.42855468E+03</pdfrwt>
<pdfrwt beam="2">  1       -2 0.13968483E+00 0.42855468E+03</pdfrwt>
<totfact> 0.40342497E+00</totfact>
</mgrwt>
</event>
<event>
 4    1  0.4840632E-008  0.5145360E+03  0.7818608E-02  0.1010053E+00
          2   -1    0    0  501    0  0.00000000000E+00  0.00000000000E+00  0.65667661173E+03  0.65667661174E+03  0.25500000000E-02 0. -1.
         -2   -1    0    0    0  501 -0.00000000000E+00 -0.00000000000E+00 -0.78689255551E+03  0.78689255552E+03  0.25500000000E-02 0.  1.
    8880022    1    1    2    0    0  0.48567897118E+03  0.73969979796E+02 -0.56914551622E+03  0.76725086680E+03  0.15294330000E+03 0.  0.
    8880022    1    1    2    0    0 -0.48567897118E+03 -0.73969979796E+02  0.43892957244E+03  0.67631830046E+03  0.15294330000E+03 0.  0.
<mgrwt>
<rscale>  0 0.51453598E+03</rscale>
<asrwt>0</asrwt>
<pdfrwt beam="1">  1        2 0.10102717E+00 0.51453598E+03</pdfrwt>
<pdfrwt beam="2">  1       -2 0.12106039E+00 0.51453598E+03</pdfrwt>
<totfact> 0.23965668E+01</totfact>
</mgrwt>
</event>
<event>
 4    1  0.4840632E-008  0.5732002E+03  0.7818608E-02  0.9962622E-01
          2   -1    0    0  501    0  0.00000000000E+00  0.00000000000E+00  0.83999814217E+03  0.83999814218E+03  0.25500000000E-02 0. -1.
         -2   -1    0    0    0  501 -0.00000000000E+00 -0.00000000000E+00 -0.74425040227E+03  0.74425040227E+03  0.25500000000E-02 0.  1.
    8880022    1    1    2    0    0 -0.55236557352E+03  0.76852789544E+01  0.59349086389E+03  0.82509990235E+03  0.15294330000E+03 0.  0.
    8880022    1    1    2    0    0  0.55236557352E+03 -0.76852789544E+01 -0.49774312398E+03  0.75914864210E+03  0.15294330000E+03 0.  0.
<mgrwt>
<rscale>  0 0.57320018E+03</rscale>
<asrwt>0</asrwt>
<pdfrwt beam="1">  1        2 0.12923048E+00 0.57320018E+03</pdfrwt>
<pdfrwt beam="2">  1       -2 0.11450006E+00 0.57320018E+03</pdfrwt>
<totfact> 0.19905380E+01</totfact>
</mgrwt>
</event>
<event>
 4    1  0.4840632E-008  0.2844825E+03  0.7818608E-02  0.1093266E+00
         -2   -1    0    0    0  501 -0.00000000000E+00  0.00000000000E+00  0.97948843947E+02  0.97948843980E+02  0.25500000000E-02 0.  1.
          2   -1    0    0  501    0  0.00000000000E+00 -0.00000000000E+00 -0.12058721065E+04  0.12058721065E+04  0.25500000000E-02 0. -1.
    8880022    1    1    2    0    0 -0.45340912659E+02 -0.23554799752E+03 -0.91973545770E+03  0.96272717977E+03  0.15294330000E+03 0.  0.
    8880022    1    1    2    0    0  0.45340912659E+02  0.23554799752E+03 -0.18818780481E+03  0.34109377067E+03  0.15294330000E+03 0.  0.
<mgrwt>
<rscale>  0 0.28448253E+03</rscale>
<asrwt>0</asrwt>
<pdfrwt beam="1">  1        2 0.18551877E+00 0.28448253E+03</pdfrwt>
<pdfrwt beam="2">  1       -2 0.15069054E-01 0.28448253E+03</pdfrwt>
<totfact> 0.67520725E+02</totfact>
</mgrwt>
</event>
<event>
 4    1  0.4840632E-008  0.2323221E+03  0.7818608E-02  0.1125016E+00
         -2   -1    0    0    0  501 -0.00000000000E+00  0.00000000000E+00  0.67661577716E+02  0.67661577764E+02  0.25500000000E-02 0.  1.
          2   -1    0    0  501    0  0.00000000000E+00 -0.00000000000E+00 -0.96040412795E+03  0.96040412795E+03  0.25500000000E-02 0. -1.
    8880022    1    1    2    0    0  0.14441924569E+03  0.98615426136E+02 -0.23479621647E+03  0.33030718594E+03  0.15294330000E+03 0.  0.
    8880022    1    1    2    0    0 -0.14441924569E+03 -0.98615426136E+02 -0.65794633376E+03  0.69775851977E+03  0.15294330000E+03 0.  0.
<mgrwt>
<rscale>  0 0.23232213E+03</rscale>
<asrwt>0</asrwt>
<pdfrwt beam="1">  1        2 0.14775447E+00 0.23232213E+03</pdfrwt>
<pdfrwt beam="2">  1       -2 0.10409474E-01 0.23232213E+03</pdfrwt>
<totfact> 0.17276324E+03</totfact>
</mgrwt>
</event>
<event>
 4    1  0.4840632E-008  0.2762182E+03  0.7818608E-02  0.1097773E+00
         -2   -1    0    0    0  501 -0.00000000000E+00  0.00000000000E+00  0.11865998982E+03  0.11865998984E+03  0.25500000000E-02 0.  1.
          2   -1    0    0  501    0  0.00000000000E+00 -0.00000000000E+00 -0.21313997917E+04  0.21313997917E+04  0.25500000000E-02 0. -1.
    8880022    1    1    2    0    0  0.22847480606E+03 -0.26534894451E+02 -0.19465124685E+04  0.19660130419E+04  0.15294330000E+03 0.  0.
    8880022    1    1    2    0    0 -0.22847480606E+03  0.26534894451E+02 -0.66227333360E+02  0.28404673968E+03  0.15294330000E+03 0.  1.
<mgrwt>
<rscale>  0 0.27621819E+03</rscale>
<asrwt>0</asrwt>
<pdfrwt beam="1">  1        2 0.32790763E+00 0.27621819E+03</pdfrwt>
<pdfrwt beam="2">  1       -2 0.18255385E-01 0.27621819E+03</pdfrwt>
<totfact> 0.15640995E+02</totfact>
</mgrwt>
</event>
<event>
 4    1  0.4840632E-008  0.1961605E+03  0.7818608E-02  0.1153019E+00
         -2   -1    0    0    0  501 -0.00000000000E+00  0.00000000000E+00  0.33579076201E+03  0.33579076202E+03  0.25500000000E-02 0.  1.
          2   -1    0    0  501    0  0.00000000000E+00 -0.00000000000E+00 -0.14562859128E+04  0.14562859128E+04  0.25500000000E-02 0. -1.
    8880022    1    1    2    0    0 -0.75336872563E+02 -0.97013647290E+02  0.29981487499E+03  0.35828466951E+03  0.15294330000E+03 0.  0.
    8880022    1    1    2    0    0  0.75336872563E+02  0.97013647290E+02 -0.14203100258E+04  0.14337920053E+04  0.15294330000E+03 0. -1.
<mgrwt>
<rscale>  0 0.19616051E+03</rscale>
<asrwt>0</asrwt>
<pdfrwt beam="1">  1        2 0.22404398E+00 0.19616051E+03</pdfrwt>
<pdfrwt beam="2">  1       -2 0.51660118E-01 0.19616051E+03</pdfrwt>
<totfact> 0.53950196E+01</totfact>
</mgrwt>
</event>
<event>
 4    1  0.4840632E-008  0.3989504E+03  0.7818608E-02  0.1044144E+00
          2   -1    0    0  501    0  0.00000000000E+00  0.00000000000E+00  0.19076272764E+04  0.19076272764E+04  0.25500000000E-02 0. -1.
         -2   -1    0    0    0  501 -0.00000000000E+00 -0.00000000000E+00 -0.13103249616E+03  0.13103249618E+03  0.25500000000E-02 0.  1.
    8880022    1    1    2    0    0 -0.31766991851E+03  0.18669661880E+03  0.27394053257E+03  0.48394717997E+03  0.15294330000E+03 0.  0.
    8880022    1    1    2    0    0  0.31766991851E+03 -0.18669661880E+03  0.15026542477E+04  0.15547125926E+04  0.15294330000E+03 0.  0.
<mgrwt>
<rscale>  0 0.39895045E+03</rscale>
<asrwt>0</asrwt>
<pdfrwt beam="1">  1        2 0.29348111E+00 0.39895045E+03</pdfrwt>
<pdfrwt beam="2">  1       -2 0.20158846E-01 0.39895045E+03</pdfrwt>
<totfact> 0.16897721E+02</totfact>
</mgrwt>
</event>
<event>
 4    1  0.4840632E-008  0.1774442E+04  0.7818608E-02  0.8720010E-01
          2   -1    0    0  501    0  0.00000000000E+00  0.00000000000E+00  0.32075495056E+04  0.32075495056E+04  0.25500000000E-02 0. -1.
         -2   -1    0    0    0  501 -0.00000000000E+00 -0.00000000000E+00 -0.12976270853E+04  0.12976270853E+04  0.25500000000E-02 0.  1.
    8880022    1    1    2    0    0 -0.16332344756E+04 -0.67660671977E+03  0.20665519249E+04  0.27238355341E+04  0.15294330000E+03 0.  0.
    8880022    1    1    2    0    0  0.16332344756E+04  0.67660671977E+03 -0.15662950468E+03  0.17813410567E+04  0.15294330000E+03 0.  0.
<mgrwt>
<rscale>  0 0.17744416E+04</rscale>
<asrwt>0</asrwt>
<pdfrwt beam="1">  1        2 0.49346915E+00 0.17744416E+04</pdfrwt>
<pdfrwt beam="2">  1       -2 0.19963494E+00 0.17744416E+04</pdfrwt>
<totfact> 0.15678938E-01</totfact>
</mgrwt>
</event>
<event>
 4    1  0.4840632E-008  0.5198038E+03  0.7818608E-02  0.1008735E+00
         -2   -1    0    0    0  501 -0.00000000000E+00  0.00000000000E+00  0.21305518871E+03  0.21305518872E+03  0.25500000000E-02 0.  1.
          2   -1    0    0  501    0  0.00000000000E+00 -0.00000000000E+00 -0.26343128269E+04  0.26343128269E+04  0.25500000000E-02 0. -1.
    8880022    1    1    2    0    0  0.90373884429E+02  0.48850471468E+03 -0.18539317458E+03  0.55187550901E+03  0.15294330000E+03 0.  0.
    8880022    1    1    2    0    0 -0.90373884429E+02 -0.48850471468E+03 -0.22358644636E+04  0.22954925066E+04  0.15294330000E+03 0.  0.
<mgrwt>
<rscale>  0 0.51980376E+03</rscale>
<asrwt>0</asrwt>
<pdfrwt beam="1">  1        2 0.40527887E+00 0.51980376E+03</pdfrwt>
<pdfrwt beam="2">  1       -2 0.32777723E-01 0.51980376E+03</pdfrwt>
<totfact> 0.27535232E+01</totfact>
</mgrwt>
</event>
<event>
 4    1  0.6611992E-008  0.9040462E+03  0.7818608E-02  0.9420538E-01
          2   -1    0    0  501    0  0.00000000000E+00  0.00000000000E+00  0.22014405638E+04  0.22014405638E+04  0.25500000000E-02 0. -1.
         -2   -1    0    0    0  501 -0.00000000000E+00 -0.00000000000E+00 -0.12866362465E+04  0.12866362466E+04  0.25500000000E-02 0.  1.
    8880022    1    1    2    0    0  0.88693559380E+03  0.85165428593E+02 -0.10136523188E+04  0.13582306779E+04  0.15294330000E+03 0.  0.
    8880022    1    1    2    0    0 -0.88693559380E+03 -0.85165428593E+02  0.19284566361E+04  0.21298461324E+04  0.15294330000E+03 0.  0.
<mgrwt>
<rscale>  0 0.90404621E+03</rscale>
<asrwt>0</asrwt>
<pdfrwt beam="1">  1        2 0.33868316E+00 0.90404621E+03</pdfrwt>
<pdfrwt beam="2">  1       -2 0.19794404E+00 0.90404621E+03</pdfrwt>
<totfact> 0.71976178E-01</totfact>
</mgrwt>
</event>
<event>
 4    1  0.4840632E-008  0.2810683E+03  0.7818608E-02  0.1095107E+00
         -2   -1    0    0    0  501 -0.00000000000E+00  0.00000000000E+00  0.64674059460E+02  0.64674059510E+02  0.25500000000E-02 0.  1.
          2   -1    0    0  501    0  0.00000000000E+00 -0.00000000000E+00 -0.24943028714E+04  0.24943028714E+04  0.25500000000E-02 0. -1.
    8880022    1    1    2    0    0  0.31851016627E+01 -0.23579140865E+03 -0.30082261466E+03  0.41169604293E+03  0.15294330000E+03 0.  0.
    8880022    1    1    2    0    0 -0.31851016627E+01  0.23579140865E+03 -0.21288061973E+04  0.21472808880E+04  0.15294330000E+03 0. -1.
<mgrwt>
<rscale>  0 0.28106829E+03</rscale>
<asrwt>0</asrwt>
<pdfrwt beam="1">  1        2 0.38373883E+00 0.28106829E+03</pdfrwt>
<pdfrwt beam="2">  1       -2 0.99498572E-02 0.28106829E+03</pdfrwt>
<totfact> 0.27009674E+02</totfact>
</mgrwt>
</event>
<event>
 4    1  0.4840632E-008  0.3219938E+03  0.7818608E-02  0.1074735E+00
          2   -1    0    0  501    0  0.00000000000E+00  0.00000000000E+00  0.18868371790E+04  0.18868371790E+04  0.25500000000E-02 0. -1.
         -2   -1    0    0    0  501 -0.00000000000E+00 -0.00000000000E+00 -0.75825831129E+02  0.75825831172E+02  0.25500000000E-02 0.  1.
    8880022    1    1    2    0    0 -0.16953678486E+03 -0.22703660140E+03  0.39058720692E+03  0.50619992001E+03  0.15294330000E+03 0.  0.
    8880022    1    1    2    0    0  0.16953678486E+03  0.22703660140E+03  0.14204241410E+04  0.14564630902E+04  0.15294330000E+03 0. -1.
<mgrwt>
<rscale>  0 0.32199378E+03</rscale>
<asrwt>0</asrwt>
<pdfrwt beam="1">  1        2 0.29028261E+00 0.32199378E+03</pdfrwt>
<pdfrwt beam="2">  1       -2 0.11665514E-01 0.32199378E+03</pdfrwt>
<totfact> 0.43860722E+02</totfact>
</mgrwt>
</event>
<event>
 4    1  0.4840632E-008  0.2867753E+03  0.7818608E-02  0.1092045E+00
          2   -1    0    0  501    0  0.00000000000E+00  0.00000000000E+00  0.11964617623E+03  0.11964617626E+03  0.25500000000E-02 0. -1.
         -2   -1    0    0    0  501 -0.00000000000E+00 -0.00000000000E+00 -0.84817299035E+03  0.84817299035E+03  0.25500000000E-02 0.  1.
    8880022    1    1    2    0    0  0.16095178075E+03 -0.18150197007E+03 -0.15355519612E+03  0.32529877364E+03  0.15294330000E+03 0. -1.
    8880022    1    1    2    0    0 -0.16095178075E+03  0.18150197007E+03 -0.57497161800E+03  0.64252039297E+03  0.15294330000E+03 0.  0.
<mgrwt>
<rscale>  0 0.28677534E+03</rscale>
<asrwt>0</asrwt>
<pdfrwt beam="1">  1        2 0.18407105E-01 0.28677534E+03</pdfrwt>
<pdfrwt beam="2">  1       -2 0.13048815E+00 0.28677534E+03</pdfrwt>
<totfact> 0.13857858E+02</totfact>
</mgrwt>
</event>
<event>
 4    1  0.4840632E-008  0.4207621E+03  0.7818608E-02  0.1036819E+00
          2   -1    0    0  501    0  0.00000000000E+00  0.00000000000E+00  0.22396209025E+03  0.22396209026E+03  0.25500000000E-02 0. -1.
         -2   -1    0    0    0  501 -0.00000000000E+00 -0.00000000000E+00 -0.10164454675E+04  0.10164454675E+04  0.25500000000E-02 0.  1.
    8880022    1    1    2    0    0  0.39079790682E+03 -0.30431692977E+02 -0.10382664772E+03  0.43338287657E+03  0.15294330000E+03 0.  0.
    8880022    1    1    2    0    0 -0.39079790682E+03  0.30431692977E+02 -0.68865672956E+03  0.80702468122E+03  0.15294330000E+03 0.  0.
<mgrwt>
<rscale>  0 0.42076210E+03</rscale>
<asrwt>0</asrwt>
<pdfrwt beam="1">  1        2 0.34455707E-01 0.42076210E+03</pdfrwt>
<pdfrwt beam="2">  1       -2 0.15637622E+00 0.42076210E+03</pdfrwt>
<totfact> 0.42346702E+01</totfact>
</mgrwt>
</event>
<event>
 4    1  0.4840632E-008  0.3960884E+03  0.7818608E-02  0.1045143E+00
         -2   -1    0    0    0  501 -0.00000000000E+00  0.00000000000E+00  0.31138812092E+03  0.31138812094E+03  0.25500000000E-02 0.  1.
          2   -1    0    0  501    0  0.00000000000E+00 -0.00000000000E+00 -0.15665389109E+04  0.15665389109E+04  0.25500000000E-02 0. -1.
    8880022    1    1    2    0    0  0.28037475276E+03 -0.23427416636E+03  0.14579172423E+03  0.42206784630E+03  0.15294330000E+03 0.  0.
    8880022    1    1    2    0    0 -0.28037475276E+03  0.23427416636E+03 -0.14009425142E+04  0.14558591855E+04  0.15294330000E+03 0.  0.
<mgrwt>
<rscale>  0 0.39608842E+03</rscale>
<asrwt>0</asrwt>
<pdfrwt beam="1">  1        2 0.24100598E+00 0.39608842E+03</pdfrwt>
<pdfrwt beam="2">  1       -2 0.47905866E-01 0.39608842E+03</pdfrwt>
<totfact> 0.51767878E+01</totfact>
</mgrwt>
</event>
<event>
 4    1  0.4840632E-008  0.5339778E+03  0.7818608E-02  0.1005272E+00
          2   -1    0    0  501    0  0.00000000000E+00  0.00000000000E+00  0.19914055685E+04  0.19914055685E+04  0.25500000000E-02 0. -1.
         -2   -1    0    0    0  501 -0.00000000000E+00 -0.00000000000E+00 -0.25131648675E+03  0.25131648676E+03  0.25500000000E-02 0.  1.
    8880022    1    1    2    0    0 -0.49200698198E+03 -0.14024883053E+03  0.13448426982E+03  0.55065259159E+03  0.15294330000E+03 0.  0.
    8880022    1    1    2    0    0  0.49200698198E+03  0.14024883053E+03  0.16056048120E+04  0.16920694637E+04  0.15294330000E+03 0. -1.
<mgrwt>
<rscale>  0 0.53397777E+03</rscale>
<asrwt>0</asrwt>
<pdfrwt beam="1">  1        2 0.30637008E+00 0.53397777E+03</pdfrwt>
<pdfrwt beam="2">  1       -2 0.38664075E-01 0.53397777E+03</pdfrwt>
<totfact> 0.45394769E+01</totfact>
</mgrwt>
</event>
<event>
 4    1  0.4840632E-008  0.4147035E+03  0.7818608E-02  0.1038804E+00
          2   -1    0    0  501    0  0.00000000000E+00  0.00000000000E+00  0.35023317295E+04  0.35023317295E+04  0.25500000000E-02 0. -1.
         -2   -1    0    0    0  501 -0.00000000000E+00 -0.00000000000E+00 -0.21643443981E+03  0.21643443983E+03  0.25500000000E-02 0.  1.
    8880022    1    1    2    0    0  0.21754175539E+03 -0.31821842027E+03  0.32778553309E+04  0.33039846552E+04  0.15294330000E+03 0.  0.
    8880022    1    1    2    0    0 -0.21754175539E+03  0.31821842027E+03  0.80419587584E+01  0.41478151412E+03  0.15294330000E+03 0.  0.
<mgrwt>
<rscale>  0 0.41470355E+03</rscale>
<asrwt>0</asrwt>
<pdfrwt beam="1">  1        2 0.53882022E+00 0.41470355E+03</pdfrwt>
<pdfrwt beam="2">  1       -2 0.33297609E-01 0.41470355E+03</pdfrwt>
<totfact> 0.80724683E+00</totfact>
</mgrwt>
</event>
<event>
 4    1  0.4840632E-008  0.1303572E+04  0.7818608E-02  0.9026737E-01
         -2   -1    0    0    0  501 -0.00000000000E+00  0.00000000000E+00  0.24076704086E+04  0.24076704086E+04  0.25500000000E-02 0.  1.
          2   -1    0    0  501    0  0.00000000000E+00 -0.00000000000E+00 -0.15240890595E+04  0.15240890595E+04  0.25500000000E-02 0. -1.
    8880022    1    1    2    0    0  0.71497478018E+03  0.10792215803E+04  0.18822761672E+04  0.22895989557E+04  0.15294330000E+03 0.  0.
    8880022    1    1    2    0    0 -0.71497478018E+03 -0.10792215803E+04 -0.99869481815E+03  0.16421605124E+04  0.15294330000E+03 0.  0.
<mgrwt>
<rscale>  0 0.13035719E+04</rscale>
<asrwt>0</asrwt>
<pdfrwt beam="1">  1        2 0.23447524E+00 0.13035719E+04</pdfrwt>
<pdfrwt beam="2">  1       -2 0.37041083E+00 0.13035719E+04</pdfrwt>
<totfact> 0.13726564E-01</totfact>
</mgrwt>
</event>
<event>
 4    1  0.4840632E-008  0.1307715E+04  0.7818608E-02  0.9023469E-01
          2   -1    0    0  501    0  0.00000000000E+00  0.00000000000E+00  0.39206777624E+04  0.39206777624E+04  0.25500000000E-02 0. -1.
         -2   -1    0    0    0  501 -0.00000000000E+00 -0.00000000000E+00 -0.45398837767E+03  0.45398837768E+03  0.25500000000E-02 0.  1.
    8880022    1    1    2    0    0  0.59520042660E+03 -0.11543237635E+04  0.13001201536E+04  0.18440257498E+04  0.15294330000E+03 0.  1.
    8880022    1    1    2    0    0 -0.59520042660E+03  0.11543237635E+04  0.21665692310E+04  0.25306403903E+04  0.15294330000E+03 0.  0.
<mgrwt>
<rscale>  0 0.13077150E+04</rscale>
<asrwt>0</asrwt>
<pdfrwt beam="1">  1        2 0.60318120E+00 0.13077150E+04</pdfrwt>
<pdfrwt beam="2">  1       -2 0.69844366E-01 0.13077150E+04</pdfrwt>
<totfact> 0.73963965E-01</totfact>
</mgrwt>
</event>
<event>
 4    1  0.4840632E-008  0.1028671E+04  0.7818608E-02  0.9277646E-01
         -2   -1    0    0    0  501 -0.00000000000E+00  0.00000000000E+00  0.12791288363E+04  0.12791288364E+04  0.25500000000E-02 0.  1.
          2   -1    0    0  501    0  0.00000000000E+00 -0.00000000000E+00 -0.13561882487E+04  0.13561882487E+04  0.25500000000E-02 0. -1.
    8880022    1    1    2    0    0 -0.27296999050E+03  0.97992876963E+03 -0.86142327561E+03  0.13417208063E+04  0.15294330000E+03 0.  0.
    8880022    1    1    2    0    0  0.27296999050E+03 -0.97992876963E+03  0.78436386330E+03  0.12935962787E+04  0.15294330000E+03 0.  0.
<mgrwt>
<rscale>  0 0.10286713E+04</rscale>
<asrwt>0</asrwt>
<pdfrwt beam="1">  1        2 0.20864435E+00 0.10286713E+04</pdfrwt>
<pdfrwt beam="2">  1       -2 0.19678905E+00 0.10286713E+04</pdfrwt>
<totfact> 0.21181817E+00</totfact>
</mgrwt>
</event>
<event>
 4    1  0.4840632E-008  0.1019380E+04  0.7818608E-02  0.9287541E-01
          2   -1    0    0  501    0  0.00000000000E+00  0.00000000000E+00  0.13443545070E+04  0.13443545070E+04  0.25500000000E-02 0. -1.
         -2   -1    0    0    0  501 -0.00000000000E+00 -0.00000000000E+00 -0.10882371529E+04  0.10882371529E+04  0.25500000000E-02 0.  1.
    8880022    1    1    2    0    0  0.54224538336E+02  0.10063817550E+04  0.78272753067E+03  0.12852231626E+04  0.15294330000E+03 0.  0.
    8880022    1    1    2    0    0 -0.54224538336E+02 -0.10063817550E+04 -0.52661017658E+03  0.11473684973E+04  0.15294330000E+03 0.  0.
<mgrwt>
<rscale>  0 0.10193803E+04</rscale>
<asrwt>0</asrwt>
<pdfrwt beam="1">  1        2 0.20682377E+00 0.10193803E+04</pdfrwt>
<pdfrwt beam="2">  1       -2 0.16742110E+00 0.10193803E+04</pdfrwt>
<totfact> 0.34281012E+00</totfact>
</mgrwt>
</event>
<event>
 4    1  0.4840632E-008  0.2757797E+03  0.7818608E-02  0.1098017E+00
         -2   -1    0    0    0  501 -0.00000000000E+00  0.00000000000E+00  0.23874785868E+03  0.23874785870E+03  0.25500000000E-02 0.  1.
          2   -1    0    0  501    0  0.00000000000E+00 -0.00000000000E+00 -0.10349769592E+04  0.10349769592E+04  0.25500000000E-02 0. -1.
    8880022    1    1    2    0    0  0.18294451429E+01 -0.22947646451E+03 -0.92797873141E+03  0.96809037470E+03  0.15294330000E+03 0.  0.
    8880022    1    1    2    0    0 -0.18294451429E+01  0.22947646451E+03  0.13174963087E+03  0.30563444322E+03  0.15294330000E+03 0.  0.
<mgrwt>
<rscale>  0 0.27577971E+03</rscale>
<asrwt>0</asrwt>
<pdfrwt beam="1">  1        2 0.15922722E+00 0.27577971E+03</pdfrwt>
<pdfrwt beam="2">  1       -2 0.36730440E-01 0.27577971E+03</pdfrwt>
<totfact> 0.17696343E+02</totfact>
</mgrwt>
</event>
<event>
 4    1  0.4840632E-008  0.3769829E+03  0.7818608E-02  0.1052055E+00
         -2   -1    0    0    0  501 -0.00000000000E+00  0.00000000000E+00  0.37986612829E+03  0.37986612830E+03  0.25500000000E-02 0.  1.
          2   -1    0    0  501    0  0.00000000000E+00 -0.00000000000E+00 -0.16310847025E+04  0.16310847025E+04  0.25500000000E-02 0. -1.
    8880022    1    1    2    0    0 -0.28114706495E+03  0.19920031473E+03 -0.15082713863E+04  0.15546699538E+04  0.15294330000E+03 0.  0.
    8880022    1    1    2    0    0  0.28114706495E+03 -0.19920031473E+03  0.25705281207E+03  0.45628087701E+03  0.15294330000E+03 0.  0.
<mgrwt>
<rscale>  0 0.37698288E+03</rscale>
<asrwt>0</asrwt>
<pdfrwt beam="1">  1        2 0.25093610E+00 0.37698288E+03</pdfrwt>
<pdfrwt beam="2">  1       -2 0.58440944E-01 0.37698288E+03</pdfrwt>
<totfact> 0.32005381E+01</totfact>
</mgrwt>
</event>
<event>
 4    1  0.4840632E-008  0.1150369E+04  0.7818608E-02  0.9157443E-01
          2   -1    0    0  501    0  0.00000000000E+00  0.00000000000E+00  0.32175700641E+04  0.32175700641E+04  0.25500000000E-02 0. -1.
         -2   -1    0    0    0  501 -0.00000000000E+00 -0.00000000000E+00 -0.51889913612E+03  0.51889913613E+03  0.25500000000E-02 0.  1.
    8880022    1    1    2    0    0  0.11326058711E+04  0.13100249123E+03  0.49855469967E+03  0.12537568160E+04  0.15294330000E+03 0.  0.
    8880022    1    1    2    0    0 -0.11326058711E+04 -0.13100249123E+03  0.22001162284E+04  0.24827123843E+04  0.15294330000E+03 0.  0.
<mgrwt>
<rscale>  0 0.11503692E+04</rscale>
<asrwt>0</asrwt>
<pdfrwt beam="1">  1        2 0.49501078E+00 0.11503692E+04</pdfrwt>
<pdfrwt beam="2">  1       -2 0.79830636E-01 0.11503692E+04</pdfrwt>
<totfact> 0.17614824E+00</totfact>
</mgrwt>
</event>
<event>
 4    1  0.4840632E-008  0.4523826E+03  0.7818608E-02  0.1027014E+00
         -2   -1    0    0    0  501 -0.00000000000E+00  0.00000000000E+00  0.24899110529E+03  0.24899110531E+03  0.25500000000E-02 0.  1.
          2   -1    0    0  501    0  0.00000000000E+00 -0.00000000000E+00 -0.15843513704E+04  0.15843513704E+04  0.25500000000E-02 0. -1.
    8880022    1    1    2    0    0  0.41168317149E+03  0.10851400534E+03 -0.13035805920E+04  0.13798450406E+04  0.15294330000E+03 0.  0.
    8880022    1    1    2    0    0 -0.41168317149E+03 -0.10851400534E+03 -0.31779673074E+02  0.45349743514E+03  0.15294330000E+03 0.  0.
<mgrwt>
<rscale>  0 0.45238255E+03</rscale>
<asrwt>0</asrwt>
<pdfrwt beam="1">  1        2 0.24374636E+00 0.45238255E+03</pdfrwt>
<pdfrwt beam="2">  1       -2 0.38306325E-01 0.45238255E+03</pdfrwt>
<totfact> 0.77638143E+01</totfact>
</mgrwt>
</event>
<event>
 4    1  0.4840632E-008  0.3808937E+03  0.7818608E-02  0.1050604E+00
         -2   -1    0    0    0  501 -0.00000000000E+00  0.00000000000E+00  0.18027337033E+03  0.18027337035E+03  0.25500000000E-02 0.  1.
          2   -1    0    0  501    0  0.00000000000E+00 -0.00000000000E+00 -0.17420111149E+04  0.17420111149E+04  0.25500000000E-02 0. -1.
    8880022    1    1    2    0    0  0.95182665199E+02  0.33560192123E+03 -0.75873904696E+02  0.38837725438E+03  0.15294330000E+03 0.  0.
    8880022    1    1    2    0    0 -0.95182665199E+02 -0.33560192123E+03 -0.14858638399E+04  0.15339072309E+04  0.15294330000E+03 0. -1.
<mgrwt>
<rscale>  0 0.38089374E+03</rscale>
<asrwt>0</asrwt>
<pdfrwt beam="1">  1        2 0.26800170E+00 0.38089374E+03</pdfrwt>
<pdfrwt beam="2">  1       -2 0.27734366E-01 0.38089374E+03</pdfrwt>
<totfact> 0.11809218E+02</totfact>
</mgrwt>
</event>
<event>
 4    1  0.4840632E-008  0.1037795E+04  0.7818608E-02  0.9268036E-01
         -2   -1    0    0    0  501 -0.00000000000E+00  0.00000000000E+00  0.34859966814E+03  0.34859966815E+03  0.25500000000E-02 0.  1.
          2   -1    0    0  501    0  0.00000000000E+00 -0.00000000000E+00 -0.45073625396E+04  0.45073625396E+04  0.25500000000E-02 0. -1.
    8880022    1    1    2    0    0 -0.10182048388E+04 -0.12994768635E+03 -0.71764792070E+03  0.12617597577E+04  0.15294330000E+03 0.  1.
    8880022    1    1    2    0    0  0.10182048388E+04  0.12994768635E+03 -0.34411149508E+04  0.35942024501E+04  0.15294330000E+03 0.  0.
<mgrwt>
<rscale>  0 0.10377953E+04</rscale>
<asrwt>0</asrwt>
<pdfrwt beam="1">  1        2 0.69344035E+00 0.10377953E+04</pdfrwt>
<pdfrwt beam="2">  1       -2 0.53630721E-01 0.10377953E+04</pdfrwt>
<totfact> 0.42367314E-01</totfact>
</mgrwt>
</event>
<event>
 4    1  0.4840632E-008  0.5606940E+03  0.7818608E-02  0.9990486E-01
          2   -1    0    0  501    0  0.00000000000E+00  0.00000000000E+00  0.24444474506E+04  0.24444474506E+04  0.25500000000E-02 0. -1.
         -2   -1    0    0    0  501 -0.00000000000E+00 -0.00000000000E+00 -0.40193277282E+03  0.40193277282E+03  0.25500000000E-02 0.  1.
    8880022    1    1    2    0    0  0.26630315424E+02  0.53877349631E+03  0.21948705453E+04  0.22653552520E+04  0.15294330000E+03 0.  0.
    8880022    1    1    2    0    0 -0.26630315424E+02 -0.53877349631E+03 -0.15235586754E+03  0.58102497142E+03  0.15294330000E+03 0.  0.
<mgrwt>
<rscale>  0 0.56069395E+03</rscale>
<asrwt>0</asrwt>
<pdfrwt beam="1">  1        2 0.37606884E+00 0.56069395E+03</pdfrwt>
<pdfrwt beam="2">  1       -2 0.61835811E-01 0.56069395E+03</pdfrwt>
<totfact> 0.98892037E+00</totfact>
</mgrwt>
</event>
<event>
 4    1  0.4840632E-008  0.5698132E+03  0.7818608E-02  0.9970092E-01
         -2   -1    0    0    0  501 -0.00000000000E+00  0.00000000000E+00  0.25861850950E+03  0.25861850951E+03  0.25500000000E-02 0.  1.
          2   -1    0    0  501    0  0.00000000000E+00 -0.00000000000E+00 -0.21616683260E+04  0.21616683260E+04  0.25500000000E-02 0. -1.
    8880022    1    1    2    0    0  0.40636736937E+03  0.36899996093E+03 -0.16799675558E+03  0.59406226353E+03  0.15294330000E+03 0.  0.
    8880022    1    1    2    0    0 -0.40636736937E+03 -0.36899996093E+03 -0.17350530609E+04  0.18262245719E+04  0.15294330000E+03 0.  0.
<mgrwt>
<rscale>  0 0.56981318E+03</rscale>
<asrwt>0</asrwt>
<pdfrwt beam="1">  1        2 0.33256435E+00 0.56981318E+03</pdfrwt>
<pdfrwt beam="2">  1       -2 0.39787464E-01 0.56981318E+03</pdfrwt>
<totfact> 0.34510245E+01</totfact>
</mgrwt>
</event>
<event>
 4    1  0.4840632E-008  0.6617746E+03  0.7818608E-02  0.9784932E-01
         -2   -1    0    0    0  501 -0.00000000000E+00  0.00000000000E+00  0.48115072465E+03  0.48115072466E+03  0.25500000000E-02 0.  1.
          2   -1    0    0  501    0  0.00000000000E+00 -0.00000000000E+00 -0.99261030465E+03  0.99261030466E+03  0.25500000000E-02 0. -1.
    8880022    1    1    2    0    0 -0.28070590277E+03  0.57944641415E+03 -0.46804754670E+03  0.81056406885E+03  0.15294330000E+03 0.  0.
    8880022    1    1    2    0    0  0.28070590277E+03 -0.57944641415E+03 -0.43412033309E+02  0.66319696047E+03  0.15294330000E+03 0.  0.
<mgrwt>
<rscale>  0 0.66177459E+03</rscale>
<asrwt>0</asrwt>
<pdfrwt beam="1">  1        2 0.15270928E+00 0.66177459E+03</pdfrwt>
<pdfrwt beam="2">  1       -2 0.74023189E-01 0.66177459E+03</pdfrwt>
<totfact> 0.42878594E+01</totfact>
</mgrwt>
</event>
<event>
 4    1  0.4840632E-008  0.3316294E+03  0.7818608E-02  0.1070418E+00
         -2   -1    0    0    0  501 -0.00000000000E+00  0.00000000000E+00  0.32545727523E+03  0.32545727524E+03  0.25500000000E-02 0.  1.
          2   -1    0    0  501    0  0.00000000000E+00 -0.00000000000E+00 -0.14000791803E+04  0.14000791803E+04  0.25500000000E-02 0. -1.
    8880022    1    1    2    0    0  0.87566593089E+02 -0.28092432557E+03  0.21416130570E+03  0.39476968323E+03  0.15294330000E+03 0.  0.
    8880022    1    1    2    0    0 -0.87566593089E+02  0.28092432557E+03 -0.12887832108E+04  0.13307667723E+04  0.15294330000E+03 0. -1.
<mgrwt>
<rscale>  0 0.33162937E+03</rscale>
<asrwt>0</asrwt>
<pdfrwt beam="1">  1        2 0.21539679E+00 0.33162937E+03</pdfrwt>
<pdfrwt beam="2">  1       -2 0.50070351E-01 0.33162937E+03</pdfrwt>
<totfact> 0.59177995E+01</totfact>
</mgrwt>
</event>
<event>
 4    1  0.4840632E-008  0.6499931E+03  0.7818608E-02  0.9806792E-01
          2   -1    0    0  501    0  0.00000000000E+00  0.00000000000E+00  0.22739133098E+04  0.22739133098E+04  0.25500000000E-02 0. -1.
         -2   -1    0    0    0  501 -0.00000000000E+00 -0.00000000000E+00 -0.36506459991E+03  0.36506459992E+03  0.25500000000E-02 0.  1.
    8880022    1    1    2    0    0 -0.40748228144E+03 -0.48276041459E+03  0.18790570337E+04  0.19883023957E+04  0.15294330000E+03 0.  0.
    8880022    1    1    2    0    0  0.40748228144E+03  0.48276041459E+03  0.29791676142E+02  0.65067551404E+03  0.15294330000E+03 0.  1.
<mgrwt>
<rscale>  0 0.64999314E+03</rscale>
<asrwt>0</asrwt>
<pdfrwt beam="1">  1        2 0.34983282E+00 0.64999314E+03</pdfrwt>
<pdfrwt beam="2">  1       -2 0.56163784E-01 0.64999314E+03</pdfrwt>
<totfact> 0.14779664E+01</totfact>
</mgrwt>
</event>
<event>
 4    1  0.4840632E-008  0.1473672E+04  0.7818608E-02  0.8902152E-01
         -2   -1    0    0    0  501 -0.00000000000E+00  0.00000000000E+00  0.12067357924E+04  0.12067357924E+04  0.25500000000E-02 0.  1.
          2   -1    0    0  501    0  0.00000000000E+00 -0.00000000000E+00 -0.19468037337E+04  0.19468037337E+04  0.25500000000E-02 0. -1.
    8880022    1    1    2    0    0 -0.48838573872E+03 -0.13819541203E+04 -0.80352866434E+03  0.16785016497E+04  0.15294330000E+03 0.  0.
    8880022    1    1    2    0    0  0.48838573872E+03  0.13819541203E+04  0.63460723068E+02  0.14750378764E+04  0.15294330000E+03 0.  0.
<mgrwt>
<rscale>  0 0.14736721E+04</rscale>
<asrwt>0</asrwt>
<pdfrwt beam="1">  1        2 0.29950827E+00 0.14736721E+04</pdfrwt>
<pdfrwt beam="2">  1       -2 0.18565166E+00 0.14736721E+04</pdfrwt>
<totfact> 0.11186649E+00</totfact>
</mgrwt>
</event>
<event>
 4    1  0.4840632E-008  0.4264912E+03  0.7818608E-02  0.1034974E+00
          2   -1    0    0  501    0  0.00000000000E+00  0.00000000000E+00  0.18457950715E+04  0.18457950715E+04  0.25500000000E-02 0. -1.
         -2   -1    0    0    0  501 -0.00000000000E+00 -0.00000000000E+00 -0.20449726418E+03  0.20449726420E+03  0.25500000000E-02 0.  1.
    8880022    1    1    2    0    0  0.39584800749E+03 -0.42513759942E+02  0.82751084280E+02  0.43444500203E+03  0.15294330000E+03 0.  0.
    8880022    1    1    2    0    0 -0.39584800749E+03  0.42513759942E+02  0.15585467231E+04  0.16158473337E+04  0.15294330000E+03 0. -1.
<mgrwt>
<rscale>  0 0.42649117E+03</rscale>
<asrwt>0</asrwt>
<pdfrwt beam="1">  1        2 0.28396848E+00 0.42649117E+03</pdfrwt>
<pdfrwt beam="2">  1       -2 0.31461117E-01 0.42649117E+03</pdfrwt>
<totfact> 0.81803808E+01</totfact>
</mgrwt>
</event>
<event>
 4    1  0.4840632E-008  0.6985931E+03  0.7818608E-02  0.9719641E-01
          2   -1    0    0  501    0  0.00000000000E+00  0.00000000000E+00  0.77383297044E+03  0.77383297045E+03  0.25500000000E-02 0. -1.
         -2   -1    0    0    0  501 -0.00000000000E+00 -0.00000000000E+00 -0.11280492435E+04  0.11280492435E+04  0.25500000000E-02 0.  1.
    8880022    1    1    2    0    0  0.48958750750E+03  0.47428337001E+03 -0.80855084594E+03  0.10685442275E+04  0.15294330000E+03 0.  0.
    8880022    1    1    2    0    0 -0.48958750750E+03 -0.47428337001E+03  0.45433457289E+03  0.83333798648E+03  0.15294330000E+03 0.  0.
<mgrwt>
<rscale>  0 0.69859308E+03</rscale>
<asrwt>0</asrwt>
<pdfrwt beam="1">  1        2 0.11905123E+00 0.69859308E+03</pdfrwt>
<pdfrwt beam="2">  1       -2 0.17354604E+00 0.69859308E+03</pdfrwt>
<totfact> 0.74197701E+00</totfact>
</mgrwt>
</event>
<event>
 4    1  0.4840632E-008  0.8849032E+03  0.7818608E-02  0.9444652E-01
          2   -1    0    0  501    0  0.00000000000E+00  0.00000000000E+00  0.18356155349E+04  0.18356155349E+04  0.25500000000E-02 0. -1.
         -2   -1    0    0    0  501 -0.00000000000E+00 -0.00000000000E+00 -0.47365511112E+03  0.47365511113E+03  0.25500000000E-02 0.  1.
    8880022    1    1    2    0    0 -0.35136553080E+03  0.79762414442E+03  0.10449515672E+04  0.13692981570E+04  0.15294330000E+03 0.  0.
    8880022    1    1    2    0    0  0.35136553080E+03 -0.79762414442E+03  0.31700885664E+03  0.93997248907E+03  0.15294330000E+03 0.  0.
<mgrwt>
<rscale>  0 0.88490320E+03</rscale>
<asrwt>0</asrwt>
<pdfrwt beam="1">  1        2 0.28240239E+00 0.88490320E+03</pdfrwt>
<pdfrwt beam="2">  1       -2 0.72870018E-01 0.88490320E+03</pdfrwt>
<totfact> 0.14220818E+01</totfact>
</mgrwt>
</event>
<event>
 4    1  0.4840632E-008  0.6664116E+03  0.7818608E-02  0.9776462E-01
          2   -1    0    0  501    0  0.00000000000E+00  0.00000000000E+00  0.97167381096E+03  0.97167381097E+03  0.25500000000E-02 0. -1.
         -2   -1    0    0    0  501 -0.00000000000E+00 -0.00000000000E+00 -0.10069042929E+04  0.10069042929E+04  0.25500000000E-02 0.  1.
    8880022    1    1    2    0    0  0.64700867950E+03  0.45744964993E+02 -0.74867439940E+03  0.10023062618E+04  0.15294330000E+03 0.  0.
    8880022    1    1    2    0    0 -0.64700867950E+03 -0.45744964993E+02  0.71344391747E+03  0.97627184204E+03  0.15294330000E+03 0.  0.
<mgrwt>
<rscale>  0 0.66641165E+03</rscale>
<asrwt>0</asrwt>
<pdfrwt beam="1">  1        2 0.14948828E+00 0.66641165E+03</pdfrwt>
<pdfrwt beam="2">  1       -2 0.15490835E+00 0.66641165E+03</pdfrwt>
<totfact> 0.74409707E+00</totfact>
</mgrwt>
</event>
<event>
 4    1  0.4840632E-008  0.2089688E+03  0.7818608E-02  0.1142385E+00
          2   -1    0    0  501    0  0.00000000000E+00  0.00000000000E+00  0.15830782400E+04  0.15830782400E+04  0.25500000000E-02 0. -1.
         -2   -1    0    0    0  501 -0.00000000000E+00 -0.00000000000E+00 -0.18729413253E+03  0.18729413255E+03  0.25500000000E-02 0.  1.
    8880022    1    1    2    0    0 -0.93667483508E+02 -0.10725073802E+03  0.15152993010E+04  0.15296404620E+04  0.15294330000E+03 0.  0.
    8880022    1    1    2    0    0  0.93667483508E+02  0.10725073802E+03 -0.11951519353E+03  0.24073191058E+03  0.15294330000E+03 0.  0.
<mgrwt>
<rscale>  0 0.20896883E+03</rscale>
<asrwt>0</asrwt>
<pdfrwt beam="1">  1        2 0.24355049E+00 0.20896883E+03</pdfrwt>
<pdfrwt beam="2">  1       -2 0.28814483E-01 0.20896883E+03</pdfrwt>
<totfact> 0.13933533E+02</totfact>
</mgrwt>
</event>
<event>
 4    1  0.4840632E-008  0.1889325E+03  0.7818608E-02  0.1159428E+00
         -2   -1    0    0    0  501 -0.00000000000E+00  0.00000000000E+00  0.15169666292E+04  0.15169666292E+04  0.25500000000E-02 0.  1.
          2   -1    0    0  501    0  0.00000000000E+00 -0.00000000000E+00 -0.19126015069E+03  0.19126015071E+03  0.25500000000E-02 0. -1.
    8880022    1    1    2    0    0  0.37605401842E+02 -0.10435358549E+03  0.14627018086E+04  0.14748532370E+04  0.15294330000E+03 0.  0.
    8880022    1    1    2    0    0 -0.37605401842E+02  0.10435358549E+03 -0.13699533003E+03  0.23337354288E+03  0.15294330000E+03 0. -1.
<mgrwt>
<rscale>  0 0.18893250E+03</rscale>
<asrwt>0</asrwt>
<pdfrwt beam="1">  1        2 0.29424639E-01 0.18893250E+03</pdfrwt>
<pdfrwt beam="2">  1       -2 0.23337948E+00 0.18893250E+03</pdfrwt>
<totfact> 0.16597683E+01</totfact>
</mgrwt>
</event>
<event>
 4    1  0.4840632E-008  0.3554624E+03  0.7818608E-02  0.1060395E+00
          2   -1    0    0  501    0  0.00000000000E+00  0.00000000000E+00  0.35044021283E+03  0.35044021284E+03  0.25500000000E-02 0. -1.
         -2   -1    0    0    0  501 -0.00000000000E+00 -0.00000000000E+00 -0.66473875435E+03  0.66473875435E+03  0.25500000000E-02 0.  1.
    8880022    1    1    2    0    0  0.22799182393E+03  0.22579110729E+03  0.18621408654E+03  0.40128448133E+03  0.15294330000E+03 0.  0.
    8880022    1    1    2    0    0 -0.22799182393E+03 -0.22579110729E+03 -0.50051262806E+03  0.61389448586E+03  0.15294330000E+03 0.  0.
<mgrwt>
<rscale>  0 0.35546244E+03</rscale>
<asrwt>0</asrwt>
<pdfrwt beam="1">  1        2 0.53913879E-01 0.35546244E+03</pdfrwt>
<pdfrwt beam="2">  1       -2 0.10226750E+00 0.35546244E+03</pdfrwt>
<totfact> 0.75121935E+01</totfact>
</mgrwt>
</event>
<event>
 4    1  0.4840632E-008  0.6364739E+03  0.7818608E-02  0.9832496E-01
         -2   -1    0    0    0  501 -0.00000000000E+00  0.00000000000E+00  0.32617333428E+03  0.32617333429E+03  0.25500000000E-02 0.  1.
          2   -1    0    0  501    0  0.00000000000E+00 -0.00000000000E+00 -0.19436607477E+04  0.19436607477E+04  0.25500000000E-02 0. -1.
    8880022    1    1    2    0    0  0.61749763102E+03  0.20100260829E+02 -0.14906509995E+04  0.16208452733E+04  0.15294330000E+03 0. -1.
    8880022    1    1    2    0    0 -0.61749763102E+03 -0.20100260829E+02 -0.12683641390E+03  0.64898880862E+03  0.15294330000E+03 0.  0.
<mgrwt>
<rscale>  0 0.63647388E+03</rscale>
<asrwt>0</asrwt>
<pdfrwt beam="1">  1        2 0.29902472E+00 0.63647388E+03</pdfrwt>
<pdfrwt beam="2">  1       -2 0.50180514E-01 0.63647388E+03</pdfrwt>
<totfact> 0.28281950E+01</totfact>
</mgrwt>
</event>
<event>
 4    1  0.4840632E-008  0.3450529E+03  0.7818608E-02  0.1064664E+00
         -2   -1    0    0    0  501 -0.00000000000E+00  0.00000000000E+00  0.10785294315E+04  0.10785294315E+04  0.25500000000E-02 0.  1.
          2   -1    0    0  501    0  0.00000000000E+00 -0.00000000000E+00 -0.73954618425E+03  0.73954618426E+03  0.25500000000E-02 0. -1.
    8880022    1    1    2    0    0  0.29801291158E+03 -0.82813833608E+02 -0.66895938976E+03  0.75270721046E+03  0.15294330000E+03 0. -1.
    8880022    1    1    2    0    0 -0.29801291158E+03  0.82813833608E+02  0.10079426370E+04  0.10653684053E+04  0.15294330000E+03 0.  0.
<mgrwt>
<rscale>  0 0.34505286E+03</rscale>
<asrwt>0</asrwt>
<pdfrwt beam="1">  1        2 0.11377634E+00 0.34505286E+03</pdfrwt>
<pdfrwt beam="2">  1       -2 0.16592760E+00 0.34505286E+03</pdfrwt>
<totfact> 0.94686331E+00</totfact>
</mgrwt>
</event>
<event>
 4    1  0.4840632E-008  0.3029490E+03  0.7818608E-02  0.1083776E+00
          2   -1    0    0  501    0  0.00000000000E+00  0.00000000000E+00  0.15319418664E+04  0.15319418664E+04  0.25500000000E-02 0. -1.
         -2   -1    0    0    0  501 -0.00000000000E+00 -0.00000000000E+00 -0.45725842134E+03  0.45725842135E+03  0.25500000000E-02 0.  1.
    8880022    1    1    2    0    0  0.19540037697E+03 -0.17379622166E+03 -0.38981596505E+03  0.49369481829E+03  0.15294330000E+03 0.  0.
    8880022    1    1    2    0    0 -0.19540037697E+03  0.17379622166E+03  0.14644994101E+04  0.14955054694E+04  0.15294330000E+03 0. -1.
<mgrwt>
<rscale>  0 0.30294898E+03</rscale>
<asrwt>0</asrwt>
<pdfrwt beam="1">  1        2 0.23568337E+00 0.30294898E+03</pdfrwt>
<pdfrwt beam="2">  1       -2 0.70347449E-01 0.30294898E+03</pdfrwt>
<totfact> 0.24928244E+01</totfact>
</mgrwt>
</event>
<event>
 4    1  0.4840632E-008  0.3794977E+03  0.7818608E-02  0.1051120E+00
         -2   -1    0    0    0  501 -0.00000000000E+00  0.00000000000E+00  0.17080561543E+03  0.17080561545E+03  0.25500000000E-02 0.  1.
          2   -1    0    0  501    0  0.00000000000E+00 -0.00000000000E+00 -0.17042161913E+04  0.17042161913E+04  0.25500000000E-02 0. -1.
    8880022    1    1    2    0    0 -0.32747256534E+03  0.11570901414E+03 -0.14330925821E+04  0.14824887382E+04  0.15294330000E+03 0.  0.
    8880022    1    1    2    0    0  0.32747256534E+03 -0.11570901414E+03 -0.10031799376E+03  0.39253306854E+03  0.15294330000E+03 0.  0.
<mgrwt>
<rscale>  0 0.37949771E+03</rscale>
<asrwt>0</asrwt>
<pdfrwt beam="1">  1        2 0.26218710E+00 0.37949771E+03</pdfrwt>
<pdfrwt beam="2">  1       -2 0.26277788E-01 0.37949771E+03</pdfrwt>
<totfact> 0.13638634E+02</totfact>
</mgrwt>
</event>
<event>
 4    1  0.4840632E-008  0.8118717E+03  0.7818608E-02  0.9542991E-01
         -2   -1    0    0    0  501 -0.00000000000E+00  0.00000000000E+00  0.55083321974E+03  0.55083321975E+03  0.25500000000E-02 0.  1.
          2   -1    0    0  501    0  0.00000000000E+00 -0.00000000000E+00 -0.14323215105E+04  0.14323215105E+04  0.25500000000E-02 0. -1.
    8880022    1    1    2    0    0  0.47021005296E+03 -0.64393049522E+03 -0.84298999713E+03  0.11703707809E+04  0.15294330000E+03 0.  0.
    8880022    1    1    2    0    0 -0.47021005296E+03  0.64393049522E+03 -0.38498293593E+02  0.81278394928E+03  0.15294330000E+03 0.  0.
<mgrwt>
<rscale>  0 0.81187168E+03</rscale>
<asrwt>0</asrwt>
<pdfrwt beam="1">  1        2 0.22035715E+00 0.81187168E+03</pdfrwt>
<pdfrwt beam="2">  1       -2 0.84743573E-01 0.81187168E+03</pdfrwt>
<totfact> 0.17086075E+01</totfact>
</mgrwt>
</event>
<event>
 4    1  0.4840632E-008  0.8393483E+03  0.7818608E-02  0.9504746E-01
          2   -1    0    0  501    0  0.00000000000E+00  0.00000000000E+00  0.24949613648E+04  0.24949613648E+04  0.25500000000E-02 0. -1.
         -2   -1    0    0    0  501 -0.00000000000E+00 -0.00000000000E+00 -0.29734261678E+03  0.29734261679E+03  0.25500000000E-02 0.  1.
    8880022    1    1    2    0    0 -0.42140299708E+03  0.70960085834E+03  0.78552846669E+03  0.11495914444E+04  0.15294330000E+03 0.  0.
    8880022    1    1    2    0    0  0.42140299708E+03 -0.70960085834E+03  0.14120902813E+04  0.16427125372E+04  0.15294330000E+03 0.  0.
<mgrwt>
<rscale>  0 0.83934827E+03</rscale>
<asrwt>0</asrwt>
<pdfrwt beam="1">  1        2 0.38384022E+00 0.83934827E+03</pdfrwt>
<pdfrwt beam="2">  1       -2 0.45745016E-01 0.83934827E+03</pdfrwt>
<totfact> 0.16402715E+01</totfact>
</mgrwt>
</event>
<event>
 4    1  0.4840632E-008  0.2300033E+03  0.7818608E-02  0.1126637E+00
          2   -1    0    0  501    0  0.00000000000E+00  0.00000000000E+00  0.19587680104E+04  0.19587680104E+04  0.25500000000E-02 0. -1.
         -2   -1    0    0    0  501 -0.00000000000E+00 -0.00000000000E+00 -0.13110920074E+03  0.13110920076E+03  0.25500000000E-02 0.  1.
    8880022    1    1    2    0    0 -0.16443572637E+03 -0.49706642023E+02 -0.17284928793E+02  0.23065185919E+03  0.15294330000E+03 0.  1.
    8880022    1    1    2    0    0  0.16443572637E+03  0.49706642023E+02  0.18449437384E+04  0.18592253520E+04  0.15294330000E+03 0.  0.
<mgrwt>
<rscale>  0 0.23000329E+03</rscale>
<asrwt>0</asrwt>
<pdfrwt beam="1">  1        2 0.30134894E+00 0.23000329E+03</pdfrwt>
<pdfrwt beam="2">  1       -2 0.20170645E-01 0.23000329E+03</pdfrwt>
<totfact> 0.16478864E+02</totfact>
</mgrwt>
</event>
<event>
 4    1  0.4840632E-008  0.6672995E+03  0.7818608E-02  0.9774849E-01
          2   -1    0    0  501    0  0.00000000000E+00  0.00000000000E+00  0.26781259868E+04  0.26781259868E+04  0.25500000000E-02 0. -1.
         -2   -1    0    0    0  501 -0.00000000000E+00 -0.00000000000E+00 -0.35558575263E+03  0.35558575264E+03  0.25500000000E-02 0.  1.
    8880022    1    1    2    0    0 -0.25961762921E+03 -0.59539538282E+03  0.22680645455E+04  0.23641923379E+04  0.15294330000E+03 0.  0.
    8880022    1    1    2    0    0  0.25961762921E+03  0.59539538282E+03  0.54475688657E+02  0.66951940147E+03  0.15294330000E+03 0.  0.
<mgrwt>
<rscale>  0 0.66729950E+03</rscale>
<asrwt>0</asrwt>
<pdfrwt beam="1">  1        2 0.41201940E+00 0.66729950E+03</pdfrwt>
<pdfrwt beam="2">  1       -2 0.54705499E-01 0.66729950E+03</pdfrwt>
<totfact> 0.92063649E+00</totfact>
</mgrwt>
</event>
<event>
 4    1  0.4840632E-008  0.2754220E+03  0.7818608E-02  0.1098216E+00
         -2   -1    0    0    0  501 -0.00000000000E+00  0.00000000000E+00  0.21432280871E+03  0.21432280872E+03  0.25500000000E-02 0.  1.
          2   -1    0    0  501    0  0.00000000000E+00 -0.00000000000E+00 -0.62902160438E+03  0.62902160439E+03  0.25500000000E-02 0. -1.
    8880022    1    1    2    0    0  0.22723347431E+03  0.28820025919E+02 -0.48620116285E+03  0.55879233129E+03  0.15294330000E+03 0.  0.
    8880022    1    1    2    0    0 -0.22723347431E+03 -0.28820025919E+02  0.71502367177E+02  0.28455208182E+03  0.15294330000E+03 0.  0.
<mgrwt>
<rscale>  0 0.27542204E+03</rscale>
<asrwt>0</asrwt>
<pdfrwt beam="1">  1        2 0.96772554E-01 0.27542204E+03</pdfrwt>
<pdfrwt beam="2">  1       -2 0.32972740E-01 0.27542204E+03</pdfrwt>
<totfact> 0.41241476E+02</totfact>
</mgrwt>
</event>
<event>
 4    1  0.4840632E-008  0.3896436E+03  0.7818608E-02  0.1047426E+00
         -2   -1    0    0    0  501 -0.00000000000E+00  0.00000000000E+00  0.33692171896E+04  0.33692171896E+04  0.25500000000E-02 0.  1.
          2   -1    0    0  501    0  0.00000000000E+00 -0.00000000000E+00 -0.66630134448E+02  0.66630134496E+02  0.25500000000E-02 0. -1.
    8880022    1    1    2    0    0 -0.13440702265E+03  0.33221268931E+03  0.26287091365E+04  0.26574299419E+04  0.15294330000E+03 0.  0.
    8880022    1    1    2    0    0  0.13440702265E+03 -0.33221268931E+03  0.67387791867E+03  0.77841738224E+03  0.15294330000E+03 0.  0.
<mgrwt>
<rscale>  0 0.38964365E+03</rscale>
<asrwt>0</asrwt>
<pdfrwt beam="1">  1        2 0.10250791E-01 0.38964365E+03</pdfrwt>
<pdfrwt beam="2">  1       -2 0.51834107E+00 0.38964365E+03</pdfrwt>
<totfact> 0.92361846E-01</totfact>
</mgrwt>
</event>
<event>
 4    1  0.4840632E-008  0.3910826E+03  0.7818608E-02  0.1046912E+00
         -2   -1    0    0    0  501 -0.00000000000E+00  0.00000000000E+00  0.16976561925E+03  0.16976561927E+03  0.25500000000E-02 0.  1.
          2   -1    0    0  501    0  0.00000000000E+00 -0.00000000000E+00 -0.28006202553E+04  0.28006202553E+04  0.25500000000E-02 0. -1.
    8880022    1    1    2    0    0 -0.13516187493E+03  0.33359437888E+03 -0.92225648460E+02  0.40180986213E+03  0.15294330000E+03 0.  0.
    8880022    1    1    2    0    0  0.13516187493E+03 -0.33359437888E+03 -0.25386289876E+04  0.25685760125E+04  0.15294330000E+03 0.  0.
<mgrwt>
<rscale>  0 0.39108259E+03</rscale>
<asrwt>0</asrwt>
<pdfrwt beam="1">  1        2 0.43086462E+00 0.39108259E+03</pdfrwt>
<pdfrwt beam="2">  1       -2 0.26117790E-01 0.39108259E+03</pdfrwt>
<totfact> 0.34625375E+01</totfact>
</mgrwt>
</event>
<event>
 4    1  0.4840632E-008  0.1075148E+04  0.7818608E-02  0.9229759E-01
         -2   -1    0    0    0  501 -0.00000000000E+00  0.00000000000E+00  0.56867101704E+03  0.56867101705E+03  0.25500000000E-02 0.  1.
          2   -1    0    0  501    0  0.00000000000E+00 -0.00000000000E+00 -0.23376409680E+04  0.23376409680E+04  0.25500000000E-02 0. -1.
    8880022    1    1    2    0    0 -0.10559587422E+04  0.13229436930E+03 -0.35964696382E+03  0.11337055424E+04  0.15294330000E+03 0.  0.
    8880022    1    1    2    0    0  0.10559587422E+04 -0.13229436930E+03 -0.14093229871E+04  0.17726064426E+04  0.15294330000E+03 0.  0.
<mgrwt>
<rscale>  0 0.10751476E+04</rscale>
<asrwt>0</asrwt>
<pdfrwt beam="1">  1        2 0.35963707E+00 0.10751476E+04</pdfrwt>
<pdfrwt beam="2">  1       -2 0.87487850E-01 0.10751476E+04</pdfrwt>
<totfact> 0.48547748E+00</totfact>
</mgrwt>
</event>
<event>
 4    1  0.4840632E-008  0.3903983E+03  0.7818608E-02  0.1047156E+00
          2   -1    0    0  501    0  0.00000000000E+00  0.00000000000E+00  0.24205580762E+04  0.24205580762E+04  0.25500000000E-02 0. -1.
         -2   -1    0    0    0  501 -0.00000000000E+00 -0.00000000000E+00 -0.77544464538E+02  0.77544464580E+02  0.25500000000E-02 0.  1.
    8880022    1    1    2    0    0  0.59453034035E+02 -0.35423794329E+03  0.62991360169E+03  0.74108163001E+03  0.15294330000E+03 0.  0.
    8880022    1    1    2    0    0 -0.59453034035E+02  0.35423794329E+03  0.17131000100E+04  0.17570209108E+04  0.15294330000E+03 0. -1.
<mgrwt>
<rscale>  0 0.39039831E+03</rscale>
<asrwt>0</asrwt>
<pdfrwt beam="1">  1        2 0.37239350E+00 0.39039831E+03</pdfrwt>
<pdfrwt beam="2">  1       -2 0.11929919E-01 0.39039831E+03</pdfrwt>
<totfact> 0.21601175E+02</totfact>
</mgrwt>
</event>
<event>
 4    1  0.4840632E-008  0.8282760E+03  0.7818608E-02  0.9519967E-01
         -2   -1    0    0    0  501 -0.00000000000E+00  0.00000000000E+00  0.52859171875E+03  0.52859171876E+03  0.25500000000E-02 0.  1.
          2   -1    0    0  501    0  0.00000000000E+00 -0.00000000000E+00 -0.19848564426E+04  0.19848564426E+04  0.25500000000E-02 0. -1.
    8880022    1    1    2    0    0 -0.63786706549E+01  0.81400786824E+03  0.11218826820E+02  0.82835198562E+03  0.15294330000E+03 0.  0.
    8880022    1    1    2    0    0  0.63786706549E+01 -0.81400786824E+03 -0.14674835507E+04  0.16850961758E+04  0.15294330000E+03 0.  0.
<mgrwt>
<rscale>  0 0.82827601E+03</rscale>
<asrwt>0</asrwt>
<pdfrwt beam="1">  1        2 0.30536253E+00 0.82827601E+03</pdfrwt>
<pdfrwt beam="2">  1       -2 0.81321804E-01 0.82827601E+03</pdfrwt>
<totfact> 0.92875723E+00</totfact>
</mgrwt>
</event>
<event>
 4    1  0.4840632E-008  0.6256392E+03  0.7818608E-02  0.9853596E-01
         -2   -1    0    0    0  501 -0.00000000000E+00  0.00000000000E+00  0.39199568091E+03  0.39199568092E+03  0.25500000000E-02 0.  1.
          2   -1    0    0  501    0  0.00000000000E+00 -0.00000000000E+00 -0.14268851964E+04  0.14268851964E+04  0.25500000000E-02 0. -1.
    8880022    1    1    2    0    0  0.57778921769E+03  0.18491196547E+03 -0.19162673838E+02  0.62593264504E+03  0.15294330000E+03 0.  0.
    8880022    1    1    2    0    0 -0.57778921769E+03 -0.18491196547E+03 -0.10157268417E+04  0.11929482323E+04  0.15294330000E+03 0.  0.
<mgrwt>
<rscale>  0 0.62563925E+03</rscale>
<asrwt>0</asrwt>
<pdfrwt beam="1">  1        2 0.21952080E+00 0.62563925E+03</pdfrwt>
<pdfrwt beam="2">  1       -2 0.60307029E-01 0.62563925E+03</pdfrwt>
<totfact> 0.37102452E+01</totfact>
</mgrwt>
</event>
<event>
 4    1  0.4840632E-008  0.5127416E+03  0.7818608E-02  0.1010506E+00
          2   -1    0    0  501    0  0.00000000000E+00  0.00000000000E+00  0.31141818083E+04  0.31141818083E+04  0.25500000000E-02 0. -1.
         -2   -1    0    0    0  501 -0.00000000000E+00 -0.00000000000E+00 -0.12145386532E+03  0.12145386535E+03  0.25500000000E-02 0.  1.
    8880022    1    1    2    0    0  0.33603354125E+03  0.35580016549E+03  0.60302850400E+03  0.79154742641E+03  0.15294330000E+03 0.  0.
    8880022    1    1    2    0    0 -0.33603354125E+03 -0.35580016549E+03  0.23896994390E+04  0.24440882472E+04  0.15294330000E+03 0.  0.
<mgrwt>
<rscale>  0 0.51274160E+03</rscale>
<asrwt>0</asrwt>
<pdfrwt beam="1">  1        2 0.47910490E+00 0.51274160E+03</pdfrwt>
<pdfrwt beam="2">  1       -2 0.18685210E-01 0.51274160E+03</pdfrwt>
<totfact> 0.39249819E+01</totfact>
</mgrwt>
</event>
<event>
 4    1  0.4840632E-008  0.6249399E+03  0.7818608E-02  0.9854973E-01
         -2   -1    0    0    0  501 -0.00000000000E+00  0.00000000000E+00  0.35780996365E+03  0.35780996366E+03  0.25500000000E-02 0.  1.
          2   -1    0    0  501    0  0.00000000000E+00 -0.00000000000E+00 -0.12304323596E+04  0.12304323596E+04  0.25500000000E-02 0. -1.
    8880022    1    1    2    0    0 -0.60075843780E+03 -0.79041518519E+02 -0.70315561325E+03  0.94073255057E+03  0.15294330000E+03 0.  0.
    8880022    1    1    2    0    0  0.60075843780E+03  0.79041518519E+02 -0.16946678265E+03  0.64750977265E+03  0.15294330000E+03 0.  0.
<mgrwt>
<rscale>  0 0.62493993E+03</rscale>
<asrwt>0</asrwt>
<pdfrwt beam="1">  1        2 0.18929728E+00 0.62493993E+03</pdfrwt>
<pdfrwt beam="2">  1       -2 0.55047687E-01 0.62493993E+03</pdfrwt>
<totfact> 0.58104689E+01</totfact>
</mgrwt>
</event>
<event>
 4    1  0.4840632E-008  0.3436473E+03  0.7818608E-02  0.1065253E+00
         -2   -1    0    0    0  501 -0.00000000000E+00  0.00000000000E+00  0.15583861865E+03  0.15583861867E+03  0.25500000000E-02 0.  1.
          2   -1    0    0  501    0  0.00000000000E+00 -0.00000000000E+00 -0.13674952135E+04  0.13674952135E+04  0.25500000000E-02 0. -1.
    8880022    1    1    2    0    0  0.21337409605E+03 -0.22175062785E+03 -0.97246424008E+02  0.35714194071E+03  0.15294330000E+03 0.  0.
    8880022    1    1    2    0    0 -0.21337409605E+03  0.22175062785E+03 -0.11144101709E+04  0.11661918915E+04  0.15294330000E+03 0. -1.
<mgrwt>
<rscale>  0 0.34364735E+03</rscale>
<asrwt>0</asrwt>
<pdfrwt beam="1">  1        2 0.21038387E+00 0.34364735E+03</pdfrwt>
<pdfrwt beam="2">  1       -2 0.23975173E-01 0.34364735E+03</pdfrwt>
<totfact> 0.24576317E+02</totfact>
</mgrwt>
</event>
<event>
 4    1  0.4840632E-008  0.2491367E+03  0.7818608E-02  0.1113852E+00
         -2   -1    0    0    0  501 -0.00000000000E+00  0.00000000000E+00  0.35897712597E+03  0.35897712598E+03  0.25500000000E-02 0.  1.
          2   -1    0    0  501    0  0.00000000000E+00 -0.00000000000E+00 -0.64109928360E+03  0.64109928361E+03  0.25500000000E-02 0. -1.
    8880022    1    1    2    0    0  0.78947108473E+00 -0.19666427223E+03 -0.56838122904E+03  0.62058547661E+03  0.15294330000E+03 0.  0.
    8880022    1    1    2    0    0 -0.78947108473E+00  0.19666427223E+03  0.28625907141E+03  0.37949093298E+03  0.15294330000E+03 0.  0.
<mgrwt>
<rscale>  0 0.24913673E+03</rscale>
<asrwt>0</asrwt>
<pdfrwt beam="1">  1        2 0.98630659E-01 0.24913673E+03</pdfrwt>
<pdfrwt beam="2">  1       -2 0.55227250E-01 0.24913673E+03</pdfrwt>
<totfact> 0.14846177E+02</totfact>
</mgrwt>
</event>
<event>
 4    1  0.4840632E-008  0.1056878E+04  0.7818608E-02  0.9248272E-01
         -2   -1    0    0    0  501 -0.00000000000E+00  0.00000000000E+00  0.14194261000E+04  0.14194261000E+04  0.25500000000E-02 0.  1.
          2   -1    0    0  501    0  0.00000000000E+00 -0.00000000000E+00 -0.16581011572E+04  0.16581011572E+04  0.25500000000E-02 0. -1.
    8880022    1    1    2    0    0  0.10337689277E+04 -0.15786310363E+03 -0.12347047048E+04  0.16252649988E+04  0.15294330000E+03 0.  0.
    8880022    1    1    2    0    0 -0.10337689277E+04  0.15786310363E+03  0.99602964758E+03  0.14522622584E+04  0.15294330000E+03 0.  0.
<mgrwt>
<rscale>  0 0.10568778E+04</rscale>
<asrwt>0</asrwt>
<pdfrwt beam="1">  1        2 0.25509248E+00 0.10568778E+04</pdfrwt>
<pdfrwt beam="2">  1       -2 0.21837325E+00 0.10568778E+04</pdfrwt>
<totfact> 0.10350342E+00</totfact>
</mgrwt>
</event>
<event>
 4    1  0.4840632E-008  0.8379103E+03  0.7818608E-02  0.9506709E-01
          2   -1    0    0  501    0  0.00000000000E+00  0.00000000000E+00  0.32625691857E+04  0.32625691857E+04  0.25500000000E-02 0. -1.
         -2   -1    0    0    0  501 -0.00000000000E+00 -0.00000000000E+00 -0.33169666208E+03  0.33169666209E+03  0.25500000000E-02 0.  1.
    8880022    1    1    2    0    0 -0.20001488376E+03 -0.79918462253E+03  0.40037938262E+03  0.92865349709E+03  0.15294330000E+03 0.  0.
    8880022    1    1    2    0    0  0.20001488376E+03  0.79918462253E+03  0.25304931410E+04  0.26656123507E+04  0.15294330000E+03 0.  0.
<mgrwt>
<rscale>  0 0.83791030E+03</rscale>
<asrwt>0</asrwt>
<pdfrwt beam="1">  1        2 0.50193372E+00 0.83791030E+03</pdfrwt>
<pdfrwt beam="2">  1       -2 0.51030256E-01 0.83791030E+03</pdfrwt>
<totfact> 0.45280467E+00</totfact>
</mgrwt>
</event>
<event>
 4    1  0.4840632E-008  0.2996765E+03  0.7818608E-02  0.1085402E+00
          2   -1    0    0  501    0  0.00000000000E+00  0.00000000000E+00  0.48600539066E+03  0.48600539067E+03  0.25500000000E-02 0. -1.
         -2   -1    0    0    0  501 -0.00000000000E+00 -0.00000000000E+00 -0.34534064620E+03  0.34534064621E+03  0.25500000000E-02 0.  1.
    8880022    1    1    2    0    0 -0.25472211935E+03 -0.39127732235E+02  0.35376002012E+03  0.46362931569E+03  0.15294330000E+03 0.  1.
    8880022    1    1    2    0    0  0.25472211935E+03  0.39127732235E+02 -0.21309527566E+03  0.36771672119E+03  0.15294330000E+03 0.  1.
<mgrwt>
<rscale>  0 0.29967648E+03</rscale>
<asrwt>0</asrwt>
<pdfrwt beam="1">  1        2 0.74770060E-01 0.29967648E+03</pdfrwt>
<pdfrwt beam="2">  1       -2 0.53129330E-01 0.29967648E+03</pdfrwt>
<totfact> 0.21977492E+02</totfact>
</mgrwt>
</event>
<event>
 4    1  0.4840632E-008  0.4921270E+03  0.7818608E-02  0.1015855E+00
         -2   -1    0    0    0  501 -0.00000000000E+00  0.00000000000E+00  0.33513268867E+03  0.33513268868E+03  0.25500000000E-02 0.  1.
          2   -1    0    0  501    0  0.00000000000E+00 -0.00000000000E+00 -0.14258499850E+04  0.14258499850E+04  0.25500000000E-02 0. -1.
    8880022    1    1    2    0    0  0.18513793250E+03 -0.42955942910E+03  0.72974665469E+02  0.49750810244E+03  0.15294330000E+03 0.  0.
    8880022    1    1    2    0    0 -0.18513793250E+03  0.42955942910E+03 -0.11636919618E+04  0.12634745712E+04  0.15294330000E+03 0.  0.
<mgrwt>
<rscale>  0 0.49212703E+03</rscale>
<asrwt>0</asrwt>
<pdfrwt beam="1">  1        2 0.21936153E+00 0.49212703E+03</pdfrwt>
<pdfrwt beam="2">  1       -2 0.51558876E-01 0.49212703E+03</pdfrwt>
<totfact> 0.52386555E+01</totfact>
</mgrwt>
</event>
<event>
 4    1  0.4840632E-008  0.9923484E+03  0.7818608E-02  0.9316977E-01
          2   -1    0    0  501    0  0.00000000000E+00  0.00000000000E+00  0.25268801621E+04  0.25268801621E+04  0.25500000000E-02 0. -1.
         -2   -1    0    0    0  501 -0.00000000000E+00 -0.00000000000E+00 -0.60322458905E+03  0.60322458905E+03  0.25500000000E-02 0.  1.
    8880022    1    1    2    0    0  0.37731770024E+03  0.90498347932E+03  0.18929381303E+04  0.21372810211E+04  0.15294330000E+03 0.  0.
    8880022    1    1    2    0    0 -0.37731770024E+03 -0.90498347932E+03  0.30717442738E+02  0.99282373010E+03  0.15294330000E+03 0.  0.
<mgrwt>
<rscale>  0 0.99234843E+03</rscale>
<asrwt>0</asrwt>
<pdfrwt beam="1">  1        2 0.38875078E+00 0.99234843E+03</pdfrwt>
<pdfrwt beam="2">  1       -2 0.92803786E-01 0.99234843E+03</pdfrwt>
<totfact> 0.33410100E+00</totfact>
</mgrwt>
</event>
<event>
 4    1  0.4840632E-008  0.3554563E+03  0.7818608E-02  0.1060398E+00
          2   -1    0    0  501    0  0.00000000000E+00  0.00000000000E+00  0.33674151603E+04  0.33674151603E+04  0.25500000000E-02 0. -1.
         -2   -1    0    0    0  501 -0.00000000000E+00 -0.00000000000E+00 -0.64660857908E+02  0.64660857958E+02  0.25500000000E-02 0.  1.
    8880022    1    1    2    0    0  0.19140062375E+03 -0.25753323069E+03  0.27631317359E+04  0.27859013275E+04  0.15294330000E+03 0.  0.
    8880022    1    1    2    0    0 -0.19140062375E+03  0.25753323069E+03  0.53962256651E+03  0.64617469076E+03  0.15294330000E+03 0.  0.
<mgrwt>
<rscale>  0 0.35545635E+03</rscale>
<asrwt>0</asrwt>
<pdfrwt beam="1">  1        2 0.51806415E+00 0.35545635E+03</pdfrwt>
<pdfrwt beam="2">  1       -2 0.99478190E-02 0.35545635E+03</pdfrwt>
<totfact> 0.80576021E+01</totfact>
</mgrwt>
</event>
<event>
 4    1  0.4840632E-008  0.3330003E+03  0.7818608E-02  0.1069817E+00
          2   -1    0    0  501    0  0.00000000000E+00  0.00000000000E+00  0.11591031798E+04  0.11591031798E+04  0.25500000000E-02 0. -1.
         -2   -1    0    0    0  501 -0.00000000000E+00 -0.00000000000E+00 -0.98404960181E+02  0.98404960214E+02  0.25500000000E-02 0.  1.
    8880022    1    1    2    0    0 -0.27407469824E+03  0.11126803538E+03  0.63520689344E+03  0.71720078527E+03  0.15294330000E+03 0. -1.
    8880022    1    1    2    0    0  0.27407469824E+03 -0.11126803538E+03  0.42549132614E+03  0.54030735470E+03  0.15294330000E+03 0.  1.
<mgrwt>
<rscale>  0 0.33300025E+03</rscale>
<asrwt>0</asrwt>
<pdfrwt beam="1">  1        2 0.17832357E+00 0.33300025E+03</pdfrwt>
<pdfrwt beam="2">  1       -2 0.15139225E-01 0.33300025E+03</pdfrwt>
<totfact> 0.71030469E+02</totfact>
</mgrwt>
</event>
<event>
 4    1  0.4840632E-008  0.4057095E+03  0.7818608E-02  0.1041820E+00
         -2   -1    0    0    0  501 -0.00000000000E+00  0.00000000000E+00  0.55627013341E+02  0.55627013399E+02  0.25500000000E-02 0.  1.
          2   -1    0    0  501    0  0.00000000000E+00 -0.00000000000E+00 -0.33692613000E+04  0.33692613000E+04  0.25500000000E-02 0. -1.
    8880022    1    1    2    0    0  0.26578868785E+03 -0.26564060854E+03 -0.22543757272E+04  0.22905916555E+04  0.15294330000E+03 0.  0.
    8880022    1    1    2    0    0 -0.26578868785E+03  0.26564060854E+03 -0.10592585594E+04  0.11342966580E+04  0.15294330000E+03 0.  0.
<mgrwt>
<rscale>  0 0.40570952E+03</rscale>
<asrwt>0</asrwt>
<pdfrwt beam="1">  1        2 0.51834773E+00 0.40570952E+03</pdfrwt>
<pdfrwt beam="2">  1       -2 0.85580047E-02 0.40570952E+03</pdfrwt>
<totfact> 0.10074878E+02</totfact>
</mgrwt>
</event>
<event>
 4    1  0.4840632E-008  0.7981094E+03  0.7818608E-02  0.9562758E-01
         -2   -1    0    0    0  501 -0.00000000000E+00  0.00000000000E+00  0.50028633826E+03  0.50028633826E+03  0.25500000000E-02 0.  1.
          2   -1    0    0  501    0  0.00000000000E+00 -0.00000000000E+00 -0.17365014508E+04  0.17365014508E+04  0.25500000000E-02 0. -1.
    8880022    1    1    2    0    0 -0.36075729589E+03  0.69529932409E+03 -0.40442807261E+02  0.79913343710E+03  0.15294330000E+03 0.  0.
    8880022    1    1    2    0    0  0.36075729589E+03 -0.69529932409E+03 -0.11957723052E+04  0.14376543519E+04  0.15294330000E+03 0.  0.
<mgrwt>
<rscale>  0 0.79810941E+03</rscale>
<asrwt>0</asrwt>
<pdfrwt beam="1">  1        2 0.26715407E+00 0.79810941E+03</pdfrwt>
<pdfrwt beam="2">  1       -2 0.76967130E-01 0.79810941E+03</pdfrwt>
<totfact> 0.14424789E+01</totfact>
</mgrwt>
</event>
<event>
 4    1  0.4840632E-008  0.2298965E+03  0.7818608E-02  0.1126713E+00
         -2   -1    0    0    0  501 -0.00000000000E+00  0.00000000000E+00  0.23389107560E+03  0.23389107561E+03  0.25500000000E-02 0.  1.
          2   -1    0    0  501    0  0.00000000000E+00 -0.00000000000E+00 -0.61486456758E+03  0.61486456758E+03  0.25500000000E-02 0. -1.
    8880022    1    1    2    0    0  0.93050948152E+02 -0.14422989668E+03  0.14701716940E+03  0.27288540298E+03  0.15294330000E+03 0.  0.
    8880022    1    1    2    0    0 -0.93050948152E+02  0.14422989668E+03 -0.52799066138E+03  0.57587024022E+03  0.15294330000E+03 0. -1.
<mgrwt>
<rscale>  0 0.22989649E+03</rscale>
<asrwt>0</asrwt>
<pdfrwt beam="1">  1        2 0.94594548E-01 0.22989649E+03</pdfrwt>
<pdfrwt beam="2">  1       -2 0.35983243E-01 0.22989649E+03</pdfrwt>
<totfact> 0.36104961E+02</totfact>
</mgrwt>
</event>
<event>
 4    1  0.4840632E-008  0.5142554E+03  0.7818608E-02  0.1010124E+00
         -2   -1    0    0    0  501 -0.00000000000E+00  0.00000000000E+00  0.20989011432E+03  0.20989011433E+03  0.25500000000E-02 0.  1.
          2   -1    0    0  501    0  0.00000000000E+00 -0.00000000000E+00 -0.14038990575E+04  0.14038990575E+04  0.25500000000E-02 0. -1.
    8880022    1    1    2    0    0 -0.46712119346E+03  0.15121103999E+03 -0.33866027766E+03  0.61575110611E+03  0.15294330000E+03 0.  0.
    8880022    1    1    2    0    0  0.46712119346E+03 -0.15121103999E+03 -0.85534866549E+03  0.99803806569E+03  0.15294330000E+03 0.  0.
<mgrwt>
<rscale>  0 0.51425542E+03</rscale>
<asrwt>0</asrwt>
<pdfrwt beam="1">  1        2 0.21598446E+00 0.51425542E+03</pdfrwt>
<pdfrwt beam="2">  1       -2 0.32290788E-01 0.51425542E+03</pdfrwt>
<totfact> 0.13359851E+02</totfact>
</mgrwt>
</event>
<event>
 4    1  0.4840632E-008  0.4037528E+03  0.7818608E-02  0.1042488E+00
          2   -1    0    0  501    0  0.00000000000E+00  0.00000000000E+00  0.21615171192E+04  0.21615171192E+04  0.25500000000E-02 0. -1.
         -2   -1    0    0    0  501 -0.00000000000E+00 -0.00000000000E+00 -0.14421408369E+03  0.14421408372E+03  0.25500000000E-02 0.  1.
    8880022    1    1    2    0    0  0.36466027027E+03 -0.81532343319E+02  0.21238551100E+03  0.45620597762E+03  0.15294330000E+03 0.  0.
    8880022    1    1    2    0    0 -0.36466027027E+03  0.81532343319E+02  0.18049175245E+04  0.18495252253E+04  0.15294330000E+03 0.  0.
<mgrwt>
<rscale>  0 0.40375276E+03</rscale>
<asrwt>0</asrwt>
<pdfrwt beam="1">  1        2 0.33254108E+00 0.40375276E+03</pdfrwt>
<pdfrwt beam="2">  1       -2 0.22186783E-01 0.40375276E+03</pdfrwt>
<totfact> 0.10446275E+02</totfact>
</mgrwt>
</event>
<event>
 4    1  0.4840632E-008  0.6270815E+03  0.7818608E-02  0.9850761E-01
         -2   -1    0    0    0  501 -0.00000000000E+00  0.00000000000E+00  0.20647540764E+03  0.20647540765E+03  0.25500000000E-02 0.  1.
          2   -1    0    0  501    0  0.00000000000E+00 -0.00000000000E+00 -0.25432845698E+04  0.25432845698E+04  0.25500000000E-02 0. -1.
    8880022    1    1    2    0    0 -0.25446790593E+01  0.60813905183E+03 -0.47936136319E+03  0.78931524202E+03  0.15294330000E+03 0.  0.
    8880022    1    1    2    0    0  0.25446790593E+01 -0.60813905183E+03 -0.18574477990E+04  0.19604447355E+04  0.15294330000E+03 0.  0.
<mgrwt>
<rscale>  0 0.62708152E+03</rscale>
<asrwt>0</asrwt>
<pdfrwt beam="1">  1        2 0.39127453E+00 0.62708152E+03</pdfrwt>
<pdfrwt beam="2">  1       -2 0.31765449E-01 0.62708152E+03</pdfrwt>
<totfact> 0.32211261E+01</totfact>
</mgrwt>
</event>
<event>
 4    1  0.4840632E-008  0.4730276E+03  0.7818608E-02  0.1021069E+00
          2   -1    0    0  501    0  0.00000000000E+00  0.00000000000E+00  0.13145125763E+04  0.13145125763E+04  0.25500000000E-02 0. -1.
         -2   -1    0    0    0  501 -0.00000000000E+00 -0.00000000000E+00 -0.33056084534E+03  0.33056084535E+03  0.25500000000E-02 0.  1.
    8880022    1    1    2    0    0  0.14360350776E+03  0.42395935243E+03  0.10648416484E+04  0.11651793378E+04  0.15294330000E+03 0.  0.
    8880022    1    1    2    0    0 -0.14360350776E+03 -0.42395935243E+03 -0.80889917488E+02  0.47989408385E+03  0.15294330000E+03 0.  0.
<mgrwt>
<rscale>  0 0.47302765E+03</rscale>
<asrwt>0</asrwt>
<pdfrwt beam="1">  1        2 0.20223270E+00 0.47302765E+03</pdfrwt>
<pdfrwt beam="2">  1       -2 0.50855515E-01 0.47302765E+03</pdfrwt>
<totfact> 0.62363731E+01</totfact>
</mgrwt>
</event>
<event>
 4    1  0.4840632E-008  0.2349425E+03  0.7818608E-02  0.1123209E+00
          2   -1    0    0  501    0  0.00000000000E+00  0.00000000000E+00  0.87020334566E+03  0.87020334566E+03  0.25500000000E-02 0. -1.
         -2   -1    0    0    0  501 -0.00000000000E+00 -0.00000000000E+00 -0.12514472919E+03  0.12514472922E+03  0.25500000000E-02 0.  1.
    8880022    1    1    2    0    0  0.17517176735E+03  0.33483684597E+02  0.72201486785E+03  0.75927822807E+03  0.15294330000E+03 0. -1.
    8880022    1    1    2    0    0 -0.17517176735E+03 -0.33483684597E+02  0.23043748616E+02  0.23606984681E+03  0.15294330000E+03 0. -1.
<mgrwt>
<rscale>  0 0.23494246E+03</rscale>
<asrwt>0</asrwt>
<pdfrwt beam="1">  1        2 0.13387743E+00 0.23494246E+03</pdfrwt>
<pdfrwt beam="2">  1       -2 0.19253036E-01 0.23494246E+03</pdfrwt>
<totfact> 0.71712352E+02</totfact>
</mgrwt>
</event>
<event>
 4    1  0.4840632E-008  0.2778295E+03  0.7818608E-02  0.1096880E+00
         -2   -1    0    0    0  501 -0.00000000000E+00  0.00000000000E+00  0.30699344001E+03  0.30699344002E+03  0.25500000000E-02 0.  1.
          2   -1    0    0  501    0  0.00000000000E+00 -0.00000000000E+00 -0.73686925046E+03  0.73686925046E+03  0.25500000000E-02 0. -1.
    8880022    1    1    2    0    0  0.18076283092E+03 -0.14533542459E+03 -0.63856416084E+03  0.69638597574E+03  0.15294330000E+03 0.  0.
    8880022    1    1    2    0    0 -0.18076283092E+03  0.14533542459E+03  0.20868835039E+03  0.34747671474E+03  0.15294330000E+03 0.  1.
<mgrwt>
<rscale>  0 0.27782952E+03</rscale>
<asrwt>0</asrwt>
<pdfrwt beam="1">  1        2 0.11336450E+00 0.27782952E+03</pdfrwt>
<pdfrwt beam="2">  1       -2 0.47229760E-01 0.27782952E+03</pdfrwt>
<totfact> 0.17109678E+02</totfact>
</mgrwt>
</event>
<event>
 4    1  0.4840632E-008  0.6677889E+03  0.7818608E-02  0.9773961E-01
         -2   -1    0    0    0  501 -0.00000000000E+00  0.00000000000E+00  0.10880425810E+04  0.10880425810E+04  0.25500000000E-02 0.  1.
          2   -1    0    0  501    0  0.00000000000E+00 -0.00000000000E+00 -0.47978197285E+03  0.47978197286E+03  0.25500000000E-02 0. -1.
    8880022    1    1    2    0    0 -0.56867530273E+03 -0.31489480066E+03  0.60339901497E+03  0.90001797744E+03  0.15294330000E+03 0.  1.
    8880022    1    1    2    0    0  0.56867530273E+03  0.31489480066E+03  0.48615931822E+01  0.66780657643E+03  0.15294330000E+03 0.  0.
<mgrwt>
<rscale>  0 0.66778888E+03</rscale>
<asrwt>0</asrwt>
<pdfrwt beam="1">  1        2 0.73812611E-01 0.66778888E+03</pdfrwt>
<pdfrwt beam="2">  1       -2 0.16739117E+00 0.66778888E+03</pdfrwt>
<totfact> 0.14709751E+01</totfact>
</mgrwt>
</event>
<event>
 4    1  0.4840632E-008  0.1260829E+04  0.7818608E-02  0.9061218E-01
          2   -1    0    0  501    0  0.00000000000E+00  0.00000000000E+00  0.23870435815E+04  0.23870435815E+04  0.25500000000E-02 0. -1.
         -2   -1    0    0    0  501 -0.00000000000E+00 -0.00000000000E+00 -0.95873356196E+03  0.95873356196E+03  0.25500000000E-02 0.  1.
    8880022    1    1    2    0    0 -0.24639840701E+03 -0.12270228640E+04 -0.21028730343E+03  0.12782447680E+04  0.15294330000E+03 0.  0.
    8880022    1    1    2    0    0  0.24639840701E+03  0.12270228640E+04  0.16385973230E+04  0.20675323755E+04  0.15294330000E+03 0.  0.
<mgrwt>
<rscale>  0 0.12608287E+04</rscale>
<asrwt>0</asrwt>
<pdfrwt beam="1">  1        2 0.36723747E+00 0.12608287E+04</pdfrwt>
<pdfrwt beam="2">  1       -2 0.14749747E+00 0.12608287E+04</pdfrwt>
<totfact> 0.12281933E+00</totfact>
</mgrwt>
</event>
<event>
 4    1  0.4840632E-008  0.2806244E+03  0.7818608E-02  0.1095348E+00
          2   -1    0    0  501    0  0.00000000000E+00  0.00000000000E+00  0.74704147940E+03  0.74704147940E+03  0.25500000000E-02 0. -1.
         -2   -1    0    0    0  501 -0.00000000000E+00 -0.00000000000E+00 -0.21394397017E+03  0.21394397018E+03  0.25500000000E-02 0.  1.
    8880022    1    1    2    0    0  0.15874620726E+03  0.17366065766E+03  0.60877071136E+03  0.67033709010E+03  0.15294330000E+03 0.  0.
    8880022    1    1    2    0    0 -0.15874620726E+03 -0.17366065766E+03 -0.75673202128E+02  0.29064835949E+03  0.15294330000E+03 0.  0.
<mgrwt>
<rscale>  0 0.28062437E+03</rscale>
<asrwt>0</asrwt>
<pdfrwt beam="1">  1        2 0.11492946E+00 0.28062437E+03</pdfrwt>
<pdfrwt beam="2">  1       -2 0.32914457E-01 0.28062437E+03</pdfrwt>
<totfact> 0.33569849E+02</totfact>
</mgrwt>
</event>
<event>
 4    1  0.4840632E-008  0.1372994E+04  0.7818608E-02  0.8973602E-01
          2   -1    0    0  501    0  0.00000000000E+00  0.00000000000E+00  0.31806917453E+04  0.31806917453E+04  0.25500000000E-02 0. -1.
         -2   -1    0    0    0  501 -0.00000000000E+00 -0.00000000000E+00 -0.13026354419E+04  0.13026354419E+04  0.25500000000E-02 0.  1.
    8880022    1    1    2    0    0 -0.12699724255E+04  0.49889004949E+03 -0.71588959683E+03  0.15484220390E+04  0.15294330000E+03 0.  0.
    8880022    1    1    2    0    0  0.12699724255E+04 -0.49889004949E+03  0.25939459002E+04  0.29349051482E+04  0.15294330000E+03 0.  0.
<mgrwt>
<rscale>  0 0.13729941E+04</rscale>
<asrwt>0</asrwt>
<pdfrwt beam="1">  1        2 0.48933719E+00 0.13729941E+04</pdfrwt>
<pdfrwt beam="2">  1       -2 0.20040545E+00 0.13729941E+04</pdfrwt>
<totfact> 0.16949872E-01</totfact>
</mgrwt>
</event>
<event>
 4    1  0.4840632E-008  0.1036696E+04  0.7818608E-02  0.9269188E-01
          2   -1    0    0  501    0  0.00000000000E+00  0.00000000000E+00  0.31214066316E+04  0.31214066316E+04  0.25500000000E-02 0. -1.
         -2   -1    0    0    0  501 -0.00000000000E+00 -0.00000000000E+00 -0.36050369850E+03  0.36050369851E+03  0.25500000000E-02 0.  1.
    8880022    1    1    2    0    0  0.19506204410E+03  0.10066269782E+04  0.17494076334E+04  0.20335107069E+04  0.15294330000E+03 0.  0.
    8880022    1    1    2    0    0 -0.19506204410E+03 -0.10066269782E+04  0.10114952997E+04  0.14483996232E+04  0.15294330000E+03 0.  0.
<mgrwt>
<rscale>  0 0.10366961E+04</rscale>
<asrwt>0</asrwt>
<pdfrwt beam="1">  1        2 0.48021639E+00 0.10366961E+04</pdfrwt>
<pdfrwt beam="2">  1       -2 0.55462109E-01 0.10366961E+04</pdfrwt>
<totfact> 0.45466737E+00</totfact>
</mgrwt>
</event>
<event>
 4    1  0.4840632E-008  0.4202457E+03  0.7818608E-02  0.1036986E+00
         -2   -1    0    0    0  501 -0.00000000000E+00  0.00000000000E+00  0.27279198529E+03  0.27279198530E+03  0.25500000000E-02 0.  1.
          2   -1    0    0  501    0  0.00000000000E+00 -0.00000000000E+00 -0.84479237349E+03  0.84479237350E+03  0.25500000000E-02 0. -1.
    8880022    1    1    2    0    0  0.12964447301E+03 -0.36933337383E+03 -0.15892676315E+02  0.42054614560E+03  0.15294330000E+03 0.  0.
    8880022    1    1    2    0    0 -0.12964447301E+03  0.36933337383E+03 -0.55610771189E+03  0.69703821319E+03  0.15294330000E+03 0.  0.
<mgrwt>
<rscale>  0 0.42024574E+03</rscale>
<asrwt>0</asrwt>
<pdfrwt beam="1">  1        2 0.12996806E+00 0.42024574E+03</pdfrwt>
<pdfrwt beam="2">  1       -2 0.41967998E-01 0.42024574E+03</pdfrwt>
<totfact> 0.17821777E+02</totfact>
</mgrwt>
</event>
<event>
 4    1  0.4840632E-008  0.2048890E+03  0.7818608E-02  0.1145679E+00
          2   -1    0    0  501    0  0.00000000000E+00  0.00000000000E+00  0.31554604332E+03  0.31554604333E+03  0.25500000000E-02 0. -1.
         -2   -1    0    0    0  501 -0.00000000000E+00 -0.00000000000E+00 -0.13679150223E+03  0.13679150225E+03  0.25500000000E-02 0.  1.
    8880022    1    1    2    0    0  0.42624535229E+02 -0.12950285206E+03  0.51910716410E+02  0.21136275733E+03  0.15294330000E+03 0.  1.
    8880022    1    1    2    0    0 -0.42624535229E+02  0.12950285206E+03  0.12684382469E+03  0.24097478825E+03  0.15294330000E+03 0. -1.
<mgrwt>
<rscale>  0 0.20488898E+03</rscale>
<asrwt>0</asrwt>
<pdfrwt beam="1">  1        2 0.48545545E-01 0.20488898E+03</pdfrwt>
<pdfrwt beam="2">  1       -2 0.21044847E-01 0.20488898E+03</pdfrwt>
<totfact> 0.19723505E+03</totfact>
</mgrwt>
</event>
<event>
 4    1  0.4840632E-008  0.4523373E+03  0.7818608E-02  0.1027027E+00
         -2   -1    0    0    0  501 -0.00000000000E+00  0.00000000000E+00  0.34566123623E+03  0.34566123624E+03  0.25500000000E-02 0.  1.
          2   -1    0    0  501    0  0.00000000000E+00 -0.00000000000E+00 -0.20061223717E+04  0.20061223717E+04  0.25500000000E-02 0. -1.
    8880022    1    1    2    0    0  0.79482255033E+02  0.41821038940E+03  0.15705347538E+03  0.47882648821E+03  0.15294330000E+03 0.  0.
    8880022    1    1    2    0    0 -0.79482255033E+02 -0.41821038940E+03 -0.18175146108E+04  0.18729571197E+04  0.15294330000E+03 0.  0.
<mgrwt>
<rscale>  0 0.45233728E+03</rscale>
<asrwt>0</asrwt>
<pdfrwt beam="1">  1        2 0.30863420E+00 0.45233728E+03</pdfrwt>
<pdfrwt beam="2">  1       -2 0.53178653E-01 0.45233728E+03</pdfrwt>
<totfact> 0.24067756E+01</totfact>
</mgrwt>
</event>
<event>
 4    1  0.4840632E-008  0.5333914E+03  0.7818608E-02  0.1005413E+00
          2   -1    0    0  501    0  0.00000000000E+00  0.00000000000E+00  0.68870520338E+03  0.68870520339E+03  0.25500000000E-02 0. -1.
         -2   -1    0    0    0  501 -0.00000000000E+00 -0.00000000000E+00 -0.16012399520E+04  0.16012399520E+04  0.25500000000E-02 0.  1.
    8880022    1    1    2    0    0  0.49981458573E+03 -0.10630221122E+03 -0.14425470017E+04  0.15380013931E+04  0.15294330000E+03 0.  0.
    8880022    1    1    2    0    0 -0.49981458573E+03  0.10630221122E+03  0.53001225304E+03  0.75194376227E+03  0.15294330000E+03 0.  0.
<mgrwt>
<rscale>  0 0.53339144E+03</rscale>
<asrwt>0</asrwt>
<pdfrwt beam="1">  1        2 0.10595465E+00 0.53339144E+03</pdfrwt>
<pdfrwt beam="2">  1       -2 0.24634461E+00 0.53339144E+03</pdfrwt>
<totfact> 0.30281731E+00</totfact>
</mgrwt>
</event>
<event>
 4    1  0.4840632E-008  0.1143104E+04  0.7818608E-02  0.9164169E-01
          2   -1    0    0  501    0  0.00000000000E+00  0.00000000000E+00  0.44573377273E+04  0.44573377273E+04  0.25500000000E-02 0. -1.
         -2   -1    0    0    0  501 -0.00000000000E+00 -0.00000000000E+00 -0.53481800395E+03  0.53481800396E+03  0.25500000000E-02 0.  1.
    8880022    1    1    2    0    0 -0.11198961853E+04  0.17066659250E+03  0.28337892712E+03  0.11777053201E+04  0.15294330000E+03 0.  0.
    8880022    1    1    2    0    0  0.11198961853E+04 -0.17066659250E+03  0.36391407963E+04  0.38144504112E+04  0.15294330000E+03 0.  0.
<mgrwt>
<rscale>  0 0.11431038E+04</rscale>
<asrwt>0</asrwt>
<pdfrwt beam="1">  1        2 0.68574422E+00 0.11431038E+04</pdfrwt>
<pdfrwt beam="2">  1       -2 0.82279699E-01 0.11431038E+04</pdfrwt>
<totfact> 0.18298164E-01</totfact>
</mgrwt>
</event>
<event>
 4    1  0.4840632E-008  0.1195248E+04  0.7818608E-02  0.9117026E-01
          2   -1    0    0  501    0  0.00000000000E+00  0.00000000000E+00  0.25958685525E+04  0.25958685525E+04  0.25500000000E-02 0. -1.
         -2   -1    0    0    0  501 -0.00000000000E+00 -0.00000000000E+00 -0.11955175032E+04  0.11955175032E+04  0.25500000000E-02 0.  1.
    8880022    1    1    2    0    0  0.23277255514E+03 -0.11623442173E+04  0.20927824468E+04  0.24100533531E+04  0.15294330000E+03 0.  0.
    8880022    1    1    2    0    0 -0.23277255514E+03  0.11623442173E+04 -0.69243139757E+03  0.13813327026E+04  0.15294330000E+03 0.  0.
<mgrwt>
<rscale>  0 0.11952484E+04</rscale>
<asrwt>0</asrwt>
<pdfrwt beam="1">  1        2 0.39936439E+00 0.11952484E+04</pdfrwt>
<pdfrwt beam="2">  1       -2 0.18392577E+00 0.11952484E+04</pdfrwt>
<totfact> 0.50992571E-01</totfact>
</mgrwt>
</event>
<event>
 4    1  0.4840632E-008  0.9578217E+03  0.7818608E-02  0.9356055E-01
         -2   -1    0    0    0  501 -0.00000000000E+00  0.00000000000E+00  0.11397789682E+04  0.11397789682E+04  0.25500000000E-02 0.  1.
          2   -1    0    0  501    0  0.00000000000E+00 -0.00000000000E+00 -0.12826120351E+04  0.12826120351E+04  0.25500000000E-02 0. -1.
    8880022    1    1    2    0    0 -0.76974733006E+03  0.54910820381E+03  0.66775284810E+03  0.11676113612E+04  0.15294330000E+03 0.  0.
    8880022    1    1    2    0    0  0.76974733006E+03 -0.54910820381E+03 -0.81058591501E+03  0.12547796421E+04  0.15294330000E+03 0.  0.
<mgrwt>
<rscale>  0 0.95782171E+03</rscale>
<asrwt>0</asrwt>
<pdfrwt beam="1">  1        2 0.19732493E+00 0.95782171E+03</pdfrwt>
<pdfrwt beam="2">  1       -2 0.17535061E+00 0.95782171E+03</pdfrwt>
<totfact> 0.32946492E+00</totfact>
</mgrwt>
</event>
<event>
 4    1  0.4840632E-008  0.1295099E+04  0.7818608E-02  0.9033461E-01
         -2   -1    0    0    0  501 -0.00000000000E+00  0.00000000000E+00  0.18567211469E+04  0.18567211469E+04  0.25500000000E-02 0.  1.
          2   -1    0    0  501    0  0.00000000000E+00 -0.00000000000E+00 -0.14774159175E+04  0.14774159175E+04  0.25500000000E-02 0. -1.
    8880022    1    1    2    0    0  0.86620902789E+03  0.95056349222E+03  0.12288082035E+04  0.17852871721E+04  0.15294330000E+03 0.  0.
    8880022    1    1    2    0    0 -0.86620902789E+03 -0.95056349222E+03 -0.84950297420E+03  0.15488498923E+04  0.15294330000E+03 0.  0.
<mgrwt>
<rscale>  0 0.12950987E+04</rscale>
<asrwt>0</asrwt>
<pdfrwt beam="1">  1        2 0.22729476E+00 0.12950987E+04</pdfrwt>
<pdfrwt beam="2">  1       -2 0.28564941E+00 0.12950987E+04</pdfrwt>
<totfact> 0.48955909E-01</totfact>
</mgrwt>
</event>
<event>
 4    1  0.4840632E-008  0.4752593E+03  0.7818608E-02  0.1020446E+00
         -2   -1    0    0    0  501 -0.00000000000E+00  0.00000000000E+00  0.11343156813E+03  0.11343156816E+03  0.25500000000E-02 0.  1.
          2   -1    0    0  501    0  0.00000000000E+00 -0.00000000000E+00 -0.35939423513E+04  0.35939423513E+04  0.25500000000E-02 0. -1.
    8880022    1    1    2    0    0 -0.13131763417E+02  0.44978589426E+03 -0.50238571579E+03  0.69156550979E+03  0.15294330000E+03 0.  0.
    8880022    1    1    2    0    0  0.13131763417E+02 -0.44978589426E+03 -0.29781250674E+04  0.30158084097E+04  0.15294330000E+03 0.  0.
<mgrwt>
<rscale>  0 0.47525935E+03</rscale>
<asrwt>0</asrwt>
<pdfrwt beam="1">  1        2 0.55291412E+00 0.47525935E+03</pdfrwt>
<pdfrwt beam="2">  1       -2 0.17451013E-01 0.47525935E+03</pdfrwt>
<totfact> 0.21680995E+01</totfact>
</mgrwt>
</event>
<event>
 4    1  0.4840632E-008  0.2879319E+03  0.7818608E-02  0.1091434E+00
          2   -1    0    0  501    0  0.00000000000E+00  0.00000000000E+00  0.14488432670E+04  0.14488432670E+04  0.25500000000E-02 0. -1.
         -2   -1    0    0    0  501 -0.00000000000E+00 -0.00000000000E+00 -0.26016592379E+03  0.26016592380E+03  0.25500000000E-02 0.  1.
    8880022    1    1    2    0    0 -0.14785901111E+03  0.19403828882E+03 -0.16036749073E+03  0.32957932246E+03  0.15294330000E+03 0.  0.
    8880022    1    1    2    0    0  0.14785901111E+03 -0.19403828882E+03  0.13490448340E+04  0.13794298684E+04  0.15294330000E+03 0. -1.
<mgrwt>
<rscale>  0 0.28793193E+03</rscale>
<asrwt>0</asrwt>
<pdfrwt beam="1">  1        2 0.22289897E+00 0.28793193E+03</pdfrwt>
<pdfrwt beam="2">  1       -2 0.40025526E-01 0.28793193E+03</pdfrwt>
<totfact> 0.87296521E+01</totfact>
</mgrwt>
</event>
<event>
 4    1  0.4840632E-008  0.1828940E+03  0.7818608E-02  0.1165031E+00
          2   -1    0    0  501    0  0.00000000000E+00  0.00000000000E+00  0.14950826395E+04  0.14950826395E+04  0.25500000000E-02 0. -1.
         -2   -1    0    0    0  501 -0.00000000000E+00 -0.00000000000E+00 -0.14573562032E+03  0.14573562034E+03  0.25500000000E-02 0.  1.
    8880022    1    1    2    0    0  0.92373141955E+02 -0.39061092688E+02  0.14294850903E+04  0.14411376904E+04  0.15294330000E+03 0. -1.
    8880022    1    1    2    0    0 -0.92373141955E+02  0.39061092688E+02 -0.80138071183E+02  0.19968056937E+03  0.15294330000E+03 0.  0.
<mgrwt>
<rscale>  0 0.18289401E+03</rscale>
<asrwt>0</asrwt>
<pdfrwt beam="1">  1        2 0.23001272E+00 0.18289401E+03</pdfrwt>
<pdfrwt beam="2">  1       -2 0.22420864E-01 0.18289401E+03</pdfrwt>
<totfact> 0.24323995E+02</totfact>
</mgrwt>
</event>
<event>
 4    1  0.4840632E-008  0.6445750E+03  0.7818608E-02  0.9817012E-01
          2   -1    0    0  501    0  0.00000000000E+00  0.00000000000E+00  0.18593499524E+04  0.18593499524E+04  0.25500000000E-02 0. -1.
         -2   -1    0    0    0  501 -0.00000000000E+00 -0.00000000000E+00 -0.36715453033E+03  0.36715453034E+03  0.25500000000E-02 0.  1.
    8880022    1    1    2    0    0  0.33046889182E+03  0.53186048247E+03  0.49631321568E+02  0.64648293278E+03  0.15294330000E+03 0.  0.
    8880022    1    1    2    0    0 -0.33046889182E+03 -0.53186048247E+03  0.14425641005E+04  0.15800215500E+04  0.15294330000E+03 0.  0.
<mgrwt>
<rscale>  0 0.64457499E+03</rscale>
<asrwt>0</asrwt>
<pdfrwt beam="1">  1        2 0.28605384E+00 0.64457499E+03</pdfrwt>
<pdfrwt beam="2">  1       -2 0.56485311E-01 0.64457499E+03</pdfrwt>
<totfact> 0.24601358E+01</totfact>
</mgrwt>
</event>
<event>
 4    1  0.4840632E-008  0.4272910E+03  0.7818608E-02  0.1034719E+00
          2   -1    0    0  501    0  0.00000000000E+00  0.00000000000E+00  0.21575412730E+04  0.21575412730E+04  0.25500000000E-02 0. -1.
         -2   -1    0    0    0  501 -0.00000000000E+00 -0.00000000000E+00 -0.13390602593E+03  0.13390602596E+03  0.25500000000E-02 0.  1.
    8880022    1    1    2    0    0  0.31331877256E+03 -0.24701684161E+03  0.31674773126E+03  0.53188979267E+03  0.15294330000E+03 0.  0.
    8880022    1    1    2    0    0 -0.31331877256E+03  0.24701684161E+03  0.17068875158E+04  0.17595575063E+04  0.15294330000E+03 0.  0.
<mgrwt>
<rscale>  0 0.42729103E+03</rscale>
<asrwt>0</asrwt>
<pdfrwt beam="1">  1        2 0.33192942E+00 0.42729103E+03</pdfrwt>
<pdfrwt beam="2">  1       -2 0.20600928E-01 0.42729103E+03</pdfrwt>
<totfact> 0.11895552E+02</totfact>
</mgrwt>
</event>
<event>
 4    1  0.4840632E-008  0.1705026E+03  0.7818608E-02  0.1177325E+00
         -2   -1    0    0    0  501 -0.00000000000E+00  0.00000000000E+00  0.78307215302E+03  0.78307215303E+03  0.25500000000E-02 0.  1.
          2   -1    0    0  501    0  0.00000000000E+00 -0.00000000000E+00 -0.31881929689E+03  0.31881929690E+03  0.25500000000E-02 0. -1.
    8880022    1    1    2    0    0  0.65291407627E+02  0.37636495051E+02 -0.28574978699E+03  0.33275226137E+03  0.15294330000E+03 0. -1.
    8880022    1    1    2    0    0 -0.65291407627E+02 -0.37636495051E+02  0.75000264312E+03  0.76913918856E+03  0.15294330000E+03 0.  0.
<mgrwt>
<rscale>  0 0.17050257E+03</rscale>
<asrwt>0</asrwt>
<pdfrwt beam="1">  1        2 0.49049123E-01 0.17050257E+03</pdfrwt>
<pdfrwt beam="2">  1       -2 0.12047264E+00 0.17050257E+03</pdfrwt>
<totfact> 0.57823315E+01</totfact>
</mgrwt>
</event>
<event>
 4    1  0.4840632E-008  0.9331286E+03  0.7818608E-02  0.9385091E-01
          2   -1    0    0  501    0  0.00000000000E+00  0.00000000000E+00  0.10219616342E+04  0.10219616342E+04  0.25500000000E-02 0. -1.
         -2   -1    0    0    0  501 -0.00000000000E+00 -0.00000000000E+00 -0.25681078276E+04  0.25681078276E+04  0.25500000000E-02 0.  1.
    8880022    1    1    2    0    0 -0.52013402287E+03  0.75947208762E+03 -0.22404319483E+04  0.24269866546E+04  0.15294330000E+03 0.  0.
    8880022    1    1    2    0    0  0.52013402287E+03 -0.75947208762E+03  0.69428575500E+03  0.11630828071E+04  0.15294330000E+03 0.  0.
<mgrwt>
<rscale>  0 0.93312856E+03</rscale>
<asrwt>0</asrwt>
<pdfrwt beam="1">  1        2 0.15722487E+00 0.93312856E+03</pdfrwt>
<pdfrwt beam="2">  1       -2 0.39509351E+00 0.93312856E+03</pdfrwt>
<totfact> 0.20045663E-01</totfact>
</mgrwt>
</event>
<event>
 4    1  0.4840632E-008  0.6443626E+03  0.7818608E-02  0.9817415E-01
          2   -1    0    0  501    0  0.00000000000E+00  0.00000000000E+00  0.10602082853E+04  0.10602082853E+04  0.25500000000E-02 0. -1.
         -2   -1    0    0    0  501 -0.00000000000E+00 -0.00000000000E+00 -0.66303245951E+03  0.66303245951E+03  0.25500000000E-02 0.  1.
    8880022    1    1    2    0    0 -0.99137508968E+02  0.61804793960E+03  0.74985256346E+03  0.98867690438E+03  0.15294330000E+03 0.  0.
    8880022    1    1    2    0    0  0.99137508968E+02 -0.61804793960E+03 -0.35267673768E+03  0.73456384041E+03  0.15294330000E+03 0. -1.
<mgrwt>
<rscale>  0 0.64436260E+03</rscale>
<asrwt>0</asrwt>
<pdfrwt beam="1">  1        2 0.16310897E+00 0.64436260E+03</pdfrwt>
<pdfrwt beam="2">  1       -2 0.10200499E+00 0.64436260E+03</pdfrwt>
<totfact> 0.18716515E+01</totfact>
</mgrwt>
</event>
<event>
 4    1  0.4840632E-008  0.1941564E+03  0.7818608E-02  0.1154765E+00
         -2   -1    0    0    0  501 -0.00000000000E+00  0.00000000000E+00  0.63953039443E+03  0.63953039444E+03  0.25500000000E-02 0.  1.
          2   -1    0    0  501    0  0.00000000000E+00 -0.00000000000E+00 -0.16334804720E+04  0.16334804720E+04  0.25500000000E-02 0. -1.
    8880022    1    1    2    0    0 -0.57241950276E+02  0.10501627990E+03  0.61883651734E+03  0.64857948481E+03  0.15294330000E+03 0.  0.
    8880022    1    1    2    0    0  0.57241950276E+02 -0.10501627990E+03 -0.16127865949E+04  0.16244313816E+04  0.15294330000E+03 0.  0.
<mgrwt>
<rscale>  0 0.19415641E+03</rscale>
<asrwt>0</asrwt>
<pdfrwt beam="1">  1        2 0.25130469E+00 0.19415641E+03</pdfrwt>
<pdfrwt beam="2">  1       -2 0.98389292E-01 0.19415641E+03</pdfrwt>
<totfact> 0.10910588E+01</totfact>
</mgrwt>
</event>
<event>
 4    1  0.4840632E-008  0.5514560E+03  0.7818608E-02  0.1001157E+00
         -2   -1    0    0    0  501 -0.00000000000E+00  0.00000000000E+00  0.35071391759E+03  0.35071391760E+03  0.25500000000E-02 0.  1.
          2   -1    0    0  501    0  0.00000000000E+00 -0.00000000000E+00 -0.16493825317E+04  0.16493825317E+04  0.25500000000E-02 0. -1.
    8880022    1    1    2    0    0  0.48125020754E+03  0.22160849372E+03  0.39385067058E+02  0.55286067257E+03  0.15294330000E+03 0.  0.
    8880022    1    1    2    0    0 -0.48125020754E+03 -0.22160849372E+03 -0.13380536812E+04  0.14472357768E+04  0.15294330000E+03 0.  0.
<mgrwt>
<rscale>  0 0.55145602E+03</rscale>
<asrwt>0</asrwt>
<pdfrwt beam="1">  1        2 0.25375116E+00 0.55145602E+03</pdfrwt>
<pdfrwt beam="2">  1       -2 0.53955988E-01 0.55145602E+03</pdfrwt>
<totfact> 0.35668407E+01</totfact>
</mgrwt>
</event>
<event>
 4    1  0.4840632E-008  0.4758171E+03  0.7818608E-02  0.1020291E+00
         -2   -1    0    0    0  501 -0.00000000000E+00  0.00000000000E+00  0.33205020720E+03  0.33205020721E+03  0.25500000000E-02 0.  1.
          2   -1    0    0  501    0  0.00000000000E+00 -0.00000000000E+00 -0.89638142222E+03  0.89638142222E+03  0.25500000000E-02 0. -1.
    8880022    1    1    2    0    0  0.41261353290E+03  0.18099808876E+03 -0.58266249461E+03  0.75226157106E+03  0.15294330000E+03 0.  0.
    8880022    1    1    2    0    0 -0.41261353290E+03 -0.18099808876E+03  0.18331279596E+02  0.47617005837E+03  0.15294330000E+03 0.  0.
<mgrwt>
<rscale>  0 0.47581707E+03</rscale>
<asrwt>0</asrwt>
<pdfrwt beam="1">  1        2 0.13790483E+00 0.47581707E+03</pdfrwt>
<pdfrwt beam="2">  1       -2 0.51084648E-01 0.47581707E+03</pdfrwt>
<totfact> 0.11065156E+02</totfact>
</mgrwt>
</event>
<event>
 4    1  0.4840632E-008  0.7409006E+03  0.7818608E-02  0.9649735E-01
          2   -1    0    0  501    0  0.00000000000E+00  0.00000000000E+00  0.21350712564E+04  0.21350712564E+04  0.25500000000E-02 0. -1.
         -2   -1    0    0    0  501 -0.00000000000E+00 -0.00000000000E+00 -0.53583619033E+03  0.53583619034E+03  0.25500000000E-02 0.  1.
    8880022    1    1    2    0    0  0.58688369533E+03 -0.42556971564E+03  0.17627964968E+04  0.19121676696E+04  0.15294330000E+03 0.  0.
    8880022    1    1    2    0    0 -0.58688369533E+03  0.42556971564E+03 -0.16356143072E+03  0.75873977709E+03  0.15294330000E+03 0.  0.
<mgrwt>
<rscale>  0 0.74090061E+03</rscale>
<asrwt>0</asrwt>
<pdfrwt beam="1">  1        2 0.32847250E+00 0.74090061E+03</pdfrwt>
<pdfrwt beam="2">  1       -2 0.82436338E-01 0.74090061E+03</pdfrwt>
<totfact> 0.75493574E+00</totfact>
</mgrwt>
</event>
<event>
 4    1  0.4840632E-008  0.4413442E+03  0.7818608E-02  0.1030335E+00
          2   -1    0    0  501    0  0.00000000000E+00  0.00000000000E+00  0.12030005622E+04  0.12030005622E+04  0.25500000000E-02 0. -1.
         -2   -1    0    0    0  501 -0.00000000000E+00 -0.00000000000E+00 -0.20717370331E+03  0.20717370333E+03  0.25500000000E-02 0.  1.
    8880022    1    1    2    0    0 -0.32306792924E+03  0.25888246158E+03  0.16836199476E+03  0.47236683850E+03  0.15294330000E+03 0.  0.
    8880022    1    1    2    0    0  0.32306792924E+03 -0.25888246158E+03  0.82746486417E+03  0.93780742707E+03  0.15294330000E+03 0. -1.
<mgrwt>
<rscale>  0 0.44134416E+03</rscale>
<asrwt>0</asrwt>
<pdfrwt beam="1">  1        2 0.18507701E+00 0.44134416E+03</pdfrwt>
<pdfrwt beam="2">  1       -2 0.31872877E-01 0.44134416E+03</pdfrwt>
<totfact> 0.17950798E+02</totfact>
</mgrwt>
</event>
<event>
 4    1  0.4840632E-008  0.6831540E+03  0.7818608E-02  0.9746483E-01
          2   -1    0    0  501    0  0.00000000000E+00  0.00000000000E+00  0.73078835807E+03  0.73078835808E+03  0.25500000000E-02 0. -1.
         -2   -1    0    0    0  501 -0.00000000000E+00 -0.00000000000E+00 -0.87553335488E+03  0.87553335488E+03  0.25500000000E-02 0.  1.
    8880022    1    1    2    0    0  0.81952001315E+02  0.66075077929E+03 -0.49016130510E+03  0.84080763608E+03  0.15294330000E+03 0.  0.
    8880022    1    1    2    0    0 -0.81952001315E+02 -0.66075077929E+03  0.34541630830E+03  0.76551407688E+03  0.15294330000E+03 0.  0.
<mgrwt>
<rscale>  0 0.68315399E+03</rscale>
<asrwt>0</asrwt>
<pdfrwt beam="1">  1        2 0.11242898E+00 0.68315399E+03</pdfrwt>
<pdfrwt beam="2">  1       -2 0.13469744E+00 0.68315399E+03</pdfrwt>
<totfact> 0.15722114E+01</totfact>
</mgrwt>
</event>
<event>
 4    1  0.4840632E-008  0.1016246E+04  0.7818608E-02  0.9290903E-01
         -2   -1    0    0    0  501 -0.00000000000E+00  0.00000000000E+00  0.75352610844E+03  0.75352610844E+03  0.25500000000E-02 0.  1.
          2   -1    0    0  501    0  0.00000000000E+00 -0.00000000000E+00 -0.18221355066E+04  0.18221355066E+04  0.25500000000E-02 0. -1.
    8880022    1    1    2    0    0 -0.96319689051E+03  0.28568660113E+03  0.10680318078E+03  0.10218432641E+04  0.15294330000E+03 0.  0.
    8880022    1    1    2    0    0  0.96319689051E+03 -0.28568660113E+03 -0.11754125789E+04  0.15538183509E+04  0.15294330000E+03 0.  0.
<mgrwt>
<rscale>  0 0.10162464E+04</rscale>
<asrwt>0</asrwt>
<pdfrwt beam="1">  1        2 0.28032854E+00 0.10162464E+04</pdfrwt>
<pdfrwt beam="2">  1       -2 0.11592709E+00 0.10162464E+04</pdfrwt>
<totfact> 0.48267757E+00</totfact>
</mgrwt>
</event>
<event>
 4    1  0.4840632E-008  0.3417284E+03  0.7818608E-02  0.1066062E+00
         -2   -1    0    0    0  501 -0.00000000000E+00  0.00000000000E+00  0.50104899287E+03  0.50104899288E+03  0.25500000000E-02 0.  1.
          2   -1    0    0  501    0  0.00000000000E+00 -0.00000000000E+00 -0.45480900558E+03  0.45480900558E+03  0.25500000000E-02 0. -1.
    8880022    1    1    2    0    0 -0.20672977082E+03 -0.22505431013E+03  0.35683231252E+03  0.49407245716E+03  0.15294330000E+03 0.  0.
    8880022    1    1    2    0    0  0.20672977082E+03  0.22505431013E+03 -0.31059232523E+03  0.46178554130E+03  0.15294330000E+03 0.  0.
<mgrwt>
<rscale>  0 0.34172839E+03</rscale>
<asrwt>0</asrwt>
<pdfrwt beam="1">  1        2 0.69970616E-01 0.34172839E+03</pdfrwt>
<pdfrwt beam="2">  1       -2 0.77084461E-01 0.34172839E+03</pdfrwt>
<totfact> 0.10735121E+02</totfact>
</mgrwt>
</event>
<event>
 4    1  0.4840632E-008  0.8398945E+03  0.7818608E-02  0.9504001E-01
          2   -1    0    0  501    0  0.00000000000E+00  0.00000000000E+00  0.81289084712E+03  0.81289084713E+03  0.25500000000E-02 0. -1.
         -2   -1    0    0    0  501 -0.00000000000E+00 -0.00000000000E+00 -0.95355913059E+03  0.95355913059E+03  0.25500000000E-02 0.  1.
    8880022    1    1    2    0    0  0.58893208820E+03 -0.57895612709E+03  0.19454613691E+03  0.86213169180E+03  0.15294330000E+03 0.  0.
    8880022    1    1    2    0    0 -0.58893208820E+03  0.57895612709E+03 -0.33521442038E+03  0.90431828592E+03  0.15294330000E+03 0.  0.
<mgrwt>
<rscale>  0 0.83989455E+03</rscale>
<asrwt>0</asrwt>
<pdfrwt beam="1">  1        2 0.12506013E+00 0.83989455E+03</pdfrwt>
<pdfrwt beam="2">  1       -2 0.14670141E+00 0.83989455E+03</pdfrwt>
<totfact> 0.10784128E+01</totfact>
</mgrwt>
</event>
<event>
 4    1  0.4840632E-008  0.1652589E+04  0.7818608E-02  0.8788876E-01
         -2   -1    0    0    0  501 -0.00000000000E+00  0.00000000000E+00  0.68730897184E+03  0.68730897184E+03  0.25500000000E-02 0.  1.
          2   -1    0    0  501    0  0.00000000000E+00 -0.00000000000E+00 -0.43516973310E+04  0.43516973310E+04  0.25500000000E-02 0. -1.
    8880022    1    1    2    0    0 -0.45139545501E+03  0.15823720921E+04 -0.25749067559E+04  0.30596071233E+04  0.15294330000E+03 0.  0.
    8880022    1    1    2    0    0  0.45139545501E+03 -0.15823720921E+04 -0.10894816033E+04  0.19793991795E+04  0.15294330000E+03 0.  0.
<mgrwt>
<rscale>  0 0.16525892E+04</rscale>
<asrwt>0</asrwt>
<pdfrwt beam="1">  1        2 0.66949188E+00 0.16525892E+04</pdfrwt>
<pdfrwt beam="2">  1       -2 0.10573984E+00 0.16525892E+04</pdfrwt>
<totfact> 0.11761208E-01</totfact>
</mgrwt>
</event>
<event>
 4    1  0.4840632E-008  0.5888954E+03  0.7818608E-02  0.9928716E-01
         -2   -1    0    0    0  501 -0.00000000000E+00  0.00000000000E+00  0.40587576461E+03  0.40587576462E+03  0.25500000000E-02 0.  1.
          2   -1    0    0  501    0  0.00000000000E+00 -0.00000000000E+00 -0.96593909041E+03  0.96593909041E+03  0.25500000000E-02 0. -1.
    8880022    1    1    2    0    0 -0.13306456160E+02  0.56853242321E+03 -0.46997360049E+02  0.59076779100E+03  0.15294330000E+03 0.  0.
    8880022    1    1    2    0    0  0.13306456160E+02 -0.56853242321E+03 -0.51306596574E+03  0.78104706403E+03  0.15294330000E+03 0.  0.
<mgrwt>
<rscale>  0 0.58889543E+03</rscale>
<asrwt>0</asrwt>
<pdfrwt beam="1">  1        2 0.14860601E+00 0.58889543E+03</pdfrwt>
<pdfrwt beam="2">  1       -2 0.62442425E-01 0.58889543E+03</pdfrwt>
<totfact> 0.64927059E+01</totfact>
</mgrwt>
</event>
<event>
 4    1  0.4840632E-008  0.5618984E+03  0.7818608E-02  0.9987768E-01
          2   -1    0    0  501    0  0.00000000000E+00  0.00000000000E+00  0.58597930056E+03  0.58597930056E+03  0.25500000000E-02 0. -1.
         -2   -1    0    0    0  501 -0.00000000000E+00 -0.00000000000E+00 -0.61103696231E+03  0.61103696231E+03  0.25500000000E-02 0.  1.
    8880022    1    1    2    0    0  0.17234098626E+03  0.51248092920E+03 -0.21830491273E+03  0.60281573160E+03  0.15294330000E+03 0.  0.
    8880022    1    1    2    0    0 -0.17234098626E+03 -0.51248092920E+03  0.19324725098E+03  0.59420053127E+03  0.15294330000E+03 0.  0.
<mgrwt>
<rscale>  0 0.56189836E+03</rscale>
<asrwt>0</asrwt>
<pdfrwt beam="1">  1        2 0.90150662E-01 0.56189836E+03</pdfrwt>
<pdfrwt beam="2">  1       -2 0.94005687E-01 0.56189836E+03</pdfrwt>
<totfact> 0.50100360E+01</totfact>
</mgrwt>
</event>
<event>
 4    1  0.4840632E-008  0.1890533E+03  0.7818608E-02  0.1159318E+00
          2   -1    0    0  501    0  0.00000000000E+00  0.00000000000E+00  0.64045415691E+03  0.64045415691E+03  0.25500000000E-02 0. -1.
         -2   -1    0    0    0  501 -0.00000000000E+00 -0.00000000000E+00 -0.15991596977E+03  0.15991596979E+03  0.25500000000E-02 0.  1.
    8880022    1    1    2    0    0 -0.46411791904E+02  0.10097248835E+03 -0.82625837386E+02  0.20632057544E+03  0.15294330000E+03 0.  1.
    8880022    1    1    2    0    0  0.46411791904E+02 -0.10097248835E+03  0.56316402452E+03  0.59404955127E+03  0.15294330000E+03 0.  0.
<mgrwt>
<rscale>  0 0.18905330E+03</rscale>
<asrwt>0</asrwt>
<pdfrwt beam="1">  1        2 0.98531410E-01 0.18905330E+03</pdfrwt>
<pdfrwt beam="2">  1       -2 0.24602457E-01 0.18905330E+03</pdfrwt>
<totfact> 0.68712137E+02</totfact>
</mgrwt>
</event>
<event>
 4    1  0.4840632E-008  0.2529755E+03  0.7818608E-02  0.1111439E+00
          2   -1    0    0  501    0  0.00000000000E+00  0.00000000000E+00  0.34610691473E+03  0.34610691474E+03  0.25500000000E-02 0. -1.
         -2   -1    0    0    0  501 -0.00000000000E+00 -0.00000000000E+00 -0.44966518309E+03  0.44966518310E+03  0.25500000000E-02 0.  1.
    8880022    1    1    2    0    0  0.15829181394E+03 -0.12469420018E+03  0.25353094212E+03  0.35815434319E+03  0.15294330000E+03 0.  0.
    8880022    1    1    2    0    0 -0.15829181394E+03  0.12469420018E+03 -0.35708921049E+03  0.43761775465E+03  0.15294330000E+03 0.  0.
<mgrwt>
<rscale>  0 0.25297548E+03</rscale>
<asrwt>0</asrwt>
<pdfrwt beam="1">  1        2 0.53247217E-01 0.25297548E+03</pdfrwt>
<pdfrwt beam="2">  1       -2 0.69179260E-01 0.25297548E+03</pdfrwt>
<totfact> 0.18477063E+02</totfact>
</mgrwt>
</event>
<event>
 4    1  0.4840632E-008  0.1072192E+04  0.7818608E-02  0.9232727E-01
         -2   -1    0    0    0  501 -0.00000000000E+00  0.00000000000E+00  0.72408471835E+03  0.72408471836E+03  0.25500000000E-02 0.  1.
          2   -1    0    0  501    0  0.00000000000E+00 -0.00000000000E+00 -0.18762620774E+04  0.18762620774E+04  0.25500000000E-02 0. -1.
    8880022    1    1    2    0    0  0.86951430392E+03  0.60839947508E+03 -0.10860157166E+04  0.15261149484E+04  0.15294330000E+03 0.  0.
    8880022    1    1    2    0    0 -0.86951430392E+03 -0.60839947508E+03 -0.66161642479E+02  0.10742318474E+04  0.15294330000E+03 0.  0.
<mgrwt>
<rscale>  0 0.10721925E+04</rscale>
<asrwt>0</asrwt>
<pdfrwt beam="1">  1        2 0.28865570E+00 0.10721925E+04</pdfrwt>
<pdfrwt beam="2">  1       -2 0.11139765E+00 0.10721925E+04</pdfrwt>
<totfact> 0.49369485E+00</totfact>
</mgrwt>
</event>
<event>
 4    1  0.4840632E-008  0.6632188E+03  0.7818608E-02  0.9782286E-01
          2   -1    0    0  501    0  0.00000000000E+00  0.00000000000E+00  0.22991140474E+04  0.22991140474E+04  0.25500000000E-02 0. -1.
         -2   -1    0    0    0  501 -0.00000000000E+00 -0.00000000000E+00 -0.21872267050E+03  0.21872267052E+03  0.25500000000E-02 0.  1.
    8880022    1    1    2    0    0 -0.66374191218E+02  0.64192059411E+03  0.59456802065E+03  0.89071340317E+03  0.15294330000E+03 0.  0.
    8880022    1    1    2    0    0  0.66374191218E+02 -0.64192059411E+03  0.14858233562E+04  0.16271233147E+04  0.15294330000E+03 0.  0.
<mgrwt>
<rscale>  0 0.66321884E+03</rscale>
<asrwt>0</asrwt>
<pdfrwt beam="1">  1        2 0.35370985E+00 0.66321884E+03</pdfrwt>
<pdfrwt beam="2">  1       -2 0.33649642E-01 0.66321884E+03</pdfrwt>
<totfact> 0.39364422E+01</totfact>
</mgrwt>
</event>
<event>
 4    1  0.4840632E-008  0.1647892E+03  0.7818608E-02  0.1183393E+00
          2   -1    0    0  501    0  0.00000000000E+00  0.00000000000E+00  0.76107890548E+03  0.76107890549E+03  0.25500000000E-02 0. -1.
         -2   -1    0    0    0  501 -0.00000000000E+00 -0.00000000000E+00 -0.54483007754E+02  0.54483007813E+02  0.25500000000E-02 0.  1.
    8880022    1    1    2    0    0 -0.31634671559E+02  0.52564857628E+02  0.11374174641E+03  0.20023150250E+03  0.15294330000E+03 0.  0.
    8880022    1    1    2    0    0  0.31634671559E+02 -0.52564857628E+02  0.59285415133E+03  0.61533041081E+03  0.15294330000E+03 0.  0.
<mgrwt>
<rscale>  0 0.16478917E+03</rscale>
<asrwt>0</asrwt>
<pdfrwt beam="1">  1        2 0.11708905E+00 0.16478917E+03</pdfrwt>
<pdfrwt beam="2">  1       -2 0.83820019E-02 0.16478917E+03</pdfrwt>
<totfact> 0.32694032E+03</totfact>
</mgrwt>
</event>
<event>
 4    1  0.4840632E-008  0.3948528E+03  0.7818608E-02  0.1045577E+00
          2   -1    0    0  501    0  0.00000000000E+00  0.00000000000E+00  0.12480178599E+04  0.12480178599E+04  0.25500000000E-02 0. -1.
         -2   -1    0    0    0  501 -0.00000000000E+00 -0.00000000000E+00 -0.36883668340E+03  0.36883668341E+03  0.25500000000E-02 0.  1.
    8880022    1    1    2    0    0  0.10346357803E+03 -0.34901625488E+03 -0.21782522508E+03  0.45095070667E+03  0.15294330000E+03 0.  0.
    8880022    1    1    2    0    0 -0.10346357803E+03  0.34901625488E+03  0.10970064016E+04  0.11659038366E+04  0.15294330000E+03 0. -1.
<mgrwt>
<rscale>  0 0.39485277E+03</rscale>
<asrwt>0</asrwt>
<pdfrwt beam="1">  1        2 0.19200274E+00 0.39485277E+03</pdfrwt>
<pdfrwt beam="2">  1       -2 0.56744107E-01 0.39485277E+03</pdfrwt>
<totfact> 0.55060447E+01</totfact>
</mgrwt>
</event>
<event>
 4    1  0.4840632E-008  0.5889440E+03  0.7818608E-02  0.9928613E-01
          2   -1    0    0  501    0  0.00000000000E+00  0.00000000000E+00  0.76163851725E+03  0.76163851725E+03  0.25500000000E-02 0. -1.
         -2   -1    0    0    0  501 -0.00000000000E+00 -0.00000000000E+00 -0.58026461566E+03  0.58026461567E+03  0.25500000000E-02 0.  1.
    8880022    1    1    2    0    0 -0.55222878819E+03  0.13603968273E+03 -0.22054675672E+03  0.62888469110E+03  0.15294330000E+03 0.  0.
    8880022    1    1    2    0    0  0.55222878819E+03 -0.13603968273E+03  0.40192065831E+03  0.71301844182E+03  0.15294330000E+03 0.  0.
<mgrwt>
<rscale>  0 0.58894404E+03</rscale>
<asrwt>0</asrwt>
<pdfrwt beam="1">  1        2 0.11717516E+00 0.58894404E+03</pdfrwt>
<pdfrwt beam="2">  1       -2 0.89271480E-01 0.58894404E+03</pdfrwt>
<totfact> 0.40714780E+01</totfact>
</mgrwt>
</event>
<event>
 4    1  0.4840632E-008  0.1478346E+04  0.7818608E-02  0.8898982E-01
          2   -1    0    0  501    0  0.00000000000E+00  0.00000000000E+00  0.29373463789E+04  0.29373463789E+04  0.25500000000E-02 0. -1.
         -2   -1    0    0    0  501 -0.00000000000E+00 -0.00000000000E+00 -0.94565224812E+03  0.94565224812E+03  0.25500000000E-02 0.  1.
    8880022    1    1    2    0    0  0.12547771229E+04  0.76658310300E+03  0.99391850079E+02  0.14816833923E+04  0.15294330000E+03 0.  0.
    8880022    1    1    2    0    0 -0.12547771229E+04 -0.76658310300E+03  0.18923022807E+04  0.24013152347E+04  0.15294330000E+03 0.  0.
<mgrwt>
<rscale>  0 0.14783460E+04</rscale>
<asrwt>0</asrwt>
<pdfrwt beam="1">  1        2 0.45189943E+00 0.14783460E+04</pdfrwt>
<pdfrwt beam="2">  1       -2 0.14548496E+00 0.14783460E+04</pdfrwt>
<totfact> 0.58801076E-01</totfact>
</mgrwt>
</event>
<event>
 4    1  0.4840632E-008  0.6120788E+03  0.7818608E-02  0.9880658E-01
          2   -1    0    0  501    0  0.00000000000E+00  0.00000000000E+00  0.14907935490E+04  0.14907935490E+04  0.25500000000E-02 0. -1.
         -2   -1    0    0    0  501 -0.00000000000E+00 -0.00000000000E+00 -0.28326430741E+03  0.28326430742E+03  0.25500000000E-02 0.  1.
    8880022    1    1    2    0    0 -0.43644652066E+03  0.40095291436E+03  0.90172334015E+03  0.10898373457E+04  0.15294330000E+03 0.  0.
    8880022    1    1    2    0    0  0.43644652066E+03 -0.40095291436E+03  0.30580590149E+03  0.68422051075E+03  0.15294330000E+03 0.  0.
<mgrwt>
<rscale>  0 0.61207880E+03</rscale>
<asrwt>0</asrwt>
<pdfrwt beam="1">  1        2 0.22935285E+00 0.61207880E+03</pdfrwt>
<pdfrwt beam="2">  1       -2 0.43579124E-01 0.61207880E+03</pdfrwt>
<totfact> 0.66448577E+01</totfact>
</mgrwt>
</event>
<event>
 4    1  0.4840632E-008  0.4702441E+03  0.7818608E-02  0.1021851E+00
         -2   -1    0    0    0  501 -0.00000000000E+00  0.00000000000E+00  0.32592179839E+03  0.32592179840E+03  0.25500000000E-02 0.  1.
          2   -1    0    0  501    0  0.00000000000E+00 -0.00000000000E+00 -0.71655412496E+03  0.71655412496E+03  0.25500000000E-02 0. -1.
    8880022    1    1    2    0    0 -0.19669885478E+03  0.39880745211E+03 -0.75155990717E+02  0.47621203186E+03  0.15294330000E+03 0.  0.
    8880022    1    1    2    0    0  0.19669885478E+03 -0.39880745211E+03 -0.31547633585E+03  0.56626389151E+03  0.15294330000E+03 0.  0.
<mgrwt>
<rscale>  0 0.47024406E+03</rscale>
<asrwt>0</asrwt>
<pdfrwt beam="1">  1        2 0.11023910E+00 0.47024406E+03</pdfrwt>
<pdfrwt beam="2">  1       -2 0.50141815E-01 0.47024406E+03</pdfrwt>
<totfact> 0.15408293E+02</totfact>
</mgrwt>
</event>
<event>
 4    1  0.4906326E-008  0.4224761E+03  0.7818608E-02  0.1036263E+00
         -2   -1    0    0    0  501 -0.00000000000E+00  0.00000000000E+00  0.90185712947E+03  0.90185712947E+03  0.25500000000E-02 0.  1.
          2   -1    0    0  501    0  0.00000000000E+00 -0.00000000000E+00 -0.28828780090E+04  0.28828780090E+04  0.25500000000E-02 0. -1.
    8880022    1    1    2    0    0 -0.20821222078E+02  0.39326951387E+03  0.83574685126E+03  0.93646083005E+03  0.15294330000E+03 0.  0.
    8880022    1    1    2    0    0  0.20821222078E+02 -0.39326951387E+03 -0.28167677308E+04  0.28482743085E+04  0.15294330000E+03 0.  0.
<mgrwt>
<rscale>  0 0.42247614E+03</rscale>
<asrwt>0</asrwt>
<pdfrwt beam="1">  1        2 0.44351969E+00 0.42247614E+03</pdfrwt>
<pdfrwt beam="2">  1       -2 0.13874725E+00 0.42247614E+03</pdfrwt>
<totfact> 0.89028342E-01</totfact>
</mgrwt>
</event>
<event>
 4    1  0.4840632E-008  0.8258222E+03  0.7818608E-02  0.9523375E-01
         -2   -1    0    0    0  501 -0.00000000000E+00  0.00000000000E+00  0.32454813676E+03  0.32454813677E+03  0.25500000000E-02 0.  1.
          2   -1    0    0  501    0  0.00000000000E+00 -0.00000000000E+00 -0.26433676481E+04  0.26433676481E+04  0.25500000000E-02 0. -1.
    8880022    1    1    2    0    0  0.81064892270E+03 -0.37933469295E+02 -0.18313924453E+04  0.20089750037E+04  0.15294330000E+03 0.  1.
    8880022    1    1    2    0    0 -0.81064892270E+03  0.37933469295E+02 -0.48742706605E+03  0.95894078112E+03  0.15294330000E+03 0. -1.
<mgrwt>
<rscale>  0 0.82582218E+03</rscale>
<asrwt>0</asrwt>
<pdfrwt beam="1">  1        2 0.40667193E+00 0.82582218E+03</pdfrwt>
<pdfrwt beam="2">  1       -2 0.49930484E-01 0.82582218E+03</pdfrwt>
<totfact> 0.11318966E+01</totfact>
</mgrwt>
</event>
<event>
 4    1  0.4840632E-008  0.1141799E+04  0.7818608E-02  0.9165383E-01
         -2   -1    0    0    0  501 -0.00000000000E+00  0.00000000000E+00  0.19428382378E+04  0.19428382378E+04  0.25500000000E-02 0.  1.
          2   -1    0    0  501    0  0.00000000000E+00 -0.00000000000E+00 -0.10494695897E+04  0.10494695897E+04  0.25500000000E-02 0. -1.
    8880022    1    1    2    0    0  0.11132159613E+04 -0.20264049465E+03  0.13451243189E+04  0.17643877218E+04  0.15294330000E+03 0.  0.
    8880022    1    1    2    0    0 -0.11132159613E+04  0.20264049465E+03 -0.45175567083E+03  0.12279201056E+04  0.15294330000E+03 0.  0.
<mgrwt>
<rscale>  0 0.11417988E+04</rscale>
<asrwt>0</asrwt>
<pdfrwt beam="1">  1        2 0.16145686E+00 0.11417988E+04</pdfrwt>
<pdfrwt beam="2">  1       -2 0.29889819E+00 0.11417988E+04</pdfrwt>
<totfact> 0.74461896E-01</totfact>
</mgrwt>
</event>
<event>
 4    1  0.4840632E-008  0.5357500E+03  0.7818608E-02  0.1004847E+00
         -2   -1    0    0    0  501 -0.00000000000E+00  0.00000000000E+00  0.10808816945E+03  0.10808816948E+03  0.25500000000E-02 0.  1.
          2   -1    0    0  501    0  0.00000000000E+00 -0.00000000000E+00 -0.29239025850E+04  0.29239025850E+04  0.25500000000E-02 0. -1.
    8880022    1    1    2    0    0  0.26290324706E+03  0.44104229383E+03 -0.94859264589E+03  0.10894292465E+04  0.15294330000E+03 0.  0.
    8880022    1    1    2    0    0 -0.26290324706E+03 -0.44104229383E+03 -0.18672217697E+04  0.19425615080E+04  0.15294330000E+03 0.  0.
<mgrwt>
<rscale>  0 0.53575001E+03</rscale>
<asrwt>0</asrwt>
<pdfrwt beam="1">  1        2 0.44983111E+00 0.53575001E+03</pdfrwt>
<pdfrwt beam="2">  1       -2 0.16628951E-01 0.53575001E+03</pdfrwt>
<totfact> 0.62233876E+01</totfact>
</mgrwt>
</event>
<event>
 4    1  0.5425601E-008  0.1112707E+04  0.7818608E-02  0.9192894E-01
          2   -1    0    0  501    0  0.00000000000E+00  0.00000000000E+00  0.30436631727E+04  0.30436631727E+04  0.25500000000E-02 0. -1.
         -2   -1    0    0    0  501 -0.00000000000E+00 -0.00000000000E+00 -0.95221806755E+03  0.95221806756E+03  0.25500000000E-02 0.  1.
    8880022    1    1    2    0    0 -0.10873845483E+04 -0.17977932884E+03  0.25578381150E+04  0.27893822325E+04  0.15294330000E+03 0.  0.
    8880022    1    1    2    0    0  0.10873845483E+04  0.17977932884E+03 -0.46639300990E+03  0.12064990078E+04  0.15294330000E+03 0.  0.
<mgrwt>
<rscale>  0 0.11127072E+04</rscale>
<asrwt>0</asrwt>
<pdfrwt beam="1">  1        2 0.46825587E+00 0.11127072E+04</pdfrwt>
<pdfrwt beam="2">  1       -2 0.14649509E+00 0.11127072E+04</pdfrwt>
<totfact> 0.52074902E-01</totfact>
</mgrwt>
</event>
<event>
 4    1  0.4840632E-008  0.3918354E+03  0.7818608E-02  0.1046644E+00
         -2   -1    0    0    0  501 -0.00000000000E+00  0.00000000000E+00  0.24467763935E+03  0.24467763936E+03  0.25500000000E-02 0.  1.
          2   -1    0    0  501    0  0.00000000000E+00 -0.00000000000E+00 -0.13163599952E+04  0.13163599952E+04  0.25500000000E-02 0. -1.
    8880022    1    1    2    0    0 -0.18164609759E+03  0.31168581305E+03  0.28786026363E+02  0.39289138341E+03  0.15294330000E+03 0.  0.
    8880022    1    1    2    0    0  0.18164609759E+03 -0.31168581305E+03 -0.11004683823E+04  0.11681462512E+04  0.15294330000E+03 0.  0.
<mgrwt>
<rscale>  0 0.39183543E+03</rscale>
<asrwt>0</asrwt>
<pdfrwt beam="1">  1        2 0.20251692E+00 0.39183543E+03</pdfrwt>
<pdfrwt beam="2">  1       -2 0.37642714E-01 0.39183543E+03</pdfrwt>
<totfact> 0.11383234E+02</totfact>
</mgrwt>
</event>
<event>
 4    1  0.4840632E-008  0.4958994E+03  0.7818608E-02  0.1014855E+00
          2   -1    0    0  501    0  0.00000000000E+00  0.00000000000E+00  0.98425037314E+03  0.98425037315E+03  0.25500000000E-02 0. -1.
         -2   -1    0    0    0  501 -0.00000000000E+00 -0.00000000000E+00 -0.98997644405E+03  0.98997644405E+03  0.25500000000E-02 0.  1.
    8880022    1    1    2    0    0 -0.36307760509E+03  0.30116317968E+03  0.85064417105E+03  0.98463788616E+03  0.15294330000E+03 0.  0.
    8880022    1    1    2    0    0  0.36307760509E+03 -0.30116317968E+03 -0.85637024195E+03  0.98958893104E+03  0.15294330000E+03 0.  0.
<mgrwt>
<rscale>  0 0.49589945E+03</rscale>
<asrwt>0</asrwt>
<pdfrwt beam="1">  1        2 0.15142313E+00 0.49589945E+03</pdfrwt>
<pdfrwt beam="2">  1       -2 0.15230407E+00 0.49589945E+03</pdfrwt>
<totfact> 0.78576627E+00</totfact>
</mgrwt>
</event>
<event>
 4    1  0.4840632E-008  0.3221668E+03  0.7818608E-02  0.1074656E+00
          2   -1    0    0  501    0  0.00000000000E+00  0.00000000000E+00  0.15082922626E+04  0.15082922626E+04  0.25500000000E-02 0. -1.
         -2   -1    0    0    0  501 -0.00000000000E+00 -0.00000000000E+00 -0.37610835036E+03  0.37610835037E+03  0.25500000000E-02 0.  1.
    8880022    1    1    2    0    0 -0.13545549596E+03 -0.24910159000E+03  0.14177477871E+04  0.14538914108E+04  0.15294330000E+03 0.  0.
    8880022    1    1    2    0    0  0.13545549596E+03  0.24910159000E+03 -0.28556387486E+03  0.43050920219E+03  0.15294330000E+03 0.  1.
<mgrwt>
<rscale>  0 0.32216680E+03</rscale>
<asrwt>0</asrwt>
<pdfrwt beam="1">  1        2 0.23204496E+00 0.32216680E+03</pdfrwt>
<pdfrwt beam="2">  1       -2 0.57862823E-01 0.32216680E+03</pdfrwt>
<totfact> 0.38565052E+01</totfact>
</mgrwt>
</event>
<event>
 4    1  0.4840632E-008  0.6498110E+03  0.7818608E-02  0.9807134E-01
         -2   -1    0    0    0  501 -0.00000000000E+00  0.00000000000E+00  0.17364489013E+03  0.17364489015E+03  0.25500000000E-02 0.  1.
          2   -1    0    0  501    0  0.00000000000E+00 -0.00000000000E+00 -0.30719031537E+04  0.30719031537E+04  0.25500000000E-02 0. -1.
    8880022    1    1    2    0    0 -0.15580137716E+03  0.61203642175E+03 -0.21899432274E+04  0.22843173254E+04  0.15294330000E+03 0.  0.
    8880022    1    1    2    0    0  0.15580137716E+03 -0.61203642175E+03 -0.70831503608E+03  0.96123071842E+03  0.15294330000E+03 0.  0.
<mgrwt>
<rscale>  0 0.64981098E+03</rscale>
<asrwt>0</asrwt>
<pdfrwt beam="1">  1        2 0.47260045E+00 0.64981098E+03</pdfrwt>
<pdfrwt beam="2">  1       -2 0.26714601E-01 0.64981098E+03</pdfrwt>
<totfact> 0.21522458E+01</totfact>
</mgrwt>
</event>
<event>
 4    1  0.4840632E-008  0.7404629E+03  0.7818608E-02  0.9650432E-01
         -2   -1    0    0    0  501 -0.00000000000E+00  0.00000000000E+00  0.10608265832E+04  0.10608265832E+04  0.25500000000E-02 0.  1.
          2   -1    0    0  501    0  0.00000000000E+00 -0.00000000000E+00 -0.80908993803E+03  0.80908993803E+03  0.25500000000E-02 0. -1.
    8880022    1    1    2    0    0  0.58802317137E+03 -0.42322860118E+03  0.68777683980E+03  0.10106049343E+04  0.15294330000E+03 0.  0.
    8880022    1    1    2    0    0 -0.58802317137E+03  0.42322860118E+03 -0.43604019467E+03  0.85931158686E+03  0.15294330000E+03 0.  0.
<mgrwt>
<rscale>  0 0.74046293E+03</rscale>
<asrwt>0</asrwt>
<pdfrwt beam="1">  1        2 0.12447538E+00 0.74046293E+03</pdfrwt>
<pdfrwt beam="2">  1       -2 0.16320409E+00 0.74046293E+03</pdfrwt>
<totfact> 0.82454070E+00</totfact>
</mgrwt>
</event>
<event>
 4    1  0.4840632E-008  0.8279268E+03  0.7818608E-02  0.9520451E-01
          2   -1    0    0  501    0  0.00000000000E+00  0.00000000000E+00  0.11772501249E+04  0.11772501249E+04  0.25500000000E-02 0. -1.
         -2   -1    0    0    0  501 -0.00000000000E+00 -0.00000000000E+00 -0.11567940149E+04  0.11567940149E+04  0.25500000000E-02 0.  1.
    8880022    1    1    2    0    0  0.31009033394E+02  0.81308645673E+03  0.83267869594E+03  0.11742302202E+04  0.15294330000E+03 0.  0.
    8880022    1    1    2    0    0 -0.31009033394E+02 -0.81308645673E+03 -0.81222258593E+03  0.11598139197E+04  0.15294330000E+03 0.  0.
<mgrwt>
<rscale>  0 0.82792681E+03</rscale>
<asrwt>0</asrwt>
<pdfrwt beam="1">  1        2 0.18111540E+00 0.82792681E+03</pdfrwt>
<pdfrwt beam="2">  1       -2 0.17796831E+00 0.82792681E+03</pdfrwt>
<totfact> 0.37064968E+00</totfact>
</mgrwt>
</event>
<event>
 4    1  0.4840632E-008  0.1868615E+03  0.7818608E-02  0.1161323E+00
         -2   -1    0    0    0  501 -0.00000000000E+00  0.00000000000E+00  0.37337305251E+03  0.37337305252E+03  0.25500000000E-02 0.  1.
          2   -1    0    0  501    0  0.00000000000E+00 -0.00000000000E+00 -0.99904014756E+03  0.99904014756E+03  0.25500000000E-02 0. -1.
    8880022    1    1    2    0    0  0.10699320118E+03  0.88328501744E+01  0.34046679224E+03  0.38837463096E+03  0.15294330000E+03 0.  0.
    8880022    1    1    2    0    0 -0.10699320118E+03 -0.88328501744E+01 -0.96613388729E+03  0.98403856912E+03  0.15294330000E+03 0. -1.
<mgrwt>
<rscale>  0 0.18686149E+03</rscale>
<asrwt>0</asrwt>
<pdfrwt beam="1">  1        2 0.15369848E+00 0.18686149E+03</pdfrwt>
<pdfrwt beam="2">  1       -2 0.57442009E-01 0.18686149E+03</pdfrwt>
<totfact> 0.78838215E+01</totfact>
</mgrwt>
</event>
<event>
 4    1  0.4840632E-008  0.7057833E+03  0.7818608E-02  0.9707393E-01
         -2   -1    0    0    0  501 -0.00000000000E+00  0.00000000000E+00  0.32428316654E+03  0.32428316655E+03  0.25500000000E-02 0.  1.
          2   -1    0    0  501    0  0.00000000000E+00 -0.00000000000E+00 -0.21970118939E+04  0.21970118939E+04  0.25500000000E-02 0. -1.
    8880022    1    1    2    0    0  0.23777136504E+03 -0.64668626243E+03 -0.24493049278E+03  0.74707492486E+03  0.15294330000E+03 0.  0.
    8880022    1    1    2    0    0 -0.23777136504E+03  0.64668626243E+03 -0.16277982346E+04  0.17742201356E+04  0.15294330000E+03 0.  0.
<mgrwt>
<rscale>  0 0.70578325E+03</rscale>
<asrwt>0</asrwt>
<pdfrwt beam="1">  1        2 0.33800182E+00 0.70578325E+03</pdfrwt>
<pdfrwt beam="2">  1       -2 0.49889719E-01 0.70578325E+03</pdfrwt>
<totfact> 0.20596217E+01</totfact>
</mgrwt>
</event>
<event>
 4    1  0.4840632E-008  0.3670549E+03  0.7818608E-02  0.1055825E+00
         -2   -1    0    0    0  501 -0.00000000000E+00  0.00000000000E+00  0.15014478356E+03  0.15014478358E+03  0.25500000000E-02 0.  1.
          2   -1    0    0  501    0  0.00000000000E+00 -0.00000000000E+00 -0.15180162731E+04  0.15180162731E+04  0.25500000000E-02 0. -1.
    8880022    1    1    2    0    0 -0.10605427844E+03  0.31637022538E+03 -0.12172782010E+04  0.12714147636E+04  0.15294330000E+03 0.  0.
    8880022    1    1    2    0    0  0.10605427844E+03 -0.31637022538E+03 -0.15059328851E+03  0.39674629305E+03  0.15294330000E+03 0.  0.
<mgrwt>
<rscale>  0 0.36705488E+03</rscale>
<asrwt>0</asrwt>
<pdfrwt beam="1">  1        2 0.23354095E+00 0.36705488E+03</pdfrwt>
<pdfrwt beam="2">  1       -2 0.23099199E-01 0.36705488E+03</pdfrwt>
<totfact> 0.21641851E+02</totfact>
</mgrwt>
</event>
<event>
 4    1  0.4840632E-008  0.6476481E+03  0.7818608E-02  0.9811202E-01
          2   -1    0    0  501    0  0.00000000000E+00  0.00000000000E+00  0.11340989016E+04  0.11340989016E+04  0.25500000000E-02 0. -1.
         -2   -1    0    0    0  501 -0.00000000000E+00 -0.00000000000E+00 -0.54000626116E+03  0.54000626117E+03  0.25500000000E-02 0.  1.
    8880022    1    1    2    0    0 -0.51689172658E+03 -0.35899769154E+03  0.76691396307E+03  0.10037953374E+04  0.15294330000E+03 0.  0.
    8880022    1    1    2    0    0  0.51689172658E+03  0.35899769154E+03 -0.17282132259E+03  0.67030982545E+03  0.15294330000E+03 0.  0.
<mgrwt>
<rscale>  0 0.64764809E+03</rscale>
<asrwt>0</asrwt>
<pdfrwt beam="1">  1        2 0.17447675E+00 0.64764809E+03</pdfrwt>
<pdfrwt beam="2">  1       -2 0.83077887E-01 0.64764809E+03</pdfrwt>
<totfact> 0.27129931E+01</totfact>
</mgrwt>
</event>
<event>
 4    1  0.4840632E-008  0.4160333E+03  0.7818608E-02  0.1038365E+00
          2   -1    0    0  501    0  0.00000000000E+00  0.00000000000E+00  0.18297589629E+04  0.18297589629E+04  0.25500000000E-02 0. -1.
         -2   -1    0    0    0  501 -0.00000000000E+00 -0.00000000000E+00 -0.11917165634E+04  0.11917165634E+04  0.25500000000E-02 0.  1.
    8880022    1    1    2    0    0  0.84960663257E+01 -0.38680732083E+03 -0.11305188620E+04  0.12046396295E+04  0.15294330000E+03 0.  0.
    8880022    1    1    2    0    0 -0.84960663257E+01  0.38680732083E+03  0.17685612616E+04  0.18168358967E+04  0.15294330000E+03 0.  0.
<mgrwt>
<rscale>  0 0.41603334E+03</rscale>
<asrwt>0</asrwt>
<pdfrwt beam="1">  1        2 0.28150138E+00 0.41603334E+03</pdfrwt>
<pdfrwt beam="2">  1       -2 0.18334101E+00 0.41603334E+03</pdfrwt>
<totfact> 0.16137921E+00</totfact>
</mgrwt>
</event>
<event>
 4    1  0.4840632E-008  0.1144690E+04  0.7818608E-02  0.9162696E-01
         -2   -1    0    0    0  501 -0.00000000000E+00  0.00000000000E+00  0.67508926995E+03  0.67508926995E+03  0.25500000000E-02 0.  1.
          2   -1    0    0  501    0  0.00000000000E+00 -0.00000000000E+00 -0.26141622871E+04  0.26141622871E+04  0.25500000000E-02 0. -1.
    8880022    1    1    2    0    0 -0.11306276008E+04 -0.92762007767E+02 -0.13494011262E+03  0.11526161759E+04  0.15294330000E+03 0.  0.
    8880022    1    1    2    0    0  0.11306276008E+04  0.92762007767E+02 -0.18041329045E+04  0.21366353812E+04  0.15294330000E+03 0.  0.
<mgrwt>
<rscale>  0 0.11446900E+04</rscale>
<asrwt>0</asrwt>
<pdfrwt beam="1">  1        2 0.40217881E+00 0.11446900E+04</pdfrwt>
<pdfrwt beam="2">  1       -2 0.10385989E+00 0.11446900E+04</pdfrwt>
<totfact> 0.22324831E+00</totfact>
</mgrwt>
</event>
<event>
 4    1  0.4840632E-008  0.2062261E+03  0.7818608E-02  0.1144590E+00
          2   -1    0    0  501    0  0.00000000000E+00  0.00000000000E+00  0.25103911344E+04  0.25103911344E+04  0.25500000000E-02 0. -1.
         -2   -1    0    0    0  501 -0.00000000000E+00 -0.00000000000E+00 -0.46481373776E+03  0.46481373776E+03  0.25500000000E-02 0.  1.
    8880022    1    1    2    0    0 -0.64433479341E+02  0.12241676436E+03 -0.43745247793E+03  0.48362574468E+03  0.15294330000E+03 0.  0.
    8880022    1    1    2    0    0  0.64433479341E+02 -0.12241676436E+03  0.24830298745E+04  0.24915791274E+04  0.15294330000E+03 0. -1.
<mgrwt>
<rscale>  0 0.20622607E+03</rscale>
<asrwt>0</asrwt>
<pdfrwt beam="1">  1        2 0.38621402E+00 0.20622607E+03</pdfrwt>
<pdfrwt beam="2">  1       -2 0.71509806E-01 0.20622607E+03</pdfrwt>
<totfact> 0.76251237E+00</totfact>
</mgrwt>
</event>
<event>
 4    1  0.4840632E-008  0.1159161E+04  0.7818608E-02  0.9149373E-01
         -2   -1    0    0    0  501 -0.00000000000E+00  0.00000000000E+00  0.11219545224E+04  0.11219545224E+04  0.25500000000E-02 0.  1.
          2   -1    0    0  501    0  0.00000000000E+00 -0.00000000000E+00 -0.15315603468E+04  0.15315603468E+04  0.25500000000E-02 0. -1.
    8880022    1    1    2    0    0 -0.12019170000E+03 -0.11427236034E+04 -0.82434476803E+03  0.14223920796E+04  0.15294330000E+03 0.  0.
    8880022    1    1    2    0    0  0.12019170000E+03  0.11427236034E+04  0.41473894369E+03  0.12311227896E+04  0.15294330000E+03 0.  0.
<mgrwt>
<rscale>  0 0.11591613E+04</rscale>
<asrwt>0</asrwt>
<pdfrwt beam="1">  1        2 0.23562467E+00 0.11591613E+04</pdfrwt>
<pdfrwt beam="2">  1       -2 0.17260839E+00 0.11591613E+04</pdfrwt>
<totfact> 0.24259122E+00</totfact>
</mgrwt>
</event>
<event>
 4    1  0.4840632E-008  0.6671711E+03  0.7818608E-02  0.9775082E-01
          2   -1    0    0  501    0  0.00000000000E+00  0.00000000000E+00  0.15350919180E+04  0.15350919180E+04  0.25500000000E-02 0. -1.
         -2   -1    0    0    0  501 -0.00000000000E+00 -0.00000000000E+00 -0.35004910072E+03  0.35004910073E+03  0.25500000000E-02 0.  1.
    8880022    1    1    2    0    0 -0.64484258813E+03  0.76835154239E+02  0.98304070412E+03  0.11880598821E+04  0.15294330000E+03 0.  0.
    8880022    1    1    2    0    0  0.64484258813E+03 -0.76835154239E+02  0.20200211319E+03  0.69708113670E+03  0.15294330000E+03 0.  0.
<mgrwt>
<rscale>  0 0.66717109E+03</rscale>
<asrwt>0</asrwt>
<pdfrwt beam="1">  1        2 0.23616798E+00 0.66717109E+03</pdfrwt>
<pdfrwt beam="2">  1       -2 0.53853709E-01 0.66717109E+03</pdfrwt>
<totfact> 0.40690996E+01</totfact>
</mgrwt>
</event>
<event>
 4    1  0.4840632E-008  0.9684798E+03  0.7818608E-02  0.9343808E-01
         -2   -1    0    0    0  501 -0.00000000000E+00  0.00000000000E+00  0.13529343979E+04  0.13529343979E+04  0.25500000000E-02 0.  1.
          2   -1    0    0  501    0  0.00000000000E+00 -0.00000000000E+00 -0.71655050817E+03  0.71655050817E+03  0.25500000000E-02 0. -1.
    8880022    1    1    2    0    0 -0.92823775798E+03  0.23007842462E+03  0.50469066647E+03  0.10920923673E+04  0.15294330000E+03 0.  0.
    8880022    1    1    2    0    0  0.92823775798E+03 -0.23007842462E+03  0.13169322323E+03  0.97739253878E+03  0.15294330000E+03 0.  0.
<mgrwt>
<rscale>  0 0.96847977E+03</rscale>
<asrwt>0</asrwt>
<pdfrwt beam="1">  1        2 0.11023854E+00 0.96847977E+03</pdfrwt>
<pdfrwt beam="2">  1       -2 0.20814375E+00 0.96847977E+03</pdfrwt>
<totfact> 0.46675908E+00</totfact>
</mgrwt>
</event>
<event>
 4    1  0.4840632E-008  0.4949046E+03  0.7818608E-02  0.1015118E+00
         -2   -1    0    0    0  501 -0.00000000000E+00  0.00000000000E+00  0.49408696957E+03  0.49408696958E+03  0.25500000000E-02 0.  1.
          2   -1    0    0  501    0  0.00000000000E+00 -0.00000000000E+00 -0.10342009076E+04  0.10342009076E+04  0.25500000000E-02 0. -1.
    8880022    1    1    2    0    0 -0.27729048783E+03  0.38032734628E+03  0.28132991232E+03  0.56927768054E+03  0.15294330000E+03 0.  1.
    8880022    1    1    2    0    0  0.27729048783E+03 -0.38032734628E+03 -0.82144385034E+03  0.95901019664E+03  0.15294330000E+03 0.  0.
<mgrwt>
<rscale>  0 0.49490459E+03</rscale>
<asrwt>0</asrwt>
<pdfrwt beam="1">  1        2 0.15910783E+00 0.49490459E+03</pdfrwt>
<pdfrwt beam="2">  1       -2 0.76013380E-01 0.49490459E+03</pdfrwt>
<totfact> 0.38845389E+01</totfact>
</mgrwt>
</event>
<event>
 4    1  0.4840632E-008  0.4806632E+03  0.7818608E-02  0.1018953E+00
         -2   -1    0    0    0  501 -0.00000000000E+00  0.00000000000E+00  0.70433343844E+03  0.70433343845E+03  0.25500000000E-02 0.  1.
          2   -1    0    0  501    0  0.00000000000E+00 -0.00000000000E+00 -0.47837265051E+03  0.47837265052E+03  0.25500000000E-02 0. -1.
    8880022    1    1    2    0    0 -0.25280672520E+03  0.37912299432E+03 -0.21854420455E+03  0.52801392735E+03  0.15294330000E+03 0.  0.
    8880022    1    1    2    0    0  0.25280672520E+03 -0.37912299432E+03  0.44450499248E+03  0.65469216161E+03  0.15294330000E+03 0.  0.
<mgrwt>
<rscale>  0 0.48066323E+03</rscale>
<asrwt>0</asrwt>
<pdfrwt beam="1">  1        2 0.73595793E-01 0.48066323E+03</pdfrwt>
<pdfrwt beam="2">  1       -2 0.10835899E+00 0.48066323E+03</pdfrwt>
<totfact> 0.45704784E+01</totfact>
</mgrwt>
</event>
<event>
 4    1  0.4840632E-008  0.2035358E+03  0.7818608E-02  0.1146790E+00
         -2   -1    0    0    0  501 -0.00000000000E+00  0.00000000000E+00  0.41656239875E+03  0.41656239876E+03  0.25500000000E-02 0.  1.
          2   -1    0    0  501    0  0.00000000000E+00 -0.00000000000E+00 -0.58164981553E+03  0.58164981553E+03  0.25500000000E-02 0. -1.
    8880022    1    1    2    0    0  0.12835547450E+03  0.39497110439E+02  0.37189567423E+03  0.42394951951E+03  0.15294330000E+03 0.  0.
    8880022    1    1    2    0    0 -0.12835547450E+03 -0.39497110439E+02 -0.53698309101E+03  0.57426269478E+03  0.15294330000E+03 0. -1.
<mgrwt>
<rscale>  0 0.20353575E+03</rscale>
<asrwt>0</asrwt>
<pdfrwt beam="1">  1        2 0.89484587E-01 0.20353575E+03</pdfrwt>
<pdfrwt beam="2">  1       -2 0.64086523E-01 0.20353575E+03</pdfrwt>
<totfact> 0.12309453E+02</totfact>
</mgrwt>
</event>
<event>
 4    1  0.4840632E-008  0.5267587E+03  0.7818608E-02  0.1007021E+00
         -2   -1    0    0    0  501 -0.00000000000E+00  0.00000000000E+00  0.35577443421E+03  0.35577443422E+03  0.25500000000E-02 0.  1.
          2   -1    0    0  501    0  0.00000000000E+00 -0.00000000000E+00 -0.89697538680E+03  0.89697538680E+03  0.25500000000E-02 0. -1.
    8880022    1    1    2    0    0  0.21488907074E+03 -0.45596686467E+03 -0.49687946096E+03  0.72412978542E+03  0.15294330000E+03 0.  0.
    8880022    1    1    2    0    0 -0.21488907074E+03  0.45596686467E+03 -0.44321491623E+02  0.52862003560E+03  0.15294330000E+03 0.  0.
<mgrwt>
<rscale>  0 0.52675872E+03</rscale>
<asrwt>0</asrwt>
<pdfrwt beam="1">  1        2 0.13799621E+00 0.52675872E+03</pdfrwt>
<pdfrwt beam="2">  1       -2 0.54734529E-01 0.52675872E+03</pdfrwt>
<totfact> 0.95493969E+01</totfact>
</mgrwt>
</event>
<event>
 4    1  0.4840632E-008  0.3109303E+03  0.7818608E-02  0.1079901E+00
          2   -1    0    0  501    0  0.00000000000E+00  0.00000000000E+00  0.14847239292E+03  0.14847239294E+03  0.25500000000E-02 0. -1.
         -2   -1    0    0    0  501 -0.00000000000E+00 -0.00000000000E+00 -0.13790095392E+04  0.13790095392E+04  0.25500000000E-02 0.  1.
    8880022    1    1    2    0    0  0.17109081068E+03  0.20979495123E+03 -0.60404559856E+02  0.31674335182E+03  0.15294330000E+03 0.  0.
    8880022    1    1    2    0    0 -0.17109081068E+03 -0.20979495123E+03 -0.11701325865E+04  0.12107385804E+04  0.15294330000E+03 0.  0.
<mgrwt>
<rscale>  0 0.31093028E+03</rscale>
<asrwt>0</asrwt>
<pdfrwt beam="1">  1        2 0.22841907E-01 0.31093028E+03</pdfrwt>
<pdfrwt beam="2">  1       -2 0.21215531E+00 0.31093028E+03</pdfrwt>
<totfact> 0.28779520E+01</totfact>
</mgrwt>
</event>
<event>
 4    1  0.6213302E-008  0.6573678E+03  0.7818608E-02  0.9793051E-01
          2   -1    0    0  501    0  0.00000000000E+00  0.00000000000E+00  0.17289392402E+04  0.17289392402E+04  0.25500000000E-02 0. -1.
         -2   -1    0    0    0  501 -0.00000000000E+00 -0.00000000000E+00 -0.11494345795E+04  0.11494345795E+04  0.25500000000E-02 0.  1.
    8880022    1    1    2    0    0 -0.15434507588E+03  0.62041791042E+03  0.15628864455E+04  0.16955077353E+04  0.15294330000E+03 0.  0.
    8880022    1    1    2    0    0  0.15434507588E+03 -0.62041791042E+03 -0.98338178471E+03  0.11828660844E+04  0.15294330000E+03 0.  0.
<mgrwt>
<rscale>  0 0.65736781E+03</rscale>
<asrwt>0</asrwt>
<pdfrwt beam="1">  1        2 0.26599065E+00 0.65736781E+03</pdfrwt>
<pdfrwt beam="2">  1       -2 0.17683609E+00 0.65736781E+03</pdfrwt>
<totfact> 0.18977525E+00</totfact>
</mgrwt>
</event>
<event>
 4    1  0.4840632E-008  0.5803704E+03  0.7818608E-02  0.9946990E-01
          2   -1    0    0  501    0  0.00000000000E+00  0.00000000000E+00  0.18822038458E+04  0.18822038458E+04  0.25500000000E-02 0. -1.
         -2   -1    0    0    0  501 -0.00000000000E+00 -0.00000000000E+00 -0.69738924356E+03  0.69738924356E+03  0.25500000000E-02 0.  1.
    8880022    1    1    2    0    0 -0.28626402975E+03 -0.48113512632E+03  0.17044729704E+04  0.18005715383E+04  0.15294330000E+03 0.  0.
    8880022    1    1    2    0    0  0.28626402975E+03  0.48113512632E+03 -0.51965836816E+03  0.77902155112E+03  0.15294330000E+03 0.  1.
<mgrwt>
<rscale>  0 0.58037036E+03</rscale>
<asrwt>0</asrwt>
<pdfrwt beam="1">  1        2 0.28956982E+00 0.58037036E+03</pdfrwt>
<pdfrwt beam="2">  1       -2 0.10729065E+00 0.58037036E+03</pdfrwt>
<totfact> 0.57766113E+00</totfact>
</mgrwt>
</event>
<event>
 4    1  0.4840632E-008  0.3107400E+03  0.7818608E-02  0.1079992E+00
         -2   -1    0    0    0  501 -0.00000000000E+00  0.00000000000E+00  0.17151852171E+03  0.17151852173E+03  0.25500000000E-02 0.  1.
          2   -1    0    0  501    0  0.00000000000E+00 -0.00000000000E+00 -0.10755484472E+04  0.10755484472E+04  0.25500000000E-02 0. -1.
    8880022    1    1    2    0    0  0.56616414214E+02 -0.26450378998E+03 -0.88246830904E+03  0.93557984307E+03  0.15294330000E+03 0. -1.
    8880022    1    1    2    0    0 -0.56616414214E+02  0.26450378998E+03 -0.21561616462E+02  0.31148712588E+03  0.15294330000E+03 0.  0.
<mgrwt>
<rscale>  0 0.31073997E+03</rscale>
<asrwt>0</asrwt>
<pdfrwt beam="1">  1        2 0.16546899E+00 0.31073997E+03</pdfrwt>
<pdfrwt beam="2">  1       -2 0.26387466E-01 0.31073997E+03</pdfrwt>
<totfact> 0.30574074E+02</totfact>
</mgrwt>
</event>
<event>
 4    1  0.4840632E-008  0.4267576E+03  0.7818608E-02  0.1034889E+00
          2   -1    0    0  501    0  0.00000000000E+00  0.00000000000E+00  0.20412948632E+04  0.20412948632E+04  0.25500000000E-02 0. -1.
         -2   -1    0    0    0  501 -0.00000000000E+00 -0.00000000000E+00 -0.44273878673E+03  0.44273878673E+03  0.25500000000E-02 0.  1.
    8880022    1    1    2    0    0 -0.75790782822E+02 -0.39113441524E+03 -0.31056263116E+03  0.52779842216E+03  0.15294330000E+03 0.  0.
    8880022    1    1    2    0    0  0.75790782822E+02  0.39113441524E+03  0.19091187076E+04  0.19562352278E+04  0.15294330000E+03 0.  0.
<mgrwt>
<rscale>  0 0.42675757E+03</rscale>
<asrwt>0</asrwt>
<pdfrwt beam="1">  1        2 0.31404537E+00 0.42675757E+03</pdfrwt>
<pdfrwt beam="2">  1       -2 0.68113658E-01 0.42675757E+03</pdfrwt>
<totfact> 0.13799872E+01</totfact>
</mgrwt>
</event>
<event>
 4    1  0.4840632E-008  0.3749504E+03  0.7818608E-02  0.1052816E+00
         -2   -1    0    0    0  501 -0.00000000000E+00  0.00000000000E+00  0.14871846215E+03  0.14871846217E+03  0.25500000000E-02 0.  1.
          2   -1    0    0  501    0  0.00000000000E+00 -0.00000000000E+00 -0.12821805266E+04  0.12821805266E+04  0.25500000000E-02 0. -1.
    8880022    1    1    2    0    0 -0.23623701623E+03 -0.24776641604E+03 -0.93344214814E+03  0.10059334082E+04  0.15294330000E+03 0.  1.
    8880022    1    1    2    0    0  0.23623701623E+03  0.24776641604E+03 -0.20001991632E+03  0.42496558060E+03  0.15294330000E+03 0.  0.
<mgrwt>
<rscale>  0 0.37495037E+03</rscale>
<asrwt>0</asrwt>
<pdfrwt beam="1">  1        2 0.19725854E+00 0.37495037E+03</pdfrwt>
<pdfrwt beam="2">  1       -2 0.22879764E-01 0.37495037E+03</pdfrwt>
<totfact> 0.29666865E+02</totfact>
</mgrwt>
</event>
<event>
 4    1  0.4840632E-008  0.5293997E+03  0.7818608E-02  0.1006378E+00
         -2   -1    0    0    0  501 -0.00000000000E+00  0.00000000000E+00  0.50609916726E+03  0.50609916726E+03  0.25500000000E-02 0.  1.
          2   -1    0    0  501    0  0.00000000000E+00 -0.00000000000E+00 -0.75928475338E+03  0.75928475338E+03  0.25500000000E-02 0. -1.
    8880022    1    1    2    0    0 -0.25780263937E+03 -0.43636010253E+03 -0.45575384099E+03  0.69855247229E+03  0.15294330000E+03 0.  0.
    8880022    1    1    2    0    0  0.25780263937E+03  0.43636010253E+03  0.20256825487E+03  0.56683144835E+03  0.15294330000E+03 0.  0.
<mgrwt>
<rscale>  0 0.52939965E+03</rscale>
<asrwt>0</asrwt>
<pdfrwt beam="1">  1        2 0.11681304E+00 0.52939965E+03</pdfrwt>
<pdfrwt beam="2">  1       -2 0.77861410E-01 0.52939965E+03</pdfrwt>
<totfact> 0.56020803E+01</totfact>
</mgrwt>
</event>
<event>
 4    1  0.4840632E-008  0.1486394E+04  0.7818608E-02  0.8893551E-01
          2   -1    0    0  501    0  0.00000000000E+00  0.00000000000E+00  0.34964177061E+04  0.34964177061E+04  0.25500000000E-02 0. -1.
         -2   -1    0    0    0  501 -0.00000000000E+00 -0.00000000000E+00 -0.86016101513E+03  0.86016101513E+03  0.25500000000E-02 0.  1.
    8880022    1    1    2    0    0 -0.99599497896E+03  0.10926895036E+04  0.24402670866E+04  0.28573189280E+04  0.15294330000E+03 0.  0.
    8880022    1    1    2    0    0  0.99599497896E+03 -0.10926895036E+04  0.19598960434E+03  0.14992597932E+04  0.15294330000E+03 0.  0.
<mgrwt>
<rscale>  0 0.14863943E+04</rscale>
<asrwt>0</asrwt>
<pdfrwt beam="1">  1        2 0.53791042E+00 0.14863943E+04</pdfrwt>
<pdfrwt beam="2">  1       -2 0.13233246E+00 0.14863943E+04</pdfrwt>
<totfact> 0.32498960E-01</totfact>
</mgrwt>
</event>
<event>
 4    1  0.4840632E-008  0.2799093E+03  0.7818608E-02  0.1095738E+00
         -2   -1    0    0    0  501 -0.00000000000E+00  0.00000000000E+00  0.69599442776E+03  0.69599442776E+03  0.25500000000E-02 0.  1.
          2   -1    0    0  501    0  0.00000000000E+00 -0.00000000000E+00 -0.48143139433E+03  0.48143139434E+03  0.25500000000E-02 0. -1.
    8880022    1    1    2    0    0  0.22375514236E+03 -0.69937123689E+02  0.62258966138E+03  0.68261783193E+03  0.15294330000E+03 0.  1.
    8880022    1    1    2    0    0 -0.22375514236E+03  0.69937123689E+02 -0.40802662795E+03  0.49480799017E+03  0.15294330000E+03 0.  0.
<mgrwt>
<rscale>  0 0.27990930E+03</rscale>
<asrwt>0</asrwt>
<pdfrwt beam="1">  1        2 0.74066368E-01 0.27990930E+03</pdfrwt>
<pdfrwt beam="2">  1       -2 0.10707607E+00 0.27990930E+03</pdfrwt>
<totfact> 0.47940870E+01</totfact>
</mgrwt>
</event>
<event>
 4    1  0.6433825E-008  0.5162540E+03  0.7818608E-02  0.1009621E+00
         -2   -1    0    0    0  501 -0.00000000000E+00  0.00000000000E+00  0.81128242672E+03  0.81128242673E+03  0.25500000000E-02 0.  1.
          2   -1    0    0  501    0  0.00000000000E+00 -0.00000000000E+00 -0.29950630993E+04  0.29950630993E+04  0.25500000000E-02 0. -1.
    8880022    1    1    2    0    0 -0.42770962007E+03  0.24533866467E+03  0.70387654577E+03  0.87290344493E+03  0.15294330000E+03 0.  0.
    8880022    1    1    2    0    0  0.42770962007E+03 -0.24533866467E+03 -0.28876572183E+04  0.29334420811E+04  0.15294330000E+03 0.  0.
<mgrwt>
<rscale>  0 0.51625404E+03</rscale>
<asrwt>0</asrwt>
<pdfrwt beam="1">  1        2 0.46077893E+00 0.51625404E+03</pdfrwt>
<pdfrwt beam="2">  1       -2 0.12481268E+00 0.51625404E+03</pdfrwt>
<totfact> 0.96169597E-01</totfact>
</mgrwt>
</event>
<event>
 4    1  0.4840632E-008  0.4598297E+03  0.7818608E-02  0.1024831E+00
          2   -1    0    0  501    0  0.00000000000E+00  0.00000000000E+00  0.12979189691E+04  0.12979189691E+04  0.25500000000E-02 0. -1.
         -2   -1    0    0    0  501 -0.00000000000E+00 -0.00000000000E+00 -0.59589075610E+03  0.59589075611E+03  0.25500000000E-02 0.  1.
    8880022    1    1    2    0    0 -0.15602879931E+03  0.40460684553E+03  0.11581702699E+04  0.12461146467E+04  0.15294330000E+03 0.  0.
    8880022    1    1    2    0    0  0.15602879931E+03 -0.40460684553E+03 -0.45614205688E+03  0.64769507852E+03  0.15294330000E+03 0.  0.
<mgrwt>
<rscale>  0 0.45982968E+03</rscale>
<asrwt>0</asrwt>
<pdfrwt beam="1">  1        2 0.19967984E+00 0.45982968E+03</pdfrwt>
<pdfrwt beam="2">  1       -2 0.91675502E-01 0.45982968E+03</pdfrwt>
<totfact> 0.17900882E+01</totfact>
</mgrwt>
</event>
<event>
 4    1  0.4840632E-008  0.8329404E+03  0.7818608E-02  0.9513524E-01
          2   -1    0    0  501    0  0.00000000000E+00  0.00000000000E+00  0.28918308317E+04  0.28918308318E+04  0.25500000000E-02 0. -1.
         -2   -1    0    0    0  501 -0.00000000000E+00 -0.00000000000E+00 -0.30941683716E+03  0.30941683717E+03  0.25500000000E-02 0.  1.
    8880022    1    1    2    0    0  0.60954170506E+03 -0.54667815067E+03  0.53259516803E+03  0.98865937343E+03  0.15294330000E+03 0.  0.
    8880022    1    1    2    0    0 -0.60954170506E+03  0.54667815067E+03  0.20498188266E+04  0.22125882955E+04  0.15294330000E+03 0.  0.
<mgrwt>
<rscale>  0 0.83294042E+03</rscale>
<asrwt>0</asrwt>
<pdfrwt beam="1">  1        2 0.44489706E+00 0.83294042E+03</pdfrwt>
<pdfrwt beam="2">  1       -2 0.47602589E-01 0.83294042E+03</pdfrwt>
<totfact> 0.88873541E+00</totfact>
</mgrwt>
</event>
<event>
 4    1  0.4840632E-008  0.7946159E+03  0.7818608E-02  0.9567843E-01
          2   -1    0    0  501    0  0.00000000000E+00  0.00000000000E+00  0.99018031567E+03  0.99018031568E+03  0.25500000000E-02 0. -1.
         -2   -1    0    0    0  501 -0.00000000000E+00 -0.00000000000E+00 -0.14226321471E+04  0.14226321471E+04  0.25500000000E-02 0.  1.
    8880022    1    1    2    0    0 -0.82039999294E+02  0.77543031802E+03  0.67990180656E+03  0.10457919770E+04  0.15294330000E+03 0. -1.
    8880022    1    1    2    0    0  0.82039999294E+02 -0.77543031802E+03 -0.11123536380E+04  0.13670204858E+04  0.15294330000E+03 0.  0.
<mgrwt>
<rscale>  0 0.79461588E+03</rscale>
<asrwt>0</asrwt>
<pdfrwt beam="1">  1        2 0.15233543E+00 0.79461588E+03</pdfrwt>
<pdfrwt beam="2">  1       -2 0.21886648E+00 0.79461588E+03</pdfrwt>
<totfact> 0.26207962E+00</totfact>
</mgrwt>
</event>
<event>
 4    1  0.4840632E-008  0.2205665E+03  0.7818608E-02  0.1133461E+00
         -2   -1    0    0    0  501 -0.00000000000E+00  0.00000000000E+00  0.34701534369E+03  0.34701534370E+03  0.25500000000E-02 0.  1.
          2   -1    0    0  501    0  0.00000000000E+00 -0.00000000000E+00 -0.60161795402E+03  0.60161795403E+03  0.25500000000E-02 0. -1.
    8880022    1    1    2    0    0  0.14138631994E+03  0.72579718364E+02  0.28809049539E+03  0.36283011663E+03  0.15294330000E+03 0.  1.
    8880022    1    1    2    0    0 -0.14138631994E+03 -0.72579718364E+02 -0.54269310572E+03  0.58580318110E+03  0.15294330000E+03 0.  0.
<mgrwt>
<rscale>  0 0.22056645E+03</rscale>
<asrwt>0</asrwt>
<pdfrwt beam="1">  1        2 0.92556608E-01 0.22056645E+03</pdfrwt>
<pdfrwt beam="2">  1       -2 0.53386976E-01 0.22056645E+03</pdfrwt>
<totfact> 0.17202301E+02</totfact>
</mgrwt>
</event>
<event>
 4    1  0.4840632E-008  0.8532289E+03  0.7818608E-02  0.9486013E-01
         -2   -1    0    0    0  501 -0.00000000000E+00  0.00000000000E+00  0.35116568527E+03  0.35116568527E+03  0.25500000000E-02 0.  1.
          2   -1    0    0  501    0  0.00000000000E+00 -0.00000000000E+00 -0.21752868779E+04  0.21752868779E+04  0.25500000000E-02 0. -1.
    8880022    1    1    2    0    0  0.83310240481E+03 -0.10270470429E+03 -0.63826094637E+03  0.10655405022E+04  0.15294330000E+03 0.  0.
    8880022    1    1    2    0    0 -0.83310240481E+03  0.10270470429E+03 -0.11858602463E+04  0.14609120610E+04  0.15294330000E+03 0.  0.
<mgrwt>
<rscale>  0 0.85322888E+03</rscale>
<asrwt>0</asrwt>
<pdfrwt beam="1">  1        2 0.33465951E+00 0.85322888E+03</pdfrwt>
<pdfrwt beam="2">  1       -2 0.54025492E-01 0.85322888E+03</pdfrwt>
<totfact> 0.17613995E+01</totfact>
</mgrwt>
</event>
<event>
 4    1  0.4840632E-008  0.6242675E+03  0.7818608E-02  0.9856300E-01
         -2   -1    0    0    0  501 -0.00000000000E+00  0.00000000000E+00  0.18837857191E+04  0.18837857191E+04  0.25500000000E-02 0.  1.
          2   -1    0    0  501    0  0.00000000000E+00 -0.00000000000E+00 -0.42301971442E+03  0.42301971443E+03  0.25500000000E-02 0. -1.
    8880022    1    1    2    0    0  0.27509666219E+03 -0.53911044634E+03 -0.94081675008E+02  0.63131708474E+03  0.15294330000E+03 0.  0.
    8880022    1    1    2    0    0 -0.27509666219E+03  0.53911044634E+03  0.15548476797E+04  0.16754883488E+04  0.15294330000E+03 0.  1.
<mgrwt>
<rscale>  0 0.62426749E+03</rscale>
<asrwt>0</asrwt>
<pdfrwt beam="1">  1        2 0.65079957E-01 0.62426749E+03</pdfrwt>
<pdfrwt beam="2">  1       -2 0.28981318E+00 0.62426749E+03</pdfrwt>
<totfact> 0.29003278E+00</totfact>
</mgrwt>
</event>
<event>
 4    1  0.4840632E-008  0.7570774E+03  0.7818608E-02  0.9624312E-01
         -2   -1    0    0    0  501 -0.00000000000E+00  0.00000000000E+00  0.31319656869E+03  0.31319656870E+03  0.25500000000E-02 0.  1.
          2   -1    0    0  501    0  0.00000000000E+00 -0.00000000000E+00 -0.24307737447E+04  0.24307737447E+04  0.25500000000E-02 0. -1.
    8880022    1    1    2    0    0  0.82499831268E+02 -0.73686378963E+03 -0.17408346264E+04  0.18983338263E+04  0.15294330000E+03 0.  0.
    8880022    1    1    2    0    0 -0.82499831268E+02  0.73686378963E+03 -0.37674254965E+03  0.84563648712E+03  0.15294330000E+03 0.  0.
<mgrwt>
<rscale>  0 0.75707735E+03</rscale>
<asrwt>0</asrwt>
<pdfrwt beam="1">  1        2 0.37396518E+00 0.75707735E+03</pdfrwt>
<pdfrwt beam="2">  1       -2 0.48184089E-01 0.75707735E+03</pdfrwt>
<totfact> 0.16257088E+01</totfact>
</mgrwt>
</event>
<event>
 4    1  0.4840632E-008  0.3820018E+03  0.7818608E-02  0.1050196E+00
         -2   -1    0    0    0  501 -0.00000000000E+00  0.00000000000E+00  0.55914100853E+03  0.55914100854E+03  0.25500000000E-02 0.  1.
          2   -1    0    0  501    0  0.00000000000E+00 -0.00000000000E+00 -0.10799382603E+04  0.10799382603E+04  0.25500000000E-02 0. -1.
    8880022    1    1    2    0    0  0.15860574584E+03  0.31205441283E+03 -0.97407450008E+03  0.10463013543E+04  0.15294330000E+03 0.  0.
    8880022    1    1    2    0    0 -0.15860574584E+03 -0.31205441283E+03  0.45327724831E+03  0.59277791460E+03  0.15294330000E+03 0.  1.
<mgrwt>
<rscale>  0 0.38200182E+03</rscale>
<asrwt>0</asrwt>
<pdfrwt beam="1">  1        2 0.16614435E+00 0.38200182E+03</pdfrwt>
<pdfrwt beam="2">  1       -2 0.86021693E-01 0.38200182E+03</pdfrwt>
<totfact> 0.28159301E+01</totfact>
</mgrwt>
</event>
<event>
 4    1  0.4840632E-008  0.1887024E+03  0.7818608E-02  0.1159637E+00
         -2   -1    0    0    0  501 -0.00000000000E+00  0.00000000000E+00  0.78142260089E+03  0.78142260090E+03  0.25500000000E-02 0.  1.
          2   -1    0    0  501    0  0.00000000000E+00 -0.00000000000E+00 -0.11420989491E+04  0.11420989491E+04  0.25500000000E-02 0. -1.
    8880022    1    1    2    0    0 -0.76116312847E+02 -0.80145172080E+02  0.76204051555E+03  0.78505690370E+03  0.15294330000E+03 0.  0.
    8880022    1    1    2    0    0  0.76116312847E+02  0.80145172080E+02 -0.11227168638E+04  0.11384646463E+04  0.15294330000E+03 0. -1.
<mgrwt>
<rscale>  0 0.18870240E+03</rscale>
<asrwt>0</asrwt>
<pdfrwt beam="1">  1        2 0.17570753E+00 0.18870240E+03</pdfrwt>
<pdfrwt beam="2">  1       -2 0.12021886E+00 0.18870240E+03</pdfrwt>
<totfact> 0.12568926E+01</totfact>
</mgrwt>
</event>
<event>
 4    1  0.4840632E-008  0.1993101E+03  0.7818608E-02  0.1150322E+00
          2   -1    0    0  501    0  0.00000000000E+00  0.00000000000E+00  0.13616224209E+04  0.13616224209E+04  0.25500000000E-02 0. -1.
         -2   -1    0    0    0  501 -0.00000000000E+00 -0.00000000000E+00 -0.54139866756E+02  0.54139866816E+02  0.25500000000E-02 0.  1.
    8880022    1    1    2    0    0 -0.11504162004E+02 -0.12728122128E+03  0.11344385475E+04  0.11518139286E+04  0.15294330000E+03 0. -1.
    8880022    1    1    2    0    0  0.11504162004E+02  0.12728122128E+03  0.17304400664E+03  0.26394835913E+03  0.15294330000E+03 0.  0.
<mgrwt>
<rscale>  0 0.19931008E+03</rscale>
<asrwt>0</asrwt>
<pdfrwt beam="1">  1        2 0.20948035E+00 0.19931008E+03</pdfrwt>
<pdfrwt beam="2">  1       -2 0.83292111E-02 0.19931008E+03</pdfrwt>
<totfact> 0.14445684E+03</totfact>
</mgrwt>
</event>
<event>
 4    1  0.4840632E-008  0.2933740E+03  0.7818608E-02  0.1088601E+00
         -2   -1    0    0    0  501 -0.00000000000E+00  0.00000000000E+00  0.13222852117E+03  0.13222852120E+03  0.25500000000E-02 0.  1.
          2   -1    0    0  501    0  0.00000000000E+00 -0.00000000000E+00 -0.14111382703E+04  0.14111382703E+04  0.25500000000E-02 0. -1.
    8880022    1    1    2    0    0  0.10312025347E+03  0.22812902598E+03 -0.73049169048E+02  0.30233172722E+03  0.15294330000E+03 0.  0.
    8880022    1    1    2    0    0 -0.10312025347E+03 -0.22812902598E+03 -0.12058605800E+04  0.12410350642E+04  0.15294330000E+03 0.  0.
<mgrwt>
<rscale>  0 0.29337398E+03</rscale>
<asrwt>0</asrwt>
<pdfrwt beam="1">  1        2 0.21709818E+00 0.29337398E+03</pdfrwt>
<pdfrwt beam="2">  1       -2 0.20342850E-01 0.29337398E+03</pdfrwt>
<totfact> 0.31213531E+02</totfact>
</mgrwt>
</event>
<event>
 4    1  0.4840632E-008  0.9979374E+03  0.7818608E-02  0.9310810E-01
         -2   -1    0    0    0  501 -0.00000000000E+00  0.00000000000E+00  0.15086544106E+04  0.15086544106E+04  0.25500000000E-02 0.  1.
          2   -1    0    0  501    0  0.00000000000E+00 -0.00000000000E+00 -0.73726586285E+03  0.73726586285E+03  0.25500000000E-02 0. -1.
    8880022    1    1    2    0    0  0.28456212547E+03  0.94419903633E+03  0.74896841068E+03  0.12477310434E+04  0.15294330000E+03 0.  0.
    8880022    1    1    2    0    0 -0.28456212547E+03 -0.94419903633E+03  0.22420137088E+02  0.99818923007E+03  0.15294330000E+03 0.  0.
<mgrwt>
<rscale>  0 0.99793741E+03</rscale>
<asrwt>0</asrwt>
<pdfrwt beam="1">  1        2 0.11342552E+00 0.99793741E+03</pdfrwt>
<pdfrwt beam="2">  1       -2 0.23210067E+00 0.99793741E+03</pdfrwt>
<totfact> 0.31679625E+00</totfact>
</mgrwt>
</event>
<event>
 4    1  0.4840632E-008  0.6690011E+03  0.7818608E-02  0.9771764E-01
          2   -1    0    0  501    0  0.00000000000E+00  0.00000000000E+00  0.24204146643E+04  0.24204146643E+04  0.25500000000E-02 0. -1.
         -2   -1    0    0    0  501 -0.00000000000E+00 -0.00000000000E+00 -0.41164008168E+03  0.41164008168E+03  0.25500000000E-02 0.  1.
    8880022    1    1    2    0    0  0.65026604269E+03  0.36398327309E+02 -0.46523838667E+02  0.67061679451E+03  0.15294330000E+03 0. -1.
    8880022    1    1    2    0    0 -0.65026604269E+03 -0.36398327309E+02  0.20552984213E+04  0.21614379515E+04  0.15294330000E+03 0.  0.
<mgrwt>
<rscale>  0 0.66900106E+03</rscale>
<asrwt>0</asrwt>
<pdfrwt beam="1">  1        2 0.37237148E+00 0.66900106E+03</pdfrwt>
<pdfrwt beam="2">  1       -2 0.63329244E-01 0.66900106E+03</pdfrwt>
<totfact> 0.94831533E+00</totfact>
</mgrwt>
</event>
<event>
 4    1  0.4840632E-008  0.3844003E+03  0.7818608E-02  0.1049319E+00
         -2   -1    0    0    0  501 -0.00000000000E+00  0.00000000000E+00  0.22845352098E+03  0.22845352099E+03  0.25500000000E-02 0.  1.
          2   -1    0    0  501    0  0.00000000000E+00 -0.00000000000E+00 -0.86060357950E+03  0.86060357951E+03  0.25500000000E-02 0. -1.
    8880022    1    1    2    0    0  0.15995383285E+03 -0.31430351210E+03 -0.44664139015E+02  0.38698638825E+03  0.15294330000E+03 0.  0.
    8880022    1    1    2    0    0 -0.15995383285E+03  0.31430351210E+03 -0.58748591951E+03  0.70207071225E+03  0.15294330000E+03 0.  0.
<mgrwt>
<rscale>  0 0.38440029E+03</rscale>
<asrwt>0</asrwt>
<pdfrwt beam="1">  1        2 0.13240055E+00 0.38440029E+03</pdfrwt>
<pdfrwt beam="2">  1       -2 0.35146696E-01 0.38440029E+03</pdfrwt>
<totfact> 0.24508972E+02</totfact>
</mgrwt>
</event>
<event>
 4    1  0.4840632E-008  0.2316096E+03  0.7818608E-02  0.1125512E+00
          2   -1    0    0  501    0  0.00000000000E+00  0.00000000000E+00  0.13921468785E+04  0.13921468785E+04  0.25500000000E-02 0. -1.
         -2   -1    0    0    0  501 -0.00000000000E+00 -0.00000000000E+00 -0.14280719983E+03  0.14280719985E+03  0.25500000000E-02 0.  1.
    8880022    1    1    2    0    0 -0.15263930737E+03  0.83382129599E+02 -0.31142641532E+02  0.23369393408E+03  0.15294330000E+03 0.  0.
    8880022    1    1    2    0    0  0.15263930737E+03 -0.83382129599E+02  0.12804823202E+04  0.13012601443E+04  0.15294330000E+03 0. -1.
<mgrwt>
<rscale>  0 0.23160957E+03</rscale>
<asrwt>0</asrwt>
<pdfrwt beam="1">  1        2 0.21417644E+00 0.23160957E+03</pdfrwt>
<pdfrwt beam="2">  1       -2 0.21970339E-01 0.23160957E+03</pdfrwt>
<totfact> 0.28278989E+02</totfact>
</mgrwt>
</event>
<event>
 4    1  0.4840632E-008  0.2223079E+03  0.7818608E-02  0.1132174E+00
         -2   -1    0    0    0  501 -0.00000000000E+00  0.00000000000E+00  0.79306785545E+03  0.79306785546E+03  0.25500000000E-02 0.  1.
          2   -1    0    0  501    0  0.00000000000E+00 -0.00000000000E+00 -0.79665724845E+02  0.79665724885E+02  0.25500000000E-02 0. -1.
    8880022    1    1    2    0    0 -0.15519608340E+03  0.44082914030E+02  0.56034092864E+03  0.60282894501E+03  0.15294330000E+03 0.  0.
    8880022    1    1    2    0    0  0.15519608340E+03 -0.44082914030E+02  0.15306120196E+03  0.26990463533E+03  0.15294330000E+03 0. -1.
<mgrwt>
<rscale>  0 0.22230785E+03</rscale>
<asrwt>0</asrwt>
<pdfrwt beam="1">  1        2 0.12256266E-01 0.22230785E+03</pdfrwt>
<pdfrwt beam="2">  1       -2 0.12201044E+00 0.22230785E+03</pdfrwt>
<totfact> 0.26568673E+02</totfact>
</mgrwt>
</event>
<event>
 4    1  0.5428112E-008  0.6204453E+03  0.7818608E-02  0.9863873E-01
          2   -1    0    0  501    0  0.00000000000E+00  0.00000000000E+00  0.94782630741E+03  0.94782630741E+03  0.25500000000E-02 0. -1.
         -2   -1    0    0    0  501 -0.00000000000E+00 -0.00000000000E+00 -0.20482515662E+04  0.20482515662E+04  0.25500000000E-02 0.  1.
    8880022    1    1    2    0    0  0.23125451619E+03  0.55505144200E+03 -0.18915328527E+04  0.19906905687E+04  0.15294330000E+03 0.  0.
    8880022    1    1    2    0    0 -0.23125451619E+03 -0.55505144200E+03  0.79110759396E+03  0.10053873048E+04  0.15294330000E+03 0.  0.
<mgrwt>
<rscale>  0 0.62044533E+03</rscale>
<asrwt>0</asrwt>
<pdfrwt beam="1">  1        2 0.14581943E+00 0.62044533E+03</pdfrwt>
<pdfrwt beam="2">  1       -2 0.31511562E+00 0.62044533E+03</pdfrwt>
<totfact> 0.75483965E-01</totfact>
</mgrwt>
</event>
<event>
 4    1  0.4840632E-008  0.6474237E+03  0.7818608E-02  0.9811625E-01
         -2   -1    0    0    0  501 -0.00000000000E+00  0.00000000000E+00  0.31634117319E+03  0.31634117320E+03  0.25500000000E-02 0.  1.
          2   -1    0    0  501    0  0.00000000000E+00 -0.00000000000E+00 -0.30525021957E+04  0.30525021957E+04  0.25500000000E-02 0. -1.
    8880022    1    1    2    0    0  0.56045763648E+03  0.28575001181E+03 -0.26352361997E+04  0.27136004335E+04  0.15294330000E+03 0.  0.
    8880022    1    1    2    0    0 -0.56045763648E+03 -0.28575001181E+03 -0.10092482285E+03  0.65524293543E+03  0.15294330000E+03 0.  0.
<mgrwt>
<rscale>  0 0.64742373E+03</rscale>
<asrwt>0</asrwt>
<pdfrwt beam="1">  1        2 0.46961570E+00 0.64742373E+03</pdfrwt>
<pdfrwt beam="2">  1       -2 0.48667875E-01 0.64742373E+03</pdfrwt>
<totfact> 0.70262970E+00</totfact>
</mgrwt>
</event>
<event>
 4    1  0.4840632E-008  0.7878049E+03  0.7818608E-02  0.9577839E-01
         -2   -1    0    0    0  501 -0.00000000000E+00  0.00000000000E+00  0.27893491689E+03  0.27893491690E+03  0.25500000000E-02 0.  1.
          2   -1    0    0  501    0  0.00000000000E+00 -0.00000000000E+00 -0.31649623234E+04  0.31649623234E+04  0.25500000000E-02 0. -1.
    8880022    1    1    2    0    0 -0.39423488822E+03  0.66469823638E+03 -0.50461829104E+03  0.93556195156E+03  0.15294330000E+03 0.  0.
    8880022    1    1    2    0    0  0.39423488822E+03 -0.66469823638E+03 -0.23814091155E+04  0.25083352888E+04  0.15294330000E+03 0.  0.
<mgrwt>
<rscale>  0 0.78780489E+03</rscale>
<asrwt>0</asrwt>
<pdfrwt beam="1">  1        2 0.48691726E+00 0.78780489E+03</pdfrwt>
<pdfrwt beam="2">  1       -2 0.42913066E-01 0.78780489E+03</pdfrwt>
<totfact> 0.74759039E+00</totfact>
</mgrwt>
</event>
<event>
 4    1  0.4840632E-008  0.4525863E+03  0.7818608E-02  0.1026954E+00
          2   -1    0    0  501    0  0.00000000000E+00  0.00000000000E+00  0.12271415546E+04  0.12271415546E+04  0.25500000000E-02 0. -1.
         -2   -1    0    0    0  501 -0.00000000000E+00 -0.00000000000E+00 -0.63115027253E+03  0.63115027253E+03  0.25500000000E-02 0.  1.
    8880022    1    1    2    0    0 -0.79726513756E+01 -0.42588630361E+03 -0.49886853718E+03  0.67357566552E+03  0.15294330000E+03 0.  0.
    8880022    1    1    2    0    0  0.79726513756E+01  0.42588630361E+03  0.10948598192E+04  0.11847161616E+04  0.15294330000E+03 0.  0.
<mgrwt>
<rscale>  0 0.45258630E+03</rscale>
<asrwt>0</asrwt>
<pdfrwt beam="1">  1        2 0.18879101E+00 0.45258630E+03</pdfrwt>
<pdfrwt beam="2">  1       -2 0.97100042E-01 0.45258630E+03</pdfrwt>
<totfact> 0.17224331E+01</totfact>
</mgrwt>
</event>
<event>
 4    1  0.4840632E-008  0.8853254E+03  0.7818608E-02  0.9444114E-01
          2   -1    0    0  501    0  0.00000000000E+00  0.00000000000E+00  0.18113326301E+04  0.18113326301E+04  0.25500000000E-02 0. -1.
         -2   -1    0    0    0  501 -0.00000000000E+00 -0.00000000000E+00 -0.45572411057E+03  0.45572411057E+03  0.25500000000E-02 0.  1.
    8880022    1    1    2    0    0  0.43487244949E+03  0.75584077976E+03  0.42313400030E+03  0.98124582389E+03  0.15294330000E+03 0.  0.
    8880022    1    1    2    0    0 -0.43487244949E+03 -0.75584077976E+03  0.93247451918E+03  0.12858109167E+04  0.15294330000E+03 0.  0.
<mgrwt>
<rscale>  0 0.88532536E+03</rscale>
<asrwt>0</asrwt>
<pdfrwt beam="1">  1        2 0.27866656E+00 0.88532536E+03</pdfrwt>
<pdfrwt beam="2">  1       -2 0.70111401E-01 0.88532536E+03</pdfrwt>
<totfact> 0.15960907E+01</totfact>
</mgrwt>
</event>
<event>
 4    1  0.4840632E-008  0.7697042E+03  0.7818608E-02  0.9604935E-01
          2   -1    0    0  501    0  0.00000000000E+00  0.00000000000E+00  0.15358738787E+04  0.15358738787E+04  0.25500000000E-02 0. -1.
         -2   -1    0    0    0  501 -0.00000000000E+00 -0.00000000000E+00 -0.92206379143E+03  0.92206379143E+03  0.25500000000E-02 0.  1.
    8880022    1    1    2    0    0 -0.71124446197E+03 -0.25136475656E+03  0.12441968415E+04  0.14630346404E+04  0.15294330000E+03 0.  0.
    8880022    1    1    2    0    0  0.71124446197E+03  0.25136475656E+03 -0.63038675429E+03  0.99490302971E+03  0.15294330000E+03 0.  0.
<mgrwt>
<rscale>  0 0.76970421E+03</rscale>
<asrwt>0</asrwt>
<pdfrwt beam="1">  1        2 0.23628829E+00 0.76970421E+03</pdfrwt>
<pdfrwt beam="2">  1       -2 0.14185597E+00 0.76970421E+03</pdfrwt>
<totfact> 0.43043488E+00</totfact>
</mgrwt>
</event>
<event>
 4    1  0.4840632E-008  0.5456197E+03  0.7818608E-02  0.1002513E+00
         -2   -1    0    0    0  501 -0.00000000000E+00  0.00000000000E+00  0.52217514404E+03  0.52217514404E+03  0.25500000000E-02 0.  1.
          2   -1    0    0  501    0  0.00000000000E+00 -0.00000000000E+00 -0.41752320358E+04  0.41752320358E+04  0.25500000000E-02 0. -1.
    8880022    1    1    2    0    0  0.42676931799E+03  0.30360689217E+03 -0.40089943927E+04  0.40459531497E+04  0.15294330000E+03 0.  0.
    8880022    1    1    2    0    0 -0.42676931799E+03 -0.30360689217E+03  0.35593750097E+03  0.65145403012E+03  0.15294330000E+03 0.  0.
<mgrwt>
<rscale>  0 0.54561969E+03</rscale>
<asrwt>0</asrwt>
<pdfrwt beam="1">  1        2 0.64234337E+00 0.54561969E+03</pdfrwt>
<pdfrwt beam="2">  1       -2 0.80334640E-01 0.54561969E+03</pdfrwt>
<totfact> 0.40178713E-01</totfact>
</mgrwt>
</event>
<event>
 4    1  0.4840632E-008  0.4781139E+03  0.7818608E-02  0.1019655E+00
         -2   -1    0    0    0  501 -0.00000000000E+00  0.00000000000E+00  0.62719071303E+03  0.62719071304E+03  0.25500000000E-02 0.  1.
          2   -1    0    0  501    0  0.00000000000E+00 -0.00000000000E+00 -0.10741728151E+04  0.10741728151E+04  0.25500000000E-02 0. -1.
    8880022    1    1    2    0    0  0.30575134643E+03  0.33424153711E+03  0.46797035513E+03  0.66902107386E+03  0.15294330000E+03 0.  0.
    8880022    1    1    2    0    0 -0.30575134643E+03 -0.33424153711E+03 -0.91495245721E+03  0.10323424543E+04  0.15294330000E+03 0.  0.
<mgrwt>
<rscale>  0 0.47811394E+03</rscale>
<asrwt>0</asrwt>
<pdfrwt beam="1">  1        2 0.16525736E+00 0.47811394E+03</pdfrwt>
<pdfrwt beam="2">  1       -2 0.96490879E-01 0.47811394E+03</pdfrwt>
<totfact> 0.21427846E+01</totfact>
</mgrwt>
</event>
<event>
 4    1  0.4840632E-008  0.9705835E+03  0.7818608E-02  0.9341410E-01
          2   -1    0    0  501    0  0.00000000000E+00  0.00000000000E+00  0.24486153757E+04  0.24486153757E+04  0.25500000000E-02 0. -1.
         -2   -1    0    0    0  501 -0.00000000000E+00 -0.00000000000E+00 -0.65945909889E+03  0.65945909890E+03  0.25500000000E-02 0.  1.
    8880022    1    1    2    0    0 -0.74664858854E+03 -0.60096304175E+03 -0.10848296172E+03  0.97662730779E+03  0.15294330000E+03 0.  0.
    8880022    1    1    2    0    0  0.74664858854E+03  0.60096304175E+03  0.18976392386E+04  0.21314471669E+04  0.15294330000E+03 0.  0.
<mgrwt>
<rscale>  0 0.97058351E+03</rscale>
<asrwt>0</asrwt>
<pdfrwt beam="1">  1        2 0.37671005E+00 0.97058351E+03</pdfrwt>
<pdfrwt beam="2">  1       -2 0.10145525E+00 0.97058351E+03</pdfrwt>
<totfact> 0.30098339E+00</totfact>
</mgrwt>
</event>
<event>
 4    1  0.4840632E-008  0.9306076E+03  0.7818608E-02  0.9388109E-01
         -2   -1    0    0    0  501 -0.00000000000E+00  0.00000000000E+00  0.21452671155E+04  0.21452671155E+04  0.25500000000E-02 0.  1.
          2   -1    0    0  501    0  0.00000000000E+00 -0.00000000000E+00 -0.74051709663E+03  0.74051709664E+03  0.25500000000E-02 0. -1.
    8880022    1    1    2    0    0 -0.21804467830E+03 -0.89168125132E+03  0.16754974943E+04  0.19165913603E+04  0.15294330000E+03 0.  1.
    8880022    1    1    2    0    0  0.21804467830E+03  0.89168125132E+03 -0.27074747546E+03  0.96919285190E+03  0.15294330000E+03 0.  0.
<mgrwt>
<rscale>  0 0.93060764E+03</rscale>
<asrwt>0</asrwt>
<pdfrwt beam="1">  1        2 0.11392571E+00 0.93060764E+03</pdfrwt>
<pdfrwt beam="2">  1       -2 0.33004109E+00 0.93060764E+03</pdfrwt>
<totfact> 0.80654029E-01</totfact>
</mgrwt>
</event>
<event>
 4    1  0.4840632E-008  0.3374986E+03  0.7818608E-02  0.1067866E+00
          2   -1    0    0  501    0  0.00000000000E+00  0.00000000000E+00  0.12505476516E+04  0.12505476516E+04  0.25500000000E-02 0. -1.
         -2   -1    0    0    0  501 -0.00000000000E+00 -0.00000000000E+00 -0.11009250803E+03  0.11009250806E+03  0.25500000000E-02 0.  1.
    8880022    1    1    2    0    0 -0.29473462921E+03 -0.60374850141E+02  0.85291390636E+03  0.91726081834E+03  0.15294330000E+03 0. -1.
    8880022    1    1    2    0    0  0.29473462921E+03  0.60374850141E+02  0.28754123716E+03  0.44337934127E+03  0.15294330000E+03 0.  0.
<mgrwt>
<rscale>  0 0.33749856E+03</rscale>
<asrwt>0</asrwt>
<pdfrwt beam="1">  1        2 0.19239194E+00 0.33749856E+03</pdfrwt>
<pdfrwt beam="2">  1       -2 0.16937309E-01 0.33749856E+03</pdfrwt>
<totfact> 0.52116935E+02</totfact>
</mgrwt>
</event>
<event>
 4    1  0.4840632E-008  0.4710605E+03  0.7818608E-02  0.1021621E+00
          2   -1    0    0  501    0  0.00000000000E+00  0.00000000000E+00  0.53513958488E+03  0.53513958489E+03  0.25500000000E-02 0. -1.
         -2   -1    0    0    0  501 -0.00000000000E+00 -0.00000000000E+00 -0.13078514879E+04  0.13078514879E+04  0.25500000000E-02 0.  1.
    8880022    1    1    2    0    0 -0.41400514653E+03  0.16463924952E+03  0.37517518280E+03  0.60220794966E+03  0.15294330000E+03 0. -1.
    8880022    1    1    2    0    0  0.41400514653E+03 -0.16463924952E+03 -0.11478870858E+04  0.12407831231E+04  0.15294330000E+03 0.  0.
<mgrwt>
<rscale>  0 0.47106050E+03</rscale>
<asrwt>0</asrwt>
<pdfrwt beam="1">  1        2 0.82329168E-01 0.47106050E+03</pdfrwt>
<pdfrwt beam="2">  1       -2 0.20120792E+00 0.47106050E+03</pdfrwt>
<totfact> 0.78827551E+00</totfact>
</mgrwt>
</event>
<event>
 4    1  0.4840632E-008  0.2429797E+03  0.7818608E-02  0.1117824E+00
          2   -1    0    0  501    0  0.00000000000E+00  0.00000000000E+00  0.84708823245E+03  0.84708823245E+03  0.25500000000E-02 0. -1.
         -2   -1    0    0    0  501 -0.00000000000E+00 -0.00000000000E+00 -0.12382909845E+03  0.12382909847E+03  0.25500000000E-02 0.  1.
    8880022    1    1    2    0    0  0.18820485177E+03 -0.15046428406E+02  0.68260382299E+03  0.72455993086E+03  0.15294330000E+03 0. -1.
    8880022    1    1    2    0    0 -0.18820485177E+03  0.15046428406E+02  0.40655311005E+02  0.24635740006E+03  0.15294330000E+03 0.  0.
<mgrwt>
<rscale>  0 0.24297966E+03</rscale>
<asrwt>0</asrwt>
<pdfrwt beam="1">  1        2 0.13032127E+00 0.24297966E+03</pdfrwt>
<pdfrwt beam="2">  1       -2 0.19050630E-01 0.24297966E+03</pdfrwt>
<totfact> 0.75607402E+02</totfact>
</mgrwt>
</event>
<event>
 4    1  0.4840632E-008  0.4906228E+03  0.7818608E-02  0.1016256E+00
         -2   -1    0    0    0  501 -0.00000000000E+00  0.00000000000E+00  0.69264166445E+03  0.69264166446E+03  0.25500000000E-02 0.  1.
          2   -1    0    0  501    0  0.00000000000E+00 -0.00000000000E+00 -0.41582569090E+03  0.41582569090E+03  0.25500000000E-02 0. -1.
    8880022    1    1    2    0    0  0.44839476591E+03 -0.12751957802E+03  0.36302759003E+03  0.61032761121E+03  0.15294330000E+03 0.  0.
    8880022    1    1    2    0    0 -0.44839476591E+03  0.12751957802E+03 -0.86211616472E+02  0.49813974415E+03  0.15294330000E+03 0.  0.
<mgrwt>
<rscale>  0 0.49062283E+03</rscale>
<asrwt>0</asrwt>
<pdfrwt beam="1">  1        2 0.63973184E-01 0.49062283E+03</pdfrwt>
<pdfrwt beam="2">  1       -2 0.10656025E+00 0.49062283E+03</pdfrwt>
<totfact> 0.55659754E+01</totfact>
</mgrwt>
</event>
<event>
 4    1  0.4840632E-008  0.1681910E+03  0.7818608E-02  0.1179748E+00
          2   -1    0    0  501    0  0.00000000000E+00  0.00000000000E+00  0.16828316551E+04  0.16828316551E+04  0.25500000000E-02 0. -1.
         -2   -1    0    0    0  501 -0.00000000000E+00 -0.00000000000E+00 -0.68966342065E+02  0.68966342113E+02  0.25500000000E-02 0.  1.
    8880022    1    1    2    0    0 -0.33015088775E+02  0.61697446066E+02  0.45223051066E+02  0.17416471600E+03  0.15294330000E+03 0.  0.
    8880022    1    1    2    0    0  0.33015088775E+02 -0.61697446066E+02  0.15686422620E+04  0.15776332812E+04  0.15294330000E+03 0. -1.
<mgrwt>
<rscale>  0 0.16819103E+03</rscale>
<asrwt>0</asrwt>
<pdfrwt beam="1">  1        2 0.25889717E+00 0.16819103E+03</pdfrwt>
<pdfrwt beam="2">  1       -2 0.10610207E-01 0.16819103E+03</pdfrwt>
<totfact> 0.67025595E+02</totfact>
</mgrwt>
</event>
<event>
 4    1  0.4840632E-008  0.9108758E+03  0.7818608E-02  0.9412087E-01
         -2   -1    0    0    0  501 -0.00000000000E+00  0.00000000000E+00  0.32293129699E+03  0.32293129700E+03  0.25500000000E-02 0.  1.
          2   -1    0    0  501    0  0.00000000000E+00 -0.00000000000E+00 -0.26545691246E+04  0.26545691246E+04  0.25500000000E-02 0. -1.
    8880022    1    1    2    0    0  0.88358448449E+03  0.15994207219E+03 -0.14327019746E+04  0.16977425036E+04  0.15294330000E+03 0.  0.
    8880022    1    1    2    0    0 -0.88358448449E+03 -0.15994207219E+03 -0.89893585301E+03  0.12797579179E+04  0.15294330000E+03 0.  0.
<mgrwt>
<rscale>  0 0.91087577E+03</rscale>
<asrwt>0</asrwt>
<pdfrwt beam="1">  1        2 0.40839524E+00 0.91087577E+03</pdfrwt>
<pdfrwt beam="2">  1       -2 0.49681740E-01 0.91087577E+03</pdfrwt>
<totfact> 0.11127730E+01</totfact>
</mgrwt>
</event>
<event>
 4    1  0.4840632E-008  0.8229859E+03  0.7818608E-02  0.9527329E-01
          2   -1    0    0  501    0  0.00000000000E+00  0.00000000000E+00  0.34256404283E+04  0.34256404283E+04  0.25500000000E-02 0. -1.
         -2   -1    0    0    0  501 -0.00000000000E+00 -0.00000000000E+00 -0.45886169870E+03  0.45886169871E+03  0.25500000000E-02 0.  1.
    8880022    1    1    2    0    0  0.80788758766E+03 -0.35097274518E+02  0.29486181439E+04  0.30613158584E+04  0.15294330000E+03 0.  0.
    8880022    1    1    2    0    0 -0.80788758766E+03  0.35097274518E+02  0.18160585668E+02  0.82318626863E+03  0.15294330000E+03 0.  0.
<mgrwt>
<rscale>  0 0.82298592E+03</rscale>
<asrwt>0</asrwt>
<pdfrwt beam="1">  1        2 0.52702159E+00 0.82298592E+03</pdfrwt>
<pdfrwt beam="2">  1       -2 0.70594110E-01 0.82298592E+03</pdfrwt>
<totfact> 0.17839480E+00</totfact>
</mgrwt>
</event>
<event>
 4    1  0.4840632E-008  0.1663140E+03  0.7818608E-02  0.1181747E+00
         -2   -1    0    0    0  501 -0.00000000000E+00  0.00000000000E+00  0.91180313151E+03  0.91180313151E+03  0.25500000000E-02 0.  1.
          2   -1    0    0  501    0  0.00000000000E+00 -0.00000000000E+00 -0.92222569659E+02  0.92222569694E+02  0.25500000000E-02 0. -1.
    8880022    1    1    2    0    0  0.19375902952E+02  0.62395935786E+02 -0.14493154232E+01  0.16632026920E+03  0.15294330000E+03 0. -1.
    8880022    1    1    2    0    0 -0.19375902952E+02 -0.62395935786E+02  0.82102987728E+03  0.83770543201E+03  0.15294330000E+03 0.  0.
<mgrwt>
<rscale>  0 0.16631395E+03</rscale>
<asrwt>0</asrwt>
<pdfrwt beam="1">  1        2 0.14188088E-01 0.16631395E+03</pdfrwt>
<pdfrwt beam="2">  1       -2 0.14027740E+00 0.16631395E+03</pdfrwt>
<totfact> 0.15775550E+02</totfact>
</mgrwt>
</event>
<event>
 4    1  0.4840632E-008  0.4496846E+03  0.7818608E-02  0.1027816E+00
         -2   -1    0    0    0  501 -0.00000000000E+00  0.00000000000E+00  0.46252971390E+03  0.46252971391E+03  0.25500000000E-02 0.  1.
          2   -1    0    0  501    0  0.00000000000E+00 -0.00000000000E+00 -0.24303519917E+04  0.24303519917E+04  0.25500000000E-02 0. -1.
    8880022    1    1    2    0    0  0.72544176308E+02 -0.41660764280E+03  0.32598454833E+03  0.55541170704E+03  0.15294330000E+03 0.  1.
    8880022    1    1    2    0    0 -0.72544176308E+02  0.41660764280E+03 -0.22938068262E+04  0.23374699986E+04  0.15294330000E+03 0.  0.
<mgrwt>
<rscale>  0 0.44968460E+03</rscale>
<asrwt>0</asrwt>
<pdfrwt beam="1">  1        2 0.37390030E+00 0.44968460E+03</pdfrwt>
<pdfrwt beam="2">  1       -2 0.71158419E-01 0.44968460E+03</pdfrwt>
<totfact> 0.76656207E+00</totfact>
</mgrwt>
</event>
<event>
 4    1  0.4840632E-008  0.4663208E+03  0.7818608E-02  0.1022964E+00
         -2   -1    0    0    0  501 -0.00000000000E+00  0.00000000000E+00  0.17107357134E+04  0.17107357134E+04  0.25500000000E-02 0.  1.
          2   -1    0    0  501    0  0.00000000000E+00 -0.00000000000E+00 -0.62709926116E+03  0.62709926117E+03  0.25500000000E-02 0. -1.
    8880022    1    1    2    0    0 -0.38710629780E+03  0.21026683051E+03 -0.50192860659E+03  0.68511853349E+03  0.15294330000E+03 0.  0.
    8880022    1    1    2    0    0  0.38710629780E+03 -0.21026683051E+03  0.15855650588E+04  0.16527164410E+04  0.15294330000E+03 0.  0.
<mgrwt>
<rscale>  0 0.46632079E+03</rscale>
<asrwt>0</asrwt>
<pdfrwt beam="1">  1        2 0.96476810E-01 0.46632079E+03</pdfrwt>
<pdfrwt beam="2">  1       -2 0.26319011E+00 0.46632079E+03</pdfrwt>
<totfact> 0.27344506E+00</totfact>
</mgrwt>
</event>
<event>
 4    1  0.4840632E-008  0.5086757E+03  0.7818608E-02  0.1011539E+00
         -2   -1    0    0    0  501 -0.00000000000E+00  0.00000000000E+00  0.21395595874E+03  0.21395595875E+03  0.25500000000E-02 0.  1.
          2   -1    0    0  501    0  0.00000000000E+00 -0.00000000000E+00 -0.18040323121E+04  0.18040323121E+04  0.25500000000E-02 0. -1.
    8880022    1    1    2    0    0 -0.45730310772E+03 -0.16196656013E+03 -0.13743379280E+04  0.14654540908E+04  0.15294330000E+03 0. -1.
    8880022    1    1    2    0    0  0.45730310772E+03  0.16196656013E+03 -0.21573842538E+03  0.55253418006E+03  0.15294330000E+03 0.  0.
<mgrwt>
<rscale>  0 0.50867568E+03</rscale>
<asrwt>0</asrwt>
<pdfrwt beam="1">  1        2 0.27754342E+00 0.50867568E+03</pdfrwt>
<pdfrwt beam="2">  1       -2 0.32916303E-01 0.50867568E+03</pdfrwt>
<totfact> 0.78069307E+01</totfact>
</mgrwt>
</event>
<event>
 4    1  0.4840632E-008  0.2838774E+03  0.7818608E-02  0.1093590E+00
         -2   -1    0    0    0  501 -0.00000000000E+00  0.00000000000E+00  0.13370023223E+03  0.13370023226E+03  0.25500000000E-02 0.  1.
          2   -1    0    0  501    0  0.00000000000E+00 -0.00000000000E+00 -0.88899982450E+03  0.88899982450E+03  0.25500000000E-02 0. -1.
    8880022    1    1    2    0    0  0.85786368293E+02 -0.22323843106E+03 -0.66781702821E+03  0.72564863004E+03  0.15294330000E+03 0.  0.
    8880022    1    1    2    0    0 -0.85786368293E+02  0.22323843106E+03 -0.87482564056E+02  0.29705142672E+03  0.15294330000E+03 0. -1.
<mgrwt>
<rscale>  0 0.28387735E+03</rscale>
<asrwt>0</asrwt>
<pdfrwt beam="1">  1        2 0.13676920E+00 0.28387735E+03</pdfrwt>
<pdfrwt beam="2">  1       -2 0.20569267E-01 0.28387735E+03</pdfrwt>
<totfact> 0.62064818E+02</totfact>
</mgrwt>
</event>
<event>
 4    1  0.4840632E-008  0.2168439E+03  0.7818608E-02  0.1136258E+00
          2   -1    0    0  501    0  0.00000000000E+00  0.00000000000E+00  0.58932468706E+03  0.58932468706E+03  0.25500000000E-02 0. -1.
         -2   -1    0    0    0  501 -0.00000000000E+00 -0.00000000000E+00 -0.15091631786E+03  0.15091631789E+03  0.25500000000E-02 0.  1.
    8880022    1    1    2    0    0 -0.14803179739E+03  0.41427097529E+02 -0.34890223954E+02  0.21963287138E+03  0.15294330000E+03 0.  0.
    8880022    1    1    2    0    0  0.14803179739E+03 -0.41427097529E+02  0.47329859315E+03  0.52060813357E+03  0.15294330000E+03 0. -1.
<mgrwt>
<rscale>  0 0.21684389E+03</rscale>
<asrwt>0</asrwt>
<pdfrwt beam="1">  1        2 0.90665337E-01 0.21684389E+03</pdfrwt>
<pdfrwt beam="2">  1       -2 0.23217895E-01 0.21684389E+03</pdfrwt>
<totfact> 0.83745857E+02</totfact>
</mgrwt>
</event>
<event>
 4    1  0.4840632E-008  0.4773962E+03  0.7818608E-02  0.1019853E+00
         -2   -1    0    0    0  501 -0.00000000000E+00  0.00000000000E+00  0.14829950689E+04  0.14829950689E+04  0.25500000000E-02 0.  1.
          2   -1    0    0  501    0  0.00000000000E+00 -0.00000000000E+00 -0.92520387720E+03  0.92520387721E+03  0.25500000000E-02 0. -1.
    8880022    1    1    2    0    0  0.33153266887E+03 -0.30757364764E+03 -0.82066267152E+03  0.94941789150E+03  0.15294330000E+03 0.  0.
    8880022    1    1    2    0    0 -0.33153266887E+03  0.30757364764E+03  0.13784538633E+04  0.14587810546E+04  0.15294330000E+03 0.  0.
<mgrwt>
<rscale>  0 0.47739618E+03</rscale>
<asrwt>0</asrwt>
<pdfrwt beam="1">  1        2 0.14233906E+00 0.47739618E+03</pdfrwt>
<pdfrwt beam="2">  1       -2 0.22815309E+00 0.47739618E+03</pdfrwt>
<totfact> 0.26858208E+00</totfact>
</mgrwt>
</event>
<event>
 4    1  0.4887815E-008  0.5720235E+03  0.7818608E-02  0.9965211E-01
         -2   -1    0    0    0  501 -0.00000000000E+00  0.00000000000E+00  0.14009267561E+04  0.14009267561E+04  0.25500000000E-02 0.  1.
          2   -1    0    0  501    0  0.00000000000E+00 -0.00000000000E+00 -0.14706782910E+04  0.14706782910E+04  0.25500000000E-02 0. -1.
    8880022    1    1    2    0    0  0.51469602863E+03  0.19724923323E+03 -0.13517374917E+04  0.14677892087E+04  0.15294330000E+03 0.  0.
    8880022    1    1    2    0    0 -0.51469602863E+03 -0.19724923323E+03  0.12819859567E+04  0.14038158384E+04  0.15294330000E+03 0.  0.
<mgrwt>
<rscale>  0 0.57202353E+03</rscale>
<asrwt>0</asrwt>
<pdfrwt beam="1">  1        2 0.22625820E+00 0.57202353E+03</pdfrwt>
<pdfrwt beam="2">  1       -2 0.21552719E+00 0.57202353E+03</pdfrwt>
<totfact> 0.14951045E+00</totfact>
</mgrwt>
</event>
<event>
 4    1  0.4840632E-008  0.1154824E+04  0.7818608E-02  0.9153345E-01
         -2   -1    0    0    0  501 -0.00000000000E+00  0.00000000000E+00  0.27276623901E+04  0.27276623901E+04  0.25500000000E-02 0.  1.
          2   -1    0    0  501    0  0.00000000000E+00 -0.00000000000E+00 -0.10188849423E+04  0.10188849423E+04  0.25500000000E-02 0. -1.
    8880022    1    1    2    0    0 -0.10553917673E+04 -0.44314245488E+03  0.22054054580E+04  0.24894641803E+04  0.15294330000E+03 0.  0.
    8880022    1    1    2    0    0  0.10553917673E+04  0.44314245488E+03 -0.49662801016E+03  0.12570831521E+04  0.15294330000E+03 0.  0.
<mgrwt>
<rscale>  0 0.11548241E+04</rscale>
<asrwt>0</asrwt>
<pdfrwt beam="1">  1        2 0.15675153E+00 0.11548241E+04</pdfrwt>
<pdfrwt beam="2">  1       -2 0.41964036E+00 0.11548241E+04</pdfrwt>
<totfact> 0.13406581E-01</totfact>
</mgrwt>
</event>
<event>
 4    1  0.4840632E-008  0.1287081E+04  0.7818608E-02  0.9039873E-01
         -2   -1    0    0    0  501 -0.00000000000E+00  0.00000000000E+00  0.10406754092E+04  0.10406754092E+04  0.25500000000E-02 0.  1.
          2   -1    0    0  501    0  0.00000000000E+00 -0.00000000000E+00 -0.29044051406E+04  0.29044051406E+04  0.25500000000E-02 0. -1.
    8880022    1    1    2    0    0 -0.12600897357E+04  0.21297935740E+03 -0.22579134051E+04  0.25989903706E+04  0.15294330000E+03 0.  0.
    8880022    1    1    2    0    0  0.12600897357E+04 -0.21297935740E+03  0.39418367363E+03  0.13460901791E+04  0.15294330000E+03 0.  0.
<mgrwt>
<rscale>  0 0.12870812E+04</rscale>
<asrwt>0</asrwt>
<pdfrwt beam="1">  1        2 0.44683155E+00 0.12870812E+04</pdfrwt>
<pdfrwt beam="2">  1       -2 0.16010391E+00 0.12870812E+04</pdfrwt>
<totfact> 0.48735155E-01</totfact>
</mgrwt>
</event>
<event>
 4    1  0.4840632E-008  0.3414186E+03  0.7818608E-02  0.1066193E+00
          2   -1    0    0  501    0  0.00000000000E+00  0.00000000000E+00  0.33041984363E+04  0.33041984363E+04  0.25500000000E-02 0. -1.
         -2   -1    0    0    0  501 -0.00000000000E+00 -0.00000000000E+00 -0.61868621397E+02  0.61868621450E+02  0.25500000000E-02 0.  1.
    8880022    1    1    2    0    0  0.88861223924E+02 -0.29202511246E+03  0.51780038921E+03  0.62022889283E+03  0.15294330000E+03 0.  1.
    8880022    1    1    2    0    0 -0.88861223924E+02  0.29202511246E+03  0.27245294257E+04  0.27458381649E+04  0.15294330000E+03 0.  0.
<mgrwt>
<rscale>  0 0.34141856E+03</rscale>
<asrwt>0</asrwt>
<pdfrwt beam="1">  1        2 0.50833820E+00 0.34141856E+03</pdfrwt>
<pdfrwt beam="2">  1       -2 0.95182498E-02 0.34141856E+03</pdfrwt>
<totfact> 0.95344834E+01</totfact>
</mgrwt>
</event>
<event>
 4    1  0.4840632E-008  0.1600547E+03  0.7818608E-02  0.1188635E+00
          2   -1    0    0  501    0  0.00000000000E+00  0.00000000000E+00  0.10624298783E+04  0.10624298783E+04  0.25500000000E-02 0. -1.
         -2   -1    0    0    0  501 -0.00000000000E+00 -0.00000000000E+00 -0.78920349405E+02  0.78920349447E+02  0.25500000000E-02 0.  1.
    8880022    1    1    2    0    0  0.31974712421E+02  0.34691257916E+02  0.96732757289E+03  0.98047955201E+03  0.15294330000E+03 0.  0.
    8880022    1    1    2    0    0 -0.31974712421E+02 -0.34691257916E+02  0.16181956041E+02  0.16087067578E+03  0.15294330000E+03 0.  1.
<mgrwt>
<rscale>  0 0.16005474E+03</rscale>
<asrwt>0</asrwt>
<pdfrwt beam="1">  1        2 0.16345076E+00 0.16005474E+03</pdfrwt>
<pdfrwt beam="2">  1       -2 0.12141592E-01 0.16005474E+03</pdfrwt>
<totfact> 0.11713036E+03</totfact>
</mgrwt>
</event>
<event>
 4    1  0.4840632E-008  0.3248044E+03  0.7818608E-02  0.1073459E+00
          2   -1    0    0  501    0  0.00000000000E+00  0.00000000000E+00  0.14895226032E+04  0.14895226032E+04  0.25500000000E-02 0. -1.
         -2   -1    0    0    0  501 -0.00000000000E+00 -0.00000000000E+00 -0.10351093168E+03  0.10351093171E+03  0.25500000000E-02 0.  1.
    8880022    1    1    2    0    0  0.74302636501E+02  0.27674059147E+03  0.11405864978E+04  0.11859323120E+04  0.15294330000E+03 0.  0.
    8880022    1    1    2    0    0 -0.74302636501E+02 -0.27674059147E+03  0.24542517374E+03  0.40710122289E+03  0.15294330000E+03 0.  0.
<mgrwt>
<rscale>  0 0.32480439E+03</rscale>
<asrwt>0</asrwt>
<pdfrwt beam="1">  1        2 0.22915731E+00 0.32480439E+03</pdfrwt>
<pdfrwt beam="2">  1       -2 0.15924760E-01 0.32480439E+03</pdfrwt>
<totfact> 0.42717684E+02</totfact>
</mgrwt>
</event>
<event>
 4    1  0.4840632E-008  0.1011857E+04  0.7818608E-02  0.9295635E-01
          2   -1    0    0  501    0  0.00000000000E+00  0.00000000000E+00  0.47148535330E+04  0.47148535330E+04  0.25500000000E-02 0. -1.
         -2   -1    0    0    0  501 -0.00000000000E+00 -0.00000000000E+00 -0.33814315081E+03  0.33814315082E+03  0.25500000000E-02 0.  1.
    8880022    1    1    2    0    0 -0.73331195095E+03  0.68023280017E+03  0.36996175579E+04  0.38354953797E+04  0.15294330000E+03 0.  0.
    8880022    1    1    2    0    0  0.73331195095E+03 -0.68023280017E+03  0.67709282427E+03  0.12175013041E+04  0.15294330000E+03 0.  0.
<mgrwt>
<rscale>  0 0.10118571E+04</rscale>
<asrwt>0</asrwt>
<pdfrwt beam="1">  1        2 0.72536206E+00 0.10118571E+04</pdfrwt>
<pdfrwt beam="2">  1       -2 0.52022025E-01 0.10118571E+04</pdfrwt>
<totfact> 0.27990745E-01</totfact>
</mgrwt>
</event>
<event>
 4    1  0.4840632E-008  0.2483921E+03  0.7818608E-02  0.1114325E+00
         -2   -1    0    0    0  501 -0.00000000000E+00  0.00000000000E+00  0.38878026135E+03  0.38878026136E+03  0.25500000000E-02 0.  1.
          2   -1    0    0  501    0  0.00000000000E+00 -0.00000000000E+00 -0.83435530221E+03  0.83435530221E+03  0.25500000000E-02 0. -1.
    8880022    1    1    2    0    0 -0.78000625947E+02  0.17950739719E+03  0.32755404540E+03  0.41108430883E+03  0.15294330000E+03 0.  0.
    8880022    1    1    2    0    0  0.78000625947E+02 -0.17950739719E+03 -0.77312908626E+03  0.81205125474E+03  0.15294330000E+03 0.  0.
<mgrwt>
<rscale>  0 0.24839214E+03</rscale>
<asrwt>0</asrwt>
<pdfrwt beam="1">  1        2 0.12836235E+00 0.24839214E+03</pdfrwt>
<pdfrwt beam="2">  1       -2 0.59812348E-01 0.24839214E+03</pdfrwt>
<totfact> 0.90989031E+01</totfact>
</mgrwt>
</event>
<event>
 4    1  0.4840632E-008  0.2139600E+03  0.7818608E-02  0.1138468E+00
         -2   -1    0    0    0  501 -0.00000000000E+00  0.00000000000E+00  0.21721321812E+03  0.21721321814E+03  0.25500000000E-02 0.  1.
          2   -1    0    0  501    0  0.00000000000E+00 -0.00000000000E+00 -0.13131835318E+04  0.13131835318E+04  0.25500000000E-02 0. -1.
    8880022    1    1    2    0    0 -0.14740549783E+03  0.25668057363E+02  0.15312530346E+03  0.26310880171E+03  0.15294330000E+03 0.  0.
    8880022    1    1    2    0    0  0.14740549783E+03 -0.25668057363E+02 -0.12490956172E+04  0.12672879483E+04  0.15294330000E+03 0.  0.
<mgrwt>
<rscale>  0 0.21396000E+03</rscale>
<asrwt>0</asrwt>
<pdfrwt beam="1">  1        2 0.20202823E+00 0.21396000E+03</pdfrwt>
<pdfrwt beam="2">  1       -2 0.33417419E-01 0.21396000E+03</pdfrwt>
<totfact> 0.14808932E+02</totfact>
</mgrwt>
</event>
<event>
 4    1  0.4840632E-008  0.6839508E+03  0.7818608E-02  0.9745079E-01
          2   -1    0    0  501    0  0.00000000000E+00  0.00000000000E+00  0.21867147418E+04  0.21867147418E+04  0.25500000000E-02 0. -1.
         -2   -1    0    0    0  501 -0.00000000000E+00 -0.00000000000E+00 -0.36569209257E+03  0.36569209258E+03  0.25500000000E-02 0.  1.
    8880022    1    1    2    0    0  0.58129826051E+03  0.32632709479E+03  0.88356307512E+02  0.68963434554E+03  0.15294330000E+03 0.  0.
    8880022    1    1    2    0    0 -0.58129826051E+03 -0.32632709479E+03  0.17326663417E+04  0.18627724888E+04  0.15294330000E+03 0.  0.
<mgrwt>
<rscale>  0 0.68395080E+03</rscale>
<asrwt>0</asrwt>
<pdfrwt beam="1">  1        2 0.33641765E+00 0.68395080E+03</pdfrwt>
<pdfrwt beam="2">  1       -2 0.56260322E-01 0.68395080E+03</pdfrwt>
<totfact> 0.16352689E+01</totfact>
</mgrwt>
</event>
<event>
 4    1  0.4840632E-008  0.2958121E+03  0.7818608E-02  0.1087353E+00
         -2   -1    0    0    0  501 -0.00000000000E+00  0.00000000000E+00  0.14636775118E+03  0.14636775121E+03  0.25500000000E-02 0.  1.
          2   -1    0    0  501    0  0.00000000000E+00 -0.00000000000E+00 -0.12148358450E+04  0.12148358450E+04  0.25500000000E-02 0. -1.
    8880022    1    1    2    0    0  0.93051322340E+02 -0.23548804894E+03 -0.49197316071E+02  0.29987530527E+03  0.15294330000E+03 0.  0.
    8880022    1    1    2    0    0 -0.93051322340E+02  0.23548804894E+03 -0.10192707778E+04  0.10613282910E+04  0.15294330000E+03 0.  0.
<mgrwt>
<rscale>  0 0.29581214E+03</rscale>
<asrwt>0</asrwt>
<pdfrwt beam="1">  1        2 0.18689782E+00 0.29581214E+03</pdfrwt>
<pdfrwt beam="2">  1       -2 0.22518116E-01 0.29581214E+03</pdfrwt>
<totfact> 0.33633322E+02</totfact>
</mgrwt>
</event>
<event>
 4    1  0.4840632E-008  0.8169573E+03  0.7818608E-02  0.9535791E-01
          2   -1    0    0  501    0  0.00000000000E+00  0.00000000000E+00  0.33271130482E+04  0.33271130482E+04  0.25500000000E-02 0. -1.
         -2   -1    0    0    0  501 -0.00000000000E+00 -0.00000000000E+00 -0.54845298551E+03  0.54845298552E+03  0.25500000000E-02 0.  1.
    8880022    1    1    2    0    0  0.45403164794E+03  0.66172713950E+03  0.29325692457E+04  0.30442374379E+04  0.15294330000E+03 0.  0.
    8880022    1    1    2    0    0 -0.45403164794E+03 -0.66172713950E+03 -0.15390918307E+03  0.83132859576E+03  0.15294330000E+03 0.  0.
<mgrwt>
<rscale>  0 0.81695728E+03</rscale>
<asrwt>0</asrwt>
<pdfrwt beam="1">  1        2 0.51186353E+00 0.81695728E+03</pdfrwt>
<pdfrwt beam="2">  1       -2 0.84377384E-01 0.81695728E+03</pdfrwt>
<totfact> 0.13941588E+00</totfact>
</mgrwt>
</event>
<event>
 4    1  0.4840632E-008  0.4498734E+03  0.7818608E-02  0.1027760E+00
         -2   -1    0    0    0  501 -0.00000000000E+00  0.00000000000E+00  0.15893872980E+03  0.15893872982E+03  0.25500000000E-02 0.  1.
          2   -1    0    0  501    0  0.00000000000E+00 -0.00000000000E+00 -0.17609983171E+04  0.17609983171E+04  0.25500000000E-02 0. -1.
    8880022    1    1    2    0    0  0.31377756989E+03 -0.28379220528E+03 -0.13061874779E+04  0.13814889647E+04  0.15294330000E+03 0. -1.
    8880022    1    1    2    0    0 -0.31377756989E+03  0.28379220528E+03 -0.29587210947E+03  0.53844808229E+03  0.15294330000E+03 0.  0.
<mgrwt>
<rscale>  0 0.44987335E+03</rscale>
<asrwt>0</asrwt>
<pdfrwt beam="1">  1        2 0.27092280E+00 0.44987335E+03</pdfrwt>
<pdfrwt beam="2">  1       -2 0.24452114E-01 0.44987335E+03</pdfrwt>
<totfact> 0.14299387E+02</totfact>
</mgrwt>
</event>
<event>
 4    1  0.4840632E-008  0.7776625E+03  0.7818608E-02  0.9592925E-01
          2   -1    0    0  501    0  0.00000000000E+00  0.00000000000E+00  0.14616078732E+04  0.14616078732E+04  0.25500000000E-02 0. -1.
         -2   -1    0    0    0  501 -0.00000000000E+00 -0.00000000000E+00 -0.61568997817E+03  0.61568997817E+03  0.25500000000E-02 0.  1.
    8880022    1    1    2    0    0  0.53793340196E+03 -0.54036553592E+03  0.10177784004E+04  0.12808714934E+04  0.15294330000E+03 0.  0.
    8880022    1    1    2    0    0 -0.53793340196E+03  0.54036553592E+03 -0.17186050534E+03  0.79642635797E+03  0.15294330000E+03 0.  0.
<mgrwt>
<rscale>  0 0.77766247E+03</rscale>
<asrwt>0</asrwt>
<pdfrwt beam="1">  1        2 0.22486275E+00 0.77766247E+03</pdfrwt>
<pdfrwt beam="2">  1       -2 0.94721536E-01 0.77766247E+03</pdfrwt>
<totfact> 0.12776553E+01</totfact>
</mgrwt>
</event>
<event>
 4    1  0.4840632E-008  0.4171332E+03  0.7818608E-02  0.1038003E+00
         -2   -1    0    0    0  501 -0.00000000000E+00  0.00000000000E+00  0.29363998461E+03  0.29363998462E+03  0.25500000000E-02 0.  1.
          2   -1    0    0  501    0  0.00000000000E+00 -0.00000000000E+00 -0.15085339791E+04  0.15085339791E+04  0.25500000000E-02 0. -1.
    8880022    1    1    2    0    0  0.38788238144E+03  0.12477590046E+02 -0.13095973346E+04  0.13744254305E+04  0.15294330000E+03 0.  0.
    8880022    1    1    2    0    0 -0.38788238144E+03 -0.12477590046E+02  0.94703340092E+02  0.42774853328E+03  0.15294330000E+03 0.  0.
<mgrwt>
<rscale>  0 0.41713317E+03</rscale>
<asrwt>0</asrwt>
<pdfrwt beam="1">  1        2 0.23208215E+00 0.41713317E+03</pdfrwt>
<pdfrwt beam="2">  1       -2 0.45175383E-01 0.41713317E+03</pdfrwt>
<totfact> 0.62289239E+01</totfact>
</mgrwt>
</event>
<event>
 4    1  0.4840632E-008  0.3627947E+03  0.7818608E-02  0.1057483E+00
         -2   -1    0    0    0  501 -0.00000000000E+00  0.00000000000E+00  0.51068011567E+03  0.51068011567E+03  0.25500000000E-02 0.  1.
          2   -1    0    0  501    0  0.00000000000E+00 -0.00000000000E+00 -0.32557256978E+04  0.32557256978E+04  0.25500000000E-02 0. -1.
    8880022    1    1    2    0    0  0.15100843811E+03  0.29227521410E+03  0.43460294983E+03  0.56612695235E+03  0.15294330000E+03 0.  0.
    8880022    1    1    2    0    0 -0.15100843811E+03 -0.29227521410E+03 -0.31796485320E+04  0.32002788611E+04  0.15294330000E+03 0.  0.
<mgrwt>
<rscale>  0 0.36279471E+03</rscale>
<asrwt>0</asrwt>
<pdfrwt beam="1">  1        2 0.50088086E+00 0.36279471E+03</pdfrwt>
<pdfrwt beam="2">  1       -2 0.78566174E-01 0.36279471E+03</pdfrwt>
<totfact> 0.20899267E+00</totfact>
</mgrwt>
</event>
<event>
 4    1  0.4840632E-008  0.3140222E+03  0.7818608E-02  0.1078434E+00
         -2   -1    0    0    0  501 -0.00000000000E+00  0.00000000000E+00  0.45921690873E+03  0.45921690873E+03  0.25500000000E-02 0.  1.
          2   -1    0    0  501    0  0.00000000000E+00 -0.00000000000E+00 -0.81674250360E+03  0.81674250360E+03  0.25500000000E-02 0. -1.
    8880022    1    1    2    0    0  0.25136639512E+03  0.10969601242E+03 -0.72649117980E+03  0.79145395765E+03  0.15294330000E+03 0.  0.
    8880022    1    1    2    0    0 -0.25136639512E+03 -0.10969601242E+03  0.36896558493E+03  0.48450545468E+03  0.15294330000E+03 0.  1.
<mgrwt>
<rscale>  0 0.31402219E+03</rscale>
<asrwt>0</asrwt>
<pdfrwt beam="1">  1        2 0.12565269E+00 0.31402219E+03</pdfrwt>
<pdfrwt beam="2">  1       -2 0.70648755E-01 0.31402219E+03</pdfrwt>
<totfact> 0.64958523E+01</totfact>
</mgrwt>
</event>
<event>
 4    1  0.4840632E-008  0.8765247E+03  0.7818608E-02  0.9455412E-01
         -2   -1    0    0    0  501 -0.00000000000E+00  0.00000000000E+00  0.39472215557E+03  0.39472215558E+03  0.25500000000E-02 0.  1.
          2   -1    0    0  501    0  0.00000000000E+00 -0.00000000000E+00 -0.20656008995E+04  0.20656008995E+04  0.25500000000E-02 0. -1.
    8880022    1    1    2    0    0 -0.35075187885E+03  0.78859175686E+03 -0.11309277760E+04  0.14308365130E+04  0.15294330000E+03 0.  0.
    8880022    1    1    2    0    0  0.35075187885E+03 -0.78859175686E+03 -0.53995096799E+03  0.10294865421E+04  0.15294330000E+03 0.  0.
<mgrwt>
<rscale>  0 0.87652467E+03</rscale>
<asrwt>0</asrwt>
<pdfrwt beam="1">  1        2 0.31778475E+00 0.87652467E+03</pdfrwt>
<pdfrwt beam="2">  1       -2 0.60726487E-01 0.87652467E+03</pdfrwt>
<totfact> 0.15797086E+01</totfact>
</mgrwt>
</event>
<event>
 4    1  0.4840632E-008  0.7130639E+03  0.7818608E-02  0.9695148E-01
         -2   -1    0    0    0  501 -0.00000000000E+00  0.00000000000E+00  0.57431373701E+03  0.57431373702E+03  0.25500000000E-02 0.  1.
          2   -1    0    0  501    0  0.00000000000E+00 -0.00000000000E+00 -0.13564995154E+04  0.13564995154E+04  0.25500000000E-02 0. -1.
    8880022    1    1    2    0    0  0.47304927080E+03 -0.51116811030E+03 -0.96005939533E+03  0.11958988858E+04  0.15294330000E+03 0.  0.
    8880022    1    1    2    0    0 -0.47304927080E+03  0.51116811030E+03  0.17787361694E+03  0.73491436658E+03  0.15294330000E+03 0.  0.
<mgrwt>
<rscale>  0 0.71306388E+03</rscale>
<asrwt>0</asrwt>
<pdfrwt beam="1">  1        2 0.20869223E+00 0.71306388E+03</pdfrwt>
<pdfrwt beam="2">  1       -2 0.88355960E-01 0.71306388E+03</pdfrwt>
<totfact> 0.17347477E+01</totfact>
</mgrwt>
</event>
<event>
 4    1  0.4840632E-008  0.8702967E+03  0.7818608E-02  0.9463493E-01
          2   -1    0    0  501    0  0.00000000000E+00  0.00000000000E+00  0.48759911286E+03  0.48759911286E+03  0.25500000000E-02 0. -1.
         -2   -1    0    0    0  501 -0.00000000000E+00 -0.00000000000E+00 -0.20585047490E+04  0.20585047490E+04  0.25500000000E-02 0.  1.
    8880022    1    1    2    0    0  0.28633260316E+03  0.80748887799E+03 -0.14160887095E+04  0.16621442579E+04  0.15294330000E+03 0.  0.
    8880022    1    1    2    0    0 -0.28633260316E+03 -0.80748887799E+03 -0.15481692661E+03  0.88395960399E+03  0.15294330000E+03 0.  0.
<mgrwt>
<rscale>  0 0.87029667E+03</rscale>
<asrwt>0</asrwt>
<pdfrwt beam="1">  1        2 0.75015249E-01 0.87029667E+03</pdfrwt>
<pdfrwt beam="2">  1       -2 0.31669304E+00 0.87029667E+03</pdfrwt>
<totfact> 0.16339876E+00</totfact>
</mgrwt>
</event>
<event>
 4    1  0.4840632E-008  0.3414038E+03  0.7818608E-02  0.1066200E+00
         -2   -1    0    0    0  501 -0.00000000000E+00  0.00000000000E+00  0.14456309676E+03  0.14456309679E+03  0.25500000000E-02 0.  1.
          2   -1    0    0  501    0  0.00000000000E+00 -0.00000000000E+00 -0.37543475721E+04  0.37543475721E+04  0.25500000000E-02 0. -1.
    8880022    1    1    2    0    0  0.63624813314E+02 -0.29852433763E+03 -0.35323827727E+04  0.35488427131E+04  0.15294330000E+03 0.  0.
    8880022    1    1    2    0    0 -0.63624813314E+02  0.29852433763E+03 -0.77401702647E+02  0.35006795571E+03  0.15294330000E+03 0.  0.
<mgrwt>
<rscale>  0 0.34140379E+03</rscale>
<asrwt>0</asrwt>
<pdfrwt beam="1">  1        2 0.57759186E+00 0.34140379E+03</pdfrwt>
<pdfrwt beam="2">  1       -2 0.22240479E-01 0.34140379E+03</pdfrwt>
<totfact> 0.11542855E+01</totfact>
</mgrwt>
</event>
<event>
 4    1  0.4840632E-008  0.6509908E+03  0.7818608E-02  0.9804922E-01
         -2   -1    0    0    0  501 -0.00000000000E+00  0.00000000000E+00  0.57732009019E+03  0.57732009020E+03  0.25500000000E-02 0.  1.
          2   -1    0    0  501    0  0.00000000000E+00 -0.00000000000E+00 -0.86424171587E+03  0.86424171588E+03  0.25500000000E-02 0. -1.
    8880022    1    1    2    0    0  0.26569224947E+03 -0.57428646117E+03 -0.42320216627E+03  0.77645929543E+03  0.15294330000E+03 0.  0.
    8880022    1    1    2    0    0 -0.26569224947E+03  0.57428646117E+03  0.13628054058E+03  0.66510251065E+03  0.15294330000E+03 0.  0.
<mgrwt>
<rscale>  0 0.65099076E+03</rscale>
<asrwt>0</asrwt>
<pdfrwt beam="1">  1        2 0.13296026E+00 0.65099076E+03</pdfrwt>
<pdfrwt beam="2">  1       -2 0.88818476E-01 0.65099076E+03</pdfrwt>
<totfact> 0.34618992E+01</totfact>
</mgrwt>
</event>
<event>
 4    1  0.4840632E-008  0.5811230E+03  0.7818608E-02  0.9945363E-01
         -2   -1    0    0    0  501 -0.00000000000E+00  0.00000000000E+00  0.19447569737E+03  0.19447569738E+03  0.25500000000E-02 0.  1.
          2   -1    0    0  501    0  0.00000000000E+00 -0.00000000000E+00 -0.19673554356E+04  0.19673554357E+04  0.25500000000E-02 0. -1.
    8880022    1    1    2    0    0 -0.22733021553E+03  0.51247756655E+03 -0.51615542973E+03  0.77725180204E+03  0.15294330000E+03 0.  0.
    8880022    1    1    2    0    0  0.22733021553E+03 -0.51247756655E+03 -0.12567243085E+04  0.13845793310E+04  0.15294330000E+03 0.  0.
<mgrwt>
<rscale>  0 0.58112300E+03</rscale>
<asrwt>0</asrwt>
<pdfrwt beam="1">  1        2 0.30267005E+00 0.58112300E+03</pdfrwt>
<pdfrwt beam="2">  1       -2 0.29919339E-01 0.58112300E+03</pdfrwt>
<totfact> 0.75305553E+01</totfact>
</mgrwt>
</event>
<event>
 4    1  0.4840632E-008  0.9277834E+03  0.7818608E-02  0.9391502E-01
         -2   -1    0    0    0  501 -0.00000000000E+00  0.00000000000E+00  0.25453865790E+04  0.25453865790E+04  0.25500000000E-02 0.  1.
          2   -1    0    0  501    0  0.00000000000E+00 -0.00000000000E+00 -0.54740711143E+03  0.54740711143E+03  0.25500000000E-02 0. -1.
    8880022    1    1    2    0    0  0.80223652835E+03  0.44023498778E+03  0.42937538475E+02  0.92877638703E+03  0.15294330000E+03 0.  0.
    8880022    1    1    2    0    0 -0.80223652835E+03 -0.44023498778E+03  0.19550419291E+04  0.21640173034E+04  0.15294330000E+03 0.  0.
<mgrwt>
<rscale>  0 0.92778335E+03</rscale>
<asrwt>0</asrwt>
<pdfrwt beam="1">  1        2 0.84216478E-01 0.92778335E+03</pdfrwt>
<pdfrwt beam="2">  1       -2 0.39159794E+00 0.92778335E+03</pdfrwt>
<totfact> 0.48027780E-01</totfact>
</mgrwt>
</event>
<event>
 4    1  0.4840632E-008  0.4054362E+03  0.7818608E-02  0.1041913E+00
         -2   -1    0    0    0  501 -0.00000000000E+00  0.00000000000E+00  0.34117260443E+03  0.34117260444E+03  0.25500000000E-02 0.  1.
          2   -1    0    0  501    0  0.00000000000E+00 -0.00000000000E+00 -0.10260576827E+04  0.10260576827E+04  0.25500000000E-02 0. -1.
    8880022    1    1    2    0    0  0.13369703759E+02  0.37524403662E+03 -0.84032437638E+03  0.93301851351E+03  0.15294330000E+03 0.  0.
    8880022    1    1    2    0    0 -0.13369703759E+02 -0.37524403662E+03  0.15543929807E+03  0.43421177367E+03  0.15294330000E+03 0.  0.
<mgrwt>
<rscale>  0 0.40543617E+03</rscale>
<asrwt>0</asrwt>
<pdfrwt beam="1">  1        2 0.15785503E+00 0.40543617E+03</pdfrwt>
<pdfrwt beam="2">  1       -2 0.52488094E-01 0.40543617E+03</pdfrwt>
<totfact> 0.87274425E+01</totfact>
</mgrwt>
</event>
<event>
 4    1  0.4840632E-008  0.6601467E+03  0.7818608E-02  0.9787924E-01
          2   -1    0    0  501    0  0.00000000000E+00  0.00000000000E+00  0.23341408411E+04  0.23341408411E+04  0.25500000000E-02 0. -1.
         -2   -1    0    0    0  501 -0.00000000000E+00 -0.00000000000E+00 -0.46565778530E+03  0.46565778531E+03  0.25500000000E-02 0.  1.
    8880022    1    1    2    0    0  0.46611562818E+03  0.44174449214E+03  0.20177428118E+04  0.21229883849E+04  0.15294330000E+03 0.  0.
    8880022    1    1    2    0    0 -0.46611562818E+03 -0.44174449214E+03 -0.14925975598E+03  0.67681024145E+03  0.15294330000E+03 0.  0.
<mgrwt>
<rscale>  0 0.66014667E+03</rscale>
<asrwt>0</asrwt>
<pdfrwt beam="1">  1        2 0.35909859E+00 0.66014667E+03</pdfrwt>
<pdfrwt beam="2">  1       -2 0.71639660E-01 0.66014667E+03</pdfrwt>
<totfact> 0.81290875E+00</totfact>
</mgrwt>
</event>
<event>
 4    1  0.4840632E-008  0.8434121E+03  0.7818608E-02  0.9499222E-01
          2   -1    0    0  501    0  0.00000000000E+00  0.00000000000E+00  0.11158204322E+04  0.11158204322E+04  0.25500000000E-02 0. -1.
         -2   -1    0    0    0  501 -0.00000000000E+00 -0.00000000000E+00 -0.83316487685E+03  0.83316487685E+03  0.25500000000E-02 0.  1.
    8880022    1    1    2    0    0  0.71951129066E+03  0.41262067483E+03 -0.33091043814E+03  0.90600534755E+03  0.15294330000E+03 0.  0.
    8880022    1    1    2    0    0 -0.71951129066E+03 -0.41262067483E+03  0.61356599347E+03  0.10429799615E+04  0.15294330000E+03 0.  0.
<mgrwt>
<rscale>  0 0.84341210E+03</rscale>
<asrwt>0</asrwt>
<pdfrwt beam="1">  1        2 0.17166468E+00 0.84341210E+03</pdfrwt>
<pdfrwt beam="2">  1       -2 0.12817921E+00 0.84341210E+03</pdfrwt>
<totfact> 0.96627109E+00</totfact>
</mgrwt>
</event>
<event>
 4    1  0.4840632E-008  0.1099889E+04  0.7818608E-02  0.9205300E-01
          2   -1    0    0  501    0  0.00000000000E+00  0.00000000000E+00  0.20203949512E+04  0.20203949512E+04  0.25500000000E-02 0. -1.
         -2   -1    0    0    0  501 -0.00000000000E+00 -0.00000000000E+00 -0.67391773649E+03  0.67391773649E+03  0.25500000000E-02 0.  1.
    8880022    1    1    2    0    0 -0.61944540549E+03 -0.89590807371E+03  0.22338906632E+03  0.11223449625E+04  0.15294330000E+03 0.  0.
    8880022    1    1    2    0    0  0.61944540549E+03  0.89590807371E+03  0.11230881484E+04  0.15719677252E+04  0.15294330000E+03 0.  0.
<mgrwt>
<rscale>  0 0.10998889E+04</rscale>
<asrwt>0</asrwt>
<pdfrwt beam="1">  1        2 0.31082999E+00 0.10998889E+04</pdfrwt>
<pdfrwt beam="2">  1       -2 0.10367965E+00 0.10998889E+04</pdfrwt>
<totfact> 0.48774967E+00</totfact>
</mgrwt>
</event>
<event>
 4    1  0.4840632E-008  0.3665143E+03  0.7818608E-02  0.1056034E+00
          2   -1    0    0  501    0  0.00000000000E+00  0.00000000000E+00  0.62769533090E+03  0.62769533090E+03  0.25500000000E-02 0. -1.
         -2   -1    0    0    0  501 -0.00000000000E+00 -0.00000000000E+00 -0.35329265628E+03  0.35329265629E+03  0.25500000000E-02 0.  1.
    8880022    1    1    2    0    0 -0.29992129528E+02  0.33172513411E+03  0.44517652903E+03  0.57664103865E+03  0.15294330000E+03 0. -1.
    8880022    1    1    2    0    0  0.29992129528E+02 -0.33172513411E+03 -0.17077385442E+03  0.40434694855E+03  0.15294330000E+03 0.  0.
<mgrwt>
<rscale>  0 0.36651432E+03</rscale>
<asrwt>0</asrwt>
<pdfrwt beam="1">  1        2 0.96568512E-01 0.36651432E+03</pdfrwt>
<pdfrwt beam="2">  1       -2 0.54352717E-01 0.36651432E+03</pdfrwt>
<totfact> 0.15517750E+02</totfact>
</mgrwt>
</event>
<event>
 4    1  0.4840632E-008  0.7515495E+03  0.7818608E-02  0.9632923E-01
          2   -1    0    0  501    0  0.00000000000E+00  0.00000000000E+00  0.42886670118E+03  0.42886670119E+03  0.25500000000E-02 0. -1.
         -2   -1    0    0    0  501 -0.00000000000E+00 -0.00000000000E+00 -0.14436417900E+04  0.14436417900E+04  0.25500000000E-02 0.  1.
    8880022    1    1    2    0    0  0.72523451035E+03 -0.12437786143E+03 -0.78466591420E+03  0.10865206843E+04  0.15294330000E+03 0.  0.
    8880022    1    1    2    0    0 -0.72523451035E+03  0.12437786143E+03 -0.23010917465E+03  0.78598780696E+03  0.15294330000E+03 0.  0.
<mgrwt>
<rscale>  0 0.75154947E+03</rscale>
<asrwt>0</asrwt>
<pdfrwt beam="1">  1        2 0.65979493E-01 0.75154947E+03</pdfrwt>
<pdfrwt beam="2">  1       -2 0.22209874E+00 0.75154947E+03</pdfrwt>
<totfact> 0.72019279E+00</totfact>
</mgrwt>
</event>
<event>
 4    1  0.4840632E-008  0.3227412E+03  0.7818608E-02  0.1074395E+00
          2   -1    0    0  501    0  0.00000000000E+00  0.00000000000E+00  0.72103516081E+03  0.72103516082E+03  0.25500000000E-02 0. -1.
         -2   -1    0    0    0  501 -0.00000000000E+00 -0.00000000000E+00 -0.59097600353E+03  0.59097600354E+03  0.25500000000E-02 0.  1.
    8880022    1    1    2    0    0 -0.24216554881E+03  0.14874833208E+03  0.63524684255E+03  0.71253099814E+03  0.15294330000E+03 0.  0.
    8880022    1    1    2    0    0  0.24216554881E+03 -0.14874833208E+03 -0.50518768526E+03  0.59948016622E+03  0.15294330000E+03 0.  0.
<mgrwt>
<rscale>  0 0.32274118E+03</rscale>
<asrwt>0</asrwt>
<pdfrwt beam="1">  1        2 0.11092849E+00 0.32274118E+03</pdfrwt>
<pdfrwt beam="2">  1       -2 0.90919385E-01 0.32274118E+03</pdfrwt>
<totfact> 0.43381954E+01</totfact>
</mgrwt>
</event>
<event>
 4    1  0.4840632E-008  0.2599149E+03  0.7818608E-02  0.1107194E+00
          2   -1    0    0  501    0  0.00000000000E+00  0.00000000000E+00  0.67137662913E+03  0.67137662914E+03  0.25500000000E-02 0. -1.
         -2   -1    0    0    0  501 -0.00000000000E+00 -0.00000000000E+00 -0.86213631240E+03  0.86213631240E+03  0.25500000000E-02 0.  1.
    8880022    1    1    2    0    0  0.75896778809E+02 -0.19596889226E+03  0.62524344907E+03  0.67711531616E+03  0.15294330000E+03 0.  0.
    8880022    1    1    2    0    0 -0.75896778809E+02  0.19596889226E+03 -0.81600313233E+03  0.85639762538E+03  0.15294330000E+03 0.  0.
<mgrwt>
<rscale>  0 0.25991495E+03</rscale>
<asrwt>0</asrwt>
<pdfrwt beam="1">  1        2 0.10328871E+00 0.25991495E+03</pdfrwt>
<pdfrwt beam="2">  1       -2 0.13263636E+00 0.25991495E+03</pdfrwt>
<totfact> 0.19486266E+01</totfact>
</mgrwt>
</event>
<event>
 4    1  0.4840632E-008  0.7994930E+03  0.7818608E-02  0.9560751E-01
         -2   -1    0    0    0  501 -0.00000000000E+00  0.00000000000E+00  0.17442133356E+04  0.17442133356E+04  0.25500000000E-02 0.  1.
          2   -1    0    0  501    0  0.00000000000E+00 -0.00000000000E+00 -0.11472275719E+04  0.11472275719E+04  0.25500000000E-02 0. -1.
    8880022    1    1    2    0    0 -0.63516748943E+03 -0.46082495537E+03 -0.89417544316E+03  0.11994743663E+04  0.15294330000E+03 0.  0.
    8880022    1    1    2    0    0  0.63516748943E+03  0.46082495537E+03  0.14911612068E+04  0.16919665413E+04  0.15294330000E+03 0.  0.
<mgrwt>
<rscale>  0 0.79949298E+03</rscale>
<asrwt>0</asrwt>
<pdfrwt beam="1">  1        2 0.17649655E+00 0.79949298E+03</pdfrwt>
<pdfrwt beam="2">  1       -2 0.26834051E+00 0.79949298E+03</pdfrwt>
<totfact> 0.10426370E+00</totfact>
</mgrwt>
</event>
<event>
 4    1  0.4840632E-008  0.6332014E+03  0.7818608E-02  0.9838821E-01
          2   -1    0    0  501    0  0.00000000000E+00  0.00000000000E+00  0.20952445705E+04  0.20952445705E+04  0.25500000000E-02 0. -1.
         -2   -1    0    0    0  501 -0.00000000000E+00 -0.00000000000E+00 -0.63283503280E+03  0.63283503280E+03  0.25500000000E-02 0.  1.
    8880022    1    1    2    0    0  0.58305711242E+03  0.19389875513E+03 -0.40808798545E+03  0.75331253837E+03  0.15294330000E+03 0.  0.
    8880022    1    1    2    0    0 -0.58305711242E+03 -0.19389875513E+03  0.18704975231E+04  0.19747670649E+04  0.15294330000E+03 0.  0.
<mgrwt>
<rscale>  0 0.63320137E+03</rscale>
<asrwt>0</asrwt>
<pdfrwt beam="1">  1        2 0.32234532E+00 0.63320137E+03</pdfrwt>
<pdfrwt beam="2">  1       -2 0.97359234E-01 0.63320137E+03</pdfrwt>
<totfact> 0.55176353E+00</totfact>
</mgrwt>
</event>
<event>
 4    1  0.4840632E-008  0.4284499E+03  0.7818608E-02  0.1034351E+00
          2   -1    0    0  501    0  0.00000000000E+00  0.00000000000E+00  0.90433699369E+03  0.90433699369E+03  0.25500000000E-02 0. -1.
         -2   -1    0    0    0  501 -0.00000000000E+00 -0.00000000000E+00 -0.38370013506E+03  0.38370013507E+03  0.25500000000E-02 0.  1.
    8880022    1    1    2    0    0 -0.36000848468E+03 -0.17484721554E+03 -0.18165523997E+03  0.46536860342E+03  0.15294330000E+03 0.  0.
    8880022    1    1    2    0    0  0.36000848468E+03  0.17484721554E+03  0.70229209860E+03  0.82266852535E+03  0.15294330000E+03 0.  0.
<mgrwt>
<rscale>  0 0.42844989E+03</rscale>
<asrwt>0</asrwt>
<pdfrwt beam="1">  1        2 0.13912877E+00 0.42844989E+03</pdfrwt>
<pdfrwt beam="2">  1       -2 0.59030791E-01 0.42844989E+03</pdfrwt>
<totfact> 0.81627726E+01</totfact>
</mgrwt>
</event>
<event>
 4    1  0.4840632E-008  0.2370777E+03  0.7818608E-02  0.1121755E+00
          2   -1    0    0  501    0  0.00000000000E+00  0.00000000000E+00  0.73768315793E+03  0.73768315794E+03  0.25500000000E-02 0. -1.
         -2   -1    0    0    0  501 -0.00000000000E+00 -0.00000000000E+00 -0.23307712051E+03  0.23307712052E+03  0.25500000000E-02 0.  1.
    8880022    1    1    2    0    0 -0.17746271184E+03  0.36347903125E+02 -0.14591648666E+03  0.27838365298E+03  0.15294330000E+03 0.  0.
    8880022    1    1    2    0    0  0.17746271184E+03 -0.36347903125E+02  0.65052252408E+03  0.69237662547E+03  0.15294330000E+03 0. -1.
<mgrwt>
<rscale>  0 0.23707770E+03</rscale>
<asrwt>0</asrwt>
<pdfrwt beam="1">  1        2 0.11348971E+00 0.23707770E+03</pdfrwt>
<pdfrwt beam="2">  1       -2 0.35858019E-01 0.23707770E+03</pdfrwt>
<totfact> 0.29190294E+02</totfact>
</mgrwt>
</event>
<event>
 4    1  0.4840632E-008  0.8075009E+03  0.7818608E-02  0.9549223E-01
          2   -1    0    0  501    0  0.00000000000E+00  0.00000000000E+00  0.34350892567E+04  0.34350892567E+04  0.25500000000E-02 0. -1.
         -2   -1    0    0    0  501 -0.00000000000E+00 -0.00000000000E+00 -0.84718634281E+03  0.84718634282E+03  0.25500000000E-02 0.  1.
    8880022    1    1    2    0    0 -0.11742001144E+03 -0.78414198574E+03 -0.59211938240E+03  0.10013306791E+04  0.15294330000E+03 0.  0.
    8880022    1    1    2    0    0  0.11742001144E+03  0.78414198574E+03  0.31800222962E+04  0.32809449204E+04  0.15294330000E+03 0.  0.
<mgrwt>
<rscale>  0 0.80750094E+03</rscale>
<asrwt>0</asrwt>
<pdfrwt beam="1">  1        2 0.52847528E+00 0.80750094E+03</pdfrwt>
<pdfrwt beam="2">  1       -2 0.13033636E+00 0.80750094E+03</pdfrwt>
<totfact> 0.41705297E-01</totfact>
</mgrwt>
</event>
<event>
 4    1  0.4840632E-008  0.9277228E+03  0.7818608E-02  0.9391575E-01
         -2   -1    0    0    0  501 -0.00000000000E+00  0.00000000000E+00  0.85885057848E+03  0.85885057848E+03  0.25500000000E-02 0.  1.
          2   -1    0    0  501    0  0.00000000000E+00 -0.00000000000E+00 -0.11099229524E+04  0.11099229524E+04  0.25500000000E-02 0. -1.
    8880022    1    1    2    0    0 -0.71368199680E+03  0.57265695378E+03  0.18125203806E+03  0.94526289126E+03  0.15294330000E+03 0.  0.
    8880022    1    1    2    0    0  0.71368199680E+03 -0.57265695378E+03 -0.43232441202E+03  0.10235106397E+04  0.15294330000E+03 0.  0.
<mgrwt>
<rscale>  0 0.92772282E+03</rscale>
<asrwt>0</asrwt>
<pdfrwt beam="1">  1        2 0.17075738E+00 0.92772282E+03</pdfrwt>
<pdfrwt beam="2">  1       -2 0.13213086E+00 0.92772282E+03</pdfrwt>
<totfact> 0.89416893E+00</totfact>
</mgrwt>
</event>
<event>
 4    1  0.4840632E-008  0.2405393E+03  0.7818608E-02  0.1119434E+00
         -2   -1    0    0    0  501 -0.00000000000E+00  0.00000000000E+00  0.17329854643E+03  0.17329854645E+03  0.25500000000E-02 0.  1.
          2   -1    0    0  501    0  0.00000000000E+00 -0.00000000000E+00 -0.79869991916E+03  0.79869991916E+03  0.25500000000E-02 0. -1.
    8880022    1    1    2    0    0 -0.15397381944E+03  0.10372829411E+03 -0.68345900087E+03  0.72455183041E+03  0.15294330000E+03 0.  0.
    8880022    1    1    2    0    0  0.15397381944E+03 -0.10372829411E+03  0.58057628136E+02  0.24744663520E+03  0.15294330000E+03 0.  0.
<mgrwt>
<rscale>  0 0.24053929E+03</rscale>
<asrwt>0</asrwt>
<pdfrwt beam="1">  1        2 0.12287691E+00 0.24053929E+03</pdfrwt>
<pdfrwt beam="2">  1       -2 0.26661315E-01 0.24053929E+03</pdfrwt>
<totfact> 0.45415985E+02</totfact>
</mgrwt>
</event>
<event>
 4    1  0.4840632E-008  0.2115775E+03  0.7818608E-02  0.1140323E+00
          2   -1    0    0  501    0  0.00000000000E+00  0.00000000000E+00  0.27188039269E+04  0.27188039269E+04  0.25500000000E-02 0. -1.
         -2   -1    0    0    0  501 -0.00000000000E+00 -0.00000000000E+00 -0.47840384095E+02  0.47840384163E+02  0.25500000000E-02 0.  1.
    8880022    1    1    2    0    0  0.14507336170E+03 -0.18085476852E+02  0.21521680219E+03  0.30180008236E+03  0.15294330000E+03 0.  1.
    8880022    1    1    2    0    0 -0.14507336170E+03  0.18085476852E+02  0.24557467406E+04  0.24648442287E+04  0.15294330000E+03 0.  0.
<mgrwt>
<rscale>  0 0.21157745E+03</rscale>
<asrwt>0</asrwt>
<pdfrwt beam="1">  1        2 0.41827754E+00 0.21157745E+03</pdfrwt>
<pdfrwt beam="2">  1       -2 0.73600588E-02 0.21157745E+03</pdfrwt>
<totfact> 0.33257335E+02</totfact>
</mgrwt>
</event>
<event>
 4    1  0.4840632E-008  0.7175218E+03  0.7818608E-02  0.9687728E-01
          2   -1    0    0  501    0  0.00000000000E+00  0.00000000000E+00  0.11658016979E+04  0.11658016979E+04  0.25500000000E-02 0. -1.
         -2   -1    0    0    0  501 -0.00000000000E+00 -0.00000000000E+00 -0.54945589811E+03  0.54945589812E+03  0.25500000000E-02 0.  1.
    8880022    1    1    2    0    0 -0.38149601935E+03  0.58813831343E+03 -0.71772496468E+02  0.72110251197E+03  0.15294330000E+03 0.  0.
    8880022    1    1    2    0    0  0.38149601935E+03 -0.58813831343E+03  0.68811829629E+03  0.99415508409E+03  0.15294330000E+03 0.  0.
<mgrwt>
<rscale>  0 0.71752181E+03</rscale>
<asrwt>0</asrwt>
<pdfrwt beam="1">  1        2 0.17935410E+00 0.71752181E+03</pdfrwt>
<pdfrwt beam="2">  1       -2 0.84531678E-01 0.71752181E+03</pdfrwt>
<totfact> 0.24765621E+01</totfact>
</mgrwt>
</event>
<event>
 4    1  0.4840632E-008  0.3860986E+03  0.7818608E-02  0.1048702E+00
         -2   -1    0    0    0  501 -0.00000000000E+00  0.00000000000E+00  0.12428222638E+03  0.12428222640E+03  0.25500000000E-02 0.  1.
          2   -1    0    0  501    0  0.00000000000E+00 -0.00000000000E+00 -0.24405240160E+04  0.24405240160E+04  0.25500000000E-02 0. -1.
    8880022    1    1    2    0    0  0.22468782385E+03 -0.27421867531E+03 -0.20726115655E+04  0.21082672636E+04  0.15294330000E+03 0.  0.
    8880022    1    1    2    0    0 -0.22468782385E+03  0.27421867531E+03 -0.24363022408E+03  0.45653897881E+03  0.15294330000E+03 0.  0.
<mgrwt>
<rscale>  0 0.38609863E+03</rscale>
<asrwt>0</asrwt>
<pdfrwt beam="1">  1        2 0.37546520E+00 0.38609863E+03</pdfrwt>
<pdfrwt beam="2">  1       -2 0.19120344E-01 0.38609863E+03</pdfrwt>
<totfact> 0.95724488E+01</totfact>
</mgrwt>
</event>
<event>
 4    1  0.4840632E-008  0.8232151E+03  0.7818608E-02  0.9527009E-01
         -2   -1    0    0    0  501 -0.00000000000E+00  0.00000000000E+00  0.37616718679E+03  0.37616718680E+03  0.25500000000E-02 0.  1.
          2   -1    0    0  501    0  0.00000000000E+00 -0.00000000000E+00 -0.21487232748E+04  0.21487232748E+04  0.25500000000E-02 0. -1.
    8880022    1    1    2    0    0 -0.77946314951E+03 -0.21616802681E+03 -0.13937323981E+04  0.16186948655E+04  0.15294330000E+03 0.  0.
    8880022    1    1    2    0    0  0.77946314951E+03  0.21616802681E+03 -0.37882368995E+03  0.90619559607E+03  0.15294330000E+03 0.  0.
<mgrwt>
<rscale>  0 0.82321508E+03</rscale>
<asrwt>0</asrwt>
<pdfrwt beam="1">  1        2 0.33057280E+00 0.82321508E+03</pdfrwt>
<pdfrwt beam="2">  1       -2 0.57871876E-01 0.82321508E+03</pdfrwt>
<totfact> 0.15846631E+01</totfact>
</mgrwt>
</event>
<event>
 4    1  0.4840632E-008  0.2853109E+03  0.7818608E-02  0.1092823E+00
         -2   -1    0    0    0  501 -0.00000000000E+00  0.00000000000E+00  0.90957885577E+03  0.90957885577E+03  0.25500000000E-02 0.  1.
          2   -1    0    0  501    0  0.00000000000E+00 -0.00000000000E+00 -0.26904147842E+03  0.26904147843E+03  0.25500000000E-02 0. -1.
    8880022    1    1    2    0    0  0.24044204789E+03  0.14081001443E+02  0.80168783938E+03  0.85094400393E+03  0.15294330000E+03 0.  0.
    8880022    1    1    2    0    0 -0.24044204789E+03 -0.14081001443E+02 -0.16115046202E+03  0.32767633028E+03  0.15294330000E+03 0.  0.
<mgrwt>
<rscale>  0 0.28531089E+03</rscale>
<asrwt>0</asrwt>
<pdfrwt beam="1">  1        2 0.41390997E-01 0.28531089E+03</pdfrwt>
<pdfrwt beam="2">  1       -2 0.13993521E+00 0.28531089E+03</pdfrwt>
<totfact> 0.46972807E+01</totfact>
</mgrwt>
</event>
<event>
 4    1  0.4840632E-008  0.8397394E+03  0.7818608E-02  0.9504213E-01
          2   -1    0    0  501    0  0.00000000000E+00  0.00000000000E+00  0.23588747607E+04  0.23588747607E+04  0.25500000000E-02 0. -1.
         -2   -1    0    0    0  501 -0.00000000000E+00 -0.00000000000E+00 -0.62866676097E+03  0.62866676098E+03  0.25500000000E-02 0.  1.
    8880022    1    1    2    0    0 -0.79569119178E+03  0.22055883515E+03  0.19469133183E+04  0.21202909693E+04  0.15294330000E+03 0.  0.
    8880022    1    1    2    0    0  0.79569119178E+03 -0.22055883515E+03 -0.21670531861E+03  0.86725055236E+03  0.15294330000E+03 0.  0.
<mgrwt>
<rscale>  0 0.83973944E+03</rscale>
<asrwt>0</asrwt>
<pdfrwt beam="1">  1        2 0.36290381E+00 0.83973944E+03</pdfrwt>
<pdfrwt beam="2">  1       -2 0.96717964E-01 0.83973944E+03</pdfrwt>
<totfact> 0.38633504E+00</totfact>
</mgrwt>
</event>
<event>
 4    1  0.4840632E-008  0.1075506E+04  0.7818608E-02  0.9229399E-01
          2   -1    0    0  501    0  0.00000000000E+00  0.00000000000E+00  0.32842522804E+04  0.32842522804E+04  0.25500000000E-02 0. -1.
         -2   -1    0    0    0  501 -0.00000000000E+00 -0.00000000000E+00 -0.46167001232E+03  0.46167001233E+03  0.25500000000E-02 0.  1.
    8880022    1    1    2    0    0 -0.91892672696E+03  0.53749028088E+03  0.49925837189E+03  0.11857371996E+04  0.15294330000E+03 0.  1.
    8880022    1    1    2    0    0  0.91892672696E+03 -0.53749028088E+03  0.23233238962E+04  0.25601850932E+04  0.15294330000E+03 0.  0.
<mgrwt>
<rscale>  0 0.10755063E+04</rscale>
<asrwt>0</asrwt>
<pdfrwt beam="1">  1        2 0.50526960E+00 0.10755063E+04</pdfrwt>
<pdfrwt beam="2">  1       -2 0.71026153E-01 0.10755063E+04</pdfrwt>
<totfact> 0.20909111E+00</totfact>
</mgrwt>
</event>
<event>
 4    1  0.4840632E-008  0.4247666E+03  0.7818608E-02  0.1035526E+00
         -2   -1    0    0    0  501 -0.00000000000E+00  0.00000000000E+00  0.36922982195E+03  0.36922982196E+03  0.25500000000E-02 0.  1.
          2   -1    0    0  501    0  0.00000000000E+00 -0.00000000000E+00 -0.22001653788E+04  0.22001653788E+04  0.25500000000E-02 0. -1.
    8880022    1    1    2    0    0 -0.26404728546E+02  0.39539572080E+03  0.21761802513E+03  0.47726747595E+03  0.15294330000E+03 0.  0.
    8880022    1    1    2    0    0  0.26404728546E+02 -0.39539572080E+03 -0.20485535819E+04  0.20921277248E+04  0.15294330000E+03 0. -1.
<mgrwt>
<rscale>  0 0.42476657E+03</rscale>
<asrwt>0</asrwt>
<pdfrwt beam="1">  1        2 0.33848697E+00 0.42476657E+03</pdfrwt>
<pdfrwt beam="2">  1       -2 0.56804590E-01 0.42476657E+03</pdfrwt>
<totfact> 0.16633434E+01</totfact>
</mgrwt>
</event>
<event>
 4    1  0.4840632E-008  0.5248617E+03  0.7818608E-02  0.1007486E+00
         -2   -1    0    0    0  501 -0.00000000000E+00  0.00000000000E+00  0.12746496006E+04  0.12746496006E+04  0.25500000000E-02 0.  1.
          2   -1    0    0  501    0  0.00000000000E+00 -0.00000000000E+00 -0.56624091657E+03  0.56624091658E+03  0.25500000000E-02 0. -1.
    8880022    1    1    2    0    0 -0.24794688407E+03 -0.43658963418E+03  0.10779819280E+04  0.11989682465E+04  0.15294330000E+03 0.  0.
    8880022    1    1    2    0    0  0.24794688407E+03  0.43658963418E+03 -0.36957324394E+03  0.64192227072E+03  0.15294330000E+03 0.  0.
<mgrwt>
<rscale>  0 0.52486171E+03</rscale>
<asrwt>0</asrwt>
<pdfrwt beam="1">  1        2 0.87113987E-01 0.52486171E+03</pdfrwt>
<pdfrwt beam="2">  1       -2 0.19609994E+00 0.52486171E+03</pdfrwt>
<totfact> 0.78881050E+00</totfact>
</mgrwt>
</event>
<event>
 4    1  0.4840632E-008  0.3647185E+03  0.7818608E-02  0.1056731E+00
         -2   -1    0    0    0  501 -0.00000000000E+00  0.00000000000E+00  0.10415993805E+04  0.10415993805E+04  0.25500000000E-02 0.  1.
          2   -1    0    0  501    0  0.00000000000E+00 -0.00000000000E+00 -0.73305926891E+03  0.73305926891E+03  0.25500000000E-02 0. -1.
    8880022    1    1    2    0    0  0.33099255755E+03 -0.84775870553E+01  0.96061219241E+03  0.10275190411E+04  0.15294330000E+03 0.  0.
    8880022    1    1    2    0    0 -0.33099255755E+03  0.84775870553E+01 -0.65207208084E+03  0.74713960828E+03  0.15294330000E+03 0.  0.
<mgrwt>
<rscale>  0 0.36471852E+03</rscale>
<asrwt>0</asrwt>
<pdfrwt beam="1">  1        2 0.11277835E+00 0.36471852E+03</pdfrwt>
<pdfrwt beam="2">  1       -2 0.16024606E+00 0.36471852E+03</pdfrwt>
<totfact> 0.10463716E+01</totfact>
</mgrwt>
</event>
<event>
 4    1  0.4840632E-008  0.6103077E+03  0.7818608E-02  0.9884249E-01
          2   -1    0    0  501    0  0.00000000000E+00  0.00000000000E+00  0.13071365704E+04  0.13071365704E+04  0.25500000000E-02 0. -1.
         -2   -1    0    0    0  501 -0.00000000000E+00 -0.00000000000E+00 -0.95362798854E+03  0.95362798854E+03  0.25500000000E-02 0.  1.
    8880022    1    1    2    0    0 -0.26386156962E+02 -0.59024369336E+03 -0.76979369815E+03  0.98237357332E+03  0.15294330000E+03 0.  0.
    8880022    1    1    2    0    0  0.26386156962E+02  0.59024369336E+03  0.11233022801E+04  0.12783909857E+04  0.15294330000E+03 0.  0.
<mgrwt>
<rscale>  0 0.61030771E+03</rscale>
<asrwt>0</asrwt>
<pdfrwt beam="1">  1        2 0.20109794E+00 0.61030771E+03</pdfrwt>
<pdfrwt beam="2">  1       -2 0.14671200E+00 0.61030771E+03</pdfrwt>
<totfact> 0.54408207E+00</totfact>
</mgrwt>
</event>
<event>
 4    1  0.4840632E-008  0.2060116E+03  0.7818608E-02  0.1144764E+00
          2   -1    0    0  501    0  0.00000000000E+00  0.00000000000E+00  0.14005799539E+04  0.14005799539E+04  0.25500000000E-02 0. -1.
         -2   -1    0    0    0  501 -0.00000000000E+00 -0.00000000000E+00 -0.20854546992E+03  0.20854546993E+03  0.25500000000E-02 0.  1.
    8880022    1    1    2    0    0  0.10224553222E+03 -0.92709165553E+02 -0.14779953830E+03  0.25354584354E+03  0.15294330000E+03 0.  0.
    8880022    1    1    2    0    0 -0.10224553222E+03  0.92709165553E+02  0.13398340223E+04  0.13555795803E+04  0.15294330000E+03 0. -1.
<mgrwt>
<rscale>  0 0.20601163E+03</rscale>
<asrwt>0</asrwt>
<pdfrwt beam="1">  1        2 0.21547384E+00 0.20601163E+03</pdfrwt>
<pdfrwt beam="2">  1       -2 0.32083919E-01 0.20601163E+03</pdfrwt>
<totfact> 0.14340453E+02</totfact>
</mgrwt>
</event>
<event>
 4    1  0.4840632E-008  0.2007561E+03  0.7818608E-02  0.1149103E+00
         -2   -1    0    0    0  501 -0.00000000000E+00  0.00000000000E+00  0.35463631187E+03  0.35463631187E+03  0.25500000000E-02 0.  1.
          2   -1    0    0  501    0  0.00000000000E+00 -0.00000000000E+00 -0.19904152117E+04  0.19904152117E+04  0.25500000000E-02 0. -1.
    8880022    1    1    2    0    0  0.12722936535E+03  0.26908390558E+02 -0.19564495979E+04  0.19667226686E+04  0.15294330000E+03 0.  0.
    8880022    1    1    2    0    0 -0.12722936535E+03 -0.26908390558E+02  0.32067069809E+03  0.37832885499E+03  0.15294330000E+03 0.  1.
<mgrwt>
<rscale>  0 0.20075614E+03</rscale>
<asrwt>0</asrwt>
<pdfrwt beam="1">  1        2 0.30621772E+00 0.20075614E+03</pdfrwt>
<pdfrwt beam="2">  1       -2 0.54559434E-01 0.20075614E+03</pdfrwt>
<totfact> 0.25369135E+01</totfact>
</mgrwt>
</event>
<event>
 4    1  0.4840632E-008  0.5713195E+03  0.7818608E-02  0.9966763E-01
         -2   -1    0    0    0  501 -0.00000000000E+00  0.00000000000E+00  0.13356666684E+04  0.13356666684E+04  0.25500000000E-02 0.  1.
          2   -1    0    0  501    0  0.00000000000E+00 -0.00000000000E+00 -0.28862146297E+03  0.28862146298E+03  0.25500000000E-02 0. -1.
    8880022    1    1    2    0    0 -0.54213705222E+03 -0.95403219781E+02  0.84150199297E+03  0.10171192727E+04  0.15294330000E+03 0.  0.
    8880022    1    1    2    0    0  0.54213705222E+03  0.95403219781E+02  0.20554321245E+03  0.60716885867E+03  0.15294330000E+03 0.  0.
<mgrwt>
<rscale>  0 0.57131953E+03</rscale>
<asrwt>0</asrwt>
<pdfrwt beam="1">  1        2 0.44403302E-01 0.57131953E+03</pdfrwt>
<pdfrwt beam="2">  1       -2 0.20548718E+00 0.57131953E+03</pdfrwt>
<totfact> 0.14562907E+01</totfact>
</mgrwt>
</event>
<event>
 4    1  0.4840632E-008  0.7853415E+03  0.7818608E-02  0.9581480E-01
         -2   -1    0    0    0  501 -0.00000000000E+00  0.00000000000E+00  0.40865221722E+03  0.40865221723E+03  0.25500000000E-02 0.  1.
          2   -1    0    0  501    0  0.00000000000E+00 -0.00000000000E+00 -0.19787856776E+04  0.19787856776E+04  0.25500000000E-02 0. -1.
    8880022    1    1    2    0    0  0.19162475577E+03 -0.74608956473E+03 -0.13665451944E+04  0.15761367666E+04  0.15294330000E+03 0.  0.
    8880022    1    1    2    0    0 -0.19162475577E+03  0.74608956473E+03 -0.20358826599E+03  0.81130112825E+03  0.15294330000E+03 0.  0.
<mgrwt>
<rscale>  0 0.78534154E+03</rscale>
<asrwt>0</asrwt>
<pdfrwt beam="1">  1        2 0.30442856E+00 0.78534154E+03</pdfrwt>
<pdfrwt beam="2">  1       -2 0.62869573E-01 0.78534154E+03</pdfrwt>
<totfact> 0.16565807E+01</totfact>
</mgrwt>
</event>
<event>
 4    1  0.4840632E-008  0.6418387E+03  0.7818608E-02  0.9822215E-01
          2   -1    0    0  501    0  0.00000000000E+00  0.00000000000E+00  0.12432241207E+04  0.12432241207E+04  0.25500000000E-02 0. -1.
         -2   -1    0    0    0  501 -0.00000000000E+00 -0.00000000000E+00 -0.38080414981E+03  0.38080414982E+03  0.25500000000E-02 0.  1.
    8880022    1    1    2    0    0  0.30198714075E+03 -0.54531550438E+03  0.72380211983E+03  0.96739154130E+03  0.15294330000E+03 0.  0.
    8880022    1    1    2    0    0 -0.30198714075E+03  0.54531550438E+03  0.13861785103E+03  0.65663672920E+03  0.15294330000E+03 0.  1.
<mgrwt>
<rscale>  0 0.64183868E+03</rscale>
<asrwt>0</asrwt>
<pdfrwt beam="1">  1        2 0.19126525E+00 0.64183868E+03</pdfrwt>
<pdfrwt beam="2">  1       -2 0.58585254E-01 0.64183868E+03</pdfrwt>
<totfact> 0.50071397E+01</totfact>
</mgrwt>
</event>
<event>
 4    1  0.4840632E-008  0.5480177E+03  0.7818608E-02  0.1001954E+00
          2   -1    0    0  501    0  0.00000000000E+00  0.00000000000E+00  0.49591765268E+03  0.49591765269E+03  0.25500000000E-02 0. -1.
         -2   -1    0    0    0  501 -0.00000000000E+00 -0.00000000000E+00 -0.89571555530E+03  0.89571555531E+03  0.25500000000E-02 0.  1.
    8880022    1    1    2    0    0  0.63499339723E+02  0.52239795713E+03  0.19610699357E+03  0.58204930865E+03  0.15294330000E+03 0.  0.
    8880022    1    1    2    0    0 -0.63499339723E+02 -0.52239795713E+03 -0.59590489620E+03  0.80958389935E+03  0.15294330000E+03 0.  0.
<mgrwt>
<rscale>  0 0.54801774E+03</rscale>
<asrwt>0</asrwt>
<pdfrwt beam="1">  1        2 0.76295024E-01 0.54801774E+03</pdfrwt>
<pdfrwt beam="2">  1       -2 0.13780239E+00 0.54801774E+03</pdfrwt>
<totfact> 0.24026585E+01</totfact>
</mgrwt>
</event>
<event>
 4    1  0.4840632E-008  0.8655653E+03  0.7818608E-02  0.9469681E-01
          2   -1    0    0  501    0  0.00000000000E+00  0.00000000000E+00  0.12841355125E+04  0.12841355125E+04  0.25500000000E-02 0. -1.
         -2   -1    0    0    0  501 -0.00000000000E+00 -0.00000000000E+00 -0.82848320220E+03  0.82848320220E+03  0.25500000000E-02 0.  1.
    8880022    1    1    2    0    0  0.22408838378E+03  0.82194647038E+03 -0.34665979602E+03  0.93240349158E+03  0.15294330000E+03 0.  0.
    8880022    1    1    2    0    0 -0.22408838378E+03 -0.82194647038E+03  0.80231210630E+03  0.11802152231E+04  0.15294330000E+03 0.  0.
<mgrwt>
<rscale>  0 0.86556528E+03</rscale>
<asrwt>0</asrwt>
<pdfrwt beam="1">  1        2 0.19755931E+00 0.86556528E+03</pdfrwt>
<pdfrwt beam="2">  1       -2 0.12745895E+00 0.86556528E+03</pdfrwt>
<totfact> 0.77629264E+00</totfact>
</mgrwt>
</event>
<event>
 4    1  0.4840632E-008  0.8621503E+03  0.7818608E-02  0.9474173E-01
         -2   -1    0    0    0  501 -0.00000000000E+00  0.00000000000E+00  0.11183561730E+04  0.11183561730E+04  0.25500000000E-02 0.  1.
          2   -1    0    0  501    0  0.00000000000E+00 -0.00000000000E+00 -0.13689682842E+04  0.13689682842E+04  0.25500000000E-02 0. -1.
    8880022    1    1    2    0    0 -0.24771858179E+02 -0.84811433537E+03 -0.10173650936E+04  0.13335422594E+04  0.15294330000E+03 0.  0.
    8880022    1    1    2    0    0  0.24771858179E+02  0.84811433537E+03  0.76675298241E+03  0.11537821978E+04  0.15294330000E+03 0.  1.
<mgrwt>
<rscale>  0 0.86215035E+03</rscale>
<asrwt>0</asrwt>
<pdfrwt beam="1">  1        2 0.21061051E+00 0.86215035E+03</pdfrwt>
<pdfrwt beam="2">  1       -2 0.17205479E+00 0.86215035E+03</pdfrwt>
<totfact> 0.31362621E+00</totfact>
</mgrwt>
</event>
<event>
 4    1  0.4840632E-008  0.4953695E+03  0.7818608E-02  0.1014995E+00
         -2   -1    0    0    0  501 -0.00000000000E+00  0.00000000000E+00  0.55052690955E+03  0.55052690956E+03  0.25500000000E-02 0.  1.
          2   -1    0    0  501    0  0.00000000000E+00 -0.00000000000E+00 -0.11201300992E+04  0.11201300992E+04  0.25500000000E-02 0. -1.
    8880022    1    1    2    0    0 -0.46229691075E+03 -0.90999371097E+02  0.36335386312E+03  0.61434273992E+03  0.15294330000E+03 0.  0.
    8880022    1    1    2    0    0  0.46229691075E+03  0.90999371097E+02 -0.93295705273E+03  0.10563142688E+04  0.15294330000E+03 0.  0.
<mgrwt>
<rscale>  0 0.49536953E+03</rscale>
<asrwt>0</asrwt>
<pdfrwt beam="1">  1        2 0.17232771E+00 0.49536953E+03</pdfrwt>
<pdfrwt beam="2">  1       -2 0.84696448E-01 0.49536953E+03</pdfrwt>
<totfact> 0.27038032E+01</totfact>
</mgrwt>
</event>
<event>
 4    1  0.4840632E-008  0.4509095E+03  0.7818608E-02  0.1027451E+00
         -2   -1    0    0    0  501 -0.00000000000E+00  0.00000000000E+00  0.24326900417E+03  0.24326900419E+03  0.25500000000E-02 0.  1.
          2   -1    0    0  501    0  0.00000000000E+00 -0.00000000000E+00 -0.13430622155E+04  0.13430622155E+04  0.25500000000E-02 0. -1.
    8880022    1    1    2    0    0  0.15096032250E+03 -0.39640728252E+03 -0.10373583777E+04  0.11311197149E+04  0.15294330000E+03 0.  0.
    8880022    1    1    2    0    0 -0.15096032250E+03  0.39640728252E+03 -0.62434833585E+02  0.45521150476E+03  0.15294330000E+03 0.  0.
<mgrwt>
<rscale>  0 0.45090953E+03</rscale>
<asrwt>0</asrwt>
<pdfrwt beam="1">  1        2 0.20662495E+00 0.45090953E+03</pdfrwt>
<pdfrwt beam="2">  1       -2 0.37426001E-01 0.45090953E+03</pdfrwt>
<totfact> 0.11022872E+02</totfact>
</mgrwt>
</event>
<event>
 4    1  0.4840632E-008  0.4324644E+03  0.7818608E-02  0.1033084E+00
          2   -1    0    0  501    0  0.00000000000E+00  0.00000000000E+00  0.79790375466E+03  0.79790375466E+03  0.25500000000E-02 0. -1.
         -2   -1    0    0    0  501 -0.00000000000E+00 -0.00000000000E+00 -0.20202266602E+04  0.20202266602E+04  0.25500000000E-02 0.  1.
    8880022    1    1    2    0    0  0.39551781465E+03 -0.84849459462E+02  0.71364118271E+03  0.83445141450E+03  0.15294330000E+03 0.  0.
    8880022    1    1    2    0    0 -0.39551781465E+03  0.84849459462E+02 -0.19359640882E+04  0.19836790003E+04  0.15294330000E+03 0.  0.
<mgrwt>
<rscale>  0 0.43246436E+03</rscale>
<asrwt>0</asrwt>
<pdfrwt beam="1">  1        2 0.12275442E+00 0.43246436E+03</pdfrwt>
<pdfrwt beam="2">  1       -2 0.31080410E+00 0.43246436E+03</pdfrwt>
<totfact> 0.10670237E+00</totfact>
</mgrwt>
</event>
<event>
 4    1  0.4840632E-008  0.5162919E+03  0.7818608E-02  0.1009612E+00
          2   -1    0    0  501    0  0.00000000000E+00  0.00000000000E+00  0.48351015364E+03  0.48351015365E+03  0.25500000000E-02 0. -1.
         -2   -1    0    0    0  501 -0.00000000000E+00 -0.00000000000E+00 -0.97048302998E+03  0.97048302999E+03  0.25500000000E-02 0.  1.
    8880022    1    1    2    0    0  0.68443449802E+02  0.48834535514E+03 -0.72128207555E+03  0.88702039279E+03  0.15294330000E+03 0.  0.
    8880022    1    1    2    0    0 -0.68443449802E+02 -0.48834535514E+03  0.23430919921E+03  0.56697279084E+03  0.15294330000E+03 0.  0.
<mgrwt>
<rscale>  0 0.51629192E+03</rscale>
<asrwt>0</asrwt>
<pdfrwt beam="1">  1        2 0.74386178E-01 0.51629192E+03</pdfrwt>
<pdfrwt beam="2">  1       -2 0.14930508E+00 0.51629192E+03</pdfrwt>
<totfact> 0.20165791E+01</totfact>
</mgrwt>
</event>
<event>
 4    1  0.4840632E-008  0.6714360E+03  0.7818608E-02  0.9767367E-01
          2   -1    0    0  501    0  0.00000000000E+00  0.00000000000E+00  0.21305751182E+04  0.21305751182E+04  0.25500000000E-02 0. -1.
         -2   -1    0    0    0  501 -0.00000000000E+00 -0.00000000000E+00 -0.26824155566E+03  0.26824155568E+03  0.25500000000E-02 0.  1.
    8880022    1    1    2    0    0  0.62057389095E+03 -0.20572476756E+03  0.38000670436E+03  0.77151239944E+03  0.15294330000E+03 0.  0.
    8880022    1    1    2    0    0 -0.62057389095E+03  0.20572476756E+03  0.14823268582E+04  0.16273042745E+04  0.15294330000E+03 0.  0.
<mgrwt>
<rscale>  0 0.67143599E+03</rscale>
<asrwt>0</asrwt>
<pdfrwt beam="1">  1        2 0.32778079E+00 0.67143599E+03</pdfrwt>
<pdfrwt beam="2">  1       -2 0.41267931E-01 0.67143599E+03</pdfrwt>
<totfact> 0.32874818E+01</totfact>
</mgrwt>
</event>
<event>
 4    1  0.4840632E-008  0.9910853E+03  0.7818608E-02  0.9318377E-01
         -2   -1    0    0    0  501 -0.00000000000E+00  0.00000000000E+00  0.67838644044E+03  0.67838644045E+03  0.25500000000E-02 0.  1.
          2   -1    0    0  501    0  0.00000000000E+00 -0.00000000000E+00 -0.23837691188E+04  0.23837691188E+04  0.25500000000E-02 0. -1.
    8880022    1    1    2    0    0 -0.72029316815E+03  0.66335223422E+03 -0.18120208529E+04  0.20653497667E+04  0.15294330000E+03 0.  0.
    8880022    1    1    2    0    0  0.72029316815E+03 -0.66335223422E+03  0.10663817451E+03  0.99680579252E+03  0.15294330000E+03 0.  0.
<mgrwt>
<rscale>  0 0.99108531E+03</rscale>
<asrwt>0</asrwt>
<pdfrwt beam="1">  1        2 0.36673371E+00 0.99108531E+03</pdfrwt>
<pdfrwt beam="2">  1       -2 0.10436715E+00 0.99108531E+03</pdfrwt>
<totfact> 0.30515544E+00</totfact>
</mgrwt>
</event>
<event>
 4    1  0.4840632E-008  0.4681961E+03  0.7818608E-02  0.1022431E+00
          2   -1    0    0  501    0  0.00000000000E+00  0.00000000000E+00  0.21855573535E+04  0.21855573535E+04  0.25500000000E-02 0. -1.
         -2   -1    0    0    0  501 -0.00000000000E+00 -0.00000000000E+00 -0.24538705478E+03  0.24538705480E+03  0.25500000000E-02 0.  1.
    8880022    1    1    2    0    0 -0.39776509114E+03  0.19390428389E+03  0.35462826962E+02  0.46953722339E+03  0.15294330000E+03 0.  0.
    8880022    1    1    2    0    0  0.39776509114E+03 -0.19390428389E+03  0.19047074718E+04  0.19614071849E+04  0.15294330000E+03 0.  0.
<mgrwt>
<rscale>  0 0.46819610E+03</rscale>
<asrwt>0</asrwt>
<pdfrwt beam="1">  1        2 0.33623960E+00 0.46819610E+03</pdfrwt>
<pdfrwt beam="2">  1       -2 0.37751853E-01 0.46819610E+03</pdfrwt>
<totfact> 0.37801174E+01</totfact>
</mgrwt>
</event>
<event>
 4    1  0.4840632E-008  0.8260458E+03  0.7818608E-02  0.9523064E-01
          2   -1    0    0  501    0  0.00000000000E+00  0.00000000000E+00  0.11258538992E+04  0.11258538992E+04  0.25500000000E-02 0. -1.
         -2   -1    0    0    0  501 -0.00000000000E+00 -0.00000000000E+00 -0.11901941614E+04  0.11901941614E+04  0.25500000000E-02 0.  1.
    8880022    1    1    2    0    0  0.25460015249E+03 -0.77080403120E+03  0.77908870876E+03  0.11354871031E+04  0.15294330000E+03 0.  0.
    8880022    1    1    2    0    0 -0.25460015249E+03  0.77080403120E+03 -0.84342897104E+03  0.11805609575E+04  0.15294330000E+03 0.  0.
<mgrwt>
<rscale>  0 0.82604585E+03</rscale>
<asrwt>0</asrwt>
<pdfrwt beam="1">  1        2 0.17320829E+00 0.82604585E+03</pdfrwt>
<pdfrwt beam="2">  1       -2 0.18310679E+00 0.82604585E+03</pdfrwt>
<totfact> 0.36710107E+00</totfact>
</mgrwt>
</event>
<event>
 4    1  0.4840632E-008  0.5090815E+03  0.7818608E-02  0.1011435E+00
          2   -1    0    0  501    0  0.00000000000E+00  0.00000000000E+00  0.15846230805E+04  0.15846230805E+04  0.25500000000E-02 0. -1.
         -2   -1    0    0    0  501 -0.00000000000E+00 -0.00000000000E+00 -0.38476280090E+03  0.38476280091E+03  0.25500000000E-02 0.  1.
    8880022    1    1    2    0    0 -0.22467401617E+03 -0.43045780303E+03  0.13465681675E+04  0.14395866825E+04  0.15294330000E+03 0.  0.
    8880022    1    1    2    0    0  0.22467401617E+03  0.43045780303E+03 -0.14670788792E+03  0.52979919887E+03  0.15294330000E+03 0.  0.
<mgrwt>
<rscale>  0 0.50908151E+03</rscale>
<asrwt>0</asrwt>
<pdfrwt beam="1">  1        2 0.24378817E+00 0.50908151E+03</pdfrwt>
<pdfrwt beam="2">  1       -2 0.59194277E-01 0.50908151E+03</pdfrwt>
<totfact> 0.32138932E+01</totfact>
</mgrwt>
</event>
<event>
 4    1  0.4840632E-008  0.6449200E+03  0.7818608E-02  0.9816358E-01
          2   -1    0    0  501    0  0.00000000000E+00  0.00000000000E+00  0.19080075988E+04  0.19080075988E+04  0.25500000000E-02 0. -1.
         -2   -1    0    0    0  501 -0.00000000000E+00 -0.00000000000E+00 -0.31652935578E+03  0.31652935579E+03  0.25500000000E-02 0.  1.
    8880022    1    1    2    0    0 -0.57096062698E+03 -0.25794217690E+03  0.17513744858E+03  0.66827762427E+03  0.15294330000E+03 0.  0.
    8880022    1    1    2    0    0  0.57096062698E+03  0.25794217690E+03  0.14163407944E+04  0.15562593303E+04  0.15294330000E+03 0.  0.
<mgrwt>
<rscale>  0 0.64492004E+03</rscale>
<asrwt>0</asrwt>
<pdfrwt beam="1">  1        2 0.29353963E+00 0.64492004E+03</pdfrwt>
<pdfrwt beam="2">  1       -2 0.48696824E-01 0.64492004E+03</pdfrwt>
<totfact> 0.31383088E+01</totfact>
</mgrwt>
</event>
<event>
 4    1  0.4840632E-008  0.3931259E+03  0.7818608E-02  0.1046186E+00
          2   -1    0    0  501    0  0.00000000000E+00  0.00000000000E+00  0.68968234504E+03  0.68968234505E+03  0.25500000000E-02 0. -1.
         -2   -1    0    0    0  501 -0.00000000000E+00 -0.00000000000E+00 -0.40113541074E+03  0.40113541075E+03  0.25500000000E-02 0.  1.
    8880022    1    1    2    0    0  0.32443583471E+03 -0.16092764321E+03 -0.21807320651E+03  0.44955966635E+03  0.15294330000E+03 0.  0.
    8880022    1    1    2    0    0 -0.32443583471E+03  0.16092764321E+03  0.50662014081E+03  0.64125808945E+03  0.15294330000E+03 0. -1.
<mgrwt>
<rscale>  0 0.39312590E+03</rscale>
<asrwt>0</asrwt>
<pdfrwt beam="1">  1        2 0.10610498E+00 0.39312590E+03</pdfrwt>
<pdfrwt beam="2">  1       -2 0.61713140E-01 0.39312590E+03</pdfrwt>
<totfact> 0.10607388E+02</totfact>
</mgrwt>
</event>
<event>
 4    1  0.4840632E-008  0.4529224E+03  0.7818608E-02  0.1026854E+00
          2   -1    0    0  501    0  0.00000000000E+00  0.00000000000E+00  0.53046155067E+03  0.53046155067E+03  0.25500000000E-02 0. -1.
         -2   -1    0    0    0  501 -0.00000000000E+00 -0.00000000000E+00 -0.55161990830E+03  0.55161990830E+03  0.25500000000E-02 0.  1.
    8880022    1    1    2    0    0 -0.42523238948E+03  0.30404580213E+02 -0.30639657639E+03  0.54682496157E+03  0.15294330000E+03 0.  0.
    8880022    1    1    2    0    0  0.42523238948E+03 -0.30404580213E+02  0.28523821876E+03  0.53525649741E+03  0.15294330000E+03 0.  0.
<mgrwt>
<rscale>  0 0.45292237E+03</rscale>
<asrwt>0</asrwt>
<pdfrwt beam="1">  1        2 0.81609469E-01 0.45292237E+03</pdfrwt>
<pdfrwt beam="2">  1       -2 0.84864602E-01 0.45292237E+03</pdfrwt>
<totfact> 0.71913516E+01</totfact>
</mgrwt>
</event>
<event>
 4    1  0.6740398E-008  0.6204397E+03  0.7818608E-02  0.9863885E-01
          2   -1    0    0  501    0  0.00000000000E+00  0.00000000000E+00  0.15540702637E+04  0.15540702637E+04  0.25500000000E-02 0. -1.
         -2   -1    0    0    0  501 -0.00000000000E+00 -0.00000000000E+00 -0.15200442340E+04  0.15200442340E+04  0.25500000000E-02 0.  1.
    8880022    1    1    2    0    0  0.60122353518E+03  0.91639789254E+01  0.14232677744E+04  0.15526224681E+04  0.15294330000E+03 0.  0.
    8880022    1    1    2    0    0 -0.60122353518E+03 -0.91639789254E+01 -0.13892417447E+04  0.15214920296E+04  0.15294330000E+03 0.  0.
<mgrwt>
<rscale>  0 0.62043966E+03</rscale>
<asrwt>0</asrwt>
<pdfrwt beam="1">  1        2 0.23908773E+00 0.62043966E+03</pdfrwt>
<pdfrwt beam="2">  1       -2 0.23385296E+00 0.62043966E+03</pdfrwt>
<totfact> 0.10238242E+00</totfact>
</mgrwt>
</event>
<event>
 4    1  0.4840632E-008  0.2872421E+03  0.7818608E-02  0.1091798E+00
          2   -1    0    0  501    0  0.00000000000E+00  0.00000000000E+00  0.24871863464E+04  0.24871863464E+04  0.25500000000E-02 0. -1.
         -2   -1    0    0    0  501 -0.00000000000E+00 -0.00000000000E+00 -0.17180493131E+03  0.17180493133E+03  0.25500000000E-02 0.  1.
    8880022    1    1    2    0    0  0.16906610406E+03  0.17473703336E+03 -0.36573355912E+02  0.28956111919E+03  0.15294330000E+03 0.  0.
    8880022    1    1    2    0    0 -0.16906610406E+03 -0.17473703336E+03  0.23519547710E+04  0.23694301586E+04  0.15294330000E+03 0.  0.
<mgrwt>
<rscale>  0 0.28724211E+03</rscale>
<asrwt>0</asrwt>
<pdfrwt beam="1">  1        2 0.38264402E+00 0.28724211E+03</pdfrwt>
<pdfrwt beam="2">  1       -2 0.26431530E-01 0.28724211E+03</pdfrwt>
<totfact> 0.52640720E+01</totfact>
</mgrwt>
</event>
<event>
 4    1  0.4840632E-008  0.4214015E+03  0.7818608E-02  0.1036611E+00
          2   -1    0    0  501    0  0.00000000000E+00  0.00000000000E+00  0.10581237924E+04  0.10581237924E+04  0.25500000000E-02 0. -1.
         -2   -1    0    0    0  501 -0.00000000000E+00 -0.00000000000E+00 -0.42292196258E+03  0.42292196259E+03  0.25500000000E-02 0.  1.
    8880022    1    1    2    0    0 -0.37062650638E+03 -0.12970555323E+03 -0.25752290352E+03  0.49385953127E+03  0.15294330000E+03 0.  0.
    8880022    1    1    2    0    0  0.37062650638E+03  0.12970555323E+03  0.89272473337E+03  0.98718622375E+03  0.15294330000E+03 0.  0.
<mgrwt>
<rscale>  0 0.42140146E+03</rscale>
<asrwt>0</asrwt>
<pdfrwt beam="1">  1        2 0.16278827E+00 0.42140146E+03</pdfrwt>
<pdfrwt beam="2">  1       -2 0.65064918E-01 0.42140146E+03</pdfrwt>
<totfact> 0.53204348E+01</totfact>
</mgrwt>
</event>
<event>
 4    1  0.4840632E-008  0.1056944E+04  0.7818608E-02  0.9248204E-01
          2   -1    0    0  501    0  0.00000000000E+00  0.00000000000E+00  0.10491878262E+04  0.10491878262E+04  0.25500000000E-02 0. -1.
         -2   -1    0    0    0  501 -0.00000000000E+00 -0.00000000000E+00 -0.11944744768E+04  0.11944744768E+04  0.25500000000E-02 0.  1.
    8880022    1    1    2    0    0 -0.84438348409E+03 -0.61705373442E+03  0.29704671106E+03  0.10978921536E+04  0.15294330000E+03 0.  0.
    8880022    1    1    2    0    0  0.84438348409E+03  0.61705373442E+03 -0.44233336172E+03  0.11457701494E+04  0.15294330000E+03 0.  0.
<mgrwt>
<rscale>  0 0.10569439E+04</rscale>
<asrwt>0</asrwt>
<pdfrwt beam="1">  1        2 0.16141351E+00 0.10569439E+04</pdfrwt>
<pdfrwt beam="2">  1       -2 0.18376531E+00 0.10569439E+04</pdfrwt>
<totfact> 0.39458541E+00</totfact>
</mgrwt>
</event>
<event>
 4    1  0.4840632E-008  0.4497477E+03  0.7818608E-02  0.1027797E+00
         -2   -1    0    0    0  501 -0.00000000000E+00  0.00000000000E+00  0.14219850010E+04  0.14219850010E+04  0.25500000000E-02 0.  1.
          2   -1    0    0  501    0  0.00000000000E+00 -0.00000000000E+00 -0.22655278257E+03  0.22655278258E+03  0.25500000000E-02 0. -1.
    8880022    1    1    2    0    0 -0.40715918549E+03  0.11446711951E+03  0.11005367711E+04  0.11888877834E+04  0.15294330000E+03 0.  0.
    8880022    1    1    2    0    0  0.40715918549E+03 -0.11446711951E+03  0.94895447298E+02  0.45965000023E+03  0.15294330000E+03 0. -1.
<mgrwt>
<rscale>  0 0.44974768E+03</rscale>
<asrwt>0</asrwt>
<pdfrwt beam="1">  1        2 0.34854275E-01 0.44974768E+03</pdfrwt>
<pdfrwt beam="2">  1       -2 0.21876692E+00 0.44974768E+03</pdfrwt>
<totfact> 0.15957290E+01</totfact>
</mgrwt>
</event>
<event>
 4    1  0.4840632E-008  0.6133394E+03  0.7818608E-02  0.9878111E-01
         -2   -1    0    0    0  501 -0.00000000000E+00  0.00000000000E+00  0.39497823667E+03  0.39497823667E+03  0.25500000000E-02 0.  1.
          2   -1    0    0  501    0  0.00000000000E+00 -0.00000000000E+00 -0.33164360858E+04  0.33164360858E+04  0.25500000000E-02 0. -1.
    8880022    1    1    2    0    0  0.58534191309E+03  0.10083866956E+03 -0.30274757533E+04  0.30889795536E+04  0.15294330000E+03 0. -1.
    8880022    1    1    2    0    0 -0.58534191309E+03 -0.10083866956E+03  0.10601790419E+03  0.62243476889E+03  0.15294330000E+03 0.  0.
<mgrwt>
<rscale>  0 0.61333942E+03</rscale>
<asrwt>0</asrwt>
<pdfrwt beam="1">  1        2 0.51022092E+00 0.61333942E+03</pdfrwt>
<pdfrwt beam="2">  1       -2 0.60765885E-01 0.61333942E+03</pdfrwt>
<totfact> 0.30509791E+00</totfact>
</mgrwt>
</event>
<event>
 4    1  0.4840632E-008  0.6324093E+03  0.7818608E-02  0.9840358E-01
         -2   -1    0    0    0  501 -0.00000000000E+00  0.00000000000E+00  0.33000404944E+03  0.33000404945E+03  0.25500000000E-02 0.  1.
          2   -1    0    0  501    0  0.00000000000E+00 -0.00000000000E+00 -0.20174486101E+04  0.20174486101E+04  0.25500000000E-02 0. -1.
    8880022    1    1    2    0    0  0.53422494326E+03  0.30191654816E+03 -0.15853801517E+04  0.17068602082E+04  0.15294330000E+03 0.  0.
    8880022    1    1    2    0    0 -0.53422494326E+03 -0.30191654816E+03 -0.10206440893E+03  0.64059245128E+03  0.15294330000E+03 0.  0.
<mgrwt>
<rscale>  0 0.63240932E+03</rscale>
<asrwt>0</asrwt>
<pdfrwt beam="1">  1        2 0.31037670E+00 0.63240932E+03</pdfrwt>
<pdfrwt beam="2">  1       -2 0.50769855E-01 0.63240932E+03</pdfrwt>
<totfact> 0.25202094E+01</totfact>
</mgrwt>
</event>
<event>
 4    1  0.4840632E-008  0.6651701E+03  0.7818608E-02  0.9778723E-01
         -2   -1    0    0    0  501 -0.00000000000E+00  0.00000000000E+00  0.60857806889E+03  0.60857806889E+03  0.25500000000E-02 0.  1.
          2   -1    0    0  501    0  0.00000000000E+00 -0.00000000000E+00 -0.14888111889E+04  0.14888111889E+04  0.25500000000E-02 0. -1.
    8880022    1    1    2    0    0 -0.59110511976E+03 -0.26392104032E+03  0.31002960120E+03  0.73387300316E+03  0.15294330000E+03 0.  1.
    8880022    1    1    2    0    0  0.59110511976E+03  0.26392104032E+03 -0.11902627212E+04  0.13635162547E+04  0.15294330000E+03 0. -1.
<mgrwt>
<rscale>  0 0.66517008E+03</rscale>
<asrwt>0</asrwt>
<pdfrwt beam="1">  1        2 0.22904787E+00 0.66517008E+03</pdfrwt>
<pdfrwt beam="2">  1       -2 0.93627395E-01 0.66517008E+03</pdfrwt>
<totfact> 0.12871488E+01</totfact>
</mgrwt>
</event>
<event>
 4    1  0.4840632E-008  0.3422387E+03  0.7818608E-02  0.1065846E+00
          2   -1    0    0  501    0  0.00000000000E+00  0.00000000000E+00  0.40166463035E+03  0.40166463036E+03  0.25500000000E-02 0. -1.
         -2   -1    0    0    0  501 -0.00000000000E+00 -0.00000000000E+00 -0.30737728366E+03  0.30737728367E+03  0.25500000000E-02 0.  1.
    8880022    1    1    2    0    0 -0.19396573527E+03  0.23688176417E+03  0.12745119572E+03  0.36520013275E+03  0.15294330000E+03 0.  0.
    8880022    1    1    2    0    0  0.19396573527E+03 -0.23688176417E+03 -0.33163849026E+02  0.34384178128E+03  0.15294330000E+03 0. -1.
<mgrwt>
<rscale>  0 0.34223870E+03</rscale>
<asrwt>0</asrwt>
<pdfrwt beam="1">  1        2 0.61794558E-01 0.34223870E+03</pdfrwt>
<pdfrwt beam="2">  1       -2 0.47288813E-01 0.34223870E+03</pdfrwt>
<totfact> 0.34243953E+02</totfact>
</mgrwt>
</event>
<event>
 4    1  0.4840632E-008  0.7718192E+03  0.7818608E-02  0.9601728E-01
         -2   -1    0    0    0  501 -0.00000000000E+00  0.00000000000E+00  0.56143878783E+03  0.56143878784E+03  0.25500000000E-02 0.  1.
          2   -1    0    0  501    0  0.00000000000E+00 -0.00000000000E+00 -0.16267911880E+04  0.16267911880E+04  0.25500000000E-02 0. -1.
    8880022    1    1    2    0    0  0.47386288500E+02  0.75502832916E+03  0.11255092365E+03  0.77998243672E+03  0.15294330000E+03 0.  0.
    8880022    1    1    2    0    0 -0.47386288500E+02 -0.75502832916E+03 -0.11779033238E+04  0.14082475391E+04  0.15294330000E+03 0.  0.
<mgrwt>
<rscale>  0 0.77181921E+03</rscale>
<asrwt>0</asrwt>
<pdfrwt beam="1">  1        2 0.25027556E+00 0.77181921E+03</pdfrwt>
<pdfrwt beam="2">  1       -2 0.86375199E-01 0.77181921E+03</pdfrwt>
<totfact> 0.12813235E+01</totfact>
</mgrwt>
</event>
<event>
 4    1  0.4840632E-008  0.7697643E+03  0.7818608E-02  0.9604844E-01
         -2   -1    0    0    0  501 -0.00000000000E+00  0.00000000000E+00  0.73435072314E+03  0.73435072315E+03  0.25500000000E-02 0.  1.
          2   -1    0    0  501    0  0.00000000000E+00 -0.00000000000E+00 -0.13606717152E+04  0.13606717152E+04  0.25500000000E-02 0. -1.
    8880022    1    1    2    0    0 -0.72701193678E+03  0.20149201906E+03 -0.98143212794E+03  0.12472955002E+04  0.15294330000E+03 0.  0.
    8880022    1    1    2    0    0  0.72701193678E+03 -0.20149201906E+03  0.35511113585E+03  0.84772693822E+03  0.15294330000E+03 0.  0.
<mgrwt>
<rscale>  0 0.76976428E+03</rscale>
<asrwt>0</asrwt>
<pdfrwt beam="1">  1        2 0.20933411E+00 0.76976428E+03</pdfrwt>
<pdfrwt beam="2">  1       -2 0.11297703E+00 0.76976428E+03</pdfrwt>
<totfact> 0.95711591E+00</totfact>
</mgrwt>
</event>
<event>
 4    1  0.4840632E-008  0.7877637E+03  0.7818608E-02  0.9577899E-01
          2   -1    0    0  501    0  0.00000000000E+00  0.00000000000E+00  0.13310049013E+04  0.13310049013E+04  0.25500000000E-02 0. -1.
         -2   -1    0    0    0  501 -0.00000000000E+00 -0.00000000000E+00 -0.10779787460E+04  0.10779787460E+04  0.25500000000E-02 0.  1.
    8880022    1    1    2    0    0  0.62147615077E+03  0.45929017336E+03  0.10338752829E+04  0.12997960697E+04  0.15294330000E+03 0.  0.
    8880022    1    1    2    0    0 -0.62147615077E+03 -0.45929017336E+03 -0.78084912751E+03  0.11091875776E+04  0.15294330000E+03 0.  0.
<mgrwt>
<rscale>  0 0.78776375E+03</rscale>
<asrwt>0</asrwt>
<pdfrwt beam="1">  1        2 0.20476998E+00 0.78776375E+03</pdfrwt>
<pdfrwt beam="2">  1       -2 0.16584289E+00 0.78776375E+03</pdfrwt>
<totfact> 0.36893545E+00</totfact>
</mgrwt>
</event>
<event>
 4    1  0.4840632E-008  0.7677736E+03  0.7818608E-02  0.9607872E-01
         -2   -1    0    0    0  501 -0.00000000000E+00  0.00000000000E+00  0.10155220284E+04  0.10155220284E+04  0.25500000000E-02 0.  1.
          2   -1    0    0  501    0  0.00000000000E+00 -0.00000000000E+00 -0.14648196156E+04  0.14648196156E+04  0.25500000000E-02 0. -1.
    8880022    1    1    2    0    0 -0.12367340280E+02  0.75228429307E+03  0.73896354595E+03  0.10656187798E+04  0.15294330000E+03 0.  0.
    8880022    1    1    2    0    0  0.12367340280E+02 -0.75228429307E+03 -0.11882611331E+04  0.14147228641E+04  0.15294330000E+03 0.  0.
<mgrwt>
<rscale>  0 0.76777357E+03</rscale>
<asrwt>0</asrwt>
<pdfrwt beam="1">  1        2 0.22535686E+00 0.76777357E+03</pdfrwt>
<pdfrwt beam="2">  1       -2 0.15623416E+00 0.76777357E+03</pdfrwt>
<totfact> 0.36553780E+00</totfact>
</mgrwt>
</event>
<event>
 4    1  0.4840632E-008  0.1543305E+04  0.7818608E-02  0.8856155E-01
          2   -1    0    0  501    0  0.00000000000E+00  0.00000000000E+00  0.21598793808E+04  0.21598793808E+04  0.25500000000E-02 0. -1.
         -2   -1    0    0    0  501 -0.00000000000E+00 -0.00000000000E+00 -0.17155187401E+04  0.17155187401E+04  0.25500000000E-02 0.  1.
    8880022    1    1    2    0    0  0.64061356168E+02 -0.15343713327E+04  0.13802629199E+04  0.20704870502E+04  0.15294330000E+03 0.  0.
    8880022    1    1    2    0    0 -0.64061356168E+02  0.15343713327E+04 -0.93590227921E+03  0.18049110707E+04  0.15294330000E+03 0.  0.
<mgrwt>
<rscale>  0 0.15433052E+04</rscale>
<asrwt>0</asrwt>
<pdfrwt beam="1">  1        2 0.33228913E+00 0.15433052E+04</pdfrwt>
<pdfrwt beam="2">  1       -2 0.26392596E+00 0.15433052E+04</pdfrwt>
<totfact> 0.26778467E-01</totfact>
</mgrwt>
</event>
<event>
 4    1  0.4840632E-008  0.4138077E+03  0.7818608E-02  0.1039101E+00
          2   -1    0    0  501    0  0.00000000000E+00  0.00000000000E+00  0.82945077510E+03  0.82945077510E+03  0.25500000000E-02 0. -1.
         -2   -1    0    0    0  501 -0.00000000000E+00 -0.00000000000E+00 -0.24746803679E+03  0.24746803680E+03  0.25500000000E-02 0.  1.
    8880022    1    1    2    0    0 -0.48743489586E+02  0.38140424921E+03  0.51022243821E+03  0.65693509463E+03  0.15294330000E+03 0.  0.
    8880022    1    1    2    0    0  0.48743489586E+02 -0.38140424921E+03  0.71760300097E+02  0.41998371727E+03  0.15294330000E+03 0.  0.
<mgrwt>
<rscale>  0 0.41380766E+03</rscale>
<asrwt>0</asrwt>
<pdfrwt beam="1">  1        2 0.12760781E+00 0.41380766E+03</pdfrwt>
<pdfrwt beam="2">  1       -2 0.38072006E-01 0.41380766E+03</pdfrwt>
<totfact> 0.22053620E+02</totfact>
</mgrwt>
</event>
<event>
 4    1  0.4840632E-008  0.6382341E+03  0.7818608E-02  0.9829111E-01
          2   -1    0    0  501    0  0.00000000000E+00  0.00000000000E+00  0.27058263657E+04  0.27058263657E+04  0.25500000000E-02 0. -1.
         -2   -1    0    0    0  501 -0.00000000000E+00 -0.00000000000E+00 -0.21223617403E+03  0.21223617404E+03  0.25500000000E-02 0.  1.
    8880022    1    1    2    0    0  0.59399440081E+03  0.17641357426E+03  0.20334315383E+04  0.21312406179E+04  0.15294330000E+03 0.  0.
    8880022    1    1    2    0    0 -0.59399440081E+03 -0.17641357426E+03  0.46015865331E+03  0.78682192179E+03  0.15294330000E+03 0.  0.
<mgrwt>
<rscale>  0 0.63823409E+03</rscale>
<asrwt>0</asrwt>
<pdfrwt beam="1">  1        2 0.41628095E+00 0.63823409E+03</pdfrwt>
<pdfrwt beam="2">  1       -2 0.32651722E-01 0.63823409E+03</pdfrwt>
<totfact> 0.24638775E+01</totfact>
</mgrwt>
</event>
<event>
 4    1  0.4840632E-008  0.2070510E+03  0.7818608E-02  0.1143923E+00
         -2   -1    0    0    0  501 -0.00000000000E+00  0.00000000000E+00  0.20456367634E+03  0.20456367636E+03  0.25500000000E-02 0.  1.
          2   -1    0    0  501    0  0.00000000000E+00 -0.00000000000E+00 -0.22786245832E+03  0.22786245833E+03  0.25500000000E-02 0. -1.
    8880022    1    1    2    0    0 -0.62522518189E+02 -0.12477739288E+03 -0.72912442050E+02  0.21951387263E+03  0.15294330000E+03 0. -1.
    8880022    1    1    2    0    0  0.62522518189E+02  0.12477739288E+03  0.49613660075E+02  0.21291226206E+03  0.15294330000E+03 0.  1.
<mgrwt>
<rscale>  0 0.20705100E+03</rscale>
<asrwt>0</asrwt>
<pdfrwt beam="1">  1        2 0.35055763E-01 0.20705100E+03</pdfrwt>
<pdfrwt beam="2">  1       -2 0.31471335E-01 0.20705100E+03</pdfrwt>
<totfact> 0.13734745E+03</totfact>
</mgrwt>
</event>
<event>
 4    1  0.4840632E-008  0.7228987E+03  0.7818608E-02  0.9678854E-01
         -2   -1    0    0    0  501 -0.00000000000E+00  0.00000000000E+00  0.84455795505E+03  0.84455795506E+03  0.25500000000E-02 0.  1.
          2   -1    0    0  501    0  0.00000000000E+00 -0.00000000000E+00 -0.18108076000E+04  0.18108076000E+04  0.25500000000E-02 0. -1.
    8880022    1    1    2    0    0 -0.45472934301E+03 -0.54075140087E+03 -0.15603441603E+04  0.17196675273E+04  0.15294330000E+03 0.  0.
    8880022    1    1    2    0    0  0.45472934301E+03  0.54075140087E+03  0.59409451534E+03  0.93569802774E+03  0.15294330000E+03 0.  0.
<mgrwt>
<rscale>  0 0.72289868E+03</rscale>
<asrwt>0</asrwt>
<pdfrwt beam="1">  1        2 0.27858578E+00 0.72289868E+03</pdfrwt>
<pdfrwt beam="2">  1       -2 0.12993199E+00 0.72289868E+03</pdfrwt>
<totfact> 0.38374089E+00</totfact>
</mgrwt>
</event>
<event>
 4    1  0.4840632E-008  0.5964050E+03  0.7818608E-02  0.9912893E-01
         -2   -1    0    0    0  501 -0.00000000000E+00  0.00000000000E+00  0.12455124054E+04  0.12455124054E+04  0.25500000000E-02 0.  1.
          2   -1    0    0  501    0  0.00000000000E+00 -0.00000000000E+00 -0.40377666965E+03  0.40377666965E+03  0.25500000000E-02 0. -1.
    8880022    1    1    2    0    0 -0.32222415690E+03 -0.47799467158E+03  0.86702786969E+03  0.10523479905E+04  0.15294330000E+03 0.  0.
    8880022    1    1    2    0    0  0.32222415690E+03  0.47799467158E+03 -0.25292133932E+02  0.59694108453E+03  0.15294330000E+03 0.  0.
<mgrwt>
<rscale>  0 0.59640504E+03</rscale>
<asrwt>0</asrwt>
<pdfrwt beam="1">  1        2 0.62119487E-01 0.59640504E+03</pdfrwt>
<pdfrwt beam="2">  1       -2 0.19161730E+00 0.59640504E+03</pdfrwt>
<totfact> 0.12306011E+01</totfact>
</mgrwt>
</event>
<event>
 4    1  0.4840632E-008  0.1279045E+04  0.7818608E-02  0.9046350E-01
          2   -1    0    0  501    0  0.00000000000E+00  0.00000000000E+00  0.15972868296E+04  0.15972868296E+04  0.25500000000E-02 0. -1.
         -2   -1    0    0    0  501 -0.00000000000E+00 -0.00000000000E+00 -0.18695387077E+04  0.18695387077E+04  0.25500000000E-02 0.  1.
    8880022    1    1    2    0    0  0.23958872405E+02 -0.12696419730E+04  0.10294690884E+04  0.16418778956E+04  0.15294330000E+03 0.  0.
    8880022    1    1    2    0    0 -0.23958872405E+02  0.12696419730E+04 -0.13017209665E+04  0.18249476417E+04  0.15294330000E+03 0.  0.
<mgrwt>
<rscale>  0 0.12790451E+04</rscale>
<asrwt>0</asrwt>
<pdfrwt beam="1">  1        2 0.24573644E+00 0.12790451E+04</pdfrwt>
<pdfrwt beam="2">  1       -2 0.28762134E+00 0.12790451E+04</pdfrwt>
<totfact> 0.40831710E-01</totfact>
</mgrwt>
</event>
<event>
 4    1  0.4840632E-008  0.6127618E+03  0.7818608E-02  0.9879278E-01
          2   -1    0    0  501    0  0.00000000000E+00  0.00000000000E+00  0.17427651955E+04  0.17427651955E+04  0.25500000000E-02 0. -1.
         -2   -1    0    0    0  501 -0.00000000000E+00 -0.00000000000E+00 -0.60723136337E+03  0.60723136337E+03  0.25500000000E-02 0.  1.
    8880022    1    1    2    0    0  0.40415733858E+03 -0.43444468282E+03  0.15115725889E+04  0.16310514036E+04  0.15294330000E+03 0.  0.
    8880022    1    1    2    0    0 -0.40415733858E+03  0.43444468282E+03 -0.37603875671E+03  0.71894515530E+03  0.15294330000E+03 0.  0.
<mgrwt>
<rscale>  0 0.61276177E+03</rscale>
<asrwt>0</asrwt>
<pdfrwt beam="1">  1        2 0.26811772E+00 0.61276177E+03</pdfrwt>
<pdfrwt beam="2">  1       -2 0.93420211E-01 0.61276177E+03</pdfrwt>
<totfact> 0.94715430E+00</totfact>
</mgrwt>
</event>
<event>
 4    1  0.4840632E-008  0.2991237E+03  0.7818608E-02  0.1085679E+00
         -2   -1    0    0    0  501 -0.00000000000E+00  0.00000000000E+00  0.61732496019E+03  0.61732496020E+03  0.25500000000E-02 0.  1.
          2   -1    0    0  501    0  0.00000000000E+00 -0.00000000000E+00 -0.41282691995E+03  0.41282691996E+03  0.25500000000E-02 0. -1.
    8880022    1    1    2    0    0 -0.18696449892E+03  0.17643016656E+03 -0.31266980919E+03  0.43270935988E+03  0.15294330000E+03 0.  0.
    8880022    1    1    2    0    0  0.18696449892E+03 -0.17643016656E+03  0.51716784944E+03  0.59744252028E+03  0.15294330000E+03 0.  0.
<mgrwt>
<rscale>  0 0.29912369E+03</rscale>
<asrwt>0</asrwt>
<pdfrwt beam="1">  1        2 0.63511834E-01 0.29912369E+03</pdfrwt>
<pdfrwt beam="2">  1       -2 0.94973070E-01 0.29912369E+03</pdfrwt>
<totfact> 0.75055985E+01</totfact>
</mgrwt>
</event>
<event>
 4    1  0.4840632E-008  0.5647635E+03  0.7818608E-02  0.9981334E-01
          2   -1    0    0  501    0  0.00000000000E+00  0.00000000000E+00  0.61618356665E+03  0.61618356665E+03  0.25500000000E-02 0. -1.
         -2   -1    0    0    0  501 -0.00000000000E+00 -0.00000000000E+00 -0.55313538728E+03  0.55313538728E+03  0.25500000000E-02 0.  1.
    8880022    1    1    2    0    0  0.31131186490E+03 -0.44570294910E+03  0.17964184012E+03  0.59264579624E+03  0.15294330000E+03 0. -1.
    8880022    1    1    2    0    0 -0.31131186490E+03  0.44570294910E+03 -0.11659366075E+03  0.57667315770E+03  0.15294330000E+03 0.  0.
<mgrwt>
<rscale>  0 0.56476353E+03</rscale>
<asrwt>0</asrwt>
<pdfrwt beam="1">  1        2 0.94797471E-01 0.56476353E+03</pdfrwt>
<pdfrwt beam="2">  1       -2 0.85097752E-01 0.56476353E+03</pdfrwt>
<totfact> 0.59264257E+01</totfact>
</mgrwt>
</event>
<event>
 4    1  0.4840632E-008  0.4137806E+03  0.7818608E-02  0.1039110E+00
          2   -1    0    0  501    0  0.00000000000E+00  0.00000000000E+00  0.10906079551E+04  0.10906079551E+04  0.25500000000E-02 0. -1.
         -2   -1    0    0    0  501 -0.00000000000E+00 -0.00000000000E+00 -0.31831155549E+03  0.31831155550E+03  0.25500000000E-02 0.  1.
    8880022    1    1    2    0    0  0.30460759475E+03 -0.23459946279E+03  0.88765453835E+03  0.97935944739E+03  0.15294330000E+03 0.  0.
    8880022    1    1    2    0    0 -0.30460759475E+03  0.23459946279E+03 -0.11535813873E+03  0.42956006321E+03  0.15294330000E+03 0.  0.
<mgrwt>
<rscale>  0 0.41378056E+03</rscale>
<asrwt>0</asrwt>
<pdfrwt beam="1">  1        2 0.16778584E+00 0.41378056E+03</pdfrwt>
<pdfrwt beam="2">  1       -2 0.48971008E-01 0.41378056E+03</pdfrwt>
<totfact> 0.91617988E+01</totfact>
</mgrwt>
</event>
<event>
 4    1  0.4840632E-008  0.1988442E+03  0.7818608E-02  0.1150718E+00
          2   -1    0    0  501    0  0.00000000000E+00  0.00000000000E+00  0.31574300776E+03  0.31574300777E+03  0.25500000000E-02 0. -1.
         -2   -1    0    0    0  501 -0.00000000000E+00 -0.00000000000E+00 -0.17281000573E+03  0.17281000575E+03  0.25500000000E-02 0.  1.
    8880022    1    1    2    0    0  0.12688279657E+03 -0.69359413440E+01 -0.56716689032E+02  0.20677472567E+03  0.15294330000E+03 0. -1.
    8880022    1    1    2    0    0 -0.12688279657E+03  0.69359413440E+01  0.19964969106E+03  0.28177828785E+03  0.15294330000E+03 0. -1.
<mgrwt>
<rscale>  0 0.19884417E+03</rscale>
<asrwt>0</asrwt>
<pdfrwt beam="1">  1        2 0.48575847E-01 0.19884417E+03</pdfrwt>
<pdfrwt beam="2">  1       -2 0.26586155E-01 0.19884417E+03</pdfrwt>
<totfact> 0.13092477E+03</totfact>
</mgrwt>
</event>
<event>
 4    1  0.4840632E-008  0.2161009E+03  0.7818608E-02  0.1136824E+00
         -2   -1    0    0    0  501 -0.00000000000E+00  0.00000000000E+00  0.29865943218E+03  0.29865943219E+03  0.25500000000E-02 0.  1.
          2   -1    0    0  501    0  0.00000000000E+00 -0.00000000000E+00 -0.32143293107E+03  0.32143293108E+03  0.25500000000E-02 0. -1.
    8880022    1    1    2    0    0  0.10924441007E+03  0.10664700891E+03 -0.23357131854E+03  0.31820612737E+03  0.15294330000E+03 0.  0.
    8880022    1    1    2    0    0 -0.10924441007E+03 -0.10664700891E+03  0.21079781964E+03  0.30188623589E+03  0.15294330000E+03 0.  1.
<mgrwt>
<rscale>  0 0.21610085E+03</rscale>
<asrwt>0</asrwt>
<pdfrwt beam="1">  1        2 0.49451220E-01 0.21610085E+03</pdfrwt>
<pdfrwt beam="2">  1       -2 0.45947605E-01 0.21610085E+03</pdfrwt>
<totfact> 0.46350305E+02</totfact>
</mgrwt>
</event>
<event>
 4    1  0.4840632E-008  0.4798811E+03  0.7818608E-02  0.1019168E+00
         -2   -1    0    0    0  501 -0.00000000000E+00  0.00000000000E+00  0.76721501360E+03  0.76721501361E+03  0.25500000000E-02 0.  1.
          2   -1    0    0  501    0  0.00000000000E+00 -0.00000000000E+00 -0.11176841302E+04  0.11176841302E+04  0.25500000000E-02 0. -1.
    8880022    1    1    2    0    0 -0.31364033202E+03  0.32942968223E+03 -0.98126114124E+03  0.10923182932E+04  0.15294330000E+03 0.  0.
    8880022    1    1    2    0    0  0.31364033202E+03 -0.32942968223E+03  0.63079202462E+03  0.79258085060E+03  0.15294330000E+03 0.  0.
<mgrwt>
<rscale>  0 0.47988105E+03</rscale>
<asrwt>0</asrwt>
<pdfrwt beam="1">  1        2 0.17195140E+00 0.47988105E+03</pdfrwt>
<pdfrwt beam="2">  1       -2 0.11803308E+00 0.47988105E+03</pdfrwt>
<totfact> 0.12462184E+01</totfact>
</mgrwt>
</event>
<event>
 4    1  0.4840632E-008  0.6055466E+03  0.7818608E-02  0.9893965E-01
         -2   -1    0    0    0  501 -0.00000000000E+00  0.00000000000E+00  0.11869996289E+04  0.11869996289E+04  0.25500000000E-02 0.  1.
          2   -1    0    0  501    0  0.00000000000E+00 -0.00000000000E+00 -0.75527282690E+03  0.75527282691E+03  0.25500000000E-02 0. -1.
    8880022    1    1    2    0    0  0.42553161476E+03  0.40276284894E+03  0.96242881097E+03  0.11370822032E+04  0.15294330000E+03 0.  0.
    8880022    1    1    2    0    0 -0.42553161476E+03 -0.40276284894E+03 -0.53070200893E+03  0.80519025264E+03  0.15294330000E+03 0.  0.
<mgrwt>
<rscale>  0 0.60554663E+03</rscale>
<asrwt>0</asrwt>
<pdfrwt beam="1">  1        2 0.11619582E+00 0.60554663E+03</pdfrwt>
<pdfrwt beam="2">  1       -2 0.18261533E+00 0.60554663E+03</pdfrwt>
<totfact> 0.67188918E+00</totfact>
</mgrwt>
</event>
<event>
 4    1  0.4840632E-008  0.6637206E+03  0.7818608E-02  0.9781369E-01
         -2   -1    0    0    0  501 -0.00000000000E+00  0.00000000000E+00  0.79853371746E+03  0.79853371747E+03  0.25500000000E-02 0.  1.
          2   -1    0    0  501    0  0.00000000000E+00 -0.00000000000E+00 -0.76010716244E+03  0.76010716245E+03  0.25500000000E-02 0. -1.
    8880022    1    1    2    0    0 -0.64566386364E+03 -0.15859625477E+02 -0.38888894305E+03  0.76925913422E+03  0.15294330000E+03 0.  0.
    8880022    1    1    2    0    0  0.64566386364E+03  0.15859625477E+02  0.42731549807E+03  0.78938174570E+03  0.15294330000E+03 0.  1.
<mgrwt>
<rscale>  0 0.66372058E+03</rscale>
<asrwt>0</asrwt>
<pdfrwt beam="1">  1        2 0.11693956E+00 0.66372058E+03</pdfrwt>
<pdfrwt beam="2">  1       -2 0.12285134E+00 0.66372058E+03</pdfrwt>
<totfact> 0.18888088E+01</totfact>
</mgrwt>
</event>
<event>
 4    1  0.4840632E-008  0.4284577E+03  0.7818608E-02  0.1034348E+00
          2   -1    0    0  501    0  0.00000000000E+00  0.00000000000E+00  0.31634302483E+03  0.31634302484E+03  0.25500000000E-02 0. -1.
         -2   -1    0    0    0  501 -0.00000000000E+00 -0.00000000000E+00 -0.90149063273E+03  0.90149063274E+03  0.25500000000E-02 0.  1.
    8880022    1    1    2    0    0 -0.30873016077E+03  0.25469603810E+03  0.70884122700E+02  0.43428170105E+03  0.15294330000E+03 0.  0.
    8880022    1    1    2    0    0  0.30873016077E+03 -0.25469603810E+03 -0.65603173061E+03  0.78355195653E+03  0.15294330000E+03 0.  0.
<mgrwt>
<rscale>  0 0.42845774E+03</rscale>
<asrwt>0</asrwt>
<pdfrwt beam="1">  1        2 0.48668158E-01 0.42845774E+03</pdfrwt>
<pdfrwt beam="2">  1       -2 0.13869087E+00 0.42845774E+03</pdfrwt>
<totfact> 0.39562104E+01</totfact>
</mgrwt>
</event>
<event>
 4    1  0.4840632E-008  0.1084278E+04  0.7818608E-02  0.9220652E-01
         -2   -1    0    0    0  501 -0.00000000000E+00  0.00000000000E+00  0.11343014011E+04  0.11343014011E+04  0.25500000000E-02 0.  1.
          2   -1    0    0  501    0  0.00000000000E+00 -0.00000000000E+00 -0.20249635752E+04  0.20249635752E+04  0.25500000000E-02 0. -1.
    8880022    1    1    2    0    0  0.32122176727E+02 -0.10729566342E+04 -0.15489936249E+04  0.18907777966E+04  0.15294330000E+03 0.  0.
    8880022    1    1    2    0    0 -0.32122176727E+02  0.10729566342E+04  0.65833145079E+03  0.12684871798E+04  0.15294330000E+03 0.  0.
<mgrwt>
<rscale>  0 0.10842783E+04</rscale>
<asrwt>0</asrwt>
<pdfrwt beam="1">  1        2 0.31153286E+00 0.10842783E+04</pdfrwt>
<pdfrwt beam="2">  1       -2 0.17450791E+00 0.10842783E+04</pdfrwt>
<totfact> 0.12640374E+00</totfact>
</mgrwt>
</event>
<event>
 4    1  0.4840632E-008  0.3356387E+03  0.7818608E-02  0.1068669E+00
         -2   -1    0    0    0  501 -0.00000000000E+00  0.00000000000E+00  0.12500754977E+04  0.12500754977E+04  0.25500000000E-02 0.  1.
          2   -1    0    0  501    0  0.00000000000E+00 -0.00000000000E+00 -0.12183543419E+04  0.12183543419E+04  0.25500000000E-02 0. -1.
    8880022    1    1    2    0    0  0.26110887174E+03  0.14520265816E+03  0.12035535322E+04  0.12494776559E+04  0.15294330000E+03 0.  0.
    8880022    1    1    2    0    0 -0.26110887174E+03 -0.14520265816E+03 -0.11718323764E+04  0.12189521837E+04  0.15294330000E+03 0.  0.
<mgrwt>
<rscale>  0 0.33563866E+03</rscale>
<asrwt>0</asrwt>
<pdfrwt beam="1">  1        2 0.18743913E+00 0.33563866E+03</pdfrwt>
<pdfrwt beam="2">  1       -2 0.19231931E+00 0.33563866E+03</pdfrwt>
<totfact> 0.31237717E+00</totfact>
</mgrwt>
</event>
<event>
 4    1  0.4840632E-008  0.4070971E+03  0.7818608E-02  0.1041350E+00
         -2   -1    0    0    0  501 -0.00000000000E+00  0.00000000000E+00  0.26843095215E+03  0.26843095216E+03  0.25500000000E-02 0.  1.
          2   -1    0    0  501    0  0.00000000000E+00 -0.00000000000E+00 -0.24752464206E+04  0.24752464206E+04  0.25500000000E-02 0. -1.
    8880022    1    1    2    0    0  0.16665080914E+03  0.33847291569E+03  0.85092460673E+02  0.41589516314E+03  0.15294330000E+03 0.  0.
    8880022    1    1    2    0    0 -0.16665080914E+03 -0.33847291569E+03 -0.22919079291E+04  0.23277822096E+04  0.15294330000E+03 0.  0.
<mgrwt>
<rscale>  0 0.40709711E+03</rscale>
<asrwt>0</asrwt>
<pdfrwt beam="1">  1        2 0.38080713E+00 0.40709711E+03</pdfrwt>
<pdfrwt beam="2">  1       -2 0.41297071E-01 0.40709711E+03</pdfrwt>
<totfact> 0.22400514E+01</totfact>
</mgrwt>
</event>
<event>
 4    1  0.4840632E-008  0.3225552E+03  0.7818608E-02  0.1074479E+00
         -2   -1    0    0    0  501 -0.00000000000E+00  0.00000000000E+00  0.17119161416E+03  0.17119161418E+03  0.25500000000E-02 0.  1.
          2   -1    0    0  501    0  0.00000000000E+00 -0.00000000000E+00 -0.16503970013E+04  0.16503970013E+04  0.25500000000E-02 0. -1.
    8880022    1    1    2    0    0  0.13654284611E+03 -0.24901051255E+03 -0.15676015676E+02  0.32293586773E+03  0.15294330000E+03 0.  0.
    8880022    1    1    2    0    0 -0.13654284611E+03  0.24901051255E+03 -0.14635293715E+04  0.14986527478E+04  0.15294330000E+03 0. -1.
<mgrwt>
<rscale>  0 0.32255517E+03</rscale>
<asrwt>0</asrwt>
<pdfrwt beam="1">  1        2 0.25390722E+00 0.32255517E+03</pdfrwt>
<pdfrwt beam="2">  1       -2 0.26337173E-01 0.32255517E+03</pdfrwt>
<totfact> 0.14669135E+02</totfact>
</mgrwt>
</event>
<event>
 4    1  0.4840632E-008  0.3619560E+03  0.7818608E-02  0.1057812E+00
         -2   -1    0    0    0  501 -0.00000000000E+00  0.00000000000E+00  0.37118841633E+03  0.37118841634E+03  0.25500000000E-02 0.  1.
          2   -1    0    0  501    0  0.00000000000E+00 -0.00000000000E+00 -0.79812038332E+03  0.79812038333E+03  0.25500000000E-02 0. -1.
    8880022    1    1    2    0    0 -0.16280551653E+03 -0.28480666975E+03  0.22317712124E+03  0.42522953308E+03  0.15294330000E+03 0.  1.
    8880022    1    1    2    0    0  0.16280551653E+03  0.28480666975E+03 -0.65010908823E+03  0.74407926658E+03  0.15294330000E+03 0.  0.
<mgrwt>
<rscale>  0 0.36195598E+03</rscale>
<asrwt>0</asrwt>
<pdfrwt beam="1">  1        2 0.12278775E+00 0.36195598E+03</pdfrwt>
<pdfrwt beam="2">  1       -2 0.57105911E-01 0.36195598E+03</pdfrwt>
<totfact> 0.10414501E+02</totfact>
</mgrwt>
</event>
<event>
 4    1  0.4840632E-008  0.4661934E+03  0.7818608E-02  0.1023000E+00
          2   -1    0    0  501    0  0.00000000000E+00  0.00000000000E+00  0.59147181938E+03  0.59147181938E+03  0.25500000000E-02 0. -1.
         -2   -1    0    0    0  501 -0.00000000000E+00 -0.00000000000E+00 -0.50560982916E+03  0.50560982917E+03  0.25500000000E-02 0.  1.
    8880022    1    1    2    0    0 -0.10590956546E+03  0.42746675282E+03  0.32967352389E+03  0.57098243948E+03  0.15294330000E+03 0.  0.
    8880022    1    1    2    0    0  0.10590956546E+03 -0.42746675282E+03 -0.24381153368E+03  0.52609920908E+03  0.15294330000E+03 0.  0.
<mgrwt>
<rscale>  0 0.46619343E+03</rscale>
<asrwt>0</asrwt>
<pdfrwt beam="1">  1        2 0.90995664E-01 0.46619343E+03</pdfrwt>
<pdfrwt beam="2">  1       -2 0.77786128E-01 0.46619343E+03</pdfrwt>
<totfact> 0.76845896E+01</totfact>
</mgrwt>
</event>
<event>
 4    1  0.4840632E-008  0.4644811E+03  0.7818608E-02  0.1023490E+00
         -2   -1    0    0    0  501 -0.00000000000E+00  0.00000000000E+00  0.10633696891E+03  0.10633696894E+03  0.25500000000E-02 0.  1.
          2   -1    0    0  501    0  0.00000000000E+00 -0.00000000000E+00 -0.22668551120E+04  0.22668551120E+04  0.25500000000E-02 0. -1.
    8880022    1    1    2    0    0 -0.11724103463E+03  0.42261753757E+03 -0.14647411644E+04  0.15366227172E+04  0.15294330000E+03 0.  0.
    8880022    1    1    2    0    0  0.11724103463E+03 -0.42261753757E+03 -0.69577697865E+03  0.83656936371E+03  0.15294330000E+03 0.  0.
<mgrwt>
<rscale>  0 0.46448110E+03</rscale>
<asrwt>0</asrwt>
<pdfrwt beam="1">  1        2 0.34874690E+00 0.46448110E+03</pdfrwt>
<pdfrwt beam="2">  1       -2 0.16359535E-01 0.46448110E+03</pdfrwt>
<totfact> 0.15310916E+02</totfact>
</mgrwt>
</event>
<event>
 4    1  0.4840632E-008  0.3539030E+03  0.7818608E-02  0.1061024E+00
          2   -1    0    0  501    0  0.00000000000E+00  0.00000000000E+00  0.82454171686E+03  0.82454171687E+03  0.25500000000E-02 0. -1.
         -2   -1    0    0    0  501 -0.00000000000E+00 -0.00000000000E+00 -0.20955368175E+03  0.20955368177E+03  0.25500000000E-02 0.  1.
    8880022    1    1    2    0    0 -0.30255729926E+03  0.10156167659E+03  0.36288229822E+02  0.35575860092E+03  0.15294330000E+03 0.  1.
    8880022    1    1    2    0    0  0.30255729926E+03 -0.10156167659E+03  0.57869980529E+03  0.67833679772E+03  0.15294330000E+03 0.  0.
<mgrwt>
<rscale>  0 0.35390302E+03</rscale>
<asrwt>0</asrwt>
<pdfrwt beam="1">  1        2 0.12685257E+00 0.35390302E+03</pdfrwt>
<pdfrwt beam="2">  1       -2 0.32239028E-01 0.35390302E+03</pdfrwt>
<totfact> 0.30560562E+02</totfact>
</mgrwt>
</event>
<event>
 4    1  0.5115531E-008  0.5641790E+03  0.7818608E-02  0.9982643E-01
          2   -1    0    0  501    0  0.00000000000E+00  0.00000000000E+00  0.21508223341E+04  0.21508223341E+04  0.25500000000E-02 0. -1.
         -2   -1    0    0    0  501 -0.00000000000E+00 -0.00000000000E+00 -0.58560693357E+03  0.58560693358E+03  0.25500000000E-02 0.  1.
    8880022    1    1    2    0    0  0.45235262953E+03 -0.30047192810E+03 -0.40015796152E+03  0.69168224511E+03  0.15294330000E+03 0.  0.
    8880022    1    1    2    0    0 -0.45235262953E+03  0.30047192810E+03  0.19653733620E+04  0.20447470226E+04  0.15294330000E+03 0.  0.
<mgrwt>
<rscale>  0 0.56417899E+03</rscale>
<asrwt>0</asrwt>
<pdfrwt beam="1">  1        2 0.33089574E+00 0.56417899E+03</pdfrwt>
<pdfrwt beam="2">  1       -2 0.90093375E-01 0.56417899E+03</pdfrwt>
<totfact> 0.62518383E+00</totfact>
</mgrwt>
</event>
<event>
 4    1  0.4840632E-008  0.4307842E+03  0.7818608E-02  0.1033613E+00
         -2   -1    0    0    0  501 -0.00000000000E+00  0.00000000000E+00  0.17860151191E+03  0.17860151193E+03  0.25500000000E-02 0.  1.
          2   -1    0    0  501    0  0.00000000000E+00 -0.00000000000E+00 -0.14213682703E+04  0.14213682703E+04  0.25500000000E-02 0. -1.
    8880022    1    1    2    0    0  0.30610769335E+03  0.26168963404E+03 -0.20648307919E+03  0.47771361662E+03  0.15294330000E+03 0.  1.
    8880022    1    1    2    0    0 -0.30610769335E+03 -0.26168963404E+03 -0.10362836792E+04  0.11222561657E+04  0.15294330000E+03 0.  0.
<mgrwt>
<rscale>  0 0.43078421E+03</rscale>
<asrwt>0</asrwt>
<pdfrwt beam="1">  1        2 0.21867203E+00 0.43078421E+03</pdfrwt>
<pdfrwt beam="2">  1       -2 0.27477157E-01 0.43078421E+03</pdfrwt>
<totfact> 0.17766468E+02</totfact>
</mgrwt>
</event>
<event>
 4    1  0.4840632E-008  0.1810378E+03  0.7818608E-02  0.1166802E+00
          2   -1    0    0  501    0  0.00000000000E+00  0.00000000000E+00  0.31960720451E+03  0.31960720452E+03  0.25500000000E-02 0. -1.
         -2   -1    0    0    0  501 -0.00000000000E+00 -0.00000000000E+00 -0.16274983189E+04  0.16274983189E+04  0.25500000000E-02 0.  1.
    8880022    1    1    2    0    0  0.65771514253E+02  0.71113679260E+02 -0.15963281061E+04  0.16065609614E+04  0.15294330000E+03 0.  1.
    8880022    1    1    2    0    0 -0.65771514253E+02 -0.71113679260E+02  0.28843699174E+03  0.34054456197E+03  0.15294330000E+03 0.  0.
<mgrwt>
<rscale>  0 0.18103784E+03</rscale>
<asrwt>0</asrwt>
<pdfrwt beam="1">  1        2 0.49170340E-01 0.18103784E+03</pdfrwt>
<pdfrwt beam="2">  1       -2 0.25038435E+00 0.18103784E+03</pdfrwt>
<totfact> 0.76091001E+00</totfact>
</mgrwt>
</event>
<event>
 4    1  0.4840632E-008  0.5143623E+03  0.7818608E-02  0.1010097E+00
         -2   -1    0    0    0  501 -0.00000000000E+00  0.00000000000E+00  0.57060333945E+03  0.57060333946E+03  0.25500000000E-02 0.  1.
          2   -1    0    0  501    0  0.00000000000E+00 -0.00000000000E+00 -0.28912613582E+04  0.28912613582E+04  0.25500000000E-02 0. -1.
    8880022    1    1    2    0    0 -0.10825625022E+03  0.47901728333E+03  0.42574951175E+03  0.66770597811E+03  0.15294330000E+03 0.  0.
    8880022    1    1    2    0    0  0.10825625022E+03 -0.47901728333E+03 -0.27464075305E+04  0.27941587195E+04  0.15294330000E+03 0.  0.
<mgrwt>
<rscale>  0 0.51436235E+03</rscale>
<asrwt>0</asrwt>
<pdfrwt beam="1">  1        2 0.44480943E+00 0.51436235E+03</pdfrwt>
<pdfrwt beam="2">  1       -2 0.87785131E-01 0.51436235E+03</pdfrwt>
<totfact> 0.25670385E+00</totfact>
</mgrwt>
</event>
<event>
 4    1  0.4840632E-008  0.7284291E+03  0.7818608E-02  0.9669813E-01
          2   -1    0    0  501    0  0.00000000000E+00  0.00000000000E+00  0.19208333348E+04  0.19208333348E+04  0.25500000000E-02 0. -1.
         -2   -1    0    0    0  501 -0.00000000000E+00 -0.00000000000E+00 -0.47446913532E+03  0.47446913533E+03  0.25500000000E-02 0.  1.
    8880022    1    1    2    0    0  0.52813020405E+03  0.47780306990E+03 -0.50943273378E+02  0.73020829642E+03  0.15294330000E+03 0.  0.
    8880022    1    1    2    0    0 -0.52813020405E+03 -0.47780306990E+03  0.14973074729E+04  0.16650941737E+04  0.15294330000E+03 0.  0.
<mgrwt>
<rscale>  0 0.72842909E+03</rscale>
<asrwt>0</asrwt>
<pdfrwt beam="1">  1        2 0.29551282E+00 0.72842909E+03</pdfrwt>
<pdfrwt beam="2">  1       -2 0.72995251E-01 0.72842909E+03</pdfrwt>
<totfact> 0.12992739E+01</totfact>
</mgrwt>
</event>
<event>
 4    1  0.4840632E-008  0.1432053E+04  0.7818608E-02  0.8930938E-01
          2   -1    0    0  501    0  0.00000000000E+00  0.00000000000E+00  0.24356786824E+04  0.24356786824E+04  0.25500000000E-02 0. -1.
         -2   -1    0    0    0  501 -0.00000000000E+00 -0.00000000000E+00 -0.12804105037E+04  0.12804105037E+04  0.25500000000E-02 0.  1.
    8880022    1    1    2    0    0 -0.87167884703E+03 -0.11258594363E+04 -0.50963108882E+03  0.15200325596E+04  0.15294330000E+03 0.  0.
    8880022    1    1    2    0    0  0.87167884703E+03  0.11258594363E+04  0.16648992675E+04  0.21960566265E+04  0.15294330000E+03 0.  0.
<mgrwt>
<rscale>  0 0.14320528E+04</rscale>
<asrwt>0</asrwt>
<pdfrwt beam="1">  1        2 0.37471979E+00 0.14320528E+04</pdfrwt>
<pdfrwt beam="2">  1       -2 0.19698623E+00 0.14320528E+04</pdfrwt>
<totfact> 0.49996522E-01</totfact>
</mgrwt>
</event>
<event>
 4    1  0.4840632E-008  0.5257343E+03  0.7818608E-02  0.1007272E+00
          2   -1    0    0  501    0  0.00000000000E+00  0.00000000000E+00  0.28818594020E+04  0.28818594020E+04  0.25500000000E-02 0. -1.
         -2   -1    0    0    0  501 -0.00000000000E+00 -0.00000000000E+00 -0.13634572685E+03  0.13634572688E+03  0.25500000000E-02 0.  1.
    8880022    1    1    2    0    0 -0.19560459054E+03  0.46340446277E+03  0.55092015916E+03  0.76151790966E+03  0.15294330000E+03 0.  0.
    8880022    1    1    2    0    0  0.19560459054E+03 -0.46340446277E+03  0.21945935159E+04  0.22566872192E+04  0.15294330000E+03 0.  0.
<mgrwt>
<rscale>  0 0.52573425E+03</rscale>
<asrwt>0</asrwt>
<pdfrwt beam="1">  1        2 0.44336298E+00 0.52573425E+03</pdfrwt>
<pdfrwt beam="2">  1       -2 0.20976266E-01 0.52573425E+03</pdfrwt>
<totfact> 0.44255566E+01</totfact>
</mgrwt>
</event>
<event>
 4    1  0.4840632E-008  0.4882230E+03  0.7818608E-02  0.1016899E+00
          2   -1    0    0  501    0  0.00000000000E+00  0.00000000000E+00  0.92210001376E+03  0.92210001376E+03  0.25500000000E-02 0. -1.
         -2   -1    0    0    0  501 -0.00000000000E+00 -0.00000000000E+00 -0.45543646067E+03  0.45543646068E+03  0.25500000000E-02 0.  1.
    8880022    1    1    2    0    0  0.29641522204E+03  0.35652223703E+03 -0.21959042160E+03  0.53533325660E+03  0.15294330000E+03 0.  0.
    8880022    1    1    2    0    0 -0.29641522204E+03 -0.35652223703E+03  0.68625397468E+03  0.84220321784E+03  0.15294330000E+03 0.  0.
<mgrwt>
<rscale>  0 0.48822305E+03</rscale>
<asrwt>0</asrwt>
<pdfrwt beam="1">  1        2 0.14186154E+00 0.48822305E+03</pdfrwt>
<pdfrwt beam="2">  1       -2 0.70067149E-01 0.48822305E+03</pdfrwt>
<totfact> 0.54763018E+01</totfact>
</mgrwt>
</event>
<event>
 4    1  0.4840632E-008  0.4154189E+03  0.7818608E-02  0.1038568E+00
          2   -1    0    0  501    0  0.00000000000E+00  0.00000000000E+00  0.60370118189E+03  0.60370118190E+03  0.25500000000E-02 0. -1.
         -2   -1    0    0    0  501 -0.00000000000E+00 -0.00000000000E+00 -0.66678608881E+03  0.66678608882E+03  0.25500000000E-02 0.  1.
    8880022    1    1    2    0    0  0.10539303583E+03  0.37158250186E+03  0.44859819286E+03  0.61140268183E+03  0.15294330000E+03 0.  0.
    8880022    1    1    2    0    0 -0.10539303583E+03 -0.37158250186E+03 -0.51168309978E+03  0.65908458889E+03  0.15294330000E+03 0.  0.
<mgrwt>
<rscale>  0 0.41541895E+03</rscale>
<asrwt>0</asrwt>
<pdfrwt beam="1">  1        2 0.92877104E-01 0.41541895E+03</pdfrwt>
<pdfrwt beam="2">  1       -2 0.10258248E+00 0.41541895E+03</pdfrwt>
<totfact> 0.40064713E+01</totfact>
</mgrwt>
</event>
<event>
 4    1  0.4840632E-008  0.3435614E+03  0.7818608E-02  0.1065289E+00
          2   -1    0    0  501    0  0.00000000000E+00  0.00000000000E+00  0.25455191243E+04  0.25455191243E+04  0.25500000000E-02 0. -1.
         -2   -1    0    0    0  501 -0.00000000000E+00 -0.00000000000E+00 -0.28922399513E+03  0.28922399514E+03  0.25500000000E-02 0.  1.
    8880022    1    1    2    0    0  0.13831773693E+03 -0.27479265097E+03 -0.17064450006E+03  0.38360656381E+03  0.15294330000E+03 0.  0.
    8880022    1    1    2    0    0 -0.13831773693E+03  0.27479265097E+03  0.24269396293E+04  0.24511365556E+04  0.15294330000E+03 0.  0.
<mgrwt>
<rscale>  0 0.34356142E+03</rscale>
<asrwt>0</asrwt>
<pdfrwt beam="1">  1        2 0.39161831E+00 0.34356142E+03</pdfrwt>
<pdfrwt beam="2">  1       -2 0.44496001E-01 0.34356142E+03</pdfrwt>
<totfact> 0.18062403E+01</totfact>
</mgrwt>
</event>
<event>
 4    1  0.4840632E-008  0.7443662E+03  0.7818608E-02  0.9644231E-01
          2   -1    0    0  501    0  0.00000000000E+00  0.00000000000E+00  0.29425818028E+04  0.29425818028E+04  0.25500000000E-02 0. -1.
         -2   -1    0    0    0  501 -0.00000000000E+00 -0.00000000000E+00 -0.53941458387E+03  0.53941458388E+03  0.25500000000E-02 0.  1.
    8880022    1    1    2    0    0  0.33256762760E+03 -0.64814209369E+03 -0.20304951206E+03  0.77156345034E+03  0.15294330000E+03 0.  0.
    8880022    1    1    2    0    0 -0.33256762760E+03  0.64814209369E+03  0.26062167310E+04  0.27104329364E+04  0.15294330000E+03 0. -1.
<mgrwt>
<rscale>  0 0.74436621E+03</rscale>
<asrwt>0</asrwt>
<pdfrwt beam="1">  1        2 0.45270489E+00 0.74436621E+03</pdfrwt>
<pdfrwt beam="2">  1       -2 0.82986859E-01 0.74436621E+03</pdfrwt>
<totfact> 0.25657297E+00</totfact>
</mgrwt>
</event>
<event>
 4    1  0.4840632E-008  0.8703425E+03  0.7818608E-02  0.9463433E-01
          2   -1    0    0  501    0  0.00000000000E+00  0.00000000000E+00  0.32528408670E+03  0.32528408671E+03  0.25500000000E-02 0. -1.
         -2   -1    0    0    0  501 -0.00000000000E+00 -0.00000000000E+00 -0.26531856932E+04  0.26531856932E+04  0.25500000000E-02 0.  1.
    8880022    1    1    2    0    0 -0.67360053711E+03  0.52949668786E+03 -0.64316072728E+03  0.10821976715E+04  0.15294330000E+03 0.  0.
    8880022    1    1    2    0    0  0.67360053711E+03 -0.52949668786E+03 -0.16847408792E+04  0.18962721084E+04  0.15294330000E+03 0.  0.
<mgrwt>
<rscale>  0 0.87034251E+03</rscale>
<asrwt>0</asrwt>
<pdfrwt beam="1">  1        2 0.50043707E-01 0.87034251E+03</pdfrwt>
<pdfrwt beam="2">  1       -2 0.40818240E+00 0.87034251E+03</pdfrwt>
<totfact> 0.68560766E-01</totfact>
</mgrwt>
</event>
<event>
 4    1  0.4840632E-008  0.7916825E+03  0.7818608E-02  0.9572135E-01
         -2   -1    0    0    0  501 -0.00000000000E+00  0.00000000000E+00  0.15350198937E+04  0.15350198937E+04  0.25500000000E-02 0.  1.
          2   -1    0    0  501    0  0.00000000000E+00 -0.00000000000E+00 -0.42299799792E+03  0.42299799793E+03  0.25500000000E-02 0. -1.
    8880022    1    1    2    0    0  0.36888324559E+03 -0.68358952371E+03  0.73845348299E+03  0.10826239815E+04  0.15294330000E+03 0.  0.
    8880022    1    1    2    0    0 -0.36888324559E+03  0.68358952371E+03  0.37356841278E+03  0.87539391010E+03  0.15294330000E+03 0.  0.
<mgrwt>
<rscale>  0 0.79168247E+03</rscale>
<asrwt>0</asrwt>
<pdfrwt beam="1">  1        2 0.65076617E-01 0.79168247E+03</pdfrwt>
<pdfrwt beam="2">  1       -2 0.23615690E+00 0.79168247E+03</pdfrwt>
<totfact> 0.59609554E+00</totfact>
</mgrwt>
</event>
<event>
 4    1  0.4840632E-008  0.4673399E+03  0.7818608E-02  0.1022674E+00
         -2   -1    0    0    0  501 -0.00000000000E+00  0.00000000000E+00  0.42178720490E+03  0.42178720491E+03  0.25500000000E-02 0.  1.
          2   -1    0    0  501    0  0.00000000000E+00 -0.00000000000E+00 -0.26862166878E+04  0.26862166878E+04  0.25500000000E-02 0. -1.
    8880022    1    1    2    0    0 -0.16779088808E+03  0.40848646446E+03 -0.25284261104E+04  0.25712536286E+04  0.15294330000E+03 0.  0.
    8880022    1    1    2    0    0  0.16779088808E+03 -0.40848646446E+03  0.26399662745E+03  0.53675026417E+03  0.15294330000E+03 0.  1.
<mgrwt>
<rscale>  0 0.46733995E+03</rscale>
<asrwt>0</asrwt>
<pdfrwt beam="1">  1        2 0.41326410E+00 0.46733995E+03</pdfrwt>
<pdfrwt beam="2">  1       -2 0.64890341E-01 0.46733995E+03</pdfrwt>
<totfact> 0.66771407E+00</totfact>
</mgrwt>
</event>
<event>
 4    1  0.4840632E-008  0.1349521E+04  0.7818608E-02  0.8991191E-01
          2   -1    0    0  501    0  0.00000000000E+00  0.00000000000E+00  0.14695799149E+04  0.14695799149E+04  0.25500000000E-02 0. -1.
         -2   -1    0    0    0  501 -0.00000000000E+00 -0.00000000000E+00 -0.22373166284E+04  0.22373166284E+04  0.25500000000E-02 0.  1.
    8880022    1    1    2    0    0  0.45273698097E+02 -0.13400618602E+04 -0.16217868038E+04  0.21098340188E+04  0.15294330000E+03 0.  0.
    8880022    1    1    2    0    0 -0.45273698097E+02  0.13400618602E+04  0.85405009038E+03  0.15970625244E+04  0.15294330000E+03 0.  0.
<mgrwt>
<rscale>  0 0.13495211E+04</rscale>
<asrwt>0</asrwt>
<pdfrwt beam="1">  1        2 0.22608922E+00 0.13495211E+04</pdfrwt>
<pdfrwt beam="2">  1       -2 0.34420256E+00 0.13495211E+04</pdfrwt>
<totfact> 0.21452225E-01</totfact>
</mgrwt>
</event>
<event>
 4    1  0.4840632E-008  0.9025630E+03  0.7818608E-02  0.9422383E-01
          2   -1    0    0  501    0  0.00000000000E+00  0.00000000000E+00  0.11888305075E+04  0.11888305075E+04  0.25500000000E-02 0. -1.
         -2   -1    0    0    0  501 -0.00000000000E+00 -0.00000000000E+00 -0.11265563310E+04  0.11265563310E+04  0.25500000000E-02 0.  1.
    8880022    1    1    2    0    0  0.87603248604E+03 -0.15425767313E+03 -0.69346234863E+03  0.11382047392E+04  0.15294330000E+03 0.  0.
    8880022    1    1    2    0    0 -0.87603248604E+03  0.15425767313E+03  0.75573652514E+03  0.11771820992E+04  0.15294330000E+03 0.  0.
<mgrwt>
<rscale>  0 0.90256302E+03</rscale>
<asrwt>0</asrwt>
<pdfrwt beam="1">  1        2 0.18289700E+00 0.90256302E+03</pdfrwt>
<pdfrwt beam="2">  1       -2 0.17331636E+00 0.90256302E+03</pdfrwt>
<totfact> 0.38936621E+00</totfact>
</mgrwt>
</event>
<event>
 4    1  0.4840632E-008  0.5927032E+03  0.7818608E-02  0.9920661E-01
          2   -1    0    0  501    0  0.00000000000E+00  0.00000000000E+00  0.10642979286E+04  0.10642979286E+04  0.25500000000E-02 0. -1.
         -2   -1    0    0    0  501 -0.00000000000E+00 -0.00000000000E+00 -0.40637905093E+03  0.40637905093E+03  0.25500000000E-02 0.  1.
    8880022    1    1    2    0    0 -0.57194909974E+03 -0.27921594781E+02  0.64759803157E+03  0.87788396252E+03  0.15294330000E+03 0.  0.
    8880022    1    1    2    0    0  0.57194909974E+03  0.27921594781E+02  0.10320846120E+02  0.59279301703E+03  0.15294330000E+03 0.  0.
<mgrwt>
<rscale>  0 0.59270316E+03</rscale>
<asrwt>0</asrwt>
<pdfrwt beam="1">  1        2 0.16373814E+00 0.59270316E+03</pdfrwt>
<pdfrwt beam="2">  1       -2 0.62519854E-01 0.59270316E+03</pdfrwt>
<totfact> 0.56137445E+01</totfact>
</mgrwt>
</event>
<event>
 4    1  0.4840632E-008  0.1126215E+04  0.7818608E-02  0.9180011E-01
          2   -1    0    0  501    0  0.00000000000E+00  0.00000000000E+00  0.11402754927E+04  0.11402754927E+04  0.25500000000E-02 0. -1.
         -2   -1    0    0    0  501 -0.00000000000E+00 -0.00000000000E+00 -0.11791410300E+04  0.11791410300E+04  0.25500000000E-02 0.  1.
    8880022    1    1    2    0    0  0.10683013791E+04 -0.32202559987E+03  0.25662345763E+03  0.11550824973E+04  0.15294330000E+03 0.  0.
    8880022    1    1    2    0    0 -0.10683013791E+04  0.32202559987E+03 -0.29548899492E+03  0.11643340254E+04  0.15294330000E+03 0.  0.
<mgrwt>
<rscale>  0 0.11262149E+04</rscale>
<asrwt>0</asrwt>
<pdfrwt beam="1">  1        2 0.17542700E+00 0.11262149E+04</pdfrwt>
<pdfrwt beam="2">  1       -2 0.18140631E+00 0.11262149E+04</pdfrwt>
<totfact> 0.35710574E+00</totfact>
</mgrwt>
</event>
<event>
 4    1  0.4840632E-008  0.4450051E+03  0.7818608E-02  0.1029222E+00
          2   -1    0    0  501    0  0.00000000000E+00  0.00000000000E+00  0.71496394486E+03  0.71496394487E+03  0.25500000000E-02 0. -1.
         -2   -1    0    0    0  501 -0.00000000000E+00 -0.00000000000E+00 -0.68449937102E+03  0.68449937103E+03  0.25500000000E-02 0.  1.
    8880022    1    1    2    0    0 -0.31880229886E+02  0.41667912776E+03  0.55514062090E+03  0.71148479011E+03  0.15294330000E+03 0.  0.
    8880022    1    1    2    0    0  0.31880229886E+02 -0.41667912776E+03 -0.52467604706E+03  0.68797852578E+03  0.15294330000E+03 0.  0.
<mgrwt>
<rscale>  0 0.44500505E+03</rscale>
<asrwt>0</asrwt>
<pdfrwt beam="1">  1        2 0.10999445E+00 0.44500505E+03</pdfrwt>
<pdfrwt beam="2">  1       -2 0.10530760E+00 0.44500505E+03</pdfrwt>
<totfact> 0.30516702E+01</totfact>
</mgrwt>
</event>
<event>
 4    1  0.4840632E-008  0.4707634E+03  0.7818608E-02  0.1021705E+00
          2   -1    0    0  501    0  0.00000000000E+00  0.00000000000E+00  0.19239653131E+04  0.19239653131E+04  0.25500000000E-02 0. -1.
         -2   -1    0    0    0  501 -0.00000000000E+00 -0.00000000000E+00 -0.30101562515E+03  0.30101562516E+03  0.25500000000E-02 0.  1.
    8880022    1    1    2    0    0  0.43593703470E+03  0.90473547316E+02 -0.62616089232E+02  0.47490945309E+03  0.15294330000E+03 0.  0.
    8880022    1    1    2    0    0 -0.43593703470E+03 -0.90473547316E+02  0.16855657772E+04  0.17500714852E+04  0.15294330000E+03 0.  0.
<mgrwt>
<rscale>  0 0.47076344E+03</rscale>
<asrwt>0</asrwt>
<pdfrwt beam="1">  1        2 0.29599466E+00 0.47076344E+03</pdfrwt>
<pdfrwt beam="2">  1       -2 0.46310096E-01 0.47076344E+03</pdfrwt>
<totfact> 0.35070694E+01</totfact>
</mgrwt>
</event>
<event>
 4    1  0.4840632E-008  0.3464496E+03  0.7818608E-02  0.1064082E+00
         -2   -1    0    0    0  501 -0.00000000000E+00  0.00000000000E+00  0.96762286583E+02  0.96762286617E+02  0.25500000000E-02 0.  1.
          2   -1    0    0  501    0  0.00000000000E+00 -0.00000000000E+00 -0.17842320431E+04  0.17842320431E+04  0.25500000000E-02 0. -1.
    8880022    1    1    2    0    0 -0.14840841604E+03 -0.27314945577E+03 -0.13629534359E+04  0.14062963431E+04  0.15294330000E+03 0. -1.
    8880022    1    1    2    0    0  0.14840841604E+03  0.27314945577E+03 -0.32451632057E+03  0.47469798658E+03  0.15294330000E+03 0.  0.
<mgrwt>
<rscale>  0 0.34644962E+03</rscale>
<asrwt>0</asrwt>
<pdfrwt beam="1">  1        2 0.27449721E+00 0.34644962E+03</pdfrwt>
<pdfrwt beam="2">  1       -2 0.14886507E-01 0.34644962E+03</pdfrwt>
<totfact> 0.33167373E+02</totfact>
</mgrwt>
</event>
<event>
 4    1  0.4840632E-008  0.2182800E+03  0.7818608E-02  0.1135172E+00
         -2   -1    0    0    0  501 -0.00000000000E+00  0.00000000000E+00  0.17019854373E+03  0.17019854375E+03  0.25500000000E-02 0.  1.
          2   -1    0    0  501    0  0.00000000000E+00 -0.00000000000E+00 -0.18254750040E+04  0.18254750040E+04  0.25500000000E-02 0. -1.
    8880022    1    1    2    0    0 -0.63772053408E+02  0.14208312168E+03 -0.17457812874E+04  0.17593744470E+04  0.15294330000E+03 0.  0.
    8880022    1    1    2    0    0  0.63772053408E+02 -0.14208312168E+03  0.90504827142E+02  0.23629910074E+03  0.15294330000E+03 0.  1.
<mgrwt>
<rscale>  0 0.21827996E+03</rscale>
<asrwt>0</asrwt>
<pdfrwt beam="1">  1        2 0.28084230E+00 0.21827996E+03</pdfrwt>
<pdfrwt beam="2">  1       -2 0.26184393E-01 0.21827996E+03</pdfrwt>
<totfact> 0.12315403E+02</totfact>
</mgrwt>
</event>
<event>
 4    1  0.4840632E-008  0.4783694E+03  0.7818608E-02  0.1019584E+00
         -2   -1    0    0    0  501 -0.00000000000E+00  0.00000000000E+00  0.12378895431E+03  0.12378895434E+03  0.25500000000E-02 0.  1.
          2   -1    0    0  501    0  0.00000000000E+00 -0.00000000000E+00 -0.26127709300E+04  0.26127709300E+04  0.25500000000E-02 0. -1.
    8880022    1    1    2    0    0 -0.24863353508E+03  0.37898154045E+03 -0.50451577254E+03  0.69525064583E+03  0.15294330000E+03 0.  0.
    8880022    1    1    2    0    0  0.24863353508E+03 -0.37898154045E+03 -0.19844662031E+04  0.20413092385E+04  0.15294330000E+03 0.  0.
<mgrwt>
<rscale>  0 0.47836941E+03</rscale>
<asrwt>0</asrwt>
<pdfrwt beam="1">  1        2 0.40196472E+00 0.47836941E+03</pdfrwt>
<pdfrwt beam="2">  1       -2 0.19044456E-01 0.47836941E+03</pdfrwt>
<totfact> 0.75688566E+01</totfact>
</mgrwt>
</event>
<event>
 4    1  0.4840632E-008  0.5840616E+03  0.7818608E-02  0.9939036E-01
          2   -1    0    0  501    0  0.00000000000E+00  0.00000000000E+00  0.17460703858E+04  0.17460703858E+04  0.25500000000E-02 0. -1.
         -2   -1    0    0    0  501 -0.00000000000E+00 -0.00000000000E+00 -0.37938206115E+03  0.37938206116E+03  0.25500000000E-02 0.  1.
    8880022    1    1    2    0    0  0.55968688648E+03 -0.66984670043E+02 -0.56784693708E+02  0.58681556845E+03  0.15294330000E+03 0.  0.
    8880022    1    1    2    0    0 -0.55968688648E+03  0.66984670043E+02  0.14234730184E+04  0.15386368785E+04  0.15294330000E+03 0. -1.
<mgrwt>
<rscale>  0 0.58406165E+03</rscale>
<asrwt>0</asrwt>
<pdfrwt beam="1">  1        2 0.26862621E+00 0.58406165E+03</pdfrwt>
<pdfrwt beam="2">  1       -2 0.58366471E-01 0.58406165E+03</pdfrwt>
<totfact> 0.26715029E+01</totfact>
</mgrwt>
</event>
<event>
 4    1  0.4840632E-008  0.7496311E+03  0.7818608E-02  0.9635929E-01
         -2   -1    0    0    0  501 -0.00000000000E+00  0.00000000000E+00  0.71050658454E+03  0.71050658454E+03  0.25500000000E-02 0.  1.
          2   -1    0    0  501    0  0.00000000000E+00 -0.00000000000E+00 -0.20084136695E+04  0.20084136695E+04  0.25500000000E-02 0. -1.
    8880022    1    1    2    0    0 -0.14535197268E+03  0.71932463404E+03 -0.17074149443E+04  0.18647285513E+04  0.15294330000E+03 0.  0.
    8880022    1    1    2    0    0  0.14535197268E+03 -0.71932463404E+03  0.40950785934E+03  0.85419170271E+03  0.15294330000E+03 0.  0.
<mgrwt>
<rscale>  0 0.74963109E+03</rscale>
<asrwt>0</asrwt>
<pdfrwt beam="1">  1        2 0.30898672E+00 0.74963109E+03</pdfrwt>
<pdfrwt beam="2">  1       -2 0.10930871E+00 0.74963109E+03</pdfrwt>
<totfact> 0.45702402E+00</totfact>
</mgrwt>
</event>
<event>
 4    1  0.4840632E-008  0.2364872E+03  0.7818608E-02  0.1122155E+00
          2   -1    0    0  501    0  0.00000000000E+00  0.00000000000E+00  0.48511341786E+03  0.48511341787E+03  0.25500000000E-02 0. -1.
         -2   -1    0    0    0  501 -0.00000000000E+00 -0.00000000000E+00 -0.40620762981E+03  0.40620762982E+03  0.25500000000E-02 0.  1.
    8880022    1    1    2    0    0 -0.14104321682E+03  0.11243379101E+03  0.41660717005E+03  0.47904877990E+03  0.15294330000E+03 0. -1.
    8880022    1    1    2    0    0  0.14104321682E+03 -0.11243379101E+03 -0.33770138200E+03  0.41227226779E+03  0.15294330000E+03 0.  0.
<mgrwt>
<rscale>  0 0.23648721E+03</rscale>
<asrwt>0</asrwt>
<pdfrwt beam="1">  1        2 0.74632834E-01 0.23648721E+03</pdfrwt>
<pdfrwt beam="2">  1       -2 0.62493481E-01 0.23648721E+03</pdfrwt>
<totfact> 0.15855743E+02</totfact>
</mgrwt>
</event>
<event>
 4    1  0.4840632E-008  0.7653660E+03  0.7818608E-02  0.9611547E-01
          2   -1    0    0  501    0  0.00000000000E+00  0.00000000000E+00  0.11365350592E+04  0.11365350592E+04  0.25500000000E-02 0. -1.
         -2   -1    0    0    0  501 -0.00000000000E+00 -0.00000000000E+00 -0.61079761860E+03  0.61079761860E+03  0.25500000000E-02 0.  1.
    8880022    1    1    2    0    0  0.72688586895E+03 -0.18447335005E+03 -0.82382899721E+02  0.76978703454E+03  0.15294330000E+03 0.  0.
    8880022    1    1    2    0    0 -0.72688586895E+03  0.18447335005E+03  0.60812034035E+03  0.97754564329E+03  0.15294330000E+03 0.  0.
<mgrwt>
<rscale>  0 0.76536601E+03</rscale>
<asrwt>0</asrwt>
<pdfrwt beam="1">  1        2 0.17485155E+00 0.76536601E+03</pdfrwt>
<pdfrwt beam="2">  1       -2 0.93968864E-01 0.76536601E+03</pdfrwt>
<totfact> 0.20107514E+01</totfact>
</mgrwt>
</event>
<event>
 4    1  0.4840632E-008  0.9891625E+03  0.7818608E-02  0.9320512E-01
         -2   -1    0    0    0  501 -0.00000000000E+00  0.00000000000E+00  0.31817039479E+04  0.31817039479E+04  0.25500000000E-02 0.  1.
          2   -1    0    0  501    0  0.00000000000E+00 -0.00000000000E+00 -0.44003744411E+03  0.44003744412E+03  0.25500000000E-02 0. -1.
    8880022    1    1    2    0    0 -0.69887931728E+03 -0.68309486153E+03  0.37708448464E+03  0.10586006100E+04  0.15294330000E+03 0. -1.
    8880022    1    1    2    0    0  0.69887931728E+03  0.68309486153E+03  0.23645820191E+04  0.25631407819E+04  0.15294330000E+03 0.  0.
<mgrwt>
<rscale>  0 0.98916255E+03</rscale>
<asrwt>0</asrwt>
<pdfrwt beam="1">  1        2 0.67698069E-01 0.98916255E+03</pdfrwt>
<pdfrwt beam="2">  1       -2 0.48949291E+00 0.98916255E+03</pdfrwt>
<totfact> 0.13942591E-01</totfact>
</mgrwt>
</event>
<event>
 4    1  0.4840632E-008  0.3681765E+03  0.7818608E-02  0.1055392E+00
         -2   -1    0    0    0  501 -0.00000000000E+00  0.00000000000E+00  0.62873321001E+03  0.62873321002E+03  0.25500000000E-02 0.  1.
          2   -1    0    0  501    0  0.00000000000E+00 -0.00000000000E+00 -0.40459087453E+03  0.40459087454E+03  0.25500000000E-02 0. -1.
    8880022    1    1    2    0    0 -0.27394647988E+03 -0.19265404530E+03  0.46518986084E+03  0.59325838776E+03  0.15294330000E+03 0.  0.
    8880022    1    1    2    0    0  0.27394647988E+03  0.19265404530E+03 -0.24104752536E+03  0.44006569680E+03  0.15294330000E+03 0.  0.
<mgrwt>
<rscale>  0 0.36817646E+03</rscale>
<asrwt>0</asrwt>
<pdfrwt beam="1">  1        2 0.62244750E-01 0.36817646E+03</pdfrwt>
<pdfrwt beam="2">  1       -2 0.96728187E-01 0.36817646E+03</pdfrwt>
<totfact> 0.72972876E+01</totfact>
</mgrwt>
</event>
<event>
 4    1  0.4840632E-008  0.6153879E+03  0.7818608E-02  0.9873985E-01
         -2   -1    0    0    0  501 -0.00000000000E+00  0.00000000000E+00  0.29360058676E+03  0.29360058677E+03  0.25500000000E-02 0.  1.
          2   -1    0    0  501    0  0.00000000000E+00 -0.00000000000E+00 -0.14456499062E+04  0.14456499062E+04  0.25500000000E-02 0. -1.
    8880022    1    1    2    0    0 -0.23510312690E+03 -0.54775646806E+03 -0.86150535182E+03  0.10587226987E+04  0.15294330000E+03 0.  0.
    8880022    1    1    2    0    0  0.23510312690E+03  0.54775646806E+03 -0.29054396759E+03  0.68052779422E+03  0.15294330000E+03 0.  0.
<mgrwt>
<rscale>  0 0.61538791E+03</rscale>
<asrwt>0</asrwt>
<pdfrwt beam="1">  1        2 0.22240767E+00 0.61538791E+03</pdfrwt>
<pdfrwt beam="2">  1       -2 0.45169322E-01 0.61538791E+03</pdfrwt>
<totfact> 0.65544131E+01</totfact>
</mgrwt>
</event>
<event>
 4    1  0.4840632E-008  0.2568465E+03  0.7818608E-02  0.1109053E+00
          2   -1    0    0  501    0  0.00000000000E+00  0.00000000000E+00  0.15579398187E+04  0.15579398187E+04  0.25500000000E-02 0. -1.
         -2   -1    0    0    0  501 -0.00000000000E+00 -0.00000000000E+00 -0.50879352780E+03  0.50879352780E+03  0.25500000000E-02 0.  1.
    8880022    1    1    2    0    0 -0.32240672684E+02 -0.20381126554E+03 -0.46485843773E+03  0.53109651956E+03  0.15294330000E+03 0.  0.
    8880022    1    1    2    0    0  0.32240672684E+02  0.20381126554E+03  0.15140047287E+04  0.15356368270E+04  0.15294330000E+03 0. -1.
<mgrwt>
<rscale>  0 0.25684654E+03</rscale>
<asrwt>0</asrwt>
<pdfrwt beam="1">  1        2 0.23968305E+00 0.25684654E+03</pdfrwt>
<pdfrwt beam="2">  1       -2 0.78275928E-01 0.25684654E+03</pdfrwt>
<totfact> 0.19436568E+01</totfact>
</mgrwt>
</event>
<event>
 4    1  0.4840632E-008  0.7558821E+03  0.7818608E-02  0.9626167E-01
         -2   -1    0    0    0  501 -0.00000000000E+00  0.00000000000E+00  0.41071525190E+03  0.41071525191E+03  0.25500000000E-02 0.  1.
          2   -1    0    0  501    0  0.00000000000E+00 -0.00000000000E+00 -0.22070889998E+04  0.22070889998E+04  0.25500000000E-02 0. -1.
    8880022    1    1    2    0    0 -0.71836894439E+03  0.17863963095E+03 -0.16940379457E+04  0.18550262188E+04  0.15294330000E+03 0.  0.
    8880022    1    1    2    0    0  0.71836894439E+03 -0.17863963095E+03 -0.10233580218E+03  0.76277803287E+03  0.15294330000E+03 0.  0.
<mgrwt>
<rscale>  0 0.75588207E+03</rscale>
<asrwt>0</asrwt>
<pdfrwt beam="1">  1        2 0.33955215E+00 0.75588207E+03</pdfrwt>
<pdfrwt beam="2">  1       -2 0.63186963E-01 0.75588207E+03</pdfrwt>
<totfact> 0.12335262E+01</totfact>
</mgrwt>
</event>
<event>
 4    1  0.4840632E-008  0.8290376E+03  0.7818608E-02  0.9518912E-01
         -2   -1    0    0    0  501 -0.00000000000E+00  0.00000000000E+00  0.22525603605E+03  0.22525603606E+03  0.25500000000E-02 0.  1.
          2   -1    0    0  501    0  0.00000000000E+00 -0.00000000000E+00 -0.30957170719E+04  0.30957170719E+04  0.25500000000E-02 0. -1.
    8880022    1    1    2    0    0  0.74567805334E+03  0.32844466822E+03 -0.16343311570E+04  0.18325778682E+04  0.15294330000E+03 0.  0.
    8880022    1    1    2    0    0 -0.74567805334E+03 -0.32844466822E+03 -0.12361298789E+04  0.14883952398E+04  0.15294330000E+03 0.  0.
<mgrwt>
<rscale>  0 0.82903758E+03</rscale>
<asrwt>0</asrwt>
<pdfrwt beam="1">  1        2 0.47626413E+00 0.82903758E+03</pdfrwt>
<pdfrwt beam="2">  1       -2 0.34654777E-01 0.82903758E+03</pdfrwt>
<totfact> 0.12423297E+01</totfact>
</mgrwt>
</event>
<event>
 4    1  0.4840632E-008  0.3767066E+03  0.7818608E-02  0.1052158E+00
          2   -1    0    0  501    0  0.00000000000E+00  0.00000000000E+00  0.95555197917E+03  0.95555197917E+03  0.25500000000E-02 0. -1.
         -2   -1    0    0    0  501 -0.00000000000E+00 -0.00000000000E+00 -0.16151392259E+03  0.16151392261E+03  0.25500000000E-02 0.  1.
    8880022    1    1    2    0    0 -0.31333194032E+03 -0.14261592881E+03  0.23852922156E+03  0.44587447845E+03  0.15294330000E+03 0.  0.
    8880022    1    1    2    0    0  0.31333194032E+03  0.14261592881E+03  0.55550883501E+03  0.67119142334E+03  0.15294330000E+03 0.  0.
<mgrwt>
<rscale>  0 0.37670660E+03</rscale>
<asrwt>0</asrwt>
<pdfrwt beam="1">  1        2 0.14700800E+00 0.37670660E+03</pdfrwt>
<pdfrwt beam="2">  1       -2 0.24848295E-01 0.37670660E+03</pdfrwt>
<totfact> 0.40106683E+02</totfact>
</mgrwt>
</event>
<event>
 4    1  0.4840632E-008  0.2692056E+03  0.7818608E-02  0.1101735E+00
          2   -1    0    0  501    0  0.00000000000E+00  0.00000000000E+00  0.11847983423E+04  0.11847983423E+04  0.25500000000E-02 0. -1.
         -2   -1    0    0    0  501 -0.00000000000E+00 -0.00000000000E+00 -0.20080784996E+03  0.20080784998E+03  0.25500000000E-02 0.  1.
    8880022    1    1    2    0    0 -0.11642550816E+03  0.18848103803E+03  0.10697243995E+04  0.11030783946E+04  0.15294330000E+03 0. -1.
    8880022    1    1    2    0    0  0.11642550816E+03 -0.18848103803E+03 -0.85733907146E+02  0.28252779774E+03  0.15294330000E+03 0.  0.
<mgrwt>
<rscale>  0 0.26920560E+03</rscale>
<asrwt>0</asrwt>
<pdfrwt beam="1">  1        2 0.18227667E+00 0.26920560E+03</pdfrwt>
<pdfrwt beam="2">  1       -2 0.30893515E-01 0.26920560E+03</pdfrwt>
<totfact> 0.19954851E+02</totfact>
</mgrwt>
</event>
<event>
 4    1  0.5411705E-008  0.1030259E+04  0.7818608E-02  0.9275966E-01
         -2   -1    0    0    0  501 -0.00000000000E+00  0.00000000000E+00  0.79232174112E+03  0.79232174112E+03  0.25500000000E-02 0.  1.
          2   -1    0    0  501    0  0.00000000000E+00 -0.00000000000E+00 -0.26796742824E+04  0.26796742824E+04  0.25500000000E-02 0. -1.
    8880022    1    1    2    0    0  0.62867817501E+03  0.80175204735E+03  0.28394517430E+03  0.10686716559E+04  0.15294330000E+03 0.  0.
    8880022    1    1    2    0    0 -0.62867817501E+03 -0.80175204735E+03 -0.21712977156E+04  0.24033243676E+04  0.15294330000E+03 0.  0.
<mgrwt>
<rscale>  0 0.10302593E+04</rscale>
<asrwt>0</asrwt>
<pdfrwt beam="1">  1        2 0.41225758E+00 0.10302593E+04</pdfrwt>
<pdfrwt beam="2">  1       -2 0.12189565E+00 0.10302593E+04</pdfrwt>
<totfact> 0.14026532E+00</totfact>
</mgrwt>
</event>
<event>
 4    1  0.4840632E-008  0.5503084E+03  0.7818608E-02  0.1001423E+00
          2   -1    0    0  501    0  0.00000000000E+00  0.00000000000E+00  0.51298173927E+03  0.51298173927E+03  0.25500000000E-02 0. -1.
         -2   -1    0    0    0  501 -0.00000000000E+00 -0.00000000000E+00 -0.71832918166E+03  0.71832918166E+03  0.25500000000E-02 0.  1.
    8880022    1    1    2    0    0 -0.24792895977E+03 -0.46688215115E+03 -0.36253625933E+03  0.65899309897E+03  0.15294330000E+03 0.  0.
    8880022    1    1    2    0    0  0.24792895977E+03  0.46688215115E+03  0.15718881694E+03  0.57231782196E+03  0.15294330000E+03 0.  0.
<mgrwt>
<rscale>  0 0.55030843E+03</rscale>
<asrwt>0</asrwt>
<pdfrwt beam="1">  1        2 0.78920268E-01 0.55030843E+03</pdfrwt>
<pdfrwt beam="2">  1       -2 0.11051218E+00 0.55030843E+03</pdfrwt>
<totfact> 0.39955053E+01</totfact>
</mgrwt>
</event>
<event>
 4    1  0.4840632E-008  0.4028678E+03  0.7818608E-02  0.1042791E+00
          2   -1    0    0  501    0  0.00000000000E+00  0.00000000000E+00  0.18857378228E+04  0.18857378228E+04  0.25500000000E-02 0. -1.
         -2   -1    0    0    0  501 -0.00000000000E+00 -0.00000000000E+00 -0.13246891921E+03  0.13246891924E+03  0.25500000000E-02 0.  1.
    8880022    1    1    2    0    0 -0.26989052448E+03  0.25704067708E+03  0.27940663238E+03  0.49027596730E+03  0.15294330000E+03 0.  0.
    8880022    1    1    2    0    0  0.26989052448E+03 -0.25704067708E+03  0.14738622712E+04  0.15279307747E+04  0.15294330000E+03 0.  0.
<mgrwt>
<rscale>  0 0.40286779E+03</rscale>
<asrwt>0</asrwt>
<pdfrwt beam="1">  1        2 0.29011351E+00 0.40286779E+03</pdfrwt>
<pdfrwt beam="2">  1       -2 0.20379834E-01 0.40286779E+03</pdfrwt>
<totfact> 0.17021567E+02</totfact>
</mgrwt>
</event>
<event>
 4    1  0.4840632E-008  0.4407817E+03  0.7818608E-02  0.1030507E+00
         -2   -1    0    0    0  501 -0.00000000000E+00  0.00000000000E+00  0.10564863997E+04  0.10564863997E+04  0.25500000000E-02 0.  1.
          2   -1    0    0  501    0  0.00000000000E+00 -0.00000000000E+00 -0.50837177327E+03  0.50837177328E+03  0.25500000000E-02 0. -1.
    8880022    1    1    2    0    0 -0.69907952810E+02 -0.40744295432E+03 -0.35103232273E+03  0.56348223354E+03  0.15294330000E+03 0.  0.
    8880022    1    1    2    0    0  0.69907952810E+02  0.40744295432E+03  0.89914694920E+03  0.10013759395E+04  0.15294330000E+03 0.  0.
<mgrwt>
<rscale>  0 0.44078173E+03</rscale>
<asrwt>0</asrwt>
<pdfrwt beam="1">  1        2 0.78211043E-01 0.44078173E+03</pdfrwt>
<pdfrwt beam="2">  1       -2 0.16253637E+00 0.44078173E+03</pdfrwt>
<totfact> 0.15357086E+01</totfact>
</mgrwt>
</event>
<event>
 4    1  0.4840632E-008  0.2646255E+03  0.7818608E-02  0.1104396E+00
         -2   -1    0    0    0  501 -0.00000000000E+00  0.00000000000E+00  0.89454487237E+02  0.89454487273E+02  0.25500000000E-02 0.  1.
          2   -1    0    0  501    0  0.00000000000E+00 -0.00000000000E+00 -0.13711899348E+04  0.13711899348E+04  0.25500000000E-02 0. -1.
    8880022    1    1    2    0    0  0.84358317547E+02  0.19879298801E+03 -0.16246738690E+03  0.31051937564E+03  0.15294330000E+03 0.  0.
    8880022    1    1    2    0    0 -0.84358317547E+02 -0.19879298801E+03 -0.11192680606E+04  0.11501250464E+04  0.15294330000E+03 0.  0.
<mgrwt>
<rscale>  0 0.26462545E+03</rscale>
<asrwt>0</asrwt>
<pdfrwt beam="1">  1        2 0.21095228E+00 0.26462545E+03</pdfrwt>
<pdfrwt beam="2">  1       -2 0.13762230E-01 0.26462545E+03</pdfrwt>
<totfact> 0.63560170E+02</totfact>
</mgrwt>
</event>
<event>
 4    1  0.4840632E-008  0.2159692E+03  0.7818608E-02  0.1136924E+00
          2   -1    0    0  501    0  0.00000000000E+00  0.00000000000E+00  0.21308251413E+04  0.21308251413E+04  0.25500000000E-02 0. -1.
         -2   -1    0    0    0  501 -0.00000000000E+00 -0.00000000000E+00 -0.37325917839E+02  0.37325917926E+02  0.25500000000E-02 0.  1.
    8880022    1    1    2    0    0 -0.34121685998E+02  0.14861618034E+03  0.17439015840E+04  0.17572237894E+04  0.15294330000E+03 0.  0.
    8880022    1    1    2    0    0  0.34121685998E+02 -0.14861618034E+03  0.34959763943E+03  0.41092726975E+03  0.15294330000E+03 0.  0.
<mgrwt>
<rscale>  0 0.21596924E+03</rscale>
<asrwt>0</asrwt>
<pdfrwt beam="1">  1        2 0.32781930E+00 0.21596924E+03</pdfrwt>
<pdfrwt beam="2">  1       -2 0.57424480E-02 0.21596924E+03</pdfrwt>
<totfact> 0.10113835E+03</totfact>
</mgrwt>
</event>
<event>
 4    1  0.4840632E-008  0.3450422E+03  0.7818608E-02  0.1064669E+00
          2   -1    0    0  501    0  0.00000000000E+00  0.00000000000E+00  0.88433051306E+03  0.88433051307E+03  0.25500000000E-02 0. -1.
         -2   -1    0    0    0  501 -0.00000000000E+00 -0.00000000000E+00 -0.30133497846E+03  0.30133497847E+03  0.25500000000E-02 0.  1.
    8880022    1    1    2    0    0  0.28585695604E+03  0.11810276812E+03  0.73244493539E+03  0.80964788615E+03  0.15294330000E+03 0. -1.
    8880022    1    1    2    0    0 -0.28585695604E+03 -0.11810276812E+03 -0.14944940079E+03  0.37601760539E+03  0.15294330000E+03 0.  0.
<mgrwt>
<rscale>  0 0.34504219E+03</rscale>
<asrwt>0</asrwt>
<pdfrwt beam="1">  1        2 0.13605085E+00 0.34504219E+03</pdfrwt>
<pdfrwt beam="2">  1       -2 0.46359228E-01 0.34504219E+03</pdfrwt>
<totfact> 0.13903574E+02</totfact>
</mgrwt>
</event>
<event>
 4    1  0.4840632E-008  0.4846459E+03  0.7818608E-02  0.1017866E+00
          2   -1    0    0  501    0  0.00000000000E+00  0.00000000000E+00  0.91084085669E+03  0.91084085669E+03  0.25500000000E-02 0. -1.
         -2   -1    0    0    0  501 -0.00000000000E+00 -0.00000000000E+00 -0.33364025007E+03  0.33364025008E+03  0.25500000000E-02 0.  1.
    8880022    1    1    2    0    0  0.45072415619E+03  0.91310962485E+02 -0.79229580056E+01  0.48471061792E+03  0.15294330000E+03 0.  0.
    8880022    1    1    2    0    0 -0.45072415619E+03 -0.91310962485E+02  0.58512356462E+03  0.75977048885E+03  0.15294330000E+03 0.  0.
<mgrwt>
<rscale>  0 0.48464586E+03</rscale>
<asrwt>0</asrwt>
<pdfrwt beam="1">  1        2 0.14012936E+00 0.48464586E+03</pdfrwt>
<pdfrwt beam="2">  1       -2 0.51329269E-01 0.48464586E+03</pdfrwt>
<totfact> 0.10709723E+02</totfact>
</mgrwt>
</event>
<event>
 4    1  0.7339872E-008  0.9038476E+03  0.7818608E-02  0.9420784E-01
          2   -1    0    0  501    0  0.00000000000E+00  0.00000000000E+00  0.24660791773E+04  0.24660791773E+04  0.25500000000E-02 0. -1.
         -2   -1    0    0    0  501 -0.00000000000E+00 -0.00000000000E+00 -0.11006240619E+04  0.11006240619E+04  0.25500000000E-02 0.  1.
    8880022    1    1    2    0    0  0.65545504410E+02 -0.88839894798E+03  0.21737367379E+04  0.23541605643E+04  0.15294330000E+03 0.  0.
    8880022    1    1    2    0    0 -0.65545504410E+02  0.88839894798E+03 -0.80828162254E+03  0.12125426748E+04  0.15294330000E+03 0.  0.
<mgrwt>
<rscale>  0 0.90384764E+03</rscale>
<asrwt>0</asrwt>
<pdfrwt beam="1">  1        2 0.37939680E+00 0.90384764E+03</pdfrwt>
<pdfrwt beam="2">  1       -2 0.16932678E+00 0.90384764E+03</pdfrwt>
<totfact> 0.80181033E-01</totfact>
</mgrwt>
</event>
<event>
 4    1  0.4840632E-008  0.7221737E+03  0.7818608E-02  0.9680046E-01
         -2   -1    0    0    0  501 -0.00000000000E+00  0.00000000000E+00  0.15193209316E+04  0.15193209316E+04  0.25500000000E-02 0.  1.
          2   -1    0    0  501    0  0.00000000000E+00 -0.00000000000E+00 -0.10967092893E+04  0.10967092893E+04  0.25500000000E-02 0. -1.
    8880022    1    1    2    0    0 -0.25532081331E+03  0.65799281897E+03 -0.87284969151E+03  0.11328731193E+04  0.15294330000E+03 0.  0.
    8880022    1    1    2    0    0  0.25532081331E+03 -0.65799281897E+03  0.12954613339E+04  0.14831571016E+04  0.15294330000E+03 0.  0.
<mgrwt>
<rscale>  0 0.72217375E+03</rscale>
<asrwt>0</asrwt>
<pdfrwt beam="1">  1        2 0.16872451E+00 0.72217375E+03</pdfrwt>
<pdfrwt beam="2">  1       -2 0.23374168E+00 0.72217375E+03</pdfrwt>
<totfact> 0.18384499E+00</totfact>
</mgrwt>
</event>
<event>
 4    1  0.4840632E-008  0.6427483E+03  0.7818608E-02  0.9820482E-01
         -2   -1    0    0    0  501 -0.00000000000E+00  0.00000000000E+00  0.56983123385E+03  0.56983123386E+03  0.25500000000E-02 0.  1.
          2   -1    0    0  501    0  0.00000000000E+00 -0.00000000000E+00 -0.13596839072E+04  0.13596839072E+04  0.25500000000E-02 0. -1.
    8880022    1    1    2    0    0 -0.58547121326E+03 -0.21669596644E+03  0.26421621005E+03  0.69493563881E+03  0.15294330000E+03 0.  0.
    8880022    1    1    2    0    0  0.58547121326E+03  0.21669596644E+03 -0.10540688834E+04  0.12345795023E+04  0.15294330000E+03 0.  0.
<mgrwt>
<rscale>  0 0.64274827E+03</rscale>
<asrwt>0</asrwt>
<pdfrwt beam="1">  1        2 0.20918214E+00 0.64274827E+03</pdfrwt>
<pdfrwt beam="2">  1       -2 0.87666344E-01 0.64274827E+03</pdfrwt>
<totfact> 0.17754713E+01</totfact>
</mgrwt>
</event>
<event>
 4    1  0.4840632E-008  0.5639125E+03  0.7818608E-02  0.9983241E-01
          2   -1    0    0  501    0  0.00000000000E+00  0.00000000000E+00  0.33048743121E+04  0.33048743121E+04  0.25500000000E-02 0. -1.
         -2   -1    0    0    0  501 -0.00000000000E+00 -0.00000000000E+00 -0.18751767307E+03  0.18751767309E+03  0.25500000000E-02 0.  1.
    8880022    1    1    2    0    0 -0.53517631681E+03  0.90509261570E+02  0.34024964764E+03  0.65860996973E+03  0.15294330000E+03 0.  0.
    8880022    1    1    2    0    0  0.53517631681E+03 -0.90509261570E+02  0.27771069914E+04  0.28337820155E+04  0.15294330000E+03 0.  0.
<mgrwt>
<rscale>  0 0.56391247E+03</rscale>
<asrwt>0</asrwt>
<pdfrwt beam="1">  1        2 0.50844217E+00 0.56391247E+03</pdfrwt>
<pdfrwt beam="2">  1       -2 0.28848874E-01 0.56391247E+03</pdfrwt>
<totfact> 0.13580468E+01</totfact>
</mgrwt>
</event>
<event>
 4    1  0.4840632E-008  0.6841092E+03  0.7818608E-02  0.9744800E-01
         -2   -1    0    0    0  501 -0.00000000000E+00  0.00000000000E+00  0.12108866118E+04  0.12108866118E+04  0.25500000000E-02 0.  1.
          2   -1    0    0  501    0  0.00000000000E+00 -0.00000000000E+00 -0.46751896898E+03  0.46751896898E+03  0.25500000000E-02 0. -1.
    8880022    1    1    2    0    0  0.25974241577E+03  0.61412348918E+03  0.72103773674E+03  0.99393201645E+03  0.15294330000E+03 0.  0.
    8880022    1    1    2    0    0 -0.25974241577E+03 -0.61412348918E+03  0.22329906046E+02  0.68447356430E+03  0.15294330000E+03 0.  0.
<mgrwt>
<rscale>  0 0.68410923E+03</rscale>
<asrwt>0</asrwt>
<pdfrwt beam="1">  1        2 0.71925997E-01 0.68410923E+03</pdfrwt>
<pdfrwt beam="2">  1       -2 0.18629024E+00 0.68410923E+03</pdfrwt>
<totfact> 0.11195163E+01</totfact>
</mgrwt>
</event>
<event>
 4    1  0.4840632E-008  0.6762891E+03  0.7818608E-02  0.9758663E-01
         -2   -1    0    0    0  501 -0.00000000000E+00  0.00000000000E+00  0.23079012656E+03  0.23079012657E+03  0.25500000000E-02 0.  1.
          2   -1    0    0  501    0  0.00000000000E+00 -0.00000000000E+00 -0.26178970706E+04  0.26178970706E+04  0.25500000000E-02 0. -1.
    8880022    1    1    2    0    0 -0.17975745972E+03  0.63376848927E+03 -0.18956864591E+04  0.20127081374E+04  0.15294330000E+03 0.  0.
    8880022    1    1    2    0    0  0.17975745972E+03 -0.63376848927E+03 -0.49142048502E+03  0.83597905980E+03  0.15294330000E+03 0.  0.
<mgrwt>
<rscale>  0 0.67628906E+03</rscale>
<asrwt>0</asrwt>
<pdfrwt beam="1">  1        2 0.40275337E+00 0.67628906E+03</pdfrwt>
<pdfrwt beam="2">  1       -2 0.35506175E-01 0.67628906E+03</pdfrwt>
<totfact> 0.23473035E+01</totfact>
</mgrwt>
</event>
<event>
 4    1  0.4840632E-008  0.6400522E+03  0.7818608E-02  0.9825627E-01
         -2   -1    0    0    0  501 -0.00000000000E+00  0.00000000000E+00  0.70708122499E+03  0.70708122500E+03  0.25500000000E-02 0.  1.
          2   -1    0    0  501    0  0.00000000000E+00 -0.00000000000E+00 -0.87845083444E+03  0.87845083445E+03  0.25500000000E-02 0. -1.
    8880022    1    1    2    0    0 -0.60363069064E+03  0.14800369028E+03 -0.54825255447E+03  0.84276189965E+03  0.15294330000E+03 0.  0.
    8880022    1    1    2    0    0  0.60363069064E+03 -0.14800369028E+03  0.37688294502E+03  0.74277015979E+03  0.15294330000E+03 0.  1.
<mgrwt>
<rscale>  0 0.64005215E+03</rscale>
<asrwt>0</asrwt>
<pdfrwt beam="1">  1        2 0.13514628E+00 0.64005215E+03</pdfrwt>
<pdfrwt beam="2">  1       -2 0.10878173E+00 0.64005215E+03</pdfrwt>
<totfact> 0.21031996E+01</totfact>
</mgrwt>
</event>
<event>
 4    1  0.4840632E-008  0.6696369E+03  0.7818608E-02  0.9770614E-01
         -2   -1    0    0    0  501 -0.00000000000E+00  0.00000000000E+00  0.34786374213E+03  0.34786374214E+03  0.25500000000E-02 0.  1.
          2   -1    0    0  501    0  0.00000000000E+00 -0.00000000000E+00 -0.28085635680E+04  0.28085635680E+04  0.25500000000E-02 0. -1.
    8880022    1    1    2    0    0  0.55306769946E+03 -0.34516374793E+03 -0.69500074117E+02  0.67323384228E+03  0.15294330000E+03 0.  0.
    8880022    1    1    2    0    0 -0.55306769946E+03  0.34516374793E+03 -0.23911997518E+04  0.24831934679E+04  0.15294330000E+03 0. -1.
<mgrwt>
<rscale>  0 0.66963688E+03</rscale>
<asrwt>0</asrwt>
<pdfrwt beam="1">  1        2 0.43208669E+00 0.66963688E+03</pdfrwt>
<pdfrwt beam="2">  1       -2 0.53517501E-01 0.66963688E+03</pdfrwt>
<totfact> 0.80799085E+00</totfact>
</mgrwt>
</event>
<event>
 4    1  0.4840632E-008  0.8510778E+03  0.7818608E-02  0.9488892E-01
         -2   -1    0    0    0  501 -0.00000000000E+00  0.00000000000E+00  0.91657493636E+03  0.91657493636E+03  0.25500000000E-02 0.  1.
          2   -1    0    0  501    0  0.00000000000E+00 -0.00000000000E+00 -0.83336364113E+03  0.83336364113E+03  0.25500000000E-02 0. -1.
    8880022    1    1    2    0    0 -0.80826642092E+03 -0.21828225191E+03 -0.15738268317E+03  0.86550719850E+03  0.15294330000E+03 0. -1.
    8880022    1    1    2    0    0  0.80826642092E+03  0.21828225191E+03  0.24059397840E+03  0.88443137899E+03  0.15294330000E+03 0.  1.
<mgrwt>
<rscale>  0 0.85107779E+03</rscale>
<asrwt>0</asrwt>
<pdfrwt beam="1">  1        2 0.12820979E+00 0.85107779E+03</pdfrwt>
<pdfrwt beam="2">  1       -2 0.14101153E+00 0.85107779E+03</pdfrwt>
<totfact> 0.11554315E+01</totfact>
</mgrwt>
</event>
<event>
 4    1  0.4840632E-008  0.7795626E+03  0.7818608E-02  0.9590080E-01
          2   -1    0    0  501    0  0.00000000000E+00  0.00000000000E+00  0.26235261338E+04  0.26235261338E+04  0.25500000000E-02 0. -1.
         -2   -1    0    0    0  501 -0.00000000000E+00 -0.00000000000E+00 -0.28179320665E+03  0.28179320667E+03  0.25500000000E-02 0.  1.
    8880022    1    1    2    0    0  0.34023959908E+03 -0.68451680723E+03  0.55803525959E+03  0.95870811415E+03  0.15294330000E+03 0.  0.
    8880022    1    1    2    0    0 -0.34023959908E+03  0.68451680723E+03  0.17836976675E+04  0.19466112263E+04  0.15294330000E+03 0.  0.
<mgrwt>
<rscale>  0 0.77956263E+03</rscale>
<asrwt>0</asrwt>
<pdfrwt beam="1">  1        2 0.40361940E+00 0.77956263E+03</pdfrwt>
<pdfrwt beam="2">  1       -2 0.43352802E-01 0.77956263E+03</pdfrwt>
<totfact> 0.15545553E+01</totfact>
</mgrwt>
</event>
<event>
 4    1  0.4840632E-008  0.1134717E+04  0.7818608E-02  0.9172000E-01
          2   -1    0    0  501    0  0.00000000000E+00  0.00000000000E+00  0.40113625431E+04  0.40113625431E+04  0.25500000000E-02 0. -1.
         -2   -1    0    0    0  501 -0.00000000000E+00 -0.00000000000E+00 -0.54811014393E+03  0.54811014394E+03  0.25500000000E-02 0.  1.
    8880022    1    1    2    0    0 -0.10487692000E+04  0.40530692549E+03  0.31991478117E+04  0.33944261537E+04  0.15294330000E+03 0.  0.
    8880022    1    1    2    0    0  0.10487692000E+04 -0.40530692549E+03  0.26410458741E+03  0.11650465333E+04  0.15294330000E+03 0.  0.
<mgrwt>
<rscale>  0 0.11347168E+04</rscale>
<asrwt>0</asrwt>
<pdfrwt beam="1">  1        2 0.61713270E+00 0.11347168E+04</pdfrwt>
<pdfrwt beam="2">  1       -2 0.84324637E-01 0.11347168E+04</pdfrwt>
<totfact> 0.42220808E-01</totfact>
</mgrwt>
</event>
<event>
 4    1  0.4840632E-008  0.8047319E+03  0.7818608E-02  0.9553193E-01
         -2   -1    0    0    0  501 -0.00000000000E+00  0.00000000000E+00  0.26120471938E+03  0.26120471939E+03  0.25500000000E-02 0.  1.
          2   -1    0    0  501    0  0.00000000000E+00 -0.00000000000E+00 -0.29860603424E+04  0.29860603424E+04  0.25500000000E-02 0. -1.
    8880022    1    1    2    0    0 -0.46259522053E+03 -0.64047435693E+03 -0.20313237774E+04  0.21849186899E+04  0.15294330000E+03 0.  0.
    8880022    1    1    2    0    0  0.46259522053E+03  0.64047435693E+03 -0.69353184566E+03  0.10623463719E+04  0.15294330000E+03 0.  0.
<mgrwt>
<rscale>  0 0.80473188E+03</rscale>
<asrwt>0</asrwt>
<pdfrwt beam="1">  1        2 0.45939388E+00 0.80473188E+03</pdfrwt>
<pdfrwt beam="2">  1       -2 0.40185343E-01 0.80473188E+03</pdfrwt>
<totfact> 0.10957487E+01</totfact>
</mgrwt>
</event>
<event>
 4    1  0.9808223E-008  0.9635456E+03  0.7818608E-02  0.9349456E-01
         -2   -1    0    0    0  501 -0.00000000000E+00  0.00000000000E+00  0.11288627451E+04  0.11288627451E+04  0.25500000000E-02 0.  1.
          2   -1    0    0  501    0  0.00000000000E+00 -0.00000000000E+00 -0.23542226842E+04  0.23542226842E+04  0.25500000000E-02 0. -1.
    8880022    1    1    2    0    0  0.94469179737E+03  0.11218681666E+03  0.79210275676E+03  0.12473359227E+04  0.15294330000E+03 0.  0.
    8880022    1    1    2    0    0 -0.94469179737E+03 -0.11218681666E+03 -0.20174626959E+04  0.22357495065E+04  0.15294330000E+03 0.  0.
<mgrwt>
<rscale>  0 0.96354560E+03</rscale>
<asrwt>0</asrwt>
<pdfrwt beam="1">  1        2 0.36218811E+00 0.96354560E+03</pdfrwt>
<pdfrwt beam="2">  1       -2 0.17367119E+00 0.96354560E+03</pdfrwt>
<totfact> 0.85534697E-01</totfact>
</mgrwt>
</event>
<event>
 4    1  0.4840632E-008  0.2008620E+03  0.7818608E-02  0.1149014E+00
         -2   -1    0    0    0  501 -0.00000000000E+00  0.00000000000E+00  0.15003167976E+03  0.15003167978E+03  0.25500000000E-02 0.  1.
          2   -1    0    0  501    0  0.00000000000E+00 -0.00000000000E+00 -0.14456835756E+04  0.14456835756E+04  0.25500000000E-02 0. -1.
    8880022    1    1    2    0    0  0.85480144492E+02  0.98219381833E+02  0.72011725881E+02  0.21338051399E+03  0.15294330000E+03 0.  1.
    8880022    1    1    2    0    0 -0.85480144492E+02 -0.98219381833E+02 -0.13676636217E+04  0.13823347414E+04  0.15294330000E+03 0. -1.
<mgrwt>
<rscale>  0 0.20086203E+03</rscale>
<asrwt>0</asrwt>
<pdfrwt beam="1">  1        2 0.22241285E+00 0.20086203E+03</pdfrwt>
<pdfrwt beam="2">  1       -2 0.23081798E-01 0.20086203E+03</pdfrwt>
<totfact> 0.24454120E+02</totfact>
</mgrwt>
</event>
<event>
 4    1  0.4840632E-008  0.6296520E+03  0.7818608E-02  0.9845728E-01
          2   -1    0    0  501    0  0.00000000000E+00  0.00000000000E+00  0.91299577799E+03  0.91299577799E+03  0.25500000000E-02 0. -1.
         -2   -1    0    0    0  501 -0.00000000000E+00 -0.00000000000E+00 -0.52047965198E+03  0.52047965199E+03  0.25500000000E-02 0.  1.
    8880022    1    1    2    0    0  0.55214165275E+03  0.26116974011E+03  0.48800428913E+03  0.79662405002E+03  0.15294330000E+03 0.  0.
    8880022    1    1    2    0    0 -0.55214165275E+03 -0.26116974011E+03 -0.95488163122E+02  0.63685137996E+03  0.15294330000E+03 0.  0.
<mgrwt>
<rscale>  0 0.62965204E+03</rscale>
<asrwt>0</asrwt>
<pdfrwt beam="1">  1        2 0.14046089E+00 0.62965204E+03</pdfrwt>
<pdfrwt beam="2">  1       -2 0.80073794E-01 0.62965204E+03</pdfrwt>
<totfact> 0.40694484E+01</totfact>
</mgrwt>
</event>
<event>
 4    1  0.4840632E-008  0.3232190E+03  0.7818608E-02  0.1074177E+00
          2   -1    0    0  501    0  0.00000000000E+00  0.00000000000E+00  0.23438188823E+04  0.23438188823E+04  0.25500000000E-02 0. -1.
         -2   -1    0    0    0  501 -0.00000000000E+00 -0.00000000000E+00 -0.12982654552E+03  0.12982654555E+03  0.25500000000E-02 0.  1.
    8880022    1    1    2    0    0 -0.26525109709E+03 -0.10354083301E+03  0.10473129355E+03  0.33976336688E+03  0.15294330000E+03 0.  0.
    8880022    1    1    2    0    0  0.26525109709E+03  0.10354083301E+03  0.21092610432E+04  0.21338820609E+04  0.15294330000E+03 0.  0.
<mgrwt>
<rscale>  0 0.32321897E+03</rscale>
<asrwt>0</asrwt>
<pdfrwt beam="1">  1        2 0.36058753E+00 0.32321897E+03</pdfrwt>
<pdfrwt beam="2">  1       -2 0.19973314E-01 0.32321897E+03</pdfrwt>
<totfact> 0.10188299E+02</totfact>
</mgrwt>
</event>
<event>
 4    1  0.4840632E-008  0.4677070E+03  0.7818608E-02  0.1022569E+00
         -2   -1    0    0    0  501 -0.00000000000E+00  0.00000000000E+00  0.16531131232E+03  0.16531131234E+03  0.25500000000E-02 0.  1.
          2   -1    0    0  501    0  0.00000000000E+00 -0.00000000000E+00 -0.15511507420E+04  0.15511507420E+04  0.25500000000E-02 0. -1.
    8880022    1    1    2    0    0  0.29240577378E+03  0.33144692644E+03 -0.10218777563E+04  0.11238256107E+04  0.15294330000E+03 0.  0.
    8880022    1    1    2    0    0 -0.29240577378E+03 -0.33144692644E+03 -0.36396167344E+03  0.59263644364E+03  0.15294330000E+03 0.  0.
<mgrwt>
<rscale>  0 0.46770702E+03</rscale>
<asrwt>0</asrwt>
<pdfrwt beam="1">  1        2 0.23863857E+00 0.46770702E+03</pdfrwt>
<pdfrwt beam="2">  1       -2 0.25432511E-01 0.46770702E+03</pdfrwt>
<totfact> 0.17256901E+02</totfact>
</mgrwt>
</event>
<event>
 4    1  0.4840632E-008  0.9320206E+03  0.7818608E-02  0.9386416E-01
         -2   -1    0    0    0  501 -0.00000000000E+00  0.00000000000E+00  0.50247292479E+03  0.50247292480E+03  0.25500000000E-02 0.  1.
          2   -1    0    0  501    0  0.00000000000E+00 -0.00000000000E+00 -0.29262886991E+04  0.29262886991E+04  0.25500000000E-02 0. -1.
    8880022    1    1    2    0    0 -0.66100061990E+03 -0.63902180003E+03 -0.11520480359E+03  0.93911366735E+03  0.15294330000E+03 0.  0.
    8880022    1    1    2    0    0  0.66100061990E+03  0.63902180003E+03 -0.23086109707E+04  0.24896479565E+04  0.15294330000E+03 0.  0.
<mgrwt>
<rscale>  0 0.93202056E+03</rscale>
<asrwt>0</asrwt>
<pdfrwt beam="1">  1        2 0.45019825E+00 0.93202056E+03</pdfrwt>
<pdfrwt beam="2">  1       -2 0.77303529E-01 0.93202056E+03</pdfrwt>
<totfact> 0.29768593E+00</totfact>
</mgrwt>
</event>
<event>
 4    1  0.4840632E-008  0.3205100E+03  0.7818608E-02  0.1075415E+00
          2   -1    0    0  501    0  0.00000000000E+00  0.00000000000E+00  0.12107055661E+04  0.12107055661E+04  0.25500000000E-02 0. -1.
         -2   -1    0    0    0  501 -0.00000000000E+00 -0.00000000000E+00 -0.35748961901E+03  0.35748961902E+03  0.25500000000E-02 0.  1.
    8880022    1    1    2    0    0  0.13109885911E+03  0.24929524576E+03 -0.25814510545E+03  0.41154049485E+03  0.15294330000E+03 0.  0.
    8880022    1    1    2    0    0 -0.13109885911E+03 -0.24929524576E+03  0.11113610526E+04  0.11566546903E+04  0.15294330000E+03 0.  0.
<mgrwt>
<rscale>  0 0.32051004E+03</rscale>
<asrwt>0</asrwt>
<pdfrwt beam="1">  1        2 0.18626239E+00 0.32051004E+03</pdfrwt>
<pdfrwt beam="2">  1       -2 0.54998404E-01 0.32051004E+03</pdfrwt>
<totfact> 0.62577669E+01</totfact>
</mgrwt>
</event>
<event>
 4    1  0.4840632E-008  0.3801383E+03  0.7818608E-02  0.1050883E+00
         -2   -1    0    0    0  501 -0.00000000000E+00  0.00000000000E+00  0.17005837030E+03  0.17005837032E+03  0.25500000000E-02 0.  1.
          2   -1    0    0  501    0  0.00000000000E+00 -0.00000000000E+00 -0.10173421757E+04  0.10173421757E+04  0.25500000000E-02 0. -1.
    8880022    1    1    2    0    0  0.20071526196E+03 -0.28430061836E+03 -0.18266481654E+03  0.42174820236E+03  0.15294330000E+03 0.  0.
    8880022    1    1    2    0    0 -0.20071526196E+03  0.28430061836E+03 -0.66461898883E+03  0.76565234363E+03  0.15294330000E+03 0.  0.
<mgrwt>
<rscale>  0 0.38013828E+03</rscale>
<asrwt>0</asrwt>
<pdfrwt beam="1">  1        2 0.15651418E+00 0.38013828E+03</pdfrwt>
<pdfrwt beam="2">  1       -2 0.26162827E-01 0.38013828E+03</pdfrwt>
<totfact> 0.33443937E+02</totfact>
</mgrwt>
</event>
<event>
 4    1  0.4840632E-008  0.6776944E+03  0.7818608E-02  0.9756157E-01
          2   -1    0    0  501    0  0.00000000000E+00  0.00000000000E+00  0.85558918772E+03  0.85558918772E+03  0.25500000000E-02 0. -1.
         -2   -1    0    0    0  501 -0.00000000000E+00 -0.00000000000E+00 -0.15835495277E+04  0.15835495277E+04  0.25500000000E-02 0.  1.
    8880022    1    1    2    0    0 -0.43204968324E+02  0.65879541863E+03 -0.13555301799E+04  0.15154972103E+04  0.15294330000E+03 0.  0.
    8880022    1    1    2    0    0  0.43204968324E+02 -0.65879541863E+03  0.62756983993E+03  0.92364150508E+03  0.15294330000E+03 0.  0.
<mgrwt>
<rscale>  0 0.67769442E+03</rscale>
<asrwt>0</asrwt>
<pdfrwt beam="1">  1        2 0.13162911E+00 0.67769442E+03</pdfrwt>
<pdfrwt beam="2">  1       -2 0.24362300E+00 0.67769442E+03</pdfrwt>
<totfact> 0.23088929E+00</totfact>
</mgrwt>
</event>
<event>
 4    1  0.4840632E-008  0.6046389E+03  0.7818608E-02  0.9895828E-01
          2   -1    0    0  501    0  0.00000000000E+00  0.00000000000E+00  0.93094781578E+03  0.93094781578E+03  0.25500000000E-02 0. -1.
         -2   -1    0    0    0  501 -0.00000000000E+00 -0.00000000000E+00 -0.67080362310E+03  0.67080362311E+03  0.25500000000E-02 0.  1.
    8880022    1    1    2    0    0  0.39397820089E+03 -0.43240925549E+03 -0.38559156700E+03  0.71712557936E+03  0.15294330000E+03 0.  0.
    8880022    1    1    2    0    0 -0.39397820089E+03  0.43240925549E+03  0.64573575968E+03  0.88462585953E+03  0.15294330000E+03 0.  0.
<mgrwt>
<rscale>  0 0.60463893E+03</rscale>
<asrwt>0</asrwt>
<pdfrwt beam="1">  1        2 0.14322274E+00 0.60463893E+03</pdfrwt>
<pdfrwt beam="2">  1       -2 0.10320056E+00 0.60463893E+03</pdfrwt>
<totfact> 0.22108371E+01</totfact>
</mgrwt>
</event>
<event>
 4    1  0.4840632E-008  0.1022801E+04  0.7818608E-02  0.9283885E-01
         -2   -1    0    0    0  501 -0.00000000000E+00  0.00000000000E+00  0.24949851628E+04  0.24949851628E+04  0.25500000000E-02 0.  1.
          2   -1    0    0  501    0  0.00000000000E+00 -0.00000000000E+00 -0.88607017273E+03  0.88607017273E+03  0.25500000000E-02 0. -1.
    8880022    1    1    2    0    0 -0.86554819432E+03  0.52302653232E+03 -0.42254224377E+03  0.11066453953E+04  0.15294330000E+03 0.  0.
    8880022    1    1    2    0    0  0.86554819432E+03 -0.52302653232E+03  0.20314572338E+04  0.22744099402E+04  0.15294330000E+03 0.  0.
<mgrwt>
<rscale>  0 0.10228011E+04</rscale>
<asrwt>0</asrwt>
<pdfrwt beam="1">  1        2 0.13631849E+00 0.10228011E+04</pdfrwt>
<pdfrwt beam="2">  1       -2 0.38384387E+00 0.10228011E+04</pdfrwt>
<totfact> 0.28679329E-01</totfact>
</mgrwt>
</event>
<event>
 4    1  0.4840632E-008  0.1805621E+03  0.7818608E-02  0.1167260E+00
          2   -1    0    0  501    0  0.00000000000E+00  0.00000000000E+00  0.26928012902E+04  0.26928012902E+04  0.25500000000E-02 0. -1.
         -2   -1    0    0    0  501 -0.00000000000E+00 -0.00000000000E+00 -0.67745071556E+02  0.67745071604E+02  0.25500000000E-02 0.  1.
    8880022    1    1    2    0    0 -0.95928296041E+02 -0.29660691334E+01  0.25633943275E+04  0.25697457398E+04  0.15294330000E+03 0.  0.
    8880022    1    1    2    0    0  0.95928296041E+02  0.29660691334E+01  0.61661891124E+02  0.19080062206E+03  0.15294330000E+03 0.  0.
<mgrwt>
<rscale>  0 0.18056215E+03</rscale>
<asrwt>0</asrwt>
<pdfrwt beam="1">  1        2 0.41427710E+00 0.18056215E+03</pdfrwt>
<pdfrwt beam="2">  1       -2 0.10422319E-01 0.18056215E+03</pdfrwt>
<totfact> 0.20161833E+02</totfact>
</mgrwt>
</event>
<event>
 4    1  0.4840632E-008  0.3482773E+03  0.7818608E-02  0.1063324E+00
          2   -1    0    0  501    0  0.00000000000E+00  0.00000000000E+00  0.40332269677E+04  0.40332269677E+04  0.25500000000E-02 0. -1.
         -2   -1    0    0    0  501 -0.00000000000E+00 -0.00000000000E+00 -0.43919471871E+02  0.43919471945E+02  0.25500000000E-02 0.  1.
    8880022    1    1    2    0    0  0.73837784394E+01 -0.31281131297E+03  0.85007796518E+03  0.91865643066E+03  0.15294330000E+03 0.  0.
    8880022    1    1    2    0    0 -0.73837784394E+01  0.31281131297E+03  0.31392295306E+04  0.31584900089E+04  0.15294330000E+03 0.  0.
<mgrwt>
<rscale>  0 0.34827732E+03</rscale>
<asrwt>0</asrwt>
<pdfrwt beam="1">  1        2 0.62049656E+00 0.34827732E+03</pdfrwt>
<pdfrwt beam="2">  1       -2 0.67568407E-02 0.34827732E+03</pdfrwt>
<totfact> 0.50325486E+01</totfact>
</mgrwt>
</event>
<event>
 4    1  0.4840632E-008  0.7467306E+03  0.7818608E-02  0.9640494E-01
          2   -1    0    0  501    0  0.00000000000E+00  0.00000000000E+00  0.15943558941E+04  0.15943558941E+04  0.25500000000E-02 0. -1.
         -2   -1    0    0    0  501 -0.00000000000E+00 -0.00000000000E+00 -0.79591808307E+03  0.79591808307E+03  0.25500000000E-02 0.  1.
    8880022    1    1    2    0    0  0.12648037434E+03  0.71987335751E+03 -0.49560724792E+03  0.89623274497E+03  0.15294330000E+03 0.  1.
    8880022    1    1    2    0    0 -0.12648037434E+03 -0.71987335751E+03  0.12940450590E+04  0.14940412323E+04  0.15294330000E+03 0.  0.
<mgrwt>
<rscale>  0 0.74673060E+03</rscale>
<asrwt>0</asrwt>
<pdfrwt beam="1">  1        2 0.24528552E+00 0.74673060E+03</pdfrwt>
<pdfrwt beam="2">  1       -2 0.12244894E+00 0.74673060E+03</pdfrwt>
<totfact> 0.58282565E+00</totfact>
</mgrwt>
</event>
<event>
 4    1  0.4840632E-008  0.4708331E+03  0.7818608E-02  0.1021685E+00
         -2   -1    0    0    0  501 -0.00000000000E+00  0.00000000000E+00  0.18663789935E+04  0.18663789935E+04  0.25500000000E-02 0.  1.
          2   -1    0    0  501    0  0.00000000000E+00 -0.00000000000E+00 -0.53067020723E+03  0.53067020724E+03  0.25500000000E-02 0. -1.
    8880022    1    1    2    0    0  0.43530693314E+03  0.93808456610E+02  0.17237637975E+04  0.17869094648E+04  0.15294330000E+03 0.  0.
    8880022    1    1    2    0    0 -0.43530693314E+03 -0.93808456610E+02 -0.38805501129E+03  0.61013973594E+03  0.15294330000E+03 0.  0.
<mgrwt>
<rscale>  0 0.47083310E+03</rscale>
<asrwt>0</asrwt>
<pdfrwt beam="1">  1        2 0.81641571E-01 0.47083310E+03</pdfrwt>
<pdfrwt beam="2">  1       -2 0.28713523E+00 0.47083310E+03</pdfrwt>
<totfact> 0.23984580E+00</totfact>
</mgrwt>
</event>
<event>
 4    1  0.4840632E-008  0.7938162E+03  0.7818608E-02  0.9569011E-01
         -2   -1    0    0    0  501 -0.00000000000E+00  0.00000000000E+00  0.56208933415E+03  0.56208933416E+03  0.25500000000E-02 0.  1.
          2   -1    0    0  501    0  0.00000000000E+00 -0.00000000000E+00 -0.14621964500E+04  0.14621964500E+04  0.25500000000E-02 0. -1.
    8880022    1    1    2    0    0  0.45038620574E+03 -0.63553497649E+03 -0.93892392751E+03  0.12295211407E+04  0.15294330000E+03 0.  0.
    8880022    1    1    2    0    0 -0.45038620574E+03  0.63553497649E+03  0.38816811676E+02  0.79476464349E+03  0.15294330000E+03 0.  0.
<mgrwt>
<rscale>  0 0.79381616E+03</rscale>
<asrwt>0</asrwt>
<pdfrwt beam="1">  1        2 0.22495330E+00 0.79381616E+03</pdfrwt>
<pdfrwt beam="2">  1       -2 0.86475283E-01 0.79381616E+03</pdfrwt>
<totfact> 0.15728726E+01</totfact>
</mgrwt>
</event>
<event>
 4    1  0.4840632E-008  0.3030016E+03  0.7818608E-02  0.1083750E+00
          2   -1    0    0  501    0  0.00000000000E+00  0.00000000000E+00  0.19709106289E+04  0.19709106289E+04  0.25500000000E-02 0. -1.
         -2   -1    0    0    0  501 -0.00000000000E+00 -0.00000000000E+00 -0.23510886284E+03  0.23510886285E+03  0.25500000000E-02 0.  1.
    8880022    1    1    2    0    0  0.13390744846E+03 -0.22469333640E+03  0.18556141531E+04  0.18801898410E+04  0.15294330000E+03 0. -1.
    8880022    1    1    2    0    0 -0.13390744846E+03  0.22469333640E+03 -0.11981238704E+03  0.32582965071E+03  0.15294330000E+03 0.  0.
<mgrwt>
<rscale>  0 0.30300157E+03</rscale>
<asrwt>0</asrwt>
<pdfrwt beam="1">  1        2 0.30321701E+00 0.30300157E+03</pdfrwt>
<pdfrwt beam="2">  1       -2 0.36170595E-01 0.30300157E+03</pdfrwt>
<totfact> 0.55685830E+01</totfact>
</mgrwt>
</event>
<event>
 4    1  0.4840632E-008  0.1149457E+04  0.7818608E-02  0.9158284E-01
          2   -1    0    0  501    0  0.00000000000E+00  0.00000000000E+00  0.26846008089E+04  0.26846008089E+04  0.25500000000E-02 0. -1.
         -2   -1    0    0    0  501 -0.00000000000E+00 -0.00000000000E+00 -0.89256973825E+03  0.89256973825E+03  0.25500000000E-02 0.  1.
    8880022    1    1    2    0    0 -0.90938252437E+03  0.68620981728E+03  0.20939721434E+04  0.23887175386E+04  0.15294330000E+03 0.  0.
    8880022    1    1    2    0    0  0.90938252437E+03 -0.68620981728E+03 -0.30194107278E+03  0.11884530085E+04  0.15294330000E+03 0.  0.
<mgrwt>
<rscale>  0 0.11494573E+04</rscale>
<asrwt>0</asrwt>
<pdfrwt beam="1">  1        2 0.41301551E+00 0.11494573E+04</pdfrwt>
<pdfrwt beam="2">  1       -2 0.13731842E+00 0.11494573E+04</pdfrwt>
<totfact> 0.10118168E+00</totfact>
</mgrwt>
</event>
<event>
 4    1  0.4840632E-008  0.2126521E+03  0.7818608E-02  0.1139483E+00
         -2   -1    0    0    0  501 -0.00000000000E+00  0.00000000000E+00  0.26618417606E+02  0.26618417728E+02  0.25500000000E-02 0.  1.
          2   -1    0    0  501    0  0.00000000000E+00 -0.00000000000E+00 -0.24933473179E+04  0.24933473179E+04  0.25500000000E-02 0. -1.
    8880022    1    1    2    0    0 -0.14122176373E+03 -0.43424364384E+02 -0.52212268851E+03  0.56376681070E+03  0.15294330000E+03 0.  0.
    8880022    1    1    2    0    0  0.14122176373E+03  0.43424364384E+02 -0.19446062118E+04  0.19561989249E+04  0.15294330000E+03 0. -1.
<mgrwt>
<rscale>  0 0.21265210E+03</rscale>
<asrwt>0</asrwt>
<pdfrwt beam="1">  1        2 0.38359171E+00 0.21265210E+03</pdfrwt>
<pdfrwt beam="2">  1       -2 0.40951431E-02 0.21265210E+03</pdfrwt>
<totfact> 0.10828234E+03</totfact>
</mgrwt>
</event>
<event>
 4    1  0.4840632E-008  0.4848399E+03  0.7818608E-02  0.1017813E+00
          2   -1    0    0  501    0  0.00000000000E+00  0.00000000000E+00  0.10761071750E+04  0.10761071750E+04  0.25500000000E-02 0. -1.
         -2   -1    0    0    0  501 -0.00000000000E+00 -0.00000000000E+00 -0.32251766373E+03  0.32251766374E+03  0.25500000000E-02 0.  1.
    8880022    1    1    2    0    0  0.42748999967E+03  0.17008921075E+03 -0.20455211197E+02  0.48527116967E+03  0.15294330000E+03 0.  0.
    8880022    1    1    2    0    0 -0.42748999967E+03 -0.17008921075E+03  0.77404472251E+03  0.91335366912E+03  0.15294330000E+03 0.  0.
<mgrwt>
<rscale>  0 0.48483986E+03</rscale>
<asrwt>0</asrwt>
<pdfrwt beam="1">  1        2 0.16555495E+00 0.48483986E+03</pdfrwt>
<pdfrwt beam="2">  1       -2 0.49618102E-01 0.48483986E+03</pdfrwt>
<totfact> 0.90206218E+01</totfact>
</mgrwt>
</event>
<event>
 4    1  0.4840632E-008  0.5150435E+03  0.7818608E-02  0.1009925E+00
         -2   -1    0    0    0  501 -0.00000000000E+00  0.00000000000E+00  0.32085962770E+03  0.32085962771E+03  0.25500000000E-02 0.  1.
          2   -1    0    0  501    0  0.00000000000E+00 -0.00000000000E+00 -0.11001918697E+04  0.11001918697E+04  0.25500000000E-02 0. -1.
    8880022    1    1    2    0    0  0.11117266000E+03  0.47908123490E+03 -0.74389195133E+03  0.90479007412E+03  0.15294330000E+03 0.  0.
    8880022    1    1    2    0    0 -0.11117266000E+03 -0.47908123490E+03 -0.35440290670E+02  0.51626142329E+03  0.15294330000E+03 0.  0.
<mgrwt>
<rscale>  0 0.51504354E+03</rscale>
<asrwt>0</asrwt>
<pdfrwt beam="1">  1        2 0.16926029E+00 0.51504354E+03</pdfrwt>
<pdfrwt beam="2">  1       -2 0.49363020E-01 0.51504354E+03</pdfrwt>
<totfact> 0.87823264E+01</totfact>
</mgrwt>
</event>
<event>
 4    1  0.2085339E-007  0.1123798E+04  0.7818608E-02  0.9182302E-01
          2   -1    0    0  501    0  0.00000000000E+00  0.00000000000E+00  0.31181326000E+04  0.31181326000E+04  0.25500000000E-02 0. -1.
         -2   -1    0    0    0  501 -0.00000000000E+00 -0.00000000000E+00 -0.13809927674E+04  0.13809927674E+04  0.25500000000E-02 0.  1.
    8880022    1    1    2    0    0 -0.59427667091E+02  0.11117545417E+04  0.27596945356E+04  0.29797374702E+04  0.15294330000E+03 0.  0.
    8880022    1    1    2    0    0  0.59427667091E+02 -0.11117545417E+04 -0.10225547031E+04  0.15193878972E+04  0.15294330000E+03 0.  0.
<mgrwt>
<rscale>  0 0.11237978E+04</rscale>
<asrwt>0</asrwt>
<pdfrwt beam="1">  1        2 0.47971271E+00 0.11237978E+04</pdfrwt>
<pdfrwt beam="2">  1       -2 0.21246043E+00 0.11237978E+04</pdfrwt>
<totfact> 0.16144348E-01</totfact>
</mgrwt>
</event>
<event>
 4    1  0.4840632E-008  0.3265954E+03  0.7818608E-02  0.1072653E+00
         -2   -1    0    0    0  501 -0.00000000000E+00  0.00000000000E+00  0.28900927431E+03  0.28900927433E+03  0.25500000000E-02 0.  1.
          2   -1    0    0  501    0  0.00000000000E+00 -0.00000000000E+00 -0.10090449666E+04  0.10090449666E+04  0.25500000000E-02 0. -1.
    8880022    1    1    2    0    0 -0.28712333972E+03  0.28863195560E+02 -0.87689721696E+03  0.93574210036E+03  0.15294330000E+03 0. -1.
    8880022    1    1    2    0    0  0.28712333972E+03 -0.28863195560E+02  0.15686152467E+03  0.36231214057E+03  0.15294330000E+03 0.  0.
<mgrwt>
<rscale>  0 0.32659539E+03</rscale>
<asrwt>0</asrwt>
<pdfrwt beam="1">  1        2 0.15523768E+00 0.32659539E+03</pdfrwt>
<pdfrwt beam="2">  1       -2 0.44462966E-01 0.32659539E+03</pdfrwt>
<totfact> 0.12604058E+02</totfact>
</mgrwt>
</event>
<event>
 4    1  0.4840632E-008  0.1315796E+04  0.7818608E-02  0.9017132E-01
         -2   -1    0    0    0  501 -0.00000000000E+00  0.00000000000E+00  0.16971164306E+04  0.16971164306E+04  0.25500000000E-02 0.  1.
          2   -1    0    0  501    0  0.00000000000E+00 -0.00000000000E+00 -0.15216315922E+04  0.15216315922E+04  0.25500000000E-02 0. -1.
    8880022    1    1    2    0    0 -0.12941536191E+04 -0.18191572620E+03  0.10116496899E+04  0.16597450615E+04  0.15294330000E+03 0.  0.
    8880022    1    1    2    0    0  0.12941536191E+04  0.18191572620E+03 -0.83616485150E+03  0.15590029612E+04  0.15294330000E+03 0.  0.
<mgrwt>
<rscale>  0 0.13157958E+04</rscale>
<asrwt>0</asrwt>
<pdfrwt beam="1">  1        2 0.23409717E+00 0.13157958E+04</pdfrwt>
<pdfrwt beam="2">  1       -2 0.26109484E+00 0.13157958E+04</pdfrwt>
<totfact> 0.65019555E-01</totfact>
</mgrwt>
</event>
<event>
 4    1  0.4840632E-008  0.2253120E+03  0.7818608E-02  0.1129984E+00
          2   -1    0    0  501    0  0.00000000000E+00  0.00000000000E+00  0.10315936787E+04  0.10315936787E+04  0.25500000000E-02 0. -1.
         -2   -1    0    0    0  501 -0.00000000000E+00 -0.00000000000E+00 -0.11209623911E+03  0.11209623914E+03  0.25500000000E-02 0.  1.
    8880022    1    1    2    0    0  0.13934231433E+03  0.89205189835E+02  0.31438936322E+02  0.22749484871E+03  0.15294330000E+03 0.  0.
    8880022    1    1    2    0    0 -0.13934231433E+03 -0.89205189835E+02  0.88805850330E+03  0.91619506916E+03  0.15294330000E+03 0.  0.
<mgrwt>
<rscale>  0 0.22531200E+03</rscale>
<asrwt>0</asrwt>
<pdfrwt beam="1">  1        2 0.15870672E+00 0.22531200E+03</pdfrwt>
<pdfrwt beam="2">  1       -2 0.17245575E-01 0.22531200E+03</pdfrwt>
<totfact> 0.68467285E+02</totfact>
</mgrwt>
</event>
<event>
 4    1  0.4840632E-008  0.6698971E+03  0.7818608E-02  0.9770144E-01
         -2   -1    0    0    0  501 -0.00000000000E+00  0.00000000000E+00  0.38568672968E+03  0.38568672969E+03  0.25500000000E-02 0.  1.
          2   -1    0    0  501    0  0.00000000000E+00 -0.00000000000E+00 -0.30164883492E+04  0.30164883492E+04  0.25500000000E-02 0. -1.
    8880022    1    1    2    0    0  0.62240550329E+02 -0.64922772853E+03 -0.26486379996E+04  0.27320405259E+04  0.15294330000E+03 0.  0.
    8880022    1    1    2    0    0 -0.62240550329E+02  0.64922772853E+03  0.17836380049E+02  0.67013455295E+03  0.15294330000E+03 0.  0.
<mgrwt>
<rscale>  0 0.66989714E+03</rscale>
<asrwt>0</asrwt>
<pdfrwt beam="1">  1        2 0.46407512E+00 0.66989714E+03</pdfrwt>
<pdfrwt beam="2">  1       -2 0.59336422E-01 0.66989714E+03</pdfrwt>
<totfact> 0.48889867E+00</totfact>
</mgrwt>
</event>
<event>
 4    1  0.4840632E-008  0.4763820E+03  0.7818608E-02  0.1020134E+00
         -2   -1    0    0    0  501 -0.00000000000E+00  0.00000000000E+00  0.16520047247E+03  0.16520047249E+03  0.25500000000E-02 0.  1.
          2   -1    0    0  501    0  0.00000000000E+00 -0.00000000000E+00 -0.14058502962E+04  0.14058502962E+04  0.25500000000E-02 0. -1.
    8880022    1    1    2    0    0  0.43936350822E+03  0.10250807460E+03 -0.73907150088E+03  0.87929888783E+03  0.15294330000E+03 0.  0.
    8880022    1    1    2    0    0 -0.43936350822E+03 -0.10250807460E+03 -0.50157832284E+03  0.69175188085E+03  0.15294330000E+03 0. -1.
<mgrwt>
<rscale>  0 0.47638204E+03</rscale>
<asrwt>0</asrwt>
<pdfrwt beam="1">  1        2 0.21628465E+00 0.47638204E+03</pdfrwt>
<pdfrwt beam="2">  1       -2 0.25415458E-01 0.47638204E+03</pdfrwt>
<totfact> 0.20744417E+02</totfact>
</mgrwt>
</event>
<event>
 4    1  0.4840632E-008  0.1951868E+03  0.7818608E-02  0.1153865E+00
         -2   -1    0    0    0  501 -0.00000000000E+00  0.00000000000E+00  0.75747404463E+02  0.75747404506E+02  0.25500000000E-02 0.  1.
          2   -1    0    0  501    0  0.00000000000E+00 -0.00000000000E+00 -0.73110831764E+03  0.73110831764E+03  0.25500000000E-02 0. -1.
    8880022    1    1    2    0    0 -0.11671244002E+03  0.32930836734E+02 -0.10231673234E+03  0.22037831199E+03  0.15294330000E+03 0.  0.
    8880022    1    1    2    0    0  0.11671244002E+03 -0.32930836734E+02 -0.55304418083E+03  0.58647741016E+03  0.15294330000E+03 0.  0.
<mgrwt>
<rscale>  0 0.19518680E+03</rscale>
<asrwt>0</asrwt>
<pdfrwt beam="1">  1        2 0.11247820E+00 0.19518680E+03</pdfrwt>
<pdfrwt beam="2">  1       -2 0.11653447E-01 0.19518680E+03</pdfrwt>
<totfact> 0.20483783E+03</totfact>
</mgrwt>
</event>
<event>
 4    1  0.4840632E-008  0.5621896E+03  0.7818608E-02  0.9987112E-01
          2   -1    0    0  501    0  0.00000000000E+00  0.00000000000E+00  0.42738203771E+04  0.42738203771E+04  0.25500000000E-02 0. -1.
         -2   -1    0    0    0  501 -0.00000000000E+00 -0.00000000000E+00 -0.29704172337E+03  0.29704172338E+03  0.25500000000E-02 0.  1.
    8880022    1    1    2    0    0  0.53082197737E+03  0.10437218652E+03  0.39690006886E+04  0.40086186704E+04  0.15294330000E+03 0.  0.
    8880022    1    1    2    0    0 -0.53082197737E+03 -0.10437218652E+03  0.77779651225E+01  0.56224343014E+03  0.15294330000E+03 0.  0.
<mgrwt>
<rscale>  0 0.56218963E+03</rscale>
<asrwt>0</asrwt>
<pdfrwt beam="1">  1        2 0.65751085E+00 0.56218963E+03</pdfrwt>
<pdfrwt beam="2">  1       -2 0.45698725E-01 0.56218963E+03</pdfrwt>
<totfact> 0.10835283E+00</totfact>
</mgrwt>
</event>
<event>
 4    1  0.4840632E-008  0.5972810E+03  0.7818608E-02  0.9911063E-01
          2   -1    0    0  501    0  0.00000000000E+00  0.00000000000E+00  0.24250534855E+04  0.24250534855E+04  0.25500000000E-02 0. -1.
         -2   -1    0    0    0  501 -0.00000000000E+00 -0.00000000000E+00 -0.23940014053E+03  0.23940014054E+03  0.25500000000E-02 0.  1.
    8880022    1    1    2    0    0  0.26892217730E+03 -0.51091472985E+03  0.26564968786E+03  0.65369290060E+03  0.15294330000E+03 0.  0.
    8880022    1    1    2    0    0 -0.26892217730E+03  0.51091472985E+03  0.19200036571E+04  0.20107607254E+04  0.15294330000E+03 0.  1.
<mgrwt>
<rscale>  0 0.59728105E+03</rscale>
<asrwt>0</asrwt>
<pdfrwt beam="1">  1        2 0.37308514E+00 0.59728105E+03</pdfrwt>
<pdfrwt beam="2">  1       -2 0.36830792E-01 0.59728105E+03</pdfrwt>
<totfact> 0.28528488E+01</totfact>
</mgrwt>
</event>
<event>
 4    1  0.4840632E-008  0.1961698E+03  0.7818608E-02  0.1153011E+00
         -2   -1    0    0    0  501 -0.00000000000E+00  0.00000000000E+00  0.16262373710E+03  0.16262373712E+03  0.25500000000E-02 0.  1.
          2   -1    0    0  501    0  0.00000000000E+00 -0.00000000000E+00 -0.10058516222E+04  0.10058516222E+04  0.25500000000E-02 0. -1.
    8880022    1    1    2    0    0  0.10341923404E+03 -0.66297895416E+02 -0.93252664488E+03  0.95293680028E+03  0.15294330000E+03 0. -1.
    8880022    1    1    2    0    0 -0.10341923404E+03  0.66297895416E+02  0.89298759799E+02  0.21553855902E+03  0.15294330000E+03 0.  0.
<mgrwt>
<rscale>  0 0.19616983E+03</rscale>
<asrwt>0</asrwt>
<pdfrwt beam="1">  1        2 0.15474640E+00 0.19616983E+03</pdfrwt>
<pdfrwt beam="2">  1       -2 0.25019037E-01 0.19616983E+03</pdfrwt>
<totfact> 0.37561662E+02</totfact>
</mgrwt>
</event>
<event>
 4    1  0.4840632E-008  0.7254188E+03  0.7818608E-02  0.9674724E-01
         -2   -1    0    0    0  501 -0.00000000000E+00  0.00000000000E+00  0.23863021351E+03  0.23863021352E+03  0.25500000000E-02 0.  1.
          2   -1    0    0  501    0  0.00000000000E+00 -0.00000000000E+00 -0.40719640554E+04  0.40719640554E+04  0.25500000000E-02 0. -1.
    8880022    1    1    2    0    0  0.70911147621E+03  0.13223498997E+01 -0.45735747760E+03  0.85755953125E+03  0.15294330000E+03 0.  0.
    8880022    1    1    2    0    0 -0.70911147621E+03 -0.13223498997E+01 -0.33759763643E+04  0.34530347377E+04  0.15294330000E+03 0.  0.
<mgrwt>
<rscale>  0 0.72541884E+03</rscale>
<asrwt>0</asrwt>
<pdfrwt beam="1">  1        2 0.62645596E+00 0.72541884E+03</pdfrwt>
<pdfrwt beam="2">  1       -2 0.36712344E-01 0.72541884E+03</pdfrwt>
<totfact> 0.23345063E+00</totfact>
</mgrwt>
</event>
<event>
 4    1  0.4840632E-008  0.4629978E+03  0.7818608E-02  0.1023915E+00
         -2   -1    0    0    0  501 -0.00000000000E+00  0.00000000000E+00  0.29207719453E+03  0.29207719454E+03  0.25500000000E-02 0.  1.
          2   -1    0    0  501    0  0.00000000000E+00 -0.00000000000E+00 -0.98696106304E+03  0.98696106305E+03  0.25500000000E-02 0. -1.
    8880022    1    1    2    0    0 -0.24360304859E+03  0.36281238411E+03 -0.23637725089E+02  0.46360076187E+03  0.15294330000E+03 0.  0.
    8880022    1    1    2    0    0  0.24360304859E+03 -0.36281238411E+03 -0.67124614343E+03  0.81543749572E+03  0.15294330000E+03 0.  0.
<mgrwt>
<rscale>  0 0.46299776E+03</rscale>
<asrwt>0</asrwt>
<pdfrwt beam="1">  1        2 0.15184016E+00 0.46299776E+03</pdfrwt>
<pdfrwt beam="2">  1       -2 0.44934954E-01 0.46299776E+03</pdfrwt>
<totfact> 0.12519352E+02</totfact>
</mgrwt>
</event>
<event>
 4    1  0.4840632E-008  0.2881420E+03  0.7818608E-02  0.1091323E+00
          2   -1    0    0  501    0  0.00000000000E+00  0.00000000000E+00  0.36000948053E+04  0.36000948053E+04  0.25500000000E-02 0. -1.
         -2   -1    0    0    0  501 -0.00000000000E+00 -0.00000000000E+00 -0.26749582536E+02  0.26749582657E+02  0.25500000000E-02 0.  1.
    8880022    1    1    2    0    0 -0.19435327048E+03 -0.14785460002E+03  0.24599655384E+04  0.24767834544E+04  0.15294330000E+03 0.  1.
    8880022    1    1    2    0    0  0.19435327048E+03  0.14785460002E+03  0.11133796843E+04  0.11500609336E+04  0.15294330000E+03 0.  1.
<mgrwt>
<rscale>  0 0.28814203E+03</rscale>
<asrwt>0</asrwt>
<pdfrwt beam="1">  1        2 0.55386069E+00 0.28814203E+03</pdfrwt>
<pdfrwt beam="2">  1       -2 0.41153208E-02 0.28814203E+03</pdfrwt>
<totfact> 0.22751923E+02</totfact>
</mgrwt>
</event>
<event>
 4    1  0.4840632E-008  0.5583869E+03  0.7818608E-02  0.9995711E-01
          2   -1    0    0  501    0  0.00000000000E+00  0.00000000000E+00  0.13629819549E+04  0.13629819549E+04  0.25500000000E-02 0. -1.
         -2   -1    0    0    0  501 -0.00000000000E+00 -0.00000000000E+00 -0.31450630130E+03  0.31450630131E+03  0.25500000000E-02 0.  1.
    8880022    1    1    2    0    0  0.24961015890E+03  0.47549875647E+03  0.96218541980E+03  0.11124732509E+04  0.15294330000E+03 0.  0.
    8880022    1    1    2    0    0 -0.24961015890E+03 -0.47549875647E+03  0.86290233846E+02  0.56501500538E+03  0.15294330000E+03 0.  0.
<mgrwt>
<rscale>  0 0.55838692E+03</rscale>
<asrwt>0</asrwt>
<pdfrwt beam="1">  1        2 0.20968954E+00 0.55838692E+03</pdfrwt>
<pdfrwt beam="2">  1       -2 0.48385584E-01 0.55838692E+03</pdfrwt>
<totfact> 0.63991763E+01</totfact>
</mgrwt>
</event>
<event>
 4    1  0.4840632E-008  0.2304279E+03  0.7818608E-02  0.1126339E+00
         -2   -1    0    0    0  501 -0.00000000000E+00  0.00000000000E+00  0.58692257354E+03  0.58692257354E+03  0.25500000000E-02 0.  1.
          2   -1    0    0  501    0  0.00000000000E+00 -0.00000000000E+00 -0.91611722609E+03  0.91611722610E+03  0.25500000000E-02 0. -1.
    8880022    1    1    2    0    0 -0.15115592380E+03  0.82808425129E+02 -0.87804654610E+03  0.90777901424E+03  0.15294330000E+03 0. -1.
    8880022    1    1    2    0    0  0.15115592380E+03 -0.82808425129E+02  0.54885189354E+03  0.59526078540E+03  0.15294330000E+03 0.  0.
<mgrwt>
<rscale>  0 0.23042787E+03</rscale>
<asrwt>0</asrwt>
<pdfrwt beam="1">  1        2 0.14094111E+00 0.23042787E+03</pdfrwt>
<pdfrwt beam="2">  1       -2 0.90295780E-01 0.23042787E+03</pdfrwt>
<totfact> 0.33064577E+01</totfact>
</mgrwt>
</event>
<event>
 4    1  0.4840632E-008  0.5684795E+03  0.7818608E-02  0.9973049E-01
          2   -1    0    0  501    0  0.00000000000E+00  0.00000000000E+00  0.10967380073E+04  0.10967380073E+04  0.25500000000E-02 0. -1.
         -2   -1    0    0    0  501 -0.00000000000E+00 -0.00000000000E+00 -0.39989764395E+03  0.39989764395E+03  0.25500000000E-02 0.  1.
    8880022    1    1    2    0    0 -0.48744025873E+03  0.24935766118E+03  0.73229493329E+03  0.92705165517E+03  0.15294330000E+03 0.  0.
    8880022    1    1    2    0    0  0.48744025873E+03 -0.24935766118E+03 -0.35454569965E+02  0.56958399606E+03  0.15294330000E+03 0.  1.
<mgrwt>
<rscale>  0 0.56847946E+03</rscale>
<asrwt>0</asrwt>
<pdfrwt beam="1">  1        2 0.16872892E+00 0.56847946E+03</pdfrwt>
<pdfrwt beam="2">  1       -2 0.61522715E-01 0.56847946E+03</pdfrwt>
<totfact> 0.55644601E+01</totfact>
</mgrwt>
</event>
<event>
 4    1  0.4840632E-008  0.4906339E+03  0.7818608E-02  0.1016253E+00
          2   -1    0    0  501    0  0.00000000000E+00  0.00000000000E+00  0.19222404030E+04  0.19222404030E+04  0.25500000000E-02 0. -1.
         -2   -1    0    0    0  501 -0.00000000000E+00 -0.00000000000E+00 -0.20951757081E+03  0.20951757083E+03  0.25500000000E-02 0.  1.
    8880022    1    1    2    0    0 -0.23778236118E+03 -0.40098572709E+03  0.18030938008E+03  0.52271706513E+03  0.15294330000E+03 0.  0.
    8880022    1    1    2    0    0  0.23778236118E+03  0.40098572709E+03  0.15324134521E+04  0.16090409087E+04  0.15294330000E+03 0.  0.
<mgrwt>
<rscale>  0 0.49063393E+03</rscale>
<asrwt>0</asrwt>
<pdfrwt beam="1">  1        2 0.29572929E+00 0.49063393E+03</pdfrwt>
<pdfrwt beam="2">  1       -2 0.32233473E-01 0.49063393E+03</pdfrwt>
<totfact> 0.70345184E+01</totfact>
</mgrwt>
</event>
<event>
 4    1  0.4840632E-008  0.4074731E+03  0.7818608E-02  0.1041222E+00
         -2   -1    0    0    0  501 -0.00000000000E+00  0.00000000000E+00  0.18097818898E+03  0.18097818900E+03  0.25500000000E-02 0.  1.
          2   -1    0    0  501    0  0.00000000000E+00 -0.00000000000E+00 -0.17514276092E+04  0.17514276092E+04  0.25500000000E-02 0. -1.
    8880022    1    1    2    0    0 -0.59547531859E+02  0.37295678972E+03 -0.11848649174E+03  0.42435053586E+03  0.15294330000E+03 0.  0.
    8880022    1    1    2    0    0  0.59547531859E+02 -0.37295678972E+03 -0.14519629284E+04  0.15080552623E+04  0.15294330000E+03 0.  0.
<mgrwt>
<rscale>  0 0.40747310E+03</rscale>
<asrwt>0</asrwt>
<pdfrwt beam="1">  1        2 0.26945039E+00 0.40747310E+03</pdfrwt>
<pdfrwt beam="2">  1       -2 0.27842799E-01 0.40747310E+03</pdfrwt>
<totfact> 0.11534851E+02</totfact>
</mgrwt>
</event>
<event>
 4    1  0.4840632E-008  0.4234455E+03  0.7818608E-02  0.1035951E+00
         -2   -1    0    0    0  501 -0.00000000000E+00  0.00000000000E+00  0.39041761487E+03  0.39041761488E+03  0.25500000000E-02 0.  1.
          2   -1    0    0  501    0  0.00000000000E+00 -0.00000000000E+00 -0.13994010224E+04  0.13994010224E+04  0.25500000000E-02 0. -1.
    8880022    1    1    2    0    0 -0.39138241468E+03 -0.52289692754E+02  0.22901272977E+03  0.48140719760E+03  0.15294330000E+03 0.  1.
    8880022    1    1    2    0    0  0.39138241468E+03  0.52289692754E+02 -0.12379961373E+04  0.13084114397E+04  0.15294330000E+03 0.  0.
<mgrwt>
<rscale>  0 0.42344546E+03</rscale>
<asrwt>0</asrwt>
<pdfrwt beam="1">  1        2 0.21529246E+00 0.42344546E+03</pdfrwt>
<pdfrwt beam="2">  1       -2 0.60064249E-01 0.42344546E+03</pdfrwt>
<totfact> 0.40005635E+01</totfact>
</mgrwt>
</event>
<event>
 4    1  0.4840632E-008  0.4164135E+03  0.7818608E-02  0.1038240E+00
          2   -1    0    0  501    0  0.00000000000E+00  0.00000000000E+00  0.88473885358E+03  0.88473885358E+03  0.25500000000E-02 0. -1.
         -2   -1    0    0    0  501 -0.00000000000E+00 -0.00000000000E+00 -0.24725232176E+03  0.24725232178E+03  0.25500000000E-02 0.  1.
    8880022    1    1    2    0    0  0.18460134196E+03  0.34048628277E+03  0.57645891983E+03  0.71112945620E+03  0.15294330000E+03 0.  0.
    8880022    1    1    2    0    0 -0.18460134196E+03 -0.34048628277E+03  0.61027611984E+02  0.42086171916E+03  0.15294330000E+03 0.  0.
<mgrwt>
<rscale>  0 0.41641352E+03</rscale>
<asrwt>0</asrwt>
<pdfrwt beam="1">  1        2 0.13611367E+00 0.41641352E+03</pdfrwt>
<pdfrwt beam="2">  1       -2 0.38038819E-01 0.41641352E+03</pdfrwt>
<totfact> 0.20260347E+02</totfact>
</mgrwt>
</event>
<event>
 4    1  0.4840632E-008  0.3389992E+03  0.7818608E-02  0.1067223E+00
         -2   -1    0    0    0  501 -0.00000000000E+00  0.00000000000E+00  0.13349776579E+03  0.13349776581E+03  0.25500000000E-02 0.  1.
          2   -1    0    0  501    0  0.00000000000E+00 -0.00000000000E+00 -0.87422430647E+03  0.87422430647E+03  0.25500000000E-02 0. -1.
    8880022    1    1    2    0    0  0.29806354008E+03  0.51835454879E+02 -0.30802281437E+03  0.45803765729E+03  0.15294330000E+03 0.  0.
    8880022    1    1    2    0    0 -0.29806354008E+03 -0.51835454879E+02 -0.43270372631E+03  0.54968441499E+03  0.15294330000E+03 0.  0.
<mgrwt>
<rscale>  0 0.33899918E+03</rscale>
<asrwt>0</asrwt>
<pdfrwt beam="1">  1        2 0.13449604E+00 0.33899918E+03</pdfrwt>
<pdfrwt beam="2">  1       -2 0.20538118E-01 0.33899918E+03</pdfrwt>
<totfact> 0.63447673E+02</totfact>
</mgrwt>
</event>
<event>
 4    1  0.4840632E-008  0.2751592E+03  0.7818608E-02  0.1098363E+00
          2   -1    0    0  501    0  0.00000000000E+00  0.00000000000E+00  0.83283938619E+03  0.83283938620E+03  0.25500000000E-02 0. -1.
         -2   -1    0    0    0  501 -0.00000000000E+00 -0.00000000000E+00 -0.10883372737E+04  0.10883372737E+04  0.25500000000E-02 0.  1.
    8880022    1    1    2    0    0  0.21817652906E+03 -0.68701712792E+02  0.79184562382E+03  0.83829115953E+03  0.15294330000E+03 0.  0.
    8880022    1    1    2    0    0 -0.21817652906E+03  0.68701712792E+02 -0.10473435114E+04  0.10828855004E+04  0.15294330000E+03 0.  0.
<mgrwt>
<rscale>  0 0.27515918E+03</rscale>
<asrwt>0</asrwt>
<pdfrwt beam="1">  1        2 0.12812914E+00 0.27515918E+03</pdfrwt>
<pdfrwt beam="2">  1       -2 0.16743650E+00 0.27515918E+03</pdfrwt>
<totfact> 0.81039058E+00</totfact>
</mgrwt>
</event>
<event>
 4    1  0.4840632E-008  0.4438172E+03  0.7818608E-02  0.1029582E+00
         -2   -1    0    0    0  501 -0.00000000000E+00  0.00000000000E+00  0.14096527221E+04  0.14096527221E+04  0.25500000000E-02 0.  1.
          2   -1    0    0  501    0  0.00000000000E+00 -0.00000000000E+00 -0.37427295169E+03  0.37427295169E+03  0.25500000000E-02 0. -1.
    8880022    1    1    2    0    0 -0.30416601129E+03 -0.28471925074E+03  0.12237827657E+04  0.13017749133E+04  0.15294330000E+03 0.  1.
    8880022    1    1    2    0    0  0.30416601129E+03  0.28471925074E+03 -0.18840299534E+03  0.48215076048E+03  0.15294330000E+03 0.  0.
<mgrwt>
<rscale>  0 0.44381716E+03</rscale>
<asrwt>0</asrwt>
<pdfrwt beam="1">  1        2 0.57580454E-01 0.44381716E+03</pdfrwt>
<pdfrwt beam="2">  1       -2 0.21686965E+00 0.44381716E+03</pdfrwt>
<totfact> 0.94439077E+00</totfact>
</mgrwt>
</event>
<event>
 4    1  0.4840632E-008  0.6885930E+03  0.7818608E-02  0.9736941E-01
          2   -1    0    0  501    0  0.00000000000E+00  0.00000000000E+00  0.88995032778E+03  0.88995032779E+03  0.25500000000E-02 0. -1.
         -2   -1    0    0    0  501 -0.00000000000E+00 -0.00000000000E+00 -0.12144279950E+04  0.12144279950E+04  0.25500000000E-02 0.  1.
    8880022    1    1    2    0    0  0.30015856253E+03 -0.60056101442E+03 -0.95052427358E+03  0.11737362320E+04  0.15294330000E+03 0.  0.
    8880022    1    1    2    0    0 -0.30015856253E+03  0.60056101442E+03  0.62604660638E+03  0.93064209075E+03  0.15294330000E+03 0.  0.
<mgrwt>
<rscale>  0 0.68859302E+03</rscale>
<asrwt>0</asrwt>
<pdfrwt beam="1">  1        2 0.13691543E+00 0.68859302E+03</pdfrwt>
<pdfrwt beam="2">  1       -2 0.18683508E+00 0.68859302E+03</pdfrwt>
<totfact> 0.49940004E+00</totfact>
</mgrwt>
</event>
<event>
 4    1  0.4840632E-008  0.1575290E+03  0.7818608E-02  0.1191515E+00
          2   -1    0    0  501    0  0.00000000000E+00  0.00000000000E+00  0.13488725483E+04  0.13488725483E+04  0.25500000000E-02 0. -1.
         -2   -1    0    0    0  501 -0.00000000000E+00 -0.00000000000E+00 -0.11136610638E+04  0.11136610638E+04  0.25500000000E-02 0.  1.
    8880022    1    1    2    0    0 -0.20826564218E+02 -0.31464268098E+02 -0.11034487469E+04  0.11146365040E+04  0.15294330000E+03 0.  0.
    8880022    1    1    2    0    0  0.20826564218E+02  0.31464268098E+02  0.13386602314E+04  0.13478971081E+04  0.15294330000E+03 0. -1.
<mgrwt>
<rscale>  0 0.15752904E+03</rscale>
<asrwt>0</asrwt>
<pdfrwt beam="1">  1        2 0.20751885E+00 0.15752904E+03</pdfrwt>
<pdfrwt beam="2">  1       -2 0.17133247E+00 0.15752904E+03</pdfrwt>
<totfact> 0.40050190E+00</totfact>
</mgrwt>
</event>
<event>
 4    1  0.4840632E-008  0.6494047E+03  0.7818608E-02  0.9807897E-01
          2   -1    0    0  501    0  0.00000000000E+00  0.00000000000E+00  0.14843138811E+04  0.14843138811E+04  0.25500000000E-02 0. -1.
         -2   -1    0    0    0  501 -0.00000000000E+00 -0.00000000000E+00 -0.36600865573E+03  0.36600865574E+03  0.25500000000E-02 0.  1.
    8880022    1    1    2    0    0 -0.22605341670E+03  0.58926618676E+03  0.12155196505E+03  0.66068246479E+03  0.15294330000E+03 0.  0.
    8880022    1    1    2    0    0  0.22605341670E+03 -0.58926618676E+03  0.99675326031E+03  0.11896400720E+04  0.15294330000E+03 0.  0.
<mgrwt>
<rscale>  0 0.64940468E+03</rscale>
<asrwt>0</asrwt>
<pdfrwt beam="1">  1        2 0.22835598E+00 0.64940468E+03</pdfrwt>
<pdfrwt beam="2">  1       -2 0.56309025E-01 0.64940468E+03</pdfrwt>
<totfact> 0.39670739E+01</totfact>
</mgrwt>
</event>
<event>
 4    1  0.4840632E-008  0.2462077E+03  0.7818608E-02  0.1115725E+00
          2   -1    0    0  501    0  0.00000000000E+00  0.00000000000E+00  0.16668609679E+04  0.16668609679E+04  0.25500000000E-02 0. -1.
         -2   -1    0    0    0  501 -0.00000000000E+00 -0.00000000000E+00 -0.77131640015E+02  0.77131640057E+02  0.25500000000E-02 0.  1.
    8880022    1    1    2    0    0 -0.13013902384E+03  0.14244447607E+03  0.16093405969E+03  0.29413945480E+03  0.15294330000E+03 0.  0.
    8880022    1    1    2    0    0  0.13013902384E+03 -0.14244447607E+03  0.14287952682E+04  0.14498531531E+04  0.15294330000E+03 0.  0.
<mgrwt>
<rscale>  0 0.24620773E+03</rscale>
<asrwt>0</asrwt>
<pdfrwt beam="1">  1        2 0.25644014E+00 0.24620773E+03</pdfrwt>
<pdfrwt beam="2">  1       -2 0.11866407E-01 0.24620773E+03</pdfrwt>
<totfact> 0.56366627E+02</totfact>
</mgrwt>
</event>
<event>
 4    1  0.4840632E-008  0.6290416E+03  0.7818608E-02  0.9846921E-01
         -2   -1    0    0    0  501 -0.00000000000E+00  0.00000000000E+00  0.21716895676E+03  0.21716895678E+03  0.25500000000E-02 0.  1.
          2   -1    0    0  501    0  0.00000000000E+00 -0.00000000000E+00 -0.20866175242E+04  0.20866175242E+04  0.25500000000E-02 0. -1.
    8880022    1    1    2    0    0  0.55989549080E+03 -0.24252561557E+03 -0.52456094391E+03  0.81905889393E+03  0.15294330000E+03 0.  0.
    8880022    1    1    2    0    0 -0.55989549080E+03  0.24252561557E+03 -0.13448876235E+04  0.14847275870E+04  0.15294330000E+03 0.  0.
<mgrwt>
<rscale>  0 0.62904156E+03</rscale>
<asrwt>0</asrwt>
<pdfrwt beam="1">  1        2 0.32101807E+00 0.62904156E+03</pdfrwt>
<pdfrwt beam="2">  1       -2 0.33410610E-01 0.62904156E+03</pdfrwt>
<totfact> 0.52444393E+01</totfact>
</mgrwt>
</event>
<event>
 4    1  0.4840632E-008  0.4172720E+03  0.7818608E-02  0.1037958E+00
         -2   -1    0    0    0  501 -0.00000000000E+00  0.00000000000E+00  0.47263799863E+03  0.47263799864E+03  0.25500000000E-02 0.  1.
          2   -1    0    0  501    0  0.00000000000E+00 -0.00000000000E+00 -0.10177978024E+04  0.10177978024E+04  0.25500000000E-02 0. -1.
    8880022    1    1    2    0    0  0.14590843573E+03  0.35977071173E+03 -0.86784541879E+03  0.96294940706E+03  0.15294330000E+03 0.  0.
    8880022    1    1    2    0    0 -0.14590843573E+03 -0.35977071173E+03  0.32268561505E+03  0.52748639395E+03  0.15294330000E+03 0.  0.
<mgrwt>
<rscale>  0 0.41727196E+03</rscale>
<asrwt>0</asrwt>
<pdfrwt beam="1">  1        2 0.15658428E+00 0.41727196E+03</pdfrwt>
<pdfrwt beam="2">  1       -2 0.72713538E-01 0.41727196E+03</pdfrwt>
<totfact> 0.44355858E+01</totfact>
</mgrwt>
</event>
<event>
 4    1  0.4840632E-008  0.4099489E+03  0.7818608E-02  0.1040388E+00
         -2   -1    0    0    0  501 -0.00000000000E+00  0.00000000000E+00  0.17445266329E+03  0.17445266331E+03  0.25500000000E-02 0.  1.
          2   -1    0    0  501    0  0.00000000000E+00 -0.00000000000E+00 -0.10872873371E+04  0.10872873371E+04  0.25500000000E-02 0. -1.
    8880022    1    1    2    0    0  0.37015676371E+03  0.87466770426E+02 -0.24341843067E+03  0.47677106776E+03  0.15294330000E+03 0.  0.
    8880022    1    1    2    0    0 -0.37015676371E+03 -0.87466770426E+02 -0.66941624309E+03  0.78496893262E+03  0.15294330000E+03 0.  0.
<mgrwt>
<rscale>  0 0.40994892E+03</rscale>
<asrwt>0</asrwt>
<pdfrwt beam="1">  1        2 0.16727497E+00 0.40994892E+03</pdfrwt>
<pdfrwt beam="2">  1       -2 0.26838872E-01 0.40994892E+03</pdfrwt>
<totfact> 0.28876860E+02</totfact>
</mgrwt>
</event>
<event>
 4    1  0.4840632E-008  0.8879412E+03  0.7818608E-02  0.9440782E-01
          2   -1    0    0  501    0  0.00000000000E+00  0.00000000000E+00  0.23907430545E+04  0.23907430545E+04  0.25500000000E-02 0. -1.
         -2   -1    0    0    0  501 -0.00000000000E+00 -0.00000000000E+00 -0.36134297573E+03  0.36134297574E+03  0.25500000000E-02 0.  1.
    8880022    1    1    2    0    0 -0.85268630599E+03 -0.19486913616E+03  0.14213330906E+04  0.16758959765E+04  0.15294330000E+03 0.  0.
    8880022    1    1    2    0    0  0.85268630599E+03  0.19486913616E+03  0.60806698821E+03  0.10761900538E+04  0.15294330000E+03 0.  0.
<mgrwt>
<rscale>  0 0.88794120E+03</rscale>
<asrwt>0</asrwt>
<pdfrwt beam="1">  1        2 0.36780662E+00 0.88794120E+03</pdfrwt>
<pdfrwt beam="2">  1       -2 0.55591228E-01 0.88794120E+03</pdfrwt>
<totfact> 0.12531291E+01</totfact>
</mgrwt>
</event>
<event>
 4    1  0.4840632E-008  0.1037819E+04  0.7818608E-02  0.9268012E-01
          2   -1    0    0  501    0  0.00000000000E+00  0.00000000000E+00  0.13732070689E+04  0.13732070689E+04  0.25500000000E-02 0. -1.
         -2   -1    0    0    0  501 -0.00000000000E+00 -0.00000000000E+00 -0.98526099302E+03  0.98526099303E+03  0.25500000000E-02 0.  1.
    8880022    1    1    2    0    0 -0.27274482367E+03  0.98958879264E+03  0.72648845572E+03  0.12668278678E+04  0.15294330000E+03 0.  0.
    8880022    1    1    2    0    0  0.27274482367E+03 -0.98958879264E+03 -0.33854237988E+03  0.10916401941E+04  0.15294330000E+03 0.  0.
<mgrwt>
<rscale>  0 0.10378186E+04</rscale>
<asrwt>0</asrwt>
<pdfrwt beam="1">  1        2 0.21126263E+00 0.10378186E+04</pdfrwt>
<pdfrwt beam="2">  1       -2 0.15157861E+00 0.10378186E+04</pdfrwt>
<totfact> 0.43156767E+00</totfact>
</mgrwt>
</event>
<event>
 4    1  0.4840632E-008  0.2394555E+03  0.7818608E-02  0.1120156E+00
          2   -1    0    0  501    0  0.00000000000E+00  0.00000000000E+00  0.14194035385E+04  0.14194035385E+04  0.25500000000E-02 0. -1.
         -2   -1    0    0    0  501 -0.00000000000E+00 -0.00000000000E+00 -0.52245400985E+02  0.52245401048E+02  0.25500000000E-02 0.  1.
    8880022    1    1    2    0    0 -0.15811180863E+03  0.94593588329E+02  0.33315888515E+03  0.41028500673E+03  0.15294330000E+03 0.  1.
    8880022    1    1    2    0    0  0.15811180863E+03 -0.94593588329E+02  0.10339992524E+04  0.10613639328E+04  0.15294330000E+03 0.  0.
<mgrwt>
<rscale>  0 0.23945552E+03</rscale>
<asrwt>0</asrwt>
<pdfrwt beam="1">  1        2 0.21836979E+00 0.23945552E+03</pdfrwt>
<pdfrwt beam="2">  1       -2 0.80377535E-02 0.23945552E+03</pdfrwt>
<totfact> 0.14189150E+03</totfact>
</mgrwt>
</event>
<event>
 4    1  0.4840632E-008  0.2531079E+03  0.7818608E-02  0.1111356E+00
          2   -1    0    0  501    0  0.00000000000E+00  0.00000000000E+00  0.36519070534E+02  0.36519070623E+02  0.25500000000E-02 0. -1.
         -2   -1    0    0    0  501 -0.00000000000E+00 -0.00000000000E+00 -0.20412261797E+04  0.20412261797E+04  0.25500000000E-02 0.  1.
    8880022    1    1    2    0    0  0.11329820724E+03  0.16683960810E+03 -0.61282489803E+03  0.66303691244E+03  0.15294330000E+03 0. -1.
    8880022    1    1    2    0    0 -0.11329820724E+03 -0.16683960810E+03 -0.13918822111E+04  0.14147083379E+04  0.15294330000E+03 0.  1.
<mgrwt>
<rscale>  0 0.25310787E+03</rscale>
<asrwt>0</asrwt>
<pdfrwt beam="1">  1        2 0.56183201E-02 0.25310787E+03</pdfrwt>
<pdfrwt beam="2">  1       -2 0.31403471E+00 0.25310787E+03</pdfrwt>
<totfact> 0.40800909E+01</totfact>
</mgrwt>
</event>
<event>
 4    1  0.4840632E-008  0.2089264E+03  0.7818608E-02  0.1142419E+00
          2   -1    0    0  501    0  0.00000000000E+00  0.00000000000E+00  0.28850126866E+03  0.28850126867E+03  0.25500000000E-02 0. -1.
         -2   -1    0    0    0  501 -0.00000000000E+00 -0.00000000000E+00 -0.15234954928E+03  0.15234954930E+03  0.25500000000E-02 0.  1.
    8880022    1    1    2    0    0 -0.11690817640E+03 -0.81185456012E+02  0.86370950531E+02  0.22607563798E+03  0.15294330000E+03 0.  0.
    8880022    1    1    2    0    0  0.11690817640E+03  0.81185456012E+02  0.49780768849E+02  0.21477517999E+03  0.15294330000E+03 0.  0.
<mgrwt>
<rscale>  0 0.20892643E+03</rscale>
<asrwt>0</asrwt>
<pdfrwt beam="1">  1        2 0.44384811E-01 0.20892643E+03</pdfrwt>
<pdfrwt beam="2">  1       -2 0.23438392E-01 0.20892643E+03</pdfrwt>
<totfact> 0.18028373E+03</totfact>
</mgrwt>
</event>
<event>
 4    1  0.4840632E-008  0.6478883E+03  0.7818608E-02  0.9810750E-01
         -2   -1    0    0    0  501 -0.00000000000E+00  0.00000000000E+00  0.23629141596E+03  0.23629141598E+03  0.25500000000E-02 0.  1.
          2   -1    0    0  501    0  0.00000000000E+00 -0.00000000000E+00 -0.18387816483E+04  0.18387816483E+04  0.25500000000E-02 0. -1.
    8880022    1    1    2    0    0 -0.26314833204E+03  0.57194451463E+03 -0.99227546097E+03  0.11850611022E+04  0.15294330000E+03 0.  0.
    8880022    1    1    2    0    0  0.26314833204E+03 -0.57194451463E+03 -0.61021477139E+03  0.89001196212E+03  0.15294330000E+03 0.  0.
<mgrwt>
<rscale>  0 0.64788828E+03</rscale>
<asrwt>0</asrwt>
<pdfrwt beam="1">  1        2 0.28288948E+00 0.64788828E+03</pdfrwt>
<pdfrwt beam="2">  1       -2 0.36352527E-01 0.64788828E+03</pdfrwt>
<totfact> 0.60747026E+01</totfact>
</mgrwt>
</event>
<event>
 4    1  0.4840632E-008  0.4694423E+03  0.7818608E-02  0.1022078E+00
         -2   -1    0    0    0  501 -0.00000000000E+00  0.00000000000E+00  0.24167676057E+03  0.24167676059E+03  0.25500000000E-02 0.  1.
          2   -1    0    0  501    0  0.00000000000E+00 -0.00000000000E+00 -0.20344232701E+04  0.20344232701E+04  0.25500000000E-02 0. -1.
    8880022    1    1    2    0    0 -0.32980902216E+03  0.29700233084E+03 -0.17417408167E+04  0.18038949806E+04  0.15294330000E+03 0.  0.
    8880022    1    1    2    0    0  0.32980902216E+03 -0.29700233084E+03 -0.51005692890E+02  0.47220505010E+03  0.15294330000E+03 0.  0.
<mgrwt>
<rscale>  0 0.46944225E+03</rscale>
<asrwt>0</asrwt>
<pdfrwt beam="1">  1        2 0.31298818E+00 0.46944225E+03</pdfrwt>
<pdfrwt beam="2">  1       -2 0.37181041E-01 0.46944225E+03</pdfrwt>
<totfact> 0.46949541E+01</totfact>
</mgrwt>
</event>
<event>
 4    1  0.4840632E-008  0.8838186E+03  0.7818608E-02  0.9446038E-01
         -2   -1    0    0    0  501 -0.00000000000E+00  0.00000000000E+00  0.12426683702E+04  0.12426683702E+04  0.25500000000E-02 0.  1.
          2   -1    0    0  501    0  0.00000000000E+00 -0.00000000000E+00 -0.11287171538E+04  0.11287171538E+04  0.25500000000E-02 0. -1.
    8880022    1    1    2    0    0  0.13942948451E+03  0.85924560202E+03  0.84623109995E+03  0.12236185326E+04  0.15294330000E+03 0.  0.
    8880022    1    1    2    0    0 -0.13942948451E+03 -0.85924560202E+03 -0.73227988352E+03  0.11477669914E+04  0.15294330000E+03 0.  0.
<mgrwt>
<rscale>  0 0.88381856E+03</rscale>
<asrwt>0</asrwt>
<pdfrwt beam="1">  1        2 0.17364879E+00 0.88381856E+03</pdfrwt>
<pdfrwt beam="2">  1       -2 0.19117975E+00 0.88381856E+03</pdfrwt>
<totfact> 0.32017745E+00</totfact>
</mgrwt>
</event>
<event>
 4    1  0.4840632E-008  0.5459721E+03  0.7818608E-02  0.1002431E+00
          2   -1    0    0  501    0  0.00000000000E+00  0.00000000000E+00  0.98644058928E+03  0.98644058928E+03  0.25500000000E-02 0. -1.
         -2   -1    0    0    0  501 -0.00000000000E+00 -0.00000000000E+00 -0.36767830446E+03  0.36767830447E+03  0.25500000000E-02 0.  1.
    8880022    1    1    2    0    0  0.33102888747E+03 -0.40634198113E+03  0.23623495384E+02  0.54648298465E+03  0.15294330000E+03 0.  0.
    8880022    1    1    2    0    0 -0.33102888747E+03  0.40634198113E+03  0.59513878943E+03  0.80763590910E+03  0.15294330000E+03 0. -1.
<mgrwt>
<rscale>  0 0.54597214E+03</rscale>
<asrwt>0</asrwt>
<pdfrwt beam="1">  1        2 0.15176009E+00 0.54597214E+03</pdfrwt>
<pdfrwt beam="2">  1       -2 0.56565894E-01 0.54597214E+03</pdfrwt>
<totfact> 0.77871094E+01</totfact>
</mgrwt>
</event>
<event>
 4    1  0.4840632E-008  0.5195883E+03  0.7818608E-02  0.1008789E+00
         -2   -1    0    0    0  501 -0.00000000000E+00  0.00000000000E+00  0.77320890429E+03  0.77320890429E+03  0.25500000000E-02 0.  1.
          2   -1    0    0  501    0  0.00000000000E+00 -0.00000000000E+00 -0.14124863045E+04  0.14124863045E+04  0.25500000000E-02 0. -1.
    8880022    1    1    2    0    0  0.41642434957E+03  0.27050162744E+03  0.62856398936E+03  0.81551499747E+03  0.15294330000E+03 0.  0.
    8880022    1    1    2    0    0 -0.41642434957E+03 -0.27050162744E+03 -0.12678413895E+04  0.13701802113E+04  0.15294330000E+03 0. -1.
<mgrwt>
<rscale>  0 0.51958832E+03</rscale>
<asrwt>0</asrwt>
<pdfrwt beam="1">  1        2 0.21730559E+00 0.51958832E+03</pdfrwt>
<pdfrwt beam="2">  1       -2 0.11895522E+00 0.51958832E+03</pdfrwt>
<totfact> 0.82131342E+00</totfact>
</mgrwt>
</event>
<event>
 4    1  0.4840632E-008  0.5577048E+03  0.7818608E-02  0.9997261E-01
          2   -1    0    0  501    0  0.00000000000E+00  0.00000000000E+00  0.16722419377E+04  0.16722419377E+04  0.25500000000E-02 0. -1.
         -2   -1    0    0    0  501 -0.00000000000E+00 -0.00000000000E+00 -0.19323890615E+03  0.19323890617E+03  0.25500000000E-02 0.  1.
    8880022    1    1    2    0    0 -0.41622933224E+03 -0.33822496719E+03  0.55895365309E+03  0.78959725479E+03  0.15294330000E+03 0.  0.
    8880022    1    1    2    0    0  0.41622933224E+03  0.33822496719E+03  0.92004937851E+03  0.10758835891E+04  0.15294330000E+03 0. -1.
<mgrwt>
<rscale>  0 0.55770480E+03</rscale>
<asrwt>0</asrwt>
<pdfrwt beam="1">  1        2 0.25726799E+00 0.55770480E+03</pdfrwt>
<pdfrwt beam="2">  1       -2 0.29729063E-01 0.55770480E+03</pdfrwt>
<totfact> 0.11037454E+02</totfact>
</mgrwt>
</event>
<event>
 4    1  0.4840632E-008  0.4838057E+03  0.7818608E-02  0.1018094E+00
         -2   -1    0    0    0  501 -0.00000000000E+00  0.00000000000E+00  0.12524572322E+04  0.12524572322E+04  0.25500000000E-02 0.  1.
          2   -1    0    0  501    0  0.00000000000E+00 -0.00000000000E+00 -0.86659907510E+03  0.86659907511E+03  0.25500000000E-02 0. -1.
    8880022    1    1    2    0    0  0.45742700559E+03  0.37905839815E+02  0.11312812950E+04  0.12303923518E+04  0.15294330000E+03 0.  0.
    8880022    1    1    2    0    0 -0.45742700559E+03 -0.37905839815E+02 -0.74542313790E+03  0.88866395542E+03  0.15294330000E+03 0.  0.
<mgrwt>
<rscale>  0 0.48380572E+03</rscale>
<asrwt>0</asrwt>
<pdfrwt beam="1">  1        2 0.13332293E+00 0.48380572E+03</pdfrwt>
<pdfrwt beam="2">  1       -2 0.19268573E+00 0.48380572E+03</pdfrwt>
<totfact> 0.49105345E+00</totfact>
</mgrwt>
</event>
<event>
 4    1  0.4840632E-008  0.1058764E+04  0.7818608E-02  0.9246342E-01
          2   -1    0    0  501    0  0.00000000000E+00  0.00000000000E+00  0.13311187776E+04  0.13311187776E+04  0.25500000000E-02 0. -1.
         -2   -1    0    0    0  501 -0.00000000000E+00 -0.00000000000E+00 -0.13254685854E+04  0.13254685854E+04  0.25500000000E-02 0.  1.
    8880022    1    1    2    0    0 -0.73877675431E+02 -0.10450514496E+04 -0.79928271291E+03  0.13265877097E+04  0.15294330000E+03 0.  0.
    8880022    1    1    2    0    0  0.73877675431E+02  0.10450514496E+04  0.80493290511E+03  0.13299996534E+04  0.15294330000E+03 0.  0.
<mgrwt>
<rscale>  0 0.10587644E+04</rscale>
<asrwt>0</asrwt>
<pdfrwt beam="1">  1        2 0.20478750E+00 0.10587644E+04</pdfrwt>
<pdfrwt beam="2">  1       -2 0.20391824E+00 0.10587644E+04</pdfrwt>
<totfact> 0.19597107E+00</totfact>
</mgrwt>
</event>
<event>
 4    1  0.4840632E-008  0.5136182E+03  0.7818608E-02  0.1010284E+00
         -2   -1    0    0    0  501 -0.00000000000E+00  0.00000000000E+00  0.49722132036E+03  0.49722132037E+03  0.25500000000E-02 0.  1.
          2   -1    0    0  501    0  0.00000000000E+00 -0.00000000000E+00 -0.74724099844E+03  0.74724099844E+03  0.25500000000E-02 0. -1.
    8880022    1    1    2    0    0 -0.12873425429E+03 -0.47311675875E+03 -0.46008025620E+03  0.68954874433E+03  0.15294330000E+03 0. -1.
    8880022    1    1    2    0    0  0.12873425429E+03  0.47311675875E+03  0.21006057813E+03  0.55491357448E+03  0.15294330000E+03 0.  0.
<mgrwt>
<rscale>  0 0.51361817E+03</rscale>
<asrwt>0</asrwt>
<pdfrwt beam="1">  1        2 0.11496015E+00 0.51361817E+03</pdfrwt>
<pdfrwt beam="2">  1       -2 0.76495588E-01 0.51361817E+03</pdfrwt>
<totfact> 0.59568946E+01</totfact>
</mgrwt>
</event>
<event>
 4    1  0.4840632E-008  0.2400377E+03  0.7818608E-02  0.1119768E+00
          2   -1    0    0  501    0  0.00000000000E+00  0.00000000000E+00  0.99868428091E+03  0.99868428092E+03  0.25500000000E-02 0. -1.
         -2   -1    0    0    0  501 -0.00000000000E+00 -0.00000000000E+00 -0.86474543115E+02  0.86474543153E+02  0.25500000000E-02 0.  1.
    8880022    1    1    2    0    0  0.17231057242E+03 -0.67346152682E+02  0.76912240390E+03  0.80570922971E+03  0.15294330000E+03 0.  0.
    8880022    1    1    2    0    0 -0.17231057242E+03  0.67346152682E+02  0.14308733390E+03  0.27944959436E+03  0.15294330000E+03 0.  0.
<mgrwt>
<rscale>  0 0.24003769E+03</rscale>
<asrwt>0</asrwt>
<pdfrwt beam="1">  1        2 0.15364374E+00 0.24003769E+03</pdfrwt>
<pdfrwt beam="2">  1       -2 0.13303775E-01 0.24003769E+03</pdfrwt>
<totfact> 0.11009488E+03</totfact>
</mgrwt>
</event>
<event>
 4    1  0.4840632E-008  0.7494936E+03  0.7818608E-02  0.9636145E-01
         -2   -1    0    0    0  501 -0.00000000000E+00  0.00000000000E+00  0.21725072909E+03  0.21725072911E+03  0.25500000000E-02 0.  1.
          2   -1    0    0  501    0  0.00000000000E+00 -0.00000000000E+00 -0.29622358774E+04  0.29622358775E+04  0.25500000000E-02 0. -1.
    8880022    1    1    2    0    0 -0.11443400581E+03 -0.72474398799E+03 -0.80568911633E+03  0.11003979258E+04  0.15294330000E+03 0.  0.
    8880022    1    1    2    0    0  0.11443400581E+03  0.72474398799E+03 -0.19392960320E+04  0.20790886808E+04  0.15294330000E+03 0.  0.
<mgrwt>
<rscale>  0 0.74949359E+03</rscale>
<asrwt>0</asrwt>
<pdfrwt beam="1">  1        2 0.45572857E+00 0.74949359E+03</pdfrwt>
<pdfrwt beam="2">  1       -2 0.33423191E-01 0.74949359E+03</pdfrwt>
<totfact> 0.16290794E+01</totfact>
</mgrwt>
</event>
<event>
 4    1  0.4840632E-008  0.6323760E+03  0.7818608E-02  0.9840423E-01
         -2   -1    0    0    0  501 -0.00000000000E+00  0.00000000000E+00  0.32716281211E+03  0.32716281212E+03  0.25500000000E-02 0.  1.
          2   -1    0    0  501    0  0.00000000000E+00 -0.00000000000E+00 -0.18298423972E+04  0.18298423972E+04  0.25500000000E-02 0. -1.
    8880022    1    1    2    0    0 -0.60423263320E+03  0.10682052107E+03 -0.13727718329E+04  0.15114237847E+04  0.15294330000E+03 0.  0.
    8880022    1    1    2    0    0  0.60423263320E+03 -0.10682052107E+03 -0.12990775220E+03  0.64558142464E+03  0.15294330000E+03 0.  0.
<mgrwt>
<rscale>  0 0.63237596E+03</rscale>
<asrwt>0</asrwt>
<pdfrwt beam="1">  1        2 0.28151421E+00 0.63237596E+03</pdfrwt>
<pdfrwt beam="2">  1       -2 0.50332742E-01 0.63237596E+03</pdfrwt>
<totfact> 0.32417891E+01</totfact>
</mgrwt>
</event>
<event>
 4    1  0.4840632E-008  0.3825154E+03  0.7818608E-02  0.1050008E+00
         -2   -1    0    0    0  501 -0.00000000000E+00  0.00000000000E+00  0.28568075862E+03  0.28568075863E+03  0.25500000000E-02 0.  1.
          2   -1    0    0  501    0  0.00000000000E+00 -0.00000000000E+00 -0.97714575154E+03  0.97714575154E+03  0.25500000000E-02 0. -1.
    8880022    1    1    2    0    0  0.16705414522E+03 -0.30825199232E+03  0.89827187464E+02  0.39292105419E+03  0.15294330000E+03 0.  0.
    8880022    1    1    2    0    0 -0.16705414522E+03  0.30825199232E+03 -0.78129218039E+03  0.86990545598E+03  0.15294330000E+03 0.  0.
<mgrwt>
<rscale>  0 0.38251540E+03</rscale>
<asrwt>0</asrwt>
<pdfrwt beam="1">  1        2 0.15033011E+00 0.38251540E+03</pdfrwt>
<pdfrwt beam="2">  1       -2 0.43950886E-01 0.38251540E+03</pdfrwt>
<totfact> 0.13392396E+02</totfact>
</mgrwt>
</event>
<event>
 4    1  0.4840632E-008  0.1275387E+04  0.7818608E-02  0.9049314E-01
          2   -1    0    0  501    0  0.00000000000E+00  0.00000000000E+00  0.13184294833E+04  0.13184294833E+04  0.25500000000E-02 0. -1.
         -2   -1    0    0    0  501 -0.00000000000E+00 -0.00000000000E+00 -0.13302648060E+04  0.13302648060E+04  0.25500000000E-02 0.  1.
    8880022    1    1    2    0    0  0.12641671878E+04  0.71426541451E+02  0.35080463839E+03  0.13227531806E+04  0.15294330000E+03 0.  0.
    8880022    1    1    2    0    0 -0.12641671878E+04 -0.71426541451E+02 -0.36263996107E+03  0.13259411087E+04  0.15294330000E+03 0.  0.
<mgrwt>
<rscale>  0 0.12753870E+04</rscale>
<asrwt>0</asrwt>
<pdfrwt beam="1">  1        2 0.20283530E+00 0.12753870E+04</pdfrwt>
<pdfrwt beam="2">  1       -2 0.20465612E+00 0.12753870E+04</pdfrwt>
<totfact> 0.19260795E+00</totfact>
</mgrwt>
</event>
<event>
 4    1  0.4840632E-008  0.2166543E+03  0.7818608E-02  0.1136402E+00
         -2   -1    0    0    0  501 -0.00000000000E+00  0.00000000000E+00  0.14025825376E+03  0.14025825378E+03  0.25500000000E-02 0.  1.
          2   -1    0    0  501    0  0.00000000000E+00 -0.00000000000E+00 -0.69552262551E+03  0.69552262551E+03  0.25500000000E-02 0. -1.
    8880022    1    1    2    0    0 -0.13754947715E+03 -0.68026339879E+02  0.23374824002E+02  0.21791162657E+03  0.15294330000E+03 0.  1.
    8880022    1    1    2    0    0  0.13754947715E+03  0.68026339879E+02 -0.57863919575E+03  0.61786925272E+03  0.15294330000E+03 0. -1.
<mgrwt>
<rscale>  0 0.21665432E+03</rscale>
<asrwt>0</asrwt>
<pdfrwt beam="1">  1        2 0.10700348E+00 0.21665432E+03</pdfrwt>
<pdfrwt beam="2">  1       -2 0.21578193E-01 0.21665432E+03</pdfrwt>
<totfact> 0.78225437E+02</totfact>
</mgrwt>
</event>
<event>
 4    1  0.4840632E-008  0.4917866E+03  0.7818608E-02  0.1015945E+00
          2   -1    0    0  501    0  0.00000000000E+00  0.00000000000E+00  0.24256266535E+03  0.24256266536E+03  0.25500000000E-02 0. -1.
         -2   -1    0    0    0  501 -0.00000000000E+00 -0.00000000000E+00 -0.14822758186E+04  0.14822758186E+04  0.25500000000E-02 0.  1.
    8880022    1    1    2    0    0 -0.46739907713E+03  0.74179744169E+00 -0.11132722839E+04  0.12170576316E+04  0.15294330000E+03 0.  0.
    8880022    1    1    2    0    0  0.46739907713E+03 -0.74179744169E+00 -0.12644086937E+03  0.50778085236E+03  0.15294330000E+03 0.  0.
<mgrwt>
<rscale>  0 0.49178664E+03</rscale>
<asrwt>0</asrwt>
<pdfrwt beam="1">  1        2 0.37317334E-01 0.49178664E+03</pdfrwt>
<pdfrwt beam="2">  1       -2 0.22804243E+00 0.49178664E+03</pdfrwt>
<totfact> 0.12893848E+01</totfact>
</mgrwt>
</event>
<event>
 4    1  0.4840632E-008  0.3001970E+03  0.7818608E-02  0.1085142E+00
          2   -1    0    0  501    0  0.00000000000E+00  0.00000000000E+00  0.15056886016E+04  0.15056886016E+04  0.25500000000E-02 0. -1.
         -2   -1    0    0    0  501 -0.00000000000E+00 -0.00000000000E+00 -0.21102262426E+03  0.21102262428E+03  0.25500000000E-02 0.  1.
    8880022    1    1    2    0    0 -0.25820166572E+03 -0.76476288036E+01 -0.79168768152E+02  0.31046084016E+03  0.15294330000E+03 0.  0.
    8880022    1    1    2    0    0  0.25820166572E+03  0.76476288036E+01  0.13738347455E+04  0.14062503857E+04  0.15294330000E+03 0. -1.
<mgrwt>
<rscale>  0 0.30019700E+03</rscale>
<asrwt>0</asrwt>
<pdfrwt beam="1">  1        2 0.23164440E+00 0.30019700E+03</pdfrwt>
<pdfrwt beam="2">  1       -2 0.32465019E-01 0.30019700E+03</pdfrwt>
<totfact> 0.12034911E+02</totfact>
</mgrwt>
</event>
<event>
 4    1  0.4840632E-008  0.7180925E+03  0.7818608E-02  0.9686782E-01
          2   -1    0    0  501    0  0.00000000000E+00  0.00000000000E+00  0.12298275566E+04  0.12298275566E+04  0.25500000000E-02 0. -1.
         -2   -1    0    0    0  501 -0.00000000000E+00 -0.00000000000E+00 -0.44820084133E+03  0.44820084134E+03  0.25500000000E-02 0.  1.
    8880022    1    1    2    0    0 -0.25257754000E+03  0.65457603252E+03  0.60389614113E+03  0.93826829764E+03  0.15294330000E+03 0.  0.
    8880022    1    1    2    0    0  0.25257754000E+03 -0.65457603252E+03  0.17773057418E+03  0.73976010035E+03  0.15294330000E+03 0.  0.
<mgrwt>
<rscale>  0 0.71809251E+03</rscale>
<asrwt>0</asrwt>
<pdfrwt beam="1">  1        2 0.18920424E+00 0.71809251E+03</pdfrwt>
<pdfrwt beam="2">  1       -2 0.68953976E-01 0.71809251E+03</pdfrwt>
<totfact> 0.35701724E+01</totfact>
</mgrwt>
</event>
<event>
 4    1  0.4840632E-008  0.2456217E+03  0.7818608E-02  0.1116103E+00
         -2   -1    0    0    0  501 -0.00000000000E+00  0.00000000000E+00  0.36037702982E+03  0.36037702983E+03  0.25500000000E-02 0.  1.
          2   -1    0    0  501    0  0.00000000000E+00 -0.00000000000E+00 -0.67934290341E+03  0.67934290342E+03  0.25500000000E-02 0. -1.
    8880022    1    1    2    0    0  0.10727728323E+03 -0.15946765554E+03 -0.61076619135E+03  0.65830490062E+03  0.15294330000E+03 0.  0.
    8880022    1    1    2    0    0 -0.10727728323E+03  0.15946765554E+03  0.29180031776E+03  0.38141503263E+03  0.15294330000E+03 0.  0.
<mgrwt>
<rscale>  0 0.24562166E+03</rscale>
<asrwt>0</asrwt>
<pdfrwt beam="1">  1        2 0.10451429E+00 0.24562166E+03</pdfrwt>
<pdfrwt beam="2">  1       -2 0.55442620E-01 0.24562166E+03</pdfrwt>
<totfact> 0.13751023E+02</totfact>
</mgrwt>
</event>
<event>
 4    1  0.4840632E-008  0.4117063E+03  0.7818608E-02  0.1039800E+00
         -2   -1    0    0    0  501 -0.00000000000E+00  0.00000000000E+00  0.35478649847E+03  0.35478649848E+03  0.25500000000E-02 0.  1.
          2   -1    0    0  501    0  0.00000000000E+00 -0.00000000000E+00 -0.18776785197E+04  0.18776785197E+04  0.25500000000E-02 0. -1.
    8880022    1    1    2    0    0 -0.36388080869E+03  0.11705202923E+03 -0.17252655883E+04  0.17737089456E+04  0.15294330000E+03 0.  0.
    8880022    1    1    2    0    0  0.36388080869E+03 -0.11705202923E+03  0.20237356707E+03  0.45875607260E+03  0.15294330000E+03 0.  0.
<mgrwt>
<rscale>  0 0.41170630E+03</rscale>
<asrwt>0</asrwt>
<pdfrwt beam="1">  1        2 0.28887361E+00 0.41170630E+03</pdfrwt>
<pdfrwt beam="2">  1       -2 0.54582539E-01 0.41170630E+03</pdfrwt>
<totfact> 0.26983848E+01</totfact>
</mgrwt>
</event>
<event>
 4    1  0.4840632E-008  0.3955308E+03  0.7818608E-02  0.1045338E+00
         -2   -1    0    0    0  501 -0.00000000000E+00  0.00000000000E+00  0.20981516037E+03  0.20981516038E+03  0.25500000000E-02 0.  1.
          2   -1    0    0  501    0  0.00000000000E+00 -0.00000000000E+00 -0.21353694962E+04  0.21353694962E+04  0.25500000000E-02 0. -1.
    8880022    1    1    2    0    0 -0.43836207226E+01  0.36473791273E+03 -0.19087466590E+04  0.19492969046E+04  0.15294330000E+03 0.  0.
    8880022    1    1    2    0    0  0.43836207226E+01 -0.36473791273E+03 -0.16807676799E+02  0.39588775193E+03  0.15294330000E+03 0.  1.
<mgrwt>
<rscale>  0 0.39553080E+03</rscale>
<asrwt>0</asrwt>
<pdfrwt beam="1">  1        2 0.32851837E+00 0.39553080E+03</pdfrwt>
<pdfrwt beam="2">  1       -2 0.32279257E-01 0.39553080E+03</pdfrwt>
<totfact> 0.54955506E+01</totfact>
</mgrwt>
</event>
<event>
 4    1  0.4840632E-008  0.2113850E+03  0.7818608E-02  0.1140474E+00
         -2   -1    0    0    0  501 -0.00000000000E+00  0.00000000000E+00  0.10086990292E+03  0.10086990295E+03  0.25500000000E-02 0.  1.
          2   -1    0    0  501    0  0.00000000000E+00 -0.00000000000E+00 -0.19610253753E+04  0.19610253753E+04  0.25500000000E-02 0. -1.
    8880022    1    1    2    0    0  0.63467830506E+02  0.13139174925E+03 -0.23015662304E+02  0.21263426584E+03  0.15294330000E+03 0.  1.
    8880022    1    1    2    0    0 -0.63467830506E+02 -0.13139174925E+03 -0.18371398101E+04  0.18492610124E+04  0.15294330000E+03 0.  0.
<mgrwt>
<rscale>  0 0.21138498E+03</rscale>
<asrwt>0</asrwt>
<pdfrwt beam="1">  1        2 0.30169618E+00 0.21138498E+03</pdfrwt>
<pdfrwt beam="2">  1       -2 0.15518448E-01 0.21138498E+03</pdfrwt>
<totfact> 0.25698821E+02</totfact>
</mgrwt>
</event>
<event>
 4    1  0.4840632E-008  0.9992661E+03  0.7818608E-02  0.9309350E-01
          2   -1    0    0  501    0  0.00000000000E+00  0.00000000000E+00  0.24300714937E+04  0.24300714937E+04  0.25500000000E-02 0. -1.
         -2   -1    0    0    0  501 -0.00000000000E+00 -0.00000000000E+00 -0.48722586700E+03  0.48722586701E+03  0.25500000000E-02 0.  1.
    8880022    1    1    2    0    0 -0.52938702770E+03 -0.83360091202E+03  0.39412192186E+03  0.10741810126E+04  0.15294330000E+03 0.  0.
    8880022    1    1    2    0    0  0.52938702770E+03  0.83360091202E+03  0.15487237048E+04  0.18431163481E+04  0.15294330000E+03 0.  0.
<mgrwt>
<rscale>  0 0.99926611E+03</rscale>
<asrwt>0</asrwt>
<pdfrwt beam="1">  1        2 0.37385715E+00 0.99926611E+03</pdfrwt>
<pdfrwt beam="2">  1       -2 0.74957826E-01 0.99926611E+03</pdfrwt>
<totfact> 0.61660601E+00</totfact>
</mgrwt>
</event>
<event>
 4    1  0.4840632E-008  0.4067411E+03  0.7818608E-02  0.1041470E+00
          2   -1    0    0  501    0  0.00000000000E+00  0.00000000000E+00  0.97312154749E+03  0.97312154749E+03  0.25500000000E-02 0. -1.
         -2   -1    0    0    0  501 -0.00000000000E+00 -0.00000000000E+00 -0.97381170000E+03  0.97381170001E+03  0.25500000000E-02 0.  1.
    8880022    1    1    2    0    0 -0.26028271678E+03 -0.27257954162E+03 -0.88476516568E+03  0.97378013462E+03  0.15294330000E+03 0.  0.
    8880022    1    1    2    0    0  0.26028271678E+03  0.27257954162E+03  0.88407501317E+03  0.97315311287E+03  0.15294330000E+03 0.  0.
<mgrwt>
<rscale>  0 0.40674114E+03</rscale>
<asrwt>0</asrwt>
<pdfrwt beam="1">  1        2 0.14971101E+00 0.40674114E+03</pdfrwt>
<pdfrwt beam="2">  1       -2 0.14981718E+00 0.40674114E+03</pdfrwt>
<totfact> 0.84969539E+00</totfact>
</mgrwt>
</event>
<event>
 4    1  0.4840632E-008  0.3501833E+03  0.7818608E-02  0.1062540E+00
          2   -1    0    0  501    0  0.00000000000E+00  0.00000000000E+00  0.31753081626E+04  0.31753081626E+04  0.25500000000E-02 0. -1.
         -2   -1    0    0    0  501 -0.00000000000E+00 -0.00000000000E+00 -0.94173159544E+02  0.94173159579E+02  0.25500000000E-02 0.  1.
    8880022    1    1    2    0    0 -0.29554261947E+03  0.10904690726E+03  0.28499372303E+03  0.45149722379E+03  0.15294330000E+03 0.  0.
    8880022    1    1    2    0    0  0.29554261947E+03 -0.10904690726E+03  0.27961412800E+04  0.28179840984E+04  0.15294330000E+03 0. -1.
<mgrwt>
<rscale>  0 0.35018327E+03</rscale>
<asrwt>0</asrwt>
<pdfrwt beam="1">  1        2 0.48850886E+00 0.35018327E+03</pdfrwt>
<pdfrwt beam="2">  1       -2 0.14488181E-01 0.35018327E+03</pdfrwt>
<totfact> 0.57807579E+01</totfact>
</mgrwt>
</event>
<event>
 4    1  0.4840632E-008  0.2873359E+03  0.7818608E-02  0.1091748E+00
         -2   -1    0    0    0  501 -0.00000000000E+00  0.00000000000E+00  0.61182090512E+03  0.61182090513E+03  0.25500000000E-02 0.  1.
          2   -1    0    0  501    0  0.00000000000E+00 -0.00000000000E+00 -0.24196563512E+04  0.24196563512E+04  0.25500000000E-02 0. -1.
    8880022    1    1    2    0    0 -0.22580691251E+03  0.90451740442E+02 -0.23767835317E+04  0.23940889475E+04  0.15294330000E+03 0.  0.
    8880022    1    1    2    0    0  0.22580691251E+03 -0.90451740442E+02  0.56894808561E+03  0.63738830882E+03  0.15294330000E+03 0.  0.
<mgrwt>
<rscale>  0 0.28733592E+03</rscale>
<asrwt>0</asrwt>
<pdfrwt beam="1">  1        2 0.37225482E+00 0.28733592E+03</pdfrwt>
<pdfrwt beam="2">  1       -2 0.94126294E-01 0.28733592E+03</pdfrwt>
<totfact> 0.44234650E+00</totfact>
</mgrwt>
</event>
<event>
 4    1  0.4840632E-008  0.6991355E+03  0.7818608E-02  0.9718712E-01
         -2   -1    0    0    0  501 -0.00000000000E+00  0.00000000000E+00  0.55246604362E+03  0.55246604363E+03  0.25500000000E-02 0.  1.
          2   -1    0    0  501    0  0.00000000000E+00 -0.00000000000E+00 -0.19136606765E+04  0.19136606765E+04  0.25500000000E-02 0. -1.
    8880022    1    1    2    0    0  0.15546398529E+03 -0.66425129882E+03  0.22355839622E+03  0.73400875216E+03  0.15294330000E+03 0.  0.
    8880022    1    1    2    0    0 -0.15546398529E+03  0.66425129882E+03 -0.15847530291E+04  0.17321179680E+04  0.15294330000E+03 0.  0.
<mgrwt>
<rscale>  0 0.69913553E+03</rscale>
<asrwt>0</asrwt>
<pdfrwt beam="1">  1        2 0.29440933E+00 0.69913553E+03</pdfrwt>
<pdfrwt beam="2">  1       -2 0.84994777E-01 0.69913553E+03</pdfrwt>
<totfact> 0.93667420E+00</totfact>
</mgrwt>
</event>
<event>
 4    1  0.4840632E-008  0.6924272E+03  0.7818608E-02  0.9730271E-01
         -2   -1    0    0    0  501 -0.00000000000E+00  0.00000000000E+00  0.36101164557E+03  0.36101164558E+03  0.25500000000E-02 0.  1.
          2   -1    0    0  501    0  0.00000000000E+00 -0.00000000000E+00 -0.28173110627E+04  0.28173110627E+04  0.25500000000E-02 0. -1.
    8880022    1    1    2    0    0  0.61943153517E+03 -0.26901365831E+03 -0.23835444676E+04  0.24820837329E+04  0.15294330000E+03 0.  0.
    8880022    1    1    2    0    0 -0.61943153517E+03  0.26901365831E+03 -0.72754949517E+02  0.69623897536E+03  0.15294330000E+03 0.  0.
<mgrwt>
<rscale>  0 0.69242720E+03</rscale>
<asrwt>0</asrwt>
<pdfrwt beam="1">  1        2 0.43343246E+00 0.69242720E+03</pdfrwt>
<pdfrwt beam="2">  1       -2 0.55540255E-01 0.69242720E+03</pdfrwt>
<totfact> 0.73607537E+00</totfact>
</mgrwt>
</event>
<event>
 4    1  0.4905885E-008  0.8051648E+03  0.7818608E-02  0.9552571E-01
         -2   -1    0    0    0  501 -0.00000000000E+00  0.00000000000E+00  0.83013103536E+03  0.83013103536E+03  0.25500000000E-02 0.  1.
          2   -1    0    0  501    0  0.00000000000E+00 -0.00000000000E+00 -0.16571300043E+04  0.16571300043E+04  0.25500000000E-02 0. -1.
    8880022    1    1    2    0    0  0.76764199278E+03  0.18874466339E+03 -0.13177939440E+04  0.15443028553E+04  0.15294330000E+03 0.  0.
    8880022    1    1    2    0    0 -0.76764199278E+03 -0.18874466339E+03  0.49079497502E+03  0.94295818441E+03  0.15294330000E+03 0.  0.
<mgrwt>
<rscale>  0 0.80516485E+03</rscale>
<asrwt>0</asrwt>
<pdfrwt beam="1">  1        2 0.25494308E+00 0.80516485E+03</pdfrwt>
<pdfrwt beam="2">  1       -2 0.12771247E+00 0.80516485E+03</pdfrwt>
<totfact> 0.48014631E+00</totfact>
</mgrwt>
</event>
<event>
 4    1  0.4840632E-008  0.3653669E+03  0.7818608E-02  0.1056479E+00
          2   -1    0    0  501    0  0.00000000000E+00  0.00000000000E+00  0.24537589195E+04  0.24537589195E+04  0.25500000000E-02 0. -1.
         -2   -1    0    0    0  501 -0.00000000000E+00 -0.00000000000E+00 -0.19220411691E+03  0.19220411693E+03  0.25500000000E-02 0.  1.
    8880022    1    1    2    0    0  0.30090815667E+03  0.13984132157E+03  0.10570913556E+02  0.36551978222E+03  0.15294330000E+03 0.  0.
    8880022    1    1    2    0    0 -0.30090815667E+03 -0.13984132157E+03  0.22509838891E+04  0.22804432542E+04  0.15294330000E+03 0.  0.
<mgrwt>
<rscale>  0 0.36536689E+03</rscale>
<asrwt>0</asrwt>
<pdfrwt beam="1">  1        2 0.37750134E+00 0.36536689E+03</pdfrwt>
<pdfrwt beam="2">  1       -2 0.29569867E-01 0.36536689E+03</pdfrwt>
<totfact> 0.43719105E+01</totfact>
</mgrwt>
</event>
<event>
 4    1  0.4840632E-008  0.1957882E+03  0.7818608E-02  0.1153342E+00
         -2   -1    0    0    0  501 -0.00000000000E+00  0.00000000000E+00  0.16362159240E+03  0.16362159242E+03  0.25500000000E-02 0.  1.
          2   -1    0    0  501    0  0.00000000000E+00 -0.00000000000E+00 -0.99258674077E+03  0.99258674077E+03  0.25500000000E-02 0. -1.
    8880022    1    1    2    0    0  0.53731455861E+02  0.10979210171E+03 -0.91977727165E+03  0.94038463269E+03  0.15294330000E+03 0.  0.
    8880022    1    1    2    0    0 -0.53731455861E+02 -0.10979210171E+03  0.90812123276E+02  0.21582370050E+03  0.15294330000E+03 0.  1.
<mgrwt>
<rscale>  0 0.19578822E+03</rscale>
<asrwt>0</asrwt>
<pdfrwt beam="1">  1        2 0.15270565E+00 0.19578822E+03</pdfrwt>
<pdfrwt beam="2">  1       -2 0.25172553E-01 0.19578822E+03</pdfrwt>
<totfact> 0.37856751E+02</totfact>
</mgrwt>
</event>
<event>
 4    1  0.4840632E-008  0.5826791E+03  0.7818608E-02  0.9942008E-01
          2   -1    0    0  501    0  0.00000000000E+00  0.00000000000E+00  0.55779724742E+03  0.55779724743E+03  0.25500000000E-02 0. -1.
         -2   -1    0    0    0  501 -0.00000000000E+00 -0.00000000000E+00 -0.87804042598E+03  0.87804042599E+03  0.25500000000E-02 0.  1.
    8880022    1    1    2    0    0 -0.32504557573E+03  0.45876860537E+03 -0.55776371010E+03  0.80660725815E+03  0.15294330000E+03 0.  0.
    8880022    1    1    2    0    0  0.32504557573E+03 -0.45876860537E+03  0.23752053154E+03  0.62923041526E+03  0.15294330000E+03 0.  0.
<mgrwt>
<rscale>  0 0.58267908E+03</rscale>
<asrwt>0</asrwt>
<pdfrwt beam="1">  1        2 0.85814962E-01 0.58267908E+03</pdfrwt>
<pdfrwt beam="2">  1       -2 0.13508314E+00 0.58267908E+03</pdfrwt>
<totfact> 0.21963882E+01</totfact>
</mgrwt>
</event>
<event>
 4    1  0.4840632E-008  0.3565000E+03  0.7818608E-02  0.1059978E+00
          2   -1    0    0  501    0  0.00000000000E+00  0.00000000000E+00  0.14137426370E+04  0.14137426370E+04  0.25500000000E-02 0. -1.
         -2   -1    0    0    0  501 -0.00000000000E+00 -0.00000000000E+00 -0.19081468280E+03  0.19081468282E+03  0.25500000000E-02 0.  1.
    8880022    1    1    2    0    0 -0.23573834136E+03  0.21938104752E+03  0.28016996746E+02  0.35759923758E+03  0.15294330000E+03 0.  0.
    8880022    1    1    2    0    0  0.23573834136E+03 -0.21938104752E+03  0.11949109574E+04  0.12469580822E+04  0.15294330000E+03 0.  0.
<mgrwt>
<rscale>  0 0.35650002E+03</rscale>
<asrwt>0</asrwt>
<pdfrwt beam="1">  1        2 0.21749887E+00 0.35650002E+03</pdfrwt>
<pdfrwt beam="2">  1       -2 0.29356105E-01 0.35650002E+03</pdfrwt>
<totfact> 0.16076801E+02</totfact>
</mgrwt>
</event>
<event>
 4    1  0.4840632E-008  0.5616067E+03  0.7818608E-02  0.9988426E-01
          2   -1    0    0  501    0  0.00000000000E+00  0.00000000000E+00  0.87454413753E+03  0.87454413754E+03  0.25500000000E-02 0. -1.
         -2   -1    0    0    0  501 -0.00000000000E+00 -0.00000000000E+00 -0.43745392730E+03  0.43745392731E+03  0.25500000000E-02 0.  1.
    8880022    1    1    2    0    0 -0.53980966753E+03 -0.24817412138E+02  0.49342072242E+03  0.74757343682E+03  0.15294330000E+03 0.  0.
    8880022    1    1    2    0    0  0.53980966753E+03  0.24817412138E+02 -0.56330512186E+02  0.56442462803E+03  0.15294330000E+03 0.  0.
<mgrwt>
<rscale>  0 0.56160665E+03</rscale>
<asrwt>0</asrwt>
<pdfrwt beam="1">  1        2 0.13454525E+00 0.56160665E+03</pdfrwt>
<pdfrwt beam="2">  1       -2 0.67300605E-01 0.56160665E+03</pdfrwt>
<totfact> 0.63727897E+01</totfact>
</mgrwt>
</event>
<event>
 4    1  0.4840632E-008  0.6137883E+03  0.7818608E-02  0.9877206E-01
          2   -1    0    0  501    0  0.00000000000E+00  0.00000000000E+00  0.11219351454E+04  0.11219351454E+04  0.25500000000E-02 0. -1.
         -2   -1    0    0    0  501 -0.00000000000E+00 -0.00000000000E+00 -0.93497207315E+03  0.93497207315E+03  0.25500000000E-02 0.  1.
    8880022    1    1    2    0    0 -0.17265364651E+01  0.59442530568E+03  0.91679329107E+03  0.11032887276E+04  0.15294330000E+03 0.  0.
    8880022    1    1    2    0    0  0.17265364651E+01 -0.59442530568E+03 -0.72983021880E+03  0.95361849094E+03  0.15294330000E+03 0.  0.
<mgrwt>
<rscale>  0 0.61378830E+03</rscale>
<asrwt>0</asrwt>
<pdfrwt beam="1">  1        2 0.17260541E+00 0.61378830E+03</pdfrwt>
<pdfrwt beam="2">  1       -2 0.14384186E+00 0.61378830E+03</pdfrwt>
<totfact> 0.73505184E+00</totfact>
</mgrwt>
</event>
<event>
 4    1  0.4840632E-008  0.3039811E+03  0.7818608E-02  0.1083267E+00
         -2   -1    0    0    0  501 -0.00000000000E+00  0.00000000000E+00  0.17779111799E+03  0.17779111801E+03  0.25500000000E-02 0.  1.
          2   -1    0    0  501    0  0.00000000000E+00 -0.00000000000E+00 -0.87756811700E+03  0.87756811701E+03  0.25500000000E-02 0. -1.
    8880022    1    1    2    0    0 -0.21498331464E+03 -0.15098019299E+03 -0.12935458869E+02  0.30425618048E+03  0.15294330000E+03 0.  0.
    8880022    1    1    2    0    0  0.21498331464E+03  0.15098019299E+03 -0.68684154014E+03  0.75110305454E+03  0.15294330000E+03 0.  0.
<mgrwt>
<rscale>  0 0.30398108E+03</rscale>
<asrwt>0</asrwt>
<pdfrwt beam="1">  1        2 0.13501048E+00 0.30398108E+03</pdfrwt>
<pdfrwt beam="2">  1       -2 0.27352480E-01 0.30398108E+03</pdfrwt>
<totfact> 0.38166838E+02</totfact>
</mgrwt>
</event>
<event>
 4    1  0.4840632E-008  0.3710115E+03  0.7818608E-02  0.1054307E+00
         -2   -1    0    0    0  501 -0.00000000000E+00  0.00000000000E+00  0.14646703220E+03  0.14646703222E+03  0.25500000000E-02 0.  1.
          2   -1    0    0  501    0  0.00000000000E+00 -0.00000000000E+00 -0.18280847766E+04  0.18280847766E+04  0.25500000000E-02 0. -1.
    8880022    1    1    2    0    0  0.10391055348E+03  0.32165276973E+03 -0.15260558546E+03  0.40117081789E+03  0.15294330000E+03 0.  0.
    8880022    1    1    2    0    0 -0.10391055348E+03 -0.32165276973E+03 -0.15290121590E+04  0.15733809909E+04  0.15294330000E+03 0.  0.
<mgrwt>
<rscale>  0 0.37101154E+03</rscale>
<asrwt>0</asrwt>
<pdfrwt beam="1">  1        2 0.28124380E+00 0.37101154E+03</pdfrwt>
<pdfrwt beam="2">  1       -2 0.22533391E-01 0.37101154E+03</pdfrwt>
<totfact> 0.15416842E+02</totfact>
</mgrwt>
</event>
<event>
 4    1  0.4840632E-008  0.3424619E+03  0.7818608E-02  0.1065752E+00
         -2   -1    0    0    0  501 -0.00000000000E+00  0.00000000000E+00  0.19154832159E+03  0.19154832160E+03  0.25500000000E-02 0.  1.
          2   -1    0    0  501    0  0.00000000000E+00 -0.00000000000E+00 -0.90771826375E+03  0.90771826376E+03  0.25500000000E-02 0. -1.
    8880022    1    1    2    0    0  0.19179881570E+03 -0.23895962045E+03 -0.44514642355E+02  0.34534286197E+03  0.15294330000E+03 0.  0.
    8880022    1    1    2    0    0 -0.19179881570E+03  0.23895962045E+03 -0.67165529981E+03  0.75392372339E+03  0.15294330000E+03 0.  0.
<mgrwt>
<rscale>  0 0.34246188E+03</rscale>
<asrwt>0</asrwt>
<pdfrwt beam="1">  1        2 0.13964896E+00 0.34246188E+03</pdfrwt>
<pdfrwt beam="2">  1       -2 0.29468973E-01 0.34246188E+03</pdfrwt>
<totfact> 0.31748523E+02</totfact>
</mgrwt>
</event>
<event>
 4    1  0.4840632E-008  0.5177613E+03  0.7818608E-02  0.1009244E+00
         -2   -1    0    0    0  501 -0.00000000000E+00  0.00000000000E+00  0.34543399798E+03  0.34543399799E+03  0.25500000000E-02 0.  1.
          2   -1    0    0  501    0  0.00000000000E+00 -0.00000000000E+00 -0.19366081724E+04  0.19366081724E+04  0.25500000000E-02 0. -1.
    8880022    1    1    2    0    0  0.45599590570E+03 -0.19171039067E+03 -0.16788800357E+04  0.17569049397E+04  0.15294330000E+03 0.  0.
    8880022    1    1    2    0    0 -0.45599590570E+03  0.19171039067E+03  0.87705861303E+02  0.52513723066E+03  0.15294330000E+03 0.  0.
<mgrwt>
<rscale>  0 0.51776133E+03</rscale>
<asrwt>0</asrwt>
<pdfrwt beam="1">  1        2 0.29793971E+00 0.51776133E+03</pdfrwt>
<pdfrwt beam="2">  1       -2 0.53143693E-01 0.51776133E+03</pdfrwt>
<totfact> 0.25904587E+01</totfact>
</mgrwt>
</event>
<event>
 4    1  0.4840632E-008  0.1762522E+03  0.7818608E-02  0.1171480E+00
         -2   -1    0    0    0  501 -0.00000000000E+00  0.00000000000E+00  0.17928880284E+04  0.17928880284E+04  0.25500000000E-02 0.  1.
          2   -1    0    0  501    0  0.00000000000E+00 -0.00000000000E+00 -0.51251117704E+02  0.51251117768E+02  0.25500000000E-02 0. -1.
    8880022    1    1    2    0    0  0.38996691089E+02  0.78437591214E+02  0.12063383098E+03  0.21358223667E+03  0.15294330000E+03 0. -1.
    8880022    1    1    2    0    0 -0.38996691089E+02 -0.78437591214E+02  0.16210030797E+04  0.16305569095E+04  0.15294330000E+03 0.  0.
<mgrwt>
<rscale>  0 0.17625224E+03</rscale>
<asrwt>0</asrwt>
<pdfrwt beam="1">  1        2 0.78847877E-02 0.17625224E+03</pdfrwt>
<pdfrwt beam="2">  1       -2 0.27582891E+00 0.17625224E+03</pdfrwt>
<totfact> 0.44576712E+01</totfact>
</mgrwt>
</event>
<event>
 4    1  0.4840632E-008  0.2010382E+03  0.7818608E-02  0.1148866E+00
          2   -1    0    0  501    0  0.00000000000E+00  0.00000000000E+00  0.27622685691E+04  0.27622685691E+04  0.25500000000E-02 0. -1.
         -2   -1    0    0    0  501 -0.00000000000E+00 -0.00000000000E+00 -0.53413975568E+02  0.53413975629E+02  0.25500000000E-02 0.  1.
    8880022    1    1    2    0    0 -0.40292606127E+02 -0.12410168757E+03  0.15480781083E+03  0.25373575679E+03  0.15294330000E+03 0.  0.
    8880022    1    1    2    0    0  0.40292606127E+02  0.12410168757E+03  0.25540467827E+04  0.25619467880E+04  0.15294330000E+03 0. -1.
<mgrwt>
<rscale>  0 0.20103825E+03</rscale>
<asrwt>0</asrwt>
<pdfrwt beam="1">  1        2 0.42496430E+00 0.20103825E+03</pdfrwt>
<pdfrwt beam="2">  1       -2 0.82175365E-02 0.20103825E+03</pdfrwt>
<totfact> 0.26581365E+02</totfact>
</mgrwt>
</event>
<event>
 4    1  0.4840632E-008  0.1732327E+03  0.7818608E-02  0.1174518E+00
         -2   -1    0    0    0  501 -0.00000000000E+00  0.00000000000E+00  0.98141495656E+03  0.98141495656E+03  0.25500000000E-02 0.  1.
          2   -1    0    0  501    0  0.00000000000E+00 -0.00000000000E+00 -0.65279691587E+03  0.65279691588E+03  0.25500000000E-02 0. -1.
    8880022    1    1    2    0    0 -0.25302211712E+02  0.77315625010E+02  0.96204829764E+03  0.97752058178E+03  0.15294330000E+03 0.  0.
    8880022    1    1    2    0    0  0.25302211712E+02 -0.77315625010E+02 -0.63343025696E+03  0.65669129066E+03  0.15294330000E+03 0. -1.
<mgrwt>
<rscale>  0 0.17323268E+03</rscale>
<asrwt>0</asrwt>
<pdfrwt beam="1">  1        2 0.10043030E+00 0.17323268E+03</pdfrwt>
<pdfrwt beam="2">  1       -2 0.15098692E+00 0.17323268E+03</pdfrwt>
<totfact> 0.14941222E+01</totfact>
</mgrwt>
</event>
<event>
 4    1  0.4840632E-008  0.8545623E+03  0.7818608E-02  0.9484234E-01
          2   -1    0    0  501    0  0.00000000000E+00  0.00000000000E+00  0.20920285790E+04  0.20920285790E+04  0.25500000000E-02 0. -1.
         -2   -1    0    0    0  501 -0.00000000000E+00 -0.00000000000E+00 -0.51895482725E+03  0.51895482725E+03  0.25500000000E-02 0.  1.
    8880022    1    1    2    0    0  0.59265677899E+03  0.59635819647E+03  0.39608321697E+02  0.85547976501E+03  0.15294330000E+03 0.  0.
    8880022    1    1    2    0    0 -0.59265677899E+03 -0.59635819647E+03  0.15334654300E+04  0.17555036412E+04  0.15294330000E+03 0.  0.
<mgrwt>
<rscale>  0 0.85456235E+03</rscale>
<asrwt>0</asrwt>
<pdfrwt beam="1">  1        2 0.32185055E+00 0.85456235E+03</pdfrwt>
<pdfrwt beam="2">  1       -2 0.79839205E-01 0.85456235E+03</pdfrwt>
<totfact> 0.84246659E+00</totfact>
</mgrwt>
</event>
<event>
 4    1  0.4840632E-008  0.1664420E+03  0.7818608E-02  0.1181610E+00
         -2   -1    0    0    0  501 -0.00000000000E+00  0.00000000000E+00  0.37213037214E+02  0.37213037301E+02  0.25500000000E-02 0.  1.
          2   -1    0    0  501    0  0.00000000000E+00 -0.00000000000E+00 -0.11867305345E+04  0.11867305345E+04  0.25500000000E-02 0. -1.
    8880022    1    1    2    0    0 -0.11369109591E+02  0.64668662300E+02 -0.20115759120E+03  0.26108872448E+03  0.15294330000E+03 0.  1.
    8880022    1    1    2    0    0  0.11369109591E+02 -0.64668662300E+02 -0.94835990609E+03  0.96285484733E+03  0.15294330000E+03 0.  0.
<mgrwt>
<rscale>  0 0.16644202E+03</rscale>
<asrwt>0</asrwt>
<pdfrwt beam="1">  1        2 0.18257390E+00 0.16644202E+03</pdfrwt>
<pdfrwt beam="2">  1       -2 0.57250836E-02 0.16644202E+03</pdfrwt>
<totfact> 0.32090040E+03</totfact>
</mgrwt>
</event>
<event>
 4    1  0.4840632E-008  0.3196142E+03  0.7818608E-02  0.1075827E+00
         -2   -1    0    0    0  501 -0.00000000000E+00  0.00000000000E+00  0.38363926464E+03  0.38363926465E+03  0.25500000000E-02 0.  1.
          2   -1    0    0  501    0  0.00000000000E+00 -0.00000000000E+00 -0.13221681916E+04  0.13221681916E+04  0.25500000000E-02 0. -1.
    8880022    1    1    2    0    0  0.27271476291E+03 -0.66243873187E+02 -0.12314607275E+04  0.12722612818E+04  0.15294330000E+03 0.  0.
    8880022    1    1    2    0    0 -0.27271476291E+03  0.66243873187E+02  0.29293180054E+03  0.43354617450E+03  0.15294330000E+03 0.  0.
<mgrwt>
<rscale>  0 0.31961421E+03</rscale>
<asrwt>0</asrwt>
<pdfrwt beam="1">  1        2 0.20341049E+00 0.31961421E+03</pdfrwt>
<pdfrwt beam="2">  1       -2 0.59021426E-01 0.31961421E+03</pdfrwt>
<totfact> 0.46821094E+01</totfact>
</mgrwt>
</event>
<event>
 4    1  0.4840632E-008  0.5499410E+03  0.7818608E-02  0.1001508E+00
         -2   -1    0    0    0  501 -0.00000000000E+00  0.00000000000E+00  0.22409711758E+04  0.22409711758E+04  0.25500000000E-02 0.  1.
          2   -1    0    0  501    0  0.00000000000E+00 -0.00000000000E+00 -0.25162188935E+03  0.25162188936E+03  0.25500000000E-02 0. -1.
    8880022    1    1    2    0    0 -0.26622443414E+03 -0.45625431432E+03  0.18433018858E+04  0.19235895986E+04  0.15294330000E+03 0.  1.
    8880022    1    1    2    0    0  0.26622443414E+03  0.45625431432E+03  0.14604740061E+03  0.56900346651E+03  0.15294330000E+03 0.  0.
<mgrwt>
<rscale>  0 0.54994100E+03</rscale>
<asrwt>0</asrwt>
<pdfrwt beam="1">  1        2 0.38711061E-01 0.54994100E+03</pdfrwt>
<pdfrwt beam="2">  1       -2 0.34476479E+00 0.54994100E+03</pdfrwt>
<totfact> 0.24392407E+00</totfact>
</mgrwt>
</event>
<event>
 4    1  0.4840632E-008  0.9290006E+03  0.7818608E-02  0.9390038E-01
          2   -1    0    0  501    0  0.00000000000E+00  0.00000000000E+00  0.19676760909E+04  0.19676760909E+04  0.25500000000E-02 0. -1.
         -2   -1    0    0    0  501 -0.00000000000E+00 -0.00000000000E+00 -0.54020857952E+03  0.54020857953E+03  0.25500000000E-02 0.  1.
    8880022    1    1    2    0    0 -0.81575780598E+03  0.41736033015E+03  0.16993152396E+03  0.94441453772E+03  0.15294330000E+03 0.  0.
    8880022    1    1    2    0    0  0.81575780598E+03 -0.41736033015E+03  0.12575359874E+04  0.15634701327E+04  0.15294330000E+03 0.  0.
<mgrwt>
<rscale>  0 0.92900059E+03</rscale>
<asrwt>0</asrwt>
<pdfrwt beam="1">  1        2 0.30271940E+00 0.92900059E+03</pdfrwt>
<pdfrwt beam="2">  1       -2 0.83109013E-01 0.92900059E+03</pdfrwt>
<totfact> 0.89179422E+00</totfact>
</mgrwt>
</event>
<event>
 4    1  0.4840632E-008  0.2096371E+03  0.7818608E-02  0.1141854E+00
          2   -1    0    0  501    0  0.00000000000E+00  0.00000000000E+00  0.10312777595E+04  0.10312777595E+04  0.25500000000E-02 0. -1.
         -2   -1    0    0    0  501 -0.00000000000E+00 -0.00000000000E+00 -0.26372404969E+03  0.26372404971E+03  0.25500000000E-02 0.  1.
    8880022    1    1    2    0    0 -0.98260313377E+02 -0.10440769619E+03 -0.20910608502E+03  0.29609637623E+03  0.15294330000E+03 0.  0.
    8880022    1    1    2    0    0  0.98260313377E+02  0.10440769619E+03  0.97665979486E+03  0.99890543302E+03  0.15294330000E+03 0. -1.
<mgrwt>
<rscale>  0 0.20963709E+03</rscale>
<asrwt>0</asrwt>
<pdfrwt beam="1">  1        2 0.15865812E+00 0.20963709E+03</pdfrwt>
<pdfrwt beam="2">  1       -2 0.40572931E-01 0.20963709E+03</pdfrwt>
<totfact> 0.14908774E+02</totfact>
</mgrwt>
</event>
<event>
 4    1  0.4840632E-008  0.7717548E+03  0.7818608E-02  0.9601825E-01
         -2   -1    0    0    0  501 -0.00000000000E+00  0.00000000000E+00  0.10175476246E+04  0.10175476246E+04  0.25500000000E-02 0.  1.
          2   -1    0    0  501    0  0.00000000000E+00 -0.00000000000E+00 -0.63978707956E+03  0.63978707957E+03  0.25500000000E-02 0. -1.
    8880022    1    1    2    0    0  0.66222947147E+03 -0.36560351182E+03  0.43063379368E+03  0.88377085153E+03  0.15294330000E+03 0.  1.
    8880022    1    1    2    0    0 -0.66222947147E+03  0.36560351182E+03 -0.52873248609E+02  0.77356385268E+03  0.15294330000E+03 0. -1.
<mgrwt>
<rscale>  0 0.77175479E+03</rscale>
<asrwt>0</asrwt>
<pdfrwt beam="1">  1        2 0.98428781E-01 0.77175479E+03</pdfrwt>
<pdfrwt beam="2">  1       -2 0.15654579E+00 0.77175479E+03</pdfrwt>
<totfact> 0.12414221E+01</totfact>
</mgrwt>
</event>
<event>
 4    1  0.4840632E-008  0.5426269E+03  0.7818608E-02  0.1003215E+00
          2   -1    0    0  501    0  0.00000000000E+00  0.00000000000E+00  0.14687977521E+04  0.14687977521E+04  0.25500000000E-02 0. -1.
         -2   -1    0    0    0  501 -0.00000000000E+00 -0.00000000000E+00 -0.23895909946E+03  0.23895909948E+03  0.25500000000E-02 0.  1.
    8880022    1    1    2    0    0  0.26371482858E+03 -0.44889506505E+03  0.95762867550E+03  0.11006800731E+04  0.15294330000E+03 0.  0.
    8880022    1    1    2    0    0 -0.26371482858E+03  0.44889506505E+03  0.27220997711E+03  0.60707677841E+03  0.15294330000E+03 0.  0.
<mgrwt>
<rscale>  0 0.54262689E+03</rscale>
<asrwt>0</asrwt>
<pdfrwt beam="1">  1        2 0.22596889E+00 0.54262689E+03</pdfrwt>
<pdfrwt beam="2">  1       -2 0.36762938E-01 0.54262689E+03</pdfrwt>
<totfact> 0.95914774E+01</totfact>
</mgrwt>
</event>
<event>
 4    1  0.4840632E-008  0.1108714E+04  0.7818608E-02  0.9196740E-01
          2   -1    0    0  501    0  0.00000000000E+00  0.00000000000E+00  0.30790851705E+04  0.30790851705E+04  0.25500000000E-02 0. -1.
         -2   -1    0    0    0  501 -0.00000000000E+00 -0.00000000000E+00 -0.69477512159E+03  0.69477512159E+03  0.25500000000E-02 0.  1.
    8880022    1    1    2    0    0 -0.10979078029E+04  0.21291406932E+02 -0.38537505422E+02  0.11093834594E+04  0.15294330000E+03 0.  0.
    8880022    1    1    2    0    0  0.10979078029E+04 -0.21291406932E+02  0.24228475543E+04  0.26644768327E+04  0.15294330000E+03 0.  0.
<mgrwt>
<rscale>  0 0.11087139E+04</rscale>
<asrwt>0</asrwt>
<pdfrwt beam="1">  1        2 0.47370542E+00 0.11087139E+04</pdfrwt>
<pdfrwt beam="2">  1       -2 0.10688848E+00 0.11087139E+04</pdfrwt>
<totfact> 0.10970551E+00</totfact>
</mgrwt>
</event>
<event>
 4    1  0.4840632E-008  0.7536309E+03  0.7818608E-02  0.9629671E-01
          2   -1    0    0  501    0  0.00000000000E+00  0.00000000000E+00  0.21322065207E+04  0.21322065207E+04  0.25500000000E-02 0. -1.
         -2   -1    0    0    0  501 -0.00000000000E+00 -0.00000000000E+00 -0.45450038937E+03  0.45450038938E+03  0.25500000000E-02 0.  1.
    8880022    1    1    2    0    0 -0.15784520089E+03 -0.72086946972E+03  0.16709569915E+04  0.18330457769E+04  0.15294330000E+03 0.  0.
    8880022    1    1    2    0    0  0.15784520089E+03  0.72086946972E+03  0.67491398828E+01  0.75366113321E+03  0.15294330000E+03 0.  0.
<mgrwt>
<rscale>  0 0.75363091E+03</rscale>
<asrwt>0</asrwt>
<pdfrwt beam="1">  1        2 0.32803177E+00 0.75363091E+03</pdfrwt>
<pdfrwt beam="2">  1       -2 0.69923138E-01 0.75363091E+03</pdfrwt>
<totfact> 0.10902568E+01</totfact>
</mgrwt>
</event>
<event>
 4    1  0.4840632E-008  0.6703724E+03  0.7818608E-02  0.9769285E-01
          2   -1    0    0  501    0  0.00000000000E+00  0.00000000000E+00  0.10967121388E+04  0.10967121388E+04  0.25500000000E-02 0. -1.
         -2   -1    0    0    0  501 -0.00000000000E+00 -0.00000000000E+00 -0.13142214965E+04  0.13142214965E+04  0.25500000000E-02 0.  1.
    8880022    1    1    2    0    0 -0.13120344840E+03  0.63936936801E+03 -0.11087863109E+04  0.12956875665E+04  0.15294330000E+03 0.  0.
    8880022    1    1    2    0    0  0.13120344840E+03 -0.63936936801E+03  0.89127695326E+03  0.11152460688E+04  0.15294330000E+03 0. -1.
<mgrwt>
<rscale>  0 0.67037242E+03</rscale>
<asrwt>0</asrwt>
<pdfrwt beam="1">  1        2 0.16872494E+00 0.67037242E+03</pdfrwt>
<pdfrwt beam="2">  1       -2 0.20218792E+00 0.67037242E+03</pdfrwt>
<totfact> 0.29275507E+00</totfact>
</mgrwt>
</event>
<event>
 4    1  0.4840632E-008  0.4753404E+03  0.7818608E-02  0.1020424E+00
          2   -1    0    0  501    0  0.00000000000E+00  0.00000000000E+00  0.15144044409E+04  0.15144044409E+04  0.25500000000E-02 0. -1.
         -2   -1    0    0    0  501 -0.00000000000E+00 -0.00000000000E+00 -0.30444516783E+03  0.30444516784E+03  0.25500000000E-02 0.  1.
    8880022    1    1    2    0    0 -0.33810610550E+02  0.44879132735E+03 -0.44434776769E+02  0.47741273055E+03  0.15294330000E+03 0.  0.
    8880022    1    1    2    0    0  0.33810610550E+02 -0.44879132735E+03  0.12543940498E+04  0.13414368782E+04  0.15294330000E+03 0.  0.
<mgrwt>
<rscale>  0 0.47534037E+03</rscale>
<asrwt>0</asrwt>
<pdfrwt beam="1">  1        2 0.23298530E+00 0.47534037E+03</pdfrwt>
<pdfrwt beam="2">  1       -2 0.46837718E-01 0.47534037E+03</pdfrwt>
<totfact> 0.56972512E+01</totfact>
</mgrwt>
</event>
<event>
 4    1  0.4840632E-008  0.3158150E+03  0.7818608E-02  0.1077592E+00
         -2   -1    0    0    0  501 -0.00000000000E+00  0.00000000000E+00  0.10482788313E+03  0.10482788316E+03  0.25500000000E-02 0.  1.
          2   -1    0    0  501    0  0.00000000000E+00 -0.00000000000E+00 -0.26715393247E+04  0.26715393247E+04  0.25500000000E-02 0. -1.
    8880022    1    1    2    0    0  0.89867463016E+01  0.27616426506E+03 -0.16946939969E+03  0.35841176509E+03  0.15294330000E+03 0.  0.
    8880022    1    1    2    0    0 -0.89867463016E+01 -0.27616426506E+03 -0.23972420418E+04  0.24179554427E+04  0.15294330000E+03 0. -1.
<mgrwt>
<rscale>  0 0.31581500E+03</rscale>
<asrwt>0</asrwt>
<pdfrwt beam="1">  1        2 0.41100600E+00 0.31581500E+03</pdfrwt>
<pdfrwt beam="2">  1       -2 0.16127369E-01 0.31581500E+03</pdfrwt>
<totfact> 0.96807731E+01</totfact>
</mgrwt>
</event>
<event>
 4    1  0.4840632E-008  0.4241548E+03  0.7818608E-02  0.1035722E+00
         -2   -1    0    0    0  501 -0.00000000000E+00  0.00000000000E+00  0.52030081482E+03  0.52030081483E+03  0.25500000000E-02 0.  1.
          2   -1    0    0  501    0  0.00000000000E+00 -0.00000000000E+00 -0.52215750543E+03  0.52215750543E+03  0.25500000000E-02 0. -1.
    8880022    1    1    2    0    0 -0.24464538412E+03  0.31090880756E+03 -0.30386722208E+03  0.52176871529E+03  0.15294330000E+03 0.  0.
    8880022    1    1    2    0    0  0.24464538412E+03 -0.31090880756E+03  0.30201053147E+03  0.52068960497E+03  0.15294330000E+03 0.  0.
<mgrwt>
<rscale>  0 0.42415481E+03</rscale>
<asrwt>0</asrwt>
<pdfrwt beam="1">  1        2 0.80331924E-01 0.42415481E+03</pdfrwt>
<pdfrwt beam="2">  1       -2 0.80046279E-01 0.42415481E+03</pdfrwt>
<totfact> 0.83740472E+01</totfact>
</mgrwt>
</event>
<event>
 4    1  0.4840632E-008  0.7871041E+03  0.7818608E-02  0.9578873E-01
          2   -1    0    0  501    0  0.00000000000E+00  0.00000000000E+00  0.12605879496E+04  0.12605879496E+04  0.25500000000E-02 0. -1.
         -2   -1    0    0    0  501 -0.00000000000E+00 -0.00000000000E+00 -0.53678664124E+03  0.53678664124E+03  0.25500000000E-02 0.  1.
    8880022    1    1    2    0    0  0.76908977295E+03  0.68132834636E+02  0.10076370466E+03  0.79352765498E+03  0.15294330000E+03 0.  0.
    8880022    1    1    2    0    0 -0.76908977295E+03 -0.68132834636E+02  0.62303760371E+03  0.10038469359E+04  0.15294330000E+03 0.  0.
<mgrwt>
<rscale>  0 0.78710407E+03</rscale>
<asrwt>0</asrwt>
<pdfrwt beam="1">  1        2 0.19393661E+00 0.78710407E+03</pdfrwt>
<pdfrwt beam="2">  1       -2 0.82582561E-01 0.78710407E+03</pdfrwt>
<totfact> 0.22785017E+01</totfact>
</mgrwt>
</event>
<event>
 4    1  0.4840632E-008  0.3306818E+03  0.7818608E-02  0.1070836E+00
          2   -1    0    0  501    0  0.00000000000E+00  0.00000000000E+00  0.34959648947E+03  0.34959648948E+03  0.25500000000E-02 0. -1.
         -2   -1    0    0    0  501 -0.00000000000E+00 -0.00000000000E+00 -0.82197412644E+03  0.82197412644E+03  0.25500000000E-02 0.  1.
    8880022    1    1    2    0    0 -0.23294018244E+03  0.17803847282E+03  0.22485966032E+03  0.39989041781E+03  0.15294330000E+03 0.  0.
    8880022    1    1    2    0    0  0.23294018244E+03 -0.17803847282E+03 -0.69723729729E+03  0.77168019811E+03  0.15294330000E+03 0.  0.
<mgrwt>
<rscale>  0 0.33068184E+03</rscale>
<asrwt>0</asrwt>
<pdfrwt beam="1">  1        2 0.53784075E-01 0.33068184E+03</pdfrwt>
<pdfrwt beam="2">  1       -2 0.12645756E+00 0.33068184E+03</pdfrwt>
<totfact> 0.45256249E+01</totfact>
</mgrwt>
</event>
<event>
 4    1  0.4840632E-008  0.6080719E+03  0.7818608E-02  0.9888800E-01
          2   -1    0    0  501    0  0.00000000000E+00  0.00000000000E+00  0.21496853744E+04  0.21496853744E+04  0.25500000000E-02 0. -1.
         -2   -1    0    0    0  501 -0.00000000000E+00 -0.00000000000E+00 -0.25072183415E+03  0.25072183417E+03  0.25500000000E-02 0.  1.
    8880022    1    1    2    0    0  0.35630670158E+03  0.46840722276E+03  0.16219926511E+04  0.17322273537E+04  0.15294330000E+03 0.  0.
    8880022    1    1    2    0    0 -0.35630670158E+03 -0.46840722276E+03  0.27697088918E+03  0.66817985482E+03  0.15294330000E+03 0.  0.
<mgrwt>
<rscale>  0 0.60807191E+03</rscale>
<asrwt>0</asrwt>
<pdfrwt beam="1">  1        2 0.33072081E+00 0.60807191E+03</pdfrwt>
<pdfrwt beam="2">  1       -2 0.38572592E-01 0.60807191E+03</pdfrwt>
<totfact> 0.36959384E+01</totfact>
</mgrwt>
</event>
<event>
 4    1  0.4840632E-008  0.7309200E+03  0.7818608E-02  0.9665769E-01
         -2   -1    0    0    0  501 -0.00000000000E+00  0.00000000000E+00  0.38244468884E+03  0.38244468885E+03  0.25500000000E-02 0.  1.
          2   -1    0    0  501    0  0.00000000000E+00 -0.00000000000E+00 -0.16918252624E+04  0.16918252624E+04  0.25500000000E-02 0. -1.
    8880022    1    1    2    0    0  0.32034143015E+03 -0.63893177401E+03 -0.10877021796E+04  0.13104732459E+04  0.15294330000E+03 0.  0.
    8880022    1    1    2    0    0 -0.32034143015E+03  0.63893177401E+03 -0.22167839392E+03  0.76379670532E+03  0.15294330000E+03 0.  0.
<mgrwt>
<rscale>  0 0.73092003E+03</rscale>
<asrwt>0</asrwt>
<pdfrwt beam="1">  1        2 0.26028080E+00 0.73092003E+03</pdfrwt>
<pdfrwt beam="2">  1       -2 0.58837646E-01 0.73092003E+03</pdfrwt>
<totfact> 0.27533623E+01</totfact>
</mgrwt>
</event>
<event>
 4    1  0.4840632E-008  0.7606905E+03  0.7818608E-02  0.9618726E-01
         -2   -1    0    0    0  501 -0.00000000000E+00  0.00000000000E+00  0.75404559959E+03  0.75404559959E+03  0.25500000000E-02 0.  1.
          2   -1    0    0  501    0  0.00000000000E+00 -0.00000000000E+00 -0.44521020506E+04  0.44521020506E+04  0.25500000000E-02 0. -1.
    8880022    1    1    2    0    0  0.36982454457E+03 -0.64690660058E+03 -0.42171578850E+04  0.42852153533E+04  0.15294330000E+03 0. -1.
    8880022    1    1    2    0    0 -0.36982454457E+03  0.64690660058E+03  0.51910143404E+03  0.92093229690E+03  0.15294330000E+03 0.  0.
<mgrwt>
<rscale>  0 0.76069047E+03</rscale>
<asrwt>0</asrwt>
<pdfrwt beam="1">  1        2 0.68493876E+00 0.76069047E+03</pdfrwt>
<pdfrwt beam="2">  1       -2 0.11600702E+00 0.76069047E+03</pdfrwt>
<totfact> 0.90014750E-02</totfact>
</mgrwt>
</event>
<event>
 4    1  0.4840632E-008  0.2806528E+03  0.7818608E-02  0.1095333E+00
         -2   -1    0    0    0  501 -0.00000000000E+00  0.00000000000E+00  0.20459543740E+03  0.20459543742E+03  0.25500000000E-02 0.  1.
          2   -1    0    0  501    0  0.00000000000E+00 -0.00000000000E+00 -0.22235624428E+04  0.22235624428E+04  0.25500000000E-02 0. -1.
    8880022    1    1    2    0    0  0.39604211206E+02  0.23196082591E+03 -0.21134689328E+04  0.21320217872E+04  0.15294330000E+03 0.  0.
    8880022    1    1    2    0    0 -0.39604211206E+02 -0.23196082591E+03  0.94501927362E+02  0.29613609302E+03  0.15294330000E+03 0.  0.
<mgrwt>
<rscale>  0 0.28065276E+03</rscale>
<asrwt>0</asrwt>
<pdfrwt beam="1">  1        2 0.34208651E+00 0.28065276E+03</pdfrwt>
<pdfrwt beam="2">  1       -2 0.31476223E-01 0.28065276E+03</pdfrwt>
<totfact> 0.53366322E+01</totfact>
</mgrwt>
</event>
<event>
 4    1  0.4840632E-008  0.6761029E+03  0.7818608E-02  0.9758995E-01
          2   -1    0    0  501    0  0.00000000000E+00  0.00000000000E+00  0.17693742832E+04  0.17693742832E+04  0.25500000000E-02 0. -1.
         -2   -1    0    0    0  501 -0.00000000000E+00 -0.00000000000E+00 -0.43257709227E+03  0.43257709228E+03  0.25500000000E-02 0.  1.
    8880022    1    1    2    0    0  0.61263576094E+03 -0.24166286987E+03 -0.30325465495E+02  0.67678268678E+03  0.15294330000E+03 0.  0.
    8880022    1    1    2    0    0 -0.61263576094E+03  0.24166286987E+03  0.13671226564E+04  0.15251686887E+04  0.15294330000E+03 0.  0.
<mgrwt>
<rscale>  0 0.67610293E+03</rscale>
<asrwt>0</asrwt>
<pdfrwt beam="1">  1        2 0.27221143E+00 0.67610293E+03</pdfrwt>
<pdfrwt beam="2">  1       -2 0.66550322E-01 0.67610293E+03</pdfrwt>
<totfact> 0.19361281E+01</totfact>
</mgrwt>
</event>
<event>
 4    1  0.4840632E-008  0.4277965E+03  0.7818608E-02  0.1034558E+00
          2   -1    0    0  501    0  0.00000000000E+00  0.00000000000E+00  0.57045391781E+03  0.57045391782E+03  0.25500000000E-02 0. -1.
         -2   -1    0    0    0  501 -0.00000000000E+00 -0.00000000000E+00 -0.94527199155E+03  0.94527199155E+03  0.25500000000E-02 0.  1.
    8880022    1    1    2    0    0 -0.19803298356E+03  0.34698862733E+03  0.42856692397E+03  0.60554061086E+03  0.15294330000E+03 0.  0.
    8880022    1    1    2    0    0  0.19803298356E+03 -0.34698862733E+03 -0.80338499770E+03  0.91018529851E+03  0.15294330000E+03 0.  0.
<mgrwt>
<rscale>  0 0.42779647E+03</rscale>
<asrwt>0</asrwt>
<pdfrwt beam="1">  1        2 0.87762141E-01 0.42779647E+03</pdfrwt>
<pdfrwt beam="2">  1       -2 0.14542646E+00 0.42779647E+03</pdfrwt>
<totfact> 0.18065130E+01</totfact>
</mgrwt>
</event>
<event>
 4    1  0.4840632E-008  0.1307933E+04  0.7818608E-02  0.9023298E-01
          2   -1    0    0  501    0  0.00000000000E+00  0.00000000000E+00  0.15522814440E+04  0.15522814440E+04  0.25500000000E-02 0. -1.
         -2   -1    0    0    0  501 -0.00000000000E+00 -0.00000000000E+00 -0.16763559019E+04  0.16763559019E+04  0.25500000000E-02 0.  1.
    8880022    1    1    2    0    0 -0.83168774705E+02 -0.12962950480E+04 -0.10069208825E+04  0.16506299444E+04  0.15294330000E+03 0.  0.
    8880022    1    1    2    0    0  0.83168774705E+02  0.12962950480E+04  0.88284642468E+03  0.15780074015E+04  0.15294330000E+03 0.  0.
<mgrwt>
<rscale>  0 0.13079333E+04</rscale>
<asrwt>0</asrwt>
<pdfrwt beam="1">  1        2 0.23881253E+00 0.13079333E+04</pdfrwt>
<pdfrwt beam="2">  1       -2 0.25790091E+00 0.13079333E+04</pdfrwt>
<totfact> 0.65406359E-01</totfact>
</mgrwt>
</event>
<event>
 4    1  0.4840632E-008  0.9944157E+03  0.7818608E-02  0.9314691E-01
          2   -1    0    0  501    0  0.00000000000E+00  0.00000000000E+00  0.17985340518E+04  0.17985340518E+04  0.25500000000E-02 0. -1.
         -2   -1    0    0    0  501 -0.00000000000E+00 -0.00000000000E+00 -0.99996243128E+03  0.99996243128E+03  0.25500000000E-02 0.  1.
    8880022    1    1    2    0    0  0.43508067850E+03  0.88100831944E+03  0.13381005753E+04  0.16671459619E+04  0.15294330000E+03 0. -1.
    8880022    1    1    2    0    0 -0.43508067850E+03 -0.88100831944E+03 -0.53952895476E+03  0.11313505212E+04  0.15294330000E+03 0.  0.
<mgrwt>
<rscale>  0 0.99441566E+03</rscale>
<asrwt>0</asrwt>
<pdfrwt beam="1">  1        2 0.27669754E+00 0.99441566E+03</pdfrwt>
<pdfrwt beam="2">  1       -2 0.15384038E+00 0.99441566E+03</pdfrwt>
<totfact> 0.24117130E+00</totfact>
</mgrwt>
</event>
<event>
 4    1  0.7736688E-008  0.9608319E+03  0.7818608E-02  0.9352579E-01
          2   -1    0    0  501    0  0.00000000000E+00  0.00000000000E+00  0.16638561094E+04  0.16638561094E+04  0.25500000000E-02 0. -1.
         -2   -1    0    0    0  501 -0.00000000000E+00 -0.00000000000E+00 -0.16126331975E+04  0.16126331975E+04  0.25500000000E-02 0.  1.
    8880022    1    1    2    0    0  0.37801803180E+03  0.87000493320E+03  0.13524204043E+04  0.16589872872E+04  0.15294330000E+03 0.  0.
    8880022    1    1    2    0    0 -0.37801803180E+03 -0.87000493320E+03 -0.13011974925E+04  0.16175020197E+04  0.15294330000E+03 0.  0.
<mgrwt>
<rscale>  0 0.96083186E+03</rscale>
<asrwt>0</asrwt>
<pdfrwt beam="1">  1        2 0.25597786E+00 0.96083186E+03</pdfrwt>
<pdfrwt beam="2">  1       -2 0.24809741E+00 0.96083186E+03</pdfrwt>
<totfact> 0.68194321E-01</totfact>
</mgrwt>
</event>
<event>
 4    1  0.4840632E-008  0.1184783E+04  0.7818608E-02  0.9126281E-01
          2   -1    0    0  501    0  0.00000000000E+00  0.00000000000E+00  0.16123172088E+04  0.16123172088E+04  0.25500000000E-02 0. -1.
         -2   -1    0    0    0  501 -0.00000000000E+00 -0.00000000000E+00 -0.20097807685E+04  0.20097807685E+04  0.25500000000E-02 0.  1.
    8880022    1    1    2    0    0 -0.42090293127E+03 -0.10968867332E+04 -0.15622120507E+04  0.19606677249E+04  0.15294330000E+03 0.  0.
    8880022    1    1    2    0    0  0.42090293127E+03  0.10968867332E+04  0.11647484910E+04  0.16614302523E+04  0.15294330000E+03 0.  0.
<mgrwt>
<rscale>  0 0.11847833E+04</rscale>
<asrwt>0</asrwt>
<pdfrwt beam="1">  1        2 0.24804880E+00 0.11847833E+04</pdfrwt>
<pdfrwt beam="2">  1       -2 0.30919704E+00 0.11847833E+04</pdfrwt>
<totfact> 0.29980409E-01</totfact>
</mgrwt>
</event>
<event>
 4    1  0.4840632E-008  0.2873314E+03  0.7818608E-02  0.1091751E+00
          2   -1    0    0  501    0  0.00000000000E+00  0.00000000000E+00  0.24191968708E+04  0.24191968708E+04  0.25500000000E-02 0. -1.
         -2   -1    0    0    0  501 -0.00000000000E+00 -0.00000000000E+00 -0.80160476439E+02  0.80160476479E+02  0.25500000000E-02 0.  1.
    8880022    1    1    2    0    0 -0.23500267377E+03 -0.62780911388E+02  0.22250456711E+03  0.36341111006E+03  0.15294330000E+03 0.  0.
    8880022    1    1    2    0    0  0.23500267377E+03  0.62780911388E+02  0.21165318272E+04  0.21359462372E+04  0.15294330000E+03 0.  0.
<mgrwt>
<rscale>  0 0.28733143E+03</rscale>
<asrwt>0</asrwt>
<pdfrwt beam="1">  1        2 0.37218418E+00 0.28733143E+03</pdfrwt>
<pdfrwt beam="2">  1       -2 0.12332379E-01 0.28733143E+03</pdfrwt>
<totfact> 0.20969003E+02</totfact>
</mgrwt>
</event>
<event>
 4    1  0.4840632E-008  0.3262612E+03  0.7818608E-02  0.1072803E+00
         -2   -1    0    0    0  501 -0.00000000000E+00  0.00000000000E+00  0.62204910692E+02  0.62204910744E+02  0.25500000000E-02 0.  1.
          2   -1    0    0  501    0  0.00000000000E+00 -0.00000000000E+00 -0.32516916654E+04  0.32516916654E+04  0.25500000000E-02 0. -1.
    8880022    1    1    2    0    0  0.62471089070E+01  0.28812446047E+03 -0.27352056255E+04  0.27545954690E+04  0.15294330000E+03 0.  0.
    8880022    1    1    2    0    0 -0.62471089070E+01 -0.28812446047E+03 -0.45428112928E+03  0.55930110721E+03  0.15294330000E+03 0.  1.
<mgrwt>
<rscale>  0 0.32626122E+03</rscale>
<asrwt>0</asrwt>
<pdfrwt beam="1">  1        2 0.50026012E+00 0.32626122E+03</pdfrwt>
<pdfrwt beam="2">  1       -2 0.95699888E-02 0.32626122E+03</pdfrwt>
<totfact> 0.10252103E+02</totfact>
</mgrwt>
</event>
<event>
 4    1  0.4840632E-008  0.3787915E+03  0.7818608E-02  0.1051381E+00
          2   -1    0    0  501    0  0.00000000000E+00  0.00000000000E+00  0.39764042142E+04  0.39764042142E+04  0.25500000000E-02 0. -1.
         -2   -1    0    0    0  501 -0.00000000000E+00 -0.00000000000E+00 -0.10171725686E+03  0.10171725689E+03  0.25500000000E-02 0.  1.
    8880022    1    1    2    0    0 -0.20093836081E+03 -0.28233864831E+03  0.29941047434E+03  0.48283498457E+03  0.15294330000E+03 0.  0.
    8880022    1    1    2    0    0  0.20093836081E+03  0.28233864831E+03  0.35752764830E+04  0.35952864865E+04  0.15294330000E+03 0.  0.
<mgrwt>
<rscale>  0 0.37879149E+03</rscale>
<asrwt>0</asrwt>
<pdfrwt beam="1">  1        2 0.61175443E+00 0.37879149E+03</pdfrwt>
<pdfrwt beam="2">  1       -2 0.15648810E-01 0.37879149E+03</pdfrwt>
<totfact> 0.14203662E+01</totfact>
</mgrwt>
</event>
<event>
 4    1  0.4840632E-008  0.5584313E+03  0.7818608E-02  0.9995610E-01
         -2   -1    0    0    0  501 -0.00000000000E+00  0.00000000000E+00  0.37402464973E+03  0.37402464974E+03  0.25500000000E-02 0.  1.
          2   -1    0    0  501    0  0.00000000000E+00 -0.00000000000E+00 -0.15273675074E+04  0.15273675074E+04  0.25500000000E-02 0. -1.
    8880022    1    1    2    0    0  0.44843108826E+03 -0.29557305214E+03  0.63988975559E+02  0.56208550246E+03  0.15294330000E+03 0.  0.
    8880022    1    1    2    0    0 -0.44843108826E+03  0.29557305214E+03 -0.12173318333E+04  0.13393066547E+04  0.15294330000E+03 0.  0.
<mgrwt>
<rscale>  0 0.55843131E+03</rscale>
<asrwt>0</asrwt>
<pdfrwt beam="1">  1        2 0.23497961E+00 0.55843131E+03</pdfrwt>
<pdfrwt beam="2">  1       -2 0.57542255E-01 0.55843131E+03</pdfrwt>
<totfact> 0.36353883E+01</totfact>
</mgrwt>
</event>
<event>
 4    1  0.4840632E-008  0.5846547E+03  0.7818608E-02  0.9937764E-01
         -2   -1    0    0    0  501 -0.00000000000E+00  0.00000000000E+00  0.31949343388E+03  0.31949343389E+03  0.25500000000E-02 0.  1.
          2   -1    0    0  501    0  0.00000000000E+00 -0.00000000000E+00 -0.18876462926E+04  0.18876462926E+04  0.25500000000E-02 0. -1.
    8880022    1    1    2    0    0 -0.39095832881E+03 -0.40691647136E+03 -0.57714753363E+02  0.58749644705E+03  0.15294330000E+03 0.  0.
    8880022    1    1    2    0    0  0.39095832881E+03  0.40691647136E+03 -0.15104381054E+04  0.16196432795E+04  0.15294330000E+03 0.  0.
<mgrwt>
<rscale>  0 0.58465467E+03</rscale>
<asrwt>0</asrwt>
<pdfrwt beam="1">  1        2 0.29040712E+00 0.58465467E+03</pdfrwt>
<pdfrwt beam="2">  1       -2 0.49152837E-01 0.58465467E+03</pdfrwt>
<totfact> 0.31885847E+01</totfact>
</mgrwt>
</event>
<event>
 4    1  0.4840632E-008  0.2257460E+03  0.7818608E-02  0.1129670E+00
          2   -1    0    0  501    0  0.00000000000E+00  0.00000000000E+00  0.14608862308E+04  0.14608862308E+04  0.25500000000E-02 0. -1.
         -2   -1    0    0    0  501 -0.00000000000E+00 -0.00000000000E+00 -0.90278061234E+02  0.90278061270E+02  0.25500000000E-02 0.  1.
    8880022    1    1    2    0    0 -0.79322055391E+02  0.14586844560E+03  0.77772127777E+02  0.23876714340E+03  0.15294330000E+03 0.  0.
    8880022    1    1    2    0    0  0.79322055391E+02 -0.14586844560E+03  0.12928360418E+04  0.13123971487E+04  0.15294330000E+03 0. -1.
<mgrwt>
<rscale>  0 0.22574597E+03</rscale>
<asrwt>0</asrwt>
<pdfrwt beam="1">  1        2 0.22475173E+00 0.22574597E+03</pdfrwt>
<pdfrwt beam="2">  1       -2 0.13888933E-01 0.22574597E+03</pdfrwt>
<totfact> 0.56264912E+02</totfact>
</mgrwt>
</event>
<event>
 4    1  0.4840632E-008  0.2347665E+03  0.7818608E-02  0.1123329E+00
          2   -1    0    0  501    0  0.00000000000E+00  0.00000000000E+00  0.22250032244E+04  0.22250032244E+04  0.25500000000E-02 0. -1.
         -2   -1    0    0    0  501 -0.00000000000E+00 -0.00000000000E+00 -0.27449489859E+03  0.27449489860E+03  0.25500000000E-02 0.  1.
    8880022    1    1    2    0    0  0.13395064458E+03  0.11739208075E+03 -0.21677209463E+03  0.31953946521E+03  0.15294330000E+03 0.  1.
    8880022    1    1    2    0    0 -0.13395064458E+03 -0.11739208075E+03  0.21672804204E+04  0.21799586578E+04  0.15294330000E+03 0.  0.
<mgrwt>
<rscale>  0 0.23476654E+03</rscale>
<asrwt>0</asrwt>
<pdfrwt beam="1">  1        2 0.34230818E+00 0.23476654E+03</pdfrwt>
<pdfrwt beam="2">  1       -2 0.42229986E-01 0.23476654E+03</pdfrwt>
<totfact> 0.31190220E+01</totfact>
</mgrwt>
</event>
<event>
 4    1  0.4840632E-008  0.3564300E+03  0.7818608E-02  0.1060006E+00
         -2   -1    0    0    0  501 -0.00000000000E+00  0.00000000000E+00  0.23063729493E+03  0.23063729495E+03  0.25500000000E-02 0.  1.
          2   -1    0    0  501    0  0.00000000000E+00 -0.00000000000E+00 -0.91422614283E+03  0.91422614284E+03  0.25500000000E-02 0. -1.
    8880022    1    1    2    0    0 -0.32165962918E+03  0.13630587928E+02  0.19104789983E+02  0.35694167028E+03  0.15294330000E+03 0.  1.
    8880022    1    1    2    0    0  0.32165962918E+03 -0.13630587928E+02 -0.70269363788E+03  0.78792176750E+03  0.15294330000E+03 0. -1.
<mgrwt>
<rscale>  0 0.35643003E+03</rscale>
<asrwt>0</asrwt>
<pdfrwt beam="1">  1        2 0.14065017E+00 0.35643003E+03</pdfrwt>
<pdfrwt beam="2">  1       -2 0.35482661E-01 0.35643003E+03</pdfrwt>
<totfact> 0.22246407E+02</totfact>
</mgrwt>
</event>
<event>
 4    1  0.4840632E-008  0.4281939E+03  0.7818608E-02  0.1034432E+00
         -2   -1    0    0    0  501 -0.00000000000E+00  0.00000000000E+00  0.95458145742E+03  0.95458145743E+03  0.25500000000E-02 0.  1.
          2   -1    0    0  501    0  0.00000000000E+00 -0.00000000000E+00 -0.30597466807E+03  0.30597466808E+03  0.25500000000E-02 0. -1.
    8880022    1    1    2    0    0  0.29685208471E+03  0.26802467966E+03 -0.60246825039E+02  0.43241151932E+03  0.15294330000E+03 0. -1.
    8880022    1    1    2    0    0 -0.29685208471E+03 -0.26802467966E+03  0.70885361439E+03  0.82814460618E+03  0.15294330000E+03 0.  0.
<mgrwt>
<rscale>  0 0.42819393E+03</rscale>
<asrwt>0</asrwt>
<pdfrwt beam="1">  1        2 0.47073026E-01 0.42819393E+03</pdfrwt>
<pdfrwt beam="2">  1       -2 0.14685868E+00 0.42819393E+03</pdfrwt>
<totfact> 0.35403929E+01</totfact>
</mgrwt>
</event>
<event>
 4    1  0.4840632E-008  0.5954644E+03  0.7818608E-02  0.9914861E-01
         -2   -1    0    0    0  501 -0.00000000000E+00  0.00000000000E+00  0.36130351323E+03  0.36130351324E+03  0.25500000000E-02 0.  1.
          2   -1    0    0  501    0  0.00000000000E+00 -0.00000000000E+00 -0.13059304409E+04  0.13059304409E+04  0.25500000000E-02 0. -1.
    8880022    1    1    2    0    0  0.50826949938E+03 -0.26990431996E+03 -0.88788350161E+03  0.10690720235E+04  0.15294330000E+03 0.  0.
    8880022    1    1    2    0    0 -0.50826949938E+03  0.26990431996E+03 -0.56743426104E+02  0.59816193071E+03  0.15294330000E+03 0.  0.
<mgrwt>
<rscale>  0 0.59546442E+03</rscale>
<asrwt>0</asrwt>
<pdfrwt beam="1">  1        2 0.20091237E+00 0.59546442E+03</pdfrwt>
<pdfrwt beam="2">  1       -2 0.55585157E-01 0.59546442E+03</pdfrwt>
<totfact> 0.51689331E+01</totfact>
</mgrwt>
</event>
<event>
 4    1  0.4840632E-008  0.2523542E+03  0.7818608E-02  0.1111826E+00
          2   -1    0    0  501    0  0.00000000000E+00  0.00000000000E+00  0.19454826946E+04  0.19454826946E+04  0.25500000000E-02 0. -1.
         -2   -1    0    0    0  501 -0.00000000000E+00 -0.00000000000E+00 -0.11532399930E+03  0.11532399932E+03  0.25500000000E-02 0.  1.
    8880022    1    1    2    0    0 -0.22788302061E+02 -0.19942840407E+03  0.43087947200E+02  0.25600628756E+03  0.15294330000E+03 0.  1.
    8880022    1    1    2    0    0  0.22788302061E+02  0.19942840407E+03  0.17870707481E+04  0.18048004063E+04  0.15294330000E+03 0.  0.
<mgrwt>
<rscale>  0 0.25235421E+03</rscale>
<asrwt>0</asrwt>
<pdfrwt beam="1">  1        2 0.29930502E+00 0.25235421E+03</pdfrwt>
<pdfrwt beam="2">  1       -2 0.17742154E-01 0.25235421E+03</pdfrwt>
<totfact> 0.20698918E+02</totfact>
</mgrwt>
</event>
<event>
 4    1  0.4840632E-008  0.2789138E+03  0.7818608E-02  0.1096284E+00
         -2   -1    0    0    0  501 -0.00000000000E+00  0.00000000000E+00  0.53425746540E+03  0.53425746541E+03  0.25500000000E-02 0.  1.
          2   -1    0    0  501    0  0.00000000000E+00 -0.00000000000E+00 -0.20428979527E+04  0.20428979527E+04  0.25500000000E-02 0. -1.
    8880022    1    1    2    0    0 -0.19875992696E+03 -0.12204823457E+03 -0.19961268493E+04  0.20155186260E+04  0.15294330000E+03 0. -1.
    8880022    1    1    2    0    0  0.19875992696E+03  0.12204823457E+03  0.48748636200E+03  0.56163679214E+03  0.15294330000E+03 0.  0.
<mgrwt>
<rscale>  0 0.27891385E+03</rscale>
<asrwt>0</asrwt>
<pdfrwt beam="1">  1        2 0.31429199E+00 0.27891385E+03</pdfrwt>
<pdfrwt beam="2">  1       -2 0.82193457E-01 0.27891385E+03</pdfrwt>
<totfact> 0.95972919E+00</totfact>
</mgrwt>
</event>
<event>
 4    1  0.4840632E-008  0.1189577E+04  0.7818608E-02  0.9122029E-01
         -2   -1    0    0    0  501 -0.00000000000E+00  0.00000000000E+00  0.11537858248E+04  0.11537858248E+04  0.25500000000E-02 0.  1.
          2   -1    0    0  501    0  0.00000000000E+00 -0.00000000000E+00 -0.18461304532E+04  0.18461304532E+04  0.25500000000E-02 0. -1.
    8880022    1    1    2    0    0 -0.11587374213E+04 -0.22142466486E+03  0.52283219018E+03  0.12994023418E+04  0.15294330000E+03 0.  0.
    8880022    1    1    2    0    0  0.11587374213E+04  0.22142466486E+03 -0.12151768186E+04  0.17005139362E+04  0.15294330000E+03 0.  0.
<mgrwt>
<rscale>  0 0.11895768E+04</rscale>
<asrwt>0</asrwt>
<pdfrwt beam="1">  1        2 0.28402007E+00 0.11895768E+04</pdfrwt>
<pdfrwt beam="2">  1       -2 0.17750551E+00 0.11895768E+04</pdfrwt>
<totfact> 0.14924027E+00</totfact>
</mgrwt>
</event>
<event>
 4    1  0.4840632E-008  0.3762920E+03  0.7818608E-02  0.1052313E+00
         -2   -1    0    0    0  501 -0.00000000000E+00  0.00000000000E+00  0.11200852067E+03  0.11200852070E+03  0.25500000000E-02 0.  1.
          2   -1    0    0  501    0  0.00000000000E+00 -0.00000000000E+00 -0.19163071321E+04  0.19163071321E+04  0.25500000000E-02 0. -1.
    8880022    1    1    2    0    0 -0.11103631513E+03 -0.32538435641E+03 -0.31052127361E+03  0.48787207037E+03  0.15294330000E+03 0.  0.
    8880022    1    1    2    0    0  0.11103631513E+03  0.32538435641E+03 -0.14937773378E+04  0.15404435824E+04  0.15294330000E+03 0. -1.
<mgrwt>
<rscale>  0 0.37629204E+03</rscale>
<asrwt>0</asrwt>
<pdfrwt beam="1">  1        2 0.29481646E+00 0.37629204E+03</pdfrwt>
<pdfrwt beam="2">  1       -2 0.17232082E-01 0.37629204E+03</pdfrwt>
<totfact> 0.21961179E+02</totfact>
</mgrwt>
</event>
<event>
 4    1  0.5248301E-008  0.1386307E+04  0.7818608E-02  0.8963790E-01
         -2   -1    0    0    0  501 -0.00000000000E+00  0.00000000000E+00  0.17142064735E+04  0.17142064735E+04  0.25500000000E-02 0.  1.
          2   -1    0    0  501    0  0.00000000000E+00 -0.00000000000E+00 -0.22949772690E+04  0.22949772690E+04  0.25500000000E-02 0. -1.
    8880022    1    1    2    0    0  0.12934147628E+04 -0.47490338115E+03 -0.17240341104E+04  0.22122703806E+04  0.15294330000E+03 0.  0.
    8880022    1    1    2    0    0 -0.12934147628E+04  0.47490338115E+03  0.11432633149E+04  0.17969133619E+04  0.15294330000E+03 0.  0.
<mgrwt>
<rscale>  0 0.13863068E+04</rscale>
<asrwt>0</asrwt>
<pdfrwt beam="1">  1        2 0.35307343E+00 0.13863068E+04</pdfrwt>
<pdfrwt beam="2">  1       -2 0.26372407E+00 0.13863068E+04</pdfrwt>
<totfact> 0.22972423E-01</totfact>
</mgrwt>
</event>
<event>
 4    1  0.4840632E-008  0.2418202E+03  0.7818608E-02  0.1118586E+00
          2   -1    0    0  501    0  0.00000000000E+00  0.00000000000E+00  0.60949807373E+03  0.60949807374E+03  0.25500000000E-02 0. -1.
         -2   -1    0    0    0  501 -0.00000000000E+00 -0.00000000000E+00 -0.13369942274E+04  0.13369942274E+04  0.25500000000E-02 0.  1.
    8880022    1    1    2    0    0  0.15346303551E+03 -0.10739853528E+03 -0.13014240837E+04  0.13236999838E+04  0.15294330000E+03 0.  0.
    8880022    1    1    2    0    0 -0.15346303551E+03  0.10739853528E+03  0.57392793000E+03  0.62279231731E+03  0.15294330000E+03 0. -1.
<mgrwt>
<rscale>  0 0.24182018E+03</rscale>
<asrwt>0</asrwt>
<pdfrwt beam="1">  1        2 0.93768935E-01 0.24182018E+03</pdfrwt>
<pdfrwt beam="2">  1       -2 0.20569142E+00 0.24182018E+03</pdfrwt>
<totfact> 0.67389028E+00</totfact>
</mgrwt>
</event>
<event>
 4    1  0.4840632E-008  0.5408639E+03  0.7818608E-02  0.1003631E+00
         -2   -1    0    0    0  501 -0.00000000000E+00  0.00000000000E+00  0.27759668633E+03  0.27759668634E+03  0.25500000000E-02 0.  1.
          2   -1    0    0  501    0  0.00000000000E+00 -0.00000000000E+00 -0.20542558402E+04  0.20542558402E+04  0.25500000000E-02 0. -1.
    8880022    1    1    2    0    0 -0.51151506785E+03 -0.86570191843E+02 -0.74673332316E+02  0.54599434277E+03  0.15294330000E+03 0.  0.
    8880022    1    1    2    0    0  0.51151506785E+03  0.86570191843E+02 -0.17019858215E+04  0.17858581837E+04  0.15294330000E+03 0.  0.
<mgrwt>
<rscale>  0 0.54086386E+03</rscale>
<asrwt>0</asrwt>
<pdfrwt beam="1">  1        2 0.31603935E+00 0.54086386E+03</pdfrwt>
<pdfrwt beam="2">  1       -2 0.42707184E-01 0.54086386E+03</pdfrwt>
<totfact> 0.34552519E+01</totfact>
</mgrwt>
</event>
<event>
 4    1  0.4840632E-008  0.2470997E+03  0.7818608E-02  0.1115152E+00
          2   -1    0    0  501    0  0.00000000000E+00  0.00000000000E+00  0.93444466598E+03  0.93444466598E+03  0.25500000000E-02 0. -1.
         -2   -1    0    0    0  501 -0.00000000000E+00 -0.00000000000E+00 -0.19965889649E+03  0.19965889651E+03  0.25500000000E-02 0.  1.
    8880022    1    1    2    0    0  0.33101541233E+02 -0.19123523645E+03  0.83249044424E+03  0.86838851930E+03  0.15294330000E+03 0. -1.
    8880022    1    1    2    0    0 -0.33101541233E+02  0.19123523645E+03 -0.97704674748E+02  0.26571504319E+03  0.15294330000E+03 0.  0.
<mgrwt>
<rscale>  0 0.24709974E+03</rscale>
<asrwt>0</asrwt>
<pdfrwt beam="1">  1        2 0.14376072E+00 0.24709974E+03</pdfrwt>
<pdfrwt beam="2">  1       -2 0.30716753E-01 0.24709974E+03</pdfrwt>
<totfact> 0.28586458E+02</totfact>
</mgrwt>
</event>
<event>
 4    1  0.4840632E-008  0.2084975E+03  0.7818608E-02  0.1142761E+00
          2   -1    0    0  501    0  0.00000000000E+00  0.00000000000E+00  0.22060489195E+03  0.22060489197E+03  0.25500000000E-02 0. -1.
         -2   -1    0    0    0  501 -0.00000000000E+00 -0.00000000000E+00 -0.31025792807E+03  0.31025792808E+03  0.25500000000E-02 0.  1.
    8880022    1    1    2    0    0  0.14102299421E+03 -0.13859102264E+02  0.11550556458E+03  0.23835424912E+03  0.15294330000E+03 0.  0.
    8880022    1    1    2    0    0 -0.14102299421E+03  0.13859102264E+02 -0.20515860070E+03  0.29250857093E+03  0.15294330000E+03 0.  1.
<mgrwt>
<rscale>  0 0.20849751E+03</rscale>
<asrwt>0</asrwt>
<pdfrwt beam="1">  1        2 0.33939214E-01 0.20849751E+03</pdfrwt>
<pdfrwt beam="2">  1       -2 0.47731989E-01 0.20849751E+03</pdfrwt>
<totfact> 0.64523162E+02</totfact>
</mgrwt>
</event>
<event>
 4    1  0.4840632E-008  0.4619144E+03  0.7818608E-02  0.1024227E+00
         -2   -1    0    0    0  501 -0.00000000000E+00  0.00000000000E+00  0.31539729213E+03  0.31539729214E+03  0.25500000000E-02 0.  1.
          2   -1    0    0  501    0  0.00000000000E+00 -0.00000000000E+00 -0.87761876820E+03  0.87761876821E+03  0.25500000000E-02 0. -1.
    8880022    1    1    2    0    0  0.10036286924E+03 -0.42414681890E+03 -0.56666877443E+03  0.73108028453E+03  0.15294330000E+03 0.  0.
    8880022    1    1    2    0    0 -0.10036286924E+03  0.42414681890E+03  0.44472983638E+01  0.46193577582E+03  0.15294330000E+03 0.  0.
<mgrwt>
<rscale>  0 0.46191437E+03</rscale>
<asrwt>0</asrwt>
<pdfrwt beam="1">  1        2 0.13501827E+00 0.46191437E+03</pdfrwt>
<pdfrwt beam="2">  1       -2 0.48522661E-01 0.46191437E+03</pdfrwt>
<totfact> 0.12653902E+02</totfact>
</mgrwt>
</event>
<event>
 4    1  0.4840632E-008  0.3258190E+03  0.7818608E-02  0.1073002E+00
         -2   -1    0    0    0  501 -0.00000000000E+00  0.00000000000E+00  0.86104461695E+03  0.86104461695E+03  0.25500000000E-02 0.  1.
          2   -1    0    0  501    0  0.00000000000E+00 -0.00000000000E+00 -0.54837252725E+03  0.54837252725E+03  0.25500000000E-02 0. -1.
    8880022    1    1    2    0    0  0.51956692360E+02 -0.28296091951E+03 -0.46411630033E+03  0.56706434653E+03  0.15294330000E+03 0.  0.
    8880022    1    1    2    0    0 -0.51956692360E+02  0.28296091951E+03  0.77678839003E+03  0.84235279768E+03  0.15294330000E+03 0.  1.
<mgrwt>
<rscale>  0 0.32581902E+03</rscale>
<asrwt>0</asrwt>
<pdfrwt beam="1">  1        2 0.84365005E-01 0.32581902E+03</pdfrwt>
<pdfrwt beam="2">  1       -2 0.13246840E+00 0.32581902E+03</pdfrwt>
<totfact> 0.24426558E+01</totfact>
</mgrwt>
</event>
<event>
 4    1  0.4840632E-008  0.5333640E+03  0.7818608E-02  0.1005420E+00
         -2   -1    0    0    0  501 -0.00000000000E+00  0.00000000000E+00  0.70567659545E+03  0.70567659545E+03  0.25500000000E-02 0.  1.
          2   -1    0    0  501    0  0.00000000000E+00 -0.00000000000E+00 -0.70644273962E+03  0.70644273962E+03  0.25500000000E-02 0. -1.
    8880022    1    1    2    0    0  0.42542261364E+03 -0.28302130103E+03 -0.46303095151E+03  0.70631067676E+03  0.15294330000E+03 0.  0.
    8880022    1    1    2    0    0 -0.42542261364E+03  0.28302130103E+03  0.46226480734E+03  0.70580865831E+03  0.15294330000E+03 0.  0.
<mgrwt>
<rscale>  0 0.53336396E+03</rscale>
<asrwt>0</asrwt>
<pdfrwt beam="1">  1        2 0.10868350E+00 0.53336396E+03</pdfrwt>
<pdfrwt beam="2">  1       -2 0.10856563E+00 0.53336396E+03</pdfrwt>
<totfact> 0.28464963E+01</totfact>
</mgrwt>
</event>
<event>
 4    1  0.4840632E-008  0.2818847E+03  0.7818608E-02  0.1094664E+00
          2   -1    0    0  501    0  0.00000000000E+00  0.00000000000E+00  0.76244270377E+03  0.76244270378E+03  0.25500000000E-02 0. -1.
         -2   -1    0    0    0  501 -0.00000000000E+00 -0.00000000000E+00 -0.21304506444E+03  0.21304506446E+03  0.25500000000E-02 0.  1.
    8880022    1    1    2    0    0 -0.20523912692E+03  0.11808560180E+03 -0.73901621526E+02  0.29141106920E+03  0.15294330000E+03 0.  1.
    8880022    1    1    2    0    0  0.20523912692E+03 -0.11808560180E+03  0.62329926086E+03  0.68407669904E+03  0.15294330000E+03 0.  0.
<mgrwt>
<rscale>  0 0.28188466E+03</rscale>
<asrwt>0</asrwt>
<pdfrwt beam="1">  1        2 0.11729888E+00 0.28188466E+03</pdfrwt>
<pdfrwt beam="2">  1       -2 0.32776163E-01 0.28188466E+03</pdfrwt>
<totfact> 0.32975026E+02</totfact>
</mgrwt>
</event>
<event>
 4    1  0.4840632E-008  0.1990708E+03  0.7818608E-02  0.1150525E+00
          2   -1    0    0  501    0  0.00000000000E+00  0.00000000000E+00  0.15185601892E+04  0.15185601892E+04  0.25500000000E-02 0. -1.
         -2   -1    0    0    0  501 -0.00000000000E+00 -0.00000000000E+00 -0.74000040942E+02  0.74000040986E+02  0.25500000000E-02 0.  1.
    8880022    1    1    2    0    0  0.12735049053E+03  0.44009581850E+01  0.13629487804E+04  0.13774100867E+04  0.15294330000E+03 0.  0.
    8880022    1    1    2    0    0 -0.12735049053E+03 -0.44009581850E+01  0.81611367851E+02  0.21515014350E+03  0.15294330000E+03 0.  1.
<mgrwt>
<rscale>  0 0.19907076E+03</rscale>
<asrwt>0</asrwt>
<pdfrwt beam="1">  1        2 0.23362463E+00 0.19907076E+03</pdfrwt>
<pdfrwt beam="2">  1       -2 0.11384622E-01 0.19907076E+03</pdfrwt>
<totfact> 0.72633814E+02</totfact>
</mgrwt>
</event>
<event>
 4    1  0.4840632E-008  0.6481700E+03  0.7818608E-02  0.9810219E-01
          2   -1    0    0  501    0  0.00000000000E+00  0.00000000000E+00  0.16657711345E+04  0.16657711345E+04  0.25500000000E-02 0. -1.
         -2   -1    0    0    0  501 -0.00000000000E+00 -0.00000000000E+00 -0.29149602538E+03  0.29149602539E+03  0.25500000000E-02 0.  1.
    8880022    1    1    2    0    0  0.39579096950E+03 -0.48998180524E+03  0.10464086323E+04  0.12308920911E+04  0.15294330000E+03 0.  0.
    8880022    1    1    2    0    0 -0.39579096950E+03  0.48998180524E+03  0.32786647679E+03  0.72637506883E+03  0.15294330000E+03 0.  0.
<mgrwt>
<rscale>  0 0.64816997E+03</rscale>
<asrwt>0</asrwt>
<pdfrwt beam="1">  1        2 0.25627249E+00 0.64816997E+03</pdfrwt>
<pdfrwt beam="2">  1       -2 0.44845541E-01 0.64816997E+03</pdfrwt>
<totfact> 0.50094555E+01</totfact>
</mgrwt>
</event>
<event>
 4    1  0.4840632E-008  0.6505936E+03  0.7818608E-02  0.9805666E-01
         -2   -1    0    0    0  501 -0.00000000000E+00  0.00000000000E+00  0.14996162245E+03  0.14996162247E+03  0.25500000000E-02 0.  1.
          2   -1    0    0  501    0  0.00000000000E+00 -0.00000000000E+00 -0.31726694204E+04  0.31726694204E+04  0.25500000000E-02 0. -1.
    8880022    1    1    2    0    0 -0.29243966216E+03 -0.56067763759E+03 -0.20632492361E+04  0.21633930370E+04  0.15294330000E+03 0.  0.
    8880022    1    1    2    0    0  0.29243966216E+03  0.56067763759E+03 -0.95945856184E+03  0.11592380058E+04  0.15294330000E+03 0.  0.
<mgrwt>
<rscale>  0 0.65059359E+03</rscale>
<asrwt>0</asrwt>
<pdfrwt beam="1">  1        2 0.48810294E+00 0.65059359E+03</pdfrwt>
<pdfrwt beam="2">  1       -2 0.23071021E-01 0.65059359E+03</pdfrwt>
<totfact> 0.24236872E+01</totfact>
</mgrwt>
</event>
<event>
 4    1  0.6236672E-008  0.4586369E+03  0.7818608E-02  0.1025177E+00
          2   -1    0    0  501    0  0.00000000000E+00  0.00000000000E+00  0.22733861426E+04  0.22733861426E+04  0.25500000000E-02 0. -1.
         -2   -1    0    0    0  501 -0.00000000000E+00 -0.00000000000E+00 -0.79640065707E+03  0.79640065708E+03  0.25500000000E-02 0.  1.
    8880022    1    1    2    0    0 -0.13315406510E+03  0.41137102412E+03 -0.70448627764E+03  0.84062399022E+03  0.15294330000E+03 0.  1.
    8880022    1    1    2    0    0  0.13315406510E+03 -0.41137102412E+03  0.21814717631E+04  0.22291628094E+04  0.15294330000E+03 0.  0.
<mgrwt>
<rscale>  0 0.45863687E+03</rscale>
<asrwt>0</asrwt>
<pdfrwt beam="1">  1        2 0.34975171E+00 0.45863687E+03</pdfrwt>
<pdfrwt beam="2">  1       -2 0.12252318E+00 0.45863687E+03</pdfrwt>
<totfact> 0.26503811E+00</totfact>
</mgrwt>
</event>
<event>
 4    1  0.4840632E-008  0.6300281E+03  0.7818608E-02  0.9844994E-01
         -2   -1    0    0    0  501 -0.00000000000E+00  0.00000000000E+00  0.40535153574E+03  0.40535153575E+03  0.25500000000E-02 0.  1.
          2   -1    0    0  501    0  0.00000000000E+00 -0.00000000000E+00 -0.10696023330E+04  0.10696023330E+04  0.25500000000E-02 0. -1.
    8880022    1    1    2    0    0 -0.11481259840E+03  0.60030139402E+03 -0.54648228552E+03  0.83401333192E+03  0.15294330000E+03 0.  0.
    8880022    1    1    2    0    0  0.11481259840E+03 -0.60030139402E+03 -0.11776851177E+03  0.64094053686E+03  0.15294330000E+03 0.  0.
<mgrwt>
<rscale>  0 0.63002805E+03</rscale>
<asrwt>0</asrwt>
<pdfrwt beam="1">  1        2 0.16455420E+00 0.63002805E+03</pdfrwt>
<pdfrwt beam="2">  1       -2 0.62361775E-01 0.63002805E+03</pdfrwt>
<totfact> 0.55793878E+01</totfact>
</mgrwt>
</event>
<event>
 4    1  0.4840632E-008  0.3057506E+03  0.7818608E-02  0.1082401E+00
         -2   -1    0    0    0  501 -0.00000000000E+00  0.00000000000E+00  0.16752460343E+04  0.16752460343E+04  0.25500000000E-02 0.  1.
          2   -1    0    0  501    0  0.00000000000E+00 -0.00000000000E+00 -0.22282319335E+03  0.22282319336E+03  0.25500000000E-02 0. -1.
    8880022    1    1    2    0    0 -0.26152774126E+03  0.41170593724E+02  0.15478609261E+04  0.15777695893E+04  0.15294330000E+03 0.  0.
    8880022    1    1    2    0    0  0.26152774126E+03 -0.41170593724E+02 -0.95438085162E+02  0.32029963839E+03  0.15294330000E+03 0.  0.
<mgrwt>
<rscale>  0 0.30575060E+03</rscale>
<asrwt>0</asrwt>
<pdfrwt beam="1">  1        2 0.34280491E-01 0.30575060E+03</pdfrwt>
<pdfrwt beam="2">  1       -2 0.25773016E+00 0.30575060E+03</pdfrwt>
<totfact> 0.97440852E+00</totfact>
</mgrwt>
</event>
<event>
 4    1  0.4840632E-008  0.9949107E+03  0.7818608E-02  0.9314144E-01
         -2   -1    0    0    0  501 -0.00000000000E+00  0.00000000000E+00  0.68196653438E+03  0.68196653439E+03  0.25500000000E-02 0.  1.
          2   -1    0    0  501    0  0.00000000000E+00 -0.00000000000E+00 -0.21920145222E+04  0.21920145222E+04  0.25500000000E-02 0. -1.
    8880022    1    1    2    0    0  0.24008796872E+01  0.98308185844E+03 -0.15902627159E+04  0.18758419078E+04  0.15294330000E+03 0.  0.
    8880022    1    1    2    0    0 -0.24008796872E+01 -0.98308185844E+03  0.80214728103E+02  0.99813914873E+03  0.15294330000E+03 0.  0.
<mgrwt>
<rscale>  0 0.99491073E+03</rscale>
<asrwt>0</asrwt>
<pdfrwt beam="1">  1        2 0.33723300E+00 0.99491073E+03</pdfrwt>
<pdfrwt beam="2">  1       -2 0.10491793E+00 0.99491073E+03</pdfrwt>
<totfact> 0.38561979E+00</totfact>
</mgrwt>
</event>
<event>
 4    1  0.4840632E-008  0.2736144E+03  0.7818608E-02  0.1099229E+00
         -2   -1    0    0    0  501 -0.00000000000E+00  0.00000000000E+00  0.10566010662E+03  0.10566010665E+03  0.25500000000E-02 0.  1.
          2   -1    0    0  501    0  0.00000000000E+00 -0.00000000000E+00 -0.71403797671E+03  0.71403797672E+03  0.25500000000E-02 0. -1.
    8880022    1    1    2    0    0 -0.19713757121E+03 -0.11229408347E+03 -0.34013953022E+03  0.43653148363E+03  0.15294330000E+03 0.  0.
    8880022    1    1    2    0    0  0.19713757121E+03  0.11229408347E+03 -0.26823833987E+03  0.38316659974E+03  0.15294330000E+03 0. -1.
<mgrwt>
<rscale>  0 0.27361439E+03</rscale>
<asrwt>0</asrwt>
<pdfrwt beam="1">  1        2 0.10985199E+00 0.27361439E+03</pdfrwt>
<pdfrwt beam="2">  1       -2 0.16255402E-01 0.27361439E+03</pdfrwt>
<totfact> 0.12259283E+03</totfact>
</mgrwt>
</event>
<event>
 4    1  0.4840632E-008  0.8210816E+03  0.7818608E-02  0.9529994E-01
          2   -1    0    0  501    0  0.00000000000E+00  0.00000000000E+00  0.23673246191E+04  0.23673246191E+04  0.25500000000E-02 0. -1.
         -2   -1    0    0    0  501 -0.00000000000E+00 -0.00000000000E+00 -0.81950404248E+03  0.81950404249E+03  0.25500000000E-02 0.  1.
    8880022    1    1    2    0    0  0.72295105027E+03 -0.35794572445E+03 -0.51320248060E+03  0.96827258654E+03  0.15294330000E+03 0.  0.
    8880022    1    1    2    0    0 -0.72295105027E+03  0.35794572445E+03  0.20610230572E+04  0.22185560750E+04  0.15294330000E+03 0.  0.
<mgrwt>
<rscale>  0 0.82108161E+03</rscale>
<asrwt>0</asrwt>
<pdfrwt beam="1">  1        2 0.36420379E+00 0.82108161E+03</pdfrwt>
<pdfrwt beam="2">  1       -2 0.12607754E+00 0.82108161E+03</pdfrwt>
<totfact> 0.20123958E+00</totfact>
</mgrwt>
</event>
<event>
 4    1  0.4840632E-008  0.5181817E+03  0.7818608E-02  0.1009139E+00
         -2   -1    0    0    0  501 -0.00000000000E+00  0.00000000000E+00  0.95136751801E+03  0.95136751802E+03  0.25500000000E-02 0.  1.
          2   -1    0    0  501    0  0.00000000000E+00 -0.00000000000E+00 -0.37841608761E+03  0.37841608762E+03  0.25500000000E-02 0. -1.
    8880022    1    1    2    0    0  0.20476922428E+03 -0.45076626620E+03  0.62167544501E+03  0.80931617672E+03  0.15294330000E+03 0.  0.
    8880022    1    1    2    0    0 -0.20476922428E+03  0.45076626620E+03 -0.48724014608E+02  0.52046742892E+03  0.15294330000E+03 0.  0.
<mgrwt>
<rscale>  0 0.51818174E+03</rscale>
<asrwt>0</asrwt>
<pdfrwt beam="1">  1        2 0.58217860E-01 0.51818174E+03</pdfrwt>
<pdfrwt beam="2">  1       -2 0.14636423E+00 0.51818174E+03</pdfrwt>
<totfact> 0.27973835E+01</totfact>
</mgrwt>
</event>
<event>
 4    1  0.4840632E-008  0.5518616E+03  0.7818608E-02  0.1001064E+00
          2   -1    0    0  501    0  0.00000000000E+00  0.00000000000E+00  0.16550394477E+04  0.16550394477E+04  0.25500000000E-02 0. -1.
         -2   -1    0    0    0  501 -0.00000000000E+00 -0.00000000000E+00 -0.45459859384E+03  0.45459859384E+03  0.25500000000E-02 0.  1.
    8880022    1    1    2    0    0  0.11133803705E+03 -0.51842398628E+03 -0.21357462995E+03  0.59174771957E+03  0.15294330000E+03 0.  0.
    8880022    1    1    2    0    0 -0.11133803705E+03  0.51842398628E+03  0.14140154838E+04  0.15178903219E+04  0.15294330000E+03 0.  0.
<mgrwt>
<rscale>  0 0.55186161E+03</rscale>
<asrwt>0</asrwt>
<pdfrwt beam="1">  1        2 0.25462146E+00 0.55186161E+03</pdfrwt>
<pdfrwt beam="2">  1       -2 0.69938244E-01 0.55186161E+03</pdfrwt>
<totfact> 0.20465770E+01</totfact>
</mgrwt>
</event>
<event>
 4    1  0.4840632E-008  0.3808289E+03  0.7818608E-02  0.1050628E+00
          2   -1    0    0  501    0  0.00000000000E+00  0.00000000000E+00  0.10329270665E+04  0.10329270665E+04  0.25500000000E-02 0. -1.
         -2   -1    0    0    0  501 -0.00000000000E+00 -0.00000000000E+00 -0.24973896695E+04  0.24973896695E+04  0.25500000000E-02 0.  1.
    8880022    1    1    2    0    0  0.21806060457E+03 -0.27219215981E+03  0.98258922689E+03  0.10538084460E+04  0.15294330000E+03 0.  0.
    8880022    1    1    2    0    0 -0.21806060457E+03  0.27219215981E+03 -0.24470518299E+04  0.24765082900E+04  0.15294330000E+03 0.  0.
<mgrwt>
<rscale>  0 0.38082890E+03</rscale>
<asrwt>0</asrwt>
<pdfrwt beam="1">  1        2 0.15891186E+00 0.38082890E+03</pdfrwt>
<pdfrwt beam="2">  1       -2 0.38421379E+00 0.38082890E+03</pdfrwt>
<totfact> 0.27146292E-01</totfact>
</mgrwt>
</event>
<event>
 4    1  0.4840632E-008  0.6599064E+03  0.7818608E-02  0.9788366E-01
         -2   -1    0    0    0  501 -0.00000000000E+00  0.00000000000E+00  0.48354431677E+03  0.48354431678E+03  0.25500000000E-02 0.  1.
          2   -1    0    0  501    0  0.00000000000E+00 -0.00000000000E+00 -0.22825469866E+04  0.22825469866E+04  0.25500000000E-02 0. -1.
    8880022    1    1    2    0    0  0.38434485402E+03 -0.51416329724E+03 -0.19756529949E+04  0.20829501368E+04  0.15294330000E+03 0.  0.
    8880022    1    1    2    0    0 -0.38434485402E+03  0.51416329724E+03  0.17665032513E+03  0.68314116654E+03  0.15294330000E+03 0.  0.
<mgrwt>
<rscale>  0 0.65990644E+03</rscale>
<asrwt>0</asrwt>
<pdfrwt beam="1">  1        2 0.35116107E+00 0.65990644E+03</pdfrwt>
<pdfrwt beam="2">  1       -2 0.74391435E-01 0.65990644E+03</pdfrwt>
<totfact> 0.79914751E+00</totfact>
</mgrwt>
</event>
<event>
 4    1  0.4840632E-008  0.2924196E+03  0.7818608E-02  0.1089093E+00
         -2   -1    0    0    0  501 -0.00000000000E+00  0.00000000000E+00  0.71669331201E+03  0.71669331202E+03  0.25500000000E-02 0.  1.
          2   -1    0    0  501    0  0.00000000000E+00 -0.00000000000E+00 -0.43186754224E+03  0.43186754225E+03  0.25500000000E-02 0. -1.
    8880022    1    1    2    0    0 -0.59275798908E+02 -0.24208249369E+03 -0.34614183340E+03  0.45312622516E+03  0.15294330000E+03 0. -1.
    8880022    1    1    2    0    0  0.59275798908E+02  0.24208249369E+03  0.63096760317E+03  0.69543462910E+03  0.15294330000E+03 0.  0.
<mgrwt>
<rscale>  0 0.29241957E+03</rscale>
<asrwt>0</asrwt>
<pdfrwt beam="1">  1        2 0.66441160E-01 0.29241957E+03</pdfrwt>
<pdfrwt beam="2">  1       -2 0.11026051E+00 0.29241957E+03</pdfrwt>
<totfact> 0.50351789E+01</totfact>
</mgrwt>
</event>
<event>
 4    1  0.4840632E-008  0.1000223E+04  0.7818608E-02  0.9308300E-01
         -2   -1    0    0    0  501 -0.00000000000E+00  0.00000000000E+00  0.48160617273E+03  0.48160617274E+03  0.25500000000E-02 0.  1.
          2   -1    0    0  501    0  0.00000000000E+00 -0.00000000000E+00 -0.23744772718E+04  0.23744772718E+04  0.25500000000E-02 0. -1.
    8880022    1    1    2    0    0 -0.51516985995E+03 -0.84359661032E+03 -0.44124524221E+03  0.10932265284E+04  0.15294330000E+03 0.  0.
    8880022    1    1    2    0    0  0.51516985995E+03  0.84359661032E+03 -0.14516258569E+04  0.17628569162E+04  0.15294330000E+03 0.  0.
<mgrwt>
<rscale>  0 0.10002234E+04</rscale>
<asrwt>0</asrwt>
<pdfrwt beam="1">  1        2 0.36530419E+00 0.10002234E+04</pdfrwt>
<pdfrwt beam="2">  1       -2 0.74093259E-01 0.10002234E+04</pdfrwt>
<totfact> 0.68015904E+00</totfact>
</mgrwt>
</event>
<event>
 4    1  0.4840632E-008  0.5164460E+03  0.7818608E-02  0.1009573E+00
         -2   -1    0    0    0  501 -0.00000000000E+00  0.00000000000E+00  0.34005172447E+03  0.34005172448E+03  0.25500000000E-02 0.  1.
          2   -1    0    0  501    0  0.00000000000E+00 -0.00000000000E+00 -0.97616310678E+03  0.97616310678E+03  0.25500000000E-02 0. -1.
    8880022    1    1    2    0    0 -0.48744078352E+03  0.75672448077E+02 -0.60978830535E+03  0.79909840895E+03  0.15294330000E+03 0.  0.
    8880022    1    1    2    0    0  0.48744078352E+03 -0.75672448077E+02 -0.26323076958E+02  0.51711642231E+03  0.15294330000E+03 0.  0.
<mgrwt>
<rscale>  0 0.51644602E+03</rscale>
<asrwt>0</asrwt>
<pdfrwt beam="1">  1        2 0.15017894E+00 0.51644602E+03</pdfrwt>
<pdfrwt beam="2">  1       -2 0.52315650E-01 0.51644602E+03</pdfrwt>
<totfact> 0.93145656E+01</totfact>
</mgrwt>
</event>
<event>
 4    1  0.4840632E-008  0.1411698E+04  0.7818608E-02  0.8945394E-01
          2   -1    0    0  501    0  0.00000000000E+00  0.00000000000E+00  0.42698652797E+04  0.42698652797E+04  0.25500000000E-02 0. -1.
         -2   -1    0    0    0  501 -0.00000000000E+00 -0.00000000000E+00 -0.60052676523E+03  0.60052676523E+03  0.25500000000E-02 0.  1.
    8880022    1    1    2    0    0  0.91886745288E+03  0.10607467020E+04  0.29841019813E+04  0.33011751316E+04  0.15294330000E+03 0.  0.
    8880022    1    1    2    0    0 -0.91886745288E+03 -0.10607467020E+04  0.68523653317E+03  0.15692169133E+04  0.15294330000E+03 0.  0.
<mgrwt>
<rscale>  0 0.14116985E+04</rscale>
<asrwt>0</asrwt>
<pdfrwt beam="1">  1        2 0.65690234E+00 0.14116985E+04</pdfrwt>
<pdfrwt beam="2">  1       -2 0.92388735E-01 0.14116985E+04</pdfrwt>
<totfact> 0.19860675E-01</totfact>
</mgrwt>
</event>
<event>
 4    1  0.4840632E-008  0.7227825E+03  0.7818608E-02  0.9679045E-01
          2   -1    0    0  501    0  0.00000000000E+00  0.00000000000E+00  0.25785227766E+04  0.25785227766E+04  0.25500000000E-02 0. -1.
         -2   -1    0    0    0  501 -0.00000000000E+00 -0.00000000000E+00 -0.38814484170E+03  0.38814484171E+03  0.25500000000E-02 0.  1.
    8880022    1    1    2    0    0  0.63443538472E+03  0.31066793385E+03  0.69622496576E+02  0.72612792782E+03  0.15294330000E+03 0.  0.
    8880022    1    1    2    0    0 -0.63443538472E+03 -0.31066793385E+03  0.21207554383E+04  0.22405396905E+04  0.15294330000E+03 0.  0.
<mgrwt>
<rscale>  0 0.72278245E+03</rscale>
<asrwt>0</asrwt>
<pdfrwt beam="1">  1        2 0.39669580E+00 0.72278245E+03</pdfrwt>
<pdfrwt beam="2">  1       -2 0.59714593E-01 0.72278245E+03</pdfrwt>
<totfact> 0.86564411E+00</totfact>
</mgrwt>
</event>
<event>
 4    1  0.4840632E-008  0.1509859E+04  0.7818608E-02  0.8877923E-01
         -2   -1    0    0    0  501 -0.00000000000E+00  0.00000000000E+00  0.13493788075E+04  0.13493788075E+04  0.25500000000E-02 0.  1.
          2   -1    0    0  501    0  0.00000000000E+00 -0.00000000000E+00 -0.19884868784E+04  0.19884868784E+04  0.25500000000E-02 0. -1.
    8880022    1    1    2    0    0 -0.14595822669E+04  0.35482503106E+03  0.32767620552E+03  0.15450063253E+04  0.15294330000E+03 0.  0.
    8880022    1    1    2    0    0  0.14595822669E+04 -0.35482503106E+03 -0.96678427645E+03  0.17928593606E+04  0.15294330000E+03 0.  0.
<mgrwt>
<rscale>  0 0.15098586E+04</rscale>
<asrwt>0</asrwt>
<pdfrwt beam="1">  1        2 0.30592106E+00 0.15098586E+04</pdfrwt>
<pdfrwt beam="2">  1       -2 0.20759674E+00 0.15098586E+04</pdfrwt>
<totfact> 0.75476830E-01</totfact>
</mgrwt>
</event>
<event>
 4    1  0.4840632E-008  0.1333176E+04  0.7818608E-02  0.9003662E-01
          2   -1    0    0  501    0  0.00000000000E+00  0.00000000000E+00  0.19513552848E+04  0.19513552848E+04  0.25500000000E-02 0. -1.
         -2   -1    0    0    0  501 -0.00000000000E+00 -0.00000000000E+00 -0.10775642739E+04  0.10775642739E+04  0.25500000000E-02 0.  1.
    8880022    1    1    2    0    0  0.22350675528E+03 -0.13053777467E+04 -0.15882866694E+03  0.13426036383E+04  0.15294330000E+03 0.  0.
    8880022    1    1    2    0    0 -0.22350675528E+03  0.13053777467E+04  0.10326196779E+04  0.16863159204E+04  0.15294330000E+03 0.  0.
<mgrwt>
<rscale>  0 0.13331759E+04</rscale>
<asrwt>0</asrwt>
<pdfrwt beam="1">  1        2 0.30020850E+00 0.13331759E+04</pdfrwt>
<pdfrwt beam="2">  1       -2 0.16577912E+00 0.13331759E+04</pdfrwt>
<totfact> 0.15568524E+00</totfact>
</mgrwt>
</event>
<event>
 4    1  0.4840632E-008  0.1755145E+03  0.7818608E-02  0.1172216E+00
          2   -1    0    0  501    0  0.00000000000E+00  0.00000000000E+00  0.40313181478E+03  0.40313181479E+03  0.25500000000E-02 0. -1.
         -2   -1    0    0    0  501 -0.00000000000E+00 -0.00000000000E+00 -0.81365998679E+02  0.81365998719E+02  0.25500000000E-02 0.  1.
    8880022    1    1    2    0    0  0.41821781029E+02  0.75263730307E+02  0.10112657496E+03  0.20256339167E+03  0.15294330000E+03 0.  1.
    8880022    1    1    2    0    0 -0.41821781029E+02 -0.75263730307E+02  0.22063924115E+03  0.28193442184E+03  0.15294330000E+03 0.  1.
<mgrwt>
<rscale>  0 0.17551451E+03</rscale>
<asrwt>0</asrwt>
<pdfrwt beam="1">  1        2 0.62020281E-01 0.17551451E+03</pdfrwt>
<pdfrwt beam="2">  1       -2 0.12517846E-01 0.17551451E+03</pdfrwt>
<totfact> 0.35760068E+03</totfact>
</mgrwt>
</event>
<event>
 4    1  0.4840632E-008  0.2286696E+03  0.7818608E-02  0.1127580E+00
         -2   -1    0    0    0  501 -0.00000000000E+00  0.00000000000E+00  0.42454029359E+02  0.42454029435E+02  0.25500000000E-02 0.  1.
          2   -1    0    0  501    0  0.00000000000E+00 -0.00000000000E+00 -0.35908463207E+04  0.35908463207E+04  0.25500000000E-02 0. -1.
    8880022    1    1    2    0    0  0.91728345539E+02 -0.14312244141E+03 -0.30170672704E+03  0.37857195454E+03  0.15294330000E+03 0.  1.
    8880022    1    1    2    0    0 -0.91728345539E+02  0.14312244141E+03 -0.32466855643E+04  0.32547283956E+04  0.15294330000E+03 0.  0.
<mgrwt>
<rscale>  0 0.22866958E+03</rscale>
<asrwt>0</asrwt>
<pdfrwt beam="1">  1        2 0.55243765E+00 0.22866958E+03</pdfrwt>
<pdfrwt beam="2">  1       -2 0.65313920E-02 0.22866958E+03</pdfrwt>
<totfact> 0.11662350E+02</totfact>
</mgrwt>
</event>
<event>
 4    1  0.4840632E-008  0.3113795E+03  0.7818608E-02  0.1079687E+00
          2   -1    0    0  501    0  0.00000000000E+00  0.00000000000E+00  0.74713410941E+03  0.74713410941E+03  0.25500000000E-02 0. -1.
         -2   -1    0    0    0  501 -0.00000000000E+00 -0.00000000000E+00 -0.37241166188E+03  0.37241166189E+03  0.25500000000E-02 0.  1.
    8880022    1    1    2    0    0 -0.52379732785E+02  0.26612388539E+03 -0.26447492097E+03  0.40853909926E+03  0.15294330000E+03 0.  0.
    8880022    1    1    2    0    0  0.52379732785E+02 -0.26612388539E+03  0.63919736850E+03  0.71100667204E+03  0.15294330000E+03 0.  0.
<mgrwt>
<rscale>  0 0.31137953E+03</rscale>
<asrwt>0</asrwt>
<pdfrwt beam="1">  1        2 0.11494371E+00 0.31137953E+03</pdfrwt>
<pdfrwt beam="2">  1       -2 0.57294102E-01 0.31137953E+03</pdfrwt>
<totfact> 0.11327491E+02</totfact>
</mgrwt>
</event>
<event>
 4    1  0.4840632E-008  0.2298354E+03  0.7818608E-02  0.1126756E+00
          2   -1    0    0  501    0  0.00000000000E+00  0.00000000000E+00  0.17876549365E+04  0.17876549365E+04  0.25500000000E-02 0. -1.
         -2   -1    0    0    0  501 -0.00000000000E+00 -0.00000000000E+00 -0.11069439525E+03  0.11069439528E+03  0.25500000000E-02 0.  1.
    8880022    1    1    2    0    0  0.76749153268E+02 -0.15343479162E+03  0.16511496705E+04  0.16670691513E+04  0.15294330000E+03 0.  0.
    8880022    1    1    2    0    0 -0.76749153268E+02  0.15343479162E+03  0.25810870708E+02  0.23128018045E+03  0.15294330000E+03 0.  0.
<mgrwt>
<rscale>  0 0.22983542E+03</rscale>
<asrwt>0</asrwt>
<pdfrwt beam="1">  1        2 0.27502382E+00 0.22983542E+03</pdfrwt>
<pdfrwt beam="2">  1       -2 0.17029908E-01 0.22983542E+03</pdfrwt>
<totfact> 0.26970462E+02</totfact>
</mgrwt>
</event>
<event>
 4    1  0.4840632E-008  0.5858336E+03  0.7818608E-02  0.9935241E-01
         -2   -1    0    0    0  501 -0.00000000000E+00  0.00000000000E+00  0.47336360515E+03  0.47336360516E+03  0.25500000000E-02 0.  1.
          2   -1    0    0  501    0  0.00000000000E+00 -0.00000000000E+00 -0.81311594885E+03  0.81311594885E+03  0.25500000000E-02 0. -1.
    8880022    1    1    2    0    0 -0.51893204284E+03  0.22476408181E+03 -0.38159494385E+03  0.69915356807E+03  0.15294330000E+03 0.  0.
    8880022    1    1    2    0    0  0.51893204284E+03 -0.22476408181E+03  0.41842600152E+02  0.58732598594E+03  0.15294330000E+03 0. -1.
<mgrwt>
<rscale>  0 0.58583360E+03</rscale>
<asrwt>0</asrwt>
<pdfrwt beam="1">  1        2 0.12509476E+00 0.58583360E+03</pdfrwt>
<pdfrwt beam="2">  1       -2 0.72825170E-01 0.58583360E+03</pdfrwt>
<totfact> 0.59051359E+01</totfact>
</mgrwt>
</event>
<event>
 4    1  0.4840632E-008  0.6394074E+03  0.7818608E-02  0.9826861E-01
          2   -1    0    0  501    0  0.00000000000E+00  0.00000000000E+00  0.16995537708E+04  0.16995537708E+04  0.25500000000E-02 0. -1.
         -2   -1    0    0    0  501 -0.00000000000E+00 -0.00000000000E+00 -0.87032528158E+03  0.87032528158E+03  0.25500000000E-02 0.  1.
    8880022    1    1    2    0    0 -0.49932320177E+03 -0.36895321616E+03  0.15076436052E+04  0.16376296983E+04  0.15294330000E+03 0.  0.
    8880022    1    1    2    0    0  0.49932320177E+03  0.36895321616E+03 -0.67841511598E+03  0.93224935406E+03  0.15294330000E+03 0.  0.
<mgrwt>
<rscale>  0 0.63940737E+03</rscale>
<asrwt>0</asrwt>
<pdfrwt beam="1">  1        2 0.26146981E+00 0.63940737E+03</pdfrwt>
<pdfrwt beam="2">  1       -2 0.13389620E+00 0.63940737E+03</pdfrwt>
<totfact> 0.41506413E+00</totfact>
</mgrwt>
</event>
<event>
 4    1  0.4840632E-008  0.3941154E+03  0.7818608E-02  0.1045837E+00
          2   -1    0    0  501    0  0.00000000000E+00  0.00000000000E+00  0.69962893687E+03  0.69962893687E+03  0.25500000000E-02 0. -1.
         -2   -1    0    0    0  501 -0.00000000000E+00 -0.00000000000E+00 -0.71045653016E+03  0.71045653016E+03  0.25500000000E-02 0.  1.
    8880022    1    1    2    0    0  0.35380931497E+03 -0.82184130305E+02  0.57917937941E+03  0.70055383033E+03  0.15294330000E+03 0.  0.
    8880022    1    1    2    0    0 -0.35380931497E+03  0.82184130305E+02 -0.59000697270E+03  0.70953163671E+03  0.15294330000E+03 0.  0.
<mgrwt>
<rscale>  0 0.39411536E+03</rscale>
<asrwt>0</asrwt>
<pdfrwt beam="1">  1        2 0.10763522E+00 0.39411536E+03</pdfrwt>
<pdfrwt beam="2">  1       -2 0.10930100E+00 0.39411536E+03</pdfrwt>
<totfact> 0.28909313E+01</totfact>
</mgrwt>
</event>
<event>
 4    1  0.4840632E-008  0.5356590E+03  0.7818608E-02  0.1004869E+00
          2   -1    0    0  501    0  0.00000000000E+00  0.00000000000E+00  0.19352732784E+04  0.19352732784E+04  0.25500000000E-02 0. -1.
         -2   -1    0    0    0  501 -0.00000000000E+00 -0.00000000000E+00 -0.24465788443E+03  0.24465788444E+03  0.25500000000E-02 0.  1.
    8880022    1    1    2    0    0 -0.10460965392E+03  0.50258907198E+03  0.15294694457E+04  0.16205577414E+04  0.15294330000E+03 0.  0.
    8880022    1    1    2    0    0  0.10460965392E+03 -0.50258907198E+03  0.16114594832E+03  0.55937342146E+03  0.15294330000E+03 0.  0.
<mgrwt>
<rscale>  0 0.53565904E+03</rscale>
<asrwt>0</asrwt>
<pdfrwt beam="1">  1        2 0.29773434E+00 0.53565904E+03</pdfrwt>
<pdfrwt beam="2">  1       -2 0.37639676E-01 0.53565904E+03</pdfrwt>
<totfact> 0.51235821E+01</totfact>
</mgrwt>
</event>
<event>
 4    1  0.4840632E-008  0.4091314E+03  0.7818608E-02  0.1040663E+00
          2   -1    0    0  501    0  0.00000000000E+00  0.00000000000E+00  0.86119890104E+03  0.86119890104E+03  0.25500000000E-02 0. -1.
         -2   -1    0    0    0  501 -0.00000000000E+00 -0.00000000000E+00 -0.42710456971E+03  0.42710456972E+03  0.25500000000E-02 0.  1.
    8880022    1    1    2    0    0 -0.35149315067E+03  0.14300148145E+03 -0.25845715335E+03  0.48393037908E+03  0.15294330000E+03 0.  0.
    8880022    1    1    2    0    0  0.35149315067E+03 -0.14300148145E+03  0.69255148468E+03  0.80437309168E+03  0.15294330000E+03 0.  0.
<mgrwt>
<rscale>  0 0.40913141E+03</rscale>
<asrwt>0</asrwt>
<pdfrwt beam="1">  1        2 0.13249214E+00 0.40913141E+03</pdfrwt>
<pdfrwt beam="2">  1       -2 0.65708396E-01 0.40913141E+03</pdfrwt>
<totfact> 0.69741631E+01</totfact>
</mgrwt>
</event>
<event>
 4    1  0.7734570E-008  0.6861356E+03  0.7818608E-02  0.9741240E-01
         -2   -1    0    0    0  501 -0.00000000000E+00  0.00000000000E+00  0.72094024071E+03  0.72094024071E+03  0.25500000000E-02 0.  1.
          2   -1    0    0  501    0  0.00000000000E+00 -0.00000000000E+00 -0.17970055509E+04  0.17970055509E+04  0.25500000000E-02 0. -1.
    8880022    1    1    2    0    0  0.65283879490E+03  0.14557455659E+03  0.46647580587E+03  0.82968775701E+03  0.15294330000E+03 0.  0.
    8880022    1    1    2    0    0 -0.65283879490E+03 -0.14557455659E+03 -0.15425411161E+04  0.16882580346E+04  0.15294330000E+03 0.  0.
<mgrwt>
<rscale>  0 0.68613563E+03</rscale>
<asrwt>0</asrwt>
<pdfrwt beam="1">  1        2 0.27646239E+00 0.68613563E+03</pdfrwt>
<pdfrwt beam="2">  1       -2 0.11091388E+00 0.68613563E+03</pdfrwt>
<totfact> 0.58127696E+00</totfact>
</mgrwt>
</event>
<event>
 4    1  0.4840632E-008  0.2201385E+03  0.7818608E-02  0.1133780E+00
         -2   -1    0    0    0  501 -0.00000000000E+00  0.00000000000E+00  0.85990198892E+02  0.85990198929E+02  0.25500000000E-02 0.  1.
          2   -1    0    0  501    0  0.00000000000E+00 -0.00000000000E+00 -0.20158454519E+04  0.20158454519E+04  0.25500000000E-02 0. -1.
    8880022    1    1    2    0    0  0.15445498667E+03 -0.34827923686E+02 -0.72926222917E+02  0.23190345875E+03  0.15294330000E+03 0.  0.
    8880022    1    1    2    0    0 -0.15445498667E+03  0.34827923686E+02 -0.18569290300E+04  0.18699321920E+04  0.15294330000E+03 0.  0.
<mgrwt>
<rscale>  0 0.22013855E+03</rscale>
<asrwt>0</asrwt>
<pdfrwt beam="1">  1        2 0.31013003E+00 0.22013855E+03</pdfrwt>
<pdfrwt beam="2">  1       -2 0.13229263E-01 0.22013855E+03</pdfrwt>
<totfact> 0.31201252E+02</totfact>
</mgrwt>
</event>
<event>
 4    1  0.4840632E-008  0.2542703E+03  0.7818608E-02  0.1110635E+00
          2   -1    0    0  501    0  0.00000000000E+00  0.00000000000E+00  0.45717808634E+02  0.45717808705E+02  0.25500000000E-02 0. -1.
         -2   -1    0    0    0  501 -0.00000000000E+00 -0.00000000000E+00 -0.28568899368E+04  0.28568899368E+04  0.25500000000E-02 0.  1.
    8880022    1    1    2    0    0  0.19939926880E+03 -0.38751059085E+02 -0.24369230665E+04  0.24501525254E+04  0.15294330000E+03 0.  1.
    8880022    1    1    2    0    0 -0.19939926880E+03  0.38751059085E+02 -0.37424906170E+03  0.45245522008E+03  0.15294330000E+03 0.  0.
<mgrwt>
<rscale>  0 0.25427026E+03</rscale>
<asrwt>0</asrwt>
<pdfrwt beam="1">  1        2 0.70335113E-02 0.25427026E+03</pdfrwt>
<pdfrwt beam="2">  1       -2 0.43952139E+00 0.25427026E+03</pdfrwt>
<totfact> 0.50403031E+00</totfact>
</mgrwt>
</event>
<event>
 4    1  0.4840632E-008  0.6992672E+03  0.7818608E-02  0.9718486E-01
         -2   -1    0    0    0  501 -0.00000000000E+00  0.00000000000E+00  0.56045888559E+03  0.56045888560E+03  0.25500000000E-02 0.  1.
          2   -1    0    0  501    0  0.00000000000E+00 -0.00000000000E+00 -0.20574889358E+04  0.20574889358E+04  0.25500000000E-02 0. -1.
    8880022    1    1    2    0    0 -0.68044961531E+03  0.50708279384E+02  0.24489329294E+03  0.74090983697E+03  0.15294330000E+03 0. -1.
    8880022    1    1    2    0    0  0.68044961531E+03 -0.50708279384E+02 -0.17419233432E+04  0.18770379845E+04  0.15294330000E+03 0.  0.
<mgrwt>
<rscale>  0 0.69926723E+03</rscale>
<asrwt>0</asrwt>
<pdfrwt beam="1">  1        2 0.31653675E+00 0.69926723E+03</pdfrwt>
<pdfrwt beam="2">  1       -2 0.86224445E-01 0.69926723E+03</pdfrwt>
<totfact> 0.75692470E+00</totfact>
</mgrwt>
</event>
<event>
 4    1  0.6946916E-008  0.8589332E+03  0.7818608E-02  0.9478425E-01
         -2   -1    0    0    0  501 -0.00000000000E+00  0.00000000000E+00  0.13517044819E+04  0.13517044819E+04  0.25500000000E-02 0.  1.
          2   -1    0    0  501    0  0.00000000000E+00 -0.00000000000E+00 -0.14225738030E+04  0.14225738030E+04  0.25500000000E-02 0. -1.
    8880022    1    1    2    0    0 -0.53579274073E+02  0.84350684742E+03 -0.11244282604E+04  0.14149576340E+04  0.15294330000E+03 0.  0.
    8880022    1    1    2    0    0  0.53579274073E+02 -0.84350684742E+03  0.10535589393E+04  0.13593206509E+04  0.15294330000E+03 0.  0.
<mgrwt>
<rscale>  0 0.85893317E+03</rscale>
<asrwt>0</asrwt>
<pdfrwt beam="1">  1        2 0.21885751E+00 0.85893317E+03</pdfrwt>
<pdfrwt beam="2">  1       -2 0.20795454E+00 0.85893317E+03</pdfrwt>
<totfact> 0.16808566E+00</totfact>
</mgrwt>
</event>
<event>
 4    1  0.4840632E-008  0.4060186E+03  0.7818608E-02  0.1041715E+00
         -2   -1    0    0    0  501 -0.00000000000E+00  0.00000000000E+00  0.59402318245E+03  0.59402318245E+03  0.25500000000E-02 0.  1.
          2   -1    0    0  501    0  0.00000000000E+00 -0.00000000000E+00 -0.34945669652E+03  0.34945669653E+03  0.25500000000E-02 0. -1.
    8880022    1    1    2    0    0  0.36941681865E+03 -0.70644665267E+02 -0.91755512959E+02  0.41625735046E+03  0.15294330000E+03 0.  0.
    8880022    1    1    2    0    0 -0.36941681865E+03  0.70644665267E+02  0.33632199889E+03  0.52722252853E+03  0.15294330000E+03 0.  0.
<mgrwt>
<rscale>  0 0.40601861E+03</rscale>
<asrwt>0</asrwt>
<pdfrwt beam="1">  1        2 0.53762570E-01 0.40601861E+03</pdfrwt>
<pdfrwt beam="2">  1       -2 0.91388180E-01 0.40601861E+03</pdfrwt>
<totfact> 0.97418708E+01</totfact>
</mgrwt>
</event>
<event>
 4    1  0.4840632E-008  0.4940966E+03  0.7818608E-02  0.1015331E+00
         -2   -1    0    0    0  501 -0.00000000000E+00  0.00000000000E+00  0.92746831036E+03  0.92746831036E+03  0.25500000000E-02 0.  1.
          2   -1    0    0  501    0  0.00000000000E+00 -0.00000000000E+00 -0.33321019594E+03  0.33321019595E+03  0.25500000000E-02 0. -1.
    8880022    1    1    2    0    0 -0.41252626532E+03 -0.22485959018E+03  0.82453063932E+01  0.49416534983E+03  0.15294330000E+03 0. -1.
    8880022    1    1    2    0    0  0.41252626532E+03  0.22485959018E+03  0.58601280802E+03  0.76651315648E+03  0.15294330000E+03 0.  0.
<mgrwt>
<rscale>  0 0.49409656E+03</rscale>
<asrwt>0</asrwt>
<pdfrwt beam="1">  1        2 0.51263108E-01 0.49409656E+03</pdfrwt>
<pdfrwt beam="2">  1       -2 0.14268743E+00 0.49409656E+03</pdfrwt>
<totfact> 0.34490162E+01</totfact>
</mgrwt>
</event>
<event>
 4    1  0.4840632E-008  0.9349995E+03  0.7818608E-02  0.9382858E-01
          2   -1    0    0  501    0  0.00000000000E+00  0.00000000000E+00  0.10992864449E+04  0.10992864449E+04  0.25500000000E-02 0. -1.
         -2   -1    0    0    0  501 -0.00000000000E+00 -0.00000000000E+00 -0.11763039051E+04  0.11763039051E+04  0.25500000000E-02 0.  1.
    8880022    1    1    2    0    0  0.18421902903E+03 -0.90382286194E+03  0.60906460934E+03  0.11158780255E+04  0.15294330000E+03 0.  0.
    8880022    1    1    2    0    0 -0.18421902903E+03  0.90382286194E+03 -0.68608206952E+03  0.11597123245E+04  0.15294330000E+03 0.  0.
<mgrwt>
<rscale>  0 0.93499950E+03</rscale>
<asrwt>0</asrwt>
<pdfrwt beam="1">  1        2 0.16912099E+00 0.93499950E+03</pdfrwt>
<pdfrwt beam="2">  1       -2 0.18096983E+00 0.93499950E+03</pdfrwt>
<totfact> 0.38884352E+00</totfact>
</mgrwt>
</event>
<event>
 4    1  0.4840632E-008  0.6357709E+03  0.7818608E-02  0.9833852E-01
          2   -1    0    0  501    0  0.00000000000E+00  0.00000000000E+00  0.27027378626E+04  0.27027378626E+04  0.25500000000E-02 0. -1.
         -2   -1    0    0    0  501 -0.00000000000E+00 -0.00000000000E+00 -0.36609383232E+03  0.36609383233E+03  0.25500000000E-02 0.  1.
    8880022    1    1    2    0    0  0.53117581162E+03 -0.31411028487E+03  0.23484143422E+04  0.24329518264E+04  0.15294330000E+03 0.  0.
    8880022    1    1    2    0    0 -0.53117581162E+03  0.31411028487E+03 -0.11770311950E+02  0.63587986851E+03  0.15294330000E+03 0.  0.
<mgrwt>
<rscale>  0 0.63577092E+03</rscale>
<asrwt>0</asrwt>
<pdfrwt beam="1">  1        2 0.41580583E+00 0.63577092E+03</pdfrwt>
<pdfrwt beam="2">  1       -2 0.56322128E-01 0.63577092E+03</pdfrwt>
<totfact> 0.84405273E+00</totfact>
</mgrwt>
</event>
<event>
 4    1  0.4840632E-008  0.5889278E+03  0.7818608E-02  0.9928647E-01
         -2   -1    0    0    0  501 -0.00000000000E+00  0.00000000000E+00  0.19589888522E+03  0.19589888523E+03  0.25500000000E-02 0.  1.
          2   -1    0    0  501    0  0.00000000000E+00 -0.00000000000E+00 -0.46650775010E+04  0.46650775010E+04  0.25500000000E-02 0. -1.
    8880022    1    1    2    0    0 -0.55800656938E+03  0.10987691349E+03 -0.41491002170E+04  0.41906883124E+04  0.15294330000E+03 0.  0.
    8880022    1    1    2    0    0  0.55800656938E+03 -0.10987691349E+03 -0.32007839876E+03  0.67028807386E+03  0.15294330000E+03 0.  0.
<mgrwt>
<rscale>  0 0.58892777E+03</rscale>
<asrwt>0</asrwt>
<pdfrwt beam="1">  1        2 0.71770415E+00 0.58892777E+03</pdfrwt>
<pdfrwt beam="2">  1       -2 0.30138293E-01 0.58892777E+03</pdfrwt>
<totfact> 0.10250967E+00</totfact>
</mgrwt>
</event>
<event>
 4    1  0.4840632E-008  0.3368396E+03  0.7818608E-02  0.1068150E+00
         -2   -1    0    0    0  501 -0.00000000000E+00  0.00000000000E+00  0.12699475749E+04  0.12699475749E+04  0.25500000000E-02 0.  1.
          2   -1    0    0  501    0  0.00000000000E+00 -0.00000000000E+00 -0.14330368207E+04  0.14330368207E+04  0.25500000000E-02 0. -1.
    8880022    1    1    2    0    0  0.66597030100E+02  0.29263305119E+03  0.12271400887E+04  0.12725304387E+04  0.15294330000E+03 0.  0.
    8880022    1    1    2    0    0 -0.66597030100E+02 -0.29263305119E+03 -0.13902293346E+04  0.14304539569E+04  0.15294330000E+03 0. -1.
<mgrwt>
<rscale>  0 0.33683961E+03</rscale>
<asrwt>0</asrwt>
<pdfrwt beam="1">  1        2 0.22046720E+00 0.33683961E+03</pdfrwt>
<pdfrwt beam="2">  1       -2 0.19537655E+00 0.33683961E+03</pdfrwt>
<totfact> 0.22643917E+00</totfact>
</mgrwt>
</event>
<event>
 4    1  0.4840632E-008  0.3531646E+03  0.7818608E-02  0.1061324E+00
          2   -1    0    0  501    0  0.00000000000E+00  0.00000000000E+00  0.29409438488E+04  0.29409438488E+04  0.25500000000E-02 0. -1.
         -2   -1    0    0    0  501 -0.00000000000E+00 -0.00000000000E+00 -0.63326043897E+02  0.63326043949E+02  0.25500000000E-02 0.  1.
    8880022    1    1    2    0    0  0.18257773876E+03  0.26076608255E+03  0.23021019280E+04  0.23290338169E+04  0.15294330000E+03 0. -1.
    8880022    1    1    2    0    0 -0.18257773876E+03 -0.26076608255E+03  0.57551587690E+03  0.67523607581E+03  0.15294330000E+03 0.  0.
<mgrwt>
<rscale>  0 0.35316460E+03</rscale>
<asrwt>0</asrwt>
<pdfrwt beam="1">  1        2 0.45245279E+00 0.35316460E+03</pdfrwt>
<pdfrwt beam="2">  1       -2 0.97424706E-02 0.35316460E+03</pdfrwt>
<totfact> 0.15286274E+02</totfact>
</mgrwt>
</event>
<event>
 4    1  0.4840632E-008  0.1355481E+04  0.7818608E-02  0.8986689E-01
         -2   -1    0    0    0  501 -0.00000000000E+00  0.00000000000E+00  0.12349505144E+04  0.12349505144E+04  0.25500000000E-02 0.  1.
          2   -1    0    0  501    0  0.00000000000E+00 -0.00000000000E+00 -0.18165608863E+04  0.18165608863E+04  0.25500000000E-02 0. -1.
    8880022    1    1    2    0    0  0.31059053338E+03 -0.13105229253E+04 -0.93991267793E+03  0.16494739502E+04  0.15294330000E+03 0.  0.
    8880022    1    1    2    0    0 -0.31059053338E+03  0.13105229253E+04  0.35830230596E+03  0.14020374505E+04  0.15294330000E+03 0.  0.
<mgrwt>
<rscale>  0 0.13554809E+04</rscale>
<asrwt>0</asrwt>
<pdfrwt beam="1">  1        2 0.27947091E+00 0.13554809E+04</pdfrwt>
<pdfrwt beam="2">  1       -2 0.18999239E+00 0.13554809E+04</pdfrwt>
<totfact> 0.12496374E+00</totfact>
</mgrwt>
</event>
<event>
 4    1  0.4840632E-008  0.5671289E+03  0.7818608E-02  0.9976052E-01
          2   -1    0    0  501    0  0.00000000000E+00  0.00000000000E+00  0.19491719628E+04  0.19491719628E+04  0.25500000000E-02 0. -1.
         -2   -1    0    0    0  501 -0.00000000000E+00 -0.00000000000E+00 -0.25474773824E+03  0.25474773825E+03  0.25500000000E-02 0.  1.
    8880022    1    1    2    0    0  0.39158254558E+03 -0.38066600595E+03  0.19318564270E+03  0.59912923785E+03  0.15294330000E+03 0.  0.
    8880022    1    1    2    0    0 -0.39158254558E+03  0.38066600595E+03  0.15012385819E+04  0.16047904632E+04  0.15294330000E+03 0.  0.
<mgrwt>
<rscale>  0 0.56712887E+03</rscale>
<asrwt>0</asrwt>
<pdfrwt beam="1">  1        2 0.29987260E+00 0.56712887E+03</pdfrwt>
<pdfrwt beam="2">  1       -2 0.39191960E-01 0.56712887E+03</pdfrwt>
<totfact> 0.46347310E+01</totfact>
</mgrwt>
</event>
<event>
 4    1  0.4840632E-008  0.2038796E+04  0.7818608E-02  0.8588694E-01
          2   -1    0    0  501    0  0.00000000000E+00  0.00000000000E+00  0.41181313684E+04  0.41181313684E+04  0.25500000000E-02 0. -1.
         -2   -1    0    0    0  501 -0.00000000000E+00 -0.00000000000E+00 -0.10441083823E+04  0.10441083823E+04  0.25500000000E-02 0.  1.
    8880022    1    1    2    0    0 -0.79078789988E+03 -0.18729527868E+04  0.10661597999E+04  0.23007359727E+04  0.15294330000E+03 0.  0.
    8880022    1    1    2    0    0  0.79078789988E+03  0.18729527868E+04  0.20078631862E+04  0.28615037780E+04  0.15294330000E+03 0.  0.
<mgrwt>
<rscale>  0 0.20387960E+04</rscale>
<asrwt>0</asrwt>
<pdfrwt beam="1">  1        2 0.63355868E+00 0.20387960E+04</pdfrwt>
<pdfrwt beam="2">  1       -2 0.16063206E+00 0.20387960E+04</pdfrwt>
<totfact> 0.61289812E-02</totfact>
</mgrwt>
</event>
<event>
 4    1  0.4840632E-008  0.2996873E+03  0.7818608E-02  0.1085397E+00
          2   -1    0    0  501    0  0.00000000000E+00  0.00000000000E+00  0.78589897386E+03  0.78589897386E+03  0.25500000000E-02 0. -1.
         -2   -1    0    0    0  501 -0.00000000000E+00 -0.00000000000E+00 -0.37925114398E+03  0.37925114398E+03  0.25500000000E-02 0.  1.
    8880022    1    1    2    0    0 -0.16259242826E+03 -0.19996125317E+03 -0.28362994544E+03  0.41262379896E+03  0.15294330000E+03 0.  0.
    8880022    1    1    2    0    0  0.16259242826E+03  0.19996125317E+03  0.69027777532E+03  0.75252631889E+03  0.15294330000E+03 0.  0.
<mgrwt>
<rscale>  0 0.29968726E+03</rscale>
<asrwt>0</asrwt>
<pdfrwt beam="1">  1        2 0.12090753E+00 0.29968726E+03</pdfrwt>
<pdfrwt beam="2">  1       -2 0.58346331E-01 0.29968726E+03</pdfrwt>
<totfact> 0.10251579E+02</totfact>
</mgrwt>
</event>
<event>
 4    1  0.4840632E-008  0.4207475E+03  0.7818608E-02  0.1036823E+00
         -2   -1    0    0    0  501 -0.00000000000E+00  0.00000000000E+00  0.51566563916E+03  0.51566563917E+03  0.25500000000E-02 0.  1.
          2   -1    0    0  501    0  0.00000000000E+00 -0.00000000000E+00 -0.22494434055E+04  0.22494434055E+04  0.25500000000E-02 0. -1.
    8880022    1    1    2    0    0 -0.18186970996E+03 -0.34721786938E+03 -0.21395782369E+04  0.21805557835E+04  0.15294330000E+03 0.  0.
    8880022    1    1    2    0    0  0.18186970996E+03  0.34721786938E+03  0.40580047055E+03  0.58455326116E+03  0.15294330000E+03 0.  0.
<mgrwt>
<rscale>  0 0.42074754E+03</rscale>
<asrwt>0</asrwt>
<pdfrwt beam="1">  1        2 0.34606821E+00 0.42074754E+03</pdfrwt>
<pdfrwt beam="2">  1       -2 0.79333177E-01 0.42074754E+03</pdfrwt>
<totfact> 0.76470908E+00</totfact>
</mgrwt>
</event>
<event>
 4    1  0.4840632E-008  0.2557061E+03  0.7818608E-02  0.1109751E+00
         -2   -1    0    0    0  501 -0.00000000000E+00  0.00000000000E+00  0.12992402779E+03  0.12992402782E+03  0.25500000000E-02 0.  1.
          2   -1    0    0  501    0  0.00000000000E+00 -0.00000000000E+00 -0.21073787872E+04  0.21073787872E+04  0.25500000000E-02 0. -1.
    8880022    1    1    2    0    0 -0.13555682449E+03  0.15368247748E+03 -0.19647091117E+04  0.19812792592E+04  0.15294330000E+03 0.  0.
    8880022    1    1    2    0    0  0.13555682449E+03 -0.15368247748E+03 -0.12745647699E+02  0.25602355575E+03  0.15294330000E+03 0.  0.
<mgrwt>
<rscale>  0 0.25570610E+03</rscale>
<asrwt>0</asrwt>
<pdfrwt beam="1">  1        2 0.32421210E+00 0.25570610E+03</pdfrwt>
<pdfrwt beam="2">  1       -2 0.19988313E-01 0.25570610E+03</pdfrwt>
<totfact> 0.13877356E+02</totfact>
</mgrwt>
</event>
<event>
 4    1  0.4840632E-008  0.2854479E+03  0.7818608E-02  0.1092750E+00
         -2   -1    0    0    0  501 -0.00000000000E+00  0.00000000000E+00  0.15161639593E+03  0.15161639595E+03  0.25500000000E-02 0.  1.
          2   -1    0    0  501    0  0.00000000000E+00 -0.00000000000E+00 -0.20377478424E+04  0.20377478424E+04  0.25500000000E-02 0. -1.
    8880022    1    1    2    0    0  0.22976679200E+03 -0.72774158790E+02 -0.18823715319E+04  0.19038915657E+04  0.15294330000E+03 0. -1.
    8880022    1    1    2    0    0 -0.22976679200E+03  0.72774158790E+02 -0.37599146447E+01  0.28547267271E+03  0.15294330000E+03 0.  0.
<mgrwt>
<rscale>  0 0.28544791E+03</rscale>
<asrwt>0</asrwt>
<pdfrwt beam="1">  1        2 0.31349965E+00 0.28544791E+03</pdfrwt>
<pdfrwt beam="2">  1       -2 0.23325601E-01 0.28544791E+03</pdfrwt>
<totfact> 0.11454702E+02</totfact>
</mgrwt>
</event>
<event>
 4    1  0.4840632E-008  0.9493572E+03  0.7818608E-02  0.9365902E-01
          2   -1    0    0  501    0  0.00000000000E+00  0.00000000000E+00  0.51809600459E+04  0.51809600459E+04  0.25500000000E-02 0. -1.
         -2   -1    0    0    0  501 -0.00000000000E+00 -0.00000000000E+00 -0.29361606715E+03  0.29361606716E+03  0.25500000000E-02 0.  1.
    8880022    1    1    2    0    0  0.13643022016E+02  0.93685712109E+03  0.41910956907E+04  0.42972738031E+04  0.15294330000E+03 0.  0.
    8880022    1    1    2    0    0 -0.13643022016E+02 -0.93685712109E+03  0.69624828809E+03  0.11773023100E+04  0.15294330000E+03 0.  0.
<mgrwt>
<rscale>  0 0.94935718E+03</rscale>
<asrwt>0</asrwt>
<pdfrwt beam="1">  1        2 0.79707074E+00 0.94935718E+03</pdfrwt>
<pdfrwt beam="2">  1       -2 0.45171705E-01 0.94935718E+03</pdfrwt>
<totfact> 0.10336386E-01</totfact>
</mgrwt>
</event>
<event>
 4    1  0.4840632E-008  0.6351779E+03  0.7818608E-02  0.9834996E-01
          2   -1    0    0  501    0  0.00000000000E+00  0.00000000000E+00  0.17013970717E+04  0.17013970717E+04  0.25500000000E-02 0. -1.
         -2   -1    0    0    0  501 -0.00000000000E+00 -0.00000000000E+00 -0.27336840578E+03  0.27336840580E+03  0.25500000000E-02 0.  1.
    8880022    1    1    2    0    0  0.47000259577E+03  0.39894474722E+03  0.35451306046E+03  0.72741357866E+03  0.15294330000E+03 0.  0.
    8880022    1    1    2    0    0 -0.47000259577E+03 -0.39894474722E+03  0.10735156054E+04  0.12473518988E+04  0.15294330000E+03 0.  0.
<mgrwt>
<rscale>  0 0.63517793E+03</rscale>
<asrwt>0</asrwt>
<pdfrwt beam="1">  1        2 0.26175339E+00 0.63517793E+03</pdfrwt>
<pdfrwt beam="2">  1       -2 0.42056678E-01 0.63517793E+03</pdfrwt>
<totfact> 0.54474518E+01</totfact>
</mgrwt>
</event>
<event>
 4    1  0.4840632E-008  0.9942015E+03  0.7818608E-02  0.9314927E-01
          2   -1    0    0  501    0  0.00000000000E+00  0.00000000000E+00  0.72655308629E+03  0.72655308630E+03  0.25500000000E-02 0. -1.
         -2   -1    0    0    0  501 -0.00000000000E+00 -0.00000000000E+00 -0.25893503424E+04  0.25893503425E+04  0.25500000000E-02 0.  1.
    8880022    1    1    2    0    0  0.83591695792E+03 -0.51603081908E+03 -0.20735809069E+04  0.22996030956E+04  0.15294330000E+03 0.  0.
    8880022    1    1    2    0    0 -0.83591695792E+03  0.51603081908E+03  0.21078365072E+03  0.10163003332E+04  0.15294330000E+03 0.  0.
<mgrwt>
<rscale>  0 0.99420150E+03</rscale>
<asrwt>0</asrwt>
<pdfrwt beam="1">  1        2 0.11177740E+00 0.99420150E+03</pdfrwt>
<pdfrwt beam="2">  1       -2 0.39836159E+00 0.99420150E+03</pdfrwt>
<totfact> 0.30286448E-01</totfact>
</mgrwt>
</event>
<event>
 4    1  0.4840632E-008  0.1794591E+03  0.7818608E-02  0.1168328E+00
         -2   -1    0    0    0  501 -0.00000000000E+00  0.00000000000E+00  0.74104876389E+03  0.74104876389E+03  0.25500000000E-02 0.  1.
          2   -1    0    0  501    0  0.00000000000E+00 -0.00000000000E+00 -0.19415985194E+03  0.19415985195E+03  0.25500000000E-02 0. -1.
    8880022    1    1    2    0    0 -0.93855430151E+02 -0.22560797046E+01 -0.13851641491E+03  0.22669887931E+03  0.15294330000E+03 0. -1.
    8880022    1    1    2    0    0  0.93855430151E+02  0.22560797046E+01  0.68540532686E+03  0.70850973654E+03  0.15294330000E+03 0.  0.
<mgrwt>
<rscale>  0 0.17945914E+03</rscale>
<asrwt>0</asrwt>
<pdfrwt beam="1">  1        2 0.29870746E-01 0.17945914E+03</pdfrwt>
<pdfrwt beam="2">  1       -2 0.11400750E+00 0.17945914E+03</pdfrwt>
<totfact> 0.11237135E+02</totfact>
</mgrwt>
</event>
<event>
 4    1  0.4840632E-008  0.1831085E+04  0.7818608E-02  0.8689941E-01
         -2   -1    0    0    0  501 -0.00000000000E+00  0.00000000000E+00  0.18824391394E+04  0.18824391394E+04  0.25500000000E-02 0.  1.
          2   -1    0    0  501    0  0.00000000000E+00 -0.00000000000E+00 -0.38789880566E+04  0.38789880566E+04  0.25500000000E-02 0. -1.
    8880022    1    1    2    0    0 -0.11659143691E+04  0.14036118062E+04 -0.31167752126E+04  0.36148529428E+04  0.15294330000E+03 0.  0.
    8880022    1    1    2    0    0  0.11659143691E+04 -0.14036118062E+04  0.11202262954E+04  0.21465742532E+04  0.15294330000E+03 0.  0.
<mgrwt>
<rscale>  0 0.18310855E+04</rscale>
<asrwt>0</asrwt>
<pdfrwt beam="1">  1        2 0.59676739E+00 0.18310855E+04</pdfrwt>
<pdfrwt beam="2">  1       -2 0.28960602E+00 0.18310855E+04</pdfrwt>
<totfact> 0.14232812E-02</totfact>
</mgrwt>
</event>
<event>
 4    1  0.4840632E-008  0.2565337E+03  0.7818608E-02  0.1109244E+00
         -2   -1    0    0    0  501 -0.00000000000E+00  0.00000000000E+00  0.18308868442E+04  0.18308868442E+04  0.25500000000E-02 0.  1.
          2   -1    0    0  501    0  0.00000000000E+00 -0.00000000000E+00 -0.84671816442E+03  0.84671816442E+03  0.25500000000E-02 0. -1.
    8880022    1    1    2    0    0 -0.14232898881E+03 -0.14886346219E+03 -0.81799322588E+03  0.85727617606E+03  0.15294330000E+03 0.  0.
    8880022    1    1    2    0    0  0.14232898881E+03  0.14886346219E+03  0.18021619057E+04  0.18203288326E+04  0.15294330000E+03 0.  1.
<mgrwt>
<rscale>  0 0.25653367E+03</rscale>
<asrwt>0</asrwt>
<pdfrwt beam="1">  1        2 0.13026433E+00 0.25653367E+03</pdfrwt>
<pdfrwt beam="2">  1       -2 0.28167490E+00 0.25653367E+03</pdfrwt>
<totfact> 0.15780501E+00</totfact>
</mgrwt>
</event>
<event>
 4    1  0.4840632E-008  0.6321726E+03  0.7818608E-02  0.9840818E-01
         -2   -1    0    0    0  501 -0.00000000000E+00  0.00000000000E+00  0.49956592617E+03  0.49956592618E+03  0.25500000000E-02 0.  1.
          2   -1    0    0  501    0  0.00000000000E+00 -0.00000000000E+00 -0.26494036166E+04  0.26494036166E+04  0.25500000000E-02 0. -1.
    8880022    1    1    2    0    0  0.19067604493E+03  0.58300354569E+03  0.24055659587E+03  0.67639457215E+03  0.15294330000E+03 0.  0.
    8880022    1    1    2    0    0 -0.19067604493E+03 -0.58300354569E+03 -0.23903942863E+04  0.24725749706E+04  0.15294330000E+03 0.  0.
<mgrwt>
<rscale>  0 0.63217256E+03</rscale>
<asrwt>0</asrwt>
<pdfrwt beam="1">  1        2 0.40760055E+00 0.63217256E+03</pdfrwt>
<pdfrwt beam="2">  1       -2 0.76856298E-01 0.63217256E+03</pdfrwt>
<totfact> 0.46485134E+00</totfact>
</mgrwt>
</event>
<event>
 4    1  0.4840632E-008  0.7574242E+03  0.7818608E-02  0.9623774E-01
          2   -1    0    0  501    0  0.00000000000E+00  0.00000000000E+00  0.23585554197E+04  0.23585554197E+04  0.25500000000E-02 0. -1.
         -2   -1    0    0    0  501 -0.00000000000E+00 -0.00000000000E+00 -0.36968420986E+03  0.36968420987E+03  0.25500000000E-02 0.  1.
    8880022    1    1    2    0    0 -0.73351354004E+03  0.11071417455E+03  0.17922266919E+04  0.19457049905E+04  0.15294330000E+03 0.  0.
    8880022    1    1    2    0    0  0.73351354004E+03 -0.11071417455E+03  0.19664451793E+03  0.78253463905E+03  0.15294330000E+03 0.  0.
<mgrwt>
<rscale>  0 0.75742418E+03</rscale>
<asrwt>0</asrwt>
<pdfrwt beam="1">  1        2 0.36285467E+00 0.75742418E+03</pdfrwt>
<pdfrwt beam="2">  1       -2 0.56874495E-01 0.75742418E+03</pdfrwt>
<totfact> 0.12691844E+01</totfact>
</mgrwt>
</event>
<event>
 4    1  0.4840632E-008  0.1548388E+03  0.7818608E-02  0.1194650E+00
         -2   -1    0    0    0  501 -0.00000000000E+00  0.00000000000E+00  0.65464395772E+02  0.65464395822E+02  0.25500000000E-02 0.  1.
          2   -1    0    0  501    0  0.00000000000E+00 -0.00000000000E+00 -0.11223882940E+04  0.11223882940E+04  0.25500000000E-02 0. -1.
    8880022    1    1    2    0    0 -0.52823596851E+00 -0.24148144596E+02 -0.10159536351E+04  0.10276851919E+04  0.15294330000E+03 0. -1.
    8880022    1    1    2    0    0  0.52823596851E+00  0.24148144596E+02 -0.40970263119E+02  0.16016749794E+03  0.15294330000E+03 0.  0.
<mgrwt>
<rscale>  0 0.15483884E+03</rscale>
<asrwt>0</asrwt>
<pdfrwt beam="1">  1        2 0.17267511E+00 0.15483884E+03</pdfrwt>
<pdfrwt beam="2">  1       -2 0.10071446E-01 0.15483884E+03</pdfrwt>
<totfact> 0.14559534E+03</totfact>
</mgrwt>
</event>
<event>
 4    1  0.4840632E-008  0.2935855E+03  0.7818608E-02  0.1088492E+00
         -2   -1    0    0    0  501 -0.00000000000E+00  0.00000000000E+00  0.91837205843E+03  0.91837205843E+03  0.25500000000E-02 0.  1.
          2   -1    0    0  501    0  0.00000000000E+00 -0.00000000000E+00 -0.30484136529E+03  0.30484136530E+03  0.25500000000E-02 0. -1.
    8880022    1    1    2    0    0 -0.21188714110E+03 -0.13380827156E+03 -0.20205444233E+03  0.35639649940E+03  0.15294330000E+03 0.  0.
    8880022    1    1    2    0    0  0.21188714110E+03  0.13380827156E+03  0.81558513547E+03  0.86681692433E+03  0.15294330000E+03 0.  1.
<mgrwt>
<rscale>  0 0.29358554E+03</rscale>
<asrwt>0</asrwt>
<pdfrwt beam="1">  1        2 0.46898671E-01 0.29358554E+03</pdfrwt>
<pdfrwt beam="2">  1       -2 0.14128801E+00 0.29358554E+03</pdfrwt>
<totfact> 0.39976514E+01</totfact>
</mgrwt>
</event>
<event>
 4    1  0.4840632E-008  0.3486999E+03  0.7818608E-02  0.1063150E+00
          2   -1    0    0  501    0  0.00000000000E+00  0.00000000000E+00  0.19046658654E+04  0.19046658654E+04  0.25500000000E-02 0. -1.
         -2   -1    0    0    0  501 -0.00000000000E+00 -0.00000000000E+00 -0.13154128220E+03  0.13154128223E+03  0.25500000000E-02 0.  1.
    8880022    1    1    2    0    0 -0.10025797229E+03 -0.29689781954E+03  0.15615828829E+03  0.38206941813E+03  0.15294330000E+03 0.  0.
    8880022    1    1    2    0    0  0.10025797229E+03  0.29689781954E+03  0.16169662949E+04  0.16541377295E+04  0.15294330000E+03 0. -1.
<mgrwt>
<rscale>  0 0.34869991E+03</rscale>
<asrwt>0</asrwt>
<pdfrwt beam="1">  1        2 0.29302552E+00 0.34869991E+03</pdfrwt>
<pdfrwt beam="2">  1       -2 0.20237121E-01 0.34869991E+03</pdfrwt>
<totfact> 0.17001248E+02</totfact>
</mgrwt>
</event>
<event>
 4    1  0.4840632E-008  0.2338621E+03  0.7818608E-02  0.1123951E+00
          2   -1    0    0  501    0  0.00000000000E+00  0.00000000000E+00  0.19355962682E+04  0.19355962682E+04  0.25500000000E-02 0. -1.
         -2   -1    0    0    0  501 -0.00000000000E+00 -0.00000000000E+00 -0.20737999766E+03  0.20737999768E+03  0.25500000000E-02 0.  1.
    8880022    1    1    2    0    0  0.14596212200E+03 -0.99974476913E+02  0.18599291093E+04  0.18745740267E+04  0.15294330000E+03 0.  0.
    8880022    1    1    2    0    0 -0.14596212200E+03  0.99974476913E+02 -0.13171283873E+03  0.26840223918E+03  0.15294330000E+03 0.  1.
<mgrwt>
<rscale>  0 0.23386212E+03</rscale>
<asrwt>0</asrwt>
<pdfrwt beam="1">  1        2 0.29778404E+00 0.23386212E+03</pdfrwt>
<pdfrwt beam="2">  1       -2 0.31904615E-01 0.23386212E+03</pdfrwt>
<totfact> 0.75098401E+01</totfact>
</mgrwt>
</event>
<event>
 4    1  0.4840632E-008  0.1067185E+04  0.7818608E-02  0.9237779E-01
          2   -1    0    0  501    0  0.00000000000E+00  0.00000000000E+00  0.37532941574E+04  0.37532941574E+04  0.25500000000E-02 0. -1.
         -2   -1    0    0    0  501 -0.00000000000E+00 -0.00000000000E+00 -0.50356880692E+03  0.50356880692E+03  0.25500000000E-02 0.  1.
    8880022    1    1    2    0    0 -0.10452529744E+04  0.15145545248E+03  0.28305733338E+03  0.11040858851E+04  0.15294330000E+03 0.  0.
    8880022    1    1    2    0    0  0.10452529744E+04 -0.15145545248E+03  0.29666680171E+04  0.31527770792E+04  0.15294330000E+03 0.  0.
<mgrwt>
<rscale>  0 0.10671852E+04</rscale>
<asrwt>0</asrwt>
<pdfrwt beam="1">  1        2 0.57742989E+00 0.10671852E+04</pdfrwt>
<pdfrwt beam="2">  1       -2 0.77472122E-01 0.10671852E+04</pdfrwt>
<totfact> 0.81633818E-01</totfact>
</mgrwt>
</event>
<event>
 4    1  0.4840632E-008  0.7566106E+03  0.7818608E-02  0.9625036E-01
          2   -1    0    0  501    0  0.00000000000E+00  0.00000000000E+00  0.12561517786E+04  0.12561517786E+04  0.25500000000E-02 0. -1.
         -2   -1    0    0    0  501 -0.00000000000E+00 -0.00000000000E+00 -0.86056797011E+03  0.86056797012E+03  0.25500000000E-02 0.  1.
    8880022    1    1    2    0    0  0.54658560445E+03  0.50031206478E+03 -0.52812036081E+03  0.92269754182E+03  0.15294330000E+03 0.  0.
    8880022    1    1    2    0    0 -0.54658560445E+03 -0.50031206478E+03  0.92370416927E+03  0.11940222069E+04  0.15294330000E+03 0.  0.
<mgrwt>
<rscale>  0 0.75661063E+03</rscale>
<asrwt>0</asrwt>
<pdfrwt beam="1">  1        2 0.19325412E+00 0.75661063E+03</pdfrwt>
<pdfrwt beam="2">  1       -2 0.13239507E+00 0.75661063E+03</pdfrwt>
<totfact> 0.74201196E+00</totfact>
</mgrwt>
</event>
<event>
 4    1  0.4840632E-008  0.1014230E+04  0.7818608E-02  0.9293074E-01
         -2   -1    0    0    0  501 -0.00000000000E+00  0.00000000000E+00  0.83017670786E+03  0.83017670786E+03  0.25500000000E-02 0.  1.
          2   -1    0    0  501    0  0.00000000000E+00 -0.00000000000E+00 -0.21779159821E+04  0.21779159821E+04  0.25500000000E-02 0. -1.
    8880022    1    1    2    0    0 -0.91239274222E+03  0.41570510245E+03 -0.16613612560E+04  0.19464799316E+04  0.15294330000E+03 0.  0.
    8880022    1    1    2    0    0  0.91239274222E+03 -0.41570510245E+03  0.31362198174E+03  0.10616127584E+04  0.15294330000E+03 0.  0.
<mgrwt>
<rscale>  0 0.10142302E+04</rscale>
<asrwt>0</asrwt>
<pdfrwt beam="1">  1        2 0.33506399E+00 0.10142302E+04</pdfrwt>
<pdfrwt beam="2">  1       -2 0.12771949E+00 0.10142302E+04</pdfrwt>
<totfact> 0.24114276E+00</totfact>
</mgrwt>
</event>
<event>
 4    1  0.4840632E-008  0.2411684E+03  0.7818608E-02  0.1119017E+00
         -2   -1    0    0    0  501 -0.00000000000E+00  0.00000000000E+00  0.72147765445E+03  0.72147765446E+03  0.25500000000E-02 0.  1.
          2   -1    0    0  501    0  0.00000000000E+00 -0.00000000000E+00 -0.58327963977E+03  0.58327963977E+03  0.25500000000E-02 0. -1.
    8880022    1    1    2    0    0  0.10767992941E+03 -0.15223524656E+03  0.67471918432E+03  0.71652506460E+03  0.15294330000E+03 0.  0.
    8880022    1    1    2    0    0 -0.10767992941E+03  0.15223524656E+03 -0.53652116963E+03  0.58823222963E+03  0.15294330000E+03 0.  0.
<mgrwt>
<rscale>  0 0.24116839E+03</rscale>
<asrwt>0</asrwt>
<pdfrwt beam="1">  1        2 0.89735329E-01 0.24116839E+03</pdfrwt>
<pdfrwt beam="2">  1       -2 0.11099656E+00 0.24116839E+03</pdfrwt>
<totfact> 0.35668234E+01</totfact>
</mgrwt>
</event>
<event>
 4    1  0.4840632E-008  0.4132189E+03  0.7818608E-02  0.1039296E+00
          2   -1    0    0  501    0  0.00000000000E+00  0.00000000000E+00  0.95425952472E+03  0.95425952473E+03  0.25500000000E-02 0. -1.
         -2   -1    0    0    0  501 -0.00000000000E+00 -0.00000000000E+00 -0.20615503605E+03  0.20615503607E+03  0.25500000000E-02 0.  1.
    8880022    1    1    2    0    0 -0.32276999868E+03  0.20779247749E+03  0.58488373251E+03  0.71612765574E+03  0.15294330000E+03 0.  0.
    8880022    1    1    2    0    0  0.32276999868E+03 -0.20779247749E+03  0.16322075617E+03  0.44428690506E+03  0.15294330000E+03 0.  0.
<mgrwt>
<rscale>  0 0.41321888E+03</rscale>
<asrwt>0</asrwt>
<pdfrwt beam="1">  1        2 0.14680915E+00 0.41321888E+03</pdfrwt>
<pdfrwt beam="2">  1       -2 0.31716160E-01 0.41321888E+03</pdfrwt>
<totfact> 0.25713268E+02</totfact>
</mgrwt>
</event>
<event>
 4    1  0.4840632E-008  0.8291190E+03  0.7818608E-02  0.9518799E-01
          2   -1    0    0  501    0  0.00000000000E+00  0.00000000000E+00  0.13362637460E+04  0.13362637460E+04  0.25500000000E-02 0. -1.
         -2   -1    0    0    0  501 -0.00000000000E+00 -0.00000000000E+00 -0.21619467610E+04  0.21619467610E+04  0.25500000000E-02 0.  1.
    8880022    1    1    2    0    0  0.11298795323E+03 -0.80701946733E+03 -0.19397252861E+04  0.21094958016E+04  0.15294330000E+03 0.  0.
    8880022    1    1    2    0    0 -0.11298795323E+03  0.80701946733E+03  0.11140422711E+04  0.13887147054E+04  0.15294330000E+03 0.  0.
<mgrwt>
<rscale>  0 0.82911902E+03</rscale>
<asrwt>0</asrwt>
<pdfrwt beam="1">  1        2 0.20557904E+00 0.82911902E+03</pdfrwt>
<pdfrwt beam="2">  1       -2 0.33260719E+00 0.82911902E+03</pdfrwt>
<totfact> 0.32814199E-01</totfact>
</mgrwt>
</event>
<event>
 4    1  0.4840632E-008  0.4210466E+03  0.7818608E-02  0.1036726E+00
         -2   -1    0    0    0  501 -0.00000000000E+00  0.00000000000E+00  0.11629177221E+03  0.11629177224E+03  0.25500000000E-02 0.  1.
          2   -1    0    0  501    0  0.00000000000E+00 -0.00000000000E+00 -0.29154903498E+04  0.29154903498E+04  0.25500000000E-02 0. -1.
    8880022    1    1    2    0    0 -0.17099227728E+03  0.35305833387E+03 -0.35251144801E+03  0.54913069482E+03  0.15294330000E+03 0.  0.
    8880022    1    1    2    0    0  0.17099227728E+03 -0.35305833387E+03 -0.24466871296E+04  0.24826514272E+04  0.15294330000E+03 0.  0.
<mgrwt>
<rscale>  0 0.42104655E+03</rscale>
<asrwt>0</asrwt>
<pdfrwt beam="1">  1        2 0.44853692E+00 0.42104655E+03</pdfrwt>
<pdfrwt beam="2">  1       -2 0.17891044E-01 0.42104655E+03</pdfrwt>
<totfact> 0.57020189E+01</totfact>
</mgrwt>
</event>
<event>
 4    1  0.5466187E-008  0.6166871E+03  0.7818608E-02  0.9871378E-01
         -2   -1    0    0    0  501 -0.00000000000E+00  0.00000000000E+00  0.77419945143E+03  0.77419945144E+03  0.25500000000E-02 0.  1.
          2   -1    0    0  501    0  0.00000000000E+00 -0.00000000000E+00 -0.18598987895E+04  0.18598987895E+04  0.25500000000E-02 0. -1.
    8880022    1    1    2    0    0  0.12178457042E+03 -0.58487595769E+03  0.58696687093E+03  0.85137132208E+03  0.15294330000E+03 0.  0.
    8880022    1    1    2    0    0 -0.12178457042E+03  0.58487595769E+03 -0.16726662090E+04  0.17827269189E+04  0.15294330000E+03 0.  0.
<mgrwt>
<rscale>  0 0.61668713E+03</rscale>
<asrwt>0</asrwt>
<pdfrwt beam="1">  1        2 0.28613827E+00 0.61668713E+03</pdfrwt>
<pdfrwt beam="2">  1       -2 0.11910761E+00 0.61668713E+03</pdfrwt>
<totfact> 0.45750489E+00</totfact>
</mgrwt>
</event>
<event>
 4    1  0.4840632E-008  0.3782445E+03  0.7818608E-02  0.1051584E+00
         -2   -1    0    0    0  501 -0.00000000000E+00  0.00000000000E+00  0.97288395001E+03  0.97288395001E+03  0.25500000000E-02 0.  1.
          2   -1    0    0  501    0  0.00000000000E+00 -0.00000000000E+00 -0.53409088044E+03  0.53409088045E+03  0.25500000000E-02 0. -1.
    8880022    1    1    2    0    0  0.34590130090E+03  0.54382808328E+01 -0.42202446978E+03  0.56672179327E+03  0.15294330000E+03 0.  0.
    8880022    1    1    2    0    0 -0.34590130090E+03 -0.54382808328E+01  0.86081753935E+03  0.94025303718E+03  0.15294330000E+03 0.  0.
<mgrwt>
<rscale>  0 0.37824455E+03</rscale>
<asrwt>0</asrwt>
<pdfrwt beam="1">  1        2 0.82167829E-01 0.37824455E+03</pdfrwt>
<pdfrwt beam="2">  1       -2 0.14967445E+00 0.37824455E+03</pdfrwt>
<totfact> 0.18248046E+01</totfact>
</mgrwt>
</event>
<event>
 4    1  0.4840632E-008  0.4588305E+03  0.7818608E-02  0.1025121E+00
          2   -1    0    0  501    0  0.00000000000E+00  0.00000000000E+00  0.72342521437E+03  0.72342521437E+03  0.25500000000E-02 0. -1.
         -2   -1    0    0    0  501 -0.00000000000E+00 -0.00000000000E+00 -0.34298401082E+03  0.34298401083E+03  0.25500000000E-02 0.  1.
    8880022    1    1    2    0    0 -0.40099772522E+03  0.16227945498E+03  0.39777958646E+03  0.60725122442E+03  0.15294330000E+03 0.  0.
    8880022    1    1    2    0    0  0.40099772522E+03 -0.16227945498E+03 -0.17338382915E+02  0.45915800078E+03  0.15294330000E+03 0.  0.
<mgrwt>
<rscale>  0 0.45883052E+03</rscale>
<asrwt>0</asrwt>
<pdfrwt beam="1">  1        2 0.11129619E+00 0.45883052E+03</pdfrwt>
<pdfrwt beam="2">  1       -2 0.52766771E-01 0.45883052E+03</pdfrwt>
<totfact> 0.13738812E+02</totfact>
</mgrwt>
</event>
<event>
 4    1  0.4840632E-008  0.7485384E+03  0.7818608E-02  0.9637646E-01
         -2   -1    0    0    0  501 -0.00000000000E+00  0.00000000000E+00  0.27778063235E+03  0.27778063236E+03  0.25500000000E-02 0.  1.
          2   -1    0    0  501    0  0.00000000000E+00 -0.00000000000E+00 -0.24490024174E+04  0.24490024175E+04  0.25500000000E-02 0. -1.
    8880022    1    1    2    0    0 -0.70809405891E+03  0.18846973117E+03 -0.16581718641E+04  0.18192975621E+04  0.15294330000E+03 0.  0.
    8880022    1    1    2    0    0  0.70809405891E+03 -0.18846973117E+03 -0.51304992104E+03  0.90748548767E+03  0.15294330000E+03 0.  0.
<mgrwt>
<rscale>  0 0.74853837E+03</rscale>
<asrwt>0</asrwt>
<pdfrwt beam="1">  1        2 0.37676959E+00 0.74853837E+03</pdfrwt>
<pdfrwt beam="2">  1       -2 0.42735484E-01 0.74853837E+03</pdfrwt>
<totfact> 0.20203764E+01</totfact>
</mgrwt>
</event>
<event>
 4    1  0.4840632E-008  0.6229228E+03  0.7818608E-02  0.9858958E-01
          2   -1    0    0  501    0  0.00000000000E+00  0.00000000000E+00  0.17717121004E+04  0.17717121004E+04  0.25500000000E-02 0. -1.
         -2   -1    0    0    0  501 -0.00000000000E+00 -0.00000000000E+00 -0.51842881790E+03  0.51842881790E+03  0.25500000000E-02 0.  1.
    8880022    1    1    2    0    0 -0.55827773265E+03  0.23014596018E+03  0.14968495457E+04  0.16212931275E+04  0.15294330000E+03 0.  0.
    8880022    1    1    2    0    0  0.55827773265E+03 -0.23014596018E+03 -0.24356626316E+03  0.66884779085E+03  0.15294330000E+03 0.  0.
<mgrwt>
<rscale>  0 0.62292282E+03</rscale>
<asrwt>0</asrwt>
<pdfrwt beam="1">  1        2 0.27257110E+00 0.62292282E+03</pdfrwt>
<pdfrwt beam="2">  1       -2 0.79758279E-01 0.62292282E+03</pdfrwt>
<totfact> 0.13076416E+01</totfact>
</mgrwt>
</event>
<event>
 4    1  0.4840632E-008  0.5831941E+03  0.7818608E-02  0.9940900E-01
         -2   -1    0    0    0  501 -0.00000000000E+00  0.00000000000E+00  0.26366449282E+03  0.26366449283E+03  0.25500000000E-02 0.  1.
          2   -1    0    0  501    0  0.00000000000E+00 -0.00000000000E+00 -0.18397019940E+04  0.18397019940E+04  0.25500000000E-02 0. -1.
    8880022    1    1    2    0    0  0.50488962480E+03  0.24861652167E+03 -0.21311836343E+03  0.62091448520E+03  0.15294330000E+03 0.  0.
    8880022    1    1    2    0    0 -0.50488962480E+03 -0.24861652167E+03 -0.13629191378E+04  0.14824520017E+04  0.15294330000E+03 0.  0.
<mgrwt>
<rscale>  0 0.58319410E+03</rscale>
<asrwt>0</asrwt>
<pdfrwt beam="1">  1        2 0.28303107E+00 0.58319410E+03</pdfrwt>
<pdfrwt beam="2">  1       -2 0.40563769E-01 0.58319410E+03</pdfrwt>
<totfact> 0.49551914E+01</totfact>
</mgrwt>
</event>
<event>
 4    1  0.4840632E-008  0.6862415E+03  0.7818608E-02  0.9741055E-01
          2   -1    0    0  501    0  0.00000000000E+00  0.00000000000E+00  0.43550584485E+04  0.43550584485E+04  0.25500000000E-02 0. -1.
         -2   -1    0    0    0  501 -0.00000000000E+00 -0.00000000000E+00 -0.25717409035E+03  0.25717409037E+03  0.25500000000E-02 0.  1.
    8880022    1    1    2    0    0 -0.51146092235E+01  0.66896158611E+03  0.38045195486E+04  0.38659146927E+04  0.15294330000E+03 0.  0.
    8880022    1    1    2    0    0  0.51146092235E+01 -0.66896158611E+03  0.29336480951E+03  0.74631784609E+03  0.15294330000E+03 0.  0.
<mgrwt>
<rscale>  0 0.68624151E+03</rscale>
<asrwt>0</asrwt>
<pdfrwt beam="1">  1        2 0.67000894E+00 0.68624151E+03</pdfrwt>
<pdfrwt beam="2">  1       -2 0.39565248E-01 0.68624151E+03</pdfrwt>
<totfact> 0.11738311E+00</totfact>
</mgrwt>
</event>
<event>
 4    1  0.4840632E-008  0.5546713E+03  0.7818608E-02  0.1000418E+00
          2   -1    0    0  501    0  0.00000000000E+00  0.00000000000E+00  0.21396378037E+04  0.21396378037E+04  0.25500000000E-02 0. -1.
         -2   -1    0    0    0  501 -0.00000000000E+00 -0.00000000000E+00 -0.22999070410E+03  0.22999070411E+03  0.25500000000E-02 0.  1.
    8880022    1    1    2    0    0 -0.46096515903E+03  0.26791728408E+03  0.22947198040E+03  0.60026460145E+03  0.15294330000E+03 0.  0.
    8880022    1    1    2    0    0  0.46096515903E+03 -0.26791728408E+03  0.16801751192E+04  0.17693639063E+04  0.15294330000E+03 0.  0.
<mgrwt>
<rscale>  0 0.55467126E+03</rscale>
<asrwt>0</asrwt>
<pdfrwt beam="1">  1        2 0.32917505E+00 0.55467126E+03</pdfrwt>
<pdfrwt beam="2">  1       -2 0.35383185E-01 0.55467126E+03</pdfrwt>
<totfact> 0.44551949E+01</totfact>
</mgrwt>
</event>
<event>
 4    1  0.4840632E-008  0.2048991E+03  0.7818608E-02  0.1145670E+00
          2   -1    0    0  501    0  0.00000000000E+00  0.00000000000E+00  0.59010584963E+03  0.59010584964E+03  0.25500000000E-02 0. -1.
         -2   -1    0    0    0  501 -0.00000000000E+00 -0.00000000000E+00 -0.24868072539E+03  0.24868072540E+03  0.25500000000E-02 0.  1.
    8880022    1    1    2    0    0 -0.11127915208E+03  0.78796913494E+02  0.52507044545E+03  0.56363341718E+03  0.15294330000E+03 0.  0.
    8880022    1    1    2    0    0  0.11127915208E+03 -0.78796913494E+02 -0.18364532121E+03  0.27515315786E+03  0.15294330000E+03 0.  1.
<mgrwt>
<rscale>  0 0.20489914E+03</rscale>
<asrwt>0</asrwt>
<pdfrwt beam="1">  1        2 0.90785514E-01 0.20489914E+03</pdfrwt>
<pdfrwt beam="2">  1       -2 0.38258574E-01 0.20489914E+03</pdfrwt>
<totfact> 0.33803393E+02</totfact>
</mgrwt>
</event>
<event>
 4    1  0.4840632E-008  0.4008550E+03  0.7818608E-02  0.1043484E+00
         -2   -1    0    0    0  501 -0.00000000000E+00  0.00000000000E+00  0.31181684080E+03  0.31181684081E+03  0.25500000000E-02 0.  1.
          2   -1    0    0  501    0  0.00000000000E+00 -0.00000000000E+00 -0.11771272971E+04  0.11771272971E+04  0.25500000000E-02 0. -1.
    8880022    1    1    2    0    0  0.26010250932E+03  0.26389343175E+03 -0.99087247483E+03  0.10688839848E+04  0.15294330000E+03 0.  0.
    8880022    1    1    2    0    0 -0.26010250932E+03 -0.26389343175E+03  0.12556201854E+03  0.42006015306E+03  0.15294330000E+03 0.  0.
<mgrwt>
<rscale>  0 0.40085498E+03</rscale>
<asrwt>0</asrwt>
<pdfrwt beam="1">  1        2 0.18109651E+00 0.40085498E+03</pdfrwt>
<pdfrwt beam="2">  1       -2 0.47971822E-01 0.40085498E+03</pdfrwt>
<totfact> 0.85028785E+01</totfact>
</mgrwt>
</event>
<event>
 4    1  0.4840632E-008  0.1018695E+04  0.7818608E-02  0.9288275E-01
          2   -1    0    0  501    0  0.00000000000E+00  0.00000000000E+00  0.20269336934E+04  0.20269336934E+04  0.25500000000E-02 0. -1.
         -2   -1    0    0    0  501 -0.00000000000E+00 -0.00000000000E+00 -0.11235802337E+04  0.11235802337E+04  0.25500000000E-02 0.  1.
    8880022    1    1    2    0    0 -0.76185026052E+03 -0.65873484969E+03 -0.71053435304E+03  0.12420137445E+04  0.15294330000E+03 0.  0.
    8880022    1    1    2    0    0  0.76185026052E+03  0.65873484969E+03  0.16138878128E+04  0.19085001826E+04  0.15294330000E+03 0.  0.
<mgrwt>
<rscale>  0 0.10186948E+04</rscale>
<asrwt>0</asrwt>
<pdfrwt beam="1">  1        2 0.31183595E+00 0.10186948E+04</pdfrwt>
<pdfrwt beam="2">  1       -2 0.17285850E+00 0.10186948E+04</pdfrwt>
<totfact> 0.13068039E+00</totfact>
</mgrwt>
</event>
<event>
 4    1  0.4840632E-008  0.2264323E+03  0.7818608E-02  0.1129176E+00
         -2   -1    0    0    0  501 -0.00000000000E+00  0.00000000000E+00  0.28340968854E+03  0.28340968855E+03  0.25500000000E-02 0.  1.
          2   -1    0    0  501    0  0.00000000000E+00 -0.00000000000E+00 -0.84375333050E+03  0.84375333051E+03  0.25500000000E-02 0. -1.
    8880022    1    1    2    0    0  0.16509449179E+03 -0.24975284849E+02  0.21935001179E+03  0.31525551028E+03  0.15294330000E+03 0.  1.
    8880022    1    1    2    0    0 -0.16509449179E+03  0.24975284849E+02 -0.77969365376E+03  0.81190750877E+03  0.15294330000E+03 0.  0.
<mgrwt>
<rscale>  0 0.22643235E+03</rscale>
<asrwt>0</asrwt>
<pdfrwt beam="1">  1        2 0.12980820E+00 0.22643235E+03</pdfrwt>
<pdfrwt beam="2">  1       -2 0.43601491E-01 0.22643235E+03</pdfrwt>
<totfact> 0.16983873E+02</totfact>
</mgrwt>
</event>
<event>
 4    1  0.4840632E-008  0.1298455E+04  0.7818608E-02  0.9030792E-01
         -2   -1    0    0    0  501 -0.00000000000E+00  0.00000000000E+00  0.13327027951E+04  0.13327027951E+04  0.25500000000E-02 0.  1.
          2   -1    0    0  501    0  0.00000000000E+00 -0.00000000000E+00 -0.22268881936E+04  0.22268881936E+04  0.25500000000E-02 0. -1.
    8880022    1    1    2    0    0  0.32016317821E+03  0.12490350147E+04 -0.16167634236E+04  0.20736220845E+04  0.15294330000E+03 0.  0.
    8880022    1    1    2    0    0 -0.32016317821E+03 -0.12490350147E+04  0.72257802510E+03  0.14859689041E+04  0.15294330000E+03 0.  0.
<mgrwt>
<rscale>  0 0.12984547E+04</rscale>
<asrwt>0</asrwt>
<pdfrwt beam="1">  1        2 0.34259818E+00 0.12984547E+04</pdfrwt>
<pdfrwt beam="2">  1       -2 0.20503120E+00 0.12984547E+04</pdfrwt>
<totfact> 0.59073722E-01</totfact>
</mgrwt>
</event>
<event>
 4    1  0.4840632E-008  0.9547000E+03  0.7818608E-02  0.9359674E-01
         -2   -1    0    0    0  501 -0.00000000000E+00  0.00000000000E+00  0.12024878279E+04  0.12024878279E+04  0.25500000000E-02 0.  1.
          2   -1    0    0  501    0  0.00000000000E+00 -0.00000000000E+00 -0.13792225209E+04  0.13792225209E+04  0.25500000000E-02 0. -1.
    8880022    1    1    2    0    0  0.98499894131E+02  0.93720763357E+03  0.77798340055E+03  0.12315478887E+04  0.15294330000E+03 0.  0.
    8880022    1    1    2    0    0 -0.98499894131E+02 -0.93720763357E+03 -0.95471809356E+03  0.13501624601E+04  0.15294330000E+03 0.  0.
<mgrwt>
<rscale>  0 0.95469997E+03</rscale>
<asrwt>0</asrwt>
<pdfrwt beam="1">  1        2 0.21218808E+00 0.95469997E+03</pdfrwt>
<pdfrwt beam="2">  1       -2 0.18499813E+00 0.95469997E+03</pdfrwt>
<totfact> 0.24868578E+00</totfact>
</mgrwt>
</event>
<event>
 4    1  0.4840632E-008  0.1237028E+04  0.7818608E-02  0.9081050E-01
          2   -1    0    0  501    0  0.00000000000E+00  0.00000000000E+00  0.27728814579E+04  0.27728814579E+04  0.25500000000E-02 0. -1.
         -2   -1    0    0    0  501 -0.00000000000E+00 -0.00000000000E+00 -0.58503378656E+03  0.58503378657E+03  0.25500000000E-02 0.  1.
    8880022    1    1    2    0    0  0.85744258441E+03 -0.87842926159E+03  0.69410939087E+03  0.14184587596E+04  0.15294330000E+03 0.  1.
    8880022    1    1    2    0    0 -0.85744258441E+03  0.87842926159E+03  0.14937382805E+04  0.19394564849E+04  0.15294330000E+03 0. -1.
<mgrwt>
<rscale>  0 0.12370276E+04</rscale>
<asrwt>0</asrwt>
<pdfrwt beam="1">  1        2 0.42659715E+00 0.12370276E+04</pdfrwt>
<pdfrwt beam="2">  1       -2 0.90005198E-01 0.12370276E+04</pdfrwt>
<totfact> 0.24968669E+00</totfact>
</mgrwt>
</event>
<event>
 4    1  0.4840632E-008  0.4820912E+03  0.7818608E-02  0.1018562E+00
         -2   -1    0    0    0  501 -0.00000000000E+00  0.00000000000E+00  0.52177203616E+03  0.52177203617E+03  0.25500000000E-02 0.  1.
          2   -1    0    0  501    0  0.00000000000E+00 -0.00000000000E+00 -0.26173234368E+04  0.26173234368E+04  0.25500000000E-02 0. -1.
    8880022    1    1    2    0    0 -0.23277113684E+02 -0.45659445192E+03  0.38199130263E+03  0.61508481192E+03  0.15294330000E+03 0.  0.
    8880022    1    1    2    0    0  0.23277113684E+02  0.45659445192E+03 -0.24775427033E+04  0.25240106611E+04  0.15294330000E+03 0.  0.
<mgrwt>
<rscale>  0 0.48209125E+03</rscale>
<asrwt>0</asrwt>
<pdfrwt beam="1">  1        2 0.40266514E+00 0.48209125E+03</pdfrwt>
<pdfrwt beam="2">  1       -2 0.80272623E-01 0.48209125E+03</pdfrwt>
<totfact> 0.45732351E+00</totfact>
</mgrwt>
</event>
<event>
 4    1  0.4840632E-008  0.4113635E+03  0.7818608E-02  0.1039914E+00
          2   -1    0    0  501    0  0.00000000000E+00  0.00000000000E+00  0.23510917429E+04  0.23510917429E+04  0.25500000000E-02 0. -1.
         -2   -1    0    0    0  501 -0.00000000000E+00 -0.00000000000E+00 -0.99204111946E+02  0.99204111978E+02  0.25500000000E-02 0.  1.
    8880022    1    1    2    0    0  0.10490710218E+03 -0.36718222130E+03  0.17678034484E+04  0.18150341509E+04  0.15294330000E+03 0.  0.
    8880022    1    1    2    0    0 -0.10490710218E+03  0.36718222130E+03  0.48408418253E+03  0.63526170396E+03  0.15294330000E+03 0.  0.
<mgrwt>
<rscale>  0 0.41136351E+03</rscale>
<asrwt>0</asrwt>
<pdfrwt beam="1">  1        2 0.36170642E+00 0.41136351E+03</pdfrwt>
<pdfrwt beam="2">  1       -2 0.15262171E-01 0.41136351E+03</pdfrwt>
<totfact> 0.15627237E+02</totfact>
</mgrwt>
</event>
<event>
 4    1  0.4840632E-008  0.4172873E+03  0.7818608E-02  0.1037953E+00
          2   -1    0    0  501    0  0.00000000000E+00  0.00000000000E+00  0.24296302389E+04  0.24296302389E+04  0.25500000000E-02 0. -1.
         -2   -1    0    0    0  501 -0.00000000000E+00 -0.00000000000E+00 -0.93279642203E+02  0.93279642238E+02  0.25500000000E-02 0.  1.
    8880022    1    1    2    0    0 -0.37415811790E+03  0.10364712026E+03  0.56099987362E+03  0.69917775562E+03  0.15294330000E+03 0.  0.
    8880022    1    1    2    0    0  0.37415811790E+03 -0.10364712026E+03  0.17753507231E+04  0.18237321255E+04  0.15294330000E+03 0.  0.
<mgrwt>
<rscale>  0 0.41728728E+03</rscale>
<asrwt>0</asrwt>
<pdfrwt beam="1">  1        2 0.37378925E+00 0.41728728E+03</pdfrwt>
<pdfrwt beam="2">  1       -2 0.14350715E-01 0.41728728E+03</pdfrwt>
<totfact> 0.15664688E+02</totfact>
</mgrwt>
</event>
<event>
 4    1  0.4840632E-008  0.7113075E+03  0.7818608E-02  0.9698088E-01
          2   -1    0    0  501    0  0.00000000000E+00  0.00000000000E+00  0.16235218913E+04  0.16235218913E+04  0.25500000000E-02 0. -1.
         -2   -1    0    0    0  501 -0.00000000000E+00 -0.00000000000E+00 -0.57818376208E+03  0.57818376209E+03  0.25500000000E-02 0.  1.
    8880022    1    1    2    0    0 -0.53496840827E+03 -0.44314269947E+03 -0.22477483338E+03  0.74597723067E+03  0.15294330000E+03 0.  0.
    8880022    1    1    2    0    0  0.53496840827E+03  0.44314269947E+03  0.12701129626E+04  0.14557284227E+04  0.15294330000E+03 0.  0.
<mgrwt>
<rscale>  0 0.71130746E+03</rscale>
<asrwt>0</asrwt>
<pdfrwt beam="1">  1        2 0.24977260E+00 0.71130746E+03</pdfrwt>
<pdfrwt beam="2">  1       -2 0.88951348E-01 0.71130746E+03</pdfrwt>
<totfact> 0.12127857E+01</totfact>
</mgrwt>
</event>
<event>
 4    1  0.4840632E-008  0.7185822E+03  0.7818608E-02  0.9685971E-01
          2   -1    0    0  501    0  0.00000000000E+00  0.00000000000E+00  0.16143785984E+04  0.16143785984E+04  0.25500000000E-02 0. -1.
         -2   -1    0    0    0  501 -0.00000000000E+00 -0.00000000000E+00 -0.44494218454E+03  0.44494218455E+03  0.25500000000E-02 0.  1.
    8880022    1    1    2    0    0 -0.54171861456E+03 -0.44666511450E+03  0.38764580259E+02  0.71962707534E+03  0.15294330000E+03 0.  0.
    8880022    1    1    2    0    0  0.54171861456E+03  0.44666511450E+03  0.11306718336E+04  0.13396937076E+04  0.15294330000E+03 0.  0.
<mgrwt>
<rscale>  0 0.71858224E+03</rscale>
<asrwt>0</asrwt>
<pdfrwt beam="1">  1        2 0.24836593E+00 0.71858224E+03</pdfrwt>
<pdfrwt beam="2">  1       -2 0.68452645E-01 0.71858224E+03</pdfrwt>
<totfact> 0.22007958E+01</totfact>
</mgrwt>
</event>
<event>
 4    1  0.4840632E-008  0.4779816E+03  0.7818608E-02  0.1019691E+00
         -2   -1    0    0    0  501 -0.00000000000E+00  0.00000000000E+00  0.17023138827E+04  0.17023138827E+04  0.25500000000E-02 0.  1.
          2   -1    0    0  501    0  0.00000000000E+00 -0.00000000000E+00 -0.51864513114E+03  0.51864513115E+03  0.25500000000E-02 0. -1.
    8880022    1    1    2    0    0  0.90197466435E+02 -0.44377828421E+03  0.15478991338E+04  0.16200179412E+04  0.15294330000E+03 0.  1.
    8880022    1    1    2    0    0 -0.90197466435E+02  0.44377828421E+03 -0.36423038219E+03  0.60094107267E+03  0.15294330000E+03 0.  0.
<mgrwt>
<rscale>  0 0.47798159E+03</rscale>
<asrwt>0</asrwt>
<pdfrwt beam="1">  1        2 0.79791559E-01 0.47798159E+03</pdfrwt>
<pdfrwt beam="2">  1       -2 0.26189444E+00 0.47798159E+03</pdfrwt>
<totfact> 0.34706231E+00</totfact>
</mgrwt>
</event>
<event>
 4    1  0.4840632E-008  0.7553547E+03  0.7818608E-02  0.9626987E-01
         -2   -1    0    0    0  501 -0.00000000000E+00  0.00000000000E+00  0.23070319623E+03  0.23070319624E+03  0.25500000000E-02 0.  1.
          2   -1    0    0  501    0  0.00000000000E+00 -0.00000000000E+00 -0.30029907218E+04  0.30029907218E+04  0.25500000000E-02 0. -1.
    8880022    1    1    2    0    0  0.72594476066E+03 -0.14203266100E+03 -0.20653000255E+04  0.21990963873E+04  0.15294330000E+03 0.  0.
    8880022    1    1    2    0    0 -0.72594476066E+03  0.14203266100E+03 -0.70698750007E+03  0.10345975307E+04  0.15294330000E+03 0.  1.
<mgrwt>
<rscale>  0 0.75535470E+03</rscale>
<asrwt>0</asrwt>
<pdfrwt beam="1">  1        2 0.46199854E+00 0.75535470E+03</pdfrwt>
<pdfrwt beam="2">  1       -2 0.35492802E-01 0.75535470E+03</pdfrwt>
<totfact> 0.13711941E+01</totfact>
</mgrwt>
</event>
<event>
 4    1  0.4840632E-008  0.1686710E+03  0.7818608E-02  0.1179241E+00
         -2   -1    0    0    0  501 -0.00000000000E+00  0.00000000000E+00  0.18674281294E+04  0.18674281294E+04  0.25500000000E-02 0.  1.
          2   -1    0    0  501    0  0.00000000000E+00 -0.00000000000E+00 -0.19358022979E+03  0.19358022981E+03  0.25500000000E-02 0. -1.
    8880022    1    1    2    0    0 -0.66022659703E+02  0.26443608812E+02  0.18260468109E+04  0.18338202924E+04  0.15294330000E+03 0.  0.
    8880022    1    1    2    0    0  0.66022659703E+02 -0.26443608812E+02 -0.15219891138E+03  0.22718806677E+03  0.15294330000E+03 0. -1.
<mgrwt>
<rscale>  0 0.16867101E+03</rscale>
<asrwt>0</asrwt>
<pdfrwt beam="1">  1        2 0.29781573E-01 0.16867101E+03</pdfrwt>
<pdfrwt beam="2">  1       -2 0.28729664E+00 0.16867101E+03</pdfrwt>
<totfact> 0.80414320E+00</totfact>
</mgrwt>
</event>
<event>
 4    1  0.4840632E-008  0.1825661E+03  0.7818608E-02  0.1165342E+00
          2   -1    0    0  501    0  0.00000000000E+00  0.00000000000E+00  0.24249672657E+03  0.24249672659E+03  0.25500000000E-02 0. -1.
         -2   -1    0    0    0  501 -0.00000000000E+00 -0.00000000000E+00 -0.26293727975E+03  0.26293727976E+03  0.25500000000E-02 0.  1.
    8880022    1    1    2    0    0 -0.91215909786E+02 -0.40229133992E+02 -0.18480808656E+03  0.25977761123E+03  0.15294330000E+03 0.  0.
    8880022    1    1    2    0    0  0.91215909786E+02  0.40229133992E+02  0.16436753338E+03  0.24565639512E+03  0.15294330000E+03 0. -1.
<mgrwt>
<rscale>  0 0.18256609E+03</rscale>
<asrwt>0</asrwt>
<pdfrwt beam="1">  1        2 0.37307189E-01 0.18256609E+03</pdfrwt>
<pdfrwt beam="2">  1       -2 0.40451889E-01 0.18256609E+03</pdfrwt>
<totfact> 0.80173219E+02</totfact>
</mgrwt>
</event>
<event>
 4    1  0.4840632E-008  0.4628367E+03  0.7818608E-02  0.1023962E+00
         -2   -1    0    0    0  501 -0.00000000000E+00  0.00000000000E+00  0.15353156419E+03  0.15353156421E+03  0.25500000000E-02 0.  1.
          2   -1    0    0  501    0  0.00000000000E+00 -0.00000000000E+00 -0.22776575682E+04  0.22776575682E+04  0.25500000000E-02 0. -1.
    8880022    1    1    2    0    0 -0.21609228970E+03  0.37964489097E+03 -0.30544866895E+03  0.55454184990E+03  0.15294330000E+03 0.  0.
    8880022    1    1    2    0    0  0.21609228970E+03 -0.37964489097E+03 -0.18186773350E+04  0.18766472825E+04  0.15294330000E+03 0. -1.
<mgrwt>
<rscale>  0 0.46283666E+03</rscale>
<asrwt>0</asrwt>
<pdfrwt beam="1">  1        2 0.35040883E+00 0.46283666E+03</pdfrwt>
<pdfrwt beam="2">  1       -2 0.23620242E-01 0.46283666E+03</pdfrwt>
<totfact> 0.79970386E+01</totfact>
</mgrwt>
</event>
<event>
 4    1  0.4840632E-008  0.8397847E+03  0.7818608E-02  0.9504151E-01
          2   -1    0    0  501    0  0.00000000000E+00  0.00000000000E+00  0.20576090399E+04  0.20576090399E+04  0.25500000000E-02 0. -1.
         -2   -1    0    0    0  501 -0.00000000000E+00 -0.00000000000E+00 -0.67736236800E+03  0.67736236800E+03  0.25500000000E-02 0.  1.
    8880022    1    1    2    0    0 -0.78733632995E+03 -0.24889379662E+03  0.16512608673E+04  0.18525389937E+04  0.15294330000E+03 0.  0.
    8880022    1    1    2    0    0  0.78733632995E+03  0.24889379662E+03 -0.27101419538E+03  0.88243241417E+03  0.15294330000E+03 0.  0.
<mgrwt>
<rscale>  0 0.83978466E+03</rscale>
<asrwt>0</asrwt>
<pdfrwt beam="1">  1        2 0.31655523E+00 0.83978466E+03</pdfrwt>
<pdfrwt beam="2">  1       -2 0.10420960E+00 0.83978466E+03</pdfrwt>
<totfact> 0.47513962E+00</totfact>
</mgrwt>
</event>
<event>
 4    1  0.4840632E-008  0.1825052E+03  0.7818608E-02  0.1165400E+00
         -2   -1    0    0    0  501 -0.00000000000E+00  0.00000000000E+00  0.43569554661E+03  0.43569554661E+03  0.25500000000E-02 0.  1.
          2   -1    0    0  501    0  0.00000000000E+00 -0.00000000000E+00 -0.35748155544E+03  0.35748155545E+03  0.25500000000E-02 0. -1.
    8880022    1    1    2    0    0  0.66205612523E+02  0.74386252459E+02 -0.31252814444E+03  0.36191434313E+03  0.15294330000E+03 0. -1.
    8880022    1    1    2    0    0 -0.66205612523E+02 -0.74386252459E+02  0.39074213561E+03  0.43126275893E+03  0.15294330000E+03 0.  0.
<mgrwt>
<rscale>  0 0.18250521E+03</rscale>
<asrwt>0</asrwt>
<pdfrwt beam="1">  1        2 0.54997162E-01 0.18250521E+03</pdfrwt>
<pdfrwt beam="2">  1       -2 0.67030084E-01 0.18250521E+03</pdfrwt>
<totfact> 0.19196744E+02</totfact>
</mgrwt>
</event>
<event>
 4    1  0.4840632E-008  0.4279454E+03  0.7818608E-02  0.1034511E+00
         -2   -1    0    0    0  501 -0.00000000000E+00  0.00000000000E+00  0.58808967655E+03  0.58808967656E+03  0.25500000000E-02 0.  1.
          2   -1    0    0  501    0  0.00000000000E+00 -0.00000000000E+00 -0.23205501912E+04  0.23205501912E+04  0.25500000000E-02 0. -1.
    8880022    1    1    2    0    0  0.33936242876E+03  0.21113673439E+03  0.48699331107E+03  0.64830526506E+03  0.15294330000E+03 0.  0.
    8880022    1    1    2    0    0 -0.33936242876E+03 -0.21113673439E+03 -0.22194538257E+04  0.22603346027E+04  0.15294330000E+03 0.  0.
<mgrwt>
<rscale>  0 0.42794536E+03</rscale>
<asrwt>0</asrwt>
<pdfrwt beam="1">  1        2 0.35700772E+00 0.42794536E+03</pdfrwt>
<pdfrwt beam="2">  1       -2 0.90475336E-01 0.42794536E+03</pdfrwt>
<totfact> 0.51878133E+00</totfact>
</mgrwt>
</event>
<event>
 4    1  0.4840632E-008  0.1732901E+03  0.7818608E-02  0.1174460E+00
          2   -1    0    0  501    0  0.00000000000E+00  0.00000000000E+00  0.11895112129E+04  0.11895112129E+04  0.25500000000E-02 0. -1.
         -2   -1    0    0    0  501 -0.00000000000E+00 -0.00000000000E+00 -0.46353114682E+02  0.46353114752E+02  0.25500000000E-02 0.  1.
    8880022    1    1    2    0    0  0.37868592666E+01  0.81384621152E+02  0.98856746798E+03  0.10036409162E+04  0.15294330000E+03 0.  0.
    8880022    1    1    2    0    0 -0.37868592666E+01 -0.81384621152E+02  0.15459063022E+03  0.23222341146E+03  0.15294330000E+03 0.  1.
<mgrwt>
<rscale>  0 0.17329007E+03</rscale>
<asrwt>0</asrwt>
<pdfrwt beam="1">  1        2 0.18300172E+00 0.17329007E+03</pdfrwt>
<pdfrwt beam="2">  1       -2 0.71312486E-02 0.17329007E+03</pdfrwt>
<totfact> 0.22859640E+03</totfact>
</mgrwt>
</event>
<event>
 4    1  0.4840632E-008  0.1259847E+04  0.7818608E-02  0.9062027E-01
         -2   -1    0    0    0  501 -0.00000000000E+00  0.00000000000E+00  0.10347607474E+04  0.10347607474E+04  0.25500000000E-02 0.  1.
          2   -1    0    0  501    0  0.00000000000E+00 -0.00000000000E+00 -0.22175918279E+04  0.22175918279E+04  0.25500000000E-02 0. -1.
    8880022    1    1    2    0    0 -0.11323188253E+04  0.53073257593E+03 -0.14943547375E+04  0.19545615170E+04  0.15294330000E+03 0.  0.
    8880022    1    1    2    0    0  0.11323188253E+04 -0.53073257593E+03  0.31152365696E+03  0.12977910584E+04  0.15294330000E+03 0.  0.
<mgrwt>
<rscale>  0 0.12598471E+04</rscale>
<asrwt>0</asrwt>
<pdfrwt beam="1">  1        2 0.34116797E+00 0.12598471E+04</pdfrwt>
<pdfrwt beam="2">  1       -2 0.15919396E+00 0.12598471E+04</pdfrwt>
<totfact> 0.12468268E+00</totfact>
</mgrwt>
</event>
<event>
 4    1  0.4840632E-008  0.2703013E+03  0.7818608E-02  0.1101107E+00
          2   -1    0    0  501    0  0.00000000000E+00  0.00000000000E+00  0.43614655780E+03  0.43614655780E+03  0.25500000000E-02 0. -1.
         -2   -1    0    0    0  501 -0.00000000000E+00 -0.00000000000E+00 -0.16741903188E+04  0.16741903188E+04  0.25500000000E-02 0.  1.
    8880022    1    1    2    0    0 -0.81395360032E+02 -0.20747508682E+03 -0.16200093974E+04  0.16424047056E+04  0.15294330000E+03 0.  0.
    8880022    1    1    2    0    0  0.81395360032E+02  0.20747508682E+03  0.38196563638E+03  0.46793217102E+03  0.15294330000E+03 0. -1.
<mgrwt>
<rscale>  0 0.27030126E+03</rscale>
<asrwt>0</asrwt>
<pdfrwt beam="1">  1        2 0.67099471E-01 0.27030126E+03</pdfrwt>
<pdfrwt beam="2">  1       -2 0.25756774E+00 0.27030126E+03</pdfrwt>
<totfact> 0.47491990E+00</totfact>
</mgrwt>
</event>
<event>
 4    1  0.4840632E-008  0.7918319E+03  0.7818608E-02  0.9571916E-01
          2   -1    0    0  501    0  0.00000000000E+00  0.00000000000E+00  0.12653340671E+04  0.12653340671E+04  0.25500000000E-02 0. -1.
         -2   -1    0    0    0  501 -0.00000000000E+00 -0.00000000000E+00 -0.18251856128E+04  0.18251856128E+04  0.25500000000E-02 0.  1.
    8880022    1    1    2    0    0  0.49370660987E+03 -0.59988327394E+03  0.10389967537E+04  0.13063353575E+04  0.15294330000E+03 0.  0.
    8880022    1    1    2    0    0 -0.49370660987E+03  0.59988327394E+03 -0.15988482994E+04  0.17841843224E+04  0.15294330000E+03 0.  0.
<mgrwt>
<rscale>  0 0.79183193E+03</rscale>
<asrwt>0</asrwt>
<pdfrwt beam="1">  1        2 0.19466678E+00 0.79183193E+03</pdfrwt>
<pdfrwt beam="2">  1       -2 0.28079779E+00 0.79183193E+03</pdfrwt>
<totfact> 0.74806826E-01</totfact>
</mgrwt>
</event>
<event>
 4    1  0.4840632E-008  0.4213567E+03  0.7818608E-02  0.1036626E+00
          2   -1    0    0  501    0  0.00000000000E+00  0.00000000000E+00  0.37467857579E+04  0.37467857579E+04  0.25500000000E-02 0. -1.
         -2   -1    0    0    0  501 -0.00000000000E+00 -0.00000000000E+00 -0.17988288646E+03  0.17988288648E+03  0.25500000000E-02 0.  1.
    8880022    1    1    2    0    0 -0.37424512303E+03  0.11870284329E+03  0.98436262545E+02  0.43270212377E+03  0.15294330000E+03 0.  0.
    8880022    1    1    2    0    0  0.37424512303E+03 -0.11870284329E+03  0.34684666088E+04  0.34939665206E+04  0.15294330000E+03 0. -1.
<mgrwt>
<rscale>  0 0.42135665E+03</rscale>
<asrwt>0</asrwt>
<pdfrwt beam="1">  1        2 0.57642854E+00 0.42135665E+03</pdfrwt>
<pdfrwt beam="2">  1       -2 0.27674292E-01 0.42135665E+03</pdfrwt>
<totfact> 0.76613531E+00</totfact>
</mgrwt>
</event>
<event>
 4    1  0.4840632E-008  0.4666364E+03  0.7818608E-02  0.1022874E+00
         -2   -1    0    0    0  501 -0.00000000000E+00  0.00000000000E+00  0.32257608109E+03  0.32257608110E+03  0.25500000000E-02 0.  1.
          2   -1    0    0  501    0  0.00000000000E+00 -0.00000000000E+00 -0.90385460935E+03  0.90385460935E+03  0.25500000000E-02 0. -1.
    8880022    1    1    2    0    0  0.37491890685E+03 -0.23193463770E+03 -0.59917977624E+03  0.75945106502E+03  0.15294330000E+03 0. -1.
    8880022    1    1    2    0    0 -0.37491890685E+03  0.23193463770E+03  0.17901247984E+02  0.46697962544E+03  0.15294330000E+03 0.  0.
<mgrwt>
<rscale>  0 0.46663639E+03</rscale>
<asrwt>0</asrwt>
<pdfrwt beam="1">  1        2 0.13905455E+00 0.46663639E+03</pdfrwt>
<pdfrwt beam="2">  1       -2 0.49627090E-01 0.46663639E+03</pdfrwt>
<totfact> 0.11611078E+02</totfact>
</mgrwt>
</event>
<event>
 4    1  0.4840632E-008  0.1555538E+03  0.7818608E-02  0.1193810E+00
         -2   -1    0    0    0  501 -0.00000000000E+00  0.00000000000E+00  0.35920892294E+03  0.35920892295E+03  0.25500000000E-02 0.  1.
          2   -1    0    0  501    0  0.00000000000E+00 -0.00000000000E+00 -0.27419498659E+04  0.27419498659E+04  0.25500000000E-02 0. -1.
    8880022    1    1    2    0    0  0.72756085231E+01 -0.27429675889E+02  0.34004383961E+03  0.37393420206E+03  0.15294330000E+03 0.  0.
    8880022    1    1    2    0    0 -0.72756085231E+01  0.27429675889E+02 -0.27227847825E+04  0.27272245868E+04  0.15294330000E+03 0. -1.
<mgrwt>
<rscale>  0 0.15555377E+03</rscale>
<asrwt>0</asrwt>
<pdfrwt beam="1">  1        2 0.42183843E+00 0.15555377E+03</pdfrwt>
<pdfrwt beam="2">  1       -2 0.55262913E-01 0.15555377E+03</pdfrwt>
<totfact> 0.10140682E+01</totfact>
</mgrwt>
</event>
<event>
 4    1  0.4840632E-008  0.6504511E+03  0.7818608E-02  0.9805933E-01
          2   -1    0    0  501    0  0.00000000000E+00  0.00000000000E+00  0.18912333369E+04  0.18912333369E+04  0.25500000000E-02 0. -1.
         -2   -1    0    0    0  501 -0.00000000000E+00 -0.00000000000E+00 -0.37289266749E+03  0.37289266750E+03  0.25500000000E-02 0.  1.
    8880022    1    1    2    0    0 -0.79663728412E+02  0.62717519862E+03  0.43127967668E+02  0.65187937074E+03  0.15294330000E+03 0.  0.
    8880022    1    1    2    0    0  0.79663728412E+02 -0.62717519862E+03  0.14752127018E+04  0.16122466337E+04  0.15294330000E+03 0.  0.
<mgrwt>
<rscale>  0 0.65045115E+03</rscale>
<asrwt>0</asrwt>
<pdfrwt beam="1">  1        2 0.29095898E+00 0.65045115E+03</pdfrwt>
<pdfrwt beam="2">  1       -2 0.57368102E-01 0.65045115E+03</pdfrwt>
<totfact> 0.22868453E+01</totfact>
</mgrwt>
</event>
<event>
 4    1  0.4840632E-008  0.7705294E+03  0.7818608E-02  0.9603682E-01
          2   -1    0    0  501    0  0.00000000000E+00  0.00000000000E+00  0.32191036519E+04  0.32191036519E+04  0.25500000000E-02 0. -1.
         -2   -1    0    0    0  501 -0.00000000000E+00 -0.00000000000E+00 -0.37586723317E+03  0.37586723318E+03  0.25500000000E-02 0.  1.
    8880022    1    1    2    0    0  0.74915106732E+03  0.95375807657E+02  0.13882801142E+03  0.78293597191E+03  0.15294330000E+03 0.  0.
    8880022    1    1    2    0    0 -0.74915106732E+03 -0.95375807657E+02  0.27044084074E+04  0.28120349132E+04  0.15294330000E+03 0.  0.
<mgrwt>
<rscale>  0 0.77052938E+03</rscale>
<asrwt>0</asrwt>
<pdfrwt beam="1">  1        2 0.49524672E+00 0.77052938E+03</pdfrwt>
<pdfrwt beam="2">  1       -2 0.57825728E-01 0.77052938E+03</pdfrwt>
<totfact> 0.37750243E+00</totfact>
</mgrwt>
</event>
<event>
 4    1  0.4840632E-008  0.1689105E+04  0.7818608E-02  0.8767603E-01
         -2   -1    0    0    0  501 -0.00000000000E+00  0.00000000000E+00  0.15644677055E+04  0.15644677055E+04  0.25500000000E-02 0.  1.
          2   -1    0    0  501    0  0.00000000000E+00 -0.00000000000E+00 -0.24003210704E+04  0.24003210704E+04  0.25500000000E-02 0. -1.
    8880022    1    1    2    0    0 -0.82858443824E+03 -0.14639435907E+04  0.55372699588E+03  0.17775511939E+04  0.15294330000E+03 0.  0.
    8880022    1    1    2    0    0  0.82858443824E+03  0.14639435907E+04 -0.13895803607E+04  0.21872375820E+04  0.15294330000E+03 0.  0.
<mgrwt>
<rscale>  0 0.16891047E+04</rscale>
<asrwt>0</asrwt>
<pdfrwt beam="1">  1        2 0.36928016E+00 0.16891047E+04</pdfrwt>
<pdfrwt beam="2">  1       -2 0.24068734E+00 0.16891047E+04</pdfrwt>
<totfact> 0.26768586E-01</totfact>
</mgrwt>
</event>
<event>
 4    1  0.4840632E-008  0.3521859E+03  0.7818608E-02  0.1061721E+00
         -2   -1    0    0    0  501 -0.00000000000E+00  0.00000000000E+00  0.40854332154E+03  0.40854332155E+03  0.25500000000E-02 0.  1.
          2   -1    0    0  501    0  0.00000000000E+00 -0.00000000000E+00 -0.79940895647E+03  0.79940895648E+03  0.25500000000E-02 0. -1.
    8880022    1    1    2    0    0 -0.22688000145E+03 -0.22174026623E+03 -0.67108686219E+03  0.75788687173E+03  0.15294330000E+03 0.  0.
    8880022    1    1    2    0    0  0.22688000145E+03  0.22174026623E+03  0.28022122725E+03  0.45006540630E+03  0.15294330000E+03 0.  0.
<mgrwt>
<rscale>  0 0.35218594E+03</rscale>
<asrwt>0</asrwt>
<pdfrwt beam="1">  1        2 0.12298599E+00 0.35218594E+03</pdfrwt>
<pdfrwt beam="2">  1       -2 0.62852819E-01 0.35218594E+03</pdfrwt>
<totfact> 0.85189514E+01</totfact>
</mgrwt>
</event>
<event>
 4    1  0.5226798E-008  0.6640292E+03  0.7818608E-02  0.9780805E-01
         -2   -1    0    0    0  501 -0.00000000000E+00  0.00000000000E+00  0.13535208895E+04  0.13535208895E+04  0.25500000000E-02 0.  1.
          2   -1    0    0  501    0  0.00000000000E+00 -0.00000000000E+00 -0.15604059118E+04  0.15604059118E+04  0.25500000000E-02 0. -1.
    8880022    1    1    2    0    0 -0.79663398444E+02 -0.64124632465E+03  0.11925411539E+04  0.13649502419E+04  0.15294330000E+03 0.  0.
    8880022    1    1    2    0    0  0.79663398444E+02  0.64124632465E+03 -0.13994261762E+04  0.15489765594E+04  0.15294330000E+03 0.  0.
<mgrwt>
<rscale>  0 0.66402919E+03</rscale>
<asrwt>0</asrwt>
<pdfrwt beam="1">  1        2 0.24006245E+00 0.66402919E+03</pdfrwt>
<pdfrwt beam="2">  1       -2 0.20823398E+00 0.66402919E+03</pdfrwt>
<totfact> 0.14525289E+00</totfact>
</mgrwt>
</event>
<event>
 4    1  0.4840632E-008  0.4470618E+03  0.7818608E-02  0.1028602E+00
         -2   -1    0    0    0  501 -0.00000000000E+00  0.00000000000E+00  0.45474504621E+03  0.45474504621E+03  0.25500000000E-02 0.  1.
          2   -1    0    0  501    0  0.00000000000E+00 -0.00000000000E+00 -0.81528249150E+03  0.81528249151E+03  0.25500000000E-02 0. -1.
    8880022    1    1    2    0    0  0.39313064254E+03 -0.14805709396E+03 -0.61138310646E+03  0.75739920851E+03  0.15294330000E+03 0.  0.
    8880022    1    1    2    0    0 -0.39313064254E+03  0.14805709396E+03  0.25084566116E+03  0.51262832921E+03  0.15294330000E+03 0.  0.
<mgrwt>
<rscale>  0 0.44706181E+03</rscale>
<asrwt>0</asrwt>
<pdfrwt beam="1">  1        2 0.12542808E+00 0.44706181E+03</pdfrwt>
<pdfrwt beam="2">  1       -2 0.69960776E-01 0.44706181E+03</pdfrwt>
<totfact> 0.65212522E+01</totfact>
</mgrwt>
</event>
<event>
 4    1  0.4840632E-008  0.1348835E+04  0.7818608E-02  0.8991710E-01
          2   -1    0    0  501    0  0.00000000000E+00  0.00000000000E+00  0.40813916928E+04  0.40813916928E+04  0.25500000000E-02 0. -1.
         -2   -1    0    0    0  501 -0.00000000000E+00 -0.00000000000E+00 -0.50883278595E+03  0.50883278596E+03  0.25500000000E-02 0.  1.
    8880022    1    1    2    0    0 -0.13351573525E+04  0.11541061295E+03  0.97828635778E+03  0.16662534670E+04  0.15294330000E+03 0.  1.
    8880022    1    1    2    0    0  0.13351573525E+04 -0.11541061295E+03  0.25942725490E+04  0.29239710117E+04  0.15294330000E+03 0.  0.
<mgrwt>
<rscale>  0 0.13488352E+04</rscale>
<asrwt>0</asrwt>
<pdfrwt beam="1">  1        2 0.62790643E+00 0.13488352E+04</pdfrwt>
<pdfrwt beam="2">  1       -2 0.78281966E-01 0.13488352E+04</pdfrwt>
<totfact> 0.42424235E-01</totfact>
</mgrwt>
</event>
<event>
 4    1  0.4840632E-008  0.2243631E+03  0.7818608E-02  0.1130671E+00
         -2   -1    0    0    0  501 -0.00000000000E+00  0.00000000000E+00  0.84504591576E+02  0.84504591615E+02  0.25500000000E-02 0.  1.
          2   -1    0    0  501    0  0.00000000000E+00 -0.00000000000E+00 -0.13785347981E+04  0.13785347981E+04  0.25500000000E-02 0. -1.
    8880022    1    1    2    0    0  0.84179891176E+02 -0.14092872022E+03 -0.11982720834E+04  0.12190958933E+04  0.15294330000E+03 0.  0.
    8880022    1    1    2    0    0 -0.84179891176E+02  0.14092872022E+03 -0.95758123096E+02  0.24394349636E+03  0.15294330000E+03 0.  1.
<mgrwt>
<rscale>  0 0.22436312E+03</rscale>
<asrwt>0</asrwt>
<pdfrwt beam="1">  1        2 0.21208226E+00 0.22436312E+03</pdfrwt>
<pdfrwt beam="2">  1       -2 0.13000707E-01 0.22436312E+03</pdfrwt>
<totfact> 0.69431690E+02</totfact>
</mgrwt>
</event>
<event>
 4    1  0.4840632E-008  0.5095426E+03  0.7818608E-02  0.1011318E+00
          2   -1    0    0  501    0  0.00000000000E+00  0.00000000000E+00  0.47668281758E+03  0.47668281759E+03  0.25500000000E-02 0. -1.
         -2   -1    0    0    0  501 -0.00000000000E+00 -0.00000000000E+00 -0.67899521434E+03  0.67899521435E+03  0.25500000000E-02 0.  1.
    8880022    1    1    2    0    0 -0.33887214541E+03  0.34843606665E+03 -0.35816984847E+03  0.62283169222E+03  0.15294330000E+03 0.  1.
    8880022    1    1    2    0    0  0.33887214541E+03 -0.34843606665E+03  0.15585745171E+03  0.53284633971E+03  0.15294330000E+03 0.  0.
<mgrwt>
<rscale>  0 0.50954261E+03</rscale>
<asrwt>0</asrwt>
<pdfrwt beam="1">  1        2 0.73335818E-01 0.50954261E+03</pdfrwt>
<pdfrwt beam="2">  1       -2 0.10446080E+00 0.50954261E+03</pdfrwt>
<totfact> 0.49945646E+01</totfact>
</mgrwt>
</event>
<event>
 4    1  0.4840632E-008  0.1145281E+04  0.7818608E-02  0.9162148E-01
          2   -1    0    0  501    0  0.00000000000E+00  0.00000000000E+00  0.23185376311E+04  0.23185376311E+04  0.25500000000E-02 0. -1.
         -2   -1    0    0    0  501 -0.00000000000E+00 -0.00000000000E+00 -0.59918252176E+03  0.59918252177E+03  0.25500000000E-02 0.  1.
    8880022    1    1    2    0    0 -0.67273954680E+03 -0.91416505686E+03  0.51497539826E+03  0.12557338742E+04  0.15294330000E+03 0.  0.
    8880022    1    1    2    0    0  0.67273954680E+03  0.91416505686E+03  0.12043797111E+04  0.16619862787E+04  0.15294330000E+03 0.  0.
<mgrwt>
<rscale>  0 0.11452807E+04</rscale>
<asrwt>0</asrwt>
<pdfrwt beam="1">  1        2 0.35669810E+00 0.11452807E+04</pdfrwt>
<pdfrwt beam="2">  1       -2 0.92181927E-01 0.11452807E+04</pdfrwt>
<totfact> 0.43729746E+00</totfact>
</mgrwt>
</event>
<event>
 4    1  0.4840632E-008  0.3885458E+03  0.7818608E-02  0.1047820E+00
          2   -1    0    0  501    0  0.00000000000E+00  0.00000000000E+00  0.21433657834E+04  0.21433657834E+04  0.25500000000E-02 0. -1.
         -2   -1    0    0    0  501 -0.00000000000E+00 -0.00000000000E+00 -0.65795385812E+03  0.65795385812E+03  0.25500000000E-02 0.  1.
    8880022    1    1    2    0    0  0.20274624398E+03 -0.29405804779E+03  0.20662728136E+04  0.21024869008E+04  0.15294330000E+03 0.  0.
    8880022    1    1    2    0    0 -0.20274624398E+03  0.29405804779E+03 -0.58086088830E+03  0.69883274071E+03  0.15294330000E+03 0.  1.
<mgrwt>
<rscale>  0 0.38854579E+03</rscale>
<asrwt>0</asrwt>
<pdfrwt beam="1">  1        2 0.32974859E+00 0.38854579E+03</pdfrwt>
<pdfrwt beam="2">  1       -2 0.10122367E+00 0.38854579E+03</pdfrwt>
<totfact> 0.50517272E+00</totfact>
</mgrwt>
</event>
<event>
 4    1  0.4840632E-008  0.1907735E+03  0.7818608E-02  0.1157766E+00
         -2   -1    0    0    0  501 -0.00000000000E+00  0.00000000000E+00  0.81981859461E+02  0.81981859500E+02  0.25500000000E-02 0.  1.
          2   -1    0    0  501    0  0.00000000000E+00 -0.00000000000E+00 -0.29740452385E+04  0.29740452385E+04  0.25500000000E-02 0. -1.
    8880022    1    1    2    0    0 -0.11385856048E+03  0.62536801432E+01 -0.36667509434E+02  0.19426538439E+03  0.15294330000E+03 0.  0.
    8880022    1    1    2    0    0  0.11385856048E+03 -0.62536801432E+01 -0.28553958696E+04  0.28617617136E+04  0.15294330000E+03 0. -1.
<mgrwt>
<rscale>  0 0.19077351E+03</rscale>
<asrwt>0</asrwt>
<pdfrwt beam="1">  1        2 0.45754534E+00 0.19077351E+03</pdfrwt>
<pdfrwt beam="2">  1       -2 0.12612596E-01 0.19077351E+03</pdfrwt>
<totfact> 0.10229927E+02</totfact>
</mgrwt>
</event>
<event>
 4    1  0.4840632E-008  0.6200087E+03  0.7818608E-02  0.9864742E-01
          2   -1    0    0  501    0  0.00000000000E+00  0.00000000000E+00  0.86384563952E+03  0.86384563952E+03  0.25500000000E-02 0. -1.
         -2   -1    0    0    0  501 -0.00000000000E+00 -0.00000000000E+00 -0.49568697440E+03  0.49568697441E+03  0.25500000000E-02 0.  1.
    8880022    1    1    2    0    0 -0.45726908950E+03  0.38977441788E+03 -0.33294239009E+02  0.62090198616E+03  0.15294330000E+03 0.  0.
    8880022    1    1    2    0    0  0.45726908950E+03 -0.38977441788E+03  0.40145290412E+03  0.73863062778E+03  0.15294330000E+03 0.  0.
<mgrwt>
<rscale>  0 0.62000869E+03</rscale>
<asrwt>0</asrwt>
<pdfrwt beam="1">  1        2 0.13289933E+00 0.62000869E+03</pdfrwt>
<pdfrwt beam="2">  1       -2 0.76259535E-01 0.62000869E+03</pdfrwt>
<totfact> 0.49018131E+01</totfact>
</mgrwt>
</event>
<event>
 4    1  0.4840632E-008  0.5886260E+03  0.7818608E-02  0.9929289E-01
         -2   -1    0    0    0  501 -0.00000000000E+00  0.00000000000E+00  0.11816699278E+04  0.11816699279E+04  0.25500000000E-02 0.  1.
          2   -1    0    0  501    0  0.00000000000E+00 -0.00000000000E+00 -0.49585683658E+03  0.49585683659E+03  0.25500000000E-02 0. -1.
    8880022    1    1    2    0    0 -0.50459285275E+03  0.26167722157E+03 -0.19329540134E+03  0.61955119283E+03  0.15294330000E+03 0.  0.
    8880022    1    1    2    0    0  0.50459285275E+03 -0.26167722157E+03  0.87910849261E+03  0.10579755716E+04  0.15294330000E+03 0.  0.
<mgrwt>
<rscale>  0 0.58862600E+03</rscale>
<asrwt>0</asrwt>
<pdfrwt beam="1">  1        2 0.76285668E-01 0.58862600E+03</pdfrwt>
<pdfrwt beam="2">  1       -2 0.18179537E+00 0.58862600E+03</pdfrwt>
<totfact> 0.11350391E+01</totfact>
</mgrwt>
</event>
<event>
 4    1  0.4840632E-008  0.4858979E+03  0.7818608E-02  0.1017527E+00
         -2   -1    0    0    0  501 -0.00000000000E+00  0.00000000000E+00  0.17371577638E+03  0.17371577640E+03  0.25500000000E-02 0.  1.
          2   -1    0    0  501    0  0.00000000000E+00 -0.00000000000E+00 -0.22570605603E+04  0.22570605603E+04  0.25500000000E-02 0. -1.
    8880022    1    1    2    0    0 -0.45990824369E+03 -0.34489337337E+02 -0.18082789301E+04  0.18724234161E+04  0.15294330000E+03 0.  0.
    8880022    1    1    2    0    0  0.45990824369E+03  0.34489337337E+02 -0.27506585378E+03  0.55835292059E+03  0.15294330000E+03 0.  0.
<mgrwt>
<rscale>  0 0.48589789E+03</rscale>
<asrwt>0</asrwt>
<pdfrwt beam="1">  1        2 0.34724007E+00 0.48589789E+03</pdfrwt>
<pdfrwt beam="2">  1       -2 0.26725506E-01 0.48589789E+03</pdfrwt>
<totfact> 0.65483708E+01</totfact>
</mgrwt>
</event>
<event>
 4    1  0.4840632E-008  0.4405410E+03  0.7818608E-02  0.1030581E+00
          2   -1    0    0  501    0  0.00000000000E+00  0.00000000000E+00  0.85550556090E+03  0.85550556091E+03  0.25500000000E-02 0. -1.
         -2   -1    0    0    0  501 -0.00000000000E+00 -0.00000000000E+00 -0.82527975477E+03  0.82527975477E+03  0.25500000000E-02 0.  1.
    8880022    1    1    2    0    0 -0.15364461428E+03 -0.38350756243E+03  0.73073896817E+03  0.85326186517E+03  0.15294330000E+03 0.  0.
    8880022    1    1    2    0    0  0.15364461428E+03  0.38350756243E+03 -0.70051316204E+03  0.82752345051E+03  0.15294330000E+03 0.  1.
<mgrwt>
<rscale>  0 0.44054100E+03</rscale>
<asrwt>0</asrwt>
<pdfrwt beam="1">  1        2 0.13161624E+00 0.44054100E+03</pdfrwt>
<pdfrwt beam="2">  1       -2 0.12696611E+00 0.44054100E+03</pdfrwt>
<totfact> 0.15366329E+01</totfact>
</mgrwt>
</event>
<event>
 4    1  0.4840632E-008  0.3143388E+03  0.7818608E-02  0.1078285E+00
         -2   -1    0    0    0  501 -0.00000000000E+00  0.00000000000E+00  0.91029779634E+03  0.91029779634E+03  0.25500000000E-02 0.  1.
          2   -1    0    0  501    0  0.00000000000E+00 -0.00000000000E+00 -0.15406024004E+03  0.15406024006E+03  0.25500000000E-02 0. -1.
    8880022    1    1    2    0    0 -0.23791976611E+03 -0.13715467278E+03  0.66737835534E+03  0.73770098385E+03  0.15294330000E+03 0.  1.
    8880022    1    1    2    0    0  0.23791976611E+03  0.13715467278E+03  0.88859200953E+02  0.32665705255E+03  0.15294330000E+03 0.  0.
<mgrwt>
<rscale>  0 0.31433879E+03</rscale>
<asrwt>0</asrwt>
<pdfrwt beam="1">  1        2 0.23701576E-01 0.31433879E+03</pdfrwt>
<pdfrwt beam="2">  1       -2 0.14004581E+00 0.31433879E+03</pdfrwt>
<totfact> 0.86584089E+01</totfact>
</mgrwt>
</event>
<event>
 4    1  0.4840632E-008  0.4275233E+03  0.7818608E-02  0.1034645E+00
          2   -1    0    0  501    0  0.00000000000E+00  0.00000000000E+00  0.12643861820E+04  0.12643861820E+04  0.25500000000E-02 0. -1.
         -2   -1    0    0    0  501 -0.00000000000E+00 -0.00000000000E+00 -0.11386337216E+04  0.11386337217E+04  0.25500000000E-02 0.  1.
    8880022    1    1    2    0    0  0.36651537218E+03  0.15827511410E+03 -0.10597760170E+04  0.11427604250E+04  0.15294330000E+03 0.  0.
    8880022    1    1    2    0    0 -0.36651537218E+03 -0.15827511410E+03  0.11855284774E+04  0.12602594787E+04  0.15294330000E+03 0. -1.
<mgrwt>
<rscale>  0 0.42752331E+03</rscale>
<asrwt>0</asrwt>
<pdfrwt beam="1">  1        2 0.19452095E+00 0.42752331E+03</pdfrwt>
<pdfrwt beam="2">  1       -2 0.17517442E+00 0.42752331E+03</pdfrwt>
<totfact> 0.37182200E+00</totfact>
</mgrwt>
</event>
<event>
 4    1  0.4840632E-008  0.3851217E+03  0.7818608E-02  0.1049057E+00
         -2   -1    0    0    0  501 -0.00000000000E+00  0.00000000000E+00  0.12284588088E+03  0.12284588091E+03  0.25500000000E-02 0.  1.
          2   -1    0    0  501    0  0.00000000000E+00 -0.00000000000E+00 -0.24349648925E+04  0.24349648925E+04  0.25500000000E-02 0. -1.
    8880022    1    1    2    0    0  0.35230168712E+03  0.28471116713E+02 -0.24798383189E+03  0.45805536470E+03  0.15294330000E+03 0.  0.
    8880022    1    1    2    0    0 -0.35230168712E+03 -0.28471116713E+02 -0.20641351797E+04  0.20997554087E+04  0.15294330000E+03 0.  0.
<mgrwt>
<rscale>  0 0.38512172E+03</rscale>
<asrwt>0</asrwt>
<pdfrwt beam="1">  1        2 0.37460995E+00 0.38512172E+03</pdfrwt>
<pdfrwt beam="2">  1       -2 0.18899368E-01 0.38512172E+03</pdfrwt>
<totfact> 0.98369424E+01</totfact>
</mgrwt>
</event>
<event>
 4    1  0.4840632E-008  0.4962406E+03  0.7818608E-02  0.1014765E+00
          2   -1    0    0  501    0  0.00000000000E+00  0.00000000000E+00  0.10572529765E+04  0.10572529765E+04  0.25500000000E-02 0. -1.
         -2   -1    0    0    0  501 -0.00000000000E+00 -0.00000000000E+00 -0.32557273759E+03  0.32557273760E+03  0.25500000000E-02 0.  1.
    8880022    1    1    2    0    0 -0.89031618448E+02  0.46361238984E+03 -0.30049369164E+01  0.49624969497E+03  0.15294330000E+03 0.  0.
    8880022    1    1    2    0    0  0.89031618448E+02 -0.46361238984E+03  0.73468517581E+03  0.88657601912E+03  0.15294330000E+03 0.  0.
<mgrwt>
<rscale>  0 0.49624060E+03</rscale>
<asrwt>0</asrwt>
<pdfrwt beam="1">  1        2 0.16265430E+00 0.49624060E+03</pdfrwt>
<pdfrwt beam="2">  1       -2 0.50088113E-01 0.49624060E+03</pdfrwt>
<totfact> 0.90758493E+01</totfact>
</mgrwt>
</event>
<event>
 4    1  0.4840632E-008  0.4274432E+03  0.7818608E-02  0.1034671E+00
         -2   -1    0    0    0  501 -0.00000000000E+00  0.00000000000E+00  0.13499557699E+03  0.13499557702E+03  0.25500000000E-02 0.  1.
          2   -1    0    0  501    0  0.00000000000E+00 -0.00000000000E+00 -0.27682270990E+04  0.27682270990E+04  0.25500000000E-02 0. -1.
    8880022    1    1    2    0    0  0.39849369172E+03  0.22776668719E+02 -0.27885820231E+03  0.51036217433E+03  0.15294330000E+03 0.  0.
    8880022    1    1    2    0    0 -0.39849369172E+03 -0.22776668719E+02 -0.23543733197E+04  0.23928605016E+04  0.15294330000E+03 0.  0.
<mgrwt>
<rscale>  0 0.42744316E+03</rscale>
<asrwt>0</asrwt>
<pdfrwt beam="1">  1        2 0.42588105E+00 0.42744316E+03</pdfrwt>
<pdfrwt beam="2">  1       -2 0.20768552E-01 0.42744316E+03</pdfrwt>
<totfact> 0.53676333E+01</totfact>
</mgrwt>
</event>
<event>
 4    1  0.4840632E-008  0.4758523E+03  0.7818608E-02  0.1020281E+00
         -2   -1    0    0    0  501 -0.00000000000E+00  0.00000000000E+00  0.48133113826E+03  0.48133113827E+03  0.25500000000E-02 0.  1.
          2   -1    0    0  501    0  0.00000000000E+00 -0.00000000000E+00 -0.15539437791E+04  0.15539437791E+04  0.25500000000E-02 0. -1.
    8880022    1    1    2    0    0 -0.27527323086E+03 -0.35674693174E+03  0.31344431769E+03  0.56980937009E+03  0.15294330000E+03 0.  0.
    8880022    1    1    2    0    0  0.27527323086E+03  0.35674693174E+03 -0.13860569585E+04  0.14654655473E+04  0.15294330000E+03 0.  0.
<mgrwt>
<rscale>  0 0.47585226E+03</rscale>
<asrwt>0</asrwt>
<pdfrwt beam="1">  1        2 0.23906827E+00 0.47585226E+03</pdfrwt>
<pdfrwt beam="2">  1       -2 0.74050945E-01 0.47585226E+03</pdfrwt>
<totfact> 0.20794153E+01</totfact>
</mgrwt>
</event>
<event>
 4    1  0.4840632E-008  0.1396608E+04  0.7818608E-02  0.8956277E-01
         -2   -1    0    0    0  501 -0.00000000000E+00  0.00000000000E+00  0.23395885174E+04  0.23395885174E+04  0.25500000000E-02 0.  1.
          2   -1    0    0  501    0  0.00000000000E+00 -0.00000000000E+00 -0.92035400264E+03  0.92035400264E+03  0.25500000000E-02 0. -1.
    8880022    1    1    2    0    0 -0.60925940712E+03 -0.12473677078E+04  0.12097633538E+04  0.18477127073E+04  0.15294330000E+03 0.  0.
    8880022    1    1    2    0    0  0.60925940712E+03  0.12473677078E+04  0.20947116094E+03  0.14122298127E+04  0.15294330000E+03 0.  0.
<mgrwt>
<rscale>  0 0.13966083E+04</rscale>
<asrwt>0</asrwt>
<pdfrwt beam="1">  1        2 0.14159292E+00 0.13966083E+04</pdfrwt>
<pdfrwt beam="2">  1       -2 0.35993669E+00 0.13966083E+04</pdfrwt>
<totfact> 0.36773507E-01</totfact>
</mgrwt>
</event>
<event>
 4    1  0.4840632E-008  0.6438257E+03  0.7818608E-02  0.9818434E-01
          2   -1    0    0  501    0  0.00000000000E+00  0.00000000000E+00  0.23856516912E+04  0.23856516912E+04  0.25500000000E-02 0. -1.
         -2   -1    0    0    0  501 -0.00000000000E+00 -0.00000000000E+00 -0.26153754738E+03  0.26153754739E+03  0.25500000000E-02 0.  1.
    8880022    1    1    2    0    0 -0.54807999994E+03 -0.30121114433E+03  0.18288882280E+04  0.19389026906E+04  0.15294330000E+03 0.  0.
    8880022    1    1    2    0    0  0.54807999994E+03  0.30121114433E+03  0.29522591584E+03  0.70828654809E+03  0.15294330000E+03 0.  0.
<mgrwt>
<rscale>  0 0.64382567E+03</rscale>
<asrwt>0</asrwt>
<pdfrwt beam="1">  1        2 0.36702336E+00 0.64382567E+03</pdfrwt>
<pdfrwt beam="2">  1       -2 0.40236544E-01 0.64382567E+03</pdfrwt>
<totfact> 0.25093329E+01</totfact>
</mgrwt>
</event>
<event>
 4    1  0.4840632E-008  0.1079697E+04  0.7818608E-02  0.9225209E-01
          2   -1    0    0  501    0  0.00000000000E+00  0.00000000000E+00  0.26869624689E+04  0.26869624689E+04  0.25500000000E-02 0. -1.
         -2   -1    0    0    0  501 -0.00000000000E+00 -0.00000000000E+00 -0.46008876813E+03  0.46008876814E+03  0.25500000000E-02 0.  1.
    8880022    1    1    2    0    0 -0.39764366085E+03 -0.99208595046E+03  0.73768590492E+03  0.13076418322E+04  0.15294330000E+03 0.  0.
    8880022    1    1    2    0    0  0.39764366085E+03  0.99208595046E+03  0.14891877959E+04  0.18394094048E+04  0.15294330000E+03 0.  0.
<mgrwt>
<rscale>  0 0.10796975E+04</rscale>
<asrwt>0</asrwt>
<pdfrwt beam="1">  1        2 0.41337883E+00 0.10796975E+04</pdfrwt>
<pdfrwt beam="2">  1       -2 0.70782890E-01 0.10796975E+04</pdfrwt>
<totfact> 0.49255293E+00</totfact>
</mgrwt>
</event>
<event>
 4    1  0.4840632E-008  0.6080658E+03  0.7818608E-02  0.9888812E-01
          2   -1    0    0  501    0  0.00000000000E+00  0.00000000000E+00  0.85357511948E+03  0.85357511948E+03  0.25500000000E-02 0. -1.
         -2   -1    0    0    0  501 -0.00000000000E+00 -0.00000000000E+00 -0.11588915130E+04  0.11588915130E+04  0.25500000000E-02 0.  1.
    8880022    1    1    2    0    0 -0.58061733428E+03  0.96103324051E+02 -0.94893121521E+03  0.11270379062E+04  0.15294330000E+03 0.  1.
    8880022    1    1    2    0    0  0.58061733428E+03 -0.96103324051E+02  0.64361482165E+03  0.88542872634E+03  0.15294330000E+03 0.  0.
<mgrwt>
<rscale>  0 0.60806578E+03</rscale>
<asrwt>0</asrwt>
<pdfrwt beam="1">  1        2 0.13131925E+00 0.60806578E+03</pdfrwt>
<pdfrwt beam="2">  1       -2 0.17829100E+00 0.60806578E+03</pdfrwt>
<totfact> 0.61172942E+00</totfact>
</mgrwt>
</event>
<event>
 4    1  0.4840632E-008  0.5346429E+03  0.7818608E-02  0.1005112E+00
         -2   -1    0    0    0  501 -0.00000000000E+00  0.00000000000E+00  0.10516379569E+04  0.10516379569E+04  0.25500000000E-02 0.  1.
          2   -1    0    0  501    0  0.00000000000E+00 -0.00000000000E+00 -0.38398628530E+03  0.38398628531E+03  0.25500000000E-02 0. -1.
    8880022    1    1    2    0    0  0.34504190667E+03 -0.37867854591E+03 -0.54153353304E+02  0.53737844874E+03  0.15294330000E+03 0.  0.
    8880022    1    1    2    0    0 -0.34504190667E+03  0.37867854591E+03  0.72180502487E+03  0.89824579344E+03  0.15294330000E+03 0.  0.
<mgrwt>
<rscale>  0 0.53464288E+03</rscale>
<asrwt>0</asrwt>
<pdfrwt beam="1">  1        2 0.59074814E-01 0.53464288E+03</pdfrwt>
<pdfrwt beam="2">  1       -2 0.16179045E+00 0.53464288E+03</pdfrwt>
<totfact> 0.21061188E+01</totfact>
</mgrwt>
</event>
<event>
 4    1  0.4840632E-008  0.1044421E+04  0.7818608E-02  0.9261123E-01
          2   -1    0    0  501    0  0.00000000000E+00  0.00000000000E+00  0.78939743275E+03  0.78939743276E+03  0.25500000000E-02 0. -1.
         -2   -1    0    0    0  501 -0.00000000000E+00 -0.00000000000E+00 -0.21013393366E+04  0.21013393366E+04  0.25500000000E-02 0.  1.
    8880022    1    1    2    0    0 -0.64460891055E+03 -0.80740500637E+03  0.18979047355E+03  0.10615251145E+04  0.15294330000E+03 0. -1.
    8880022    1    1    2    0    0  0.64460891055E+03  0.80740500637E+03 -0.15017323774E+04  0.18292116548E+04  0.15294330000E+03 0.  1.
<mgrwt>
<rscale>  0 0.10444210E+04</rscale>
<asrwt>0</asrwt>
<pdfrwt beam="1">  1        2 0.12144576E+00 0.10444210E+04</pdfrwt>
<pdfrwt beam="2">  1       -2 0.32328297E+00 0.10444210E+04</pdfrwt>
<totfact> 0.80280049E-01</totfact>
</mgrwt>
</event>
<event>
 4    1  0.4840632E-008  0.2832475E+03  0.7818608E-02  0.1093928E+00
         -2   -1    0    0    0  501 -0.00000000000E+00  0.00000000000E+00  0.84082131176E+02  0.84082131215E+02  0.25500000000E-02 0.  1.
          2   -1    0    0  501    0  0.00000000000E+00 -0.00000000000E+00 -0.24933204765E+04  0.24933204765E+04  0.25500000000E-02 0. -1.
    8880022    1    1    2    0    0 -0.23363158503E+03  0.47474140649E+02 -0.19210085609E+03  0.34224538489E+03  0.15294330000E+03 0.  0.
    8880022    1    1    2    0    0  0.23363158503E+03 -0.47474140649E+02 -0.22171374892E+04  0.22351572228E+04  0.15294330000E+03 0.  0.
<mgrwt>
<rscale>  0 0.28324753E+03</rscale>
<asrwt>0</asrwt>
<pdfrwt beam="1">  1        2 0.38358771E+00 0.28324753E+03</pdfrwt>
<pdfrwt beam="2">  1       -2 0.12935714E-01 0.28324753E+03</pdfrwt>
<totfact> 0.17689258E+02</totfact>
</mgrwt>
</event>
<event>
 4    1  0.4840632E-008  0.6612773E+03  0.7818608E-02  0.9785845E-01
          2   -1    0    0  501    0  0.00000000000E+00  0.00000000000E+00  0.19327213355E+04  0.19327213355E+04  0.25500000000E-02 0. -1.
         -2   -1    0    0    0  501 -0.00000000000E+00 -0.00000000000E+00 -0.41671456593E+03  0.41671456594E+03  0.25500000000E-02 0.  1.
    8880022    1    1    2    0    0  0.60776551758E+03 -0.21099088545E+03  0.15521775207E+04  0.16871700528E+04  0.15294330000E+03 0.  0.
    8880022    1    1    2    0    0 -0.60776551758E+03  0.21099088545E+03 -0.36170751133E+02  0.66226584870E+03  0.15294330000E+03 0.  0.
<mgrwt>
<rscale>  0 0.66127735E+03</rscale>
<asrwt>0</asrwt>
<pdfrwt beam="1">  1        2 0.29734174E+00 0.66127735E+03</pdfrwt>
<pdfrwt beam="2">  1       -2 0.64109934E-01 0.66127735E+03</pdfrwt>
<totfact> 0.17141572E+01</totfact>
</mgrwt>
</event>
<event>
 4    1  0.4840632E-008  0.3564369E+03  0.7818608E-02  0.1060004E+00
         -2   -1    0    0    0  501 -0.00000000000E+00  0.00000000000E+00  0.23821553335E+03  0.23821553337E+03  0.25500000000E-02 0.  1.
          2   -1    0    0  501    0  0.00000000000E+00 -0.00000000000E+00 -0.11049083024E+04  0.11049083024E+04  0.25500000000E-02 0. -1.
    8880022    1    1    2    0    0  0.12908791418E+03  0.29494391910E+03 -0.91636200959E+03  0.98324289503E+03  0.15294330000E+03 0. -1.
    8880022    1    1    2    0    0 -0.12908791418E+03 -0.29494391910E+03  0.49669240586E+02  0.35988094069E+03  0.15294330000E+03 0.  0.
<mgrwt>
<rscale>  0 0.35643689E+03</rscale>
<asrwt>0</asrwt>
<pdfrwt beam="1">  1        2 0.16998589E+00 0.35643689E+03</pdfrwt>
<pdfrwt beam="2">  1       -2 0.36648544E-01 0.35643689E+03</pdfrwt>
<totfact> 0.15940770E+02</totfact>
</mgrwt>
</event>
<event>
 4    1  0.4840632E-008  0.8902609E+03  0.7818608E-02  0.9437838E-01
          2   -1    0    0  501    0  0.00000000000E+00  0.00000000000E+00  0.14102665906E+04  0.14102665907E+04  0.25500000000E-02 0. -1.
         -2   -1    0    0    0  501 -0.00000000000E+00 -0.00000000000E+00 -0.97500798641E+03  0.97500798641E+03  0.25500000000E-02 0.  1.
    8880022    1    1    2    0    0 -0.86604136829E+03 -0.13836583894E+03 -0.55859197031E+03  0.10509944811E+04  0.15294330000E+03 0.  0.
    8880022    1    1    2    0    0  0.86604136829E+03  0.13836583894E+03  0.99385057455E+03  0.13342800960E+04  0.15294330000E+03 0.  0.
<mgrwt>
<rscale>  0 0.89026087E+03</rscale>
<asrwt>0</asrwt>
<pdfrwt beam="1">  1        2 0.21696409E+00 0.89026087E+03</pdfrwt>
<pdfrwt beam="2">  1       -2 0.15000123E+00 0.89026087E+03</pdfrwt>
<totfact> 0.42995395E+00</totfact>
</mgrwt>
</event>
<event>
 4    1  0.4840632E-008  0.1152976E+04  0.7818608E-02  0.9155042E-01
          2   -1    0    0  501    0  0.00000000000E+00  0.00000000000E+00  0.63484367312E+03  0.63484367312E+03  0.25500000000E-02 0. -1.
         -2   -1    0    0    0  501 -0.00000000000E+00 -0.00000000000E+00 -0.21009336170E+04  0.21009336170E+04  0.25500000000E-02 0.  1.
    8880022    1    1    2    0    0  0.66921003095E+03 -0.92634788499E+03 -0.65438661940E+03  0.13257360108E+04  0.15294330000E+03 0.  0.
    8880022    1    1    2    0    0 -0.66921003095E+03  0.92634788499E+03 -0.81170332448E+03  0.14100412794E+04  0.15294330000E+03 0.  0.
<mgrwt>
<rscale>  0 0.11529762E+04</rscale>
<asrwt>0</asrwt>
<pdfrwt beam="1">  1        2 0.97668258E-01 0.11529762E+04</pdfrwt>
<pdfrwt beam="2">  1       -2 0.32322055E+00 0.11529762E+04</pdfrwt>
<totfact> 0.10488603E+00</totfact>
</mgrwt>
</event>
<event>
 4    1  0.4840632E-008  0.2993960E+03  0.7818608E-02  0.1085543E+00
         -2   -1    0    0    0  501 -0.00000000000E+00  0.00000000000E+00  0.77248330867E+02  0.77248330909E+02  0.25500000000E-02 0.  1.
          2   -1    0    0  501    0  0.00000000000E+00 -0.00000000000E+00 -0.17758273929E+04  0.17758273929E+04  0.25500000000E-02 0. -1.
    8880022    1    1    2    0    0 -0.49625294222E+02  0.25255428460E+03 -0.13947404204E+04  0.14265128215E+04  0.15294330000E+03 0. -1.
    8880022    1    1    2    0    0  0.49625294222E+02 -0.25255428460E+03 -0.30383864165E+03  0.42656290236E+03  0.15294330000E+03 0.  0.
<mgrwt>
<rscale>  0 0.29939604E+03</rscale>
<asrwt>0</asrwt>
<pdfrwt beam="1">  1        2 0.27320418E+00 0.29939604E+03</pdfrwt>
<pdfrwt beam="2">  1       -2 0.11884360E-01 0.29939604E+03</pdfrwt>
<totfact> 0.48874003E+02</totfact>
</mgrwt>
</event>
<event>
 4    1  0.4840632E-008  0.6672818E+03  0.7818608E-02  0.9774881E-01
         -2   -1    0    0    0  501 -0.00000000000E+00  0.00000000000E+00  0.41996252514E+03  0.41996252515E+03  0.25500000000E-02 0.  1.
          2   -1    0    0  501    0  0.00000000000E+00 -0.00000000000E+00 -0.11712234001E+04  0.11712234001E+04  0.25500000000E-02 0. -1.
    8880022    1    1    2    0    0 -0.64484430504E+03  0.77776124325E+02 -0.62052658765E+03  0.91121797735E+03  0.15294330000E+03 0. -1.
    8880022    1    1    2    0    0  0.64484430504E+03 -0.77776124325E+02 -0.13073428728E+03  0.67996794788E+03  0.15294330000E+03 0.  1.
<mgrwt>
<rscale>  0 0.66728177E+03</rscale>
<asrwt>0</asrwt>
<pdfrwt beam="1">  1        2 0.18018821E+00 0.66728177E+03</pdfrwt>
<pdfrwt beam="2">  1       -2 0.64609620E-01 0.66728177E+03</pdfrwt>
<totfact> 0.44734124E+01</totfact>
</mgrwt>
</event>
<event>
 4    1  0.4840632E-008  0.5655568E+03  0.7818608E-02  0.9979559E-01
         -2   -1    0    0    0  501 -0.00000000000E+00  0.00000000000E+00  0.21817371124E+03  0.21817371125E+03  0.25500000000E-02 0.  1.
          2   -1    0    0  501    0  0.00000000000E+00 -0.00000000000E+00 -0.23310345313E+04  0.23310345313E+04  0.25500000000E-02 0. -1.
    8880022    1    1    2    0    0  0.52419296231E+03  0.14725671072E+03 -0.27999717342E+03  0.63107279352E+03  0.15294330000E+03 0.  0.
    8880022    1    1    2    0    0 -0.52419296231E+03 -0.14725671072E+03 -0.18328636466E+04  0.19181354490E+04  0.15294330000E+03 0.  0.
<mgrwt>
<rscale>  0 0.56555676E+03</rscale>
<asrwt>0</asrwt>
<pdfrwt beam="1">  1        2 0.35862068E+00 0.56555676E+03</pdfrwt>
<pdfrwt beam="2">  1       -2 0.33565188E-01 0.56555676E+03</pdfrwt>
<totfact> 0.38594874E+01</totfact>
</mgrwt>
</event>
<event>
 4    1  0.4840632E-008  0.1074635E+04  0.7818608E-02  0.9230273E-01
          2   -1    0    0  501    0  0.00000000000E+00  0.00000000000E+00  0.28210261493E+04  0.28210261493E+04  0.25500000000E-02 0. -1.
         -2   -1    0    0    0  501 -0.00000000000E+00 -0.00000000000E+00 -0.49536792867E+03  0.49536792868E+03  0.25500000000E-02 0.  1.
    8880022    1    1    2    0    0 -0.55854046511E+03  0.90525161017E+03  0.47192198390E+03  0.11736907347E+04  0.15294330000E+03 0.  0.
    8880022    1    1    2    0    0  0.55854046511E+03 -0.90525161017E+03  0.18537362368E+04  0.21427033433E+04  0.15294330000E+03 0.  0.
<mgrwt>
<rscale>  0 0.10746346E+04</rscale>
<asrwt>0</asrwt>
<pdfrwt beam="1">  1        2 0.43400402E+00 0.10746346E+04</pdfrwt>
<pdfrwt beam="2">  1       -2 0.76210452E-01 0.10746346E+04</pdfrwt>
<totfact> 0.34839114E+00</totfact>
</mgrwt>
</event>
<event>
 4    1  0.4840632E-008  0.2251712E+03  0.7818608E-02  0.1130085E+00
         -2   -1    0    0    0  501 -0.00000000000E+00  0.00000000000E+00  0.44932213161E+02  0.44932213234E+02  0.25500000000E-02 0.  1.
          2   -1    0    0  501    0  0.00000000000E+00 -0.00000000000E+00 -0.12129821648E+04  0.12129821648E+04  0.25500000000E-02 0. -1.
    8880022    1    1    2    0    0  0.66423837919E+02 -0.15132178528E+03 -0.75009899667E+03  0.78316701077E+03  0.15294330000E+03 0.  1.
    8880022    1    1    2    0    0 -0.66423837919E+02  0.15132178528E+03 -0.41795095494E+03  0.47474736723E+03  0.15294330000E+03 0. -1.
<mgrwt>
<rscale>  0 0.22517118E+03</rscale>
<asrwt>0</asrwt>
<pdfrwt beam="1">  1        2 0.18661262E+00 0.22517118E+03</pdfrwt>
<pdfrwt beam="2">  1       -2 0.69126491E-02 0.22517118E+03</pdfrwt>
<totfact> 0.23313072E+03</totfact>
</mgrwt>
</event>
<event>
 4    1  0.4840632E-008  0.2891469E+03  0.7818608E-02  0.1090795E+00
         -2   -1    0    0    0  501 -0.00000000000E+00  0.00000000000E+00  0.10707310850E+03  0.10707310853E+03  0.25500000000E-02 0.  1.
          2   -1    0    0  501    0  0.00000000000E+00 -0.00000000000E+00 -0.11164616209E+04  0.11164616210E+04  0.25500000000E-02 0. -1.
    8880022    1    1    2    0    0  0.22028667019E+02 -0.24439524494E+03 -0.16926919681E+03  0.33504926791E+03  0.15294330000E+03 0.  0.
    8880022    1    1    2    0    0 -0.22028667019E+02  0.24439524494E+03 -0.84011931563E+03  0.88848546158E+03  0.15294330000E+03 0.  0.
<mgrwt>
<rscale>  0 0.28914694E+03</rscale>
<asrwt>0</asrwt>
<pdfrwt beam="1">  1        2 0.17176332E+00 0.28914694E+03</pdfrwt>
<pdfrwt beam="2">  1       -2 0.16472787E-01 0.28914694E+03</pdfrwt>
<totfact> 0.65521923E+02</totfact>
</mgrwt>
</event>
<event>
 4    1  0.4840632E-008  0.2175774E+03  0.7818608E-02  0.1135702E+00
         -2   -1    0    0    0  501 -0.00000000000E+00  0.00000000000E+00  0.54305268844E+03  0.54305268845E+03  0.25500000000E-02 0.  1.
          2   -1    0    0  501    0  0.00000000000E+00 -0.00000000000E+00 -0.89657275254E+03  0.89657275255E+03  0.25500000000E-02 0. -1.
    8880022    1    1    2    0    0  0.13246779714E+03  0.80003420516E+02  0.50716435876E+03  0.55186556731E+03  0.15294330000E+03 0.  0.
    8880022    1    1    2    0    0 -0.13246779714E+03 -0.80003420516E+02 -0.86068442285E+03  0.88775987369E+03  0.15294330000E+03 0. -1.
<mgrwt>
<rscale>  0 0.21757738E+03</rscale>
<asrwt>0</asrwt>
<pdfrwt beam="1">  1        2 0.13793427E+00 0.21757738E+03</pdfrwt>
<pdfrwt beam="2">  1       -2 0.83546568E-01 0.21757738E+03</pdfrwt>
<totfact> 0.40676362E+01</totfact>
</mgrwt>
</event>
<event>
 4    1  0.4840632E-008  0.3538560E+03  0.7818608E-02  0.1061043E+00
         -2   -1    0    0    0  501 -0.00000000000E+00  0.00000000000E+00  0.18024897610E+03  0.18024897611E+03  0.25500000000E-02 0.  1.
          2   -1    0    0  501    0  0.00000000000E+00 -0.00000000000E+00 -0.11015339113E+04  0.11015339113E+04  0.25500000000E-02 0. -1.
    8880022    1    1    2    0    0  0.27917761998E+03  0.15453886402E+03 -0.85014352390E+03  0.92084638688E+03  0.15294330000E+03 0.  0.
    8880022    1    1    2    0    0 -0.27917761998E+03 -0.15453886402E+03 -0.71141411275E+02  0.36093650051E+03  0.15294330000E+03 0.  0.
<mgrwt>
<rscale>  0 0.35385598E+03</rscale>
<asrwt>0</asrwt>
<pdfrwt beam="1">  1        2 0.16946675E+00 0.35385598E+03</pdfrwt>
<pdfrwt beam="2">  1       -2 0.27730612E-01 0.35385598E+03</pdfrwt>
<totfact> 0.26846420E+02</totfact>
</mgrwt>
</event>
<event>
 4    1  0.4840632E-008  0.6610644E+03  0.7818608E-02  0.9786236E-01
         -2   -1    0    0    0  501 -0.00000000000E+00  0.00000000000E+00  0.26294681086E+03  0.26294681087E+03  0.25500000000E-02 0.  1.
          2   -1    0    0  501    0  0.00000000000E+00 -0.00000000000E+00 -0.28432330194E+04  0.28432330194E+04  0.25500000000E-02 0. -1.
    8880022    1    1    2    0    0 -0.52089540125E+03  0.37720340464E+03 -0.22912171802E+04  0.23846765498E+04  0.15294330000E+03 0.  0.
    8880022    1    1    2    0    0  0.52089540125E+03 -0.37720340464E+03 -0.28906902837E+03  0.72150328045E+03  0.15294330000E+03 0.  0.
<mgrwt>
<rscale>  0 0.66106435E+03</rscale>
<asrwt>0</asrwt>
<pdfrwt beam="1">  1        2 0.43742044E+00 0.66106435E+03</pdfrwt>
<pdfrwt beam="2">  1       -2 0.40453358E-01 0.66106435E+03</pdfrwt>
<totfact> 0.13527027E+01</totfact>
</mgrwt>
</event>
<event>
 4    1  0.4840632E-008  0.1302252E+04  0.7818608E-02  0.9027781E-01
         -2   -1    0    0    0  501 -0.00000000000E+00  0.00000000000E+00  0.21202573192E+04  0.21202573192E+04  0.25500000000E-02 0.  1.
          2   -1    0    0  501    0  0.00000000000E+00 -0.00000000000E+00 -0.10673879015E+04  0.10673879015E+04  0.25500000000E-02 0. -1.
    8880022    1    1    2    0    0 -0.96824700027E+03 -0.85730168263E+03 -0.27152712674E+03  0.13302582690E+04  0.15294330000E+03 0.  0.
    8880022    1    1    2    0    0  0.96824700027E+03  0.85730168263E+03  0.13243965445E+04  0.18573869518E+04  0.15294330000E+03 0.  0.
<mgrwt>
<rscale>  0 0.13022519E+04</rscale>
<asrwt>0</asrwt>
<pdfrwt beam="1">  1        2 0.16421352E+00 0.13022519E+04</pdfrwt>
<pdfrwt beam="2">  1       -2 0.32619344E+00 0.13022519E+04</pdfrwt>
<totfact> 0.48429646E-01</totfact>
</mgrwt>
</event>
<event>
 4    1  0.4840632E-008  0.4884184E+03  0.7818608E-02  0.1016847E+00
          2   -1    0    0  501    0  0.00000000000E+00  0.00000000000E+00  0.84583885373E+03  0.84583885374E+03  0.25500000000E-02 0. -1.
         -2   -1    0    0    0  501 -0.00000000000E+00 -0.00000000000E+00 -0.29482819561E+03  0.29482819562E+03  0.25500000000E-02 0.  1.
    8880022    1    1    2    0    0 -0.46102526653E+03 -0.51152185548E+02  0.39433022979E+03  0.62773308469E+03  0.15294330000E+03 0.  0.
    8880022    1    1    2    0    0  0.46102526653E+03  0.51152185548E+02  0.15668042833E+03  0.51293396466E+03  0.15294330000E+03 0.  0.
<mgrwt>
<rscale>  0 0.48841836E+03</rscale>
<asrwt>0</asrwt>
<pdfrwt beam="1">  1        2 0.13012906E+00 0.48841836E+03</pdfrwt>
<pdfrwt beam="2">  1       -2 0.45358184E-01 0.48841836E+03</pdfrwt>
<totfact> 0.15175621E+02</totfact>
</mgrwt>
</event>
<event>
 4    1  0.4840632E-008  0.4443443E+03  0.7818608E-02  0.1029422E+00
         -2   -1    0    0    0  501 -0.00000000000E+00  0.00000000000E+00  0.77406350948E+03  0.77406350949E+03  0.25500000000E-02 0.  1.
          2   -1    0    0  501    0  0.00000000000E+00 -0.00000000000E+00 -0.69665258053E+03  0.69665258053E+03  0.25500000000E-02 0. -1.
    8880022    1    1    2    0    0  0.25208553360E+03 -0.33241998212E+03 -0.54675258066E+03  0.70454254537E+03  0.15294330000E+03 0.  0.
    8880022    1    1    2    0    0 -0.25208553360E+03  0.33241998212E+03  0.62416350962E+03  0.76617354465E+03  0.15294330000E+03 0.  0.
<mgrwt>
<rscale>  0 0.44434425E+03</rscale>
<asrwt>0</asrwt>
<pdfrwt beam="1">  1        2 0.10717732E+00 0.44434425E+03</pdfrwt>
<pdfrwt beam="2">  1       -2 0.11908669E+00 0.44434425E+03</pdfrwt>
<totfact> 0.23435521E+01</totfact>
</mgrwt>
</event>
<event>
 4    1  0.4840632E-008  0.2488651E+03  0.7818608E-02  0.1114024E+00
         -2   -1    0    0    0  501 -0.00000000000E+00  0.00000000000E+00  0.59558548546E+03  0.59558548546E+03  0.25500000000E-02 0.  1.
          2   -1    0    0  501    0  0.00000000000E+00 -0.00000000000E+00 -0.80408893003E+03  0.80408893003E+03  0.25500000000E-02 0. -1.
    8880022    1    1    2    0    0  0.17142231722E+03  0.95690061103E+02  0.54876643630E+03  0.60255991674E+03  0.15294330000E+03 0.  0.
    8880022    1    1    2    0    0 -0.17142231722E+03 -0.95690061103E+02 -0.75726988087E+03  0.79711449875E+03  0.15294330000E+03 0.  0.
<mgrwt>
<rscale>  0 0.24886513E+03</rscale>
<asrwt>0</asrwt>
<pdfrwt beam="1">  1        2 0.12370599E+00 0.24886513E+03</pdfrwt>
<pdfrwt beam="2">  1       -2 0.91628536E-01 0.24886513E+03</pdfrwt>
<totfact> 0.37751916E+01</totfact>
</mgrwt>
</event>
<event>
 4    1  0.4840632E-008  0.3283072E+03  0.7818608E-02  0.1071888E+00
         -2   -1    0    0    0  501 -0.00000000000E+00  0.00000000000E+00  0.13678802826E+04  0.13678802826E+04  0.25500000000E-02 0.  1.
          2   -1    0    0  501    0  0.00000000000E+00 -0.00000000000E+00 -0.62300105180E+03  0.62300105181E+03  0.25500000000E-02 0. -1.
    8880022    1    1    2    0    0  0.29042447486E+03  0.68962974945E+01  0.13028009721E+04  0.13435311535E+04  0.15294330000E+03 0.  0.
    8880022    1    1    2    0    0 -0.29042447486E+03 -0.68962974945E+01 -0.55792174121E+03  0.64735018100E+03  0.15294330000E+03 0.  0.
<mgrwt>
<rscale>  0 0.32830715E+03</rscale>
<asrwt>0</asrwt>
<pdfrwt beam="1">  1        2 0.95846317E-01 0.32830715E+03</pdfrwt>
<pdfrwt beam="2">  1       -2 0.21044312E+00 0.32830715E+03</pdfrwt>
<totfact> 0.59590348E+00</totfact>
</mgrwt>
</event>
<event>
 4    1  0.4840632E-008  0.1691030E+03  0.7818608E-02  0.1178787E+00
          2   -1    0    0  501    0  0.00000000000E+00  0.00000000000E+00  0.20123006343E+04  0.20123006343E+04  0.25500000000E-02 0. -1.
         -2   -1    0    0    0  501 -0.00000000000E+00 -0.00000000000E+00 -0.33884994206E+02  0.33884994302E+02  0.25500000000E-02 0.  1.
    8880022    1    1    2    0    0  0.58892197408E+02 -0.41663736104E+02  0.20962358986E+03  0.26932853592E+03  0.15294330000E+03 0.  1.
    8880022    1    1    2    0    0 -0.58892197408E+02  0.41663736104E+02  0.17687920503E+04  0.17768570927E+04  0.15294330000E+03 0.  0.
<mgrwt>
<rscale>  0 0.16910296E+03</rscale>
<asrwt>0</asrwt>
<pdfrwt beam="1">  1        2 0.30958470E+00 0.16910296E+03</pdfrwt>
<pdfrwt beam="2">  1       -2 0.52130762E-02 0.16910296E+03</pdfrwt>
<totfact> 0.13598248E+03</totfact>
</mgrwt>
</event>
<event>
 4    1  0.4840632E-008  0.2131565E+03  0.7818608E-02  0.1139090E+00
         -2   -1    0    0    0  501 -0.00000000000E+00  0.00000000000E+00  0.29084965990E+03  0.29084965991E+03  0.25500000000E-02 0.  1.
          2   -1    0    0  501    0  0.00000000000E+00 -0.00000000000E+00 -0.69262396183E+03  0.69262396184E+03  0.25500000000E-02 0. -1.
    8880022    1    1    2    0    0 -0.16348641287E+02 -0.14756951660E+03  0.23185691627E+03  0.31494971493E+03  0.15294330000E+03 0.  0.
    8880022    1    1    2    0    0  0.16348641287E+02  0.14756951660E+03 -0.63363121820E+03  0.66852390682E+03  0.15294330000E+03 0. -1.
<mgrwt>
<rscale>  0 0.21315650E+03</rscale>
<asrwt>0</asrwt>
<pdfrwt beam="1">  1        2 0.10655753E+00 0.21315650E+03</pdfrwt>
<pdfrwt beam="2">  1       -2 0.44746102E-01 0.21315650E+03</pdfrwt>
<totfact> 0.20702881E+02</totfact>
</mgrwt>
</event>
<event>
 4    1  0.4840632E-008  0.1849960E+04  0.7818608E-02  0.8680174E-01
          2   -1    0    0  501    0  0.00000000000E+00  0.00000000000E+00  0.17551312769E+04  0.17551312769E+04  0.25500000000E-02 0. -1.
         -2   -1    0    0    0  501 -0.00000000000E+00 -0.00000000000E+00 -0.22067771287E+04  0.22067771287E+04  0.25500000000E-02 0.  1.
    8880022    1    1    2    0    0  0.15211980508E+04 -0.10415926045E+04 -0.90166988116E+03  0.20579987588E+04  0.15294330000E+03 0.  0.
    8880022    1    1    2    0    0 -0.15211980508E+04  0.10415926045E+04  0.45002402936E+03  0.19039096469E+04  0.15294330000E+03 0.  0.
<mgrwt>
<rscale>  0 0.18499595E+04</rscale>
<asrwt>0</asrwt>
<pdfrwt beam="1">  1        2 0.27002020E+00 0.18499595E+04</pdfrwt>
<pdfrwt beam="2">  1       -2 0.33950417E+00 0.18499595E+04</pdfrwt>
<totfact> 0.14975577E-01</totfact>
</mgrwt>
</event>
<event>
 4    1  0.4840632E-008  0.5088085E+03  0.7818608E-02  0.1011505E+00
         -2   -1    0    0    0  501 -0.00000000000E+00  0.00000000000E+00  0.41616803693E+03  0.41616803694E+03  0.25500000000E-02 0.  1.
          2   -1    0    0  501    0  0.00000000000E+00 -0.00000000000E+00 -0.16012225427E+04  0.16012225427E+04  0.25500000000E-02 0. -1.
    8880022    1    1    2    0    0 -0.14036591078E+03 -0.46453404720E+03 -0.13813130307E+04  0.14720434136E+04  0.15294330000E+03 0.  0.
    8880022    1    1    2    0    0  0.14036591078E+03  0.46453404720E+03  0.19625852485E+03  0.54534716605E+03  0.15294330000E+03 0.  0.
<mgrwt>
<rscale>  0 0.50880853E+03</rscale>
<asrwt>0</asrwt>
<pdfrwt beam="1">  1        2 0.24634193E+00 0.50880853E+03</pdfrwt>
<pdfrwt beam="2">  1       -2 0.64025853E-01 0.50880853E+03</pdfrwt>
<totfact> 0.26673575E+01</totfact>
</mgrwt>
</event>
<event>
 4    1  0.4840632E-008  0.5393113E+03  0.7818608E-02  0.1003999E+00
          2   -1    0    0  501    0  0.00000000000E+00  0.00000000000E+00  0.11369460619E+04  0.11369460619E+04  0.25500000000E-02 0. -1.
         -2   -1    0    0    0  501 -0.00000000000E+00 -0.00000000000E+00 -0.40720634583E+03  0.40720634584E+03  0.25500000000E-02 0.  1.
    8880022    1    1    2    0    0  0.29729904352E+03 -0.42317641391E+03 -0.10588230907E+03  0.54960687310E+03  0.15294330000E+03 0.  0.
    8880022    1    1    2    0    0 -0.29729904352E+03  0.42317641391E+03  0.83562202515E+03  0.99454553466E+03  0.15294330000E+03 0.  0.
<mgrwt>
<rscale>  0 0.53931128E+03</rscale>
<asrwt>0</asrwt>
<pdfrwt beam="1">  1        2 0.17491478E+00 0.53931128E+03</pdfrwt>
<pdfrwt beam="2">  1       -2 0.62647130E-01 0.53931128E+03</pdfrwt>
<totfact> 0.50830426E+01</totfact>
</mgrwt>
</event>
<event>
 4    1  0.4840632E-008  0.5505693E+03  0.7818608E-02  0.1001362E+00
         -2   -1    0    0    0  501 -0.00000000000E+00  0.00000000000E+00  0.31840851488E+03  0.31840851489E+03  0.25500000000E-02 0.  1.
          2   -1    0    0  501    0  0.00000000000E+00 -0.00000000000E+00 -0.12115809180E+04  0.12115809180E+04  0.25500000000E-02 0. -1.
    8880022    1    1    2    0    0  0.71049193695E+02 -0.52410581577E+03 -0.92495685947E+02  0.55828487260E+03  0.15294330000E+03 0.  0.
    8880022    1    1    2    0    0 -0.71049193695E+02  0.52410581577E+03 -0.80067671720E+03  0.97170456031E+03  0.15294330000E+03 0.  0.
<mgrwt>
<rscale>  0 0.55056929E+03</rscale>
<asrwt>0</asrwt>
<pdfrwt beam="1">  1        2 0.18639706E+00 0.55056929E+03</pdfrwt>
<pdfrwt beam="2">  1       -2 0.48985926E-01 0.55056929E+03</pdfrwt>
<totfact> 0.76287731E+01</totfact>
</mgrwt>
</event>
<event>
 4    1  0.4840632E-008  0.4270186E+03  0.7818608E-02  0.1034806E+00
         -2   -1    0    0    0  501 -0.00000000000E+00  0.00000000000E+00  0.61590323692E+02  0.61590323745E+02  0.25500000000E-02 0.  1.
          2   -1    0    0  501    0  0.00000000000E+00 -0.00000000000E+00 -0.35160959045E+04  0.35160959045E+04  0.25500000000E-02 0. -1.
    8880022    1    1    2    0    0 -0.11728320621E+03  0.38104835770E+03 -0.10162375853E+04  0.11023083435E+04  0.15294330000E+03 0.  0.
    8880022    1    1    2    0    0  0.11728320621E+03 -0.38104835770E+03 -0.24382679955E+04  0.24753778847E+04  0.15294330000E+03 0. -1.
<mgrwt>
<rscale>  0 0.42701856E+03</rscale>
<asrwt>0</asrwt>
<pdfrwt beam="1">  1        2 0.54093767E+00 0.42701856E+03</pdfrwt>
<pdfrwt beam="2">  1       -2 0.94754372E-02 0.42701856E+03</pdfrwt>
<totfact> 0.68084740E+01</totfact>
</mgrwt>
</event>
<event>
 4    1  0.4840632E-008  0.2463612E+03  0.7818608E-02  0.1115626E+00
          2   -1    0    0  501    0  0.00000000000E+00  0.00000000000E+00  0.11835952498E+04  0.11835952498E+04  0.25500000000E-02 0. -1.
         -2   -1    0    0    0  501 -0.00000000000E+00 -0.00000000000E+00 -0.18813791732E+03  0.18813791734E+03  0.25500000000E-02 0.  1.
    8880022    1    1    2    0    0 -0.19189011658E+03 -0.21917445829E+02  0.10827041627E+04  0.11103792812E+04  0.15294330000E+03 0.  0.
    8880022    1    1    2    0    0  0.19189011658E+03  0.21917445829E+02 -0.87246830231E+02  0.26135388589E+03  0.15294330000E+03 0.  1.
<mgrwt>
<rscale>  0 0.24636121E+03</rscale>
<asrwt>0</asrwt>
<pdfrwt beam="1">  1        2 0.18209158E+00 0.24636121E+03</pdfrwt>
<pdfrwt beam="2">  1       -2 0.28944295E-01 0.24636121E+03</pdfrwt>
<totfact> 0.22595447E+02</totfact>
</mgrwt>
</event>
<event>
 4    1  0.4840632E-008  0.6049745E+03  0.7818608E-02  0.9895139E-01
          2   -1    0    0  501    0  0.00000000000E+00  0.00000000000E+00  0.67495860428E+03  0.67495860428E+03  0.25500000000E-02 0. -1.
         -2   -1    0    0    0  501 -0.00000000000E+00 -0.00000000000E+00 -0.69509289467E+03  0.69509289467E+03  0.25500000000E-02 0.  1.
    8880022    1    1    2    0    0  0.56997394868E+03  0.13316246445E+03  0.31116021742E+03  0.68030498898E+03  0.15294330000E+03 0. -1.
    8880022    1    1    2    0    0 -0.56997394868E+03 -0.13316246445E+03 -0.33129450781E+03  0.68974650998E+03  0.15294330000E+03 0.  0.
<mgrwt>
<rscale>  0 0.60497454E+03</rscale>
<asrwt>0</asrwt>
<pdfrwt beam="1">  1        2 0.10383979E+00 0.60497454E+03</pdfrwt>
<pdfrwt beam="2">  1       -2 0.10693737E+00 0.60497454E+03</pdfrwt>
<totfact> 0.30991804E+01</totfact>
</mgrwt>
</event>
<event>
 4    1  0.4840632E-008  0.2231313E+03  0.7818608E-02  0.1131570E+00
         -2   -1    0    0    0  501 -0.00000000000E+00  0.00000000000E+00  0.55320987189E+02  0.55320987248E+02  0.25500000000E-02 0.  1.
          2   -1    0    0  501    0  0.00000000000E+00 -0.00000000000E+00 -0.31966243122E+04  0.31966243122E+04  0.25500000000E-02 0. -1.
    8880022    1    1    2    0    0  0.12895050903E+03  0.98831591855E+02 -0.29488593527E+04  0.29572891391E+04  0.15294330000E+03 0. -1.
    8880022    1    1    2    0    0 -0.12895050903E+03 -0.98831591855E+02 -0.19244397231E+03  0.29465616033E+03  0.15294330000E+03 0.  0.
<mgrwt>
<rscale>  0 0.22313128E+03</rscale>
<asrwt>0</asrwt>
<pdfrwt beam="1">  1        2 0.49178821E+00 0.22313128E+03</pdfrwt>
<pdfrwt beam="2">  1       -2 0.85109236E-02 0.22313128E+03</pdfrwt>
<totfact> 0.13872792E+02</totfact>
</mgrwt>
</event>
<event>
 4    1  0.4840632E-008  0.1767916E+04  0.7818608E-02  0.8723550E-01
          2   -1    0    0  501    0  0.00000000000E+00  0.00000000000E+00  0.28675528553E+04  0.28675528553E+04  0.25500000000E-02 0. -1.
         -2   -1    0    0    0  501 -0.00000000000E+00 -0.00000000000E+00 -0.12134152609E+04  0.12134152609E+04  0.25500000000E-02 0.  1.
    8880022    1    1    2    0    0  0.16573356530E+04 -0.59613167884E+03  0.17622277048E+03  0.17766768314E+04  0.15294330000E+03 0.  0.
    8880022    1    1    2    0    0 -0.16573356530E+04  0.59613167884E+03  0.14779148240E+04  0.23042912848E+04  0.15294330000E+03 0.  0.
<mgrwt>
<rscale>  0 0.17679157E+04</rscale>
<asrwt>0</asrwt>
<pdfrwt beam="1">  1        2 0.44116197E+00 0.17679157E+04</pdfrwt>
<pdfrwt beam="2">  1       -2 0.18667927E+00 0.17679157E+04</pdfrwt>
<totfact> 0.31436316E-01</totfact>
</mgrwt>
</event>
<event>
 4    1  0.4840632E-008  0.5648594E+03  0.7818608E-02  0.9981119E-01
          2   -1    0    0  501    0  0.00000000000E+00  0.00000000000E+00  0.13965895316E+04  0.13965895316E+04  0.25500000000E-02 0. -1.
         -2   -1    0    0    0  501 -0.00000000000E+00 -0.00000000000E+00 -0.35481667403E+03  0.35481667404E+03  0.25500000000E-02 0.  1.
    8880022    1    1    2    0    0 -0.35828164516E+03  0.40903398540E+03 -0.16930044362E+01  0.56486198115E+03  0.15294330000E+03 0.  1.
    8880022    1    1    2    0    0  0.35828164516E+03 -0.40903398540E+03  0.10434658620E+04  0.11865442245E+04  0.15294330000E+03 0.  0.
<mgrwt>
<rscale>  0 0.56485944E+03</rscale>
<asrwt>0</asrwt>
<pdfrwt beam="1">  1        2 0.21485993E+00 0.56485944E+03</pdfrwt>
<pdfrwt beam="2">  1       -2 0.54587181E-01 0.56485944E+03</pdfrwt>
<totfact> 0.47878317E+01</totfact>
</mgrwt>
</event>
<event>
 4    1  0.4840632E-008  0.3716445E+03  0.7818608E-02  0.1054066E+00
         -2   -1    0    0    0  501 -0.00000000000E+00  0.00000000000E+00  0.58424117056E+03  0.58424117056E+03  0.25500000000E-02 0.  1.
          2   -1    0    0  501    0  0.00000000000E+00 -0.00000000000E+00 -0.13090166161E+04  0.13090166161E+04  0.25500000000E-02 0. -1.
    8880022    1    1    2    0    0  0.33025193292E+03 -0.75243931151E+02 -0.12192828911E+04  0.12746648226E+04  0.15294330000E+03 0. -1.
    8880022    1    1    2    0    0 -0.33025193292E+03  0.75243931151E+02  0.49450744561E+03  0.61859296404E+03  0.15294330000E+03 0.  0.
<mgrwt>
<rscale>  0 0.37164451E+03</rscale>
<asrwt>0</asrwt>
<pdfrwt beam="1">  1        2 0.20138717E+00 0.37164451E+03</pdfrwt>
<pdfrwt beam="2">  1       -2 0.89883257E-01 0.37164451E+03</pdfrwt>
<totfact> 0.18818530E+01</totfact>
</mgrwt>
</event>
<event>
 4    1  0.4840632E-008  0.2771856E+03  0.7818608E-02  0.1097236E+00
          2   -1    0    0  501    0  0.00000000000E+00  0.00000000000E+00  0.26254274158E+04  0.26254274158E+04  0.25500000000E-02 0. -1.
         -2   -1    0    0    0  501 -0.00000000000E+00 -0.00000000000E+00 -0.21721858903E+03  0.21721858905E+03  0.25500000000E-02 0.  1.
    8880022    1    1    2    0    0 -0.52330577276E+02  0.22517040376E+03 -0.11801342653E+03  0.30126238050E+03  0.15294330000E+03 0.  0.
    8880022    1    1    2    0    0  0.52330577276E+02 -0.22517040376E+03  0.25262222532E+04  0.25413836243E+04  0.15294330000E+03 0.  0.
<mgrwt>
<rscale>  0 0.27718559E+03</rscale>
<asrwt>0</asrwt>
<pdfrwt beam="1">  1        2 0.40391190E+00 0.27718559E+03</pdfrwt>
<pdfrwt beam="2">  1       -2 0.33418245E-01 0.27718559E+03</pdfrwt>
<totfact> 0.28904567E+01</totfact>
</mgrwt>
</event>
<event>
 4    1  0.4840632E-008  0.7646970E+03  0.7818608E-02  0.9612571E-01
         -2   -1    0    0    0  501 -0.00000000000E+00  0.00000000000E+00  0.40646105003E+03  0.40646105004E+03  0.25500000000E-02 0.  1.
          2   -1    0    0  501    0  0.00000000000E+00 -0.00000000000E+00 -0.25662727756E+04  0.25662727756E+04  0.25500000000E-02 0. -1.
    8880022    1    1    2    0    0 -0.70010403384E+03  0.26687870811E+03 -0.20651719260E+04  0.22022026791E+04  0.15294330000E+03 0.  0.
    8880022    1    1    2    0    0  0.70010403384E+03 -0.26687870811E+03 -0.94639799558E+02  0.77053114649E+03  0.15294330000E+03 0.  0.
<mgrwt>
<rscale>  0 0.76469704E+03</rscale>
<asrwt>0</asrwt>
<pdfrwt beam="1">  1        2 0.39481119E+00 0.76469704E+03</pdfrwt>
<pdfrwt beam="2">  1       -2 0.62532471E-01 0.76469704E+03</pdfrwt>
<totfact> 0.79207303E+00</totfact>
</mgrwt>
</event>
<event>
 4    1  0.4840632E-008  0.4458039E+03  0.7818608E-02  0.1028981E+00
         -2   -1    0    0    0  501 -0.00000000000E+00  0.00000000000E+00  0.24342049850E+03  0.24342049851E+03  0.25500000000E-02 0.  1.
          2   -1    0    0  501    0  0.00000000000E+00 -0.00000000000E+00 -0.15392326068E+04  0.15392326068E+04  0.25500000000E-02 0. -1.
    8880022    1    1    2    0    0  0.12890764003E+03 -0.39841219757E+03 -0.12586905624E+04  0.13353063483E+04  0.15294330000E+03 0.  0.
    8880022    1    1    2    0    0 -0.12890764003E+03  0.39841219757E+03 -0.37121545875E+02  0.44734675702E+03  0.15294330000E+03 0.  0.
<mgrwt>
<rscale>  0 0.44580389E+03</rscale>
<asrwt>0</asrwt>
<pdfrwt beam="1">  1        2 0.23680501E+00 0.44580389E+03</pdfrwt>
<pdfrwt beam="2">  1       -2 0.37449308E-01 0.44580389E+03</pdfrwt>
<totfact> 0.85874715E+01</totfact>
</mgrwt>
</event>
<event>
 4    1  0.5251249E-008  0.3120262E+03  0.7818608E-02  0.1079379E+00
         -2   -1    0    0    0  501 -0.00000000000E+00  0.00000000000E+00  0.13385227798E+04  0.13385227798E+04  0.25500000000E-02 0.  1.
          2   -1    0    0  501    0  0.00000000000E+00 -0.00000000000E+00 -0.18790374189E+04  0.18790374189E+04  0.25500000000E-02 0. -1.
    8880022    1    1    2    0    0  0.25576432856E+03  0.92483929494E+02 -0.18475923382E+04  0.18737549920E+04  0.15294330000E+03 0. -1.
    8880022    1    1    2    0    0 -0.25576432856E+03 -0.92483929494E+02  0.13070776991E+04  0.13438052067E+04  0.15294330000E+03 0.  0.
<mgrwt>
<rscale>  0 0.31202616E+03</rscale>
<asrwt>0</asrwt>
<pdfrwt beam="1">  1        2 0.28908268E+00 0.31202616E+03</pdfrwt>
<pdfrwt beam="2">  1       -2 0.20592658E+00 0.31202616E+03</pdfrwt>
<totfact> 0.11338949E+00</totfact>
</mgrwt>
</event>
<event>
 4    1  0.4840632E-008  0.2688934E+03  0.7818608E-02  0.1101915E+00
         -2   -1    0    0    0  501 -0.00000000000E+00  0.00000000000E+00  0.58561102430E+02  0.58561102485E+02  0.25500000000E-02 0.  1.
          2   -1    0    0  501    0  0.00000000000E+00 -0.00000000000E+00 -0.13702134186E+04  0.13702134186E+04  0.25500000000E-02 0. -1.
    8880022    1    1    2    0    0 -0.18078351397E+03 -0.12739428980E+03 -0.43113871956E+03  0.50811832531E+03  0.15294330000E+03 0.  1.
    8880022    1    1    2    0    0  0.18078351397E+03  0.12739428980E+03 -0.88051359657E+03  0.92065619574E+03  0.15294330000E+03 0. -1.
<mgrwt>
<rscale>  0 0.26889336E+03</rscale>
<asrwt>0</asrwt>
<pdfrwt beam="1">  1        2 0.21080204E+00 0.26889336E+03</pdfrwt>
<pdfrwt beam="2">  1       -2 0.90094014E-02 0.26889336E+03</pdfrwt>
<totfact> 0.12590565E+03</totfact>
</mgrwt>
</event>
<event>
 4    1  0.4840632E-008  0.5440232E+03  0.7818608E-02  0.1002887E+00
          2   -1    0    0  501    0  0.00000000000E+00  0.00000000000E+00  0.15320859452E+04  0.15320859452E+04  0.25500000000E-02 0. -1.
         -2   -1    0    0    0  501 -0.00000000000E+00 -0.00000000000E+00 -0.30723481851E+03  0.30723481852E+03  0.25500000000E-02 0.  1.
    8880022    1    1    2    0    0 -0.18628686818E+03 -0.48771586555E+03  0.11727737386E+04  0.12928106813E+04  0.15294330000E+03 0.  0.
    8880022    1    1    2    0    0  0.18628686818E+03  0.48771586555E+03  0.52077388054E+02  0.54651008237E+03  0.15294330000E+03 0.  0.
<mgrwt>
<rscale>  0 0.54402318E+03</rscale>
<asrwt>0</asrwt>
<pdfrwt beam="1">  1        2 0.23570553E+00 0.54402318E+03</pdfrwt>
<pdfrwt beam="2">  1       -2 0.47266895E-01 0.54402318E+03</pdfrwt>
<totfact> 0.54134452E+01</totfact>
</mgrwt>
</event>
<event>
 4    1  0.4840632E-008  0.6617264E+03  0.7818608E-02  0.9785021E-01
          2   -1    0    0  501    0  0.00000000000E+00  0.00000000000E+00  0.54876574653E+03  0.54876574654E+03  0.25500000000E-02 0. -1.
         -2   -1    0    0    0  501 -0.00000000000E+00 -0.00000000000E+00 -0.10969280100E+04  0.10969280100E+04  0.25500000000E-02 0.  1.
    8880022    1    1    2    0    0  0.13046975507E+03  0.63045045149E+03  0.15551199357E+03  0.67975419228E+03  0.15294330000E+03 0.  0.
    8880022    1    1    2    0    0 -0.13046975507E+03 -0.63045045149E+03 -0.70367425706E+03  0.96593956427E+03  0.15294330000E+03 0.  0.
<mgrwt>
<rscale>  0 0.66172636E+03</rscale>
<asrwt>0</asrwt>
<pdfrwt beam="1">  1        2 0.84425500E-01 0.66172636E+03</pdfrwt>
<pdfrwt beam="2">  1       -2 0.16875815E+00 0.66172636E+03</pdfrwt>
<totfact> 0.12311611E+01</totfact>
</mgrwt>
</event>
<event>
 4    1  0.4840632E-008  0.1570269E+03  0.7818608E-02  0.1192095E+00
          2   -1    0    0  501    0  0.00000000000E+00  0.00000000000E+00  0.35394486251E+03  0.35394486252E+03  0.25500000000E-02 0. -1.
         -2   -1    0    0    0  501 -0.00000000000E+00 -0.00000000000E+00 -0.10953270506E+04  0.10953270506E+04  0.25500000000E-02 0.  1.
    8880022    1    1    2    0    0  0.75639736314E+01 -0.34764699445E+02 -0.10719044626E+04  0.10833451103E+04  0.15294330000E+03 0.  0.
    8880022    1    1    2    0    0 -0.75639736314E+01  0.34764699445E+02  0.33052227454E+03  0.36592680280E+03  0.15294330000E+03 0. -1.
<mgrwt>
<rscale>  0 0.15702691E+03</rscale>
<asrwt>0</asrwt>
<pdfrwt beam="1">  1        2 0.54453057E-01 0.15702691E+03</pdfrwt>
<pdfrwt beam="2">  1       -2 0.16851185E+00 0.15702691E+03</pdfrwt>
<totfact> 0.22197813E+01</totfact>
</mgrwt>
</event>
<event>
 4    1  0.4840632E-008  0.5439215E+03  0.7818608E-02  0.1002911E+00
         -2   -1    0    0    0  501 -0.00000000000E+00  0.00000000000E+00  0.11739734350E+04  0.11739734350E+04  0.25500000000E-02 0.  1.
          2   -1    0    0  501    0  0.00000000000E+00 -0.00000000000E+00 -0.10874375081E+04  0.10874375081E+04  0.25500000000E-02 0. -1.
    8880022    1    1    2    0    0 -0.31540997754E+03 -0.41590323424E+03  0.10343332504E+04  0.11686299158E+04  0.15294330000E+03 0.  0.
    8880022    1    1    2    0    0  0.31540997754E+03  0.41590323424E+03 -0.94779732351E+03  0.10927810273E+04  0.15294330000E+03 0.  0.
<mgrwt>
<rscale>  0 0.54392151E+03</rscale>
<asrwt>0</asrwt>
<pdfrwt beam="1">  1        2 0.16729808E+00 0.54392151E+03</pdfrwt>
<pdfrwt beam="2">  1       -2 0.18061130E+00 0.54392151E+03</pdfrwt>
<totfact> 0.42188200E+00</totfact>
</mgrwt>
</event>
<event>
 4    1  0.4840632E-008  0.4922277E+03  0.7818608E-02  0.1015828E+00
          2   -1    0    0  501    0  0.00000000000E+00  0.00000000000E+00  0.56766279010E+03  0.56766279010E+03  0.25500000000E-02 0. -1.
         -2   -1    0    0    0  501 -0.00000000000E+00 -0.00000000000E+00 -0.50106093550E+03  0.50106093551E+03  0.25500000000E-02 0.  1.
    8880022    1    1    2    0    0  0.40234965042E+03  0.23877029216E+03  0.23899443521E+03  0.54718048821E+03  0.15294330000E+03 0.  0.
    8880022    1    1    2    0    0 -0.40234965042E+03 -0.23877029216E+03 -0.17239258061E+03  0.52154323740E+03  0.15294330000E+03 0.  1.
<mgrwt>
<rscale>  0 0.49222774E+03</rscale>
<asrwt>0</asrwt>
<pdfrwt beam="1">  1        2 0.87332737E-01 0.49222774E+03</pdfrwt>
<pdfrwt beam="2">  1       -2 0.77086298E-01 0.49222774E+03</pdfrwt>
<totfact> 0.82098460E+01</totfact>
</mgrwt>
</event>
<event>
 4    1  0.4840632E-008  0.1821078E+03  0.7818608E-02  0.1165779E+00
          2   -1    0    0  501    0  0.00000000000E+00  0.00000000000E+00  0.13215237884E+04  0.13215237884E+04  0.25500000000E-02 0. -1.
         -2   -1    0    0    0  501 -0.00000000000E+00 -0.00000000000E+00 -0.25355737205E+02  0.25355737334E+02  0.25500000000E-02 0.  1.
    8880022    1    1    2    0    0  0.62960985625E+02  0.76207108174E+02  0.71641221344E+03  0.73919532035E+03  0.15294330000E+03 0.  1.
    8880022    1    1    2    0    0 -0.62960985625E+02 -0.76207108174E+02  0.57975583771E+03  0.60768420534E+03  0.15294330000E+03 0.  0.
<mgrwt>
<rscale>  0 0.18210783E+03</rscale>
<asrwt>0</asrwt>
<pdfrwt beam="1">  1        2 0.20331135E+00 0.18210783E+03</pdfrwt>
<pdfrwt beam="2">  1       -2 0.39008827E-02 0.18210783E+03</pdfrwt>
<totfact> 0.48295370E+03</totfact>
</mgrwt>
</event>
<event>
 4    1  0.4840632E-008  0.4096583E+03  0.7818608E-02  0.1040486E+00
          2   -1    0    0  501    0  0.00000000000E+00  0.00000000000E+00  0.18383973721E+04  0.18383973721E+04  0.25500000000E-02 0. -1.
         -2   -1    0    0    0  501 -0.00000000000E+00 -0.00000000000E+00 -0.17761463820E+03  0.17761463822E+03  0.25500000000E-02 0.  1.
    8880022    1    1    2    0    0 -0.97834702668E+02 -0.36722831603E+03  0.12764077505E+03  0.42908284236E+03  0.15294330000E+03 0.  1.
    8880022    1    1    2    0    0  0.97834702668E+02  0.36722831603E+03  0.15331419589E+04  0.15869291680E+04  0.15294330000E+03 0.  0.
<mgrwt>
<rscale>  0 0.40965829E+03</rscale>
<asrwt>0</asrwt>
<pdfrwt beam="1">  1        2 0.28283038E+00 0.40965829E+03</pdfrwt>
<pdfrwt beam="2">  1       -2 0.27325328E-01 0.40965829E+03</pdfrwt>
<totfact> 0.10719279E+02</totfact>
</mgrwt>
</event>
<event>
 4    1  0.4840632E-008  0.3664069E+03  0.7818608E-02  0.1056075E+00
         -2   -1    0    0    0  501 -0.00000000000E+00  0.00000000000E+00  0.17859960529E+03  0.17859960531E+03  0.25500000000E-02 0.  1.
          2   -1    0    0  501    0  0.00000000000E+00 -0.00000000000E+00 -0.14522776919E+04  0.14522776919E+04  0.25500000000E-02 0. -1.
    8880022    1    1    2    0    0  0.21816234700E+03 -0.25153038949E+03 -0.70477916823E+02  0.37312348661E+03  0.15294330000E+03 0.  0.
    8880022    1    1    2    0    0 -0.21816234700E+03  0.25153038949E+03 -0.12032001697E+04  0.12577538106E+04  0.15294330000E+03 0.  0.
<mgrwt>
<rscale>  0 0.36640688E+03</rscale>
<asrwt>0</asrwt>
<pdfrwt beam="1">  1        2 0.22342733E+00 0.36640688E+03</pdfrwt>
<pdfrwt beam="2">  1       -2 0.27476863E-01 0.36640688E+03</pdfrwt>
<totfact> 0.17243480E+02</totfact>
</mgrwt>
</event>
<event>
 4    1  0.4840632E-008  0.2399682E+04  0.7818608E-02  0.8439623E-01
          2   -1    0    0  501    0  0.00000000000E+00  0.00000000000E+00  0.23900819951E+04  0.23900819951E+04  0.25500000000E-02 0. -1.
         -2   -1    0    0    0  501 -0.00000000000E+00 -0.00000000000E+00 -0.27274261285E+04  0.27274261285E+04  0.25500000000E-02 0.  1.
    8880022    1    1    2    0    0 -0.23179001378E+04 -0.60201216013E+03  0.70518087623E+03  0.25011500177E+04  0.15294330000E+03 0.  0.
    8880022    1    1    2    0    0  0.23179001378E+04  0.60201216013E+03 -0.10425250096E+04  0.26163581059E+04  0.15294330000E+03 0.  0.
<mgrwt>
<rscale>  0 0.23996815E+04</rscale>
<asrwt>0</asrwt>
<pdfrwt beam="1">  1        2 0.36770492E+00 0.23996815E+04</pdfrwt>
<pdfrwt beam="2">  1       -2 0.41960402E+00 0.23996815E+04</pdfrwt>
<totfact> 0.18819417E-02</totfact>
</mgrwt>
</event>
<event>
 4    1  0.4840632E-008  0.4497526E+03  0.7818608E-02  0.1027796E+00
         -2   -1    0    0    0  501 -0.00000000000E+00  0.00000000000E+00  0.45665905015E+03  0.45665905016E+03  0.25500000000E-02 0.  1.
          2   -1    0    0  501    0  0.00000000000E+00 -0.00000000000E+00 -0.27102557028E+04  0.27102557028E+04  0.25500000000E-02 0. -1.
    8880022    1    1    2    0    0  0.29331241833E+02 -0.42193061183E+03  0.32149397962E+03  0.55284337284E+03  0.15294330000E+03 0.  1.
    8880022    1    1    2    0    0 -0.29331241833E+02  0.42193061183E+03 -0.25750906323E+04  0.26140713801E+04  0.15294330000E+03 0.  0.
<mgrwt>
<rscale>  0 0.44975262E+03</rscale>
<asrwt>0</asrwt>
<pdfrwt beam="1">  1        2 0.41696241E+00 0.44975262E+03</pdfrwt>
<pdfrwt beam="2">  1       -2 0.70255240E-01 0.44975262E+03</pdfrwt>
<totfact> 0.54827101E+00</totfact>
</mgrwt>
</event>
<event>
 4    1  0.4840632E-008  0.6258576E+03  0.7818608E-02  0.9853166E-01
         -2   -1    0    0    0  501 -0.00000000000E+00  0.00000000000E+00  0.30045913045E+03  0.30045913047E+03  0.25500000000E-02 0.  1.
          2   -1    0    0  501    0  0.00000000000E+00 -0.00000000000E+00 -0.14200712193E+04  0.14200712193E+04  0.25500000000E-02 0. -1.
    8880022    1    1    2    0    0 -0.52846489035E+03 -0.29838057586E+03 -0.80610761307E+03  0.10205426229E+04  0.15294330000E+03 0.  0.
    8880022    1    1    2    0    0  0.52846489035E+03  0.29838057586E+03 -0.31350447581E+03  0.69998772686E+03  0.15294330000E+03 0.  0.
<mgrwt>
<rscale>  0 0.62585762E+03</rscale>
<asrwt>0</asrwt>
<pdfrwt beam="1">  1        2 0.21847249E+00 0.62585762E+03</pdfrwt>
<pdfrwt beam="2">  1       -2 0.46224482E-01 0.62585762E+03</pdfrwt>
<totfact> 0.64608686E+01</totfact>
</mgrwt>
</event>
<event>
 4    1  0.5413758E-008  0.3739778E+03  0.7818608E-02  0.1053182E+00
         -2   -1    0    0    0  501 -0.00000000000E+00  0.00000000000E+00  0.14505250197E+04  0.14505250197E+04  0.25500000000E-02 0.  1.
          2   -1    0    0  501    0  0.00000000000E+00 -0.00000000000E+00 -0.13175477633E+04  0.13175477633E+04  0.25500000000E-02 0. -1.
    8880022    1    1    2    0    0 -0.32377942284E+03 -0.10786389146E+03 -0.12659429201E+04  0.13200268420E+04  0.15294330000E+03 0.  0.
    8880022    1    1    2    0    0  0.32377942284E+03  0.10786389146E+03  0.13989201765E+04  0.14480459409E+04  0.15294330000E+03 0.  0.
<mgrwt>
<rscale>  0 0.37397779E+03</rscale>
<asrwt>0</asrwt>
<pdfrwt beam="1">  1        2 0.20269966E+00 0.37397779E+03</pdfrwt>
<pdfrwt beam="2">  1       -2 0.22315769E+00 0.37397779E+03</pdfrwt>
<totfact> 0.17314949E+00</totfact>
</mgrwt>
</event>
<event>
 4    1  0.4840632E-008  0.9598888E+03  0.7818608E-02  0.9353666E-01
         -2   -1    0    0    0  501 -0.00000000000E+00  0.00000000000E+00  0.68311487139E+03  0.68311487140E+03  0.25500000000E-02 0.  1.
          2   -1    0    0  501    0  0.00000000000E+00 -0.00000000000E+00 -0.19885361359E+04  0.19885361359E+04  0.25500000000E-02 0. -1.
    8880022    1    1    2    0    0  0.50492161856E+03 -0.80190342762E+03 -0.14103853591E+04  0.17060402874E+04  0.15294330000E+03 0.  0.
    8880022    1    1    2    0    0 -0.50492161856E+03  0.80190342762E+03  0.10496409463E+03  0.96561071985E+03  0.15294330000E+03 0.  0.
<mgrwt>
<rscale>  0 0.95988885E+03</rscale>
<asrwt>0</asrwt>
<pdfrwt beam="1">  1        2 0.30592863E+00 0.95988885E+03</pdfrwt>
<pdfrwt beam="2">  1       -2 0.10509460E+00 0.95988885E+03</pdfrwt>
<totfact> 0.49978986E+00</totfact>
</mgrwt>
</event>
<event>
 4    1  0.4840632E-008  0.2599310E+03  0.7818608E-02  0.1107185E+00
         -2   -1    0    0    0  501 -0.00000000000E+00  0.00000000000E+00  0.49661113992E+02  0.49661114058E+02  0.25500000000E-02 0.  1.
          2   -1    0    0  501    0  0.00000000000E+00 -0.00000000000E+00 -0.15254680807E+04  0.15254680807E+04  0.25500000000E-02 0. -1.
    8880022    1    1    2    0    0 -0.18269086994E+03 -0.10390620283E+03 -0.99689189630E+03  0.10302220920E+04  0.15294330000E+03 0. -1.
    8880022    1    1    2    0    0  0.18269086994E+03  0.10390620283E+03 -0.47891507043E+03  0.54490710277E+03  0.15294330000E+03 0.  0.
<mgrwt>
<rscale>  0 0.25993096E+03</rscale>
<asrwt>0</asrwt>
<pdfrwt beam="1">  1        2 0.23468736E+00 0.25993096E+03</pdfrwt>
<pdfrwt beam="2">  1       -2 0.76401726E-02 0.25993096E+03</pdfrwt>
<totfact> 0.13459159E+03</totfact>
</mgrwt>
</event>
<event>
 4    1  0.4840632E-008  0.5843140E+03  0.7818608E-02  0.9938495E-01
          2   -1    0    0  501    0  0.00000000000E+00  0.00000000000E+00  0.13993685576E+04  0.13993685576E+04  0.25500000000E-02 0. -1.
         -2   -1    0    0    0  501 -0.00000000000E+00 -0.00000000000E+00 -0.46102813442E+03  0.46102813443E+03  0.25500000000E-02 0.  1.
    8880022    1    1    2    0    0  0.11132540310E+03  0.55284523769E+03 -0.16907323385E+03  0.60828333335E+03  0.15294330000E+03 0.  1.
    8880022    1    1    2    0    0 -0.11132540310E+03 -0.55284523769E+03  0.11074136570E+04  0.12521133587E+04  0.15294330000E+03 0.  0.
<mgrwt>
<rscale>  0 0.58431400E+03</rscale>
<asrwt>0</asrwt>
<pdfrwt beam="1">  1        2 0.21528747E+00 0.58431400E+03</pdfrwt>
<pdfrwt beam="2">  1       -2 0.70927406E-01 0.58431400E+03</pdfrwt>
<totfact> 0.27303069E+01</totfact>
</mgrwt>
</event>
<event>
 4    1  0.7750075E-008  0.5779732E+03  0.7818608E-02  0.9952189E-01
          2   -1    0    0  501    0  0.00000000000E+00  0.00000000000E+00  0.12358976832E+04  0.12358976832E+04  0.25500000000E-02 0. -1.
         -2   -1    0    0    0  501 -0.00000000000E+00 -0.00000000000E+00 -0.18265081369E+04  0.18265081369E+04  0.25500000000E-02 0.  1.
    8880022    1    1    2    0    0  0.77214559248E+02  0.55199570135E+03 -0.17086786700E+04  0.18037837434E+04  0.15294330000E+03 0.  0.
    8880022    1    1    2    0    0 -0.77214559248E+02 -0.55199570135E+03  0.11180682164E+04  0.12586220767E+04  0.15294330000E+03 0.  0.
<mgrwt>
<rscale>  0 0.57797318E+03</rscale>
<asrwt>0</asrwt>
<pdfrwt beam="1">  1        2 0.19013810E+00 0.57797318E+03</pdfrwt>
<pdfrwt beam="2">  1       -2 0.28100125E+00 0.57797318E+03</pdfrwt>
<totfact> 0.81395959E-01</totfact>
</mgrwt>
</event>
<event>
 4    1  0.4840632E-008  0.7936557E+03  0.7818608E-02  0.9569246E-01
         -2   -1    0    0    0  501 -0.00000000000E+00  0.00000000000E+00  0.86718171365E+03  0.86718171365E+03  0.25500000000E-02 0.  1.
          2   -1    0    0  501    0  0.00000000000E+00 -0.00000000000E+00 -0.10469531299E+04  0.10469531299E+04  0.25500000000E-02 0. -1.
    8880022    1    1    2    0    0  0.52097692318E+03  0.57886160460E+03 -0.61949241529E+03  0.10068069415E+04  0.15294330000E+03 0.  0.
    8880022    1    1    2    0    0 -0.52097692318E+03 -0.57886160460E+03  0.43972099909E+03  0.90732790204E+03  0.15294330000E+03 0.  0.
<mgrwt>
<rscale>  0 0.79365570E+03</rscale>
<asrwt>0</asrwt>
<pdfrwt beam="1">  1        2 0.16106971E+00 0.79365570E+03</pdfrwt>
<pdfrwt beam="2">  1       -2 0.13341257E+00 0.79365570E+03</pdfrwt>
<totfact> 0.96832551E+00</totfact>
</mgrwt>
</event>
<event>
 4    1  0.4840632E-008  0.7683941E+03  0.7818608E-02  0.9606927E-01
         -2   -1    0    0    0  501 -0.00000000000E+00  0.00000000000E+00  0.74358078040E+03  0.74358078040E+03  0.25500000000E-02 0.  1.
          2   -1    0    0  501    0  0.00000000000E+00 -0.00000000000E+00 -0.12069291557E+04  0.12069291557E+04  0.25500000000E-02 0. -1.
    8880022    1    1    2    0    0  0.44522228722E+03 -0.60730140160E+03  0.33874797570E+03  0.83974979695E+03  0.15294330000E+03 0.  0.
    8880022    1    1    2    0    0 -0.44522228722E+03  0.60730140160E+03 -0.80209635096E+03  0.11107601391E+04  0.15294330000E+03 0.  0.
<mgrwt>
<rscale>  0 0.76839412E+03</rscale>
<asrwt>0</asrwt>
<pdfrwt beam="1">  1        2 0.18568141E+00 0.76839412E+03</pdfrwt>
<pdfrwt beam="2">  1       -2 0.11439704E+00 0.76839412E+03</pdfrwt>
<totfact> 0.11401285E+01</totfact>
</mgrwt>
</event>
<event>
 4    1  0.4840632E-008  0.3216279E+03  0.7818608E-02  0.1074903E+00
          2   -1    0    0  501    0  0.00000000000E+00  0.00000000000E+00  0.87167591319E+03  0.87167591319E+03  0.25500000000E-02 0. -1.
         -2   -1    0    0    0  501 -0.00000000000E+00 -0.00000000000E+00 -0.32472756242E+03  0.32472756243E+03  0.25500000000E-02 0.  1.
    8880022    1    1    2    0    0 -0.10392975361E+02 -0.28274516310E+03  0.74999193633E+03  0.81604681163E+03  0.15294330000E+03 0.  0.
    8880022    1    1    2    0    0  0.10392975361E+02  0.28274516310E+03 -0.20304358556E+03  0.38035666400E+03  0.15294330000E+03 0.  0.
<mgrwt>
<rscale>  0 0.32162788E+03</rscale>
<asrwt>0</asrwt>
<pdfrwt beam="1">  1        2 0.13410399E+00 0.32162788E+03</pdfrwt>
<pdfrwt beam="2">  1       -2 0.49958087E-01 0.32162788E+03</pdfrwt>
<totfact> 0.12250671E+02</totfact>
</mgrwt>
</event>
<event>
 4    1  0.4840632E-008  0.7817731E+03  0.7818608E-02  0.9586781E-01
         -2   -1    0    0    0  501 -0.00000000000E+00  0.00000000000E+00  0.51778243498E+03  0.51778243499E+03  0.25500000000E-02 0.  1.
          2   -1    0    0  501    0  0.00000000000E+00 -0.00000000000E+00 -0.21496592378E+04  0.21496592378E+04  0.25500000000E-02 0. -1.
    8880022    1    1    2    0    0  0.19975976462E+03 -0.74018482402E+03 -0.17115284737E+04  0.18816213504E+04  0.15294330000E+03 0.  0.
    8880022    1    1    2    0    0 -0.19975976462E+03  0.74018482402E+03  0.79651670885E+02  0.78582032231E+03  0.15294330000E+03 0.  0.
<mgrwt>
<rscale>  0 0.78177311E+03</rscale>
<asrwt>0</asrwt>
<pdfrwt beam="1">  1        2 0.33071680E+00 0.78177311E+03</pdfrwt>
<pdfrwt beam="2">  1       -2 0.79658837E-01 0.78177311E+03</pdfrwt>
<totfact> 0.79555683E+00</totfact>
</mgrwt>
</event>
<event>
 4    1  0.4840632E-008  0.4731593E+03  0.7818608E-02  0.1021032E+00
          2   -1    0    0  501    0  0.00000000000E+00  0.00000000000E+00  0.15271707818E+04  0.15271707818E+04  0.25500000000E-02 0. -1.
         -2   -1    0    0    0  501 -0.00000000000E+00 -0.00000000000E+00 -0.78879353254E+03  0.78879353254E+03  0.25500000000E-02 0.  1.
    8880022    1    1    2    0    0  0.12335266511E+02 -0.44758898757E+03 -0.67566136043E+03  0.82486240524E+03  0.15294330000E+03 0.  1.
    8880022    1    1    2    0    0 -0.12335266511E+02  0.44758898757E+03  0.14140386097E+04  0.14911019091E+04  0.15294330000E+03 0.  0.
<mgrwt>
<rscale>  0 0.47315929E+03</rscale>
<asrwt>0</asrwt>
<pdfrwt beam="1">  1        2 0.23494935E+00 0.47315929E+03</pdfrwt>
<pdfrwt beam="2">  1       -2 0.12135285E+00 0.47315929E+03</pdfrwt>
<totfact> 0.68280732E+00</totfact>
</mgrwt>
</event>
<event>
 4    1  0.4840632E-008  0.4098391E+03  0.7818608E-02  0.1040425E+00
         -2   -1    0    0    0  501 -0.00000000000E+00  0.00000000000E+00  0.51091112846E+02  0.51091112910E+02  0.25500000000E-02 0.  1.
          2   -1    0    0  501    0  0.00000000000E+00 -0.00000000000E+00 -0.36166439401E+04  0.36166439401E+04  0.25500000000E-02 0. -1.
    8880022    1    1    2    0    0 -0.30764856781E+03  0.22344746453E+03 -0.12296426933E+04  0.12961439800E+04  0.15294330000E+03 0.  0.
    8880022    1    1    2    0    0  0.30764856781E+03 -0.22344746453E+03 -0.23359101340E+04  0.23715910730E+04  0.15294330000E+03 0.  0.
<mgrwt>
<rscale>  0 0.40983907E+03</rscale>
<asrwt>0</asrwt>
<pdfrwt beam="1">  1        2 0.55640656E+00 0.40983907E+03</pdfrwt>
<pdfrwt beam="2">  1       -2 0.78601740E-02 0.40983907E+03</pdfrwt>
<totfact> 0.78636956E+01</totfact>
</mgrwt>
</event>
<event>
 4    1  0.4840632E-008  0.7919244E+03  0.7818608E-02  0.9571780E-01
         -2   -1    0    0    0  501 -0.00000000000E+00  0.00000000000E+00  0.47975012299E+03  0.47975012299E+03  0.25500000000E-02 0.  1.
          2   -1    0    0  501    0  0.00000000000E+00 -0.00000000000E+00 -0.15014847570E+04  0.15014847570E+04  0.25500000000E-02 0. -1.
    8880022    1    1    2    0    0 -0.64767047964E+03  0.42927325968E+03 -0.15455550860E+03  0.80686531709E+03  0.15294330000E+03 0.  0.
    8880022    1    1    2    0    0  0.64767047964E+03 -0.42927325968E+03 -0.86717912538E+03  0.11743695629E+04  0.15294330000E+03 0.  0.
<mgrwt>
<rscale>  0 0.79192439E+03</rscale>
<asrwt>0</asrwt>
<pdfrwt beam="1">  1        2 0.23099765E+00 0.79192439E+03</pdfrwt>
<pdfrwt beam="2">  1       -2 0.73807712E-01 0.79192439E+03</pdfrwt>
<totfact> 0.21357265E+01</totfact>
</mgrwt>
</event>
<event>
 4    1  0.4840632E-008  0.5495481E+03  0.7818608E-02  0.1001599E+00
          2   -1    0    0  501    0  0.00000000000E+00  0.00000000000E+00  0.88030885450E+03  0.88030885450E+03  0.25500000000E-02 0. -1.
         -2   -1    0    0    0  501 -0.00000000000E+00 -0.00000000000E+00 -0.46152261725E+03  0.46152261726E+03  0.25500000000E-02 0.  1.
    8880022    1    1    2    0    0  0.91858290431E+02  0.51978214454E+03 -0.13050843400E+03  0.56483230048E+03  0.15294330000E+03 0.  0.
    8880022    1    1    2    0    0 -0.91858290431E+02 -0.51978214454E+03  0.54929467124E+03  0.77699917128E+03  0.15294330000E+03 0.  0.
<mgrwt>
<rscale>  0 0.54954807E+03</rscale>
<asrwt>0</asrwt>
<pdfrwt beam="1">  1        2 0.13543213E+00 0.54954807E+03</pdfrwt>
<pdfrwt beam="2">  1       -2 0.71003480E-01 0.54954807E+03</pdfrwt>
<totfact> 0.56308659E+01</totfact>
</mgrwt>
</event>
<event>
 4    1  0.4840632E-008  0.5261852E+03  0.7818608E-02  0.1007162E+00
         -2   -1    0    0    0  501 -0.00000000000E+00  0.00000000000E+00  0.41697365868E+03  0.41697365869E+03  0.25500000000E-02 0.  1.
          2   -1    0    0  501    0  0.00000000000E+00 -0.00000000000E+00 -0.14661071907E+04  0.14661071907E+04  0.25500000000E-02 0. -1.
    8880022    1    1    2    0    0  0.27416034932E+03 -0.42227393019E+03 -0.12209881708E+04  0.13295423782E+04  0.15294330000E+03 0.  0.
    8880022    1    1    2    0    0 -0.27416034932E+03  0.42227393019E+03  0.17185463872E+03  0.55353847122E+03  0.15294330000E+03 0.  0.
<mgrwt>
<rscale>  0 0.52618516E+03</rscale>
<asrwt>0</asrwt>
<pdfrwt beam="1">  1        2 0.22555495E+00 0.52618516E+03</pdfrwt>
<pdfrwt beam="2">  1       -2 0.64149794E-01 0.52618516E+03</pdfrwt>
<totfact> 0.31406183E+01</totfact>
</mgrwt>
</event>
<event>
 4    1  0.4840632E-008  0.5887694E+03  0.7818608E-02  0.9928984E-01
         -2   -1    0    0    0  501 -0.00000000000E+00  0.00000000000E+00  0.44722380719E+03  0.44722380720E+03  0.25500000000E-02 0.  1.
          2   -1    0    0  501    0  0.00000000000E+00 -0.00000000000E+00 -0.22549861929E+04  0.22549861929E+04  0.25500000000E-02 0. -1.
    8880022    1    1    2    0    0  0.71584229221E+01 -0.56851250153E+03 -0.19984152683E+04  0.20833417734E+04  0.15294330000E+03 0.  0.
    8880022    1    1    2    0    0 -0.71584229221E+01  0.56851250153E+03  0.19065288252E+03  0.61886822672E+03  0.15294330000E+03 0.  0.
<mgrwt>
<rscale>  0 0.58876936E+03</rscale>
<asrwt>0</asrwt>
<pdfrwt beam="1">  1        2 0.34692095E+00 0.58876936E+03</pdfrwt>
<pdfrwt beam="2">  1       -2 0.68803664E-01 0.58876936E+03</pdfrwt>
<totfact> 0.99554743E+00</totfact>
</mgrwt>
</event>
<event>
 4    1  0.4840632E-008  0.3992917E+03  0.7818608E-02  0.1044025E+00
         -2   -1    0    0    0  501 -0.00000000000E+00  0.00000000000E+00  0.22807435599E+03  0.22807435600E+03  0.25500000000E-02 0.  1.
          2   -1    0    0  501    0  0.00000000000E+00 -0.00000000000E+00 -0.82174498155E+03  0.82174498155E+03  0.25500000000E-02 0. -1.
    8880022    1    1    2    0    0 -0.49505865289E+02  0.36550152864E+03 -0.49966956447E+03  0.63961201115E+03  0.15294330000E+03 0.  1.
    8880022    1    1    2    0    0  0.49505865289E+02 -0.36550152864E+03 -0.94001061092E+02  0.41020732641E+03  0.15294330000E+03 0.  0.
<mgrwt>
<rscale>  0 0.39929169E+03</rscale>
<asrwt>0</asrwt>
<pdfrwt beam="1">  1        2 0.12642230E+00 0.39929169E+03</pdfrwt>
<pdfrwt beam="2">  1       -2 0.35088363E-01 0.39929169E+03</pdfrwt>
<totfact> 0.26102035E+02</totfact>
</mgrwt>
</event>
<event>
 4    1  0.4840632E-008  0.4402376E+03  0.7818608E-02  0.1030674E+00
          2   -1    0    0  501    0  0.00000000000E+00  0.00000000000E+00  0.96889206474E+03  0.96889206475E+03  0.25500000000E-02 0. -1.
         -2   -1    0    0    0  501 -0.00000000000E+00 -0.00000000000E+00 -0.22592319168E+03  0.22592319169E+03  0.25500000000E-02 0.  1.
    8880022    1    1    2    0    0  0.14546698496E+03 -0.38633776490E+03  0.57372513627E+03  0.72316643818E+03  0.15294330000E+03 0.  0.
    8880022    1    1    2    0    0 -0.14546698496E+03  0.38633776490E+03  0.16924373680E+03  0.47164881826E+03  0.15294330000E+03 0.  0.
<mgrwt>
<rscale>  0 0.44023762E+03</rscale>
<asrwt>0</asrwt>
<pdfrwt beam="1">  1        2 0.14906032E+00 0.44023762E+03</pdfrwt>
<pdfrwt beam="2">  1       -2 0.34757414E-01 0.44023762E+03</pdfrwt>
<totfact> 0.21153680E+02</totfact>
</mgrwt>
</event>
<event>
 4    1  0.4840632E-008  0.4123879E+03  0.7818608E-02  0.1039573E+00
          2   -1    0    0  501    0  0.00000000000E+00  0.00000000000E+00  0.13848505274E+04  0.13848505274E+04  0.25500000000E-02 0. -1.
         -2   -1    0    0    0  501 -0.00000000000E+00 -0.00000000000E+00 -0.29434477619E+03  0.29434477621E+03  0.25500000000E-02 0.  1.
    8880022    1    1    2    0    0 -0.23395147670E+03  0.30321422316E+03 -0.95702787410E+02  0.42334718035E+03  0.15294330000E+03 0.  1.
    8880022    1    1    2    0    0  0.23395147670E+03 -0.30321422316E+03  0.11862085386E+04  0.12558481232E+04  0.15294330000E+03 0.  0.
<mgrwt>
<rscale>  0 0.41238794E+03</rscale>
<asrwt>0</asrwt>
<pdfrwt beam="1">  1        2 0.21305392E+00 0.41238794E+03</pdfrwt>
<pdfrwt beam="2">  1       -2 0.45283812E-01 0.41238794E+03</pdfrwt>
<totfact> 0.72557057E+01</totfact>
</mgrwt>
</event>
<event>
 4    1  0.4840632E-008  0.4686869E+03  0.7818608E-02  0.1022291E+00
         -2   -1    0    0    0  501 -0.00000000000E+00  0.00000000000E+00  0.93365627525E+02  0.93365627560E+02  0.25500000000E-02 0.  1.
          2   -1    0    0  501    0  0.00000000000E+00 -0.00000000000E+00 -0.26266753817E+04  0.26266753817E+04  0.25500000000E-02 0. -1.
    8880022    1    1    2    0    0  0.17883654335E+03 -0.40533105298E+03 -0.17058384895E+04  0.17690540910E+04  0.15294330000E+03 0.  0.
    8880022    1    1    2    0    0 -0.17883654335E+03  0.40533105298E+03 -0.82747126465E+03  0.95098691819E+03  0.15294330000E+03 0.  0.
<mgrwt>
<rscale>  0 0.46868692E+03</rscale>
<asrwt>0</asrwt>
<pdfrwt beam="1">  1        2 0.40410385E+00 0.46868692E+03</pdfrwt>
<pdfrwt beam="2">  1       -2 0.14363945E-01 0.46868692E+03</pdfrwt>
<totfact> 0.12015913E+02</totfact>
</mgrwt>
</event>
<event>
 4    1  0.4840632E-008  0.1871837E+03  0.7818608E-02  0.1161026E+00
         -2   -1    0    0    0  501 -0.00000000000E+00  0.00000000000E+00  0.25287259518E+03  0.25287259519E+03  0.25500000000E-02 0.  1.
          2   -1    0    0  501    0  0.00000000000E+00 -0.00000000000E+00 -0.88050564066E+03  0.88050564067E+03  0.25500000000E-02 0. -1.
    8880022    1    1    2    0    0 -0.10765885892E+03  0.74604405328E+01 -0.83401032810E+03  0.85475784201E+03  0.15294330000E+03 0. -1.
    8880022    1    1    2    0    0  0.10765885892E+03 -0.74604405328E+01  0.20637728261E+03  0.27862039385E+03  0.15294330000E+03 0.  0.
<mgrwt>
<rscale>  0 0.18718371E+03</rscale>
<asrwt>0</asrwt>
<pdfrwt beam="1">  1        2 0.13546240E+00 0.18718371E+03</pdfrwt>
<pdfrwt beam="2">  1       -2 0.38903477E-01 0.18718371E+03</pdfrwt>
<totfact> 0.20135132E+02</totfact>
</mgrwt>
</event>
<event>
 4    1  0.4840632E-008  0.2419038E+03  0.7818608E-02  0.1118531E+00
         -2   -1    0    0    0  501 -0.00000000000E+00  0.00000000000E+00  0.56355503989E+02  0.56355504046E+02  0.25500000000E-02 0.  1.
          2   -1    0    0  501    0  0.00000000000E+00 -0.00000000000E+00 -0.26526646517E+04  0.26526646517E+04  0.25500000000E-02 0. -1.
    8880022    1    1    2    0    0  0.30135109945E+02  0.18498015170E+03 -0.24149888239E+03  0.34181741410E+03  0.15294330000E+03 0.  0.
    8880022    1    1    2    0    0 -0.30135109945E+02 -0.18498015170E+03 -0.23548102653E+04  0.23672027416E+04  0.15294330000E+03 0.  0.
<mgrwt>
<rscale>  0 0.24190377E+03</rscale>
<asrwt>0</asrwt>
<pdfrwt beam="1">  1        2 0.40810216E+00 0.24190377E+03</pdfrwt>
<pdfrwt beam="2">  1       -2 0.86700796E-02 0.24190377E+03</pdfrwt>
<totfact> 0.27764667E+02</totfact>
</mgrwt>
</event>
<event>
 4    1  0.4840632E-008  0.4441159E+03  0.7818608E-02  0.1029491E+00
          2   -1    0    0  501    0  0.00000000000E+00  0.00000000000E+00  0.10953217663E+03  0.10953217666E+03  0.25500000000E-02 0. -1.
         -2   -1    0    0    0  501 -0.00000000000E+00 -0.00000000000E+00 -0.18019570458E+04  0.18019570458E+04  0.25500000000E-02 0.  1.
    8880022    1    1    2    0    0 -0.12679170727E+03 -0.39720417890E+03 -0.82137201547E+03  0.93375100406E+03  0.15294330000E+03 0. -1.
    8880022    1    1    2    0    0  0.12679170727E+03  0.39720417890E+03 -0.87105285372E+03  0.97773821842E+03  0.15294330000E+03 0.  1.
<mgrwt>
<rscale>  0 0.44411592E+03</rscale>
<asrwt>0</asrwt>
<pdfrwt beam="1">  1        2 0.16851105E-01 0.44411592E+03</pdfrwt>
<pdfrwt beam="2">  1       -2 0.27722414E+00 0.44411592E+03</pdfrwt>
<totfact> 0.16342451E+01</totfact>
</mgrwt>
</event>
<event>
 4    1  0.4840632E-008  0.3792162E+03  0.7818608E-02  0.1051224E+00
          2   -1    0    0  501    0  0.00000000000E+00  0.00000000000E+00  0.10003611855E+04  0.10003611855E+04  0.25500000000E-02 0. -1.
         -2   -1    0    0    0  501 -0.00000000000E+00 -0.00000000000E+00 -0.22479779400E+03  0.22479779401E+03  0.25500000000E-02 0.  1.
    8880022    1    1    2    0    0 -0.63342646723E+02 -0.34117583175E+03  0.75559638492E+03  0.84541752346E+03  0.15294330000E+03 0.  0.
    8880022    1    1    2    0    0  0.63342646723E+02  0.34117583175E+03  0.19967006565E+02  0.37974145603E+03  0.15294330000E+03 0.  0.
<mgrwt>
<rscale>  0 0.37921615E+03</rscale>
<asrwt>0</asrwt>
<pdfrwt beam="1">  1        2 0.15390172E+00 0.37921615E+03</pdfrwt>
<pdfrwt beam="2">  1       -2 0.34584276E-01 0.37921615E+03</pdfrwt>
<totfact> 0.20529111E+02</totfact>
</mgrwt>
</event>
<event>
 4    1  0.4840632E-008  0.5420449E+03  0.7818608E-02  0.1003352E+00
          2   -1    0    0  501    0  0.00000000000E+00  0.00000000000E+00  0.69590190087E+03  0.69590190087E+03  0.25500000000E-02 0. -1.
         -2   -1    0    0    0  501 -0.00000000000E+00 -0.00000000000E+00 -0.13421190554E+04  0.13421190554E+04  0.25500000000E-02 0.  1.
    8880022    1    1    2    0    0  0.42684899225E+03  0.29702017143E+03  0.52053100360E+03  0.75150863145E+03  0.15294330000E+03 0.  0.
    8880022    1    1    2    0    0 -0.42684899225E+03 -0.29702017143E+03 -0.11667481581E+04  0.12865123248E+04  0.15294330000E+03 0.  0.
<mgrwt>
<rscale>  0 0.54204492E+03</rscale>
<asrwt>0</asrwt>
<pdfrwt beam="1">  1        2 0.10706183E+00 0.54204492E+03</pdfrwt>
<pdfrwt beam="2">  1       -2 0.20647985E+00 0.54204492E+03</pdfrwt>
<totfact> 0.52544080E+00</totfact>
</mgrwt>
</event>
<event>
 4    1  0.4840632E-008  0.2676576E+03  0.7818608E-02  0.1102628E+00
          2   -1    0    0  501    0  0.00000000000E+00  0.00000000000E+00  0.18566111003E+04  0.18566111003E+04  0.25500000000E-02 0. -1.
         -2   -1    0    0    0  501 -0.00000000000E+00 -0.00000000000E+00 -0.95997906001E+02  0.95997906035E+02  0.25500000000E-02 0.  1.
    8880022    1    1    2    0    0 -0.20921880903E+03  0.66906207309E+02  0.12529690405E+03  0.29553327699E+03  0.15294330000E+03 0.  0.
    8880022    1    1    2    0    0  0.20921880903E+03 -0.66906207309E+02  0.16353162902E+04  0.16570757293E+04  0.15294330000E+03 0.  0.
<mgrwt>
<rscale>  0 0.26765762E+03</rscale>
<asrwt>0</asrwt>
<pdfrwt beam="1">  1        2 0.28563246E+00 0.26765762E+03</pdfrwt>
<pdfrwt beam="2">  1       -2 0.14768909E-01 0.26765762E+03</pdfrwt>
<totfact> 0.31204786E+02</totfact>
</mgrwt>
</event>
<event>
 4    1  0.4840632E-008  0.9584037E+03  0.7818608E-02  0.9355382E-01
         -2   -1    0    0    0  501 -0.00000000000E+00  0.00000000000E+00  0.52876834860E+03  0.52876834861E+03  0.25500000000E-02 0.  1.
          2   -1    0    0  501    0  0.00000000000E+00 -0.00000000000E+00 -0.40380242458E+04  0.40380242458E+04  0.25500000000E-02 0. -1.
    8880022    1    1    2    0    0 -0.94351557995E+03  0.70173747261E+02 -0.30992312850E+02  0.95890467768E+03  0.15294330000E+03 0.  0.
    8880022    1    1    2    0    0  0.94351557995E+03 -0.70173747261E+02 -0.34782635844E+04  0.36078879168E+04  0.15294330000E+03 0.  0.
<mgrwt>
<rscale>  0 0.95840370E+03</rscale>
<asrwt>0</asrwt>
<pdfrwt beam="1">  1        2 0.62123448E+00 0.95840370E+03</pdfrwt>
<pdfrwt beam="2">  1       -2 0.81348979E-01 0.95840370E+03</pdfrwt>
<totfact> 0.45079043E-01</totfact>
</mgrwt>
</event>
<event>
 4    1  0.4840632E-008  0.1022202E+04  0.7818608E-02  0.9284524E-01
         -2   -1    0    0    0  501 -0.00000000000E+00  0.00000000000E+00  0.66037481782E+03  0.66037481782E+03  0.25500000000E-02 0.  1.
          2   -1    0    0  501    0  0.00000000000E+00 -0.00000000000E+00 -0.21114079742E+04  0.21114079742E+04  0.25500000000E-02 0. -1.
    8880022    1    1    2    0    0  0.69704199755E+02  0.10082885040E+04 -0.31732036627E+02  0.10226939708E+04  0.15294330000E+03 0.  1.
    8880022    1    1    2    0    0 -0.69704199755E+02 -0.10082885040E+04 -0.14193011198E+04  0.17490888212E+04  0.15294330000E+03 0.  0.
<mgrwt>
<rscale>  0 0.10222016E+04</rscale>
<asrwt>0</asrwt>
<pdfrwt beam="1">  1        2 0.32483199E+00 0.10222016E+04</pdfrwt>
<pdfrwt beam="2">  1       -2 0.10159613E+00 0.10222016E+04</pdfrwt>
<totfact> 0.46018667E+00</totfact>
</mgrwt>
</event>
<event>
 4    1  0.4840632E-008  0.3135876E+03  0.7818608E-02  0.1078639E+00
          2   -1    0    0  501    0  0.00000000000E+00  0.00000000000E+00  0.98964208990E+03  0.98964208990E+03  0.25500000000E-02 0. -1.
         -2   -1    0    0    0  501 -0.00000000000E+00 -0.00000000000E+00 -0.18979143783E+03  0.18979143785E+03  0.25500000000E-02 0.  1.
    8880022    1    1    2    0    0  0.23480223348E+03  0.14076011596E+03  0.80697701673E+03  0.86576501294E+03  0.15294330000E+03 0.  0.
    8880022    1    1    2    0    0 -0.23480223348E+03 -0.14076011596E+03 -0.71263646595E+01  0.31366851480E+03  0.15294330000E+03 0.  0.
<mgrwt>
<rscale>  0 0.31358755E+03</rscale>
<asrwt>0</asrwt>
<pdfrwt beam="1">  1        2 0.15225263E+00 0.31358755E+03</pdfrwt>
<pdfrwt beam="2">  1       -2 0.29198683E-01 0.31358755E+03</pdfrwt>
<totfact> 0.28719845E+02</totfact>
</mgrwt>
</event>
<event>
 4    1  0.4840632E-008  0.1217926E+04  0.7818608E-02  0.9097309E-01
         -2   -1    0    0    0  501 -0.00000000000E+00  0.00000000000E+00  0.16540322293E+04  0.16540322293E+04  0.25500000000E-02 0.  1.
          2   -1    0    0  501    0  0.00000000000E+00 -0.00000000000E+00 -0.16408209940E+04  0.16408209940E+04  0.25500000000E-02 0. -1.
    8880022    1    1    2    0    0  0.11616591163E+04 -0.33241658801E+03  0.11159505814E+04  0.16518747058E+04  0.15294330000E+03 0.  0.
    8880022    1    1    2    0    0 -0.11616591163E+04  0.33241658801E+03 -0.11027393461E+04  0.16429785175E+04  0.15294330000E+03 0.  0.
<mgrwt>
<rscale>  0 0.12179262E+04</rscale>
<asrwt>0</asrwt>
<pdfrwt beam="1">  1        2 0.25243400E+00 0.12179262E+04</pdfrwt>
<pdfrwt beam="2">  1       -2 0.25446650E+00 0.12179262E+04</pdfrwt>
<totfact> 0.61898638E-01</totfact>
</mgrwt>
</event>
<event>
 4    1  0.4840632E-008  0.4061405E+03  0.7818608E-02  0.1041674E+00
          2   -1    0    0  501    0  0.00000000000E+00  0.00000000000E+00  0.10377581897E+04  0.10377581897E+04  0.25500000000E-02 0. -1.
         -2   -1    0    0    0  501 -0.00000000000E+00 -0.00000000000E+00 -0.36906156464E+03  0.36906156465E+03  0.25500000000E-02 0.  1.
    8880022    1    1    2    0    0 -0.11341394022E+03 -0.35874188130E+03 -0.19639627876E+03  0.45113369477E+03  0.15294330000E+03 0.  0.
    8880022    1    1    2    0    0  0.11341394022E+03  0.35874188130E+03  0.86509290383E+03  0.95568605959E+03  0.15294330000E+03 0.  0.
<mgrwt>
<rscale>  0 0.40614051E+03</rscale>
<asrwt>0</asrwt>
<pdfrwt beam="1">  1        2 0.15965511E+00 0.40614051E+03</pdfrwt>
<pdfrwt beam="2">  1       -2 0.56778702E-01 0.40614051E+03</pdfrwt>
<totfact> 0.73045687E+01</totfact>
</mgrwt>
</event>
<event>
 4    1  0.4840632E-008  0.5451581E+03  0.7818608E-02  0.1002621E+00
          2   -1    0    0  501    0  0.00000000000E+00  0.00000000000E+00  0.14046526810E+04  0.14046526810E+04  0.25500000000E-02 0. -1.
         -2   -1    0    0    0  501 -0.00000000000E+00 -0.00000000000E+00 -0.57096718800E+03  0.57096718800E+03  0.25500000000E-02 0.  1.
    8880022    1    1    2    0    0  0.51032043106E+03 -0.11566638811E+03 -0.36685522843E+03  0.65709973926E+03  0.15294330000E+03 0.  0.
    8880022    1    1    2    0    0 -0.51032043106E+03  0.11566638811E+03  0.12005407214E+04  0.13185201297E+04  0.15294330000E+03 0.  0.
<mgrwt>
<rscale>  0 0.54515806E+03</rscale>
<asrwt>0</asrwt>
<pdfrwt beam="1">  1        2 0.21610041E+00 0.54515806E+03</pdfrwt>
<pdfrwt beam="2">  1       -2 0.87841107E-01 0.54515806E+03</pdfrwt>
<totfact> 0.16927964E+01</totfact>
</mgrwt>
</event>
<event>
 4    1  0.4840632E-008  0.5133127E+03  0.7818608E-02  0.1010361E+00
         -2   -1    0    0    0  501 -0.00000000000E+00  0.00000000000E+00  0.31857782714E+03  0.31857782715E+03  0.25500000000E-02 0.  1.
          2   -1    0    0  501    0  0.00000000000E+00 -0.00000000000E+00 -0.12641134197E+04  0.12641134197E+04  0.25500000000E-02 0. -1.
    8880022    1    1    2    0    0 -0.47537838762E+03 -0.11880092771E+03 -0.74714840567E+01  0.51336706939E+03  0.15294330000E+03 0.  0.
    8880022    1    1    2    0    0  0.47537838762E+03  0.11880092771E+03 -0.93806410854E+03  0.10693241775E+04  0.15294330000E+03 0.  0.
<mgrwt>
<rscale>  0 0.51331270E+03</rscale>
<asrwt>0</asrwt>
<pdfrwt beam="1">  1        2 0.19447898E+00 0.51331270E+03</pdfrwt>
<pdfrwt beam="2">  1       -2 0.49011974E-01 0.51331270E+03</pdfrwt>
<totfact> 0.71384528E+01</totfact>
</mgrwt>
</event>
<event>
 4    1  0.4840632E-008  0.6959950E+03  0.7818608E-02  0.9724106E-01
         -2   -1    0    0    0  501 -0.00000000000E+00  0.00000000000E+00  0.69272992811E+03  0.69272992812E+03  0.25500000000E-02 0.  1.
          2   -1    0    0  501    0  0.00000000000E+00 -0.00000000000E+00 -0.98507698711E+03  0.98507698712E+03  0.25500000000E-02 0. -1.
    8880022    1    1    2    0    0  0.58087187215E+03 -0.35157546570E+03 -0.59803895357E+03  0.91763810020E+03  0.15294330000E+03 0.  0.
    8880022    1    1    2    0    0 -0.58087187215E+03  0.35157546570E+03  0.30569189457E+03  0.76016881504E+03  0.15294330000E+03 0.  0.
<mgrwt>
<rscale>  0 0.69599504E+03</rscale>
<asrwt>0</asrwt>
<pdfrwt beam="1">  1        2 0.15155031E+00 0.69599504E+03</pdfrwt>
<pdfrwt beam="2">  1       -2 0.10657383E+00 0.69599504E+03</pdfrwt>
<totfact> 0.18675938E+01</totfact>
</mgrwt>
</event>
<event>
 4    1  0.4840632E-008  0.3195875E+03  0.7818608E-02  0.1075839E+00
         -2   -1    0    0    0  501 -0.00000000000E+00  0.00000000000E+00  0.12401129769E+03  0.12401129772E+03  0.25500000000E-02 0.  1.
          2   -1    0    0  501    0  0.00000000000E+00 -0.00000000000E+00 -0.32516516831E+04  0.32516516831E+04  0.25500000000E-02 0. -1.
    8880022    1    1    2    0    0 -0.14563345721E+03 -0.23986542870E+03 -0.30223177183E+04  0.30391677432E+04  0.15294330000E+03 0.  0.
    8880022    1    1    2    0    0  0.14563345721E+03  0.23986542870E+03 -0.10532266711E+03  0.33649523766E+03  0.15294330000E+03 0.  0.
<mgrwt>
<rscale>  0 0.31958752E+03</rscale>
<asrwt>0</asrwt>
<pdfrwt beam="1">  1        2 0.50025404E+00 0.31958752E+03</pdfrwt>
<pdfrwt beam="2">  1       -2 0.19078664E-01 0.31958752E+03</pdfrwt>
<totfact> 0.32934392E+01</totfact>
</mgrwt>
</event>
<event>
 4    1  0.4840632E-008  0.1211620E+04  0.7818608E-02  0.9102746E-01
          2   -1    0    0  501    0  0.00000000000E+00  0.00000000000E+00  0.34326604342E+04  0.34326604342E+04  0.25500000000E-02 0. -1.
         -2   -1    0    0    0  501 -0.00000000000E+00 -0.00000000000E+00 -0.56508632812E+03  0.56508632813E+03  0.25500000000E-02 0.  1.
    8880022    1    1    2    0    0 -0.43363123813E+03 -0.11209790963E+04  0.24195173962E+04  0.27059353777E+04  0.15294330000E+03 0.  0.
    8880022    1    1    2    0    0  0.43363123813E+03  0.11209790963E+04  0.44805670987E+03  0.12918113846E+04  0.15294330000E+03 0.  0.
<mgrwt>
<rscale>  0 0.12116195E+04</rscale>
<asrwt>0</asrwt>
<pdfrwt beam="1">  1        2 0.52810159E+00 0.12116195E+04</pdfrwt>
<pdfrwt beam="2">  1       -2 0.86936360E-01 0.12116195E+04</pdfrwt>
<totfact> 0.10354642E+00</totfact>
</mgrwt>
</event>
<event>
 4    1  0.4840632E-008  0.1353799E+04  0.7818608E-02  0.8987957E-01
         -2   -1    0    0    0  501 -0.00000000000E+00  0.00000000000E+00  0.67722055687E+03  0.67722055688E+03  0.25500000000E-02 0.  1.
          2   -1    0    0  501    0  0.00000000000E+00 -0.00000000000E+00 -0.30333632329E+04  0.30333632329E+04  0.25500000000E-02 0. -1.
    8880022    1    1    2    0    0 -0.66802043102E+03 -0.11675308051E+04 -0.56887547867E+03  0.14684653351E+04  0.15294330000E+03 0.  0.
    8880022    1    1    2    0    0  0.66802043102E+03  0.11675308051E+04 -0.17872671974E+04  0.22421184547E+04  0.15294330000E+03 0.  0.
<mgrwt>
<rscale>  0 0.13537988E+04</rscale>
<asrwt>0</asrwt>
<pdfrwt beam="1">  1        2 0.46667126E+00 0.13537988E+04</pdfrwt>
<pdfrwt beam="2">  1       -2 0.10418778E+00 0.13537988E+04</pdfrwt>
<totfact> 0.12072796E+00</totfact>
</mgrwt>
</event>
<event>
 4    1  0.4840632E-008  0.8885214E+03  0.7818608E-02  0.9440045E-01
         -2   -1    0    0    0  501 -0.00000000000E+00  0.00000000000E+00  0.10014446545E+04  0.10014446545E+04  0.25500000000E-02 0.  1.
          2   -1    0    0  501    0  0.00000000000E+00 -0.00000000000E+00 -0.12008792492E+04  0.12008792492E+04  0.25500000000E-02 0. -1.
    8880022    1    1    2    0    0 -0.78198550738E+03 -0.39316309598E+03 -0.74513180267E+03  0.11596083865E+04  0.15294330000E+03 0.  0.
    8880022    1    1    2    0    0  0.78198550738E+03  0.39316309598E+03  0.54569720797E+03  0.10427155171E+04  0.15294330000E+03 0.  0.
<mgrwt>
<rscale>  0 0.88852136E+03</rscale>
<asrwt>0</asrwt>
<pdfrwt beam="1">  1        2 0.18475066E+00 0.88852136E+03</pdfrwt>
<pdfrwt beam="2">  1       -2 0.15406841E+00 0.88852136E+03</pdfrwt>
<totfact> 0.52969607E+00</totfact>
</mgrwt>
</event>
<event>
 4    1  0.4840632E-008  0.5721826E+03  0.7818608E-02  0.9964861E-01
          2   -1    0    0  501    0  0.00000000000E+00  0.00000000000E+00  0.47720329918E+04  0.47720329918E+04  0.25500000000E-02 0. -1.
         -2   -1    0    0    0  501 -0.00000000000E+00 -0.00000000000E+00 -0.13081256250E+03  0.13081256252E+03  0.25500000000E-02 0.  1.
    8880022    1    1    2    0    0  0.38872817809E+03  0.39101358648E+03  0.40110883550E+04  0.40516938021E+04  0.15294330000E+03 0.  0.
    8880022    1    1    2    0    0 -0.38872817809E+03 -0.39101358648E+03  0.63013207429E+03  0.85115175223E+03  0.15294330000E+03 0.  0.
<mgrwt>
<rscale>  0 0.57218255E+03</rscale>
<asrwt>0</asrwt>
<pdfrwt beam="1">  1        2 0.73415899E+00 0.57218255E+03</pdfrwt>
<pdfrwt beam="2">  1       -2 0.20125008E-01 0.57218255E+03</pdfrwt>
<totfact> 0.16433457E+00</totfact>
</mgrwt>
</event>
<event>
 4    1  0.4840632E-008  0.2874831E+03  0.7818608E-02  0.1091671E+00
          2   -1    0    0  501    0  0.00000000000E+00  0.00000000000E+00  0.49980381513E+03  0.49980381514E+03  0.25500000000E-02 0. -1.
         -2   -1    0    0    0  501 -0.00000000000E+00 -0.00000000000E+00 -0.42723827980E+03  0.42723827981E+03  0.25500000000E-02 0.  1.
    8880022    1    1    2    0    0 -0.18753084921E+03 -0.15520010473E+03  0.39918179343E+03  0.49192748362E+03  0.15294330000E+03 0. -1.
    8880022    1    1    2    0    0  0.18753084921E+03  0.15520010473E+03 -0.32661625811E+03  0.43511461133E+03  0.15294330000E+03 0.  0.
<mgrwt>
<rscale>  0 0.28748312E+03</rscale>
<asrwt>0</asrwt>
<pdfrwt beam="1">  1        2 0.76892895E-01 0.28748312E+03</pdfrwt>
<pdfrwt beam="2">  1       -2 0.65728966E-01 0.28748312E+03</pdfrwt>
<totfact> 0.13707829E+02</totfact>
</mgrwt>
</event>
<event>
 4    1  0.4840632E-008  0.1605367E+03  0.7818608E-02  0.1188092E+00
          2   -1    0    0  501    0  0.00000000000E+00  0.00000000000E+00  0.10687660579E+04  0.10687660579E+04  0.25500000000E-02 0. -1.
         -2   -1    0    0    0  501 -0.00000000000E+00 -0.00000000000E+00 -0.45194573384E+03  0.45194573385E+03  0.25500000000E-02 0.  1.
    8880022    1    1    2    0    0  0.46751430840E+02  0.13952620993E+02  0.10482034121E+04  0.10604255834E+04  0.15294330000E+03 0.  0.
    8880022    1    1    2    0    0 -0.46751430840E+02 -0.13952620993E+02 -0.43138308802E+03  0.46028620831E+03  0.15294330000E+03 0.  1.
<mgrwt>
<rscale>  0 0.16053668E+03</rscale>
<asrwt>0</asrwt>
<pdfrwt beam="1">  1        2 0.16442554E+00 0.16053668E+03</pdfrwt>
<pdfrwt beam="2">  1       -2 0.69530114E-01 0.16053668E+03</pdfrwt>
<totfact> 0.48569679E+01</totfact>
</mgrwt>
</event>
<event>
 4    1  0.4840632E-008  0.8224091E+03  0.7818608E-02  0.9528136E-01
          2   -1    0    0  501    0  0.00000000000E+00  0.00000000000E+00  0.16931932358E+04  0.16931932358E+04  0.25500000000E-02 0. -1.
         -2   -1    0    0    0  501 -0.00000000000E+00 -0.00000000000E+00 -0.47232074520E+03  0.47232074520E+03  0.25500000000E-02 0.  1.
    8880022    1    1    2    0    0 -0.75511472036E+03  0.28769216301E+03  0.18516073844E+03  0.84299535801E+03  0.15294330000E+03 0.  0.
    8880022    1    1    2    0    0  0.75511472036E+03 -0.28769216301E+03  0.10357117521E+04  0.13225186230E+04  0.15294330000E+03 0.  0.
<mgrwt>
<rscale>  0 0.82240907E+03</rscale>
<asrwt>0</asrwt>
<pdfrwt beam="1">  1        2 0.26049127E+00 0.82240907E+03</pdfrwt>
<pdfrwt beam="2">  1       -2 0.72664730E-01 0.82240907E+03</pdfrwt>
<totfact> 0.17256481E+01</totfact>
</mgrwt>
</event>
<event>
 4    1  0.4840632E-008  0.6004023E+03  0.7818608E-02  0.9904572E-01
          2   -1    0    0  501    0  0.00000000000E+00  0.00000000000E+00  0.13110993744E+04  0.13110993744E+04  0.25500000000E-02 0. -1.
         -2   -1    0    0    0  501 -0.00000000000E+00 -0.00000000000E+00 -0.91667835328E+03  0.91667835328E+03  0.25500000000E-02 0.  1.
    8880022    1    1    2    0    0  0.35125798334E+03  0.46228684962E+03 -0.73477674460E+03  0.94888345945E+03  0.15294330000E+03 0.  0.
    8880022    1    1    2    0    0 -0.35125798334E+03 -0.46228684962E+03  0.11291977658E+04  0.12788942683E+04  0.15294330000E+03 0.  0.
<mgrwt>
<rscale>  0 0.60040233E+03</rscale>
<asrwt>0</asrwt>
<pdfrwt beam="1">  1        2 0.20170760E+00 0.60040233E+03</pdfrwt>
<pdfrwt beam="2">  1       -2 0.14102744E+00 0.60040233E+03</pdfrwt>
<totfact> 0.60092825E+00</totfact>
</mgrwt>
</event>
<event>
 4    1  0.4840632E-008  0.1190007E+04  0.7818608E-02  0.9121648E-01
         -2   -1    0    0    0  501 -0.00000000000E+00  0.00000000000E+00  0.14217254160E+04  0.14217254160E+04  0.25500000000E-02 0.  1.
          2   -1    0    0  501    0  0.00000000000E+00 -0.00000000000E+00 -0.16927819100E+04  0.16927819100E+04  0.25500000000E-02 0. -1.
    8880022    1    1    2    0    0 -0.10670202763E+04  0.50417631036E+03 -0.11345844881E+04  0.16442018232E+04  0.15294330000E+03 0.  0.
    8880022    1    1    2    0    0  0.10670202763E+04 -0.50417631036E+03  0.86352799401E+03  0.14703055028E+04  0.15294330000E+03 0.  0.
<mgrwt>
<rscale>  0 0.11900074E+04</rscale>
<asrwt>0</asrwt>
<pdfrwt beam="1">  1        2 0.26042798E+00 0.11900074E+04</pdfrwt>
<pdfrwt beam="2">  1       -2 0.21872699E+00 0.11900074E+04</pdfrwt>
<totfact> 0.96833861E-01</totfact>
</mgrwt>
</event>
<event>
 4    1  0.4840632E-008  0.6475226E+03  0.7818608E-02  0.9811439E-01
         -2   -1    0    0    0  501 -0.00000000000E+00  0.00000000000E+00  0.20125348551E+03  0.20125348553E+03  0.25500000000E-02 0.  1.
          2   -1    0    0  501    0  0.00000000000E+00 -0.00000000000E+00 -0.22590627407E+04  0.22590627407E+04  0.25500000000E-02 0. -1.
    8880022    1    1    2    0    0 -0.38976866710E+03  0.49393749537E+03 -0.68584197652E+03  0.94322040529E+03  0.15294330000E+03 0.  0.
    8880022    1    1    2    0    0  0.38976866710E+03 -0.49393749537E+03 -0.13719672787E+04  0.15170958210E+04  0.15294330000E+03 0.  0.
<mgrwt>
<rscale>  0 0.64752260E+03</rscale>
<asrwt>0</asrwt>
<pdfrwt beam="1">  1        2 0.34754810E+00 0.64752260E+03</pdfrwt>
<pdfrwt beam="2">  1       -2 0.30962076E-01 0.64752260E+03</pdfrwt>
<totfact> 0.48529420E+01</totfact>
</mgrwt>
</event>
<event>
 4    1  0.4840632E-008  0.8898620E+03  0.7818608E-02  0.9438344E-01
         -2   -1    0    0    0  501 -0.00000000000E+00  0.00000000000E+00  0.94843562759E+03  0.94843562759E+03  0.25500000000E-02 0.  1.
          2   -1    0    0  501    0  0.00000000000E+00 -0.00000000000E+00 -0.36183094617E+04  0.36183094617E+04  0.25500000000E-02 0. -1.
    8880022    1    1    2    0    0  0.19335331839E+03 -0.85503052601E+03 -0.33376190436E+04  0.34542083375E+04  0.15294330000E+03 0.  0.
    8880022    1    1    2    0    0 -0.19335331839E+03  0.85503052601E+03  0.66774520949E+03  0.11125367517E+04  0.15294330000E+03 0.  0.
<mgrwt>
<rscale>  0 0.88986199E+03</rscale>
<asrwt>0</asrwt>
<pdfrwt beam="1">  1        2 0.55666299E+00 0.88986199E+03</pdfrwt>
<pdfrwt beam="2">  1       -2 0.14591317E+00 0.88986199E+03</pdfrwt>
<totfact> 0.22857792E-01</totfact>
</mgrwt>
</event>
<event>
 4    1  0.4840632E-008  0.5380256E+03  0.7818608E-02  0.1004304E+00
          2   -1    0    0  501    0  0.00000000000E+00  0.00000000000E+00  0.10567735222E+04  0.10567735222E+04  0.25500000000E-02 0. -1.
         -2   -1    0    0    0  501 -0.00000000000E+00 -0.00000000000E+00 -0.35679769375E+03  0.35679769376E+03  0.25500000000E-02 0.  1.
    8880022    1    1    2    0    0 -0.25098924545E+03 -0.45064869151E+03  0.93482051425E+01  0.53810676120E+03  0.15294330000E+03 0.  1.
    8880022    1    1    2    0    0  0.25098924545E+03  0.45064869151E+03  0.69062762333E+03  0.87546445479E+03  0.15294330000E+03 0.  0.
<mgrwt>
<rscale>  0 0.53802555E+03</rscale>
<asrwt>0</asrwt>
<pdfrwt beam="1">  1        2 0.16258054E+00 0.53802555E+03</pdfrwt>
<pdfrwt beam="2">  1       -2 0.54891954E-01 0.53802555E+03</pdfrwt>
<totfact> 0.74957703E+01</totfact>
</mgrwt>
</event>
<event>
 4    1  0.4840632E-008  0.9812947E+03  0.7818608E-02  0.9329302E-01
          2   -1    0    0  501    0  0.00000000000E+00  0.00000000000E+00  0.17547677102E+04  0.17547677102E+04  0.25500000000E-02 0. -1.
         -2   -1    0    0    0  501 -0.00000000000E+00 -0.00000000000E+00 -0.59994912112E+03  0.59994912112E+03  0.25500000000E-02 0.  1.
    8880022    1    1    2    0    0  0.88536801542E+03 -0.39455173404E+03  0.23348928979E+03  0.10086904852E+04  0.15294330000E+03 0.  0.
    8880022    1    1    2    0    0 -0.88536801542E+03  0.39455173404E+03  0.92132929927E+03  0.13460263461E+04  0.15294330000E+03 0.  0.
<mgrwt>
<rscale>  0 0.98129468E+03</rscale>
<asrwt>0</asrwt>
<pdfrwt beam="1">  1        2 0.26996427E+00 0.98129468E+03</pdfrwt>
<pdfrwt beam="2">  1       -2 0.92299864E-01 0.98129468E+03</pdfrwt>
<totfact> 0.91162147E+00</totfact>
</mgrwt>
</event>
<event>
 4    1  0.4840632E-008  0.1811188E+03  0.7818608E-02  0.1166725E+00
          2   -1    0    0  501    0  0.00000000000E+00  0.00000000000E+00  0.16176423373E+04  0.16176423373E+04  0.25500000000E-02 0. -1.
         -2   -1    0    0    0  501 -0.00000000000E+00 -0.00000000000E+00 -0.15540869382E+03  0.15540869384E+03  0.25500000000E-02 0.  1.
    8880022    1    1    2    0    0  0.70516043737E+02  0.66632331051E+02  0.15577809948E+04  0.15682747402E+04  0.15294330000E+03 0.  0.
    8880022    1    1    2    0    0 -0.70516043737E+02 -0.66632331051E+02 -0.95547351340E+02  0.20477629093E+03  0.15294330000E+03 0.  1.
<mgrwt>
<rscale>  0 0.18111884E+03</rscale>
<asrwt>0</asrwt>
<pdfrwt beam="1">  1        2 0.24886803E+00 0.18111884E+03</pdfrwt>
<pdfrwt beam="2">  1       -2 0.23909032E-01 0.18111884E+03</pdfrwt>
<totfact> 0.18771121E+02</totfact>
</mgrwt>
</event>
<event>
 4    1  0.4840632E-008  0.8303897E+03  0.7818608E-02  0.9517042E-01
          2   -1    0    0  501    0  0.00000000000E+00  0.00000000000E+00  0.28493035870E+04  0.28493035870E+04  0.25500000000E-02 0. -1.
         -2   -1    0    0    0  501 -0.00000000000E+00 -0.00000000000E+00 -0.56086966153E+03  0.56086966154E+03  0.25500000000E-02 0.  1.
    8880022    1    1    2    0    0 -0.45371088054E+03  0.67845551980E+03 -0.14141995633E+03  0.84234595774E+03  0.15294330000E+03 0.  0.
    8880022    1    1    2    0    0  0.45371088054E+03 -0.67845551980E+03  0.24298538818E+04  0.25678272908E+04  0.15294330000E+03 0. -1.
<mgrwt>
<rscale>  0 0.83038973E+03</rscale>
<asrwt>0</asrwt>
<pdfrwt beam="1">  1        2 0.43835441E+00 0.83038973E+03</pdfrwt>
<pdfrwt beam="2">  1       -2 0.86287639E-01 0.83038973E+03</pdfrwt>
<totfact> 0.26274834E+00</totfact>
</mgrwt>
</event>
<event>
 4    1  0.4840632E-008  0.2291389E+03  0.7818608E-02  0.1127247E+00
         -2   -1    0    0    0  501 -0.00000000000E+00  0.00000000000E+00  0.15354460097E+03  0.15354460099E+03  0.25500000000E-02 0.  1.
          2   -1    0    0  501    0  0.00000000000E+00 -0.00000000000E+00 -0.28526828159E+04  0.28526828159E+04  0.25500000000E-02 0. -1.
    8880022    1    1    2    0    0  0.11515719142E+03 -0.12590394829E+03  0.60580881949E+02  0.23701198114E+03  0.15294330000E+03 0.  1.
    8880022    1    1    2    0    0 -0.11515719142E+03  0.12590394829E+03 -0.27597190969E+04  0.27692154357E+04  0.15294330000E+03 0.  0.
<mgrwt>
<rscale>  0 0.22913890E+03</rscale>
<asrwt>0</asrwt>
<pdfrwt beam="1">  1        2 0.43887424E+00 0.22913890E+03</pdfrwt>
<pdfrwt beam="2">  1       -2 0.23622248E-01 0.22913890E+03</pdfrwt>
<totfact> 0.41090538E+01</totfact>
</mgrwt>
</event>
<event>
 4    1  0.4840632E-008  0.9776977E+03  0.7818608E-02  0.9333349E-01
          2   -1    0    0  501    0  0.00000000000E+00  0.00000000000E+00  0.94190581476E+03  0.94190581477E+03  0.25500000000E-02 0. -1.
         -2   -1    0    0    0  501 -0.00000000000E+00 -0.00000000000E+00 -0.13284261348E+04  0.13284261348E+04  0.25500000000E-02 0.  1.
    8880022    1    1    2    0    0  0.67173922885E+03 -0.69373452955E+03  0.35826123229E+03  0.10412703552E+04  0.15294330000E+03 0.  0.
    8880022    1    1    2    0    0 -0.67173922885E+03  0.69373452955E+03 -0.74478155237E+03  0.12290615944E+04  0.15294330000E+03 0.  0.
<mgrwt>
<rscale>  0 0.97769773E+03</rscale>
<asrwt>0</asrwt>
<pdfrwt beam="1">  1        2 0.14490859E+00 0.97769773E+03</pdfrwt>
<pdfrwt beam="2">  1       -2 0.20437325E+00 0.97769773E+03</pdfrwt>
<totfact> 0.34056153E+00</totfact>
</mgrwt>
</event>
<event>
 4    1  0.4840632E-008  0.3277895E+03  0.7818608E-02  0.1072119E+00
         -2   -1    0    0    0  501 -0.00000000000E+00  0.00000000000E+00  0.71062719831E+03  0.71062719831E+03  0.25500000000E-02 0.  1.
          2   -1    0    0  501    0  0.00000000000E+00 -0.00000000000E+00 -0.48501897145E+03  0.48501897145E+03  0.25500000000E-02 0. -1.
    8880022    1    1    2    0    0 -0.87694625001E+02  0.27634034958E+03  0.60876747783E+03  0.69140713848E+03  0.15294330000E+03 0.  0.
    8880022    1    1    2    0    0  0.87694625001E+02 -0.27634034958E+03 -0.38315925096E+03  0.50423903129E+03  0.15294330000E+03 0.  0.
<mgrwt>
<rscale>  0 0.32778955E+03</rscale>
<asrwt>0</asrwt>
<pdfrwt beam="1">  1        2 0.74618304E-01 0.32778955E+03</pdfrwt>
<pdfrwt beam="2">  1       -2 0.10932726E+00 0.32778955E+03</pdfrwt>
<totfact> 0.44898828E+01</totfact>
</mgrwt>
</event>
<event>
 4    1  0.4840632E-008  0.3943296E+03  0.7818608E-02  0.1045761E+00
         -2   -1    0    0    0  501 -0.00000000000E+00  0.00000000000E+00  0.33190096272E+03  0.33190096273E+03  0.25500000000E-02 0.  1.
          2   -1    0    0  501    0  0.00000000000E+00 -0.00000000000E+00 -0.20644904745E+04  0.20644904745E+04  0.25500000000E-02 0. -1.
    8880022    1    1    2    0    0  0.20550595793E+03  0.29978578067E+03  0.18720966060E+03  0.43651268375E+03  0.15294330000E+03 0.  0.
    8880022    1    1    2    0    0 -0.20550595793E+03 -0.29978578067E+03 -0.19197991724E+04  0.19598787535E+04  0.15294330000E+03 0. -1.
<mgrwt>
<rscale>  0 0.39432964E+03</rscale>
<asrwt>0</asrwt>
<pdfrwt beam="1">  1        2 0.31761391E+00 0.39432964E+03</pdfrwt>
<pdfrwt beam="2">  1       -2 0.51061688E-01 0.39432964E+03</pdfrwt>
<totfact> 0.24676813E+01</totfact>
</mgrwt>
</event>
<event>
 4    1  0.4840632E-008  0.8804027E+03  0.7818608E-02  0.9450416E-01
          2   -1    0    0  501    0  0.00000000000E+00  0.00000000000E+00  0.16328463477E+04  0.16328463477E+04  0.25500000000E-02 0. -1.
         -2   -1    0    0    0  501 -0.00000000000E+00 -0.00000000000E+00 -0.64552610870E+03  0.64552610871E+03  0.25500000000E-02 0.  1.
    8880022    1    1    2    0    0 -0.66144720954E+03 -0.56053972575E+03  0.10796869811E+04  0.13931377625E+04  0.15294330000E+03 0.  0.
    8880022    1    1    2    0    0  0.66144720954E+03  0.56053972575E+03 -0.92366742128E+02  0.88523469387E+03  0.15294330000E+03 0.  0.
<mgrwt>
<rscale>  0 0.88040266E+03</rscale>
<asrwt>0</asrwt>
<pdfrwt beam="1">  1        2 0.25120713E+00 0.88040266E+03</pdfrwt>
<pdfrwt beam="2">  1       -2 0.99311710E-01 0.88040266E+03</pdfrwt>
<totfact> 0.90652200E+00</totfact>
</mgrwt>
</event>
<event>
 4    1  0.4840632E-008  0.3082619E+03  0.7818608E-02  0.1081182E+00
          2   -1    0    0  501    0  0.00000000000E+00  0.00000000000E+00  0.16377725776E+04  0.16377725776E+04  0.25500000000E-02 0. -1.
         -2   -1    0    0    0  501 -0.00000000000E+00 -0.00000000000E+00 -0.44840749480E+03  0.44840749481E+03  0.25500000000E-02 0.  1.
    8880022    1    1    2    0    0 -0.11459402461E+03  0.24187182761E+03 -0.37858599255E+03  0.48821386527E+03  0.15294330000E+03 0.  0.
    8880022    1    1    2    0    0  0.11459402461E+03 -0.24187182761E+03  0.15679510753E+04  0.15979662071E+04  0.15294330000E+03 0.  0.
<mgrwt>
<rscale>  0 0.30826194E+03</rscale>
<asrwt>0</asrwt>
<pdfrwt beam="1">  1        2 0.25196501E+00 0.30826194E+03</pdfrwt>
<pdfrwt beam="2">  1       -2 0.68985769E-01 0.30826194E+03</pdfrwt>
<totfact> 0.22787791E+01</totfact>
</mgrwt>
</event>
<event>
 4    1  0.4840632E-008  0.4789176E+03  0.7818608E-02  0.1019433E+00
         -2   -1    0    0    0  501 -0.00000000000E+00  0.00000000000E+00  0.77650258976E+03  0.77650258976E+03  0.25500000000E-02 0.  1.
          2   -1    0    0  501    0  0.00000000000E+00 -0.00000000000E+00 -0.10770637343E+04  0.10770637343E+04  0.25500000000E-02 0. -1.
    8880022    1    1    2    0    0 -0.45125652460E+03  0.48352764066E+02 -0.93981925882E+03  0.10548091453E+04  0.15294330000E+03 0.  0.
    8880022    1    1    2    0    0  0.45125652460E+03 -0.48352764066E+02  0.63925811432E+03  0.79875717870E+03  0.15294330000E+03 0.  0.
<mgrwt>
<rscale>  0 0.47891763E+03</rscale>
<asrwt>0</asrwt>
<pdfrwt beam="1">  1        2 0.16570211E+00 0.47891763E+03</pdfrwt>
<pdfrwt beam="2">  1       -2 0.11946194E+00 0.47891763E+03</pdfrwt>
<totfact> 0.12803771E+01</totfact>
</mgrwt>
</event>
<event>
 4    1  0.4840632E-008  0.6328254E+03  0.7818608E-02  0.9839551E-01
         -2   -1    0    0    0  501 -0.00000000000E+00  0.00000000000E+00  0.70254064036E+03  0.70254064036E+03  0.25500000000E-02 0.  1.
          2   -1    0    0  501    0  0.00000000000E+00 -0.00000000000E+00 -0.60089151748E+03  0.60089151748E+03  0.25500000000E-02 0. -1.
    8880022    1    1    2    0    0  0.44020833705E+03 -0.42812731082E+03  0.19852479949E+03  0.66323459146E+03  0.15294330000E+03 0.  1.
    8880022    1    1    2    0    0 -0.44020833705E+03  0.42812731082E+03 -0.96875676616E+02  0.64019756639E+03  0.15294330000E+03 0. -1.
<mgrwt>
<rscale>  0 0.63282543E+03</rscale>
<asrwt>0</asrwt>
<pdfrwt beam="1">  1        2 0.92444849E-01 0.63282543E+03</pdfrwt>
<pdfrwt beam="2">  1       -2 0.10808318E+00 0.63282543E+03</pdfrwt>
<totfact> 0.34715460E+01</totfact>
</mgrwt>
</event>
<event>
 4    1  0.4840632E-008  0.4291813E+03  0.7818608E-02  0.1034119E+00
          2   -1    0    0  501    0  0.00000000000E+00  0.00000000000E+00  0.87401450931E+03  0.87401450932E+03  0.25500000000E-02 0. -1.
         -2   -1    0    0    0  501 -0.00000000000E+00 -0.00000000000E+00 -0.23265208604E+03  0.23265208605E+03  0.25500000000E-02 0.  1.
    8880022    1    1    2    0    0 -0.34475941985E+03 -0.20480698489E+03  0.49046575304E+03  0.65173097713E+03  0.15294330000E+03 0.  0.
    8880022    1    1    2    0    0  0.34475941985E+03  0.20480698489E+03  0.15089667024E+03  0.45493561824E+03  0.15294330000E+03 0.  0.
<mgrwt>
<rscale>  0 0.42918133E+03</rscale>
<asrwt>0</asrwt>
<pdfrwt beam="1">  1        2 0.13446377E+00 0.42918133E+03</pdfrwt>
<pdfrwt beam="2">  1       -2 0.35792629E-01 0.42918133E+03</pdfrwt>
<totfact> 0.23101501E+02</totfact>
</mgrwt>
</event>
<event>
 4    1  0.4840632E-008  0.7072885E+03  0.7818608E-02  0.9704848E-01
          2   -1    0    0  501    0  0.00000000000E+00  0.00000000000E+00  0.10400326046E+04  0.10400326046E+04  0.25500000000E-02 0. -1.
         -2   -1    0    0    0  501 -0.00000000000E+00 -0.00000000000E+00 -0.66887507044E+03  0.66887507045E+03  0.25500000000E-02 0.  1.
    8880022    1    1    2    0    0 -0.62556858272E+03  0.29245393176E+03 -0.26726584666E+03  0.75610054867E+03  0.15294330000E+03 0.  0.
    8880022    1    1    2    0    0  0.62556858272E+03 -0.29245393176E+03  0.63842338082E+03  0.95280712638E+03  0.15294330000E+03 0.  0.
<mgrwt>
<rscale>  0 0.70728849E+03</rscale>
<asrwt>0</asrwt>
<pdfrwt beam="1">  1        2 0.16000501E+00 0.70728849E+03</pdfrwt>
<pdfrwt beam="2">  1       -2 0.10290386E+00 0.70728849E+03</pdfrwt>
<totfact> 0.18723941E+01</totfact>
</mgrwt>
</event>
<event>
 4    1  0.4840632E-008  0.2675214E+03  0.7818608E-02  0.1102707E+00
         -2   -1    0    0    0  501 -0.00000000000E+00  0.00000000000E+00  0.10806837902E+04  0.10806837902E+04  0.25500000000E-02 0.  1.
          2   -1    0    0  501    0  0.00000000000E+00 -0.00000000000E+00 -0.17323714944E+03  0.17323714946E+03  0.25500000000E-02 0. -1.
    8880022    1    1    2    0    0 -0.46005466063E+02 -0.21461489135E+03  0.94648539035E+03  0.98356611454E+03  0.15294330000E+03 0.  0.
    8880022    1    1    2    0    0  0.46005466063E+02  0.21461489135E+03 -0.39038749575E+02  0.27035482515E+03  0.15294330000E+03 0. -1.
<mgrwt>
<rscale>  0 0.26752142E+03</rscale>
<asrwt>0</asrwt>
<pdfrwt beam="1">  1        2 0.26651869E-01 0.26752142E+03</pdfrwt>
<pdfrwt beam="2">  1       -2 0.16625905E+00 0.26752142E+03</pdfrwt>
<totfact> 0.48683711E+01</totfact>
</mgrwt>
</event>
<event>
 4    1  0.4840632E-008  0.5100411E+03  0.7818608E-02  0.1011191E+00
          2   -1    0    0  501    0  0.00000000000E+00  0.00000000000E+00  0.10106949766E+04  0.10106949766E+04  0.25500000000E-02 0. -1.
         -2   -1    0    0    0  501 -0.00000000000E+00 -0.00000000000E+00 -0.58366273911E+03  0.58366273911E+03  0.25500000000E-02 0.  1.
    8880022    1    1    2    0    0 -0.45854951281E+02 -0.48440432389E+03  0.80954290203E+03  0.95681847223E+03  0.15294330000E+03 0.  0.
    8880022    1    1    2    0    0  0.45854951281E+02  0.48440432389E+03 -0.38251066450E+03  0.63753924352E+03  0.15294330000E+03 0.  0.
<mgrwt>
<rscale>  0 0.51004106E+03</rscale>
<asrwt>0</asrwt>
<pdfrwt beam="1">  1        2 0.15549153E+00 0.51004106E+03</pdfrwt>
<pdfrwt beam="2">  1       -2 0.89794268E-01 0.51004106E+03</pdfrwt>
<totfact> 0.27553349E+01</totfact>
</mgrwt>
</event>
<event>
 4    1  0.4840632E-008  0.2639947E+03  0.7818608E-02  0.1104767E+00
         -2   -1    0    0    0  501 -0.00000000000E+00  0.00000000000E+00  0.30651361451E+03  0.30651361452E+03  0.25500000000E-02 0.  1.
          2   -1    0    0  501    0  0.00000000000E+00 -0.00000000000E+00 -0.96746605836E+03  0.96746605837E+03  0.25500000000E-02 0. -1.
    8880022    1    1    2    0    0 -0.10849895869E+03 -0.18582115457E+03 -0.88760751431E+03  0.92603470669E+03  0.15294330000E+03 0.  0.
    8880022    1    1    2    0    0  0.10849895869E+03  0.18582115457E+03  0.22665507046E+03  0.34794496620E+03  0.15294330000E+03 0.  0.
<mgrwt>
<rscale>  0 0.26399466E+03</rscale>
<asrwt>0</asrwt>
<pdfrwt beam="1">  1        2 0.14884093E+00 0.26399466E+03</pdfrwt>
<pdfrwt beam="2">  1       -2 0.47155941E-01 0.26399466E+03</pdfrwt>
<totfact> 0.12039434E+02</totfact>
</mgrwt>
</event>
<event>
 4    1  0.4840632E-008  0.7887535E+03  0.7818608E-02  0.9576440E-01
         -2   -1    0    0    0  501 -0.00000000000E+00  0.00000000000E+00  0.75361914415E+03  0.75361914415E+03  0.25500000000E-02 0.  1.
          2   -1    0    0  501    0  0.00000000000E+00 -0.00000000000E+00 -0.11401225579E+04  0.11401225579E+04  0.25500000000E-02 0. -1.
    8880022    1    1    2    0    0  0.55315156002E+03 -0.54107656818E+03  0.30413251132E+03  0.84535716620E+03  0.15294330000E+03 0.  0.
    8880022    1    1    2    0    0 -0.55315156002E+03  0.54107656818E+03 -0.69063592503E+03  0.10483845358E+04  0.15294330000E+03 0.  0.
<mgrwt>
<rscale>  0 0.78875354E+03</rscale>
<asrwt>0</asrwt>
<pdfrwt beam="1">  1        2 0.17540347E+00 0.78875354E+03</pdfrwt>
<pdfrwt beam="2">  1       -2 0.11594141E+00 0.78875354E+03</pdfrwt>
<totfact> 0.12067198E+01</totfact>
</mgrwt>
</event>
<event>
 4    1  0.4840632E-008  0.7056366E+03  0.7818608E-02  0.9707641E-01
         -2   -1    0    0    0  501 -0.00000000000E+00  0.00000000000E+00  0.42575430281E+03  0.42575430282E+03  0.25500000000E-02 0.  1.
          2   -1    0    0  501    0  0.00000000000E+00 -0.00000000000E+00 -0.12598784138E+04  0.12598784138E+04  0.25500000000E-02 0. -1.
    8880022    1    1    2    0    0  0.64858897392E+03  0.23208548037E+03 -0.19133571437E+03  0.73111718342E+03  0.15294330000E+03 0.  0.
    8880022    1    1    2    0    0 -0.64858897392E+03 -0.23208548037E+03 -0.64278839663E+03  0.95451553321E+03  0.15294330000E+03 0.  0.
<mgrwt>
<rscale>  0 0.70563658E+03</rscale>
<asrwt>0</asrwt>
<pdfrwt beam="1">  1        2 0.19382745E+00 0.70563658E+03</pdfrwt>
<pdfrwt beam="2">  1       -2 0.65500663E-01 0.70563658E+03</pdfrwt>
<totfact> 0.38369009E+01</totfact>
</mgrwt>
</event>
<event>
 4    1  0.4840632E-008  0.5542152E+03  0.7818608E-02  0.1000523E+00
          2   -1    0    0  501    0  0.00000000000E+00  0.00000000000E+00  0.43508800240E+03  0.43508800241E+03  0.25500000000E-02 0. -1.
         -2   -1    0    0    0  501 -0.00000000000E+00 -0.00000000000E+00 -0.80999243891E+03  0.80999243892E+03  0.25500000000E-02 0.  1.
    8880022    1    1    2    0    0 -0.45552178946E+03  0.27615698687E+03  0.35654536626E+02  0.55536085663E+03  0.15294330000E+03 0.  0.
    8880022    1    1    2    0    0  0.45552178946E+03 -0.27615698687E+03 -0.41055897314E+03  0.68971958470E+03  0.15294330000E+03 0.  0.
<mgrwt>
<rscale>  0 0.55421515E+03</rscale>
<asrwt>0</asrwt>
<pdfrwt beam="1">  1        2 0.66936616E-01 0.55421515E+03</pdfrwt>
<pdfrwt beam="2">  1       -2 0.12461422E+00 0.55421515E+03</pdfrwt>
<totfact> 0.35914232E+01</totfact>
</mgrwt>
</event>
<event>
 4    1  0.4840632E-008  0.6322977E+03  0.7818608E-02  0.9840575E-01
         -2   -1    0    0    0  501 -0.00000000000E+00  0.00000000000E+00  0.69188517797E+03  0.69188517797E+03  0.25500000000E-02 0.  1.
          2   -1    0    0  501    0  0.00000000000E+00 -0.00000000000E+00 -0.98350093955E+03  0.98350093955E+03  0.25500000000E-02 0. -1.
    8880022    1    1    2    0    0  0.97072538381E+02 -0.60579343436E+03  0.39218679132E+03  0.74405033104E+03  0.15294330000E+03 0.  0.
    8880022    1    1    2    0    0 -0.97072538381E+02  0.60579343436E+03 -0.68380255290E+03  0.93133578649E+03  0.15294330000E+03 0.  0.
<mgrwt>
<rscale>  0 0.63229773E+03</rscale>
<asrwt>0</asrwt>
<pdfrwt beam="1">  1        2 0.15130784E+00 0.63229773E+03</pdfrwt>
<pdfrwt beam="2">  1       -2 0.10644387E+00 0.63229773E+03</pdfrwt>
<totfact> 0.18917960E+01</totfact>
</mgrwt>
</event>
<event>
 4    1  0.4840632E-008  0.6816021E+03  0.7818608E-02  0.9749223E-01
         -2   -1    0    0    0  501 -0.00000000000E+00  0.00000000000E+00  0.13378008706E+04  0.13378008706E+04  0.25500000000E-02 0.  1.
          2   -1    0    0  501    0  0.00000000000E+00 -0.00000000000E+00 -0.79858918970E+03  0.79858918970E+03  0.25500000000E-02 0. -1.
    8880022    1    1    2    0    0  0.22194998020E+03 -0.62604148681E+03 -0.53342007140E+03  0.86551624046E+03  0.15294330000E+03 0.  0.
    8880022    1    1    2    0    0 -0.22194998020E+03  0.62604148681E+03  0.10726317523E+04  0.12708738198E+04  0.15294330000E+03 0.  0.
<mgrwt>
<rscale>  0 0.68160208E+03</rscale>
<asrwt>0</asrwt>
<pdfrwt beam="1">  1        2 0.12285988E+00 0.68160208E+03</pdfrwt>
<pdfrwt beam="2">  1       -2 0.20581552E+00 0.68160208E+03</pdfrwt>
<totfact> 0.43462804E+00</totfact>
</mgrwt>
</event>
<event>
 4    1  0.4840632E-008  0.2934313E+03  0.7818608E-02  0.1088571E+00
          2   -1    0    0  501    0  0.00000000000E+00  0.00000000000E+00  0.83769045028E+03  0.83769045029E+03  0.25500000000E-02 0. -1.
         -2   -1    0    0    0  501 -0.00000000000E+00 -0.00000000000E+00 -0.29367196520E+03  0.29367196521E+03  0.25500000000E-02 0.  1.
    8880022    1    1    2    0    0  0.89278177576E+02  0.23396508275E+03 -0.18405790441E+03  0.34638016417E+03  0.15294330000E+03 0.  1.
    8880022    1    1    2    0    0 -0.89278177576E+02 -0.23396508275E+03  0.72807638950E+03  0.78498225133E+03  0.15294330000E+03 0.  0.
<mgrwt>
<rscale>  0 0.29343126E+03</rscale>
<asrwt>0</asrwt>
<pdfrwt beam="1">  1        2 0.12887545E+00 0.29343126E+03</pdfrwt>
<pdfrwt beam="2">  1       -2 0.45180303E-01 0.29343126E+03</pdfrwt>
<totfact> 0.15828361E+02</totfact>
</mgrwt>
</event>
<event>
 4    1  0.4840632E-008  0.3188301E+03  0.7818608E-02  0.1076189E+00
          2   -1    0    0  501    0  0.00000000000E+00  0.00000000000E+00  0.26331505159E+04  0.26331505159E+04  0.25500000000E-02 0. -1.
         -2   -1    0    0    0  501 -0.00000000000E+00 -0.00000000000E+00 -0.10609623484E+03  0.10609623487E+03  0.25500000000E-02 0.  1.
    8880022    1    1    2    0    0 -0.27791914911E+03  0.31967974541E+02  0.17114396005E+03  0.36186035002E+03  0.15294330000E+03 0.  0.
    8880022    1    1    2    0    0  0.27791914911E+03 -0.31967974541E+02  0.23559103210E+04  0.23773864008E+04  0.15294330000E+03 0. -1.
<mgrwt>
<rscale>  0 0.31883014E+03</rscale>
<asrwt>0</asrwt>
<pdfrwt beam="1">  1        2 0.40510009E+00 0.31883014E+03</pdfrwt>
<pdfrwt beam="2">  1       -2 0.16322497E-01 0.31883014E+03</pdfrwt>
<totfact> 0.99619061E+01</totfact>
</mgrwt>
</event>
<event>
 4    1  0.4840632E-008  0.9778334E+03  0.7818608E-02  0.9333196E-01
          2   -1    0    0  501    0  0.00000000000E+00  0.00000000000E+00  0.36612283506E+04  0.36612283506E+04  0.25500000000E-02 0. -1.
         -2   -1    0    0    0  501 -0.00000000000E+00 -0.00000000000E+00 -0.29876718513E+03  0.29876718514E+03  0.25500000000E-02 0.  1.
    8880022    1    1    2    0    0 -0.95416338307E+03  0.14946171347E+03  0.97873020267E+03  0.13834995584E+04  0.15294330000E+03 0.  1.
    8880022    1    1    2    0    0  0.95416338307E+03 -0.14946171347E+03  0.23837309627E+04  0.25764959773E+04  0.15294330000E+03 0.  0.
<mgrwt>
<rscale>  0 0.97783343E+03</rscale>
<asrwt>0</asrwt>
<pdfrwt beam="1">  1        2 0.56326591E+00 0.97783343E+03</pdfrwt>
<pdfrwt beam="2">  1       -2 0.45964181E-01 0.97783343E+03</pdfrwt>
<totfact> 0.29268720E+00</totfact>
</mgrwt>
</event>
<event>
 4    1  0.4840632E-008  0.4783943E+03  0.7818608E-02  0.1019577E+00
         -2   -1    0    0    0  501 -0.00000000000E+00  0.00000000000E+00  0.13012961952E+03  0.13012961954E+03  0.25500000000E-02 0.  1.
          2   -1    0    0  501    0  0.00000000000E+00 -0.00000000000E+00 -0.21344531050E+04  0.21344531050E+04  0.25500000000E-02 0. -1.
    8880022    1    1    2    0    0 -0.42731611988E+03 -0.15122971903E+03 -0.14772304990E+04  0.15527624076E+04  0.15294330000E+03 0.  0.
    8880022    1    1    2    0    0  0.42731611988E+03  0.15122971903E+03 -0.52709298651E+03  0.71182031698E+03  0.15294330000E+03 0.  0.
<mgrwt>
<rscale>  0 0.47839434E+03</rscale>
<asrwt>0</asrwt>
<pdfrwt beam="1">  1        2 0.32837737E+00 0.47839434E+03</pdfrwt>
<pdfrwt beam="2">  1       -2 0.20019943E-01 0.47839434E+03</pdfrwt>
<totfact> 0.12751707E+02</totfact>
</mgrwt>
</event>
<event>
 4    1  0.4840632E-008  0.7627623E+03  0.7818608E-02  0.9615538E-01
         -2   -1    0    0    0  501 -0.00000000000E+00  0.00000000000E+00  0.19103088745E+03  0.19103088746E+03  0.25500000000E-02 0.  1.
          2   -1    0    0  501    0  0.00000000000E+00 -0.00000000000E+00 -0.31080560153E+04  0.31080560153E+04  0.25500000000E-02 0. -1.
    8880022    1    1    2    0    0  0.65467641229E+03  0.36029637840E+03 -0.16923197889E+04  0.18562738500E+04  0.15294330000E+03 0.  1.
    8880022    1    1    2    0    0 -0.65467641229E+03 -0.36029637840E+03 -0.12247053389E+04  0.14428130528E+04  0.15294330000E+03 0. -1.
<mgrwt>
<rscale>  0 0.76276231E+03</rscale>
<asrwt>0</asrwt>
<pdfrwt beam="1">  1        2 0.47816243E+00 0.76276231E+03</pdfrwt>
<pdfrwt beam="2">  1       -2 0.29389370E-01 0.76276231E+03</pdfrwt>
<totfact> 0.16810677E+01</totfact>
</mgrwt>
</event>
<event>
 4    1  0.4840632E-008  0.3960882E+03  0.7818608E-02  0.1045143E+00
         -2   -1    0    0    0  501 -0.00000000000E+00  0.00000000000E+00  0.32543222702E+03  0.32543222703E+03  0.25500000000E-02 0.  1.
          2   -1    0    0  501    0  0.00000000000E+00 -0.00000000000E+00 -0.26000829122E+04  0.26000829122E+04  0.25500000000E-02 0. -1.
    8880022    1    1    2    0    0 -0.34288289025E+03  0.12619644805E+03 -0.24575309043E+04  0.24892456726E+04  0.15294330000E+03 0.  0.
    8880022    1    1    2    0    0  0.34288289025E+03 -0.12619644805E+03  0.18288021914E+03  0.43626946661E+03  0.15294330000E+03 0.  0.
<mgrwt>
<rscale>  0 0.39608821E+03</rscale>
<asrwt>0</asrwt>
<pdfrwt beam="1">  1        2 0.40001274E+00 0.39608821E+03</pdfrwt>
<pdfrwt beam="2">  1       -2 0.50066498E-01 0.39608821E+03</pdfrwt>
<totfact> 0.13078628E+01</totfact>
</mgrwt>
</event>
<event>
 4    1  0.4840632E-008  0.4216420E+03  0.7818608E-02  0.1036533E+00
          2   -1    0    0  501    0  0.00000000000E+00  0.00000000000E+00  0.10655892546E+04  0.10655892546E+04  0.25500000000E-02 0. -1.
         -2   -1    0    0    0  501 -0.00000000000E+00 -0.00000000000E+00 -0.28190711142E+03  0.28190711143E+03  0.25500000000E-02 0.  1.
    8880022    1    1    2    0    0 -0.37258498580E+03 -0.12478266263E+03 -0.38608144311E+02  0.42340586481E+03  0.15294330000E+03 0.  1.
    8880022    1    1    2    0    0  0.37258498580E+03  0.12478266263E+03  0.82229028747E+03  0.92409050121E+03  0.15294330000E+03 0.  0.
<mgrwt>
<rscale>  0 0.42164195E+03</rscale>
<asrwt>0</asrwt>
<pdfrwt beam="1">  1        2 0.16393681E+00 0.42164195E+03</pdfrwt>
<pdfrwt beam="2">  1       -2 0.43370325E-01 0.42164195E+03</pdfrwt>
<totfact> 0.12059815E+02</totfact>
</mgrwt>
</event>
<event>
 4    1  0.4840632E-008  0.4492526E+03  0.7818608E-02  0.1027945E+00
          2   -1    0    0  501    0  0.00000000000E+00  0.00000000000E+00  0.34585537394E+03  0.34585537395E+03  0.25500000000E-02 0. -1.
         -2   -1    0    0    0  501 -0.00000000000E+00 -0.00000000000E+00 -0.94715499416E+03  0.94715499417E+03  0.25500000000E-02 0.  1.
    8880022    1    1    2    0    0 -0.12134620806E+03 -0.40461257043E+03  0.99911985649E+02  0.46022852177E+03  0.15294330000E+03 0.  0.
    8880022    1    1    2    0    0  0.12134620806E+03  0.40461257043E+03 -0.70121160588E+03  0.83278184634E+03  0.15294330000E+03 0.  0.
<mgrwt>
<rscale>  0 0.44925259E+03</rscale>
<asrwt>0</asrwt>
<pdfrwt beam="1">  1        2 0.53208519E-01 0.44925259E+03</pdfrwt>
<pdfrwt beam="2">  1       -2 0.14571615E+00 0.44925259E+03</pdfrwt>
<totfact> 0.31502516E+01</totfact>
</mgrwt>
</event>
<event>
 4    1  0.4971305E-008  0.4863552E+03  0.7818608E-02  0.1017403E+00
         -2   -1    0    0    0  501 -0.00000000000E+00  0.00000000000E+00  0.89906902483E+03  0.89906902484E+03  0.25500000000E-02 0.  1.
          2   -1    0    0  501    0  0.00000000000E+00 -0.00000000000E+00 -0.17961875943E+04  0.17961875943E+04  0.25500000000E-02 0. -1.
    8880022    1    1    2    0    0 -0.25623503196E+03  0.38404864644E+03 -0.16935850513E+04  0.17620362464E+04  0.15294330000E+03 0.  0.
    8880022    1    1    2    0    0  0.25623503196E+03 -0.38404864644E+03  0.79646648185E+03  0.93322037277E+03  0.15294330000E+03 0.  0.
<mgrwt>
<rscale>  0 0.48635523E+03</rscale>
<asrwt>0</asrwt>
<pdfrwt beam="1">  1        2 0.27633655E+00 0.48635523E+03</pdfrwt>
<pdfrwt beam="2">  1       -2 0.13831831E+00 0.48635523E+03</pdfrwt>
<totfact> 0.35056586E+00</totfact>
</mgrwt>
</event>
<event>
 4    1  0.4840632E-008  0.6073429E+03  0.7818608E-02  0.9890288E-01
          2   -1    0    0  501    0  0.00000000000E+00  0.00000000000E+00  0.25245726430E+04  0.25245726430E+04  0.25500000000E-02 0. -1.
         -2   -1    0    0    0  501 -0.00000000000E+00 -0.00000000000E+00 -0.18860804345E+03  0.18860804347E+03  0.25500000000E-02 0.  1.
    8880022    1    1    2    0    0  0.24462955919E+03  0.53444379310E+03  0.18119332888E+04  0.19110122148E+04  0.15294330000E+03 0.  0.
    8880022    1    1    2    0    0 -0.24462955919E+03 -0.53444379310E+03  0.52403131076E+03  0.80216847163E+03  0.15294330000E+03 0.  0.
<mgrwt>
<rscale>  0 0.60734294E+03</rscale>
<asrwt>0</asrwt>
<pdfrwt beam="1">  1        2 0.38839578E+00 0.60734294E+03</pdfrwt>
<pdfrwt beam="2">  1       -2 0.29016623E-01 0.60734294E+03</pdfrwt>
<totfact> 0.39169259E+01</totfact>
</mgrwt>
</event>
<event>
 4    1  0.4840632E-008  0.5221197E+03  0.7818608E-02  0.1008161E+00
          2   -1    0    0  501    0  0.00000000000E+00  0.00000000000E+00  0.11966076912E+04  0.11966076912E+04  0.25500000000E-02 0. -1.
         -2   -1    0    0    0  501 -0.00000000000E+00 -0.00000000000E+00 -0.49691817058E+03  0.49691817059E+03  0.25500000000E-02 0.  1.
    8880022    1    1    2    0    0 -0.32556013040E+03  0.37845468559E+03  0.97297127358E+03  0.11042110757E+04  0.15294330000E+03 0.  0.
    8880022    1    1    2    0    0  0.32556013040E+03 -0.37845468559E+03 -0.27328175296E+03  0.58931478606E+03  0.15294330000E+03 0.  0.
<mgrwt>
<rscale>  0 0.52211972E+03</rscale>
<asrwt>0</asrwt>
<pdfrwt beam="1">  1        2 0.18409349E+00 0.52211972E+03</pdfrwt>
<pdfrwt beam="2">  1       -2 0.76448951E-01 0.52211972E+03</pdfrwt>
<totfact> 0.30517077E+01</totfact>
</mgrwt>
</event>
<event>
 4    1  0.4840632E-008  0.4419611E+03  0.7818608E-02  0.1030147E+00
         -2   -1    0    0    0  501 -0.00000000000E+00  0.00000000000E+00  0.62214142546E+03  0.62214142547E+03  0.25500000000E-02 0.  1.
          2   -1    0    0  501    0  0.00000000000E+00 -0.00000000000E+00 -0.18731276738E+04  0.18731276738E+04  0.25500000000E-02 0. -1.
    8880022    1    1    2    0    0  0.37083252222E+03  0.18552947391E+03 -0.17637745491E+04  0.18183042260E+04  0.15294330000E+03 0.  0.
    8880022    1    1    2    0    0 -0.37083252222E+03 -0.18552947391E+03  0.51278830076E+03  0.67696487327E+03  0.15294330000E+03 0.  0.
<mgrwt>
<rscale>  0 0.44196108E+03</rscale>
<asrwt>0</asrwt>
<pdfrwt beam="1">  1        2 0.28817349E+00 0.44196108E+03</pdfrwt>
<pdfrwt beam="2">  1       -2 0.95714066E-01 0.44196108E+03</pdfrwt>
<totfact> 0.79054006E+00</totfact>
</mgrwt>
</event>
<event>
 4    1  0.4840632E-008  0.5369351E+03  0.7818608E-02  0.1004564E+00
          2   -1    0    0  501    0  0.00000000000E+00  0.00000000000E+00  0.15603901014E+04  0.15603901014E+04  0.25500000000E-02 0. -1.
         -2   -1    0    0    0  501 -0.00000000000E+00 -0.00000000000E+00 -0.45822640055E+03  0.45822640055E+03  0.25500000000E-02 0.  1.
    8880022    1    1    2    0    0 -0.45555452619E+03  0.23953647774E+03 -0.22863142474E+03  0.58358515393E+03  0.15294330000E+03 0.  0.
    8880022    1    1    2    0    0  0.45555452619E+03 -0.23953647774E+03  0.13307951256E+04  0.14350313480E+04  0.15294330000E+03 0. -1.
<mgrwt>
<rscale>  0 0.53693510E+03</rscale>
<asrwt>0</asrwt>
<pdfrwt beam="1">  1        2 0.24006001E+00 0.53693510E+03</pdfrwt>
<pdfrwt beam="2">  1       -2 0.70496371E-01 0.53693510E+03</pdfrwt>
<totfact> 0.22709616E+01</totfact>
</mgrwt>
</event>
<event>
 4    1  0.4840632E-008  0.8990860E+03  0.7818608E-02  0.9426725E-01
         -2   -1    0    0    0  501 -0.00000000000E+00  0.00000000000E+00  0.15286541062E+04  0.15286541062E+04  0.25500000000E-02 0.  1.
          2   -1    0    0  501    0  0.00000000000E+00 -0.00000000000E+00 -0.55249120128E+03  0.55249120128E+03  0.25500000000E-02 0. -1.
    8880022    1    1    2    0    0 -0.38455627722E+03 -0.79817318912E+03  0.70354970435E+03  0.11416382131E+04  0.15294330000E+03 0.  0.
    8880022    1    1    2    0    0  0.38455627722E+03  0.79817318912E+03  0.27261320057E+03  0.93950709434E+03  0.15294330000E+03 0.  0.
<mgrwt>
<rscale>  0 0.89908599E+03</rscale>
<asrwt>0</asrwt>
<pdfrwt beam="1">  1        2 0.84998647E-01 0.89908599E+03</pdfrwt>
<pdfrwt beam="2">  1       -2 0.23517755E+00 0.89908599E+03</pdfrwt>
<totfact> 0.43813540E+00</totfact>
</mgrwt>
</event>
<event>
 4    1  0.4840632E-008  0.3787613E+03  0.7818608E-02  0.1051393E+00
          2   -1    0    0  501    0  0.00000000000E+00  0.00000000000E+00  0.75287196415E+03  0.75287196415E+03  0.25500000000E-02 0. -1.
         -2   -1    0    0    0  501 -0.00000000000E+00 -0.00000000000E+00 -0.23952742947E+03  0.23952742949E+03  0.25500000000E-02 0.  1.
    8880022    1    1    2    0    0 -0.40628614017E+02 -0.34411884397E+03  0.32297134917E+02  0.38013579283E+03  0.15294330000E+03 0.  0.
    8880022    1    1    2    0    0  0.40628614017E+02  0.34411884397E+03  0.48104739976E+03  0.61226360081E+03  0.15294330000E+03 0.  0.
<mgrwt>
<rscale>  0 0.37876129E+03</rscale>
<asrwt>0</asrwt>
<pdfrwt beam="1">  1        2 0.11582645E+00 0.37876129E+03</pdfrwt>
<pdfrwt beam="2">  1       -2 0.36850375E-01 0.37876129E+03</pdfrwt>
<totfact> 0.26673461E+02</totfact>
</mgrwt>
</event>
<event>
 4    1  0.4840632E-008  0.3899367E+03  0.7818608E-02  0.1047321E+00
         -2   -1    0    0    0  501 -0.00000000000E+00  0.00000000000E+00  0.19949597468E+03  0.19949597469E+03  0.25500000000E-02 0.  1.
          2   -1    0    0  501    0  0.00000000000E+00 -0.00000000000E+00 -0.10806841650E+04  0.10806841650E+04  0.25500000000E-02 0. -1.
    8880022    1    1    2    0    0 -0.35428609384E+02 -0.35693666369E+03 -0.93095202128E+02  0.40089566963E+03  0.15294330000E+03 0.  0.
    8880022    1    1    2    0    0  0.35428609384E+02  0.35693666369E+03 -0.78809298823E+03  0.87928447010E+03  0.15294330000E+03 0.  0.
<mgrwt>
<rscale>  0 0.38993669E+03</rscale>
<asrwt>0</asrwt>
<pdfrwt beam="1">  1        2 0.16625910E+00 0.38993669E+03</pdfrwt>
<pdfrwt beam="2">  1       -2 0.30691689E-01 0.38993669E+03</pdfrwt>
<totfact> 0.22865133E+02</totfact>
</mgrwt>
</event>
<event>
 4    1  0.4840632E-008  0.1116209E+04  0.7818608E-02  0.9189536E-01
          2   -1    0    0  501    0  0.00000000000E+00  0.00000000000E+00  0.21153190566E+04  0.21153190566E+04  0.25500000000E-02 0. -1.
         -2   -1    0    0    0  501 -0.00000000000E+00 -0.00000000000E+00 -0.68606264737E+03  0.68606264738E+03  0.25500000000E-02 0.  1.
    8880022    1    1    2    0    0  0.10030335285E+04 -0.46524618992E+03  0.18777755094E+03  0.11318932539E+04  0.15294330000E+03 0.  0.
    8880022    1    1    2    0    0 -0.10030335285E+04  0.46524618992E+03  0.12414788583E+04  0.16694884501E+04  0.15294330000E+03 0.  0.
<mgrwt>
<rscale>  0 0.11162087E+04</rscale>
<asrwt>0</asrwt>
<pdfrwt beam="1">  1        2 0.32543370E+00 0.11162087E+04</pdfrwt>
<pdfrwt beam="2">  1       -2 0.10554810E+00 0.11162087E+04</pdfrwt>
<totfact> 0.41315204E+00</totfact>
</mgrwt>
</event>
<event>
 4    1  0.4840632E-008  0.2817910E+03  0.7818608E-02  0.1094715E+00
          2   -1    0    0  501    0  0.00000000000E+00  0.00000000000E+00  0.81652330983E+03  0.81652330983E+03  0.25500000000E-02 0. -1.
         -2   -1    0    0    0  501 -0.00000000000E+00 -0.00000000000E+00 -0.28344212109E+03  0.28344212110E+03  0.25500000000E-02 0.  1.
    8880022    1    1    2    0    0  0.57715274794E+02  0.22952881427E+03 -0.17921675181E+03  0.33395333008E+03  0.15294330000E+03 0.  1.
    8880022    1    1    2    0    0 -0.57715274794E+02 -0.22952881427E+03  0.71229794055E+03  0.76601210085E+03  0.15294330000E+03 0.  0.
<mgrwt>
<rscale>  0 0.28179103E+03</rscale>
<asrwt>0</asrwt>
<pdfrwt beam="1">  1        2 0.12561897E+00 0.28179103E+03</pdfrwt>
<pdfrwt beam="2">  1       -2 0.43606480E-01 0.28179103E+03</pdfrwt>
<totfact> 0.17568035E+02</totfact>
</mgrwt>
</event>
<event>
 4    1  0.4840632E-008  0.3891140E+03  0.7818608E-02  0.1047616E+00
          2   -1    0    0  501    0  0.00000000000E+00  0.00000000000E+00  0.42082832554E+04  0.42082832554E+04  0.25500000000E-02 0. -1.
         -2   -1    0    0    0  501 -0.00000000000E+00 -0.00000000000E+00 -0.12004649841E+03  0.12004649844E+03  0.25500000000E-02 0.  1.
    8880022    1    1    2    0    0 -0.32330966604E+03 -0.15326096014E+03  0.38551653926E+04  0.38747528850E+04  0.15294330000E+03 0. -1.
    8880022    1    1    2    0    0  0.32330966604E+03  0.15326096014E+03  0.23307136433E+03  0.45357686883E+03  0.15294330000E+03 0.  0.
<mgrwt>
<rscale>  0 0.38911401E+03</rscale>
<asrwt>0</asrwt>
<pdfrwt beam="1">  1        2 0.64742800E+00 0.38911401E+03</pdfrwt>
<pdfrwt beam="2">  1       -2 0.18468698E-01 0.38911401E+03</pdfrwt>
<totfact> 0.69690285E+00</totfact>
</mgrwt>
</event>
<event>
 4    1  0.4840632E-008  0.4341179E+03  0.7818608E-02  0.1032567E+00
          2   -1    0    0  501    0  0.00000000000E+00  0.00000000000E+00  0.19508567703E+03  0.19508567705E+03  0.25500000000E-02 0. -1.
         -2   -1    0    0    0  501 -0.00000000000E+00 -0.00000000000E+00 -0.10004914184E+04  0.10004914184E+04  0.25500000000E-02 0.  1.
    8880022    1    1    2    0    0  0.38691643151E+03 -0.12394491500E+03 -0.51365025370E+03  0.67252873773E+03  0.15294330000E+03 0.  0.
    8880022    1    1    2    0    0 -0.38691643151E+03  0.12394491500E+03 -0.29175548769E+03  0.52304835775E+03  0.15294330000E+03 0.  0.
<mgrwt>
<rscale>  0 0.43411786E+03</rscale>
<asrwt>0</asrwt>
<pdfrwt beam="1">  1        2 0.30013182E-01 0.43411786E+03</pdfrwt>
<pdfrwt beam="2">  1       -2 0.15392175E+00 0.43411786E+03</pdfrwt>
<totfact> 0.51418409E+01</totfact>
</mgrwt>
</event>
<event>
 4    1  0.4840632E-008  0.6993734E+03  0.7818608E-02  0.9718304E-01
         -2   -1    0    0    0  501 -0.00000000000E+00  0.00000000000E+00  0.54413924047E+03  0.54413924048E+03  0.25500000000E-02 0.  1.
          2   -1    0    0  501    0  0.00000000000E+00 -0.00000000000E+00 -0.14225538017E+04  0.14225538017E+04  0.25500000000E-02 0. -1.
    8880022    1    1    2    0    0  0.51374252745E+03  0.44922162455E+03 -0.10358263815E+04  0.12498237468E+04  0.15294330000E+03 0.  0.
    8880022    1    1    2    0    0 -0.51374252745E+03 -0.44922162455E+03  0.15741182027E+03  0.71686929537E+03  0.15294330000E+03 0.  0.
<mgrwt>
<rscale>  0 0.69937337E+03</rscale>
<asrwt>0</asrwt>
<pdfrwt beam="1">  1        2 0.21885443E+00 0.69937337E+03</pdfrwt>
<pdfrwt beam="2">  1       -2 0.83713730E-01 0.69937337E+03</pdfrwt>
<totfact> 0.18036111E+01</totfact>
</mgrwt>
</event>
<event>
 4    1  0.4840632E-008  0.3226830E+03  0.7818608E-02  0.1074421E+00
          2   -1    0    0  501    0  0.00000000000E+00  0.00000000000E+00  0.34669089126E+04  0.34669089126E+04  0.25500000000E-02 0. -1.
         -2   -1    0    0    0  501 -0.00000000000E+00 -0.00000000000E+00 -0.86243964318E+02  0.86243964356E+02  0.25500000000E-02 0.  1.
    8880022    1    1    2    0    0  0.28376559136E+03  0.14483220549E+02  0.25607505480E+03  0.41194509492E+03  0.15294330000E+03 0.  0.
    8880022    1    1    2    0    0 -0.28376559136E+03 -0.14483220549E+02  0.31245898935E+04  0.31412077820E+04  0.15294330000E+03 0.  0.
<mgrwt>
<rscale>  0 0.32268301E+03</rscale>
<asrwt>0</asrwt>
<pdfrwt beam="1">  1        2 0.53337058E+00 0.32268301E+03</pdfrwt>
<pdfrwt beam="2">  1       -2 0.13268303E-01 0.32268301E+03</pdfrwt>
<totfact> 0.43959036E+01</totfact>
</mgrwt>
</event>
<event>
 4    1  0.4840632E-008  0.7881436E+03  0.7818608E-02  0.9577339E-01
          2   -1    0    0  501    0  0.00000000000E+00  0.00000000000E+00  0.25247720833E+04  0.25247720833E+04  0.25500000000E-02 0. -1.
         -2   -1    0    0    0  501 -0.00000000000E+00 -0.00000000000E+00 -0.37412321518E+03  0.37412321519E+03  0.25500000000E-02 0.  1.
    8880022    1    1    2    0    0  0.26620301224E+03  0.72588885130E+03  0.19234454701E+04  0.20786564886E+04  0.15294330000E+03 0.  0.
    8880022    1    1    2    0    0 -0.26620301224E+03 -0.72588885130E+03  0.22720339805E+03  0.82023880991E+03  0.15294330000E+03 0.  0.
<mgrwt>
<rscale>  0 0.78814359E+03</rscale>
<asrwt>0</asrwt>
<pdfrwt beam="1">  1        2 0.38842649E+00 0.78814359E+03</pdfrwt>
<pdfrwt beam="2">  1       -2 0.57557416E-01 0.78814359E+03</pdfrwt>
<totfact> 0.99279781E+00</totfact>
</mgrwt>
</event>
<event>
 4    1  0.4840632E-008  0.4644571E+03  0.7818608E-02  0.1023496E+00
         -2   -1    0    0    0  501 -0.00000000000E+00  0.00000000000E+00  0.16403305247E+03  0.16403305249E+03  0.25500000000E-02 0.  1.
          2   -1    0    0  501    0  0.00000000000E+00 -0.00000000000E+00 -0.26790629139E+04  0.26790629139E+04  0.25500000000E-02 0. -1.
    8880022    1    1    2    0    0 -0.38694673406E+03 -0.20639996969E+03 -0.22718252761E+04  0.23188166078E+04  0.15294330000E+03 0.  0.
    8880022    1    1    2    0    0  0.38694673406E+03  0.20639996969E+03 -0.24320458531E+03  0.52427935856E+03  0.15294330000E+03 0.  0.
<mgrwt>
<rscale>  0 0.46445708E+03</rscale>
<asrwt>0</asrwt>
<pdfrwt beam="1">  1        2 0.41216349E+00 0.46445708E+03</pdfrwt>
<pdfrwt beam="2">  1       -2 0.25235856E-01 0.46445708E+03</pdfrwt>
<totfact> 0.42435803E+01</totfact>
</mgrwt>
</event>
<event>
 4    1  0.4840632E-008  0.4087695E+03  0.7818608E-02  0.1040785E+00
         -2   -1    0    0    0  501 -0.00000000000E+00  0.00000000000E+00  0.22259423035E+03  0.22259423036E+03  0.25500000000E-02 0.  1.
          2   -1    0    0  501    0  0.00000000000E+00 -0.00000000000E+00 -0.17555029528E+04  0.17555029528E+04  0.25500000000E-02 0. -1.
    8880022    1    1    2    0    0  0.37166097182E+03  0.74625429470E+02 -0.15147376366E+04  0.15689240242E+04  0.15294330000E+03 0.  0.
    8880022    1    1    2    0    0 -0.37166097182E+03 -0.74625429470E+02 -0.18171085830E+02  0.40917315903E+03  0.15294330000E+03 0.  0.
<mgrwt>
<rscale>  0 0.40876948E+03</rscale>
<asrwt>0</asrwt>
<pdfrwt beam="1">  1        2 0.27007737E+00 0.40876948E+03</pdfrwt>
<pdfrwt beam="2">  1       -2 0.34245267E-01 0.40876948E+03</pdfrwt>
<totfact> 0.78303212E+01</totfact>
</mgrwt>
</event>
<event>
 4    1  0.4840632E-008  0.5455891E+03  0.7818608E-02  0.1002520E+00
         -2   -1    0    0    0  501 -0.00000000000E+00  0.00000000000E+00  0.15128384252E+04  0.15128384252E+04  0.25500000000E-02 0.  1.
          2   -1    0    0  501    0  0.00000000000E+00 -0.00000000000E+00 -0.29976939627E+03  0.29976939628E+03  0.25500000000E-02 0. -1.
    8880022    1    1    2    0    0  0.25762314349E+02 -0.52307948379E+03  0.75262833514E+02  0.55075583549E+03  0.15294330000E+03 0.  0.
    8880022    1    1    2    0    0 -0.25762314349E+02  0.52307948379E+03  0.11378061955E+04  0.12618519860E+04  0.15294330000E+03 0.  0.
<mgrwt>
<rscale>  0 0.54558913E+03</rscale>
<asrwt>0</asrwt>
<pdfrwt beam="1">  1        2 0.46118368E-01 0.54558913E+03</pdfrwt>
<pdfrwt beam="2">  1       -2 0.23274438E+00 0.54558913E+03</pdfrwt>
<totfact> 0.94789209E+00</totfact>
</mgrwt>
</event>
<event>
 4    1  0.4840632E-008  0.4993068E+03  0.7818608E-02  0.1013960E+00
          2   -1    0    0  501    0  0.00000000000E+00  0.00000000000E+00  0.21381174725E+04  0.21381174725E+04  0.25500000000E-02 0. -1.
         -2   -1    0    0    0  501 -0.00000000000E+00 -0.00000000000E+00 -0.17713683328E+03  0.17713683330E+03  0.25500000000E-02 0.  1.
    8880022    1    1    2    0    0  0.46435587914E+03 -0.10143570106E+03  0.16572266934E+04  0.17308112405E+04  0.15294330000E+03 0.  0.
    8880022    1    1    2    0    0 -0.46435587914E+03  0.10143570106E+03  0.30375394583E+03  0.58444306529E+03  0.15294330000E+03 0.  0.
<mgrwt>
<rscale>  0 0.49930676E+03</rscale>
<asrwt>0</asrwt>
<pdfrwt beam="1">  1        2 0.32894116E+00 0.49930676E+03</pdfrwt>
<pdfrwt beam="2">  1       -2 0.27251820E-01 0.49930676E+03</pdfrwt>
<totfact> 0.73177382E+01</totfact>
</mgrwt>
</event>
<event>
 4    1  0.4840632E-008  0.2320217E+03  0.7818608E-02  0.1125225E+00
          2   -1    0    0  501    0  0.00000000000E+00  0.00000000000E+00  0.15999667030E+04  0.15999667030E+04  0.25500000000E-02 0. -1.
         -2   -1    0    0    0  501 -0.00000000000E+00 -0.00000000000E+00 -0.15006939446E+03  0.15006939448E+03  0.25500000000E-02 0.  1.
    8880022    1    1    2    0    0 -0.11822161118E+02 -0.17407660907E+03 -0.45758173712E+02  0.23649078797E+03  0.15294330000E+03 0.  1.
    8880022    1    1    2    0    0  0.11822161118E+02  0.17407660907E+03  0.14956554822E+04  0.15135453095E+04  0.15294330000E+03 0.  0.
<mgrwt>
<rscale>  0 0.23202173E+03</rscale>
<asrwt>0</asrwt>
<pdfrwt beam="1">  1        2 0.24614872E+00 0.23202173E+03</pdfrwt>
<pdfrwt beam="2">  1       -2 0.23087600E-01 0.23202173E+03</pdfrwt>
<totfact> 0.20092256E+02</totfact>
</mgrwt>
</event>
<event>
 4    1  0.4840632E-008  0.4765808E+03  0.7818608E-02  0.1020079E+00
         -2   -1    0    0    0  501 -0.00000000000E+00  0.00000000000E+00  0.16564687772E+03  0.16564687774E+03  0.25500000000E-02 0.  1.
          2   -1    0    0  501    0  0.00000000000E+00 -0.00000000000E+00 -0.21159235891E+04  0.21159235891E+04  0.25500000000E-02 0. -1.
    8880022    1    1    2    0    0  0.96215447693E+02 -0.44099903507E+03 -0.29833634885E+03  0.56225776239E+03  0.15294330000E+03 0.  0.
    8880022    1    1    2    0    0 -0.96215447693E+02  0.44099903507E+03 -0.16519403625E+04  0.17193127045E+04  0.15294330000E+03 0.  0.
<mgrwt>
<rscale>  0 0.47658075E+03</rscale>
<asrwt>0</asrwt>
<pdfrwt beam="1">  1        2 0.32552668E+00 0.47658075E+03</pdfrwt>
<pdfrwt beam="2">  1       -2 0.25484137E-01 0.47658075E+03</pdfrwt>
<totfact> 0.85254405E+01</totfact>
</mgrwt>
</event>
<event>
 4    1  0.4840632E-008  0.1186407E+04  0.7818608E-02  0.9124838E-01
          2   -1    0    0  501    0  0.00000000000E+00  0.00000000000E+00  0.10351133397E+04  0.10351133397E+04  0.25500000000E-02 0. -1.
         -2   -1    0    0    0  501 -0.00000000000E+00 -0.00000000000E+00 -0.15504839882E+04  0.15504839882E+04  0.25500000000E-02 0.  1.
    8880022    1    1    2    0    0  0.10322611023E+03 -0.11719702310E+04 -0.71104045803E+03  0.13831630555E+04  0.15294330000E+03 0.  0.
    8880022    1    1    2    0    0 -0.10322611023E+03  0.11719702310E+04  0.19566980957E+03  0.12024342724E+04  0.15294330000E+03 0.  0.
<mgrwt>
<rscale>  0 0.11864070E+04</rscale>
<asrwt>0</asrwt>
<pdfrwt beam="1">  1        2 0.15924821E+00 0.11864070E+04</pdfrwt>
<pdfrwt beam="2">  1       -2 0.23853600E+00 0.11864070E+04</pdfrwt>
<totfact> 0.17634976E+00</totfact>
</mgrwt>
</event>
<event>
 4    1  0.4840632E-008  0.6413885E+03  0.7818608E-02  0.9823074E-01
         -2   -1    0    0    0  501 -0.00000000000E+00  0.00000000000E+00  0.24702887119E+03  0.24702887121E+03  0.25500000000E-02 0.  1.
          2   -1    0    0  501    0  0.00000000000E+00 -0.00000000000E+00 -0.25041541672E+04  0.25041541672E+04  0.25500000000E-02 0. -1.
    8880022    1    1    2    0    0 -0.19139966446E+03 -0.59275097663E+03 -0.19247221246E+04  0.20287765924E+04  0.15294330000E+03 0.  0.
    8880022    1    1    2    0    0  0.19139966446E+03  0.59275097663E+03 -0.33240317136E+03  0.72240644599E+03  0.15294330000E+03 0.  0.
<mgrwt>
<rscale>  0 0.64138850E+03</rscale>
<asrwt>0</asrwt>
<pdfrwt beam="1">  1        2 0.38525447E+00 0.64138850E+03</pdfrwt>
<pdfrwt beam="2">  1       -2 0.38004444E-01 0.64138850E+03</pdfrwt>
<totfact> 0.24060837E+01</totfact>
</mgrwt>
</event>
<event>
 4    1  0.4840632E-008  0.4172771E+03  0.7818608E-02  0.1037956E+00
          2   -1    0    0  501    0  0.00000000000E+00  0.00000000000E+00  0.26711358747E+04  0.26711358747E+04  0.25500000000E-02 0. -1.
         -2   -1    0    0    0  501 -0.00000000000E+00 -0.00000000000E+00 -0.18428794296E+03  0.18428794297E+03  0.25500000000E-02 0.  1.
    8880022    1    1    2    0    0  0.12415595936E+03  0.36785024934E+03  0.95661848065E+02  0.42810203266E+03  0.15294330000E+03 0.  1.
    8880022    1    1    2    0    0 -0.12415595936E+03 -0.36785024934E+03  0.23911860836E+04  0.24273217850E+04  0.15294330000E+03 0.  0.
<mgrwt>
<rscale>  0 0.41727708E+03</rscale>
<asrwt>0</asrwt>
<pdfrwt beam="1">  1        2 0.41094398E+00 0.41727708E+03</pdfrwt>
<pdfrwt beam="2">  1       -2 0.28351991E-01 0.41727708E+03</pdfrwt>
<totfact> 0.35159656E+01</totfact>
</mgrwt>
</event>
<event>
 4    1  0.4840632E-008  0.4477758E+03  0.7818608E-02  0.1028387E+00
         -2   -1    0    0    0  501 -0.00000000000E+00  0.00000000000E+00  0.26884075115E+03  0.26884075116E+03  0.25500000000E-02 0.  1.
          2   -1    0    0  501    0  0.00000000000E+00 -0.00000000000E+00 -0.11173881559E+04  0.11173881559E+04  0.25500000000E-02 0. -1.
    8880022    1    1    2    0    0 -0.38932451005E+03  0.15980594986E+03 -0.82396995836E+03  0.93777911100E+03  0.15294330000E+03 0.  0.
    8880022    1    1    2    0    0  0.38932451005E+03 -0.15980594986E+03 -0.24577446440E+02  0.44844979611E+03  0.15294330000E+03 0.  1.
<mgrwt>
<rscale>  0 0.44777580E+03</rscale>
<asrwt>0</asrwt>
<pdfrwt beam="1">  1        2 0.17190587E+00 0.44777580E+03</pdfrwt>
<pdfrwt beam="2">  1       -2 0.41360116E-01 0.44777580E+03</pdfrwt>
<totfact> 0.12274765E+02</totfact>
</mgrwt>
</event>
<event>
 4    1  0.4840632E-008  0.5336387E+03  0.7818608E-02  0.1005353E+00
         -2   -1    0    0    0  501 -0.00000000000E+00  0.00000000000E+00  0.10036498072E+03  0.10036498075E+03  0.25500000000E-02 0.  1.
          2   -1    0    0  501    0  0.00000000000E+00 -0.00000000000E+00 -0.34536230414E+04  0.34536230414E+04  0.25500000000E-02 0. -1.
    8880022    1    1    2    0    0 -0.28162058908E+03  0.42669479257E+03 -0.92598123022E+03  0.10687429504E+04  0.15294330000E+03 0.  0.
    8880022    1    1    2    0    0  0.28162058908E+03 -0.42669479257E+03 -0.24272768305E+04  0.24852450718E+04  0.15294330000E+03 0.  0.
<mgrwt>
<rscale>  0 0.53363869E+03</rscale>
<asrwt>0</asrwt>
<pdfrwt beam="1">  1        2 0.53132653E+00 0.53363869E+03</pdfrwt>
<pdfrwt beam="2">  1       -2 0.15440769E-01 0.53363869E+03</pdfrwt>
<totfact> 0.32729404E+01</totfact>
</mgrwt>
</event>
<event>
 4    1  0.4840632E-008  0.5423918E+03  0.7818608E-02  0.1003270E+00
         -2   -1    0    0    0  501 -0.00000000000E+00  0.00000000000E+00  0.13019672973E+03  0.13019672976E+03  0.25500000000E-02 0.  1.
          2   -1    0    0  501    0  0.00000000000E+00 -0.00000000000E+00 -0.29078549916E+04  0.29078549916E+04  0.25500000000E-02 0. -1.
    8880022    1    1    2    0    0 -0.46123163051E+03  0.24096190757E+03 -0.67159484476E+03  0.86326620831E+03  0.15294330000E+03 0.  0.
    8880022    1    1    2    0    0  0.46123163051E+03 -0.24096190757E+03 -0.21060634171E+04  0.21747855131E+04  0.15294330000E+03 0.  0.
<mgrwt>
<rscale>  0 0.54239184E+03</rscale>
<asrwt>0</asrwt>
<pdfrwt beam="1">  1        2 0.44736226E+00 0.54239184E+03</pdfrwt>
<pdfrwt beam="2">  1       -2 0.20030268E-01 0.54239184E+03</pdfrwt>
<totfact> 0.46132429E+01</totfact>
</mgrwt>
</event>
<event>
 4    1  0.4840632E-008  0.5409926E+03  0.7818608E-02  0.1003601E+00
         -2   -1    0    0    0  501 -0.00000000000E+00  0.00000000000E+00  0.29652404312E+03  0.29652404313E+03  0.25500000000E-02 0.  1.
          2   -1    0    0  501    0  0.00000000000E+00 -0.00000000000E+00 -0.23367987779E+04  0.23367987779E+04  0.25500000000E-02 0. -1.
    8880022    1    1    2    0    0 -0.30778165942E+03  0.41779395391E+03 -0.19455744980E+02  0.54134232869E+03  0.15294330000E+03 0.  0.
    8880022    1    1    2    0    0  0.30778165942E+03 -0.41779395391E+03 -0.20208189898E+04  0.20919804923E+04  0.15294330000E+03 0.  0.
<mgrwt>
<rscale>  0 0.54099260E+03</rscale>
<asrwt>0</asrwt>
<pdfrwt beam="1">  1        2 0.35950749E+00 0.54099260E+03</pdfrwt>
<pdfrwt beam="2">  1       -2 0.45619085E-01 0.54099260E+03</pdfrwt>
<totfact> 0.21267341E+01</totfact>
</mgrwt>
</event>
<event>
 4    1  0.4840632E-008  0.4513181E+03  0.7818608E-02  0.1027330E+00
         -2   -1    0    0    0  501 -0.00000000000E+00  0.00000000000E+00  0.24237400654E+03  0.24237400655E+03  0.25500000000E-02 0.  1.
          2   -1    0    0  501    0  0.00000000000E+00 -0.00000000000E+00 -0.15705769353E+04  0.15705769354E+04  0.25500000000E-02 0. -1.
    8880022    1    1    2    0    0 -0.33300401373E+02  0.42330542839E+03 -0.12821808489E+04  0.13592923839E+04  0.15294330000E+03 0.  0.
    8880022    1    1    2    0    0  0.33300401373E+02 -0.42330542839E+03 -0.46022079891E+02  0.45365855805E+03  0.15294330000E+03 0.  0.
<mgrwt>
<rscale>  0 0.45131813E+03</rscale>
<asrwt>0</asrwt>
<pdfrwt beam="1">  1        2 0.24162721E+00 0.45131813E+03</pdfrwt>
<pdfrwt beam="2">  1       -2 0.37288310E-01 0.45131813E+03</pdfrwt>
<totfact> 0.83179685E+01</totfact>
</mgrwt>
</event>
<event>
 4    1  0.4840632E-008  0.1110774E+04  0.7818608E-02  0.9194754E-01
         -2   -1    0    0    0  501 -0.00000000000E+00  0.00000000000E+00  0.51790044653E+03  0.51790044654E+03  0.25500000000E-02 0.  1.
          2   -1    0    0  501    0  0.00000000000E+00 -0.00000000000E+00 -0.36500813612E+04  0.36500813612E+04  0.25500000000E-02 0. -1.
    8880022    1    1    2    0    0  0.10217551246E+04  0.40797400392E+03 -0.33791935200E+03  0.11610372362E+04  0.15294330000E+03 0.  0.
    8880022    1    1    2    0    0 -0.10217551246E+04 -0.40797400392E+03 -0.27942615627E+04  0.30069445715E+04  0.15294330000E+03 0.  0.
<mgrwt>
<rscale>  0 0.11107736E+04</rscale>
<asrwt>0</asrwt>
<pdfrwt beam="1">  1        2 0.56155096E+00 0.11107736E+04</pdfrwt>
<pdfrwt beam="2">  1       -2 0.79676994E-01 0.11107736E+04</pdfrwt>
<totfact> 0.90444956E-01</totfact>
</mgrwt>
</event>
<event>
 4    1  0.4840632E-008  0.6425059E+03  0.7818608E-02  0.9820944E-01
          2   -1    0    0  501    0  0.00000000000E+00  0.00000000000E+00  0.23323298449E+04  0.23323298449E+04  0.25500000000E-02 0. -1.
         -2   -1    0    0    0  501 -0.00000000000E+00 -0.00000000000E+00 -0.44915638815E+03  0.44915638815E+03  0.25500000000E-02 0.  1.
    8880022    1    1    2    0    0  0.51697401035E+03  0.34951406507E+03 -0.14099404509E+03  0.65779417968E+03  0.15294330000E+03 0.  1.
    8880022    1    1    2    0    0 -0.51697401035E+03 -0.34951406507E+03  0.20241675018E+04  0.21236920534E+04  0.15294330000E+03 0.  0.
<mgrwt>
<rscale>  0 0.64250592E+03</rscale>
<asrwt>0</asrwt>
<pdfrwt beam="1">  1        2 0.35881998E+00 0.64250592E+03</pdfrwt>
<pdfrwt beam="2">  1       -2 0.69100983E-01 0.64250592E+03</pdfrwt>
<totfact> 0.88447997E+00</totfact>
</mgrwt>
</event>
<event>
 4    1  0.4840632E-008  0.3338659E+03  0.7818608E-02  0.1069439E+00
          2   -1    0    0  501    0  0.00000000000E+00  0.00000000000E+00  0.26942248791E+04  0.26942248791E+04  0.25500000000E-02 0. -1.
         -2   -1    0    0    0  501 -0.00000000000E+00 -0.00000000000E+00 -0.18138537889E+03  0.18138537891E+03  0.25500000000E-02 0.  1.
    8880022    1    1    2    0    0  0.28865448482E+03 -0.68944561741E+02 -0.68122369583E+01  0.33393535870E+03  0.15294330000E+03 0.  0.
    8880022    1    1    2    0    0 -0.28865448482E+03  0.68944561741E+02  0.25196517371E+04  0.25416748993E+04  0.15294330000E+03 0. -1.
<mgrwt>
<rscale>  0 0.33386587E+03</rscale>
<asrwt>0</asrwt>
<pdfrwt beam="1">  1        2 0.41449612E+00 0.33386587E+03</pdfrwt>
<pdfrwt beam="2">  1       -2 0.27905444E-01 0.33386587E+03</pdfrwt>
<totfact> 0.36009659E+01</totfact>
</mgrwt>
</event>
<event>
 4    1  0.4840632E-008  0.6933861E+03  0.7818608E-02  0.9728610E-01
         -2   -1    0    0    0  501 -0.00000000000E+00  0.00000000000E+00  0.27593858880E+03  0.27593858881E+03  0.25500000000E-02 0.  1.
          2   -1    0    0  501    0  0.00000000000E+00 -0.00000000000E+00 -0.25676329549E+04  0.25676329549E+04  0.25500000000E-02 0. -1.
    8880022    1    1    2    0    0  0.48612141586E+03  0.47018994571E+03 -0.19519057279E+04  0.20714053779E+04  0.15294330000E+03 0.  0.
    8880022    1    1    2    0    0 -0.48612141586E+03 -0.47018994571E+03 -0.33978863826E+03  0.77216616586E+03  0.15294330000E+03 0.  0.
<mgrwt>
<rscale>  0 0.69338609E+03</rscale>
<asrwt>0</asrwt>
<pdfrwt beam="1">  1        2 0.39502044E+00 0.69338609E+03</pdfrwt>
<pdfrwt beam="2">  1       -2 0.42452092E-01 0.69338609E+03</pdfrwt>
<totfact> 0.17689983E+01</totfact>
</mgrwt>
</event>
<event>
 4    1  0.4840632E-008  0.7797247E+03  0.7818608E-02  0.9589837E-01
          2   -1    0    0  501    0  0.00000000000E+00  0.00000000000E+00  0.29097461578E+04  0.29097461578E+04  0.25500000000E-02 0. -1.
         -2   -1    0    0    0  501 -0.00000000000E+00 -0.00000000000E+00 -0.39078656515E+03  0.39078656516E+03  0.25500000000E-02 0.  1.
    8880022    1    1    2    0    0  0.70906319717E+03  0.28602168962E+03  0.23852075504E+04  0.25094194022E+04  0.15294330000E+03 0.  0.
    8880022    1    1    2    0    0 -0.70906319717E+03 -0.28602168962E+03  0.13375204225E+03  0.79111332079E+03  0.15294330000E+03 0.  0.
<mgrwt>
<rscale>  0 0.77972474E+03</rscale>
<asrwt>0</asrwt>
<pdfrwt beam="1">  1        2 0.44765326E+00 0.77972474E+03</pdfrwt>
<pdfrwt beam="2">  1       -2 0.60121009E-01 0.77972474E+03</pdfrwt>
<totfact> 0.54009340E+00</totfact>
</mgrwt>
</event>
<event>
 4    1  0.4840632E-008  0.7331173E+03  0.7818608E-02  0.9662215E-01
          2   -1    0    0  501    0  0.00000000000E+00  0.00000000000E+00  0.22273821348E+04  0.22273821348E+04  0.25500000000E-02 0. -1.
         -2   -1    0    0    0  501 -0.00000000000E+00 -0.00000000000E+00 -0.42628645616E+03  0.42628645616E+03  0.25500000000E-02 0.  1.
    8880022    1    1    2    0    0  0.68848954049E+03  0.20012854596E+03  0.26491863246E+02  0.73359577024E+03  0.15294330000E+03 0.  0.
    8880022    1    1    2    0    0 -0.68848954049E+03 -0.20012854596E+03  0.17746038154E+04  0.19200728208E+04  0.15294330000E+03 0.  0.
<mgrwt>
<rscale>  0 0.73311727E+03</rscale>
<asrwt>0</asrwt>
<pdfrwt beam="1">  1        2 0.34267417E+00 0.73311727E+03</pdfrwt>
<pdfrwt beam="2">  1       -2 0.65582532E-01 0.73311727E+03</pdfrwt>
<totfact> 0.11139003E+01</totfact>
</mgrwt>
</event>
<event>
 4    1  0.4840632E-008  0.7289074E+03  0.7818608E-02  0.9669035E-01
         -2   -1    0    0    0  501 -0.00000000000E+00  0.00000000000E+00  0.55703485838E+03  0.55703485838E+03  0.25500000000E-02 0.  1.
          2   -1    0    0  501    0  0.00000000000E+00 -0.00000000000E+00 -0.13042245571E+04  0.13042245571E+04  0.25500000000E-02 0. -1.
    8880022    1    1    2    0    0 -0.52127589820E+03 -0.48598948756E+03 -0.85597691319E+03  0.11242786456E+04  0.15294330000E+03 0.  0.
    8880022    1    1    2    0    0  0.52127589820E+03  0.48598948756E+03  0.10878721450E+03  0.73698076984E+03  0.15294330000E+03 0.  0.
<mgrwt>
<rscale>  0 0.72890740E+03</rscale>
<asrwt>0</asrwt>
<pdfrwt beam="1">  1        2 0.20064993E+00 0.72890740E+03</pdfrwt>
<pdfrwt beam="2">  1       -2 0.85697671E-01 0.72890740E+03</pdfrwt>
<totfact> 0.19891108E+01</totfact>
</mgrwt>
</event>
<event>
 4    1  0.4840632E-008  0.1062485E+04  0.7818608E-02  0.9242548E-01
          2   -1    0    0  501    0  0.00000000000E+00  0.00000000000E+00  0.32204049257E+04  0.32204049257E+04  0.25500000000E-02 0. -1.
         -2   -1    0    0    0  501 -0.00000000000E+00 -0.00000000000E+00 -0.46505353465E+03  0.46505353465E+03  0.25500000000E-02 0.  1.
    8880022    1    1    2    0    0 -0.10045540235E+04  0.31041050327E+03  0.22920873888E+04  0.25263688799E+04  0.15294330000E+03 0.  0.
    8880022    1    1    2    0    0  0.10045540235E+04 -0.31041050327E+03  0.46326400222E+03  0.11590895804E+04  0.15294330000E+03 0.  0.
<mgrwt>
<rscale>  0 0.10624854E+04</rscale>
<asrwt>0</asrwt>
<pdfrwt beam="1">  1        2 0.49544693E+00 0.10624854E+04</pdfrwt>
<pdfrwt beam="2">  1       -2 0.71546695E-01 0.10624854E+04</pdfrwt>
<totfact> 0.22681602E+00</totfact>
</mgrwt>
</event>
<event>
 4    1  0.4840632E-008  0.6370265E+03  0.7818608E-02  0.9831432E-01
          2   -1    0    0  501    0  0.00000000000E+00  0.00000000000E+00  0.17220816232E+04  0.17220816232E+04  0.25500000000E-02 0. -1.
         -2   -1    0    0    0  501 -0.00000000000E+00 -0.00000000000E+00 -0.67301523278E+03  0.67301523278E+03  0.25500000000E-02 0.  1.
    8880022    1    1    2    0    0 -0.42004363218E+03 -0.45384410833E+03  0.14899268174E+04  0.16203964644E+04  0.15294330000E+03 0.  0.
    8880022    1    1    2    0    0  0.42004363218E+03  0.45384410833E+03 -0.44086042699E+03  0.77470039157E+03  0.15294330000E+03 0.  0.
<mgrwt>
<rscale>  0 0.63702651E+03</rscale>
<asrwt>0</asrwt>
<pdfrwt beam="1">  1        2 0.26493563E+00 0.63702651E+03</pdfrwt>
<pdfrwt beam="2">  1       -2 0.10354081E+00 0.63702651E+03</pdfrwt>
<totfact> 0.75976208E+00</totfact>
</mgrwt>
</event>
<event>
 4    1  0.4840632E-008  0.2078725E+03  0.7818608E-02  0.1143262E+00
         -2   -1    0    0    0  501 -0.00000000000E+00  0.00000000000E+00  0.78669516274E+02  0.78669516316E+02  0.25500000000E-02 0.  1.
          2   -1    0    0  501    0  0.00000000000E+00 -0.00000000000E+00 -0.62518652269E+03  0.62518652269E+03  0.25500000000E-02 0. -1.
    8880022    1    1    2    0    0 -0.14071214149E+03  0.44054294923E+01 -0.39589261554E+03  0.44714866726E+03  0.15294330000E+03 0.  0.
    8880022    1    1    2    0    0  0.14071214149E+03 -0.44054294923E+01 -0.15062439087E+03  0.25670737175E+03  0.15294330000E+03 0.  0.
<mgrwt>
<rscale>  0 0.20787248E+03</rscale>
<asrwt>0</asrwt>
<pdfrwt beam="1">  1        2 0.96182539E-01 0.20787248E+03</pdfrwt>
<pdfrwt beam="2">  1       -2 0.12103003E-01 0.20787248E+03</pdfrwt>
<totfact> 0.23261167E+03</totfact>
</mgrwt>
</event>
<event>
 4    1  0.4840632E-008  0.4077591E+03  0.7818608E-02  0.1041126E+00
          2   -1    0    0  501    0  0.00000000000E+00  0.00000000000E+00  0.11457621422E+04  0.11457621422E+04  0.25500000000E-02 0. -1.
         -2   -1    0    0    0  501 -0.00000000000E+00 -0.00000000000E+00 -0.18026729591E+03  0.18026729593E+03  0.25500000000E-02 0.  1.
    8880022    1    1    2    0    0  0.33998032864E+03  0.16519452622E+03  0.77552666253E+03  0.87619011217E+03  0.15294330000E+03 0.  0.
    8880022    1    1    2    0    0 -0.33998032864E+03 -0.16519452622E+03  0.18996818380E+03  0.44983932601E+03  0.15294330000E+03 0.  0.
<mgrwt>
<rscale>  0 0.40775913E+03</rscale>
<asrwt>0</asrwt>
<pdfrwt beam="1">  1        2 0.17627110E+00 0.40775913E+03</pdfrwt>
<pdfrwt beam="2">  1       -2 0.27733430E-01 0.40775913E+03</pdfrwt>
<totfact> 0.25122920E+02</totfact>
</mgrwt>
</event>
<event>
 4    1  0.4840632E-008  0.1818513E+03  0.7818608E-02  0.1166023E+00
         -2   -1    0    0    0  501 -0.00000000000E+00  0.00000000000E+00  0.96261342019E+02  0.96261342053E+02  0.25500000000E-02 0.  1.
          2   -1    0    0  501    0  0.00000000000E+00 -0.00000000000E+00 -0.86537666246E+03  0.86537666246E+03  0.25500000000E-02 0. -1.
    8880022    1    1    2    0    0 -0.84249688658E+02  0.50796142620E+02 -0.75793252213E+03  0.77944314691E+03  0.15294330000E+03 0. -1.
    8880022    1    1    2    0    0  0.84249688658E+02 -0.50796142620E+02 -0.11182798304E+02  0.18219485760E+03  0.15294330000E+03 0.  0.
<mgrwt>
<rscale>  0 0.18185134E+03</rscale>
<asrwt>0</asrwt>
<pdfrwt beam="1">  1        2 0.13313487E+00 0.18185134E+03</pdfrwt>
<pdfrwt beam="2">  1       -2 0.14809438E-01 0.18185134E+03</pdfrwt>
<totfact> 0.11218290E+03</totfact>
</mgrwt>
</event>
<event>
 4    1  0.4840632E-008  0.7081964E+03  0.7818608E-02  0.9703317E-01
          2   -1    0    0  501    0  0.00000000000E+00  0.00000000000E+00  0.11544319463E+04  0.11544319463E+04  0.25500000000E-02 0. -1.
         -2   -1    0    0    0  501 -0.00000000000E+00 -0.00000000000E+00 -0.47146176846E+03  0.47146176847E+03  0.25500000000E-02 0.  1.
    8880022    1    1    2    0    0  0.20496724252E+03 -0.66040814633E+03  0.56926372106E+03  0.90862716632E+03  0.15294330000E+03 0.  0.
    8880022    1    1    2    0    0 -0.20496724252E+03  0.66040814633E+03  0.11370645683E+03  0.71726654849E+03  0.15294330000E+03 0.  0.
<mgrwt>
<rscale>  0 0.70819640E+03</rscale>
<asrwt>0</asrwt>
<pdfrwt beam="1">  1        2 0.17760491E+00 0.70819640E+03</pdfrwt>
<pdfrwt beam="2">  1       -2 0.72532581E-01 0.70819640E+03</pdfrwt>
<totfact> 0.35462224E+01</totfact>
</mgrwt>
</event>
<event>
 4    1  0.4840632E-008  0.4782296E+03  0.7818608E-02  0.1019623E+00
          2   -1    0    0  501    0  0.00000000000E+00  0.00000000000E+00  0.81581164016E+03  0.81581164016E+03  0.25500000000E-02 0. -1.
         -2   -1    0    0    0  501 -0.00000000000E+00 -0.00000000000E+00 -0.43196891113E+03  0.43196891114E+03  0.25500000000E-02 0.  1.
    8880022    1    1    2    0    0  0.41654307628E+03  0.17833610068E+03 -0.17771516145E+03  0.51018254657E+03  0.15294330000E+03 0.  0.
    8880022    1    1    2    0    0 -0.41654307628E+03 -0.17833610068E+03  0.56155789048E+03  0.73759800473E+03  0.15294330000E+03 0.  0.
<mgrwt>
<rscale>  0 0.47822960E+03</rscale>
<asrwt>0</asrwt>
<pdfrwt beam="1">  1        2 0.12550948E+00 0.47822960E+03</pdfrwt>
<pdfrwt beam="2">  1       -2 0.66456756E-01 0.47822960E+03</pdfrwt>
<totfact> 0.72517962E+01</totfact>
</mgrwt>
</event>
<event>
 4    1  0.4840632E-008  0.8410386E+03  0.7818608E-02  0.9502444E-01
          2   -1    0    0  501    0  0.00000000000E+00  0.00000000000E+00  0.38553447625E+04  0.38553447625E+04  0.25500000000E-02 0. -1.
         -2   -1    0    0    0  501 -0.00000000000E+00 -0.00000000000E+00 -0.35796344116E+03  0.35796344117E+03  0.25500000000E-02 0.  1.
    8880022    1    1    2    0    0 -0.56614162914E+03 -0.60285810029E+03  0.27786369598E+03  0.88575059689E+03  0.15294330000E+03 0.  0.
    8880022    1    1    2    0    0  0.56614162914E+03  0.60285810029E+03  0.32195176254E+04  0.33275576068E+04  0.15294330000E+03 0.  0.
<mgrwt>
<rscale>  0 0.84103858E+03</rscale>
<asrwt>0</asrwt>
<pdfrwt beam="1">  1        2 0.59312999E+00 0.84103858E+03</pdfrwt>
<pdfrwt beam="2">  1       -2 0.55071297E-01 0.84103858E+03</pdfrwt>
<totfact> 0.14937271E+00</totfact>
</mgrwt>
</event>
<event>
 4    1  0.4840632E-008  0.7569289E+03  0.7818608E-02  0.9624542E-01
         -2   -1    0    0    0  501 -0.00000000000E+00  0.00000000000E+00  0.64725992463E+03  0.64725992463E+03  0.25500000000E-02 0.  1.
          2   -1    0    0  501    0  0.00000000000E+00 -0.00000000000E+00 -0.11395757708E+04  0.11395757708E+04  0.25500000000E-02 0. -1.
    8880022    1    1    2    0    0  0.73370607176E+03  0.10594843704E+03  0.17596433150E+03  0.77711309989E+03  0.15294330000E+03 0.  0.
    8880022    1    1    2    0    0 -0.73370607176E+03 -0.10594843704E+03 -0.66828017764E+03  0.10097225955E+04  0.15294330000E+03 0.  0.
<mgrwt>
<rscale>  0 0.75692888E+03</rscale>
<asrwt>0</asrwt>
<pdfrwt beam="1">  1        2 0.17531935E+00 0.75692888E+03</pdfrwt>
<pdfrwt beam="2">  1       -2 0.99578450E-01 0.75692888E+03</pdfrwt>
<totfact> 0.17490391E+01</totfact>
</mgrwt>
</event>
<event>
 4    1  0.4840632E-008  0.9318315E+03  0.7818608E-02  0.9386643E-01
         -2   -1    0    0    0  501 -0.00000000000E+00  0.00000000000E+00  0.41797113856E+03  0.41797113857E+03  0.25500000000E-02 0.  1.
          2   -1    0    0  501    0  0.00000000000E+00 -0.00000000000E+00 -0.31774982099E+04  0.31774982099E+04  0.25500000000E-02 0. -1.
    8880022    1    1    2    0    0  0.40717953930E+03 -0.82408924017E+03 -0.24375324445E+04  0.26095735904E+04  0.15294330000E+03 0.  0.
    8880022    1    1    2    0    0 -0.40717953930E+03  0.82408924017E+03 -0.32199462686E+03  0.98589575804E+03  0.15294330000E+03 0.  0.
<mgrwt>
<rscale>  0 0.93183148E+03</rscale>
<asrwt>0</asrwt>
<pdfrwt beam="1">  1        2 0.48884586E+00 0.93183148E+03</pdfrwt>
<pdfrwt beam="2">  1       -2 0.64303254E-01 0.93183148E+03</pdfrwt>
<totfact> 0.31114088E+00</totfact>
</mgrwt>
</event>
<event>
 4    1  0.4840632E-008  0.1209978E+04  0.7818608E-02  0.9104167E-01
         -2   -1    0    0    0  501 -0.00000000000E+00  0.00000000000E+00  0.14120908458E+04  0.14120908458E+04  0.25500000000E-02 0.  1.
          2   -1    0    0  501    0  0.00000000000E+00 -0.00000000000E+00 -0.13913678931E+04  0.13913678931E+04  0.25500000000E-02 0. -1.
    8880022    1    1    2    0    0 -0.59102698800E+03  0.10446731108E+04  0.71797631673E+03  0.14069600042E+04  0.15294330000E+03 0.  0.
    8880022    1    1    2    0    0  0.59102698800E+03 -0.10446731108E+04 -0.69725336404E+03  0.13964987346E+04  0.15294330000E+03 0.  0.
<mgrwt>
<rscale>  0 0.12099779E+04</rscale>
<asrwt>0</asrwt>
<pdfrwt beam="1">  1        2 0.21405660E+00 0.12099779E+04</pdfrwt>
<pdfrwt beam="2">  1       -2 0.21724474E+00 0.12099779E+04</pdfrwt>
<totfact> 0.14600279E+00</totfact>
</mgrwt>
</event>
<event>
 4    1  0.4840632E-008  0.5179159E+03  0.7818608E-02  0.1009206E+00
          2   -1    0    0  501    0  0.00000000000E+00  0.00000000000E+00  0.11534266924E+04  0.11534266924E+04  0.25500000000E-02 0. -1.
         -2   -1    0    0    0  501 -0.00000000000E+00 -0.00000000000E+00 -0.65324352745E+03  0.65324352746E+03  0.25500000000E-02 0.  1.
    8880022    1    1    2    0    0 -0.49462134384E+03 -0.13961864921E+02  0.97501294661E+03  0.11040322036E+04  0.15294330000E+03 0.  0.
    8880022    1    1    2    0    0  0.49462134384E+03  0.13961864921E+02 -0.47482978162E+03  0.70263801632E+03  0.15294330000E+03 0.  0.
<mgrwt>
<rscale>  0 0.51791588E+03</rscale>
<asrwt>0</asrwt>
<pdfrwt beam="1">  1        2 0.17745026E+00 0.51791588E+03</pdfrwt>
<pdfrwt beam="2">  1       -2 0.10049901E+00 0.51791588E+03</pdfrwt>
<totfact> 0.17341592E+01</totfact>
</mgrwt>
</event>
<event>
 4    1  0.4840632E-008  0.4098479E+03  0.7818608E-02  0.1040422E+00
          2   -1    0    0  501    0  0.00000000000E+00  0.00000000000E+00  0.93263009925E+03  0.93263009925E+03  0.25500000000E-02 0. -1.
         -2   -1    0    0    0  501 -0.00000000000E+00 -0.00000000000E+00 -0.32445722056E+03  0.32445722057E+03  0.25500000000E-02 0.  1.
    8880022    1    1    2    0    0 -0.31089456530E+03  0.21892517037E+03  0.72332580903E+03  0.83136967709E+03  0.15294330000E+03 0.  0.
    8880022    1    1    2    0    0  0.31089456530E+03 -0.21892517037E+03 -0.11515293035E+03  0.42571764273E+03  0.15294330000E+03 0.  0.
<mgrwt>
<rscale>  0 0.40984792E+03</rscale>
<asrwt>0</asrwt>
<pdfrwt beam="1">  1        2 0.14348155E+00 0.40984792E+03</pdfrwt>
<pdfrwt beam="2">  1       -2 0.49916496E-01 0.40984792E+03</pdfrwt>
<totfact> 0.11061225E+02</totfact>
</mgrwt>
</event>
<event>
 4    1  0.4840632E-008  0.2342682E+03  0.7818608E-02  0.1123671E+00
          2   -1    0    0  501    0  0.00000000000E+00  0.00000000000E+00  0.14923354821E+04  0.14923354821E+04  0.25500000000E-02 0. -1.
         -2   -1    0    0    0  501 -0.00000000000E+00 -0.00000000000E+00 -0.10163454467E+03  0.10163454470E+03  0.25500000000E-02 0.  1.
    8880022    1    1    2    0    0 -0.64212714361E+02 -0.16542878864E+03  0.58680671274E+02  0.24150575768E+03  0.15294330000E+03 0.  1.
    8880022    1    1    2    0    0  0.64212714361E+02  0.16542878864E+03  0.13320202662E+04  0.13524642692E+04  0.15294330000E+03 0.  0.
<mgrwt>
<rscale>  0 0.23426824E+03</rscale>
<asrwt>0</asrwt>
<pdfrwt beam="1">  1        2 0.22959006E+00 0.23426824E+03</pdfrwt>
<pdfrwt beam="2">  1       -2 0.15636085E-01 0.23426824E+03</pdfrwt>
<totfact> 0.44456769E+02</totfact>
</mgrwt>
</event>
<event>
 4    1  0.4840632E-008  0.1188630E+04  0.7818608E-02  0.9122867E-01
         -2   -1    0    0    0  501 -0.00000000000E+00  0.00000000000E+00  0.11809832613E+04  0.11809832613E+04  0.25500000000E-02 0.  1.
          2   -1    0    0  501    0  0.00000000000E+00 -0.00000000000E+00 -0.22341587835E+04  0.22341587835E+04  0.25500000000E-02 0. -1.
    8880022    1    1    2    0    0  0.85477631110E+03  0.81166919217E+03 -0.16904067391E+04  0.20664742960E+04  0.15294330000E+03 0.  0.
    8880022    1    1    2    0    0 -0.85477631110E+03 -0.81166919217E+03  0.63723121696E+03  0.13486677487E+04  0.15294330000E+03 0.  0.
<mgrwt>
<rscale>  0 0.11886299E+04</rscale>
<asrwt>0</asrwt>
<pdfrwt beam="1">  1        2 0.34371674E+00 0.11886299E+04</pdfrwt>
<pdfrwt beam="2">  1       -2 0.18168973E+00 0.11886299E+04</pdfrwt>
<totfact> 0.85004214E-01</totfact>
</mgrwt>
</event>
<event>
 4    1  0.4840632E-008  0.4286714E+03  0.7818608E-02  0.1034280E+00
          2   -1    0    0  501    0  0.00000000000E+00  0.00000000000E+00  0.21290129049E+04  0.21290129049E+04  0.25500000000E-02 0. -1.
         -2   -1    0    0    0  501 -0.00000000000E+00 -0.00000000000E+00 -0.21263661490E+03  0.21263661492E+03  0.25500000000E-02 0.  1.
    8880022    1    1    2    0    0 -0.37267448053E+03  0.14656471375E+03  0.18606254634E+04  0.19093680242E+04  0.15294330000E+03 0.  0.
    8880022    1    1    2    0    0  0.37267448053E+03 -0.14656471375E+03  0.55750826563E+02  0.43228149559E+03  0.15294330000E+03 0.  0.
<mgrwt>
<rscale>  0 0.42867136E+03</rscale>
<asrwt>0</asrwt>
<pdfrwt beam="1">  1        2 0.32754044E+00 0.42867136E+03</pdfrwt>
<pdfrwt beam="2">  1       -2 0.32713326E-01 0.42867136E+03</pdfrwt>
<totfact> 0.53623446E+01</totfact>
</mgrwt>
</event>
<event>
 4    1  0.4840632E-008  0.6482245E+03  0.7818608E-02  0.9810116E-01
          2   -1    0    0  501    0  0.00000000000E+00  0.00000000000E+00  0.12345250519E+04  0.12345250519E+04  0.25500000000E-02 0. -1.
         -2   -1    0    0    0  501 -0.00000000000E+00 -0.00000000000E+00 -0.56907894752E+03  0.56907894753E+03  0.25500000000E-02 0.  1.
    8880022    1    1    2    0    0 -0.25031798122E+03 -0.57805215453E+03 -0.23897499280E+03  0.69087197459E+03  0.15294330000E+03 0.  0.
    8880022    1    1    2    0    0  0.25031798122E+03  0.57805215453E+03  0.90442109715E+03  0.11127320248E+04  0.15294330000E+03 0. -1.
<mgrwt>
<rscale>  0 0.64822453E+03</rscale>
<asrwt>0</asrwt>
<pdfrwt beam="1">  1        2 0.18992693E+00 0.64822453E+03</pdfrwt>
<pdfrwt beam="2">  1       -2 0.87550608E-01 0.64822453E+03</pdfrwt>
<totfact> 0.20998482E+01</totfact>
</mgrwt>
</event>
<event>
 4    1  0.4840632E-008  0.7569583E+03  0.7818608E-02  0.9624497E-01
         -2   -1    0    0    0  501 -0.00000000000E+00  0.00000000000E+00  0.51614164885E+03  0.51614164885E+03  0.25500000000E-02 0.  1.
          2   -1    0    0  501    0  0.00000000000E+00 -0.00000000000E+00 -0.20301064328E+04  0.20301064328E+04  0.25500000000E-02 0. -1.
    8880022    1    1    2    0    0 -0.64604799637E+03  0.36361550363E+03 -0.16140181601E+04  0.17827059550E+04  0.15294330000E+03 0.  0.
    8880022    1    1    2    0    0  0.64604799637E+03 -0.36361550363E+03  0.10005337608E+03  0.76354212665E+03  0.15294330000E+03 0.  0.
<mgrwt>
<rscale>  0 0.75695832E+03</rscale>
<asrwt>0</asrwt>
<pdfrwt beam="1">  1        2 0.31232406E+00 0.75695832E+03</pdfrwt>
<pdfrwt beam="2">  1       -2 0.79406408E-01 0.75695832E+03</pdfrwt>
<totfact> 0.93530299E+00</totfact>
</mgrwt>
</event>
<event>
 4    1  0.4840632E-008  0.9322076E+03  0.7818608E-02  0.9386192E-01
          2   -1    0    0  501    0  0.00000000000E+00  0.00000000000E+00  0.46368877674E+03  0.46368877675E+03  0.25500000000E-02 0. -1.
         -2   -1    0    0    0  501 -0.00000000000E+00 -0.00000000000E+00 -0.21942915264E+04  0.21942915264E+04  0.25500000000E-02 0.  1.
    8880022    1    1    2    0    0  0.46086178817E+03 -0.79575478419E+03 -0.13729489146E+04  0.16595178937E+04  0.15294330000E+03 0.  0.
    8880022    1    1    2    0    0 -0.46086178817E+03  0.79575478419E+03 -0.35765383507E+03  0.99846240947E+03  0.15294330000E+03 0.  0.
<mgrwt>
<rscale>  0 0.93220755E+03</rscale>
<asrwt>0</asrwt>
<pdfrwt beam="1">  1        2 0.71336736E-01 0.93220755E+03</pdfrwt>
<pdfrwt beam="2">  1       -2 0.33758331E+00 0.93220755E+03</pdfrwt>
<totfact> 0.12788991E+00</totfact>
</mgrwt>
</event>
<event>
 4    1  0.4840632E-008  0.3782295E+03  0.7818608E-02  0.1051590E+00
         -2   -1    0    0    0  501 -0.00000000000E+00  0.00000000000E+00  0.97494712529E+02  0.97494712562E+02  0.25500000000E-02 0.  1.
          2   -1    0    0  501    0  0.00000000000E+00 -0.00000000000E+00 -0.15276589812E+04  0.15276589812E+04  0.25500000000E-02 0. -1.
    8880022    1    1    2    0    0 -0.30598977627E+03  0.16135718095E+03 -0.55361231516E+03  0.67048052286E+03  0.15294330000E+03 0.  0.
    8880022    1    1    2    0    0  0.30598977627E+03 -0.16135718095E+03 -0.87655195351E+03  0.95467317090E+03  0.15294330000E+03 0.  0.
<mgrwt>
<rscale>  0 0.37822948E+03</rscale>
<asrwt>0</asrwt>
<pdfrwt beam="1">  1        2 0.23502444E+00 0.37822948E+03</pdfrwt>
<pdfrwt beam="2">  1       -2 0.14999188E-01 0.37822948E+03</pdfrwt>
<totfact> 0.44749067E+02</totfact>
</mgrwt>
</event>
<event>
 4    1  0.4840632E-008  0.3263737E+03  0.7818608E-02  0.1072753E+00
          2   -1    0    0  501    0  0.00000000000E+00  0.00000000000E+00  0.14427319505E+04  0.14427319505E+04  0.25500000000E-02 0. -1.
         -2   -1    0    0    0  501 -0.00000000000E+00 -0.00000000000E+00 -0.13408770340E+03  0.13408770343E+03  0.25500000000E-02 0.  1.
    8880022    1    1    2    0    0  0.20326177978E+03  0.20448182111E+03  0.11828361871E+04  0.12270375971E+04  0.15294330000E+03 0.  0.
    8880022    1    1    2    0    0 -0.20326177978E+03 -0.20448182111E+03  0.12580806003E+03  0.34978205681E+03  0.15294330000E+03 0.  0.
<mgrwt>
<rscale>  0 0.32637374E+03</rscale>
<asrwt>0</asrwt>
<pdfrwt beam="1">  1        2 0.22195876E+00 0.32637374E+03</pdfrwt>
<pdfrwt beam="2">  1       -2 0.20628877E-01 0.32637374E+03</pdfrwt>
<totfact> 0.29143352E+02</totfact>
</mgrwt>
</event>
<event>
 4    1  0.4840632E-008  0.3200455E+03  0.7818608E-02  0.1075628E+00
         -2   -1    0    0    0  501 -0.00000000000E+00  0.00000000000E+00  0.12547661303E+03  0.12547661305E+03  0.25500000000E-02 0.  1.
          2   -1    0    0  501    0  0.00000000000E+00 -0.00000000000E+00 -0.92767484503E+03  0.92767484504E+03  0.25500000000E-02 0. -1.
    8880022    1    1    2    0    0  0.27288179360E+03 -0.67623795816E+02 -0.21866042061E+03  0.38760996323E+03  0.15294330000E+03 0.  0.
    8880022    1    1    2    0    0 -0.27288179360E+03  0.67623795816E+02 -0.58353781140E+03  0.66554149486E+03  0.15294330000E+03 0.  0.
<mgrwt>
<rscale>  0 0.32004547E+03</rscale>
<asrwt>0</asrwt>
<pdfrwt beam="1">  1        2 0.14271920E+00 0.32004547E+03</pdfrwt>
<pdfrwt beam="2">  1       -2 0.19304095E-01 0.32004547E+03</pdfrwt>
<totfact> 0.65207432E+02</totfact>
</mgrwt>
</event>
<event>
 4    1  0.4840632E-008  0.4419277E+03  0.7818608E-02  0.1030157E+00
         -2   -1    0    0    0  501 -0.00000000000E+00  0.00000000000E+00  0.55059339443E+03  0.55059339444E+03  0.25500000000E-02 0.  1.
          2   -1    0    0  501    0  0.00000000000E+00 -0.00000000000E+00 -0.43186751791E+03  0.43186751792E+03  0.25500000000E-02 0. -1.
    8880022    1    1    2    0    0  0.10887205822E+03  0.40006914055E+03 -0.14827355049E+03  0.46613854278E+03  0.15294330000E+03 0.  0.
    8880022    1    1    2    0    0 -0.10887205822E+03 -0.40006914055E+03  0.26699942701E+03  0.51632236957E+03  0.15294330000E+03 0.  0.
<mgrwt>
<rscale>  0 0.44192770E+03</rscale>
<asrwt>0</asrwt>
<pdfrwt beam="1">  1        2 0.66441157E-01 0.44192770E+03</pdfrwt>
<pdfrwt beam="2">  1       -2 0.84706675E-01 0.44192770E+03</pdfrwt>
<totfact> 0.91317216E+01</totfact>
</mgrwt>
</event>
<event>
 4    1  0.6040729E-008  0.6768141E+03  0.7818608E-02  0.9757726E-01
          2   -1    0    0  501    0  0.00000000000E+00  0.00000000000E+00  0.13658362490E+04  0.13658362491E+04  0.25500000000E-02 0. -1.
         -2   -1    0    0    0  501 -0.00000000000E+00 -0.00000000000E+00 -0.10243484450E+04  0.10243484450E+04  0.25500000000E-02 0.  1.
    8880022    1    1    2    0    0  0.65257362402E+03 -0.93985771596E+02  0.11508578000E+04  0.13351220876E+04  0.15294330000E+03 0.  0.
    8880022    1    1    2    0    0 -0.65257362402E+03  0.93985771596E+02 -0.80936999597E+03  0.10550626064E+04  0.15294330000E+03 0.  0.
<mgrwt>
<rscale>  0 0.67681409E+03</rscale>
<asrwt>0</asrwt>
<pdfrwt beam="1">  1        2 0.21012865E+00 0.67681409E+03</pdfrwt>
<pdfrwt beam="2">  1       -2 0.15759207E+00 0.67681409E+03</pdfrwt>
<totfact> 0.41202740E+00</totfact>
</mgrwt>
</event>
<event>
 4    1  0.4840632E-008  0.6869674E+03  0.7818608E-02  0.9739783E-01
          2   -1    0    0  501    0  0.00000000000E+00  0.00000000000E+00  0.58114309626E+03  0.58114309626E+03  0.25500000000E-02 0. -1.
         -2   -1    0    0    0  501 -0.00000000000E+00 -0.00000000000E+00 -0.14011928467E+04  0.14011928467E+04  0.25500000000E-02 0.  1.
    8880022    1    1    2    0    0 -0.58634466318E+03  0.32362391915E+03  0.23266909885E+03  0.72529929523E+03  0.15294330000E+03 0.  0.
    8880022    1    1    2    0    0  0.58634466318E+03 -0.32362391915E+03 -0.10527188493E+04  0.12570366477E+04  0.15294330000E+03 0.  0.
<mgrwt>
<rscale>  0 0.68696736E+03</rscale>
<asrwt>0</asrwt>
<pdfrwt beam="1">  1        2 0.89406631E-01 0.68696736E+03</pdfrwt>
<pdfrwt beam="2">  1       -2 0.21556813E+00 0.68696736E+03</pdfrwt>
<totfact> 0.56053458E+00</totfact>
</mgrwt>
</event>
<event>
 4    1  0.4840632E-008  0.4027949E+03  0.7818608E-02  0.1042816E+00
         -2   -1    0    0    0  501 -0.00000000000E+00  0.00000000000E+00  0.16284412308E+03  0.16284412310E+03  0.25500000000E-02 0.  1.
          2   -1    0    0  501    0  0.00000000000E+00 -0.00000000000E+00 -0.31061621106E+04  0.31061621106E+04  0.25500000000E-02 0. -1.
    8880022    1    1    2    0    0  0.14369843844E+03  0.34380644829E+03 -0.12456046969E+03  0.42161484642E+03  0.15294330000E+03 0.  0.
    8880022    1    1    2    0    0 -0.14369843844E+03 -0.34380644829E+03 -0.28187575178E+04  0.28473913873E+04  0.15294330000E+03 0. -1.
<mgrwt>
<rscale>  0 0.40279495E+03</rscale>
<asrwt>0</asrwt>
<pdfrwt beam="1">  1        2 0.47787105E+00 0.40279495E+03</pdfrwt>
<pdfrwt beam="2">  1       -2 0.25052944E-01 0.40279495E+03</pdfrwt>
<totfact> 0.24448748E+01</totfact>
</mgrwt>
</event>
<event>
 4    1  0.4840632E-008  0.5408081E+03  0.7818608E-02  0.1003644E+00
         -2   -1    0    0    0  501 -0.00000000000E+00  0.00000000000E+00  0.15418980974E+03  0.15418980976E+03  0.25500000000E-02 0.  1.
          2   -1    0    0  501    0  0.00000000000E+00 -0.00000000000E+00 -0.21106472771E+04  0.21106472771E+04  0.25500000000E-02 0. -1.
    8880022    1    1    2    0    0 -0.22324518323E+02 -0.51825027172E+03 -0.61780739308E+03  0.82107207736E+03  0.15294330000E+03 0.  0.
    8880022    1    1    2    0    0  0.22324518323E+02  0.51825027172E+03 -0.13386500743E+04  0.14437650095E+04  0.15294330000E+03 0.  0.
<mgrwt>
<rscale>  0 0.54080808E+03</rscale>
<asrwt>0</asrwt>
<pdfrwt beam="1">  1        2 0.32471494E+00 0.54080808E+03</pdfrwt>
<pdfrwt beam="2">  1       -2 0.23721511E-01 0.54080808E+03</pdfrwt>
<totfact> 0.96525707E+01</totfact>
</mgrwt>
</event>
<event>
 4    1  0.4840632E-008  0.2246405E+03  0.7818608E-02  0.1130470E+00
         -2   -1    0    0    0  501 -0.00000000000E+00  0.00000000000E+00  0.46054741901E+02  0.46054741971E+02  0.25500000000E-02 0.  1.
          2   -1    0    0  501    0  0.00000000000E+00 -0.00000000000E+00 -0.19016372282E+04  0.19016372282E+04  0.25500000000E-02 0. -1.
    8880022    1    1    2    0    0 -0.10534194800E+03 -0.12639128885E+03 -0.15617635496E+04  0.15778367222E+04  0.15294330000E+03 0.  0.
    8880022    1    1    2    0    0  0.10534194800E+03  0.12639128885E+03 -0.29381893667E+03  0.36985524799E+03  0.15294330000E+03 0.  0.
<mgrwt>
<rscale>  0 0.22464046E+03</rscale>
<asrwt>0</asrwt>
<pdfrwt beam="1">  1        2 0.29255951E+00 0.22464046E+03</pdfrwt>
<pdfrwt beam="2">  1       -2 0.70853464E-02 0.22464046E+03</pdfrwt>
<totfact> 0.96314036E+02</totfact>
</mgrwt>
</event>
<event>
 4    1  0.4840632E-008  0.2594528E+03  0.7818608E-02  0.1107472E+00
         -2   -1    0    0    0  501 -0.00000000000E+00  0.00000000000E+00  0.18336866339E+03  0.18336866341E+03  0.25500000000E-02 0.  1.
          2   -1    0    0  501    0  0.00000000000E+00 -0.00000000000E+00 -0.17291537231E+04  0.17291537231E+04  0.25500000000E-02 0. -1.
    8880022    1    1    2    0    0 -0.43402502111E+02  0.20503736358E+03 -0.16215958080E+04  0.16422206658E+04  0.15294330000E+03 0.  0.
    8880022    1    1    2    0    0  0.43402502111E+02 -0.20503736358E+03  0.75810748283E+02  0.27030172072E+03  0.15294330000E+03 0.  0.
<mgrwt>
<rscale>  0 0.25945279E+03</rscale>
<asrwt>0</asrwt>
<pdfrwt beam="1">  1        2 0.26602364E+00 0.25945279E+03</pdfrwt>
<pdfrwt beam="2">  1       -2 0.28210565E-01 0.25945279E+03</pdfrwt>
<totfact> 0.11954222E+02</totfact>
</mgrwt>
</event>
<event>
 4    1  0.4840632E-008  0.2181803E+03  0.7818608E-02  0.1135247E+00
          2   -1    0    0  501    0  0.00000000000E+00  0.00000000000E+00  0.37797408422E+03  0.37797408423E+03  0.25500000000E-02 0. -1.
         -2   -1    0    0    0  501 -0.00000000000E+00 -0.00000000000E+00 -0.19258304100E+03  0.19258304102E+03  0.25500000000E-02 0.  1.
    8880022    1    1    2    0    0 -0.13279843359E+03  0.81089886749E+02  0.26051116016E+03  0.33980687350E+03  0.15294330000E+03 0. -1.
    8880022    1    1    2    0    0  0.13279843359E+03 -0.81089886749E+02 -0.75120116942E+02  0.23075025174E+03  0.15294330000E+03 0.  0.
<mgrwt>
<rscale>  0 0.21818031E+03</rscale>
<asrwt>0</asrwt>
<pdfrwt beam="1">  1        2 0.58149858E-01 0.21818031E+03</pdfrwt>
<pdfrwt beam="2">  1       -2 0.29628161E-01 0.21818031E+03</pdfrwt>
<totfact> 0.88919932E+02</totfact>
</mgrwt>
</event>
<event>
 4    1  0.4840632E-008  0.7118618E+03  0.7818608E-02  0.9697159E-01
          2   -1    0    0  501    0  0.00000000000E+00  0.00000000000E+00  0.54845804314E+03  0.54845804315E+03  0.25500000000E-02 0. -1.
         -2   -1    0    0    0  501 -0.00000000000E+00 -0.00000000000E+00 -0.22256073838E+04  0.22256073838E+04  0.25500000000E-02 0.  1.
    8880022    1    1    2    0    0 -0.39766348049E+03 -0.57028006091E+03 -0.18993195455E+04  0.20283397103E+04  0.15294330000E+03 0.  0.
    8880022    1    1    2    0    0  0.39766348049E+03  0.57028006091E+03  0.22217020479E+03  0.74572571667E+03  0.15294330000E+03 0.  0.
<mgrwt>
<rscale>  0 0.71186182E+03</rscale>
<asrwt>0</asrwt>
<pdfrwt beam="1">  1        2 0.84378161E-01 0.71186182E+03</pdfrwt>
<pdfrwt beam="2">  1       -2 0.34240113E+00 0.71186182E+03</pdfrwt>
<totfact> 0.10169107E+00</totfact>
</mgrwt>
</event>
<event>
 4    1  0.4840632E-008  0.2722042E+03  0.7818608E-02  0.1100025E+00
         -2   -1    0    0    0  501 -0.00000000000E+00  0.00000000000E+00  0.34508193494E+03  0.34508193495E+03  0.25500000000E-02 0.  1.
          2   -1    0    0  501    0  0.00000000000E+00 -0.00000000000E+00 -0.56811208953E+03  0.56811208954E+03  0.25500000000E-02 0. -1.
    8880022    1    1    2    0    0  0.22397470182E+03  0.23212185439E+02 -0.47163405305E+03  0.54454917649E+03  0.15294330000E+03 0. -1.
    8880022    1    1    2    0    0 -0.22397470182E+03 -0.23212185439E+02  0.24860389846E+03  0.36864484799E+03  0.15294330000E+03 0.  0.
<mgrwt>
<rscale>  0 0.27220420E+03</rscale>
<asrwt>0</asrwt>
<pdfrwt beam="1">  1        2 0.87401860E-01 0.27220420E+03</pdfrwt>
<pdfrwt beam="2">  1       -2 0.53089528E-01 0.27220420E+03</pdfrwt>
<totfact> 0.18475661E+02</totfact>
</mgrwt>
</event>
<event>
 4    1  0.4840632E-008  0.5067111E+03  0.7818608E-02  0.1012042E+00
         -2   -1    0    0    0  501 -0.00000000000E+00  0.00000000000E+00  0.24196554043E+03  0.24196554044E+03  0.25500000000E-02 0.  1.
          2   -1    0    0  501    0  0.00000000000E+00 -0.00000000000E+00 -0.14137567403E+04  0.14137567403E+04  0.25500000000E-02 0. -1.
    8880022    1    1    2    0    0  0.41423651089E+03  0.24854098623E+03 -0.17243927727E+03  0.53524897585E+03  0.15294330000E+03 0.  0.
    8880022    1    1    2    0    0 -0.41423651089E+03 -0.24854098623E+03 -0.99935192265E+03  0.11204733049E+04  0.15294330000E+03 0.  0.
<mgrwt>
<rscale>  0 0.50671112E+03</rscale>
<asrwt>0</asrwt>
<pdfrwt beam="1">  1        2 0.21750103E+00 0.50671112E+03</pdfrwt>
<pdfrwt beam="2">  1       -2 0.37225468E-01 0.50671112E+03</pdfrwt>
<totfact> 0.10092829E+02</totfact>
</mgrwt>
</event>
<event>
 4    1  0.4840632E-008  0.9731055E+03  0.7818608E-02  0.9338544E-01
         -2   -1    0    0    0  501 -0.00000000000E+00  0.00000000000E+00  0.12556077528E+04  0.12556077528E+04  0.25500000000E-02 0.  1.
          2   -1    0    0  501    0  0.00000000000E+00 -0.00000000000E+00 -0.11148147829E+04  0.11148147829E+04  0.25500000000E-02 0. -1.
    8880022    1    1    2    0    0  0.16752990355E+03  0.94629614094E+03  0.74451737173E+03  0.12252511680E+04  0.15294330000E+03 0.  0.
    8880022    1    1    2    0    0 -0.16752990355E+03 -0.94629614094E+03 -0.60372440181E+03  0.11451713677E+04  0.15294330000E+03 0.  0.
<mgrwt>
<rscale>  0 0.97310550E+03</rscale>
<asrwt>0</asrwt>
<pdfrwt beam="1">  1        2 0.17150997E+00 0.97310550E+03</pdfrwt>
<pdfrwt beam="2">  1       -2 0.19317042E+00 0.97310550E+03</pdfrwt>
<totfact> 0.31326688E+00</totfact>
</mgrwt>
</event>
<event>
 4    1  0.4840632E-008  0.2213195E+03  0.7818608E-02  0.1132903E+00
          2   -1    0    0  501    0  0.00000000000E+00  0.00000000000E+00  0.99659863563E+03  0.99659863563E+03  0.25500000000E-02 0. -1.
         -2   -1    0    0    0  501 -0.00000000000E+00 -0.00000000000E+00 -0.14395931602E+04  0.14395931602E+04  0.25500000000E-02 0.  1.
    8880022    1    1    2    0    0 -0.15886825922E+03 -0.18749974416E+02  0.97562439942E+03  0.10004125684E+04  0.15294330000E+03 0.  0.
    8880022    1    1    2    0    0  0.15886825922E+03  0.18749974416E+02 -0.14186189240E+04  0.14357792274E+04  0.15294330000E+03 0.  1.
<mgrwt>
<rscale>  0 0.22131954E+03</rscale>
<asrwt>0</asrwt>
<pdfrwt beam="1">  1        2 0.15332287E+00 0.22131954E+03</pdfrwt>
<pdfrwt beam="2">  1       -2 0.22147587E+00 0.22131954E+03</pdfrwt>
<totfact> 0.29188858E+00</totfact>
</mgrwt>
</event>
<event>
 4    1  0.4840632E-008  0.2748279E+03  0.7818608E-02  0.1098548E+00
         -2   -1    0    0    0  501 -0.00000000000E+00  0.00000000000E+00  0.43773452136E+02  0.43773452211E+02  0.25500000000E-02 0.  1.
          2   -1    0    0  501    0  0.00000000000E+00 -0.00000000000E+00 -0.19260204780E+04  0.19260204780E+04  0.25500000000E-02 0. -1.
    8880022    1    1    2    0    0  0.84679979208E+02  0.21205660442E+03 -0.62332055821E+03  0.68121866802E+03  0.15294330000E+03 0.  0.
    8880022    1    1    2    0    0 -0.84679979208E+02 -0.21205660442E+03 -0.12589264676E+04  0.12885752622E+04  0.15294330000E+03 0.  0.
<mgrwt>
<rscale>  0 0.27482786E+03</rscale>
<asrwt>0</asrwt>
<pdfrwt beam="1">  1        2 0.29631078E+00 0.27482786E+03</pdfrwt>
<pdfrwt beam="2">  1       -2 0.67343787E-02 0.27482786E+03</pdfrwt>
<totfact> 0.10056885E+03</totfact>
</mgrwt>
</event>
<event>
 4    1  0.4840632E-008  0.5576365E+03  0.7818608E-02  0.9997417E-01
         -2   -1    0    0    0  501 -0.00000000000E+00  0.00000000000E+00  0.24434910234E+03  0.24434910235E+03  0.25500000000E-02 0.  1.
          2   -1    0    0  501    0  0.00000000000E+00 -0.00000000000E+00 -0.39512052023E+04  0.39512052023E+04  0.25500000000E-02 0. -1.
    8880022    1    1    2    0    0  0.19754772619E+03 -0.49853955376E+03 -0.12620276593E+03  0.57173908553E+03  0.15294330000E+03 0.  0.
    8880022    1    1    2    0    0 -0.19754772619E+03  0.49853955376E+03 -0.35806533340E+04  0.36238152191E+04  0.15294330000E+03 0.  0.
<mgrwt>
<rscale>  0 0.55763648E+03</rscale>
<asrwt>0</asrwt>
<pdfrwt beam="1">  1        2 0.60787768E+00 0.55763648E+03</pdfrwt>
<pdfrwt beam="2">  1       -2 0.37592173E-01 0.55763648E+03</pdfrwt>
<totfact> 0.29098911E+00</totfact>
</mgrwt>
</event>
<event>
 4    1  0.4840632E-008  0.2314545E+03  0.7818608E-02  0.1125620E+00
         -2   -1    0    0    0  501 -0.00000000000E+00  0.00000000000E+00  0.11837390972E+03  0.11837390975E+03  0.25500000000E-02 0.  1.
          2   -1    0    0  501    0  0.00000000000E+00 -0.00000000000E+00 -0.45505458214E+03  0.45505458215E+03  0.25500000000E-02 0. -1.
    8880022    1    1    2    0    0 -0.16669602510E+03 -0.48907597378E+02 -0.18957321374E+03  0.29918083871E+03  0.15294330000E+03 0. -1.
    8880022    1    1    2    0    0  0.16669602510E+03  0.48907597378E+02 -0.14710745867E+03  0.27424765319E+03  0.15294330000E+03 0.  1.
<mgrwt>
<rscale>  0 0.23145447E+03</rscale>
<asrwt>0</asrwt>
<pdfrwt beam="1">  1        2 0.70008396E-01 0.23145447E+03</pdfrwt>
<pdfrwt beam="2">  1       -2 0.18211371E-01 0.23145447E+03</pdfrwt>
<totfact> 0.17016485E+03</totfact>
</mgrwt>
</event>
<event>
 4    1  0.4840632E-008  0.3171182E+03  0.7818608E-02  0.1076983E+00
         -2   -1    0    0    0  501 -0.00000000000E+00  0.00000000000E+00  0.29475223914E+03  0.29475223915E+03  0.25500000000E-02 0.  1.
          2   -1    0    0  501    0  0.00000000000E+00 -0.00000000000E+00 -0.18142008196E+04  0.18142008196E+04  0.25500000000E-02 0. -1.
    8880022    1    1    2    0    0 -0.27653990103E+03  0.26419193077E+02 -0.17098881188E+04  0.17390460956E+04  0.15294330000E+03 0.  0.
    8880022    1    1    2    0    0  0.27653990103E+03 -0.26419193077E+02  0.19043953836E+03  0.36990696318E+03  0.15294330000E+03 0.  0.
<mgrwt>
<rscale>  0 0.31711819E+03</rscale>
<asrwt>0</asrwt>
<pdfrwt beam="1">  1        2 0.27910781E+00 0.31711819E+03</pdfrwt>
<pdfrwt beam="2">  1       -2 0.45346499E-01 0.31711819E+03</pdfrwt>
<totfact> 0.43403599E+01</totfact>
</mgrwt>
</event>
<event>
 4    1  0.4840632E-008  0.5323993E+03  0.7818608E-02  0.1005652E+00
          2   -1    0    0  501    0  0.00000000000E+00  0.00000000000E+00  0.87625482947E+03  0.87625482948E+03  0.25500000000E-02 0. -1.
         -2   -1    0    0    0  501 -0.00000000000E+00 -0.00000000000E+00 -0.37776326803E+03  0.37776326803E+03  0.25500000000E-02 0.  1.
    8880022    1    1    2    0    0  0.31175640253E+03  0.40356579915E+03  0.11558804666E+02  0.53252480482E+03  0.15294330000E+03 0.  0.
    8880022    1    1    2    0    0 -0.31175640253E+03 -0.40356579915E+03  0.48693275678E+03  0.72149329270E+03  0.15294330000E+03 0.  0.
<mgrwt>
<rscale>  0 0.53239934E+03</rscale>
<asrwt>0</asrwt>
<pdfrwt beam="1">  1        2 0.13480843E+00 0.53239934E+03</pdfrwt>
<pdfrwt beam="2">  1       -2 0.58117426E-01 0.53239934E+03</pdfrwt>
<totfact> 0.87012545E+01</totfact>
</mgrwt>
</event>
<event>
 4    1  0.4840632E-008  0.3265876E+03  0.7818608E-02  0.1072657E+00
          2   -1    0    0  501    0  0.00000000000E+00  0.00000000000E+00  0.37917666465E+03  0.37917666466E+03  0.25500000000E-02 0. -1.
         -2   -1    0    0    0  501 -0.00000000000E+00 -0.00000000000E+00 -0.49966537113E+03  0.49966537114E+03  0.25500000000E-02 0.  1.
    8880022    1    1    2    0    0 -0.28205479159E+03 -0.60933363566E+02 -0.35074081900E+03  0.47924790597E+03  0.15294330000E+03 0.  0.
    8880022    1    1    2    0    0  0.28205479159E+03  0.60933363566E+02  0.23025211252E+03  0.39959412982E+03  0.15294330000E+03 0.  0.
<mgrwt>
<rscale>  0 0.32658756E+03</rscale>
<asrwt>0</asrwt>
<pdfrwt beam="1">  1        2 0.58334871E-01 0.32658756E+03</pdfrwt>
<pdfrwt beam="2">  1       -2 0.76871596E-01 0.32658756E+03</pdfrwt>
<totfact> 0.13224742E+02</totfact>
</mgrwt>
</event>
<event>
 4    1  0.4840632E-008  0.2762976E+03  0.7818608E-02  0.1097728E+00
         -2   -1    0    0    0  501 -0.00000000000E+00  0.00000000000E+00  0.75167493406E+02  0.75167493449E+02  0.25500000000E-02 0.  1.
          2   -1    0    0  501    0  0.00000000000E+00 -0.00000000000E+00 -0.28027457730E+04  0.28027457730E+04  0.25500000000E-02 0. -1.
    8880022    1    1    2    0    0  0.78213481033E+02 -0.21640553435E+03 -0.25128299043E+04  0.25279743837E+04  0.15294330000E+03 0.  0.
    8880022    1    1    2    0    0 -0.78213481033E+02  0.21640553435E+03 -0.21474837525E+03  0.34993888266E+03  0.15294330000E+03 0.  0.
<mgrwt>
<rscale>  0 0.27629759E+03</rscale>
<asrwt>0</asrwt>
<pdfrwt beam="1">  1        2 0.43119158E+00 0.27629759E+03</pdfrwt>
<pdfrwt beam="2">  1       -2 0.11564232E-01 0.27629759E+03</pdfrwt>
<totfact> 0.14271687E+02</totfact>
</mgrwt>
</event>
<event>
 4    1  0.4840632E-008  0.3286572E+03  0.7818608E-02  0.1071733E+00
         -2   -1    0    0    0  501 -0.00000000000E+00  0.00000000000E+00  0.27059615559E+03  0.27059615561E+03  0.25500000000E-02 0.  1.
          2   -1    0    0  501    0  0.00000000000E+00 -0.00000000000E+00 -0.15173969170E+04  0.15173969170E+04  0.25500000000E-02 0. -1.
    8880022    1    1    2    0    0 -0.14897525957E+03 -0.24986045971E+03 -0.13908502477E+04  0.14291535753E+04  0.15294330000E+03 0.  0.
    8880022    1    1    2    0    0  0.14897525957E+03  0.24986045971E+03  0.14404948630E+03  0.35883949728E+03  0.15294330000E+03 0.  1.
<mgrwt>
<rscale>  0 0.32865716E+03</rscale>
<asrwt>0</asrwt>
<pdfrwt beam="1">  1        2 0.23344567E+00 0.32865716E+03</pdfrwt>
<pdfrwt beam="2">  1       -2 0.41630179E-01 0.32865716E+03</pdfrwt>
<totfact> 0.73603210E+01</totfact>
</mgrwt>
</event>
<event>
 4    1  0.4840632E-008  0.6343018E+03  0.7818608E-02  0.9836690E-01
          2   -1    0    0  501    0  0.00000000000E+00  0.00000000000E+00  0.10503169602E+04  0.10503169602E+04  0.25500000000E-02 0. -1.
         -2   -1    0    0    0  501 -0.00000000000E+00 -0.00000000000E+00 -0.39217056136E+03  0.39217056137E+03  0.25500000000E-02 0.  1.
    8880022    1    1    2    0    0  0.54740573976E+03 -0.28159211008E+03  0.21916823674E+03  0.67109874787E+03  0.15294330000E+03 0.  1.
    8880022    1    1    2    0    0 -0.54740573976E+03  0.28159211008E+03  0.43897816210E+03  0.77138877370E+03  0.15294330000E+03 0. -1.
<mgrwt>
<rscale>  0 0.63430183E+03</rscale>
<asrwt>0</asrwt>
<pdfrwt beam="1">  1        2 0.16158722E+00 0.63430183E+03</pdfrwt>
<pdfrwt beam="2">  1       -2 0.60333933E-01 0.63430183E+03</pdfrwt>
<totfact> 0.61474967E+01</totfact>
</mgrwt>
</event>
<event>
 4    1  0.5862270E-008  0.9952817E+03  0.7818608E-02  0.9313735E-01
         -2   -1    0    0    0  501 -0.00000000000E+00  0.00000000000E+00  0.12710479702E+04  0.12710479702E+04  0.25500000000E-02 0.  1.
          2   -1    0    0  501    0  0.00000000000E+00 -0.00000000000E+00 -0.18259485631E+04  0.18259485631E+04  0.25500000000E-02 0. -1.
    8880022    1    1    2    0    0  0.24311451125E+03 -0.95293717160E+03 -0.14498007223E+04  0.17585527305E+04  0.15294330000E+03 0.  0.
    8880022    1    1    2    0    0 -0.24311451125E+03  0.95293717160E+03  0.89490012941E+03  0.13384438028E+04  0.15294330000E+03 0.  0.
<mgrwt>
<rscale>  0 0.99528165E+03</rscale>
<asrwt>0</asrwt>
<pdfrwt beam="1">  1        2 0.28091516E+00 0.99528165E+03</pdfrwt>
<pdfrwt beam="2">  1       -2 0.19554584E+00 0.99528165E+03</pdfrwt>
<totfact> 0.11844013E+00</totfact>
</mgrwt>
</event>
<event>
 4    1  0.4840632E-008  0.1962221E+03  0.7818608E-02  0.1152966E+00
         -2   -1    0    0    0  501 -0.00000000000E+00  0.00000000000E+00  0.17612070201E+03  0.17612070203E+03  0.25500000000E-02 0.  1.
          2   -1    0    0  501    0  0.00000000000E+00 -0.00000000000E+00 -0.47161441455E+03  0.47161441455E+03  0.25500000000E-02 0. -1.
    8880022    1    1    2    0    0  0.99317892028E+02  0.72438975451E+02  0.89462249922E+02  0.21565388014E+03  0.15294330000E+03 0.  1.
    8880022    1    1    2    0    0 -0.99317892028E+02 -0.72438975451E+02 -0.38495596246E+03  0.43208123645E+03  0.15294330000E+03 0.  0.
<mgrwt>
<rscale>  0 0.19622207E+03</rscale>
<asrwt>0</asrwt>
<pdfrwt beam="1">  1        2 0.72556063E-01 0.19622207E+03</pdfrwt>
<pdfrwt beam="2">  1       -2 0.27095493E-01 0.19622207E+03</pdfrwt>
<totfact> 0.81955897E+02</totfact>
</mgrwt>
</event>
<event>
 4    1  0.4840632E-008  0.6566516E+03  0.7818608E-02  0.9794377E-01
         -2   -1    0    0    0  501 -0.00000000000E+00  0.00000000000E+00  0.66605120035E+03  0.66605120036E+03  0.25500000000E-02 0.  1.
          2   -1    0    0  501    0  0.00000000000E+00 -0.00000000000E+00 -0.69355816761E+03  0.69355816761E+03  0.25500000000E-02 0. -1.
    8880022    1    1    2    0    0 -0.62786019715E+03 -0.11658140214E+03  0.16165044945E+03  0.67625599540E+03  0.15294330000E+03 0.  0.
    8880022    1    1    2    0    0  0.62786019715E+03  0.11658140214E+03 -0.18915741670E+03  0.68335337257E+03  0.15294330000E+03 0.  0.
<mgrwt>
<rscale>  0 0.65665158E+03</rscale>
<asrwt>0</asrwt>
<pdfrwt beam="1">  1        2 0.10670126E+00 0.65665158E+03</pdfrwt>
<pdfrwt beam="2">  1       -2 0.10246942E+00 0.65665158E+03</pdfrwt>
<totfact> 0.33009843E+01</totfact>
</mgrwt>
</event>
<event>
 4    1  0.4840632E-008  0.4621997E+03  0.7818608E-02  0.1024145E+00
         -2   -1    0    0    0  501 -0.00000000000E+00  0.00000000000E+00  0.23437797627E+03  0.23437797628E+03  0.25500000000E-02 0.  1.
          2   -1    0    0  501    0  0.00000000000E+00 -0.00000000000E+00 -0.18880825814E+04  0.18880825814E+04  0.25500000000E-02 0. -1.
    8880022    1    1    2    0    0  0.15305497618E+03 -0.40842513493E+03 -0.63613879384E+02  0.46655685103E+03  0.15294330000E+03 0.  0.
    8880022    1    1    2    0    0 -0.15305497618E+03  0.40842513493E+03 -0.15900907258E+04  0.16559037067E+04  0.15294330000E+03 0. -1.
<mgrwt>
<rscale>  0 0.46219971E+03</rscale>
<asrwt>0</asrwt>
<pdfrwt beam="1">  1        2 0.29047423E+00 0.46219971E+03</pdfrwt>
<pdfrwt beam="2">  1       -2 0.36058151E-01 0.46219971E+03</pdfrwt>
<totfact> 0.59723263E+01</totfact>
</mgrwt>
</event>
<event>
 4    1  0.4840632E-008  0.6895837E+03  0.7818608E-02  0.9735213E-01
          2   -1    0    0  501    0  0.00000000000E+00  0.00000000000E+00  0.18838080468E+04  0.18838080468E+04  0.25500000000E-02 0. -1.
         -2   -1    0    0    0  501 -0.00000000000E+00 -0.00000000000E+00 -0.44020463612E+03  0.44020463613E+03  0.25500000000E-02 0.  1.
    8880022    1    1    2    0    0  0.16026684698E+03 -0.65303029631E+03  0.14807323704E+04  0.16334301442E+04  0.15294330000E+03 0.  0.
    8880022    1    1    2    0    0 -0.16026684698E+03  0.65303029631E+03 -0.37128959739E+02  0.69058253873E+03  0.15294330000E+03 0.  0.
<mgrwt>
<rscale>  0 0.68958370E+03</rscale>
<asrwt>0</asrwt>
<pdfrwt beam="1">  1        2 0.28981662E+00 0.68958370E+03</pdfrwt>
<pdfrwt beam="2">  1       -2 0.67723790E-01 0.68958370E+03</pdfrwt>
<totfact> 0.16123669E+01</totfact>
</mgrwt>
</event>
<event>
 4    1  0.4840632E-008  0.2941816E+03  0.7818608E-02  0.1088186E+00
         -2   -1    0    0    0  501 -0.00000000000E+00  0.00000000000E+00  0.85997432005E+02  0.85997432042E+02  0.25500000000E-02 0.  1.
          2   -1    0    0  501    0  0.00000000000E+00 -0.00000000000E+00 -0.17459703133E+04  0.17459703133E+04  0.25500000000E-02 0. -1.
    8880022    1    1    2    0    0 -0.23097138246E+03 -0.99011977273E+02 -0.14261648501E+04  0.14561898859E+04  0.15294330000E+03 0.  0.
    8880022    1    1    2    0    0  0.23097138246E+03  0.99011977273E+02 -0.23380803114E+03  0.37577785938E+03  0.15294330000E+03 0.  0.
<mgrwt>
<rscale>  0 0.29418158E+03</rscale>
<asrwt>0</asrwt>
<pdfrwt beam="1">  1        2 0.26861079E+00 0.29418158E+03</pdfrwt>
<pdfrwt beam="2">  1       -2 0.13230375E-01 0.29418158E+03</pdfrwt>
<totfact> 0.42574247E+02</totfact>
</mgrwt>
</event>
<event>
 4    1  0.4840632E-008  0.1185548E+04  0.7818608E-02  0.9125601E-01
         -2   -1    0    0    0  501 -0.00000000000E+00  0.00000000000E+00  0.75445278653E+03  0.75445278653E+03  0.25500000000E-02 0.  1.
          2   -1    0    0  501    0  0.00000000000E+00 -0.00000000000E+00 -0.25270837516E+04  0.25270837516E+04  0.25500000000E-02 0. -1.
    8880022    1    1    2    0    0 -0.55225550044E+03  0.10378562665E+04 -0.45194542256E+02  0.11864088534E+04  0.15294330000E+03 0.  0.
    8880022    1    1    2    0    0  0.55225550044E+03 -0.10378562665E+04 -0.17274364228E+04  0.20951276848E+04  0.15294330000E+03 0.  0.
<mgrwt>
<rscale>  0 0.11855477E+04</rscale>
<asrwt>0</asrwt>
<pdfrwt beam="1">  1        2 0.38878211E+00 0.11855477E+04</pdfrwt>
<pdfrwt beam="2">  1       -2 0.11606966E+00 0.11855477E+04</pdfrwt>
<totfact> 0.19029132E+00</totfact>
</mgrwt>
</event>
<event>
 4    1  0.4840632E-008  0.9730222E+03  0.7818608E-02  0.9338639E-01
         -2   -1    0    0    0  501 -0.00000000000E+00  0.00000000000E+00  0.82244215109E+03  0.82244215110E+03  0.25500000000E-02 0.  1.
          2   -1    0    0  501    0  0.00000000000E+00 -0.00000000000E+00 -0.16480377037E+04  0.16480377037E+04  0.25500000000E-02 0. -1.
    8880022    1    1    2    0    0 -0.72534614216E+03  0.63028055748E+03 -0.10910439015E+04  0.14618991262E+04  0.15294330000E+03 0.  0.
    8880022    1    1    2    0    0  0.72534614216E+03 -0.63028055748E+03  0.26544834895E+03  0.10085807286E+04  0.15294330000E+03 0.  0.
<mgrwt>
<rscale>  0 0.97302223E+03</rscale>
<asrwt>0</asrwt>
<pdfrwt beam="1">  1        2 0.25354426E+00 0.97302223E+03</pdfrwt>
<pdfrwt beam="2">  1       -2 0.12652956E+00 0.97302223E+03</pdfrwt>
<totfact> 0.48649208E+00</totfact>
</mgrwt>
</event>
<event>
 4    1  0.4840632E-008  0.3779091E+03  0.7818608E-02  0.1051709E+00
         -2   -1    0    0    0  501 -0.00000000000E+00  0.00000000000E+00  0.71933757824E+02  0.71933757869E+02  0.25500000000E-02 0.  1.
          2   -1    0    0  501    0  0.00000000000E+00 -0.00000000000E+00 -0.28423811509E+04  0.28423811509E+04  0.25500000000E-02 0. -1.
    8880022    1    1    2    0    0 -0.31625380974E+03 -0.13930958497E+03 -0.21853489816E+04  0.22177839068E+04  0.15294330000E+03 0.  0.
    8880022    1    1    2    0    0  0.31625380974E+03  0.13930958497E+03 -0.58509841143E+03  0.69653100197E+03  0.15294330000E+03 0.  0.
<mgrwt>
<rscale>  0 0.37790910E+03</rscale>
<asrwt>0</asrwt>
<pdfrwt beam="1">  1        2 0.43728932E+00 0.37790910E+03</pdfrwt>
<pdfrwt beam="2">  1       -2 0.11066734E-01 0.37790910E+03</pdfrwt>
<totfact> 0.14136543E+02</totfact>
</mgrwt>
</event>
<event>
 4    1  0.8351159E-008  0.8115625E+03  0.7818608E-02  0.9543430E-01
         -2   -1    0    0    0  501 -0.00000000000E+00  0.00000000000E+00  0.11764843959E+04  0.11764843959E+04  0.25500000000E-02 0.  1.
          2   -1    0    0  501    0  0.00000000000E+00 -0.00000000000E+00 -0.17534929839E+04  0.17534929839E+04  0.25500000000E-02 0. -1.
    8880022    1    1    2    0    0 -0.77373061536E+03  0.19126668436E+03  0.92020746494E+03  0.12269537242E+04  0.15294330000E+03 0.  0.
    8880022    1    1    2    0    0  0.77373061536E+03 -0.19126668436E+03 -0.14972160529E+04  0.17030236557E+04  0.15294330000E+03 0.  0.
<mgrwt>
<rscale>  0 0.81156248E+03</rscale>
<asrwt>0</asrwt>
<pdfrwt beam="1">  1        2 0.26976815E+00 0.81156248E+03</pdfrwt>
<pdfrwt beam="2">  1       -2 0.18099760E+00 0.81156248E+03</pdfrwt>
<totfact> 0.16733987E+00</totfact>
</mgrwt>
</event>
<event>
 4    1  0.4840632E-008  0.3731247E+03  0.7818608E-02  0.1053505E+00
          2   -1    0    0  501    0  0.00000000000E+00  0.00000000000E+00  0.71419088727E+03  0.71419088727E+03  0.25500000000E-02 0. -1.
         -2   -1    0    0    0  501 -0.00000000000E+00 -0.00000000000E+00 -0.30436032542E+03  0.30436032543E+03  0.25500000000E-02 0.  1.
    8880022    1    1    2    0    0  0.32865583313E+03 -0.88406678078E+02 -0.10044623674E+03  0.38640845859E+03  0.15294330000E+03 0.  0.
    8880022    1    1    2    0    0 -0.32865583313E+03  0.88406678078E+02  0.51027679859E+03  0.63214275411E+03  0.15294330000E+03 0.  0.
<mgrwt>
<rscale>  0 0.37312471E+03</rscale>
<asrwt>0</asrwt>
<pdfrwt beam="1">  1        2 0.10987552E+00 0.37312471E+03</pdfrwt>
<pdfrwt beam="2">  1       -2 0.46824666E-01 0.37312471E+03</pdfrwt>
<totfact> 0.17902201E+02</totfact>
</mgrwt>
</event>
<event>
 4    1  0.4840632E-008  0.8858868E+03  0.7818608E-02  0.9443398E-01
         -2   -1    0    0    0  501 -0.00000000000E+00  0.00000000000E+00  0.74473473989E+03  0.74473473990E+03  0.25500000000E-02 0.  1.
          2   -1    0    0  501    0  0.00000000000E+00 -0.00000000000E+00 -0.13897374993E+04  0.13897374993E+04  0.25500000000E-02 0. -1.
    8880022    1    1    2    0    0 -0.12663970364E+03 -0.86334591783E+03  0.20221980810E+03  0.90867391961E+03  0.15294330000E+03 0.  0.
    8880022    1    1    2    0    0  0.12663970364E+03  0.86334591783E+03 -0.84722256750E+03  0.12257983196E+04  0.15294330000E+03 0. -1.
<mgrwt>
<rscale>  0 0.88588681E+03</rscale>
<asrwt>0</asrwt>
<pdfrwt beam="1">  1        2 0.21380577E+00 0.88588681E+03</pdfrwt>
<pdfrwt beam="2">  1       -2 0.11457458E+00 0.88588681E+03</pdfrwt>
<totfact> 0.87787702E+00</totfact>
</mgrwt>
</event>
<event>
 4    1  0.4840632E-008  0.2712821E+03  0.7818608E-02  0.1100548E+00
         -2   -1    0    0    0  501 -0.00000000000E+00  0.00000000000E+00  0.61499789724E+02  0.61499789776E+02  0.25500000000E-02 0.  1.
          2   -1    0    0  501    0  0.00000000000E+00 -0.00000000000E+00 -0.14697575027E+04  0.14697575027E+04  0.25500000000E-02 0. -1.
    8880022    1    1    2    0    0 -0.13181313256E+03 -0.18118397660E+03 -0.37409482676E+03  0.46210488821E+03  0.15294330000E+03 0.  1.
    8880022    1    1    2    0    0  0.13181313256E+03  0.18118397660E+03 -0.10341628862E+04  0.10691524043E+04  0.15294330000E+03 0.  0.
<mgrwt>
<rscale>  0 0.27128212E+03</rscale>
<asrwt>0</asrwt>
<pdfrwt beam="1">  1        2 0.22611651E+00 0.27128212E+03</pdfrwt>
<pdfrwt beam="2">  1       -2 0.94615072E-02 0.27128212E+03</pdfrwt>
<totfact> 0.10285814E+03</totfact>
</mgrwt>
</event>
<event>
 4    1  0.4840632E-008  0.4869068E+03  0.7818608E-02  0.1017254E+00
          2   -1    0    0  501    0  0.00000000000E+00  0.00000000000E+00  0.39613855588E+03  0.39613855589E+03  0.25500000000E-02 0. -1.
         -2   -1    0    0    0  501 -0.00000000000E+00 -0.00000000000E+00 -0.12364306599E+04  0.12364306599E+04  0.25500000000E-02 0.  1.
    8880022    1    1    2    0    0  0.42845645690E+03  0.17352701631E+03  0.16619819248E+03  0.51449009032E+03  0.15294330000E+03 0.  1.
    8880022    1    1    2    0    0 -0.42845645690E+03 -0.17352701631E+03 -0.10064902965E+04  0.11180791255E+04  0.15294330000E+03 0.  0.
<mgrwt>
<rscale>  0 0.48690678E+03</rscale>
<asrwt>0</asrwt>
<pdfrwt beam="1">  1        2 0.60944394E-01 0.48690678E+03</pdfrwt>
<pdfrwt beam="2">  1       -2 0.19022010E+00 0.48690678E+03</pdfrwt>
<totfact> 0.13031773E+01</totfact>
</mgrwt>
</event>
<event>
 4    1  0.4840632E-008  0.2025888E+03  0.7818608E-02  0.1147573E+00
         -2   -1    0    0    0  501 -0.00000000000E+00  0.00000000000E+00  0.22055562766E+03  0.22055562767E+03  0.25500000000E-02 0.  1.
          2   -1    0    0  501    0  0.00000000000E+00 -0.00000000000E+00 -0.15202364000E+04  0.15202364000E+04  0.25500000000E-02 0. -1.
    8880022    1    1    2    0    0 -0.97055056063E+02 -0.90724178013E+02 -0.14652274179E+04  0.14791665219E+04  0.15294330000E+03 0.  0.
    8880022    1    1    2    0    0  0.97055056063E+02  0.90724178013E+02  0.16554664557E+03  0.26162550575E+03  0.15294330000E+03 0.  1.
<mgrwt>
<rscale>  0 0.20258878E+03</rscale>
<asrwt>0</asrwt>
<pdfrwt beam="1">  1        2 0.23388252E+00 0.20258878E+03</pdfrwt>
<pdfrwt beam="2">  1       -2 0.33931636E-01 0.20258878E+03</pdfrwt>
<totfact> 0.11179336E+02</totfact>
</mgrwt>
</event>
<event>
 4    1  0.4840632E-008  0.7467649E+03  0.7818608E-02  0.9640439E-01
          2   -1    0    0  501    0  0.00000000000E+00  0.00000000000E+00  0.15642265362E+04  0.15642265362E+04  0.25500000000E-02 0. -1.
         -2   -1    0    0    0  501 -0.00000000000E+00 -0.00000000000E+00 -0.35659000087E+03  0.35659000088E+03  0.25500000000E-02 0.  1.
    8880022    1    1    2    0    0 -0.37502720321E+03 -0.62739204778E+03  0.61846357004E+03  0.96961591636E+03  0.15294330000E+03 0.  1.
    8880022    1    1    2    0    0  0.37502720321E+03  0.62739204778E+03  0.58917296524E+03  0.95120062067E+03  0.15294330000E+03 0. -1.
<mgrwt>
<rscale>  0 0.74676491E+03</rscale>
<asrwt>0</asrwt>
<pdfrwt beam="1">  1        2 0.24065023E+00 0.74676491E+03</pdfrwt>
<pdfrwt beam="2">  1       -2 0.54860002E-01 0.74676491E+03</pdfrwt>
<totfact> 0.37383150E+01</totfact>
</mgrwt>
</event>
<event>
 4    1  0.4840632E-008  0.1393007E+04  0.7818608E-02  0.8958896E-01
          2   -1    0    0  501    0  0.00000000000E+00  0.00000000000E+00  0.20391746126E+04  0.20391746126E+04  0.25500000000E-02 0. -1.
         -2   -1    0    0    0  501 -0.00000000000E+00 -0.00000000000E+00 -0.11537834436E+04  0.11537834436E+04  0.25500000000E-02 0.  1.
    8880022    1    1    2    0    0 -0.13199659309E+04 -0.41805209962E+03  0.11110068083E+04  0.17817983606E+04  0.15294330000E+03 0.  0.
    8880022    1    1    2    0    0  0.13199659309E+04  0.41805209962E+03 -0.22561563928E+03  0.14111596956E+04  0.15294330000E+03 0.  0.
<mgrwt>
<rscale>  0 0.13930073E+04</rscale>
<asrwt>0</asrwt>
<pdfrwt beam="1">  1        2 0.31371917E+00 0.13930073E+04</pdfrwt>
<pdfrwt beam="2">  1       -2 0.17750515E+00 0.13930073E+04</pdfrwt>
<totfact> 0.11406265E+00</totfact>
</mgrwt>
</event>
<event>
 4    1  0.4840632E-008  0.2567740E+03  0.7818608E-02  0.1109097E+00
          2   -1    0    0  501    0  0.00000000000E+00  0.00000000000E+00  0.13148402332E+04  0.13148402332E+04  0.25500000000E-02 0. -1.
         -2   -1    0    0    0  501 -0.00000000000E+00 -0.00000000000E+00 -0.56633709472E+02  0.56633709529E+02  0.25500000000E-02 0.  1.
    8880022    1    1    2    0    0  0.15369335073E+03 -0.13754855621E+03  0.39699366627E+03  0.47279686489E+03  0.15294330000E+03 0.  0.
    8880022    1    1    2    0    0 -0.15369335073E+03  0.13754855621E+03  0.86121285741E+03  0.89867707780E+03  0.15294330000E+03 0.  0.
<mgrwt>
<rscale>  0 0.25677403E+03</rscale>
<asrwt>0</asrwt>
<pdfrwt beam="1">  1        2 0.20228309E+00 0.25677403E+03</pdfrwt>
<pdfrwt beam="2">  1       -2 0.87128795E-02 0.25677403E+03</pdfrwt>
<totfact> 0.14245382E+03</totfact>
</mgrwt>
</event>
<event>
 4    1  0.4840632E-008  0.3110584E+03  0.7818608E-02  0.1079840E+00
          2   -1    0    0  501    0  0.00000000000E+00  0.00000000000E+00  0.11324847650E+04  0.11324847650E+04  0.25500000000E-02 0. -1.
         -2   -1    0    0    0  501 -0.00000000000E+00 -0.00000000000E+00 -0.58283084769E+03  0.58283084770E+03  0.25500000000E-02 0.  1.
    8880022    1    1    2    0    0 -0.26988766092E+03 -0.22942355996E+02  0.10671321498E+04  0.11115432423E+04  0.15294330000E+03 0.  0.
    8880022    1    1    2    0    0  0.26988766092E+03  0.22942355996E+02 -0.51747823249E+03  0.60377237046E+03  0.15294330000E+03 0.  0.
<mgrwt>
<rscale>  0 0.31105844E+03</rscale>
<asrwt>0</asrwt>
<pdfrwt beam="1">  1        2 0.17422842E+00 0.31105844E+03</pdfrwt>
<pdfrwt beam="2">  1       -2 0.89666285E-01 0.31105844E+03</pdfrwt>
<totfact> 0.24245105E+01</totfact>
</mgrwt>
</event>
<event>
 4    1  0.4840632E-008  0.1856198E+04  0.7818608E-02  0.8676972E-01
          2   -1    0    0  501    0  0.00000000000E+00  0.00000000000E+00  0.34165721595E+04  0.34165721595E+04  0.25500000000E-02 0. -1.
         -2   -1    0    0    0  501 -0.00000000000E+00 -0.00000000000E+00 -0.11255086224E+04  0.11255086224E+04  0.25500000000E-02 0.  1.
    8880022    1    1    2    0    0  0.42144408217E+02 -0.18494062116E+04  0.41315184088E+03  0.19016218297E+04  0.15294330000E+03 0.  0.
    8880022    1    1    2    0    0 -0.42144408217E+02  0.18494062116E+04  0.18779116962E+04  0.26404589522E+04  0.15294330000E+03 0.  0.
<mgrwt>
<rscale>  0 0.18561980E+04</rscale>
<asrwt>0</asrwt>
<pdfrwt beam="1">  1        2 0.52562648E+00 0.18561980E+04</pdfrwt>
<pdfrwt beam="2">  1       -2 0.17315517E+00 0.18561980E+04</pdfrwt>
<totfact> 0.17130179E-01</totfact>
</mgrwt>
</event>
<event>
 4    1  0.4840632E-008  0.1603173E+03  0.7818608E-02  0.1188339E+00
          2   -1    0    0  501    0  0.00000000000E+00  0.00000000000E+00  0.61149206464E+03  0.61149206465E+03  0.25500000000E-02 0. -1.
         -2   -1    0    0    0  501 -0.00000000000E+00 -0.00000000000E+00 -0.40250862572E+03  0.40250862573E+03  0.25500000000E-02 0.  1.
    8880022    1    1    2    0    0  0.20272517240E+02 -0.43577529234E+02  0.58429124058E+03  0.60588603123E+03  0.15294330000E+03 0.  0.
    8880022    1    1    2    0    0 -0.20272517240E+02  0.43577529234E+02 -0.37530780166E+03  0.40811465915E+03  0.15294330000E+03 0.  1.
<mgrwt>
<rscale>  0 0.16031728E+03</rscale>
<asrwt>0</asrwt>
<pdfrwt beam="1">  1        2 0.94075702E-01 0.16031728E+03</pdfrwt>
<pdfrwt beam="2">  1       -2 0.61924404E-01 0.16031728E+03</pdfrwt>
<totfact> 0.12587123E+02</totfact>
</mgrwt>
</event>
<event>
 4    1  0.4840632E-008  0.2212278E+03  0.7818608E-02  0.1132971E+00
         -2   -1    0    0    0  501 -0.00000000000E+00  0.00000000000E+00  0.40351550053E+03  0.40351550054E+03  0.25500000000E-02 0.  1.
          2   -1    0    0  501    0  0.00000000000E+00 -0.00000000000E+00 -0.21623814750E+04  0.21623814750E+04  0.25500000000E-02 0. -1.
    8880022    1    1    2    0    0 -0.15318163408E+03  0.45667012350E+02  0.36701588697E+03  0.42853518332E+03  0.15294330000E+03 0.  0.
    8880022    1    1    2    0    0  0.15318163408E+03 -0.45667012350E+02 -0.21258818614E+04  0.21373617922E+04  0.15294330000E+03 0. -1.
<mgrwt>
<rscale>  0 0.22122781E+03</rscale>
<asrwt>0</asrwt>
<pdfrwt beam="1">  1        2 0.33267407E+00 0.22122781E+03</pdfrwt>
<pdfrwt beam="2">  1       -2 0.62079309E-01 0.22122781E+03</pdfrwt>
<totfact> 0.15639050E+01</totfact>
</mgrwt>
</event>
<event>
 4    1  0.4840632E-008  0.7042434E+03  0.7818608E-02  0.9710003E-01
         -2   -1    0    0    0  501 -0.00000000000E+00  0.00000000000E+00  0.89377576489E+03  0.89377576490E+03  0.25500000000E-02 0.  1.
          2   -1    0    0  501    0  0.00000000000E+00 -0.00000000000E+00 -0.14199848533E+04  0.14199848533E+04  0.25500000000E-02 0. -1.
    8880022    1    1    2    0    0 -0.56467647985E+03  0.39205564853E+03  0.63986933190E+03  0.95152066366E+03  0.15294330000E+03 0.  0.
    8880022    1    1    2    0    0  0.56467647985E+03 -0.39205564853E+03 -0.11660784203E+04  0.13622399546E+04  0.15294330000E+03 0. -1.
<mgrwt>
<rscale>  0 0.70424343E+03</rscale>
<asrwt>0</asrwt>
<pdfrwt beam="1">  1        2 0.21845921E+00 0.70424343E+03</pdfrwt>
<pdfrwt beam="2">  1       -2 0.13750396E+00 0.70424343E+03</pdfrwt>
<totfact> 0.54705193E+00</totfact>
</mgrwt>
</event>
<event>
 4    1  0.4840632E-008  0.2537098E+03  0.7818608E-02  0.1110983E+00
         -2   -1    0    0    0  501 -0.00000000000E+00  0.00000000000E+00  0.37805819460E+03  0.37805819461E+03  0.25500000000E-02 0.  1.
          2   -1    0    0  501    0  0.00000000000E+00 -0.00000000000E+00 -0.54495407731E+03  0.54495407732E+03  0.25500000000E-02 0. -1.
    8880022    1    1    2    0    0 -0.13687825459E+03 -0.14913532057E+03 -0.46612746745E+03  0.53070092269E+03  0.15294330000E+03 0.  0.
    8880022    1    1    2    0    0  0.13687825459E+03  0.14913532057E+03  0.29923158474E+03  0.39231134924E+03  0.15294330000E+03 0.  1.
<mgrwt>
<rscale>  0 0.25370978E+03</rscale>
<asrwt>0</asrwt>
<pdfrwt beam="1">  1        2 0.83839088E-01 0.25370978E+03</pdfrwt>
<pdfrwt beam="2">  1       -2 0.58162799E-01 0.25370978E+03</pdfrwt>
<totfact> 0.16111923E+02</totfact>
</mgrwt>
</event>
<event>
 4    1  0.4840632E-008  0.5796833E+03  0.7818608E-02  0.9948477E-01
         -2   -1    0    0    0  501 -0.00000000000E+00  0.00000000000E+00  0.41313689922E+03  0.41313689923E+03  0.25500000000E-02 0.  1.
          2   -1    0    0  501    0  0.00000000000E+00 -0.00000000000E+00 -0.12450167354E+04  0.12450167354E+04  0.25500000000E-02 0. -1.
    8880022    1    1    2    0    0 -0.62710220629E+02 -0.55561541680E+03 -0.90411088540E+03  0.10739875275E+04  0.15294330000E+03 0.  0.
    8880022    1    1    2    0    0  0.62710220629E+02  0.55561541680E+03  0.72231049251E+02  0.58416610707E+03  0.15294330000E+03 0.  0.
<mgrwt>
<rscale>  0 0.57968329E+03</rscale>
<asrwt>0</asrwt>
<pdfrwt beam="1">  1        2 0.19154104E+00 0.57968329E+03</pdfrwt>
<pdfrwt beam="2">  1       -2 0.63559523E-01 0.57968329E+03</pdfrwt>
<totfact> 0.42365254E+01</totfact>
</mgrwt>
</event>
<event>
 4    1  0.4840632E-008  0.4688491E+03  0.7818608E-02  0.1022246E+00
          2   -1    0    0  501    0  0.00000000000E+00  0.00000000000E+00  0.13733747075E+04  0.13733747075E+04  0.25500000000E-02 0. -1.
         -2   -1    0    0    0  501 -0.00000000000E+00 -0.00000000000E+00 -0.53676553540E+03  0.53676553541E+03  0.25500000000E-02 0.  1.
    8880022    1    1    2    0    0 -0.37734580569E+03 -0.23246071181E+03  0.12184062063E+04  0.13055011207E+04  0.15294330000E+03 0.  0.
    8880022    1    1    2    0    0  0.37734580569E+03  0.23246071181E+03 -0.38179703428E+03  0.60463912213E+03  0.15294330000E+03 0.  0.
<mgrwt>
<rscale>  0 0.46884911E+03</rscale>
<asrwt>0</asrwt>
<pdfrwt beam="1">  1        2 0.21128842E+00 0.46884911E+03</pdfrwt>
<pdfrwt beam="2">  1       -2 0.82579313E-01 0.46884911E+03</pdfrwt>
<totfact> 0.20550601E+01</totfact>
</mgrwt>
</event>
<event>
 4    1  0.4840632E-008  0.3088707E+03  0.7818608E-02  0.1080888E+00
          2   -1    0    0  501    0  0.00000000000E+00  0.00000000000E+00  0.23350814206E+04  0.23350814206E+04  0.25500000000E-02 0. -1.
         -2   -1    0    0    0  501 -0.00000000000E+00 -0.00000000000E+00 -0.45961972129E+02  0.45961972200E+02  0.25500000000E-02 0.  1.
    8880022    1    1    2    0    0 -0.80708367685E+02  0.25592109761E+03  0.74773827264E+03  0.80902016427E+03  0.15294330000E+03 0.  0.
    8880022    1    1    2    0    0  0.80708367685E+02 -0.25592109761E+03  0.15413811759E+04  0.15720232286E+04  0.15294330000E+03 0.  0.
<mgrwt>
<rscale>  0 0.30887069E+03</rscale>
<asrwt>0</asrwt>
<pdfrwt beam="1">  1        2 0.35924323E+00 0.30887069E+03</pdfrwt>
<pdfrwt beam="2">  1       -2 0.70710739E-02 0.30887069E+03</pdfrwt>
<totfact> 0.56207187E+02</totfact>
</mgrwt>
</event>
<event>
 4    1  0.4840632E-008  0.2368075E+03  0.7818608E-02  0.1121938E+00
          2   -1    0    0  501    0  0.00000000000E+00  0.00000000000E+00  0.10848768535E+04  0.10848768535E+04  0.25500000000E-02 0. -1.
         -2   -1    0    0    0  501 -0.00000000000E+00 -0.00000000000E+00 -0.37404238979E+03  0.37404238979E+03  0.25500000000E-02 0.  1.
    8880022    1    1    2    0    0  0.23414674204E+02 -0.17927042781E+03  0.10326001290E+04  0.10594058772E+04  0.15294330000E+03 0. -1.
    8880022    1    1    2    0    0 -0.23414674204E+02  0.17927042781E+03 -0.32176566532E+03  0.39951336605E+03  0.15294330000E+03 0.  0.
<mgrwt>
<rscale>  0 0.23680749E+03</rscale>
<asrwt>0</asrwt>
<pdfrwt beam="1">  1        2 0.16690413E+00 0.23680749E+03</pdfrwt>
<pdfrwt beam="2">  1       -2 0.57544984E-01 0.23680749E+03</pdfrwt>
<totfact> 0.68817297E+01</totfact>
</mgrwt>
</event>
<event>
 4    1  0.4961428E-008  0.9573594E+03  0.7818608E-02  0.9356590E-01
          2   -1    0    0  501    0  0.00000000000E+00  0.00000000000E+00  0.11543243111E+04  0.11543243111E+04  0.25500000000E-02 0. -1.
         -2   -1    0    0    0  501 -0.00000000000E+00 -0.00000000000E+00 -0.16587739358E+04  0.16587739358E+04  0.25500000000E-02 0.  1.
    8880022    1    1    2    0    0 -0.76353600731E+03 -0.55691847882E+03 -0.12677993899E+04  0.15886637066E+04  0.15294330000E+03 0.  0.
    8880022    1    1    2    0    0  0.76353600731E+03  0.55691847882E+03  0.76334976522E+03  0.12244345403E+04  0.15294330000E+03 0.  0.
<mgrwt>
<rscale>  0 0.95735943E+03</rscale>
<asrwt>0</asrwt>
<pdfrwt beam="1">  1        2 0.17758836E+00 0.95735943E+03</pdfrwt>
<pdfrwt beam="2">  1       -2 0.25519599E+00 0.95735943E+03</pdfrwt>
<totfact> 0.12089928E+00</totfact>
</mgrwt>
</event>
<event>
 4    1  0.4840632E-008  0.4772999E+03  0.7818608E-02  0.1019880E+00
         -2   -1    0    0    0  501 -0.00000000000E+00  0.00000000000E+00  0.63013951687E+03  0.63013951688E+03  0.25500000000E-02 0.  1.
          2   -1    0    0  501    0  0.00000000000E+00 -0.00000000000E+00 -0.71111867045E+03  0.71111867046E+03  0.25500000000E-02 0. -1.
    8880022    1    1    2    0    0  0.26689407934E+03  0.36495353572E+03  0.42971753153E+03  0.64224009743E+03  0.15294330000E+03 0.  0.
    8880022    1    1    2    0    0 -0.26689407934E+03 -0.36495353572E+03 -0.51069668511E+03  0.69901808991E+03  0.15294330000E+03 0.  0.
<mgrwt>
<rscale>  0 0.47729989E+03</rscale>
<asrwt>0</asrwt>
<pdfrwt beam="1">  1        2 0.10940287E+00 0.47729989E+03</pdfrwt>
<pdfrwt beam="2">  1       -2 0.96944541E-01 0.47729989E+03</pdfrwt>
<totfact> 0.37182069E+01</totfact>
</mgrwt>
</event>
<event>
 4    1  0.4840632E-008  0.2706561E+03  0.7818608E-02  0.1100905E+00
          2   -1    0    0  501    0  0.00000000000E+00  0.00000000000E+00  0.59062013679E+03  0.59062013679E+03  0.25500000000E-02 0. -1.
         -2   -1    0    0    0  501 -0.00000000000E+00 -0.00000000000E+00 -0.73082824813E+03  0.73082824813E+03  0.25500000000E-02 0.  1.
    8880022    1    1    2    0    0 -0.15460490627E+03  0.16112233427E+03  0.53194881550E+03  0.59684527221E+03  0.15294330000E+03 0.  0.
    8880022    1    1    2    0    0  0.15460490627E+03 -0.16112233427E+03 -0.67215692683E+03  0.72460311271E+03  0.15294330000E+03 0.  1.
<mgrwt>
<rscale>  0 0.27065612E+03</rscale>
<asrwt>0</asrwt>
<pdfrwt beam="1">  1        2 0.90864636E-01 0.27065612E+03</pdfrwt>
<pdfrwt beam="2">  1       -2 0.11243512E+00 0.27065612E+03</pdfrwt>
<totfact> 0.33867371E+01</totfact>
</mgrwt>
</event>
<event>
 4    1  0.4840632E-008  0.1959721E+03  0.7818608E-02  0.1153183E+00
          2   -1    0    0  501    0  0.00000000000E+00  0.00000000000E+00  0.30600608401E+04  0.30600608401E+04  0.25500000000E-02 0. -1.
         -2   -1    0    0    0  501 -0.00000000000E+00 -0.00000000000E+00 -0.58564282864E+02  0.58564282919E+02  0.25500000000E-02 0.  1.
    8880022    1    1    2    0    0 -0.46982976607E+02  0.11316364499E+03  0.28829170830E+04  0.28895702052E+04  0.15294330000E+03 0. -1.
    8880022    1    1    2    0    0  0.46982976607E+02 -0.11316364499E+03  0.11857947428E+03  0.22905491781E+03  0.15294330000E+03 0.  0.
<mgrwt>
<rscale>  0 0.19597210E+03</rscale>
<asrwt>0</asrwt>
<pdfrwt beam="1">  1        2 0.47077864E+00 0.19597210E+03</pdfrwt>
<pdfrwt beam="2">  1       -2 0.90098888E-02 0.19597210E+03</pdfrwt>
<totfact> 0.15522343E+02</totfact>
</mgrwt>
</event>
<event>
 4    1  0.4840632E-008  0.3304025E+03  0.7818608E-02  0.1070959E+00
         -2   -1    0    0    0  501 -0.00000000000E+00  0.00000000000E+00  0.59762995826E+03  0.59762995826E+03  0.25500000000E-02 0.  1.
          2   -1    0    0  501    0  0.00000000000E+00 -0.00000000000E+00 -0.77947519439E+03  0.77947519440E+03  0.25500000000E-02 0. -1.
    8880022    1    1    2    0    0  0.29065771023E+03 -0.35947796873E+02  0.51157348440E+03  0.60899362195E+03  0.15294330000E+03 0.  0.
    8880022    1    1    2    0    0 -0.29065771023E+03  0.35947796873E+02 -0.69341872053E+03  0.76811153071E+03  0.15294330000E+03 0.  0.
<mgrwt>
<rscale>  0 0.33040248E+03</rscale>
<asrwt>0</asrwt>
<pdfrwt beam="1">  1        2 0.11991926E+00 0.33040248E+03</pdfrwt>
<pdfrwt beam="2">  1       -2 0.91943070E-01 0.33040248E+03</pdfrwt>
<totfact> 0.38285258E+01</totfact>
</mgrwt>
</event>
<event>
 4    1  0.4840632E-008  0.3606790E+03  0.7818608E-02  0.1058315E+00
         -2   -1    0    0    0  501 -0.00000000000E+00  0.00000000000E+00  0.65343839348E+03  0.65343839349E+03  0.25500000000E-02 0.  1.
          2   -1    0    0  501    0  0.00000000000E+00 -0.00000000000E+00 -0.70646170492E+03  0.70646170492E+03  0.25500000000E-02 0. -1.
    8880022    1    1    2    0    0  0.23442345286E+03 -0.22747161456E+03  0.54972150382E+03  0.65748237653E+03  0.15294330000E+03 0.  0.
    8880022    1    1    2    0    0 -0.23442345286E+03  0.22747161456E+03 -0.60274481525E+03  0.70241772188E+03  0.15294330000E+03 0. -1.
<mgrwt>
<rscale>  0 0.36067900E+03</rscale>
<asrwt>0</asrwt>
<pdfrwt beam="1">  1        2 0.10868642E+00 0.36067900E+03</pdfrwt>
<pdfrwt beam="2">  1       -2 0.10052898E+00 0.36067900E+03</pdfrwt>
<totfact> 0.35031938E+01</totfact>
</mgrwt>
</event>
<event>
 4    1  0.4840632E-008  0.6659014E+03  0.7818608E-02  0.9777390E-01
         -2   -1    0    0    0  501 -0.00000000000E+00  0.00000000000E+00  0.84941352821E+03  0.84941352822E+03  0.25500000000E-02 0.  1.
          2   -1    0    0  501    0  0.00000000000E+00 -0.00000000000E+00 -0.99737870218E+03  0.99737870219E+03  0.25500000000E-02 0. -1.
    8880022    1    1    2    0    0 -0.23226413251E+00  0.64809950133E+03  0.56348967121E+03  0.87232177558E+03  0.15294330000E+03 0.  0.
    8880022    1    1    2    0    0  0.23226413251E+00 -0.64809950133E+03 -0.71145484519E+03  0.97447045482E+03  0.15294330000E+03 0.  0.
<mgrwt>
<rscale>  0 0.66590140E+03</rscale>
<asrwt>0</asrwt>
<pdfrwt beam="1">  1        2 0.15344288E+00 0.66590140E+03</pdfrwt>
<pdfrwt beam="2">  1       -2 0.13067901E+00 0.66590140E+03</pdfrwt>
<totfact> 0.11141608E+01</totfact>
</mgrwt>
</event>
<event>
 4    1  0.4840632E-008  0.9898443E+03  0.7818608E-02  0.9319754E-01
          2   -1    0    0  501    0  0.00000000000E+00  0.00000000000E+00  0.19842419543E+04  0.19842419543E+04  0.25500000000E-02 0. -1.
         -2   -1    0    0    0  501 -0.00000000000E+00 -0.00000000000E+00 -0.58724722134E+03  0.58724722134E+03  0.25500000000E-02 0.  1.
    8880022    1    1    2    0    0 -0.92493954884E+03 -0.31762689277E+03  0.12114284843E+04  0.15644010476E+04  0.15294330000E+03 0.  0.
    8880022    1    1    2    0    0  0.92493954884E+03  0.31762689277E+03  0.18556624863E+03  0.10070881281E+04  0.15294330000E+03 0.  0.
<mgrwt>
<rscale>  0 0.98984426E+03</rscale>
<asrwt>0</asrwt>
<pdfrwt beam="1">  1        2 0.30526800E+00 0.98984426E+03</pdfrwt>
<pdfrwt beam="2">  1       -2 0.90345725E-01 0.98984426E+03</pdfrwt>
<totfact> 0.71575387E+00</totfact>
</mgrwt>
</event>
<event>
 4    1  0.4840632E-008  0.7537725E+03  0.7818608E-02  0.9629450E-01
          2   -1    0    0  501    0  0.00000000000E+00  0.00000000000E+00  0.14130683912E+04  0.14130683912E+04  0.25500000000E-02 0. -1.
         -2   -1    0    0    0  501 -0.00000000000E+00 -0.00000000000E+00 -0.67207094117E+03  0.67207094118E+03  0.25500000000E-02 0.  1.
    8880022    1    1    2    0    0  0.73671141572E+03 -0.45139531363E+02  0.10312963581E+04  0.12773977918E+04  0.15294330000E+03 0.  0.
    8880022    1    1    2    0    0 -0.73671141572E+03  0.45139531363E+02 -0.29029890803E+03  0.80774154057E+03  0.15294330000E+03 0.  0.
<mgrwt>
<rscale>  0 0.75377247E+03</rscale>
<asrwt>0</asrwt>
<pdfrwt beam="1">  1        2 0.21739513E+00 0.75377247E+03</pdfrwt>
<pdfrwt beam="2">  1       -2 0.10339553E+00 0.75377247E+03</pdfrwt>
<totfact> 0.11093354E+01</totfact>
</mgrwt>
</event>
<event>
 4    1  0.4840632E-008  0.3762007E+03  0.7818608E-02  0.1052347E+00
         -2   -1    0    0    0  501 -0.00000000000E+00  0.00000000000E+00  0.25986642839E+03  0.25986642840E+03  0.25500000000E-02 0.  1.
          2   -1    0    0  501    0  0.00000000000E+00 -0.00000000000E+00 -0.29078191349E+04  0.29078191349E+04  0.25500000000E-02 0. -1.
    8880022    1    1    2    0    0 -0.34269960185E+03  0.26311388882E+02  0.10386206344E+03  0.39027463091E+03  0.15294330000E+03 0.  1.
    8880022    1    1    2    0    0  0.34269960185E+03 -0.26311388882E+02 -0.27518147699E+04  0.27774109324E+04  0.15294330000E+03 0.  0.
<mgrwt>
<rscale>  0 0.37620069E+03</rscale>
<asrwt>0</asrwt>
<pdfrwt beam="1">  1        2 0.44735677E+00 0.37620069E+03</pdfrwt>
<pdfrwt beam="2">  1       -2 0.39979453E-01 0.37620069E+03</pdfrwt>
<totfact> 0.13649967E+01</totfact>
</mgrwt>
</event>
<event>
 4    1  0.4840632E-008  0.3632107E+03  0.7818608E-02  0.1057320E+00
         -2   -1    0    0    0  501 -0.00000000000E+00  0.00000000000E+00  0.26394885966E+03  0.26394885967E+03  0.25500000000E-02 0.  1.
          2   -1    0    0  501    0  0.00000000000E+00 -0.00000000000E+00 -0.11954772097E+04  0.11954772097E+04  0.25500000000E-02 0. -1.
    8880022    1    1    2    0    0  0.30243102850E+03 -0.13063612986E+03 -0.10224176715E+04  0.10850160706E+04  0.15294330000E+03 0.  0.
    8880022    1    1    2    0    0 -0.30243102850E+03  0.13063612986E+03  0.90889321460E+02  0.37440999879E+03  0.15294330000E+03 0.  0.
<mgrwt>
<rscale>  0 0.36321065E+03</rscale>
<asrwt>0</asrwt>
<pdfrwt beam="1">  1        2 0.18391957E+00 0.36321065E+03</pdfrwt>
<pdfrwt beam="2">  1       -2 0.40607518E-01 0.36321065E+03</pdfrwt>
<totfact> 0.11581213E+02</totfact>
</mgrwt>
</event>
<event>
 4    1  0.4840632E-008  0.1865418E+03  0.7818608E-02  0.1161618E+00
         -2   -1    0    0    0  501 -0.00000000000E+00  0.00000000000E+00  0.86897329354E+02  0.86897329391E+02  0.25500000000E-02 0.  1.
          2   -1    0    0  501    0  0.00000000000E+00 -0.00000000000E+00 -0.66819333228E+03  0.66819333228E+03  0.25500000000E-02 0. -1.
    8880022    1    1    2    0    0 -0.49450397465E+02  0.94661687977E+02 -0.52963775722E+03  0.56152825741E+03  0.15294330000E+03 0. -1.
    8880022    1    1    2    0    0  0.49450397465E+02 -0.94661687977E+02 -0.51658245700E+02  0.19356240426E+03  0.15294330000E+03 0.  0.
<mgrwt>
<rscale>  0 0.18654176E+03</rscale>
<asrwt>0</asrwt>
<pdfrwt beam="1">  1        2 0.10279897E+00 0.18654176E+03</pdfrwt>
<pdfrwt beam="2">  1       -2 0.13368820E-01 0.18654176E+03</pdfrwt>
<totfact> 0.18269751E+03</totfact>
</mgrwt>
</event>
<event>
 4    1  0.4840632E-008  0.4931617E+03  0.7818608E-02  0.1015579E+00
          2   -1    0    0  501    0  0.00000000000E+00  0.00000000000E+00  0.24899286001E+03  0.24899286002E+03  0.25500000000E-02 0. -1.
         -2   -1    0    0    0  501 -0.00000000000E+00 -0.00000000000E+00 -0.11776903478E+04  0.11776903478E+04  0.25500000000E-02 0.  1.
    8880022    1    1    2    0    0  0.32041787141E+03  0.34227065497E+03 -0.75899112282E+03  0.90513865850E+03  0.15294330000E+03 0.  0.
    8880022    1    1    2    0    0 -0.32041787141E+03 -0.34227065497E+03 -0.16970636492E+03  0.52154454928E+03  0.15294330000E+03 0.  0.
<mgrwt>
<rscale>  0 0.49316170E+03</rscale>
<asrwt>0</asrwt>
<pdfrwt beam="1">  1        2 0.38306594E-01 0.49316170E+03</pdfrwt>
<pdfrwt beam="2">  1       -2 0.18118313E+00 0.49316170E+03</pdfrwt>
<totfact> 0.24976572E+01</totfact>
</mgrwt>
</event>
<event>
 4    1  0.4840632E-008  0.7637792E+03  0.7818608E-02  0.9613978E-01
         -2   -1    0    0    0  501 -0.00000000000E+00  0.00000000000E+00  0.50739044635E+03  0.50739044636E+03  0.25500000000E-02 0.  1.
          2   -1    0    0  501    0  0.00000000000E+00 -0.00000000000E+00 -0.14407965147E+04  0.14407965147E+04  0.25500000000E-02 0. -1.
    8880022    1    1    2    0    0 -0.74830907171E+03 -0.77180202783E+00 -0.28878302217E+02  0.76432497789E+03  0.15294330000E+03 0.  0.
    8880022    1    1    2    0    0  0.74830907171E+03  0.77180202783E+00 -0.90452776616E+03  0.11838619832E+04  0.15294330000E+03 0.  0.
<mgrwt>
<rscale>  0 0.76377923E+03</rscale>
<asrwt>0</asrwt>
<pdfrwt beam="1">  1        2 0.22166100E+00 0.76377923E+03</pdfrwt>
<pdfrwt beam="2">  1       -2 0.78060069E-01 0.76377923E+03</pdfrwt>
<totfact> 0.20456998E+01</totfact>
</mgrwt>
</event>
<event>
 4    1  0.4840632E-008  0.9488574E+03  0.7818608E-02  0.9366487E-01
         -2   -1    0    0    0  501 -0.00000000000E+00  0.00000000000E+00  0.65165528427E+03  0.65165528428E+03  0.25500000000E-02 0.  1.
          2   -1    0    0  501    0  0.00000000000E+00 -0.00000000000E+00 -0.14812328180E+04  0.14812328180E+04  0.25500000000E-02 0. -1.
    8880022    1    1    2    0    0  0.93564713029E+03  0.38769536494E+02 -0.69136601027E+03  0.11740175648E+04  0.15294330000E+03 0.  0.
    8880022    1    1    2    0    0 -0.93564713029E+03 -0.38769536494E+02 -0.13821152348E+03  0.95887053746E+03  0.15294330000E+03 0.  0.
<mgrwt>
<rscale>  0 0.94885736E+03</rscale>
<asrwt>0</asrwt>
<pdfrwt beam="1">  1        2 0.22788197E+00 0.94885736E+03</pdfrwt>
<pdfrwt beam="2">  1       -2 0.10025466E+00 0.94885736E+03</pdfrwt>
<totfact> 0.10685802E+01</totfact>
</mgrwt>
</event>
<event>
 4    1  0.4840632E-008  0.3019388E+03  0.7818608E-02  0.1084275E+00
          2   -1    0    0  501    0  0.00000000000E+00  0.00000000000E+00  0.49495956533E+03  0.49495956534E+03  0.25500000000E-02 0. -1.
         -2   -1    0    0    0  501 -0.00000000000E+00 -0.00000000000E+00 -0.19706480127E+04  0.19706480127E+04  0.25500000000E-02 0.  1.
    8880022    1    1    2    0    0  0.17614743914E+03 -0.19169626401E+03  0.43593314600E+03  0.53028741145E+03  0.15294330000E+03 0. -1.
    8880022    1    1    2    0    0 -0.17614743914E+03  0.19169626401E+03 -0.19116215933E+04  0.19353201666E+04  0.15294330000E+03 0.  0.
<mgrwt>
<rscale>  0 0.30193879E+03</rscale>
<asrwt>0</asrwt>
<pdfrwt beam="1">  1        2 0.76147627E-01 0.30193879E+03</pdfrwt>
<pdfrwt beam="2">  1       -2 0.30317661E+00 0.30193879E+03</pdfrwt>
<totfact> 0.22032293E+00</totfact>
</mgrwt>
</event>
<event>
 4    1  0.4840632E-008  0.9442993E+03  0.7818608E-02  0.9371839E-01
          2   -1    0    0  501    0  0.00000000000E+00  0.00000000000E+00  0.12019577758E+04  0.12019577758E+04  0.25500000000E-02 0. -1.
         -2   -1    0    0    0  501 -0.00000000000E+00 -0.00000000000E+00 -0.91644869180E+03  0.91644869181E+03  0.25500000000E-02 0.  1.
    8880022    1    1    2    0    0  0.50096745698E+03  0.78571063476E+03  0.60504596588E+03  0.11215087465E+04  0.15294330000E+03 0.  0.
    8880022    1    1    2    0    0 -0.50096745698E+03 -0.78571063476E+03 -0.31953688189E+03  0.99689772115E+03  0.15294330000E+03 0. -1.
<mgrwt>
<rscale>  0 0.94429934E+03</rscale>
<asrwt>0</asrwt>
<pdfrwt beam="1">  1        2 0.18491658E+00 0.94429934E+03</pdfrwt>
<pdfrwt beam="2">  1       -2 0.14099211E+00 0.94429934E+03</pdfrwt>
<totfact> 0.66432801E+00</totfact>
</mgrwt>
</event>
<event>
 4    1  0.4840632E-008  0.3282234E+03  0.7818608E-02  0.1071926E+00
         -2   -1    0    0    0  501 -0.00000000000E+00  0.00000000000E+00  0.51820643424E+02  0.51820643487E+02  0.25500000000E-02 0.  1.
          2   -1    0    0  501    0  0.00000000000E+00 -0.00000000000E+00 -0.27689041316E+04  0.27689041316E+04  0.25500000000E-02 0. -1.
    8880022    1    1    2    0    0 -0.19484814601E+03  0.21534420683E+03 -0.65449954990E+03  0.73218866507E+03  0.15294330000E+03 0.  0.
    8880022    1    1    2    0    0  0.19484814601E+03 -0.21534420683E+03 -0.20625839383E+04  0.20885361100E+04  0.15294330000E+03 0.  0.
<mgrwt>
<rscale>  0 0.32822337E+03</rscale>
<asrwt>0</asrwt>
<pdfrwt beam="1">  1        2 0.42598513E+00 0.32822337E+03</pdfrwt>
<pdfrwt beam="2">  1       -2 0.79724089E-02 0.32822337E+03</pdfrwt>
<totfact> 0.26629840E+02</totfact>
</mgrwt>
</event>
<event>
 4    1  0.4840632E-008  0.4725097E+03  0.7818608E-02  0.1021214E+00
          2   -1    0    0  501    0  0.00000000000E+00  0.00000000000E+00  0.71551605346E+03  0.71551605347E+03  0.25500000000E-02 0. -1.
         -2   -1    0    0    0  501 -0.00000000000E+00 -0.00000000000E+00 -0.93655487379E+03  0.93655487379E+03  0.25500000000E-02 0.  1.
    8880022    1    1    2    0    0  0.10203233154E+03 -0.43527369825E+03  0.56401717047E+03  0.73578584566E+03  0.15294330000E+03 0. -1.
    8880022    1    1    2    0    0 -0.10203233154E+03  0.43527369825E+03 -0.78505599080E+03  0.91628508160E+03  0.15294330000E+03 0.  0.
<mgrwt>
<rscale>  0 0.47250973E+03</rscale>
<asrwt>0</asrwt>
<pdfrwt beam="1">  1        2 0.11007939E+00 0.47250973E+03</pdfrwt>
<pdfrwt beam="2">  1       -2 0.14408537E+00 0.47250973E+03</pdfrwt>
<totfact> 0.13966243E+01</totfact>
</mgrwt>
</event>
<event>
 4    1  0.4840632E-008  0.3659307E+03  0.7818608E-02  0.1056260E+00
          2   -1    0    0  501    0  0.00000000000E+00  0.00000000000E+00  0.13277511111E+04  0.13277511111E+04  0.25500000000E-02 0. -1.
         -2   -1    0    0    0  501 -0.00000000000E+00 -0.00000000000E+00 -0.21244271719E+03  0.21244271720E+03  0.25500000000E-02 0.  1.
    8880022    1    1    2    0    0 -0.26371605797E+03  0.20240416568E+03  0.11157902808E+04  0.11742628365E+04  0.15294330000E+03 0.  0.
    8880022    1    1    2    0    0  0.26371605797E+03 -0.20240416568E+03 -0.48188688048E+00  0.36593099178E+03  0.15294330000E+03 0.  0.
<mgrwt>
<rscale>  0 0.36593067E+03</rscale>
<asrwt>0</asrwt>
<pdfrwt beam="1">  1        2 0.20426940E+00 0.36593067E+03</pdfrwt>
<pdfrwt beam="2">  1       -2 0.32683495E-01 0.36593067E+03</pdfrwt>
<totfact> 0.14696626E+02</totfact>
</mgrwt>
</event>
<event>
 4    1  0.4840632E-008  0.5710516E+03  0.7818608E-02  0.9967354E-01
          2   -1    0    0  501    0  0.00000000000E+00  0.00000000000E+00  0.48747108642E+03  0.48747108642E+03  0.25500000000E-02 0. -1.
         -2   -1    0    0    0  501 -0.00000000000E+00 -0.00000000000E+00 -0.80793987675E+03  0.80793987675E+03  0.25500000000E-02 0.  1.
    8880022    1    1    2    0    0 -0.24146903564E+03  0.49436925465E+03  0.10839900232E+03  0.58124887254E+03  0.15294330000E+03 0.  0.
    8880022    1    1    2    0    0  0.24146903564E+03 -0.49436925465E+03 -0.42886779265E+03  0.71416209064E+03  0.15294330000E+03 0.  0.
<mgrwt>
<rscale>  0 0.57105158E+03</rscale>
<asrwt>0</asrwt>
<pdfrwt beam="1">  1        2 0.74995552E-01 0.57105158E+03</pdfrwt>
<pdfrwt beam="2">  1       -2 0.12429844E+00 0.57105158E+03</pdfrwt>
<totfact> 0.31708067E+01</totfact>
</mgrwt>
</event>
<event>
 4    1  0.4840632E-008  0.7519593E+03  0.7818608E-02  0.9632281E-01
         -2   -1    0    0    0  501 -0.00000000000E+00  0.00000000000E+00  0.56332331499E+03  0.56332331499E+03  0.25500000000E-02 0.  1.
          2   -1    0    0  501    0  0.00000000000E+00 -0.00000000000E+00 -0.13946637938E+04  0.13946637938E+04  0.25500000000E-02 0. -1.
    8880022    1    1    2    0    0  0.68557028471E+03 -0.26841116180E+03 -0.93396715222E+03  0.11990569050E+04  0.15294330000E+03 0.  0.
    8880022    1    1    2    0    0 -0.68557028471E+03  0.26841116180E+03  0.10262667343E+03  0.75893020375E+03  0.15294330000E+03 0.  0.
<mgrwt>
<rscale>  0 0.75195932E+03</rscale>
<asrwt>0</asrwt>
<pdfrwt beam="1">  1        2 0.21456366E+00 0.75195932E+03</pdfrwt>
<pdfrwt beam="2">  1       -2 0.86665125E-01 0.75195932E+03</pdfrwt>
<totfact> 0.17168356E+01</totfact>
</mgrwt>
</event>
<event>
 4    1  0.4840632E-008  0.7826907E+03  0.7818608E-02  0.9585415E-01
         -2   -1    0    0    0  501 -0.00000000000E+00  0.00000000000E+00  0.49666009991E+03  0.49666009992E+03  0.25500000000E-02 0.  1.
          2   -1    0    0  501    0  0.00000000000E+00 -0.00000000000E+00 -0.13323192024E+04  0.13323192024E+04  0.25500000000E-02 0. -1.
    8880022    1    1    2    0    0  0.74525775826E+03 -0.18385864442E+03 -0.16870994556E+03  0.80066711318E+03  0.15294330000E+03 0.  0.
    8880022    1    1    2    0    0 -0.74525775826E+03  0.18385864442E+03 -0.66694915689E+03  0.10283121891E+04  0.15294330000E+03 0.  0.
<mgrwt>
<rscale>  0 0.78269073E+03</rscale>
<asrwt>0</asrwt>
<pdfrwt beam="1">  1        2 0.20497218E+00 0.78269073E+03</pdfrwt>
<pdfrwt beam="2">  1       -2 0.76409247E-01 0.78269073E+03</pdfrwt>
<totfact> 0.24671096E+01</totfact>
</mgrwt>
</event>
<event>
 4    1  0.4840632E-008  0.4081908E+03  0.7818608E-02  0.1040980E+00
          2   -1    0    0  501    0  0.00000000000E+00  0.00000000000E+00  0.14960128904E+04  0.14960128904E+04  0.25500000000E-02 0. -1.
         -2   -1    0    0    0  501 -0.00000000000E+00 -0.00000000000E+00 -0.24093736705E+03  0.24093736707E+03  0.25500000000E-02 0.  1.
    8880022    1    1    2    0    0 -0.16262004664E+03 -0.34173498233E+03  0.12643967633E+04  0.13286530419E+04  0.15294330000E+03 0.  0.
    8880022    1    1    2    0    0  0.16262004664E+03  0.34173498233E+03 -0.93212399333E+01  0.40829721558E+03  0.15294330000E+03 0.  0.
<mgrwt>
<rscale>  0 0.40819080E+03</rscale>
<asrwt>0</asrwt>
<pdfrwt beam="1">  1        2 0.23015583E+00 0.40819080E+03</pdfrwt>
<pdfrwt beam="2">  1       -2 0.37067287E-01 0.40819080E+03</pdfrwt>
<totfact> 0.93024404E+01</totfact>
</mgrwt>
</event>
<event>
 4    1  0.4840632E-008  0.1945267E+04  0.7818608E-02  0.8632646E-01
         -2   -1    0    0    0  501 -0.00000000000E+00  0.00000000000E+00  0.13823262793E+04  0.13823262793E+04  0.25500000000E-02 0.  1.
          2   -1    0    0  501    0  0.00000000000E+00 -0.00000000000E+00 -0.36426694487E+04  0.36426694487E+04  0.25500000000E-02 0. -1.
    8880022    1    1    2    0    0 -0.22659154907E+03  0.19259619061E+04 -0.23826494374E+04  0.30758873498E+04  0.15294330000E+03 0.  0.
    8880022    1    1    2    0    0  0.22659154907E+03 -0.19259619061E+04  0.12230626796E+03  0.19491083782E+04  0.15294330000E+03 0.  0.
<mgrwt>
<rscale>  0 0.19452672E+04</rscale>
<asrwt>0</asrwt>
<pdfrwt beam="1">  1        2 0.56041068E+00 0.19452672E+04</pdfrwt>
<pdfrwt beam="2">  1       -2 0.21266558E+00 0.19452672E+04</pdfrwt>
<totfact> 0.63563360E-02</totfact>
</mgrwt>
</event>
<event>
 4    1  0.4840632E-008  0.3494983E+03  0.7818608E-02  0.1062821E+00
          2   -1    0    0  501    0  0.00000000000E+00  0.00000000000E+00  0.41339353421E+03  0.41339353422E+03  0.25500000000E-02 0. -1.
         -2   -1    0    0    0  501 -0.00000000000E+00 -0.00000000000E+00 -0.48346273619E+03  0.48346273620E+03  0.25500000000E-02 0.  1.
    8880022    1    1    2    0    0 -0.18872647781E+03 -0.25127621221E+03 -0.31465676462E+03  0.47027433566E+03  0.15294330000E+03 0.  0.
    8880022    1    1    2    0    0  0.18872647781E+03  0.25127621221E+03  0.24458756264E+03  0.42658193476E+03  0.15294330000E+03 0.  0.
<mgrwt>
<rscale>  0 0.34949831E+03</rscale>
<asrwt>0</asrwt>
<pdfrwt beam="1">  1        2 0.63599006E-01 0.34949831E+03</pdfrwt>
<pdfrwt beam="2">  1       -2 0.74378882E-01 0.34949831E+03</pdfrwt>
<totfact> 0.12901715E+02</totfact>
</mgrwt>
</event>
<event>
 4    1  0.4840632E-008  0.4304086E+03  0.7818608E-02  0.1033731E+00
         -2   -1    0    0    0  501 -0.00000000000E+00  0.00000000000E+00  0.58746029680E+03  0.58746029681E+03  0.25500000000E-02 0.  1.
          2   -1    0    0  501    0  0.00000000000E+00 -0.00000000000E+00 -0.36491534615E+04  0.36491534615E+04  0.25500000000E-02 0. -1.
    8880022    1    1    2    0    0 -0.38050462728E+03 -0.13067570821E+03 -0.35555585844E+04  0.35815148209E+04  0.15294330000E+03 0.  0.
    8880022    1    1    2    0    0  0.38050462728E+03  0.13067570821E+03  0.49386541967E+03  0.65509893746E+03  0.15294330000E+03 0.  0.
<mgrwt>
<rscale>  0 0.43040860E+03</rscale>
<asrwt>0</asrwt>
<pdfrwt beam="1">  1        2 0.56140821E+00 0.43040860E+03</pdfrwt>
<pdfrwt beam="2">  1       -2 0.90378510E-01 0.43040860E+03</pdfrwt>
<totfact> 0.81043384E-01</totfact>
</mgrwt>
</event>
<event>
 4    1  0.4840632E-008  0.4015393E+03  0.7818608E-02  0.1043248E+00
         -2   -1    0    0    0  501 -0.00000000000E+00  0.00000000000E+00  0.36514573546E+03  0.36514573547E+03  0.25500000000E-02 0.  1.
          2   -1    0    0  501    0  0.00000000000E+00 -0.00000000000E+00 -0.93211924807E+03  0.93211924807E+03  0.25500000000E-02 0. -1.
    8880022    1    1    2    0    0  0.22970325395E+00 -0.37127098176E+03  0.18706627804E+03  0.44297589105E+03  0.15294330000E+03 0.  1.
    8880022    1    1    2    0    0 -0.22970325395E+00  0.37127098176E+03 -0.75403979065E+03  0.85428909249E+03  0.15294330000E+03 0.  0.
<mgrwt>
<rscale>  0 0.40153935E+03</rscale>
<asrwt>0</asrwt>
<pdfrwt beam="1">  1        2 0.14340296E+00 0.40153935E+03</pdfrwt>
<pdfrwt beam="2">  1       -2 0.56176267E-01 0.40153935E+03</pdfrwt>
<totfact> 0.87083745E+01</totfact>
</mgrwt>
</event>
<event>
 4    1  0.4840632E-008  0.1558876E+03  0.7818608E-02  0.1193419E+00
         -2   -1    0    0    0  501 -0.00000000000E+00  0.00000000000E+00  0.25206671468E+03  0.25206671469E+03  0.25500000000E-02 0.  1.
          2   -1    0    0  501    0  0.00000000000E+00 -0.00000000000E+00 -0.42589359909E+03  0.42589359909E+03  0.25500000000E-02 0. -1.
    8880022    1    1    2    0    0 -0.17991163045E+02  0.24199480248E+02 -0.38506886859E+03  0.41542626706E+03  0.15294330000E+03 0. -1.
    8880022    1    1    2    0    0  0.17991163045E+02 -0.24199480248E+02  0.21124198418E+03  0.26253404672E+03  0.15294330000E+03 0.  0.
<mgrwt>
<rscale>  0 0.15588762E+03</rscale>
<asrwt>0</asrwt>
<pdfrwt beam="1">  1        2 0.65522092E-01 0.15588762E+03</pdfrwt>
<pdfrwt beam="2">  1       -2 0.38779495E-01 0.15588762E+03</pdfrwt>
<totfact> 0.47467397E+02</totfact>
</mgrwt>
</event>
<event>
 4    1  0.4840632E-008  0.3307064E+03  0.7818608E-02  0.1070825E+00
         -2   -1    0    0    0  501 -0.00000000000E+00  0.00000000000E+00  0.11693558051E+03  0.11693558053E+03  0.25500000000E-02 0.  1.
          2   -1    0    0  501    0  0.00000000000E+00 -0.00000000000E+00 -0.10952861016E+04  0.10952861016E+04  0.25500000000E-02 0. -1.
    8880022    1    1    2    0    0 -0.11172502765E+03 -0.27109512687E+03 -0.25750733880E+03  0.41913808246E+03  0.15294330000E+03 0.  1.
    8880022    1    1    2    0    0  0.11172502765E+03  0.27109512687E+03 -0.72084318232E+03  0.79308359970E+03  0.15294330000E+03 0. -1.
<mgrwt>
<rscale>  0 0.33070637E+03</rscale>
<asrwt>0</asrwt>
<pdfrwt beam="1">  1        2 0.16850555E+00 0.33070637E+03</pdfrwt>
<pdfrwt beam="2">  1       -2 0.17990090E-01 0.33070637E+03</pdfrwt>
<totfact> 0.57927663E+02</totfact>
</mgrwt>
</event>
<event>
 4    1  0.4840632E-008  0.3872561E+03  0.7818608E-02  0.1048284E+00
         -2   -1    0    0    0  501 -0.00000000000E+00  0.00000000000E+00  0.13110924332E+03  0.13110924334E+03  0.25500000000E-02 0.  1.
          2   -1    0    0  501    0  0.00000000000E+00 -0.00000000000E+00 -0.19036957845E+04  0.19036957845E+04  0.25500000000E-02 0. -1.
    8880022    1    1    2    0    0  0.45037348219E+02  0.35291256065E+03 -0.24351504353E+03  0.45745695715E+03  0.15294330000E+03 0.  0.
    8880022    1    1    2    0    0 -0.45037348219E+02 -0.35291256065E+03 -0.15290714977E+04  0.15773480707E+04  0.15294330000E+03 0.  0.
<mgrwt>
<rscale>  0 0.38725611E+03</rscale>
<asrwt>0</asrwt>
<pdfrwt beam="1">  1        2 0.29287625E+00 0.38725611E+03</pdfrwt>
<pdfrwt beam="2">  1       -2 0.20170654E-01 0.38725611E+03</pdfrwt>
<totfact> 0.16996890E+02</totfact>
</mgrwt>
</event>
<event>
 4    1  0.4840632E-008  0.2326276E+03  0.7818608E-02  0.1124804E+00
          2   -1    0    0  501    0  0.00000000000E+00  0.00000000000E+00  0.23097545453E+04  0.23097545453E+04  0.25500000000E-02 0. -1.
         -2   -1    0    0    0  501 -0.00000000000E+00 -0.00000000000E+00 -0.31837019714E+03  0.31837019715E+03  0.25500000000E-02 0.  1.
    8880022    1    1    2    0    0  0.13688372358E+03 -0.10948413894E+03 -0.26909480438E+03  0.35570717903E+03  0.15294330000E+03 0.  1.
    8880022    1    1    2    0    0 -0.13688372358E+03  0.10948413894E+03  0.22604791525E+04  0.22724175634E+04  0.15294330000E+03 0.  0.
<mgrwt>
<rscale>  0 0.23262756E+03</rscale>
<asrwt>0</asrwt>
<pdfrwt beam="1">  1        2 0.35534684E+00 0.23262756E+03</pdfrwt>
<pdfrwt beam="2">  1       -2 0.48980032E-01 0.23262756E+03</pdfrwt>
<totfact> 0.21044221E+01</totfact>
</mgrwt>
</event>
<event>
 4    1  0.4840632E-008  0.3559874E+03  0.7818608E-02  0.1060184E+00
          2   -1    0    0  501    0  0.00000000000E+00  0.00000000000E+00  0.28006148560E+04  0.28006148560E+04  0.25500000000E-02 0. -1.
         -2   -1    0    0    0  501 -0.00000000000E+00 -0.00000000000E+00 -0.77187434908E+02  0.77187434950E+02  0.25500000000E-02 0.  1.
    8880022    1    1    2    0    0 -0.16574186492E+02  0.32103059923E+03  0.43614287694E+03  0.56298100450E+03  0.15294330000E+03 0.  0.
    8880022    1    1    2    0    0  0.16574186492E+02 -0.32103059923E+03  0.22872845442E+04  0.23148212865E+04  0.15294330000E+03 0.  0.
<mgrwt>
<rscale>  0 0.35598736E+03</rscale>
<asrwt>0</asrwt>
<pdfrwt beam="1">  1        2 0.43086380E+00 0.35598736E+03</pdfrwt>
<pdfrwt beam="2">  1       -2 0.11874991E-01 0.35598736E+03</pdfrwt>
<totfact> 0.13401060E+02</totfact>
</mgrwt>
</event>
<event>
 4    1  0.4840632E-008  0.5093757E+03  0.7818608E-02  0.1011360E+00
         -2   -1    0    0    0  501 -0.00000000000E+00  0.00000000000E+00  0.24761854916E+03  0.24761854917E+03  0.25500000000E-02 0.  1.
          2   -1    0    0  501    0  0.00000000000E+00 -0.00000000000E+00 -0.25788842021E+04  0.25788842021E+04  0.25500000000E-02 0. -1.
    8880022    1    1    2    0    0  0.26352418932E+03 -0.40819964210E+03 -0.22545577688E+04  0.23113836401E+04  0.15294330000E+03 0.  0.
    8880022    1    1    2    0    0 -0.26352418932E+03  0.40819964210E+03 -0.76707884196E+02  0.51511911116E+03  0.15294330000E+03 0.  0.
<mgrwt>
<rscale>  0 0.50937570E+03</rscale>
<asrwt>0</asrwt>
<pdfrwt beam="1">  1        2 0.39675140E+00 0.50937570E+03</pdfrwt>
<pdfrwt beam="2">  1       -2 0.38095163E-01 0.50937570E+03</pdfrwt>
<totfact> 0.22314048E+01</totfact>
</mgrwt>
</event>
<event>
 4    1  0.4840632E-008  0.4618491E+03  0.7818608E-02  0.1024246E+00
         -2   -1    0    0    0  501 -0.00000000000E+00  0.00000000000E+00  0.22629701718E+03  0.22629701719E+03  0.25500000000E-02 0.  1.
          2   -1    0    0  501    0  0.00000000000E+00 -0.00000000000E+00 -0.13106898354E+04  0.13106898354E+04  0.25500000000E-02 0. -1.
    8880022    1    1    2    0    0 -0.41844797589E+03  0.12171374544E+03 -0.13493350991E+03  0.48115657480E+03  0.15294330000E+03 0.  0.
    8880022    1    1    2    0    0  0.41844797589E+03 -0.12171374544E+03 -0.94945930827E+03  0.10558302778E+04  0.15294330000E+03 0.  0.
<mgrwt>
<rscale>  0 0.46184911E+03</rscale>
<asrwt>0</asrwt>
<pdfrwt beam="1">  1        2 0.20164458E+00 0.46184911E+03</pdfrwt>
<pdfrwt beam="2">  1       -2 0.34814927E-01 0.46184911E+03</pdfrwt>
<totfact> 0.13168844E+02</totfact>
</mgrwt>
</event>
<event>
 4    1  0.4840632E-008  0.4483540E+03  0.7818608E-02  0.1028214E+00
          2   -1    0    0  501    0  0.00000000000E+00  0.00000000000E+00  0.24945019338E+04  0.24945019338E+04  0.25500000000E-02 0. -1.
         -2   -1    0    0    0  501 -0.00000000000E+00 -0.00000000000E+00 -0.17053324325E+03  0.17053324327E+03  0.25500000000E-02 0.  1.
    8880022    1    1    2    0    0  0.39273716879E+03  0.15292867656E+03  0.21297338310E+04  0.21764162073E+04  0.15294330000E+03 0.  0.
    8880022    1    1    2    0    0 -0.39273716879E+03 -0.15292867656E+03  0.19423485958E+03  0.48861896971E+03  0.15294330000E+03 0.  0.
<mgrwt>
<rscale>  0 0.44835401E+03</rscale>
<asrwt>0</asrwt>
<pdfrwt beam="1">  1        2 0.38376949E+00 0.44835401E+03</pdfrwt>
<pdfrwt beam="2">  1       -2 0.26235886E-01 0.44835401E+03</pdfrwt>
<totfact> 0.50487775E+01</totfact>
</mgrwt>
</event>
<event>
 4    1  0.4840632E-008  0.3399482E+03  0.7818608E-02  0.1066818E+00
          2   -1    0    0  501    0  0.00000000000E+00  0.00000000000E+00  0.14869489159E+04  0.14869489159E+04  0.25500000000E-02 0. -1.
         -2   -1    0    0    0  501 -0.00000000000E+00 -0.00000000000E+00 -0.10500702273E+03  0.10500702276E+03  0.25500000000E-02 0.  1.
    8880022    1    1    2    0    0 -0.11916821280E+03  0.27923478251E+03  0.10967360693E+04  0.11482137368E+04  0.15294330000E+03 0.  0.
    8880022    1    1    2    0    0  0.11916821280E+03 -0.27923478251E+03  0.28520582388E+03  0.44374220185E+03  0.15294330000E+03 0.  0.
<mgrwt>
<rscale>  0 0.33994820E+03</rscale>
<asrwt>0</asrwt>
<pdfrwt beam="1">  1        2 0.22876136E+00 0.33994820E+03</pdfrwt>
<pdfrwt beam="2">  1       -2 0.16154927E-01 0.33994820E+03</pdfrwt>
<totfact> 0.41757373E+02</totfact>
</mgrwt>
</event>
<event>
 4    1  0.4840632E-008  0.1083716E+04  0.7818608E-02  0.9221210E-01
         -2   -1    0    0    0  501 -0.00000000000E+00  0.00000000000E+00  0.43637140670E+03  0.43637140671E+03  0.25500000000E-02 0.  1.
          2   -1    0    0  501    0  0.00000000000E+00 -0.00000000000E+00 -0.29651556874E+04  0.29651556874E+04  0.25500000000E-02 0. -1.
    8880022    1    1    2    0    0  0.14621288884E+03  0.10628597439E+04 -0.74759669102E+03  0.13165642823E+04  0.15294330000E+03 0.  0.
    8880022    1    1    2    0    0 -0.14621288884E+03 -0.10628597439E+04 -0.17811875897E+04  0.20849628118E+04  0.15294330000E+03 0.  0.
<mgrwt>
<rscale>  0 0.10837162E+04</rscale>
<asrwt>0</asrwt>
<pdfrwt beam="1">  1        2 0.45617778E+00 0.10837162E+04</pdfrwt>
<pdfrwt beam="2">  1       -2 0.67134065E-01 0.10837162E+04</pdfrwt>
<totfact> 0.37630875E+00</totfact>
</mgrwt>
</event>
<event>
 4    1  0.4840632E-008  0.7926250E+03  0.7818608E-02  0.9570754E-01
          2   -1    0    0  501    0  0.00000000000E+00  0.00000000000E+00  0.27256006142E+04  0.27256006142E+04  0.25500000000E-02 0. -1.
         -2   -1    0    0    0  501 -0.00000000000E+00 -0.00000000000E+00 -0.27399020352E+03  0.27399020353E+03  0.25500000000E-02 0.  1.
    8880022    1    1    2    0    0 -0.64999964090E+03 -0.42703997630E+03  0.18233273697E+04  0.19881592051E+04  0.15294330000E+03 0. -1.
    8880022    1    1    2    0    0  0.64999964090E+03  0.42703997630E+03  0.62828304099E+03  0.10114316127E+04  0.15294330000E+03 0.  0.
<mgrwt>
<rscale>  0 0.79262496E+03</rscale>
<asrwt>0</asrwt>
<pdfrwt beam="1">  1        2 0.41932316E+00 0.79262496E+03</pdfrwt>
<pdfrwt beam="2">  1       -2 0.42152340E-01 0.79262496E+03</pdfrwt>
<totfact> 0.14306563E+01</totfact>
</mgrwt>
</event>
<event>
 4    1  0.5249636E-008  0.6852680E+03  0.7818608E-02  0.9742763E-01
         -2   -1    0    0    0  501 -0.00000000000E+00  0.00000000000E+00  0.11010546005E+04  0.11010546005E+04  0.25500000000E-02 0.  1.
          2   -1    0    0  501    0  0.00000000000E+00 -0.00000000000E+00 -0.19952468679E+04  0.19952468679E+04  0.25500000000E-02 0. -1.
    8880022    1    1    2    0    0  0.78551414152E+02  0.66334771454E+03  0.92565660207E+03  0.11517084323E+04  0.15294330000E+03 0.  0.
    8880022    1    1    2    0    0 -0.78551414152E+02 -0.66334771454E+03 -0.18198488695E+04  0.19445930361E+04  0.15294330000E+03 0.  0.
<mgrwt>
<rscale>  0 0.68526795E+03</rscale>
<asrwt>0</asrwt>
<pdfrwt beam="1">  1        2 0.30696106E+00 0.68526795E+03</pdfrwt>
<pdfrwt beam="2">  1       -2 0.16939302E+00 0.68526795E+03</pdfrwt>
<totfact> 0.15242043E+00</totfact>
</mgrwt>
</event>
<event>
 4    1  0.4840632E-008  0.5429543E+03  0.7818608E-02  0.1003138E+00
          2   -1    0    0  501    0  0.00000000000E+00  0.00000000000E+00  0.20115027338E+04  0.20115027338E+04  0.25500000000E-02 0. -1.
         -2   -1    0    0    0  501 -0.00000000000E+00 -0.00000000000E+00 -0.28084420096E+03  0.28084420097E+03  0.25500000000E-02 0.  1.
    8880022    1    1    2    0    0 -0.21289950983E+03 -0.47548025060E+03  0.16578950509E+04  0.17445387135E+04  0.15294330000E+03 0.  0.
    8880022    1    1    2    0    0  0.21289950983E+03  0.47548025060E+03  0.72763481929E+02  0.54780822129E+03  0.15294330000E+03 0.  0.
<mgrwt>
<rscale>  0 0.54295425E+03</rscale>
<asrwt>0</asrwt>
<pdfrwt beam="1">  1        2 0.30946196E+00 0.54295425E+03</pdfrwt>
<pdfrwt beam="2">  1       -2 0.43206800E-01 0.54295425E+03</pdfrwt>
<totfact> 0.35603505E+01</totfact>
</mgrwt>
</event>
<event>
 4    1  0.4840632E-008  0.4521655E+03  0.7818608E-02  0.1027078E+00
         -2   -1    0    0    0  501 -0.00000000000E+00  0.00000000000E+00  0.35048339251E+03  0.35048339252E+03  0.25500000000E-02 0.  1.
          2   -1    0    0  501    0  0.00000000000E+00 -0.00000000000E+00 -0.21427513853E+04  0.21427513853E+04  0.25500000000E-02 0. -1.
    8880022    1    1    2    0    0 -0.12743683324E+01 -0.42551188331E+03  0.16733928370E+03  0.48213698856E+03  0.15294330000E+03 0.  0.
    8880022    1    1    2    0    0  0.12743683324E+01  0.42551188331E+03 -0.19596072765E+04  0.20110977892E+04  0.15294330000E+03 0.  0.
<mgrwt>
<rscale>  0 0.45216550E+03</rscale>
<asrwt>0</asrwt>
<pdfrwt beam="1">  1        2 0.32965405E+00 0.45216550E+03</pdfrwt>
<pdfrwt beam="2">  1       -2 0.53920523E-01 0.45216550E+03</pdfrwt>
<totfact> 0.19751658E+01</totfact>
</mgrwt>
</event>
<event>
 4    1  0.4840632E-008  0.2874482E+03  0.7818608E-02  0.1091689E+00
         -2   -1    0    0    0  501 -0.00000000000E+00  0.00000000000E+00  0.81097576514E+02  0.81097576554E+02  0.25500000000E-02 0.  1.
          2   -1    0    0  501    0  0.00000000000E+00 -0.00000000000E+00 -0.17001744075E+04  0.17001744075E+04  0.25500000000E-02 0. -1.
    8880022    1    1    2    0    0 -0.69923248214E+02 -0.23312138047E+03 -0.13733442821E+04  0.14031040620E+04  0.15294330000E+03 0.  0.
    8880022    1    1    2    0    0  0.69923248214E+02  0.23312138047E+03 -0.24573254894E+03  0.37816792209E+03  0.15294330000E+03 0.  0.
<mgrwt>
<rscale>  0 0.28744824E+03</rscale>
<asrwt>0</asrwt>
<pdfrwt beam="1">  1        2 0.26156527E+00 0.28744824E+03</pdfrwt>
<pdfrwt beam="2">  1       -2 0.12476552E-01 0.28744824E+03</pdfrwt>
<totfact> 0.49595075E+02</totfact>
</mgrwt>
</event>
<event>
 4    1  0.5428498E-008  0.7077173E+03  0.7818608E-02  0.9704125E-01
          2   -1    0    0  501    0  0.00000000000E+00  0.00000000000E+00  0.23511897363E+04  0.23511897363E+04  0.25500000000E-02 0. -1.
         -2   -1    0    0    0  501 -0.00000000000E+00 -0.00000000000E+00 -0.77377278747E+03  0.77377278747E+03  0.25500000000E-02 0.  1.
    8880022    1    1    2    0    0 -0.52819489660E+03 -0.44551351753E+03  0.21188308892E+04  0.22338997589E+04  0.15294330000E+03 0.  0.
    8880022    1    1    2    0    0  0.52819489660E+03  0.44551351753E+03 -0.54141394032E+03  0.89106276484E+03  0.15294330000E+03 0.  0.
<mgrwt>
<rscale>  0 0.70771731E+03</rscale>
<asrwt>0</asrwt>
<pdfrwt beam="1">  1        2 0.36172149E+00 0.70771731E+03</pdfrwt>
<pdfrwt beam="2">  1       -2 0.11904197E+00 0.70771731E+03</pdfrwt>
<totfact> 0.24224868E+00</totfact>
</mgrwt>
</event>
<event>
 4    1  0.4840632E-008  0.2499281E+03  0.7818608E-02  0.1113350E+00
          2   -1    0    0  501    0  0.00000000000E+00  0.00000000000E+00  0.17801302103E+04  0.17801302103E+04  0.25500000000E-02 0. -1.
         -2   -1    0    0    0  501 -0.00000000000E+00 -0.00000000000E+00 -0.10802811676E+03  0.10802811679E+03  0.25500000000E-02 0.  1.
    8880022    1    1    2    0    0  0.32561024596E+02 -0.19496713382E+03  0.60306958821E+02  0.25710111997E+03  0.15294330000E+03 0.  0.
    8880022    1    1    2    0    0 -0.32561024596E+02  0.19496713382E+03  0.16117951347E+04  0.16310572071E+04  0.15294330000E+03 0.  0.
<mgrwt>
<rscale>  0 0.24992810E+03</rscale>
<asrwt>0</asrwt>
<pdfrwt beam="1">  1        2 0.27386617E+00 0.24992810E+03</pdfrwt>
<pdfrwt beam="2">  1       -2 0.16619711E-01 0.24992810E+03</pdfrwt>
<totfact> 0.28220978E+02</totfact>
</mgrwt>
</event>
<event>
 4    1  0.4840632E-008  0.3564805E+03  0.7818608E-02  0.1059986E+00
         -2   -1    0    0    0  501 -0.00000000000E+00  0.00000000000E+00  0.53030059398E+03  0.53030059398E+03  0.25500000000E-02 0.  1.
          2   -1    0    0  501    0  0.00000000000E+00 -0.00000000000E+00 -0.70077711447E+03  0.70077711448E+03  0.25500000000E-02 0. -1.
    8880022    1    1    2    0    0 -0.31685301415E+03  0.57365745096E+02 -0.58456307357E+03  0.68468408867E+03  0.15294330000E+03 0.  0.
    8880022    1    1    2    0    0  0.31685301415E+03 -0.57365745096E+02  0.41408655308E+03  0.54639361978E+03  0.15294330000E+03 0.  0.
<mgrwt>
<rscale>  0 0.35648045E+03</rscale>
<asrwt>0</asrwt>
<pdfrwt beam="1">  1        2 0.10781186E+00 0.35648045E+03</pdfrwt>
<pdfrwt beam="2">  1       -2 0.81584707E-01 0.35648045E+03</pdfrwt>
<totfact> 0.57065914E+01</totfact>
</mgrwt>
</event>
<event>
 4    1  0.4840632E-008  0.2401632E+03  0.7818608E-02  0.1119684E+00
         -2   -1    0    0    0  501 -0.00000000000E+00  0.00000000000E+00  0.40112285046E+03  0.40112285047E+03  0.25500000000E-02 0.  1.
          2   -1    0    0  501    0  0.00000000000E+00 -0.00000000000E+00 -0.13700866894E+04  0.13700866894E+04  0.25500000000E-02 0. -1.
    8880022    1    1    2    0    0 -0.27183047125E+02 -0.18316061024E+03  0.35336232915E+03  0.42725088165E+03  0.15294330000E+03 0.  1.
    8880022    1    1    2    0    0  0.27183047125E+02  0.18316061024E+03 -0.13223261681E+04  0.13439586583E+04  0.15294330000E+03 0.  0.
<mgrwt>
<rscale>  0 0.24016324E+03</rscale>
<asrwt>0</asrwt>
<pdfrwt beam="1">  1        2 0.21078257E+00 0.24016324E+03</pdfrwt>
<pdfrwt beam="2">  1       -2 0.61711208E-01 0.24016324E+03</pdfrwt>
<totfact> 0.41067454E+01</totfact>
</mgrwt>
</event>
<event>
 4    1  0.4840632E-008  0.1999546E+03  0.7818608E-02  0.1149777E+00
          2   -1    0    0  501    0  0.00000000000E+00  0.00000000000E+00  0.15593199625E+04  0.15593199625E+04  0.25500000000E-02 0. -1.
         -2   -1    0    0    0  501 -0.00000000000E+00 -0.00000000000E+00 -0.13546415595E+03  0.13546415597E+03  0.25500000000E-02 0.  1.
    8880022    1    1    2    0    0  0.12880291218E+03 -0.10043492584E+00 -0.51064126944E+02  0.20637199023E+03  0.15294330000E+03 0.  0.
    8880022    1    1    2    0    0 -0.12880291218E+03  0.10043492584E+00  0.14749199335E+04  0.14884121283E+04  0.15294330000E+03 0.  0.
<mgrwt>
<rscale>  0 0.19995463E+03</rscale>
<asrwt>0</asrwt>
<pdfrwt beam="1">  1        2 0.23989536E+00 0.19995463E+03</pdfrwt>
<pdfrwt beam="2">  1       -2 0.20840641E-01 0.19995463E+03</pdfrwt>
<totfact> 0.25404710E+02</totfact>
</mgrwt>
</event>
<event>
 4    1  0.6831982E-008  0.7068379E+03  0.7818608E-02  0.9705609E-01
         -2   -1    0    0    0  501 -0.00000000000E+00  0.00000000000E+00  0.72397350366E+03  0.72397350366E+03  0.25500000000E-02 0.  1.
          2   -1    0    0  501    0  0.00000000000E+00 -0.00000000000E+00 -0.24373989280E+04  0.24373989280E+04  0.25500000000E-02 0. -1.
    8880022    1    1    2    0    0 -0.50133318907E+03  0.47422904238E+03  0.48162275345E+03  0.85532466395E+03  0.15294330000E+03 0.  0.
    8880022    1    1    2    0    0  0.50133318907E+03 -0.47422904238E+03 -0.21950481778E+04  0.23060477677E+04  0.15294330000E+03 0.  0.
<mgrwt>
<rscale>  0 0.70683789E+03</rscale>
<asrwt>0</asrwt>
<pdfrwt beam="1">  1        2 0.37498445E+00 0.70683789E+03</pdfrwt>
<pdfrwt beam="2">  1       -2 0.11138054E+00 0.70683789E+03</pdfrwt>
<totfact> 0.25506893E+00</totfact>
</mgrwt>
</event>
<event>
 4    1  0.4840632E-008  0.5593147E+03  0.7818608E-02  0.9993606E-01
          2   -1    0    0  501    0  0.00000000000E+00  0.00000000000E+00  0.10588418948E+04  0.10588418948E+04  0.25500000000E-02 0. -1.
         -2   -1    0    0    0  501 -0.00000000000E+00 -0.00000000000E+00 -0.11484463620E+04  0.11484463620E+04  0.25500000000E-02 0.  1.
    8880022    1    1    2    0    0  0.46880390769E+03  0.26393975502E+03  0.90634498436E+03  0.10650324792E+04  0.15294330000E+03 0.  0.
    8880022    1    1    2    0    0 -0.46880390769E+03 -0.26393975502E+03 -0.99594945164E+03  0.11422557776E+04  0.15294330000E+03 0.  0.
<mgrwt>
<rscale>  0 0.55931472E+03</rscale>
<asrwt>0</asrwt>
<pdfrwt beam="1">  1        2 0.16289875E+00 0.55931472E+03</pdfrwt>
<pdfrwt beam="2">  1       -2 0.17668406E+00 0.55931472E+03</pdfrwt>
<totfact> 0.46586256E+00</totfact>
</mgrwt>
</event>
<event>
 4    1  0.4840632E-008  0.4301392E+03  0.7818608E-02  0.1033816E+00
         -2   -1    0    0    0  501 -0.00000000000E+00  0.00000000000E+00  0.13727056115E+03  0.13727056117E+03  0.25500000000E-02 0.  1.
          2   -1    0    0  501    0  0.00000000000E+00 -0.00000000000E+00 -0.19531426353E+04  0.19531426353E+04  0.25500000000E-02 0. -1.
    8880022    1    1    2    0    0  0.25982128332E+03 -0.30679142406E+03 -0.32607551598E+03  0.53976381157E+03  0.15294330000E+03 0.  0.
    8880022    1    1    2    0    0 -0.25982128332E+03  0.30679142406E+03 -0.14897965581E+04  0.15506493849E+04  0.15294330000E+03 0.  0.
<mgrwt>
<rscale>  0 0.43013920E+03</rscale>
<asrwt>0</asrwt>
<pdfrwt beam="1">  1        2 0.30048346E+00 0.43013920E+03</pdfrwt>
<pdfrwt beam="2">  1       -2 0.21118549E-01 0.43013920E+03</pdfrwt>
<totfact> 0.14659182E+02</totfact>
</mgrwt>
</event>
<event>
 4    1  0.4840632E-008  0.4495327E+03  0.7818608E-02  0.1027861E+00
          2   -1    0    0  501    0  0.00000000000E+00  0.00000000000E+00  0.10292968314E+04  0.10292968314E+04  0.25500000000E-02 0. -1.
         -2   -1    0    0    0  501 -0.00000000000E+00 -0.00000000000E+00 -0.54723282293E+03  0.54723282293E+03  0.25500000000E-02 0.  1.
    8880022    1    1    2    0    0  0.41850903761E+03  0.59482712620E+02 -0.39018810306E+03  0.59525323724E+03  0.15294330000E+03 0.  1.
    8880022    1    1    2    0    0 -0.41850903761E+03 -0.59482712620E+02  0.87225211156E+03  0.98127641712E+03  0.15294330000E+03 0.  0.
<mgrwt>
<rscale>  0 0.44953271E+03</rscale>
<asrwt>0</asrwt>
<pdfrwt beam="1">  1        2 0.15835336E+00 0.44953271E+03</pdfrwt>
<pdfrwt beam="2">  1       -2 0.84189667E-01 0.44953271E+03</pdfrwt>
<totfact> 0.31354871E+01</totfact>
</mgrwt>
</event>
<event>
 4    1  0.4840632E-008  0.3980588E+03  0.7818608E-02  0.1044454E+00
          2   -1    0    0  501    0  0.00000000000E+00  0.00000000000E+00  0.15343026518E+04  0.15343026518E+04  0.25500000000E-02 0. -1.
         -2   -1    0    0    0  501 -0.00000000000E+00 -0.00000000000E+00 -0.38094283705E+03  0.38094283706E+03  0.25500000000E-02 0.  1.
    8880022    1    1    2    0    0  0.36328205348E+03  0.55545247939E+02 -0.24089874152E+03  0.46527731691E+03  0.15294330000E+03 0.  0.
    8880022    1    1    2    0    0 -0.36328205348E+03 -0.55545247939E+02  0.13942585563E+04  0.14499681720E+04  0.15294330000E+03 0.  0.
<mgrwt>
<rscale>  0 0.39805876E+03</rscale>
<asrwt>0</asrwt>
<pdfrwt beam="1">  1        2 0.23604656E+00 0.39805876E+03</pdfrwt>
<pdfrwt beam="2">  1       -2 0.58606591E-01 0.39805876E+03</pdfrwt>
<totfact> 0.35706768E+01</totfact>
</mgrwt>
</event>
<event>
 4    1  0.4840632E-008  0.6226670E+03  0.7818608E-02  0.9859464E-01
         -2   -1    0    0    0  501 -0.00000000000E+00  0.00000000000E+00  0.43072842107E+03  0.43072842108E+03  0.25500000000E-02 0.  1.
          2   -1    0    0  501    0  0.00000000000E+00 -0.00000000000E+00 -0.10630458307E+04  0.10630458307E+04  0.25500000000E-02 0. -1.
    8880022    1    1    2    0    0  0.57336782705E+03  0.18860502500E+03 -0.23775395419E+02  0.62312072907E+03  0.15294330000E+03 0.  0.
    8880022    1    1    2    0    0 -0.57336782705E+03 -0.18860502500E+03 -0.60854201424E+03  0.87065352275E+03  0.15294330000E+03 0.  0.
<mgrwt>
<rscale>  0 0.62266698E+03</rscale>
<asrwt>0</asrwt>
<pdfrwt beam="1">  1        2 0.16354551E+00 0.62266698E+03</pdfrwt>
<pdfrwt beam="2">  1       -2 0.66265911E-01 0.62266698E+03</pdfrwt>
<totfact> 0.49499133E+01</totfact>
</mgrwt>
</event>
<event>
 4    1  0.4840632E-008  0.7669241E+03  0.7818608E-02  0.9609167E-01
          2   -1    0    0  501    0  0.00000000000E+00  0.00000000000E+00  0.16977438006E+04  0.16977438006E+04  0.25500000000E-02 0. -1.
         -2   -1    0    0    0  501 -0.00000000000E+00 -0.00000000000E+00 -0.69486112023E+03  0.69486112024E+03  0.25500000000E-02 0.  1.
    8880022    1    1    2    0    0  0.70567471008E+03  0.25846494780E+03 -0.34567282553E+03  0.84122665259E+03  0.15294330000E+03 0.  0.
    8880022    1    1    2    0    0 -0.70567471008E+03 -0.25846494780E+03  0.13485555059E+04  0.15513782682E+04  0.15294330000E+03 0.  0.
<mgrwt>
<rscale>  0 0.76692410E+03</rscale>
<asrwt>0</asrwt>
<pdfrwt beam="1">  1        2 0.26119135E+00 0.76692410E+03</pdfrwt>
<pdfrwt beam="2">  1       -2 0.10690171E+00 0.76692410E+03</pdfrwt>
<totfact> 0.71065258E+00</totfact>
</mgrwt>
</event>
<event>
 4    1  0.4840632E-008  0.6770509E+03  0.7818608E-02  0.9757303E-01
         -2   -1    0    0    0  501 -0.00000000000E+00  0.00000000000E+00  0.35077947030E+03  0.35077947031E+03  0.25500000000E-02 0.  1.
          2   -1    0    0  501    0  0.00000000000E+00 -0.00000000000E+00 -0.14172549311E+04  0.14172549311E+04  0.25500000000E-02 0. -1.
    8880022    1    1    2    0    0 -0.62723704241E+03  0.20391179156E+03 -0.78003072474E+03  0.10328823315E+04  0.15294330000E+03 0.  0.
    8880022    1    1    2    0    0  0.62723704241E+03 -0.20391179156E+03 -0.28644473607E+03  0.73515206994E+03  0.15294330000E+03 0.  0.
<mgrwt>
<rscale>  0 0.67705094E+03</rscale>
<asrwt>0</asrwt>
<pdfrwt beam="1">  1        2 0.21803922E+00 0.67705094E+03</pdfrwt>
<pdfrwt beam="2">  1       -2 0.53966073E-01 0.67705094E+03</pdfrwt>
<totfact> 0.47067834E+01</totfact>
</mgrwt>
</event>
<event>
 4    1  0.4840632E-008  0.1149234E+04  0.7818608E-02  0.9158490E-01
         -2   -1    0    0    0  501 -0.00000000000E+00  0.00000000000E+00  0.46958275271E+03  0.46958275271E+03  0.25500000000E-02 0.  1.
          2   -1    0    0  501    0  0.00000000000E+00 -0.00000000000E+00 -0.42008902070E+04  0.42008902070E+04  0.25500000000E-02 0. -1.
    8880022    1    1    2    0    0  0.10135156111E+04  0.51974363469E+03 -0.52318715315E+03  0.12627207886E+04  0.15294330000E+03 0.  0.
    8880022    1    1    2    0    0 -0.10135156111E+04 -0.51974363469E+03 -0.32081203012E+04  0.34077521711E+04  0.15294330000E+03 0.  0.
<mgrwt>
<rscale>  0 0.11492341E+04</rscale>
<asrwt>0</asrwt>
<pdfrwt beam="1">  1        2 0.64629078E+00 0.11492341E+04</pdfrwt>
<pdfrwt beam="2">  1       -2 0.72243503E-01 0.11492341E+04</pdfrwt>
<totfact> 0.41583107E-01</totfact>
</mgrwt>
</event>
<event>
 4    1  0.4840632E-008  0.3274797E+03  0.7818608E-02  0.1072257E+00
         -2   -1    0    0    0  501 -0.00000000000E+00  0.00000000000E+00  0.31642127346E+04  0.31642127346E+04  0.25500000000E-02 0.  1.
          2   -1    0    0  501    0  0.00000000000E+00 -0.00000000000E+00 -0.25249601609E+03  0.25249601611E+03  0.25500000000E-02 0. -1.
    8880022    1    1    2    0    0 -0.27256969627E+03  0.97760218826E+02  0.30454270892E+04  0.30629836938E+04  0.15294330000E+03 0.  0.
    8880022    1    1    2    0    0  0.27256969627E+03 -0.97760218826E+02 -0.13371037064E+03  0.35372505698E+03  0.15294330000E+03 0. -1.
<mgrwt>
<rscale>  0 0.32747970E+03</rscale>
<asrwt>0</asrwt>
<pdfrwt beam="1">  1        2 0.38845540E-01 0.32747970E+03</pdfrwt>
<pdfrwt beam="2">  1       -2 0.48680197E+00 0.32747970E+03</pdfrwt>
<totfact> 0.31617472E-01</totfact>
</mgrwt>
</event>
<event>
 4    1  0.4988721E-008  0.1016574E+04  0.7818608E-02  0.9290551E-01
         -2   -1    0    0    0  501 -0.00000000000E+00  0.00000000000E+00  0.10718869887E+04  0.10718869887E+04  0.25500000000E-02 0.  1.
          2   -1    0    0  501    0  0.00000000000E+00 -0.00000000000E+00 -0.19875049276E+04  0.19875049276E+04  0.25500000000E-02 0. -1.
    8880022    1    1    2    0    0  0.23702882353E+03  0.97665174301E+03  0.63986018097E+03  0.12011844132E+04  0.15294330000E+03 0.  0.
    8880022    1    1    2    0    0 -0.23702882353E+03 -0.97665174301E+03 -0.15554781199E+04  0.18582075032E+04  0.15294330000E+03 0.  0.
<mgrwt>
<rscale>  0 0.10165741E+04</rscale>
<asrwt>0</asrwt>
<pdfrwt beam="1">  1        2 0.30576999E+00 0.10165741E+04</pdfrwt>
<pdfrwt beam="2">  1       -2 0.16490569E+00 0.10165741E+04</pdfrwt>
<totfact> 0.15665443E+00</totfact>
</mgrwt>
</event>
<event>
 4    1  0.4840632E-008  0.2715122E+03  0.7818608E-02  0.1100417E+00
         -2   -1    0    0    0  501 -0.00000000000E+00  0.00000000000E+00  0.18619281278E+04  0.18619281278E+04  0.25500000000E-02 0.  1.
          2   -1    0    0  501    0  0.00000000000E+00 -0.00000000000E+00 -0.80644804061E+03  0.80644804061E+03  0.25500000000E-02 0. -1.
    8880022    1    1    2    0    0 -0.11869696961E+03 -0.19036351299E+03 -0.77328472820E+03  0.81956583723E+03  0.15294330000E+03 0. -1.
    8880022    1    1    2    0    0  0.11869696961E+03  0.19036351299E+03  0.18287648154E+04  0.18488103312E+04  0.15294330000E+03 0.  0.
<mgrwt>
<rscale>  0 0.27151223E+03</rscale>
<asrwt>0</asrwt>
<pdfrwt beam="1">  1        2 0.12406893E+00 0.27151223E+03</pdfrwt>
<pdfrwt beam="2">  1       -2 0.28645048E+00 0.27151223E+03</pdfrwt>
<totfact> 0.15640193E+00</totfact>
</mgrwt>
</event>
<event>
 4    1  0.4840632E-008  0.6240338E+03  0.7818608E-02  0.9856761E-01
          2   -1    0    0  501    0  0.00000000000E+00  0.00000000000E+00  0.49665938899E+03  0.49665938900E+03  0.25500000000E-02 0. -1.
         -2   -1    0    0    0  501 -0.00000000000E+00 -0.00000000000E+00 -0.12816575006E+04  0.12816575006E+04  0.25500000000E-02 0.  1.
    8880022    1    1    2    0    0  0.10465647428E+03  0.59588044125E+03 -0.94651949196E+03  0.11337183422E+04  0.15294330000E+03 0.  0.
    8880022    1    1    2    0    0 -0.10465647428E+03 -0.59588044125E+03  0.16152138037E+03  0.64459854732E+03  0.15294330000E+03 0.  0.
<mgrwt>
<rscale>  0 0.62403376E+03</rscale>
<asrwt>0</asrwt>
<pdfrwt beam="1">  1        2 0.76409138E-01 0.62403376E+03</pdfrwt>
<pdfrwt beam="2">  1       -2 0.19717808E+00 0.62403376E+03</pdfrwt>
<totfact> 0.89118176E+00</totfact>
</mgrwt>
</event>
<event>
 4    1  0.4840632E-008  0.2905066E+03  0.7818608E-02  0.1090085E+00
          2   -1    0    0  501    0  0.00000000000E+00  0.00000000000E+00  0.94866849674E+03  0.94866849674E+03  0.25500000000E-02 0. -1.
         -2   -1    0    0    0  501 -0.00000000000E+00 -0.00000000000E+00 -0.35326065786E+03  0.35326065786E+03  0.25500000000E-02 0.  1.
    8880022    1    1    2    0    0  0.26055387254E+02  0.24560856516E+03  0.86076869878E+03  0.90846951314E+03  0.15294330000E+03 0.  0.
    8880022    1    1    2    0    0 -0.26055387254E+02 -0.24560856516E+03 -0.26536085990E+03  0.39345964147E+03  0.15294330000E+03 0.  1.
<mgrwt>
<rscale>  0 0.29050663E+03</rscale>
<asrwt>0</asrwt>
<pdfrwt beam="1">  1        2 0.14594900E+00 0.29050663E+03</pdfrwt>
<pdfrwt beam="2">  1       -2 0.54347795E-01 0.29050663E+03</pdfrwt>
<totfact> 0.92567584E+01</totfact>
</mgrwt>
</event>
<event>
 4    1  0.4840632E-008  0.7758554E+03  0.7818608E-02  0.9595638E-01
         -2   -1    0    0    0  501 -0.00000000000E+00  0.00000000000E+00  0.16458083665E+04  0.16458083665E+04  0.25500000000E-02 0.  1.
          2   -1    0    0  501    0  0.00000000000E+00 -0.00000000000E+00 -0.68069319472E+03  0.68069319473E+03  0.25500000000E-02 0. -1.
    8880022    1    1    2    0    0  0.75242625512E+03  0.11142139681E+03  0.12738097645E+04  0.14914901831E+04  0.15294330000E+03 0.  0.
    8880022    1    1    2    0    0 -0.75242625512E+03 -0.11142139681E+03 -0.30869459273E+03  0.83501137816E+03  0.15294330000E+03 0.  0.
<mgrwt>
<rscale>  0 0.77585543E+03</rscale>
<asrwt>0</asrwt>
<pdfrwt beam="1">  1        2 0.10472203E+00 0.77585543E+03</pdfrwt>
<pdfrwt beam="2">  1       -2 0.25320129E+00 0.77585543E+03</pdfrwt>
<totfact> 0.26783280E+00</totfact>
</mgrwt>
</event>
<event>
 4    1  0.6332766E-008  0.6607188E+03  0.7818608E-02  0.9786871E-01
          2   -1    0    0  501    0  0.00000000000E+00  0.00000000000E+00  0.17690427402E+04  0.17690427402E+04  0.25500000000E-02 0. -1.
         -2   -1    0    0    0  501 -0.00000000000E+00 -0.00000000000E+00 -0.13217318297E+04  0.13217318297E+04  0.25500000000E-02 0.  1.
    8880022    1    1    2    0    0 -0.50059282301E+03 -0.40319294336E+03  0.16173316234E+04  0.17470864194E+04  0.15294330000E+03 0.  0.
    8880022    1    1    2    0    0  0.50059282301E+03  0.40319294336E+03 -0.11700207129E+04  0.13436881505E+04  0.15294330000E+03 0.  0.
<mgrwt>
<rscale>  0 0.66071883E+03</rscale>
<asrwt>0</asrwt>
<pdfrwt beam="1">  1        2 0.27216042E+00 0.66071883E+03</pdfrwt>
<pdfrwt beam="2">  1       -2 0.20334336E+00 0.66071883E+03</pdfrwt>
<totfact> 0.12014871E+00</totfact>
</mgrwt>
</event>
<event>
 4    1  0.4840632E-008  0.6048593E+03  0.7818608E-02  0.9895376E-01
          2   -1    0    0  501    0  0.00000000000E+00  0.00000000000E+00  0.17901762117E+04  0.17901762117E+04  0.25500000000E-02 0. -1.
         -2   -1    0    0    0  501 -0.00000000000E+00 -0.00000000000E+00 -0.22868838119E+03  0.22868838121E+03  0.25500000000E-02 0.  1.
    8880022    1    1    2    0    0  0.58197149763E+03  0.61419138921E+02  0.11099289300E+04  0.12640399587E+04  0.15294330000E+03 0.  0.
    8880022    1    1    2    0    0 -0.58197149763E+03 -0.61419138921E+02  0.45155890052E+03  0.75482463416E+03  0.15294330000E+03 0.  0.
<mgrwt>
<rscale>  0 0.60485931E+03</rscale>
<asrwt>0</asrwt>
<pdfrwt beam="1">  1        2 0.27541173E+00 0.60485931E+03</pdfrwt>
<pdfrwt beam="2">  1       -2 0.35182827E-01 0.60485931E+03</pdfrwt>
<totfact> 0.69084902E+01</totfact>
</mgrwt>
</event>
<event>
 4    1  0.4840632E-008  0.3863698E+03  0.7818608E-02  0.1048604E+00
          2   -1    0    0  501    0  0.00000000000E+00  0.00000000000E+00  0.72675355845E+03  0.72675355846E+03  0.25500000000E-02 0. -1.
         -2   -1    0    0    0  501 -0.00000000000E+00 -0.00000000000E+00 -0.37856120482E+03  0.37856120483E+03  0.25500000000E-02 0.  1.
    8880022    1    1    2    0    0  0.85072642044E+02  0.34445987159E+03  0.54786418593E+03  0.67040046002E+03  0.15294330000E+03 0. -1.
    8880022    1    1    2    0    0 -0.85072642044E+02 -0.34445987159E+03 -0.19967183230E+03  0.43491430327E+03  0.15294330000E+03 0.  0.
<mgrwt>
<rscale>  0 0.38636978E+03</rscale>
<asrwt>0</asrwt>
<pdfrwt beam="1">  1        2 0.11180824E+00 0.38636978E+03</pdfrwt>
<pdfrwt beam="2">  1       -2 0.58240186E-01 0.38636978E+03</pdfrwt>
<totfact> 0.11228597E+02</totfact>
</mgrwt>
</event>
<event>
 4    1  0.4840632E-008  0.2583381E+03  0.7818608E-02  0.1108146E+00
          2   -1    0    0  501    0  0.00000000000E+00  0.00000000000E+00  0.12939655876E+04  0.12939655876E+04  0.25500000000E-02 0. -1.
         -2   -1    0    0    0  501 -0.00000000000E+00 -0.00000000000E+00 -0.21543497775E+03  0.21543497776E+03  0.25500000000E-02 0.  1.
    8880022    1    1    2    0    0  0.20461893359E+03 -0.38445092740E+02 -0.11892348853E+03  0.28439652297E+03  0.15294330000E+03 0.  0.
    8880022    1    1    2    0    0 -0.20461893359E+03  0.38445092740E+02  0.11974540984E+04  0.12250040424E+04  0.15294330000E+03 0. -1.
<mgrwt>
<rscale>  0 0.25833812E+03</rscale>
<asrwt>0</asrwt>
<pdfrwt beam="1">  1        2 0.19907163E+00 0.25833812E+03</pdfrwt>
<pdfrwt beam="2">  1       -2 0.33143842E-01 0.25833812E+03</pdfrwt>
<totfact> 0.15248085E+02</totfact>
</mgrwt>
</event>
<event>
 4    1  0.4840632E-008  0.6148354E+03  0.7818608E-02  0.9875097E-01
         -2   -1    0    0    0  501 -0.00000000000E+00  0.00000000000E+00  0.87588556028E+03  0.87588556029E+03  0.25500000000E-02 0.  1.
          2   -1    0    0  501    0  0.00000000000E+00 -0.00000000000E+00 -0.12711096117E+04  0.12711096117E+04  0.25500000000E-02 0. -1.
    8880022    1    1    2    0    0  0.34783675672E+03 -0.48336369395E+03  0.67480727953E+03  0.91290053536E+03  0.15294330000E+03 0.  0.
    8880022    1    1    2    0    0 -0.34783675672E+03  0.48336369395E+03 -0.10700313310E+04  0.12340946367E+04  0.15294330000E+03 0. -1.
<mgrwt>
<rscale>  0 0.61483536E+03</rscale>
<asrwt>0</asrwt>
<pdfrwt beam="1">  1        2 0.19555532E+00 0.61483536E+03</pdfrwt>
<pdfrwt beam="2">  1       -2 0.13475163E+00 0.61483536E+03</pdfrwt>
<totfact> 0.71030100E+00</totfact>
</mgrwt>
</event>
<event>
 4    1  0.4840632E-008  0.3006614E+03  0.7818608E-02  0.1084910E+00
         -2   -1    0    0    0  501 -0.00000000000E+00  0.00000000000E+00  0.27941128234E+03  0.27941128236E+03  0.25500000000E-02 0.  1.
          2   -1    0    0  501    0  0.00000000000E+00 -0.00000000000E+00 -0.98766958869E+03  0.98766958870E+03  0.25500000000E-02 0. -1.
    8880022    1    1    2    0    0 -0.23118125756E+02 -0.25782008452E+03  0.16538684511E+03  0.34314735212E+03  0.15294330000E+03 0.  0.
    8880022    1    1    2    0    0  0.23118125756E+02  0.25782008452E+03 -0.87364515146E+03  0.92393351893E+03  0.15294330000E+03 0.  0.
<mgrwt>
<rscale>  0 0.30066143E+03</rscale>
<asrwt>0</asrwt>
<pdfrwt beam="1">  1        2 0.15194917E+00 0.30066143E+03</pdfrwt>
<pdfrwt beam="2">  1       -2 0.42986352E-01 0.30066143E+03</pdfrwt>
<totfact> 0.13937531E+02</totfact>
</mgrwt>
</event>
<event>
 4    1  0.4840632E-008  0.6571679E+03  0.7818608E-02  0.9793421E-01
          2   -1    0    0  501    0  0.00000000000E+00  0.00000000000E+00  0.17055532777E+04  0.17055532777E+04  0.25500000000E-02 0. -1.
         -2   -1    0    0    0  501 -0.00000000000E+00 -0.00000000000E+00 -0.36500296514E+03  0.36500296515E+03  0.25500000000E-02 0.  1.
    8880022    1    1    2    0    0  0.51255428667E+03  0.38179325596E+03  0.12432145456E+04  0.14062190607E+04  0.15294330000E+03 0.  0.
    8880022    1    1    2    0    0 -0.51255428667E+03 -0.38179325596E+03  0.97335766898E+02  0.66433718217E+03  0.15294330000E+03 0.  0.
<mgrwt>
<rscale>  0 0.65716789E+03</rscale>
<asrwt>0</asrwt>
<pdfrwt beam="1">  1        2 0.26239281E+00 0.65716789E+03</pdfrwt>
<pdfrwt beam="2">  1       -2 0.56154303E-01 0.65716789E+03</pdfrwt>
<totfact> 0.30130665E+01</totfact>
</mgrwt>
</event>
<event>
 4    1  0.4840632E-008  0.4518619E+03  0.7818608E-02  0.1027168E+00
         -2   -1    0    0    0  501 -0.00000000000E+00  0.00000000000E+00  0.14891676798E+04  0.14891676798E+04  0.25500000000E-02 0.  1.
          2   -1    0    0  501    0  0.00000000000E+00 -0.00000000000E+00 -0.40515147902E+03  0.40515147903E+03  0.25500000000E-02 0. -1.
    8880022    1    1    2    0    0 -0.84202327608E+02  0.41677034686E+03  0.13124071822E+04  0.13880172257E+04  0.15294330000E+03 0.  0.
    8880022    1    1    2    0    0  0.84202327608E+02 -0.41677034686E+03 -0.22839098146E+03  0.50630193307E+03  0.15294330000E+03 0.  0.
<mgrwt>
<rscale>  0 0.45186193E+03</rscale>
<asrwt>0</asrwt>
<pdfrwt beam="1">  1        2 0.62330996E-01 0.45186193E+03</pdfrwt>
<pdfrwt beam="2">  1       -2 0.22910272E+00 0.45186193E+03</pdfrwt>
<totfact> 0.72629383E+00</totfact>
</mgrwt>
</event>
<event>
 4    1  0.4840632E-008  0.1450995E+04  0.7818608E-02  0.8917711E-01
         -2   -1    0    0    0  501 -0.00000000000E+00  0.00000000000E+00  0.15440528641E+04  0.15440528641E+04  0.25500000000E-02 0.  1.
          2   -1    0    0  501    0  0.00000000000E+00 -0.00000000000E+00 -0.16892998009E+04  0.16892998009E+04  0.25500000000E-02 0. -1.
    8880022    1    1    2    0    0 -0.14399095461E+04 -0.93037954620E+02  0.63730470934E+03  0.15847853191E+04  0.15294330000E+03 0.  0.
    8880022    1    1    2    0    0  0.14399095461E+04  0.93037954620E+02 -0.78255164618E+03  0.16485673459E+04  0.15294330000E+03 0.  0.
<mgrwt>
<rscale>  0 0.14509952E+04</rscale>
<asrwt>0</asrwt>
<pdfrwt beam="1">  1        2 0.25989228E+00 0.14509952E+04</pdfrwt>
<pdfrwt beam="2">  1       -2 0.23754659E+00 0.14509952E+04</pdfrwt>
<totfact> 0.71991194E-01</totfact>
</mgrwt>
</event>
<event>
 4    1  0.4840632E-008  0.4772313E+03  0.7818608E-02  0.1019899E+00
          2   -1    0    0  501    0  0.00000000000E+00  0.00000000000E+00  0.22330323365E+04  0.22330323365E+04  0.25500000000E-02 0. -1.
         -2   -1    0    0    0  501 -0.00000000000E+00 -0.00000000000E+00 -0.22139813560E+03  0.22139813562E+03  0.25500000000E-02 0.  1.
    8880022    1    1    2    0    0  0.33708069221E+03 -0.30122195069E+03  0.10456044513E+03  0.48855152885E+03  0.15294330000E+03 0.  0.
    8880022    1    1    2    0    0 -0.33708069221E+03  0.30122195069E+03  0.19070737558E+04  0.19658789433E+04  0.15294330000E+03 0.  0.
<mgrwt>
<rscale>  0 0.47723130E+03</rscale>
<asrwt>0</asrwt>
<pdfrwt beam="1">  1        2 0.34354343E+00 0.47723130E+03</pdfrwt>
<pdfrwt beam="2">  1       -2 0.34061252E-01 0.47723130E+03</pdfrwt>
<totfact> 0.43220086E+01</totfact>
</mgrwt>
</event>
<event>
 4    1  0.4840632E-008  0.5899065E+03  0.7818608E-02  0.9926571E-01
          2   -1    0    0  501    0  0.00000000000E+00  0.00000000000E+00  0.13546046802E+04  0.13546046802E+04  0.25500000000E-02 0. -1.
         -2   -1    0    0    0  501 -0.00000000000E+00 -0.00000000000E+00 -0.30036444040E+03  0.30036444041E+03  0.25500000000E-02 0.  1.
    8880022    1    1    2    0    0 -0.90487008648E+02 -0.56250349466E+03  0.21232139713E+03  0.62695303567E+03  0.15294330000E+03 0.  0.
    8880022    1    1    2    0    0  0.90487008648E+02  0.56250349466E+03  0.84191884263E+03  0.10280160849E+04  0.15294330000E+03 0.  0.
<mgrwt>
<rscale>  0 0.58990655E+03</rscale>
<asrwt>0</asrwt>
<pdfrwt beam="1">  1        2 0.20840072E+00 0.58990655E+03</pdfrwt>
<pdfrwt beam="2">  1       -2 0.46209913E-01 0.58990655E+03</pdfrwt>
<totfact> 0.70667227E+01</totfact>
</mgrwt>
</event>
<event>
 4    1  0.4840632E-008  0.3131598E+03  0.7818608E-02  0.1078841E+00
         -2   -1    0    0    0  501 -0.00000000000E+00  0.00000000000E+00  0.51845670837E+02  0.51845670900E+02  0.25500000000E-02 0.  1.
          2   -1    0    0  501    0  0.00000000000E+00 -0.00000000000E+00 -0.37543097553E+04  0.37543097553E+04  0.25500000000E-02 0. -1.
    8880022    1    1    2    0    0 -0.27307782827E+03  0.10290772450E+02 -0.51072514355E+03  0.59909033172E+03  0.15294330000E+03 0.  0.
    8880022    1    1    2    0    0  0.27307782827E+03 -0.10290772450E+02 -0.31917389410E+04  0.32070650945E+04  0.15294330000E+03 0.  0.
<mgrwt>
<rscale>  0 0.31315979E+03</rscale>
<asrwt>0</asrwt>
<pdfrwt beam="1">  1        2 0.57758591E+00 0.31315979E+03</pdfrwt>
<pdfrwt beam="2">  1       -2 0.79762600E-02 0.31315979E+03</pdfrwt>
<totfact> 0.63482687E+01</totfact>
</mgrwt>
</event>
<event>
 4    1  0.4840632E-008  0.4164295E+03  0.7818608E-02  0.1038235E+00
         -2   -1    0    0    0  501 -0.00000000000E+00  0.00000000000E+00  0.11043633987E+04  0.11043633987E+04  0.25500000000E-02 0.  1.
          2   -1    0    0  501    0  0.00000000000E+00 -0.00000000000E+00 -0.36740591303E+03  0.36740591303E+03  0.25500000000E-02 0. -1.
    8880022    1    1    2    0    0 -0.31875801680E+03  0.22003448760E+03 -0.18837232904E+03  0.45705320956E+03  0.15294330000E+03 0.  0.
    8880022    1    1    2    0    0  0.31875801680E+03 -0.22003448760E+03  0.92532981473E+03  0.10147161022E+04  0.15294330000E+03 0.  0.
<mgrwt>
<rscale>  0 0.41642947E+03</rscale>
<asrwt>0</asrwt>
<pdfrwt beam="1">  1        2 0.56523987E-01 0.41642947E+03</pdfrwt>
<pdfrwt beam="2">  1       -2 0.16990206E+00 0.41642947E+03</pdfrwt>
<totfact> 0.19663363E+01</totfact>
</mgrwt>
</event>
<event>
 4    1  0.4840632E-008  0.7340025E+03  0.7818608E-02  0.9660788E-01
          2   -1    0    0  501    0  0.00000000000E+00  0.00000000000E+00  0.27509938716E+04  0.27509938716E+04  0.25500000000E-02 0. -1.
         -2   -1    0    0    0  501 -0.00000000000E+00 -0.00000000000E+00 -0.37710130429E+03  0.37710130430E+03  0.25500000000E-02 0.  1.
    8880022    1    1    2    0    0  0.45622092587E+03  0.55428374234E+03  0.22713008501E+04  0.23869577300E+04  0.15294330000E+03 0.  0.
    8880022    1    1    2    0    0 -0.45622092587E+03 -0.55428374234E+03  0.10259171721E+03  0.74113744588E+03  0.15294330000E+03 0.  0.
<mgrwt>
<rscale>  0 0.73400249E+03</rscale>
<asrwt>0</asrwt>
<pdfrwt beam="1">  1        2 0.42322984E+00 0.73400249E+03</pdfrwt>
<pdfrwt beam="2">  1       -2 0.58015583E-01 0.73400249E+03</pdfrwt>
<totfact> 0.72945333E+00</totfact>
</mgrwt>
</event>
<event>
 4    1  0.4840632E-008  0.5836170E+03  0.7818608E-02  0.9939991E-01
          2   -1    0    0  501    0  0.00000000000E+00  0.00000000000E+00  0.11905152551E+04  0.11905152551E+04  0.25500000000E-02 0. -1.
         -2   -1    0    0    0  501 -0.00000000000E+00 -0.00000000000E+00 -0.11429164274E+04  0.11429164274E+04  0.25500000000E-02 0.  1.
    8880022    1    1    2    0    0 -0.50299007580E+03  0.25341300378E+03  0.10339851624E+04  0.11873222544E+04  0.15294330000E+03 0.  0.
    8880022    1    1    2    0    0  0.50299007580E+03 -0.25341300378E+03 -0.98638633465E+03  0.11461094280E+04  0.15294330000E+03 0.  0.
<mgrwt>
<rscale>  0 0.58361701E+03</rscale>
<asrwt>0</asrwt>
<pdfrwt beam="1">  1        2 0.18315619E+00 0.58361701E+03</pdfrwt>
<pdfrwt beam="2">  1       -2 0.17583330E+00 0.58361701E+03</pdfrwt>
<totfact> 0.39168335E+00</totfact>
</mgrwt>
</event>
<event>
 4    1  0.4840632E-008  0.4659269E+03  0.7818608E-02  0.1023076E+00
          2   -1    0    0  501    0  0.00000000000E+00  0.00000000000E+00  0.30227372774E+04  0.30227372774E+04  0.25500000000E-02 0. -1.
         -2   -1    0    0    0  501 -0.00000000000E+00 -0.00000000000E+00 -0.89390086389E+02  0.89390086425E+02  0.25500000000E-02 0.  1.
    8880022    1    1    2    0    0  0.39134178323E+03 -0.20136496027E+03  0.77676669847E+03  0.90578937694E+03  0.15294330000E+03 0.  0.
    8880022    1    1    2    0    0 -0.39134178323E+03  0.20136496027E+03  0.21565804926E+04  0.22063379869E+04  0.15294330000E+03 0.  0.
<mgrwt>
<rscale>  0 0.46592692E+03</rscale>
<asrwt>0</asrwt>
<pdfrwt beam="1">  1        2 0.46503642E+00 0.46592692E+03</pdfrwt>
<pdfrwt beam="2">  1       -2 0.13752323E-01 0.46592692E+03</pdfrwt>
<totfact> 0.75783081E+01</totfact>
</mgrwt>
</event>
<event>
 4    1  0.4840632E-008  0.7629468E+03  0.7818608E-02  0.9615255E-01
          2   -1    0    0  501    0  0.00000000000E+00  0.00000000000E+00  0.18790981932E+04  0.18790981932E+04  0.25500000000E-02 0. -1.
         -2   -1    0    0    0  501 -0.00000000000E+00 -0.00000000000E+00 -0.52737551627E+03  0.52737551628E+03  0.25500000000E-02 0.  1.
    8880022    1    1    2    0    0  0.72449872526E+03 -0.18384171538E+03  0.14487666905E+04  0.16373798447E+04  0.15294330000E+03 0.  0.
    8880022    1    1    2    0    0 -0.72449872526E+03  0.18384171538E+03 -0.97044013616E+02  0.76909386476E+03  0.15294330000E+03 0.  0.
<mgrwt>
<rscale>  0 0.76294681E+03</rscale>
<asrwt>0</asrwt>
<pdfrwt beam="1">  1        2 0.28909203E+00 0.76294681E+03</pdfrwt>
<pdfrwt beam="2">  1       -2 0.81134694E-01 0.76294681E+03</pdfrwt>
<totfact> 0.10762557E+01</totfact>
</mgrwt>
</event>
<event>
 4    1  0.4840632E-008  0.2495676E+03  0.7818608E-02  0.1113578E+00
         -2   -1    0    0    0  501 -0.00000000000E+00  0.00000000000E+00  0.27823228471E+03  0.27823228473E+03  0.25500000000E-02 0.  1.
          2   -1    0    0  501    0  0.00000000000E+00 -0.00000000000E+00 -0.37724201855E+03  0.37724201856E+03  0.25500000000E-02 0. -1.
    8880022    1    1    2    0    0 -0.16998029213E+03 -0.99995187434E+02 -0.25848664049E+03  0.35930395705E+03  0.15294330000E+03 0.  0.
    8880022    1    1    2    0    0  0.16998029213E+03  0.99995187434E+02  0.15947690665E+03  0.29617034624E+03  0.15294330000E+03 0.  1.
<mgrwt>
<rscale>  0 0.24956761E+03</rscale>
<asrwt>0</asrwt>
<pdfrwt beam="1">  1        2 0.58037234E-01 0.24956761E+03</pdfrwt>
<pdfrwt beam="2">  1       -2 0.42804967E-01 0.24956761E+03</pdfrwt>
<totfact> 0.44737719E+02</totfact>
</mgrwt>
</event>
<event>
 4    1  0.4840632E-008  0.2055850E+03  0.7818608E-02  0.1145111E+00
          2   -1    0    0  501    0  0.00000000000E+00  0.00000000000E+00  0.27121283996E+04  0.27121283996E+04  0.25500000000E-02 0. -1.
         -2   -1    0    0    0  501 -0.00000000000E+00 -0.00000000000E+00 -0.29108876464E+02  0.29108876576E+02  0.25500000000E-02 0.  1.
    8880022    1    1    2    0    0 -0.59963732304E+02  0.12360382692E+03  0.40723606499E+03  0.45618682672E+03  0.15294330000E+03 0.  0.
    8880022    1    1    2    0    0  0.59963732304E+02 -0.12360382692E+03  0.22757834581E+04  0.22850504495E+04  0.15294330000E+03 0. -1.
<mgrwt>
<rscale>  0 0.20558504E+03</rscale>
<asrwt>0</asrwt>
<pdfrwt beam="1">  1        2 0.41725066E+00 0.20558504E+03</pdfrwt>
<pdfrwt beam="2">  1       -2 0.44782872E-02 0.20558504E+03</pdfrwt>
<totfact> 0.71823748E+02</totfact>
</mgrwt>
</event>
<event>
 4    1  0.4840632E-008  0.4369717E+03  0.7818608E-02  0.1031680E+00
         -2   -1    0    0    0  501 -0.00000000000E+00  0.00000000000E+00  0.25189970755E+03  0.25189970756E+03  0.25500000000E-02 0.  1.
          2   -1    0    0  501    0  0.00000000000E+00 -0.00000000000E+00 -0.28024729040E+04  0.28024729040E+04  0.25500000000E-02 0. -1.
    8880022    1    1    2    0    0 -0.27043428757E+02  0.40843753931E+03  0.29111627900E+02  0.43794030466E+03  0.15294330000E+03 0.  1.
    8880022    1    1    2    0    0  0.27043428757E+02 -0.40843753931E+03 -0.25796848243E+04  0.26164323069E+04  0.15294330000E+03 0.  0.
<mgrwt>
<rscale>  0 0.43697165E+03</rscale>
<asrwt>0</asrwt>
<pdfrwt beam="1">  1        2 0.43114965E+00 0.43697165E+03</pdfrwt>
<pdfrwt beam="2">  1       -2 0.38753803E-01 0.43697165E+03</pdfrwt>
<totfact> 0.16378636E+01</totfact>
</mgrwt>
</event>
<event>
 4    1  0.4840632E-008  0.1024743E+04  0.7818608E-02  0.9281816E-01
          2   -1    0    0  501    0  0.00000000000E+00  0.00000000000E+00  0.22019525960E+04  0.22019525960E+04  0.25500000000E-02 0. -1.
         -2   -1    0    0    0  501 -0.00000000000E+00 -0.00000000000E+00 -0.78190907930E+03  0.78190907930E+03  0.25500000000E-02 0.  1.
    8880022    1    1    2    0    0  0.71718110871E+03 -0.71579104633E+03 -0.22179703412E+03  0.10484708589E+04  0.15294330000E+03 0.  0.
    8880022    1    1    2    0    0 -0.71718110871E+03  0.71579104633E+03  0.16418405508E+04  0.19353908163E+04  0.15294330000E+03 0.  0.
<mgrwt>
<rscale>  0 0.10247425E+04</rscale>
<asrwt>0</asrwt>
<pdfrwt beam="1">  1        2 0.33876194E+00 0.10247425E+04</pdfrwt>
<pdfrwt beam="2">  1       -2 0.12029370E+00 0.10247425E+04</pdfrwt>
<totfact> 0.27146853E+00</totfact>
</mgrwt>
</event>
<event>
 4    1  0.4840632E-008  0.4732275E+03  0.7818608E-02  0.1021013E+00
         -2   -1    0    0    0  501 -0.00000000000E+00  0.00000000000E+00  0.19907547549E+03  0.19907547551E+03  0.25500000000E-02 0.  1.
          2   -1    0    0  501    0  0.00000000000E+00 -0.00000000000E+00 -0.22042104226E+04  0.22042104226E+04  0.25500000000E-02 0. -1.
    8880022    1    1    2    0    0 -0.25709991734E+03  0.36667728171E+03 -0.16171886486E+03  0.50009723123E+03  0.15294330000E+03 0.  0.
    8880022    1    1    2    0    0  0.25709991734E+03 -0.36667728171E+03 -0.18434160822E+04  0.19031886669E+04  0.15294330000E+03 0.  0.
<mgrwt>
<rscale>  0 0.47322748E+03</rscale>
<asrwt>0</asrwt>
<pdfrwt beam="1">  1        2 0.33910928E+00 0.47322748E+03</pdfrwt>
<pdfrwt beam="2">  1       -2 0.30626998E-01 0.47322748E+03</pdfrwt>
<totfact> 0.54673749E+01</totfact>
</mgrwt>
</event>
<event>
 4    1  0.4840632E-008  0.1794300E+04  0.7818608E-02  0.8709336E-01
          2   -1    0    0  501    0  0.00000000000E+00  0.00000000000E+00  0.15624556580E+04  0.15624556580E+04  0.25500000000E-02 0. -1.
         -2   -1    0    0    0  501 -0.00000000000E+00 -0.00000000000E+00 -0.25253558825E+04  0.25253558825E+04  0.25500000000E-02 0.  1.
    8880022    1    1    2    0    0 -0.64582628198E+03  0.16670425145E+04 -0.13583228855E+04  0.22504566305E+04  0.15294330000E+03 0.  0.
    8880022    1    1    2    0    0  0.64582628198E+03 -0.16670425145E+04  0.39542266095E+03  0.18373549100E+04  0.15294330000E+03 0.  0.
<mgrwt>
<rscale>  0 0.17943004E+04</rscale>
<asrwt>0</asrwt>
<pdfrwt beam="1">  1        2 0.24037779E+00 0.17943004E+04</pdfrwt>
<pdfrwt beam="2">  1       -2 0.38851629E+00 0.17943004E+04</pdfrwt>
<totfact> 0.94073644E-02</totfact>
</mgrwt>
</event>
<event>
 4    1  0.5086269E-008  0.4078080E+03  0.7818608E-02  0.1041109E+00
          2   -1    0    0  501    0  0.00000000000E+00  0.00000000000E+00  0.10166025701E+04  0.10166025701E+04  0.25500000000E-02 0. -1.
         -2   -1    0    0    0  501 -0.00000000000E+00 -0.00000000000E+00 -0.17187990635E+04  0.17187990635E+04  0.25500000000E-02 0.  1.
    8880022    1    1    2    0    0 -0.78247606188E+02  0.36985545672E+03 -0.16520846301E+04  0.17016730076E+04  0.15294330000E+03 0.  0.
    8880022    1    1    2    0    0  0.78247606188E+02 -0.36985545672E+03  0.94988813673E+03  0.10337286259E+04  0.15294330000E+03 0. -1.
<mgrwt>
<rscale>  0 0.40780804E+03</rscale>
<asrwt>0</asrwt>
<pdfrwt beam="1">  1        2 0.15640040E+00 0.40780804E+03</pdfrwt>
<pdfrwt beam="2">  1       -2 0.26443062E+00 0.40780804E+03</pdfrwt>
<totfact> 0.14526506E+00</totfact>
</mgrwt>
</event>
<event>
 4    1  0.4840632E-008  0.1644517E+03  0.7818608E-02  0.1183761E+00
          2   -1    0    0  501    0  0.00000000000E+00  0.00000000000E+00  0.67470577117E+03  0.67470577117E+03  0.25500000000E-02 0. -1.
         -2   -1    0    0    0  501 -0.00000000000E+00 -0.00000000000E+00 -0.45747639146E+03  0.45747639147E+03  0.25500000000E-02 0.  1.
    8880022    1    1    2    0    0  0.19332504876E+02 -0.57262287491E+02  0.64933744721E+03  0.66983840490E+03  0.15294330000E+03 0.  0.
    8880022    1    1    2    0    0 -0.19332504876E+02  0.57262287491E+02 -0.43210806750E+03  0.46234375775E+03  0.15294330000E+03 0.  1.
<mgrwt>
<rscale>  0 0.16445172E+03</rscale>
<asrwt>0</asrwt>
<pdfrwt beam="1">  1        2 0.10380089E+00 0.16445172E+03</pdfrwt>
<pdfrwt beam="2">  1       -2 0.70380983E-01 0.16445172E+03</pdfrwt>
<totfact> 0.85647054E+01</totfact>
</mgrwt>
</event>
<event>
 4    1  0.4840632E-008  0.4340270E+03  0.7818608E-02  0.1032595E+00
         -2   -1    0    0    0  501 -0.00000000000E+00  0.00000000000E+00  0.11145672318E+03  0.11145672321E+03  0.25500000000E-02 0.  1.
          2   -1    0    0  501    0  0.00000000000E+00 -0.00000000000E+00 -0.19245447184E+04  0.19245447184E+04  0.25500000000E-02 0. -1.
    8880022    1    1    2    0    0 -0.10522822789E+02 -0.40605059651E+03 -0.55128048685E+03  0.70163355459E+03  0.15294330000E+03 0.  0.
    8880022    1    1    2    0    0  0.10522822789E+02  0.40605059651E+03 -0.12618075084E+04  0.13343678871E+04  0.15294330000E+03 0.  0.
<mgrwt>
<rscale>  0 0.43402704E+03</rscale>
<asrwt>0</asrwt>
<pdfrwt beam="1">  1        2 0.29608378E+00 0.43402704E+03</pdfrwt>
<pdfrwt beam="2">  1       -2 0.17147190E-01 0.43402704E+03</pdfrwt>
<totfact> 0.21724572E+02</totfact>
</mgrwt>
</event>
<event>
 4    1  0.4840632E-008  0.1898814E+03  0.7818608E-02  0.1158568E+00
          2   -1    0    0  501    0  0.00000000000E+00  0.00000000000E+00  0.20591173558E+04  0.20591173558E+04  0.25500000000E-02 0. -1.
         -2   -1    0    0    0  501 -0.00000000000E+00 -0.00000000000E+00 -0.17730462468E+02  0.17730462652E+02  0.25500000000E-02 0.  1.
    8880022    1    1    2    0    0  0.10927910378E+03 -0.26858580670E+02  0.11365101044E+04  0.11522630673E+04  0.15294330000E+03 0. -1.
    8880022    1    1    2    0    0 -0.10927910378E+03  0.26858580670E+02  0.90487678895E+03  0.92458475116E+03  0.15294330000E+03 0.  1.
<mgrwt>
<rscale>  0 0.18988143E+03</rscale>
<asrwt>0</asrwt>
<pdfrwt beam="1">  1        2 0.31678732E+00 0.18988143E+03</pdfrwt>
<pdfrwt beam="2">  1       -2 0.27277631E-02 0.18988143E+03</pdfrwt>
<totfact> 0.33781356E+03</totfact>
</mgrwt>
</event>
<event>
 4    1  0.4840632E-008  0.9326888E+03  0.7818608E-02  0.9385617E-01
          2   -1    0    0  501    0  0.00000000000E+00  0.00000000000E+00  0.87891934621E+03  0.87891934622E+03  0.25500000000E-02 0. -1.
         -2   -1    0    0    0  501 -0.00000000000E+00 -0.00000000000E+00 -0.99556933252E+03  0.99556933252E+03  0.25500000000E-02 0.  1.
    8880022    1    1    2    0    0  0.15368861269E+03  0.90713643639E+03  0.13345658492E+02  0.93278425347E+03  0.15294330000E+03 0. -1.
    8880022    1    1    2    0    0 -0.15368861269E+03 -0.90713643639E+03 -0.12999564480E+03  0.94170442527E+03  0.15294330000E+03 0.  1.
<mgrwt>
<rscale>  0 0.93268878E+03</rscale>
<asrwt>0</asrwt>
<pdfrwt beam="1">  1        2 0.13521836E+00 0.93268878E+03</pdfrwt>
<pdfrwt beam="2">  1       -2 0.15316451E+00 0.93268878E+03</pdfrwt>
<totfact> 0.85701575E+00</totfact>
</mgrwt>
</event>
<event>
 4    1  0.4840632E-008  0.1246089E+04  0.7818608E-02  0.9073445E-01
         -2   -1    0    0    0  501 -0.00000000000E+00  0.00000000000E+00  0.10131129052E+04  0.10131129052E+04  0.25500000000E-02 0.  1.
          2   -1    0    0  501    0  0.00000000000E+00 -0.00000000000E+00 -0.18581129581E+04  0.18581129581E+04  0.25500000000E-02 0. -1.
    8880022    1    1    2    0    0 -0.10981911932E+04  0.56861411820E+03  0.17833968373E+03  0.12587861646E+04  0.15294330000E+03 0.  0.
    8880022    1    1    2    0    0  0.10981911932E+04 -0.56861411820E+03 -0.10233397366E+04  0.16124396987E+04  0.15294330000E+03 0.  0.
<mgrwt>
<rscale>  0 0.12460889E+04</rscale>
<asrwt>0</asrwt>
<pdfrwt beam="1">  1        2 0.28586353E+00 0.12460889E+04</pdfrwt>
<pdfrwt beam="2">  1       -2 0.15586352E+00 0.12460889E+04</pdfrwt>
<totfact> 0.20958684E+00</totfact>
</mgrwt>
</event>
<event>
 4    1  0.4840632E-008  0.1628429E+03  0.7818608E-02  0.1185524E+00
          2   -1    0    0  501    0  0.00000000000E+00  0.00000000000E+00  0.36128481431E+03  0.36128481432E+03  0.25500000000E-02 0. -1.
         -2   -1    0    0    0  501 -0.00000000000E+00 -0.00000000000E+00 -0.27829518919E+03  0.27829518920E+03  0.25500000000E-02 0.  1.
    8880022    1    1    2    0    0  0.55818886578E+02 -0.32287273011E+01  0.31589178770E+03  0.35539477673E+03  0.15294330000E+03 0. -1.
    8880022    1    1    2    0    0 -0.55818886578E+02  0.32287273011E+01 -0.23290216258E+03  0.28418522679E+03  0.15294330000E+03 0.  0.
<mgrwt>
<rscale>  0 0.16284295E+03</rscale>
<asrwt>0</asrwt>
<pdfrwt beam="1">  1        2 0.55582279E-01 0.16284295E+03</pdfrwt>
<pdfrwt beam="2">  1       -2 0.42814645E-01 0.16284295E+03</pdfrwt>
<totfact> 0.46905256E+02</totfact>
</mgrwt>
</event>
<event>
 4    1  0.4840632E-008  0.2216435E+03  0.7818608E-02  0.1132664E+00
         -2   -1    0    0    0  501 -0.00000000000E+00  0.00000000000E+00  0.13503614605E+04  0.13503614605E+04  0.25500000000E-02 0.  1.
          2   -1    0    0  501    0  0.00000000000E+00 -0.00000000000E+00 -0.99037263172E+03  0.99037263172E+03  0.25500000000E-02 0. -1.
    8880022    1    1    2    0    0 -0.60976603370E+02  0.14837796861E+03  0.13286645644E+04  0.13470246269E+04  0.15294330000E+03 0.  1.
    8880022    1    1    2    0    0  0.60976603370E+02 -0.14837796861E+03 -0.96867573561E+03  0.99370946534E+03  0.15294330000E+03 0.  0.
<mgrwt>
<rscale>  0 0.22164345E+03</rscale>
<asrwt>0</asrwt>
<pdfrwt beam="1">  1        2 0.15236502E+00 0.22164345E+03</pdfrwt>
<pdfrwt beam="2">  1       -2 0.20774792E+00 0.22164345E+03</pdfrwt>
<totfact> 0.35725913E+00</totfact>
</mgrwt>
</event>
<event>
 4    1  0.5978891E-008  0.9927215E+03  0.7818608E-02  0.9316564E-01
          2   -1    0    0  501    0  0.00000000000E+00  0.00000000000E+00  0.13665636019E+04  0.13665636019E+04  0.25500000000E-02 0. -1.
         -2   -1    0    0    0  501 -0.00000000000E+00 -0.00000000000E+00 -0.15899153629E+04  0.15899153629E+04  0.25500000000E-02 0.  1.
    8880022    1    1    2    0    0  0.45149061653E+03  0.87078161823E+03 -0.12043968532E+04  0.15607907728E+04  0.15294330000E+03 0.  0.
    8880022    1    1    2    0    0 -0.45149061653E+03 -0.87078161823E+03  0.98104509222E+03  0.13956881921E+04  0.15294330000E+03 0.  0.
<mgrwt>
<rscale>  0 0.99272154E+03</rscale>
<asrwt>0</asrwt>
<pdfrwt beam="1">  1        2 0.21024055E+00 0.99272154E+03</pdfrwt>
<pdfrwt beam="2">  1       -2 0.24460236E+00 0.99272154E+03</pdfrwt>
<totfact> 0.10471285E+00</totfact>
</mgrwt>
</event>
<event>
 4    1  0.4840632E-008  0.3844207E+03  0.7818608E-02  0.1049312E+00
          2   -1    0    0  501    0  0.00000000000E+00  0.00000000000E+00  0.16753077000E+04  0.16753077000E+04  0.25500000000E-02 0. -1.
         -2   -1    0    0    0  501 -0.00000000000E+00 -0.00000000000E+00 -0.25021341488E+03  0.25021341489E+03  0.25500000000E-02 0.  1.
    8880022    1    1    2    0    0 -0.47495592958E+02 -0.34947360208E+03 -0.62137179076E+02  0.38941021037E+03  0.15294330000E+03 0.  0.
    8880022    1    1    2    0    0  0.47495592958E+02  0.34947360208E+03  0.14872314642E+04  0.15361109045E+04  0.15294330000E+03 0.  0.
<mgrwt>
<rscale>  0 0.38442071E+03</rscale>
<asrwt>0</asrwt>
<pdfrwt beam="1">  1        2 0.25773964E+00 0.38442071E+03</pdfrwt>
<pdfrwt beam="2">  1       -2 0.38494372E-01 0.38442071E+03</pdfrwt>
<totfact> 0.69573164E+01</totfact>
</mgrwt>
</event>
<event>
 4    1  0.4840632E-008  0.5495324E+03  0.7818608E-02  0.1001602E+00
          2   -1    0    0  501    0  0.00000000000E+00  0.00000000000E+00  0.15705424440E+04  0.15705424440E+04  0.25500000000E-02 0. -1.
         -2   -1    0    0    0  501 -0.00000000000E+00 -0.00000000000E+00 -0.49212682281E+03  0.49212682281E+03  0.25500000000E-02 0.  1.
    8880022    1    1    2    0    0 -0.24355051457E+03  0.46827063487E+03 -0.26581815935E+03  0.61044671142E+03  0.15294330000E+03 0.  0.
    8880022    1    1    2    0    0  0.24355051457E+03 -0.46827063487E+03  0.13442337805E+04  0.14522225554E+04  0.15294330000E+03 0. -1.
<mgrwt>
<rscale>  0 0.54953243E+03</rscale>
<asrwt>0</asrwt>
<pdfrwt beam="1">  1        2 0.24162191E+00 0.54953243E+03</pdfrwt>
<pdfrwt beam="2">  1       -2 0.75711820E-01 0.54953243E+03</pdfrwt>
<totfact> 0.19130366E+01</totfact>
</mgrwt>
</event>
<event>
 4    1  0.4840632E-008  0.6694017E+03  0.7818608E-02  0.9771039E-01
         -2   -1    0    0    0  501 -0.00000000000E+00  0.00000000000E+00  0.38477461307E+03  0.38477461308E+03  0.25500000000E-02 0.  1.
          2   -1    0    0  501    0  0.00000000000E+00 -0.00000000000E+00 -0.18439410977E+04  0.18439410977E+04  0.25500000000E-02 0. -1.
    8880022    1    1    2    0    0  0.17748616906E+03 -0.62706107637E+03 -0.53183632716E+02  0.67151104645E+03  0.15294330000E+03 0.  0.
    8880022    1    1    2    0    0 -0.17748616906E+03  0.62706107637E+03 -0.14059828519E+04  0.15572046643E+04  0.15294330000E+03 0.  0.
<mgrwt>
<rscale>  0 0.66940166E+03</rscale>
<asrwt>0</asrwt>
<pdfrwt beam="1">  1        2 0.28368324E+00 0.66940166E+03</pdfrwt>
<pdfrwt beam="2">  1       -2 0.59196095E-01 0.66940166E+03</pdfrwt>
<totfact> 0.22652418E+01</totfact>
</mgrwt>
</event>
<event>
 4    1  0.4840632E-008  0.4819631E+03  0.7818608E-02  0.1018597E+00
         -2   -1    0    0    0  501 -0.00000000000E+00  0.00000000000E+00  0.49824557909E+03  0.49824557910E+03  0.25500000000E-02 0.  1.
          2   -1    0    0  501    0  0.00000000000E+00 -0.00000000000E+00 -0.29531340218E+04  0.29531340218E+04  0.25500000000E-02 0. -1.
    8880022    1    1    2    0    0  0.17612358675E+03 -0.42175500547E+03 -0.28110685676E+04  0.28520860694E+04  0.15294330000E+03 0.  0.
    8880022    1    1    2    0    0 -0.17612358675E+03  0.42175500547E+03  0.35618012494E+03  0.59929353147E+03  0.15294330000E+03 0.  0.
<mgrwt>
<rscale>  0 0.48196313E+03</rscale>
<asrwt>0</asrwt>
<pdfrwt beam="1">  1        2 0.45432830E+00 0.48196313E+03</pdfrwt>
<pdfrwt beam="2">  1       -2 0.76653168E-01 0.48196313E+03</pdfrwt>
<totfact> 0.32306537E+00</totfact>
</mgrwt>
</event>
<event>
 4    1  0.4840632E-008  0.2173573E+03  0.7818608E-02  0.1135869E+00
         -2   -1    0    0    0  501 -0.00000000000E+00  0.00000000000E+00  0.62166356350E+03  0.62166356351E+03  0.25500000000E-02 0.  1.
          2   -1    0    0  501    0  0.00000000000E+00 -0.00000000000E+00 -0.49688590324E+03  0.49688590324E+03  0.25500000000E-02 0. -1.
    8880022    1    1    2    0    0  0.56799047197E+02 -0.14361891908E+03  0.57712053645E+03  0.61669465077E+03  0.15294330000E+03 0.  0.
    8880022    1    1    2    0    0 -0.56799047197E+02  0.14361891908E+03 -0.45234287618E+03  0.50185481598E+03  0.15294330000E+03 0.  0.
<mgrwt>
<rscale>  0 0.21735726E+03</rscale>
<asrwt>0</asrwt>
<pdfrwt beam="1">  1        2 0.76443985E-01 0.21735726E+03</pdfrwt>
<pdfrwt beam="2">  1       -2 0.95640548E-01 0.21735726E+03</pdfrwt>
<totfact> 0.60942227E+01</totfact>
</mgrwt>
</event>
<event>
 4    1  0.4840632E-008  0.3737856E+03  0.7818608E-02  0.1053255E+00
         -2   -1    0    0    0  501 -0.00000000000E+00  0.00000000000E+00  0.13682763020E+03  0.13682763023E+03  0.25500000000E-02 0.  1.
          2   -1    0    0  501    0  0.00000000000E+00 -0.00000000000E+00 -0.30521275936E+04  0.30521275936E+04  0.25500000000E-02 0. -1.
    8880022    1    1    2    0    0  0.11828340642E+02  0.34085793248E+03 -0.15695874601E+03  0.40540318294E+03  0.15294330000E+03 0.  0.
    8880022    1    1    2    0    0 -0.11828340642E+02 -0.34085793248E+03 -0.27583412174E+04  0.27835520409E+04  0.15294330000E+03 0.  0.
<mgrwt>
<rscale>  0 0.37378562E+03</rscale>
<asrwt>0</asrwt>
<pdfrwt beam="1">  1        2 0.46955804E+00 0.37378562E+03</pdfrwt>
<pdfrwt beam="2">  1       -2 0.21050407E-01 0.37378562E+03</pdfrwt>
<totfact> 0.36177638E+01</totfact>
</mgrwt>
</event>
<event>
 4    1  0.4840632E-008  0.1847149E+03  0.7818608E-02  0.1163316E+00
          2   -1    0    0  501    0  0.00000000000E+00  0.00000000000E+00  0.12835111472E+04  0.12835111472E+04  0.25500000000E-02 0. -1.
         -2   -1    0    0    0  501 -0.00000000000E+00 -0.00000000000E+00 -0.88996355086E+03  0.88996355086E+03  0.25500000000E-02 0.  1.
    8880022    1    1    2    0    0 -0.52135956680E+02 -0.89497425552E+02  0.12671577993E+04  0.12805500726E+04  0.15294330000E+03 0. -1.
    8880022    1    1    2    0    0  0.52135956680E+02  0.89497425552E+02 -0.87361020291E+03  0.89292462549E+03  0.15294330000E+03 0.  0.
<mgrwt>
<rscale>  0 0.18471492E+03</rscale>
<asrwt>0</asrwt>
<pdfrwt beam="1">  1        2 0.19746325E+00 0.18471492E+03</pdfrwt>
<pdfrwt beam="2">  1       -2 0.13691747E+00 0.18471492E+03</pdfrwt>
<totfact> 0.76238734E+00</totfact>
</mgrwt>
</event>
<event>
 4    1  0.4840632E-008  0.8298225E+03  0.7818608E-02  0.9517826E-01
          2   -1    0    0  501    0  0.00000000000E+00  0.00000000000E+00  0.18694599876E+04  0.18694599876E+04  0.25500000000E-02 0. -1.
         -2   -1    0    0    0  501 -0.00000000000E+00 -0.00000000000E+00 -0.75062542506E+03  0.75062542507E+03  0.25500000000E-02 0.  1.
    8880022    1    1    2    0    0 -0.62057506558E+03 -0.52924504718E+03 -0.37548260693E+03  0.91081972591E+03  0.15294330000E+03 0.  0.
    8880022    1    1    2    0    0  0.62057506558E+03  0.52924504718E+03  0.14943171695E+04  0.17092656868E+04  0.15294330000E+03 0.  0.
<mgrwt>
<rscale>  0 0.82982250E+03</rscale>
<asrwt>0</asrwt>
<pdfrwt beam="1">  1        2 0.28760922E+00 0.82982250E+03</pdfrwt>
<pdfrwt beam="2">  1       -2 0.11548084E+00 0.82982250E+03</pdfrwt>
<totfact> 0.47026841E+00</totfact>
</mgrwt>
</event>
<event>
 4    1  0.4840632E-008  0.5969241E+03  0.7818608E-02  0.9911808E-01
         -2   -1    0    0    0  501 -0.00000000000E+00  0.00000000000E+00  0.27381100873E+03  0.27381100874E+03  0.25500000000E-02 0.  1.
          2   -1    0    0  501    0  0.00000000000E+00 -0.00000000000E+00 -0.23444930006E+04  0.23444930006E+04  0.25500000000E-02 0. -1.
    8880022    1    1    2    0    0  0.45385780435E+03 -0.35628617106E+03 -0.16208463720E+03  0.61853845870E+03  0.15294330000E+03 0.  0.
    8880022    1    1    2    0    0 -0.45385780435E+03  0.35628617106E+03 -0.19085973546E+04  0.19997655506E+04  0.15294330000E+03 0. -1.
<mgrwt>
<rscale>  0 0.59692411E+03</rscale>
<asrwt>0</asrwt>
<pdfrwt beam="1">  1        2 0.36069122E+00 0.59692411E+03</pdfrwt>
<pdfrwt beam="2">  1       -2 0.42124772E-01 0.59692411E+03</pdfrwt>
<totfact> 0.24381340E+01</totfact>
</mgrwt>
</event>
<event>
 4    1  0.4840632E-008  0.5396429E+03  0.7818608E-02  0.1003920E+00
          2   -1    0    0  501    0  0.00000000000E+00  0.00000000000E+00  0.64874623806E+03  0.64874623806E+03  0.25500000000E-02 0. -1.
         -2   -1    0    0    0  501 -0.00000000000E+00 -0.00000000000E+00 -0.10526111732E+04  0.10526111732E+04  0.25500000000E-02 0.  1.
    8880022    1    1    2    0    0  0.50298658212E+03  0.12176724996E+03 -0.84617662333E+03  0.10036081386E+04  0.15294330000E+03 0.  0.
    8880022    1    1    2    0    0 -0.50298658212E+03 -0.12176724996E+03  0.44231168820E+03  0.69774927266E+03  0.15294330000E+03 0.  0.
<mgrwt>
<rscale>  0 0.53964286E+03</rscale>
<asrwt>0</asrwt>
<pdfrwt beam="1">  1        2 0.99807114E-01 0.53964286E+03</pdfrwt>
<pdfrwt beam="2">  1       -2 0.16194018E+00 0.53964286E+03</pdfrwt>
<totfact> 0.11455201E+01</totfact>
</mgrwt>
</event>
<event>
 4    1  0.4840632E-008  0.2665113E+03  0.7818608E-02  0.1103293E+00
          2   -1    0    0  501    0  0.00000000000E+00  0.00000000000E+00  0.74021495465E+03  0.74021495465E+03  0.25500000000E-02 0. -1.
         -2   -1    0    0    0  501 -0.00000000000E+00 -0.00000000000E+00 -0.11193607680E+04  0.11193607680E+04  0.25500000000E-02 0.  1.
    8880022    1    1    2    0    0 -0.20314660448E+03  0.79800156942E+02  0.69946953375E+03  0.74852247102E+03  0.15294330000E+03 0.  0.
    8880022    1    1    2    0    0  0.20314660448E+03 -0.79800156942E+02 -0.10786153471E+04  0.11110532516E+04  0.15294330000E+03 0.  0.
<mgrwt>
<rscale>  0 0.26651128E+03</rscale>
<asrwt>0</asrwt>
<pdfrwt beam="1">  1        2 0.11387922E+00 0.26651128E+03</pdfrwt>
<pdfrwt beam="2">  1       -2 0.17220935E+00 0.26651128E+03</pdfrwt>
<totfact> 0.87485378E+00</totfact>
</mgrwt>
</event>
<event>
 4    1  0.4840632E-008  0.8965033E+03  0.7818608E-02  0.9429963E-01
          2   -1    0    0  501    0  0.00000000000E+00  0.00000000000E+00  0.99775541712E+03  0.99775541712E+03  0.25500000000E-02 0. -1.
         -2   -1    0    0    0  501 -0.00000000000E+00 -0.00000000000E+00 -0.15909563215E+04  0.15909563215E+04  0.25500000000E-02 0.  1.
    8880022    1    1    2    0    0 -0.29334977313E+03 -0.83323007689E+03  0.61284855386E+03  0.10859564694E+04  0.15294330000E+03 0.  0.
    8880022    1    1    2    0    0  0.29334977313E+03  0.83323007689E+03 -0.12060494583E+04  0.15027552692E+04  0.15294330000E+03 0.  0.
<mgrwt>
<rscale>  0 0.89650326E+03</rscale>
<asrwt>0</asrwt>
<pdfrwt beam="1">  1        2 0.15350083E+00 0.89650326E+03</pdfrwt>
<pdfrwt beam="2">  1       -2 0.24476251E+00 0.89650326E+03</pdfrwt>
<totfact> 0.17666416E+00</totfact>
</mgrwt>
</event>
<event>
 4    1  0.4840632E-008  0.2821467E+03  0.7818608E-02  0.1094522E+00
         -2   -1    0    0    0  501 -0.00000000000E+00  0.00000000000E+00  0.21666228069E+04  0.21666228069E+04  0.25500000000E-02 0.  1.
          2   -1    0    0  501    0  0.00000000000E+00 -0.00000000000E+00 -0.35702674597E+03  0.35702674598E+03  0.25500000000E-02 0. -1.
    8880022    1    1    2    0    0 -0.21872329348E+03 -0.91516313547E+02 -0.29033590850E+03  0.40484775847E+03  0.15294330000E+03 0. -1.
    8880022    1    1    2    0    0  0.21872329348E+03  0.91516313547E+02  0.20999319694E+04  0.21188017944E+04  0.15294330000E+03 0.  0.
<mgrwt>
<rscale>  0 0.28214671E+03</rscale>
<asrwt>0</asrwt>
<pdfrwt beam="1">  1        2 0.54927191E-01 0.28214671E+03</pdfrwt>
<pdfrwt beam="2">  1       -2 0.33332659E+00 0.28214671E+03</pdfrwt>
<totfact> 0.21113289E+00</totfact>
</mgrwt>
</event>
<event>
 4    1  0.4840632E-008  0.1174335E+04  0.7818608E-02  0.9135622E-01
         -2   -1    0    0    0  501 -0.00000000000E+00  0.00000000000E+00  0.17930636186E+04  0.17930636186E+04  0.25500000000E-02 0.  1.
          2   -1    0    0  501    0  0.00000000000E+00 -0.00000000000E+00 -0.22821762368E+04  0.22821762368E+04  0.25500000000E-02 0. -1.
    8880022    1    1    2    0    0 -0.82397829082E+03 -0.82263665591E+03  0.14145628453E+04  0.18384914979E+04  0.15294330000E+03 0.  0.
    8880022    1    1    2    0    0  0.82397829082E+03  0.82263665591E+03 -0.19036754635E+04  0.22367483575E+04  0.15294330000E+03 0.  0.
<mgrwt>
<rscale>  0 0.11743351E+04</rscale>
<asrwt>0</asrwt>
<pdfrwt beam="1">  1        2 0.35110404E+00 0.11743351E+04</pdfrwt>
<pdfrwt beam="2">  1       -2 0.27585594E+00 0.11743351E+04</pdfrwt>
<totfact> 0.20318740E-01</totfact>
</mgrwt>
</event>
<event>
 4    1  0.4840632E-008  0.2884858E+03  0.7818608E-02  0.1091142E+00
         -2   -1    0    0    0  501 -0.00000000000E+00  0.00000000000E+00  0.24660764196E+03  0.24660764197E+03  0.25500000000E-02 0.  1.
          2   -1    0    0  501    0  0.00000000000E+00 -0.00000000000E+00 -0.13262327094E+04  0.13262327094E+04  0.25500000000E-02 0. -1.
    8880022    1    1    2    0    0 -0.85985790015E+02 -0.22899525894E+03 -0.12188435475E+04  0.12525189145E+04  0.15294330000E+03 0.  0.
    8880022    1    1    2    0    0  0.85985790015E+02  0.22899525894E+03  0.13921848013E+03  0.32032143688E+03  0.15294330000E+03 0.  0.
<mgrwt>
<rscale>  0 0.28848577E+03</rscale>
<asrwt>0</asrwt>
<pdfrwt beam="1">  1        2 0.20403580E+00 0.28848577E+03</pdfrwt>
<pdfrwt beam="2">  1       -2 0.37939638E-01 0.28848577E+03</pdfrwt>
<totfact> 0.11282951E+02</totfact>
</mgrwt>
</event>
<event>
 4    1  0.4840632E-008  0.5480898E+03  0.7818608E-02  0.1001937E+00
          2   -1    0    0  501    0  0.00000000000E+00  0.00000000000E+00  0.13735696842E+04  0.13735696842E+04  0.25500000000E-02 0. -1.
         -2   -1    0    0    0  501 -0.00000000000E+00 -0.00000000000E+00 -0.57217333504E+03  0.57217333505E+03  0.25500000000E-02 0.  1.
    8880022    1    1    2    0    0 -0.41711254393E+03 -0.32097966917E+03 -0.36396250959E+03  0.65792946714E+03  0.15294330000E+03 0.  0.
    8880022    1    1    2    0    0  0.41711254393E+03  0.32097966917E+03  0.11653588588E+04  0.12878135521E+04  0.15294330000E+03 0. -1.
<mgrwt>
<rscale>  0 0.54808984E+03</rscale>
<asrwt>0</asrwt>
<pdfrwt beam="1">  1        2 0.21131841E+00 0.54808984E+03</pdfrwt>
<pdfrwt beam="2">  1       -2 0.88026667E-01 0.54808984E+03</pdfrwt>
<totfact> 0.17526960E+01</totfact>
</mgrwt>
</event>
<event>
 4    1  0.4840632E-008  0.7340648E+03  0.7818608E-02  0.9660687E-01
         -2   -1    0    0    0  501 -0.00000000000E+00  0.00000000000E+00  0.26150340726E+03  0.26150340728E+03  0.25500000000E-02 0.  1.
          2   -1    0    0  501    0  0.00000000000E+00 -0.00000000000E+00 -0.29909144724E+04  0.29909144724E+04  0.25500000000E-02 0. -1.
    8880022    1    1    2    0    0 -0.58197086712E+03 -0.42043943512E+03 -0.22716731636E+04  0.23873311509E+04  0.15294330000E+03 0. -1.
    8880022    1    1    2    0    0  0.58197086712E+03  0.42043943512E+03 -0.45773790150E+03  0.86508672875E+03  0.15294330000E+03 0.  0.
<mgrwt>
<rscale>  0 0.73406475E+03</rscale>
<asrwt>0</asrwt>
<pdfrwt beam="1">  1        2 0.46014066E+00 0.73406475E+03</pdfrwt>
<pdfrwt beam="2">  1       -2 0.40231296E-01 0.73406475E+03</pdfrwt>
<totfact> 0.10991396E+01</totfact>
</mgrwt>
</event>
<event>
 4    1  0.4840632E-008  0.1084116E+04  0.7818608E-02  0.9220813E-01
          2   -1    0    0  501    0  0.00000000000E+00  0.00000000000E+00  0.31470747203E+04  0.31470747203E+04  0.25500000000E-02 0. -1.
         -2   -1    0    0    0  501 -0.00000000000E+00 -0.00000000000E+00 -0.85302876249E+03  0.85302876250E+03  0.25500000000E-02 0.  1.
    8880022    1    1    2    0    0 -0.59615204175E+03  0.89247899261E+03 -0.35260893228E+03  0.11400178601E+04  0.15294330000E+03 0.  0.
    8880022    1    1    2    0    0  0.59615204175E+03 -0.89247899261E+03  0.26466548901E+04  0.28600856227E+04  0.15294330000E+03 0.  0.
<mgrwt>
<rscale>  0 0.10841161E+04</rscale>
<asrwt>0</asrwt>
<pdfrwt beam="1">  1        2 0.48416534E+00 0.10841161E+04</pdfrwt>
<pdfrwt beam="2">  1       -2 0.13123519E+00 0.10841161E+04</pdfrwt>
<totfact> 0.59919153E-01</totfact>
</mgrwt>
</event>
<event>
 4    1  0.5411221E-008  0.7198529E+03  0.7818608E-02  0.9683871E-01
         -2   -1    0    0    0  501 -0.00000000000E+00  0.00000000000E+00  0.63266967044E+03  0.63266967044E+03  0.25500000000E-02 0.  1.
          2   -1    0    0  501    0  0.00000000000E+00 -0.00000000000E+00 -0.20880398800E+04  0.20880398800E+04  0.25500000000E-02 0. -1.
    8880022    1    1    2    0    0 -0.58901022154E+03  0.38453017676E+03  0.33281778121E+03  0.79306735302E+03  0.15294330000E+03 0.  0.
    8880022    1    1    2    0    0  0.58901022154E+03 -0.38453017676E+03 -0.17881879908E+04  0.19276421974E+04  0.15294330000E+03 0.  0.
<mgrwt>
<rscale>  0 0.71985287E+03</rscale>
<asrwt>0</asrwt>
<pdfrwt beam="1">  1        2 0.32123690E+00 0.71985287E+03</pdfrwt>
<pdfrwt beam="2">  1       -2 0.97333797E-01 0.71985287E+03</pdfrwt>
<totfact> 0.54819860E+00</totfact>
</mgrwt>
</event>
<event>
 4    1  0.4840632E-008  0.8411514E+03  0.7818608E-02  0.9502291E-01
         -2   -1    0    0    0  501 -0.00000000000E+00  0.00000000000E+00  0.96191048159E+03  0.96191048160E+03  0.25500000000E-02 0.  1.
          2   -1    0    0  501    0  0.00000000000E+00 -0.00000000000E+00 -0.84790870718E+03  0.84790870718E+03  0.25500000000E-02 0. -1.
    8880022    1    1    2    0    0  0.76752040707E+03  0.30831235362E+03 -0.27240323331E+03  0.88416019883E+03  0.15294330000E+03 0.  0.
    8880022    1    1    2    0    0 -0.76752040707E+03 -0.30831235362E+03  0.38640500773E+03  0.92565898995E+03  0.15294330000E+03 0.  0.
<mgrwt>
<rscale>  0 0.84115143E+03</rscale>
<asrwt>0</asrwt>
<pdfrwt beam="1">  1        2 0.13044749E+00 0.84115143E+03</pdfrwt>
<pdfrwt beam="2">  1       -2 0.14798623E+00 0.84115143E+03</pdfrwt>
<totfact> 0.99542888E+00</totfact>
</mgrwt>
</event>
<event>
 4    1  0.4840632E-008  0.7490250E+03  0.7818608E-02  0.9636881E-01
         -2   -1    0    0    0  501 -0.00000000000E+00  0.00000000000E+00  0.27798385314E+03  0.27798385315E+03  0.25500000000E-02 0.  1.
          2   -1    0    0  501    0  0.00000000000E+00 -0.00000000000E+00 -0.29976659840E+04  0.29976659840E+04  0.25500000000E-02 0. -1.
    8880022    1    1    2    0    0 -0.57074383138E+03  0.46032409641E+03 -0.22960254939E+04  0.24151131477E+04  0.15294330000E+03 0.  0.
    8880022    1    1    2    0    0  0.57074383138E+03 -0.46032409641E+03 -0.42365663702E+03  0.86053668946E+03  0.15294330000E+03 0.  0.
<mgrwt>
<rscale>  0 0.74902500E+03</rscale>
<asrwt>0</asrwt>
<pdfrwt beam="1">  1        2 0.46117936E+00 0.74902500E+03</pdfrwt>
<pdfrwt beam="2">  1       -2 0.42766749E-01 0.74902500E+03</pdfrwt>
<totfact> 0.96306903E+00</totfact>
</mgrwt>
</event>
<event>
 4    1  0.4840632E-008  0.1828502E+03  0.7818608E-02  0.1165073E+00
         -2   -1    0    0    0  501 -0.00000000000E+00  0.00000000000E+00  0.10799928036E+04  0.10799928036E+04  0.25500000000E-02 0.  1.
          2   -1    0    0  501    0  0.00000000000E+00 -0.00000000000E+00 -0.99105539129E+03  0.99105539129E+03  0.25500000000E-02 0. -1.
    8880022    1    1    2    0    0  0.14216820101E+02 -0.99198965604E+02  0.10636910470E+04  0.10792927542E+04  0.15294330000E+03 0.  1.
    8880022    1    1    2    0    0 -0.14216820101E+02  0.99198965604E+02 -0.97475363471E+03  0.99175544069E+03  0.15294330000E+03 0.  0.
<mgrwt>
<rscale>  0 0.18285023E+03</rscale>
<asrwt>0</asrwt>
<pdfrwt beam="1">  1        2 0.15247006E+00 0.18285023E+03</pdfrwt>
<pdfrwt beam="2">  1       -2 0.16615274E+00 0.18285023E+03</pdfrwt>
<totfact> 0.68185915E+00</totfact>
</mgrwt>
</event>
<event>
 4    1  0.4840632E-008  0.6664182E+03  0.7818608E-02  0.9776450E-01
          2   -1    0    0  501    0  0.00000000000E+00  0.00000000000E+00  0.22851811522E+04  0.22851811522E+04  0.25500000000E-02 0. -1.
         -2   -1    0    0    0  501 -0.00000000000E+00 -0.00000000000E+00 -0.28227976143E+03  0.28227976144E+03  0.25500000000E-02 0.  1.
    8880022    1    1    2    0    0 -0.56568013586E+02  0.64615913445E+03  0.17179480726E+04  0.18426770743E+04  0.15294330000E+03 0.  0.
    8880022    1    1    2    0    0  0.56568013586E+02 -0.64615913445E+03  0.28495331823E+03  0.72478383935E+03  0.15294330000E+03 0.  0.
<mgrwt>
<rscale>  0 0.66641820E+03</rscale>
<asrwt>0</asrwt>
<pdfrwt beam="1">  1        2 0.35156632E+00 0.66641820E+03</pdfrwt>
<pdfrwt beam="2">  1       -2 0.43427657E-01 0.66641820E+03</pdfrwt>
<totfact> 0.24470538E+01</totfact>
</mgrwt>
</event>
<event>
 4    1  0.4840632E-008  0.3762823E+03  0.7818608E-02  0.1052316E+00
         -2   -1    0    0    0  501 -0.00000000000E+00  0.00000000000E+00  0.53783023143E+03  0.53783023143E+03  0.25500000000E-02 0.  1.
          2   -1    0    0  501    0  0.00000000000E+00 -0.00000000000E+00 -0.13877056706E+04  0.13877056706E+04  0.25500000000E-02 0. -1.
    8880022    1    1    2    0    0  0.19226173463E+03  0.28501252221E+03 -0.12915851958E+04  0.13452808939E+04  0.15294330000E+03 0.  0.
    8880022    1    1    2    0    0 -0.19226173463E+03 -0.28501252221E+03  0.44170975660E+03  0.58025500818E+03  0.15294330000E+03 0.  0.
<mgrwt>
<rscale>  0 0.37628229E+03</rscale>
<asrwt>0</asrwt>
<pdfrwt beam="1">  1        2 0.21349318E+00 0.37628229E+03</pdfrwt>
<pdfrwt beam="2">  1       -2 0.82743113E-01 0.37628229E+03</pdfrwt>
<totfact> 0.20491197E+01</totfact>
</mgrwt>
</event>
<event>
 4    1  0.4840632E-008  0.2306407E+03  0.7818608E-02  0.1126190E+00
          2   -1    0    0  501    0  0.00000000000E+00  0.00000000000E+00  0.77265054806E+03  0.77265054806E+03  0.25500000000E-02 0. -1.
         -2   -1    0    0    0  501 -0.00000000000E+00 -0.00000000000E+00 -0.18704204682E+03  0.18704204684E+03  0.25500000000E-02 0.  1.
    8880022    1    1    2    0    0  0.73697218678E+02 -0.15611597849E+03  0.67424849903E+03  0.71260519942E+03  0.15294330000E+03 0.  0.
    8880022    1    1    2    0    0 -0.73697218678E+02  0.15611597849E+03 -0.88639997789E+02  0.24708739548E+03  0.15294330000E+03 0.  0.
<mgrwt>
<rscale>  0 0.23064070E+03</rscale>
<asrwt>0</asrwt>
<pdfrwt beam="1">  1        2 0.11886931E+00 0.23064070E+03</pdfrwt>
<pdfrwt beam="2">  1       -2 0.28775700E-01 0.23064070E+03</pdfrwt>
<totfact> 0.41329449E+02</totfact>
</mgrwt>
</event>
<event>
 4    1  0.4840632E-008  0.9234928E+03  0.7818608E-02  0.9396682E-01
         -2   -1    0    0    0  501 -0.00000000000E+00  0.00000000000E+00  0.89842016982E+03  0.89842016982E+03  0.25500000000E-02 0.  1.
          2   -1    0    0  501    0  0.00000000000E+00 -0.00000000000E+00 -0.11159863899E+04  0.11159863899E+04  0.25500000000E-02 0. -1.
    8880022    1    1    2    0    0 -0.33954253705E+02  0.91010680139E+03 -0.49808201426E+03  0.10492495543E+04  0.15294330000E+03 0.  0.
    8880022    1    1    2    0    0  0.33954253705E+02 -0.91010680139E+03  0.28051579419E+03  0.96515700540E+03  0.15294330000E+03 0.  0.
<mgrwt>
<rscale>  0 0.92349279E+03</rscale>
<asrwt>0</asrwt>
<pdfrwt beam="1">  1        2 0.17169021E+00 0.92349279E+03</pdfrwt>
<pdfrwt beam="2">  1       -2 0.13821849E+00 0.92349279E+03</pdfrwt>
<totfact> 0.79013115E+00</totfact>
</mgrwt>
</event>
<event>
 4    1  0.4840632E-008  0.8620456E+03  0.7818608E-02  0.9474311E-01
         -2   -1    0    0    0  501 -0.00000000000E+00  0.00000000000E+00  0.55028995551E+03  0.55028995552E+03  0.25500000000E-02 0.  1.
          2   -1    0    0  501    0  0.00000000000E+00 -0.00000000000E+00 -0.18858550349E+04  0.18858550349E+04  0.25500000000E-02 0. -1.
    8880022    1    1    2    0    0  0.23179015745E+03 -0.81609087673E+03 -0.13168238082E+04  0.15738956735E+04  0.15294330000E+03 0.  0.
    8880022    1    1    2    0    0 -0.23179015745E+03  0.81609087673E+03 -0.18741271114E+02  0.86224931686E+03  0.15294330000E+03 0.  0.
<mgrwt>
<rscale>  0 0.86204562E+03</rscale>
<asrwt>0</asrwt>
<pdfrwt beam="1">  1        2 0.29013154E+00 0.86204562E+03</pdfrwt>
<pdfrwt beam="2">  1       -2 0.84659994E-01 0.86204562E+03</pdfrwt>
<totfact> 0.95601221E+00</totfact>
</mgrwt>
</event>
<event>
 4    1  0.4840632E-008  0.5985214E+03  0.7818608E-02  0.9908478E-01
          2   -1    0    0  501    0  0.00000000000E+00  0.00000000000E+00  0.14580979666E+04  0.14580979666E+04  0.25500000000E-02 0. -1.
         -2   -1    0    0    0  501 -0.00000000000E+00 -0.00000000000E+00 -0.76349092350E+03  0.76349092350E+03  0.25500000000E-02 0.  1.
    8880022    1    1    2    0    0  0.49059841402E+03 -0.30683779417E+03 -0.56747651711E+03  0.82477723432E+03  0.15294330000E+03 0.  0.
    8880022    1    1    2    0    0 -0.49059841402E+03  0.30683779417E+03  0.12620835602E+04  0.13968116558E+04  0.15294330000E+03 0.  0.
<mgrwt>
<rscale>  0 0.59852142E+03</rscale>
<asrwt>0</asrwt>
<pdfrwt beam="1">  1        2 0.22432276E+00 0.59852142E+03</pdfrwt>
<pdfrwt beam="2">  1       -2 0.11746014E+00 0.59852142E+03</pdfrwt>
<totfact> 0.78725754E+00</totfact>
</mgrwt>
</event>
<event>
 4    1  0.4840632E-008  0.4534086E+03  0.7818608E-02  0.1026710E+00
          2   -1    0    0  501    0  0.00000000000E+00  0.00000000000E+00  0.19253469915E+04  0.19253469915E+04  0.25500000000E-02 0. -1.
         -2   -1    0    0    0  501 -0.00000000000E+00 -0.00000000000E+00 -0.15195786175E+03  0.15195786178E+03  0.25500000000E-02 0.  1.
    8880022    1    1    2    0    0  0.33759088569E+03  0.26118984509E+03  0.32033224883E+03  0.55515055970E+03  0.15294330000E+03 0.  0.
    8880022    1    1    2    0    0 -0.33759088569E+03 -0.26118984509E+03  0.14530568809E+04  0.15221542935E+04  0.15294330000E+03 0.  0.
<mgrwt>
<rscale>  0 0.45340864E+03</rscale>
<asrwt>0</asrwt>
<pdfrwt beam="1">  1        2 0.29620724E+00 0.45340864E+03</pdfrwt>
<pdfrwt beam="2">  1       -2 0.23378132E-01 0.45340864E+03</pdfrwt>
<totfact> 0.12638647E+02</totfact>
</mgrwt>
</event>
<event>
 4    1  0.4840632E-008  0.3433396E+03  0.7818608E-02  0.1065382E+00
          2   -1    0    0  501    0  0.00000000000E+00  0.00000000000E+00  0.34426722864E+03  0.34426722864E+03  0.25500000000E-02 0. -1.
         -2   -1    0    0    0  501 -0.00000000000E+00 -0.00000000000E+00 -0.10581802708E+04  0.10581802708E+04  0.25500000000E-02 0.  1.
    8880022    1    1    2    0    0  0.82530126434E+02  0.29610678347E+03 -0.93367283922E+03  0.99480001643E+03  0.15294330000E+03 0.  0.
    8880022    1    1    2    0    0 -0.82530126434E+02 -0.29610678347E+03  0.21975979706E+03  0.40764748301E+03  0.15294330000E+03 0.  0.
<mgrwt>
<rscale>  0 0.34333963E+03</rscale>
<asrwt>0</asrwt>
<pdfrwt beam="1">  1        2 0.52964190E-01 0.34333963E+03</pdfrwt>
<pdfrwt beam="2">  1       -2 0.16279696E+00 0.34333963E+03</pdfrwt>
<totfact> 0.23986232E+01</totfact>
</mgrwt>
</event>
<event>
 4    1  0.5552858E-008  0.1241372E+04  0.7818608E-02  0.9077395E-01
         -2   -1    0    0    0  501 -0.00000000000E+00  0.00000000000E+00  0.14480444247E+04  0.14480444247E+04  0.25500000000E-02 0.  1.
          2   -1    0    0  501    0  0.00000000000E+00 -0.00000000000E+00 -0.19825205683E+04  0.19825205683E+04  0.25500000000E-02 0. -1.
    8880022    1    1    2    0    0 -0.12029075779E+04 -0.26575493416E+03 -0.14346517048E+04  0.18971635388E+04  0.15294330000E+03 0.  0.
    8880022    1    1    2    0    0  0.12029075779E+04  0.26575493416E+03  0.90017556116E+03  0.15334014543E+04  0.15294330000E+03 0.  0.
<mgrwt>
<rscale>  0 0.12413718E+04</rscale>
<asrwt>0</asrwt>
<pdfrwt beam="1">  1        2 0.30500316E+00 0.12413718E+04</pdfrwt>
<pdfrwt beam="2">  1       -2 0.22277606E+00 0.12413718E+04</pdfrwt>
<totfact> 0.62675208E-01</totfact>
</mgrwt>
</event>
<event>
 4    1  0.4840632E-008  0.8795253E+03  0.7818608E-02  0.9451544E-01
         -2   -1    0    0    0  501 -0.00000000000E+00  0.00000000000E+00  0.14667677211E+04  0.14667677211E+04  0.25500000000E-02 0.  1.
          2   -1    0    0  501    0  0.00000000000E+00 -0.00000000000E+00 -0.61716017135E+03  0.61716017135E+03  0.25500000000E-02 0. -1.
    8880022    1    1    2    0    0 -0.84837704891E+03 -0.17444049437E+03  0.82218712581E+03  0.12039752597E+04  0.15294330000E+03 0.  0.
    8880022    1    1    2    0    0  0.84837704891E+03  0.17444049437E+03  0.27420423962E+02  0.87995263274E+03  0.15294330000E+03 0.  0.
<mgrwt>
<rscale>  0 0.87952530E+03</rscale>
<asrwt>0</asrwt>
<pdfrwt beam="1">  1        2 0.94947719E-01 0.87952530E+03</pdfrwt>
<pdfrwt beam="2">  1       -2 0.22565657E+00 0.87952530E+03</pdfrwt>
<totfact> 0.44011700E+00</totfact>
</mgrwt>
</event>
<event>
 4    1  0.4840632E-008  0.2545157E+03  0.7818608E-02  0.1110484E+00
          2   -1    0    0  501    0  0.00000000000E+00  0.00000000000E+00  0.13128766764E+04  0.13128766764E+04  0.25500000000E-02 0. -1.
         -2   -1    0    0    0  501 -0.00000000000E+00 -0.00000000000E+00 -0.69220413544E+03  0.69220413544E+03  0.25500000000E-02 0.  1.
    8880022    1    1    2    0    0  0.53708883801E+02  0.19621908511E+03  0.12764853846E+04  0.13016117561E+04  0.15294330000E+03 0.  0.
    8880022    1    1    2    0    0 -0.53708883801E+02 -0.19621908511E+03 -0.65581284360E+03  0.70346905576E+03  0.15294330000E+03 0.  1.
<mgrwt>
<rscale>  0 0.25451567E+03</rscale>
<asrwt>0</asrwt>
<pdfrwt beam="1">  1        2 0.20198103E+00 0.25451567E+03</pdfrwt>
<pdfrwt beam="2">  1       -2 0.10649294E+00 0.25451567E+03</pdfrwt>
<totfact> 0.13083832E+01</totfact>
</mgrwt>
</event>
<event>
 4    1  0.4840632E-008  0.4501506E+03  0.7818608E-02  0.1027677E+00
         -2   -1    0    0    0  501 -0.00000000000E+00  0.00000000000E+00  0.73468195417E+03  0.73468195418E+03  0.25500000000E-02 0.  1.
          2   -1    0    0  501    0  0.00000000000E+00 -0.00000000000E+00 -0.55413828018E+03  0.55413828019E+03  0.25500000000E-02 0. -1.
    8880022    1    1    2    0    0  0.19925844960E+03  0.37355055331E+03  0.54696949996E+03  0.70838635822E+03  0.15294330000E+03 0.  0.
    8880022    1    1    2    0    0 -0.19925844960E+03 -0.37355055331E+03 -0.36642582597E+03  0.58043387614E+03  0.15294330000E+03 0.  0.
<mgrwt>
<rscale>  0 0.45015064E+03</rscale>
<asrwt>0</asrwt>
<pdfrwt beam="1">  1        2 0.85252044E-01 0.45015064E+03</pdfrwt>
<pdfrwt beam="2">  1       -2 0.11302799E+00 0.45015064E+03</pdfrwt>
<totfact> 0.34984945E+01</totfact>
</mgrwt>
</event>
<event>
 4    1  0.4840632E-008  0.5289780E+03  0.7818608E-02  0.1006480E+00
         -2   -1    0    0    0  501 -0.00000000000E+00  0.00000000000E+00  0.29775344755E+03  0.29775344756E+03  0.25500000000E-02 0.  1.
          2   -1    0    0  501    0  0.00000000000E+00 -0.00000000000E+00 -0.14293085193E+04  0.14293085193E+04  0.25500000000E-02 0. -1.
    8880022    1    1    2    0    0 -0.30483932252E+03 -0.40435018683E+03 -0.10711497672E+04  0.11946462083E+04  0.15294330000E+03 0.  0.
    8880022    1    1    2    0    0  0.30483932252E+03  0.40435018683E+03 -0.60405304528E+02  0.53241575857E+03  0.15294330000E+03 0.  0.
<mgrwt>
<rscale>  0 0.52897801E+03</rscale>
<asrwt>0</asrwt>
<pdfrwt beam="1">  1        2 0.21989361E+00 0.52897801E+03</pdfrwt>
<pdfrwt beam="2">  1       -2 0.45808224E-01 0.52897801E+03</pdfrwt>
<totfact> 0.65812262E+01</totfact>
</mgrwt>
</event>
<event>
 4    1  0.4840632E-008  0.2319822E+03  0.7818608E-02  0.1125252E+00
          2   -1    0    0  501    0  0.00000000000E+00  0.00000000000E+00  0.12062277207E+04  0.12062277207E+04  0.25500000000E-02 0. -1.
         -2   -1    0    0    0  501 -0.00000000000E+00 -0.00000000000E+00 -0.19379527830E+03  0.19379527832E+03  0.25500000000E-02 0.  1.
    8880022    1    1    2    0    0 -0.15129647303E+03 -0.86795433847E+02 -0.10795496554E+03  0.25587105676E+03  0.15294330000E+03 0.  1.
    8880022    1    1    2    0    0  0.15129647303E+03  0.86795433847E+02  0.11203874080E+04  0.11441519423E+04  0.15294330000E+03 0.  0.
<mgrwt>
<rscale>  0 0.23198216E+03</rscale>
<asrwt>0</asrwt>
<pdfrwt beam="1">  1        2 0.18557350E+00 0.23198216E+03</pdfrwt>
<pdfrwt beam="2">  1       -2 0.29814658E-01 0.23198216E+03</pdfrwt>
<totfact> 0.20845854E+02</totfact>
</mgrwt>
</event>
<event>
 4    1  0.4840632E-008  0.2779368E+03  0.7818608E-02  0.1096821E+00
          2   -1    0    0  501    0  0.00000000000E+00  0.00000000000E+00  0.12676113789E+03  0.12676113791E+03  0.25500000000E-02 0. -1.
         -2   -1    0    0    0  501 -0.00000000000E+00 -0.00000000000E+00 -0.11861367149E+04  0.11861367149E+04  0.25500000000E-02 0.  1.
    8880022    1    1    2    0    0  0.18642174396E+03  0.13821765085E+03 -0.71945979252E+02  0.28709765338E+03  0.15294330000E+03 0.  0.
    8880022    1    1    2    0    0 -0.18642174396E+03 -0.13821765085E+03 -0.98742959775E+03  0.10258001994E+04  0.15294330000E+03 0.  1.
<mgrwt>
<rscale>  0 0.27793675E+03</rscale>
<asrwt>0</asrwt>
<pdfrwt beam="1">  1        2 0.19501714E-01 0.27793675E+03</pdfrwt>
<pdfrwt beam="2">  1       -2 0.18248256E+00 0.27793675E+03</pdfrwt>
<totfact> 0.53712352E+01</totfact>
</mgrwt>
</event>
<event>
 4    1  0.4840632E-008  0.6837149E+03  0.7818608E-02  0.9745494E-01
         -2   -1    0    0    0  501 -0.00000000000E+00  0.00000000000E+00  0.12416376759E+03  0.12416376762E+03  0.25500000000E-02 0.  1.
          2   -1    0    0  501    0  0.00000000000E+00 -0.00000000000E+00 -0.51207105234E+04  0.51207105234E+04  0.25500000000E-02 0. -1.
    8880022    1    1    2    0    0  0.23837225534E+02  0.66596261112E+03 -0.38476619511E+04  0.39079366110E+04  0.15294330000E+03 0.  0.
    8880022    1    1    2    0    0 -0.23837225534E+02 -0.66596261112E+03 -0.11488848047E+04  0.13369376800E+04  0.15294330000E+03 0.  1.
<mgrwt>
<rscale>  0 0.68371490E+03</rscale>
<asrwt>0</asrwt>
<pdfrwt beam="1">  1        2 0.78780146E+00 0.68371490E+03</pdfrwt>
<pdfrwt beam="2">  1       -2 0.19102122E-01 0.68371490E+03</pdfrwt>
<totfact> 0.66602731E-01</totfact>
</mgrwt>
</event>
<event>
 4    1  0.4840632E-008  0.6742865E+03  0.7818608E-02  0.9762245E-01
          2   -1    0    0  501    0  0.00000000000E+00  0.00000000000E+00  0.73285692668E+03  0.73285692668E+03  0.25500000000E-02 0. -1.
         -2   -1    0    0    0  501 -0.00000000000E+00 -0.00000000000E+00 -0.10101701203E+04  0.10101701203E+04  0.25500000000E-02 0.  1.
    8880022    1    1    2    0    0 -0.65613217682E+03 -0.27590965214E+02 -0.68001231850E+03  0.95764247042E+03  0.15294330000E+03 0.  0.
    8880022    1    1    2    0    0  0.65613217682E+03  0.27590965214E+02  0.40269912492E+03  0.78538457653E+03  0.15294330000E+03 0.  0.
<mgrwt>
<rscale>  0 0.67428655E+03</rscale>
<asrwt>0</asrwt>
<pdfrwt beam="1">  1        2 0.11274722E+00 0.67428655E+03</pdfrwt>
<pdfrwt beam="2">  1       -2 0.15541079E+00 0.67428655E+03</pdfrwt>
<totfact> 0.10794101E+01</totfact>
</mgrwt>
</event>
<event>
 4    1  0.4840632E-008  0.8330561E+03  0.7818608E-02  0.9513365E-01
          2   -1    0    0  501    0  0.00000000000E+00  0.00000000000E+00  0.17679108942E+04  0.17679108942E+04  0.25500000000E-02 0. -1.
         -2   -1    0    0    0  501 -0.00000000000E+00 -0.00000000000E+00 -0.41394897487E+03  0.41394897488E+03  0.25500000000E-02 0.  1.
    8880022    1    1    2    0    0 -0.20534503849E+03  0.79273214426E+03  0.92505577205E+03  0.12448737574E+04  0.15294330000E+03 0.  0.
    8880022    1    1    2    0    0  0.20534503849E+03 -0.79273214426E+03  0.42890614732E+03  0.93698611174E+03  0.15294330000E+03 0.  0.
<mgrwt>
<rscale>  0 0.83305611E+03</rscale>
<asrwt>0</asrwt>
<pdfrwt beam="1">  1        2 0.27198629E+00 0.83305611E+03</pdfrwt>
<pdfrwt beam="2">  1       -2 0.63684458E-01 0.83305611E+03</pdfrwt>
<totfact> 0.20888044E+01</totfact>
</mgrwt>
</event>
<event>
 4    1  0.4840632E-008  0.3967134E+03  0.7818608E-02  0.1044924E+00
          2   -1    0    0  501    0  0.00000000000E+00  0.00000000000E+00  0.38320348695E+03  0.38320348696E+03  0.25500000000E-02 0. -1.
         -2   -1    0    0    0  501 -0.00000000000E+00 -0.00000000000E+00 -0.56624910778E+03  0.56624910779E+03  0.25500000000E-02 0.  1.
    8880022    1    1    2    0    0  0.32268034954E+03 -0.17282145013E+03  0.15729064384E+03  0.42675737985E+03  0.15294330000E+03 0.  0.
    8880022    1    1    2    0    0 -0.32268034954E+03  0.17282145013E+03 -0.34033626467E+03  0.52269521489E+03  0.15294330000E+03 0.  0.
<mgrwt>
<rscale>  0 0.39671339E+03</rscale>
<asrwt>0</asrwt>
<pdfrwt beam="1">  1        2 0.58954383E-01 0.39671339E+03</pdfrwt>
<pdfrwt beam="2">  1       -2 0.87115247E-01 0.39671339E+03</pdfrwt>
<totfact> 0.98249420E+01</totfact>
</mgrwt>
</event>
<event>
 4    1  0.4840632E-008  0.4526172E+03  0.7818608E-02  0.1026944E+00
          2   -1    0    0  501    0  0.00000000000E+00  0.00000000000E+00  0.61803633286E+03  0.61803633287E+03  0.25500000000E-02 0. -1.
         -2   -1    0    0    0  501 -0.00000000000E+00 -0.00000000000E+00 -0.50450275878E+03  0.50450275879E+03  0.25500000000E-02 0.  1.
    8880022    1    1    2    0    0 -0.42544085855E+03  0.21696965438E+02  0.38546712548E+03  0.59451428937E+03  0.15294330000E+03 0.  0.
    8880022    1    1    2    0    0  0.42544085855E+03 -0.21696965438E+02 -0.27193355140E+03  0.52802480228E+03  0.15294330000E+03 0.  0.
<mgrwt>
<rscale>  0 0.45261721E+03</rscale>
<asrwt>0</asrwt>
<pdfrwt beam="1">  1        2 0.95082512E-01 0.45261721E+03</pdfrwt>
<pdfrwt beam="2">  1       -2 0.77615809E-01 0.45261721E+03</pdfrwt>
<totfact> 0.73383244E+01</totfact>
</mgrwt>
</event>
<event>
 4    1  0.4840632E-008  0.5045199E+03  0.7818608E-02  0.1012606E+00
         -2   -1    0    0    0  501 -0.00000000000E+00  0.00000000000E+00  0.30268248496E+03  0.30268248497E+03  0.25500000000E-02 0.  1.
          2   -1    0    0  501    0  0.00000000000E+00 -0.00000000000E+00 -0.96760596241E+03  0.96760596241E+03  0.25500000000E-02 0. -1.
    8880022    1    1    2    0    0  0.40208101621E+03  0.26358974102E+03 -0.56225572874E+03  0.75542825780E+03  0.15294330000E+03 0.  0.
    8880022    1    1    2    0    0 -0.40208101621E+03 -0.26358974102E+03 -0.10266774871E+03  0.51486018958E+03  0.15294330000E+03 0.  0.
<mgrwt>
<rscale>  0 0.50451992E+03</rscale>
<asrwt>0</asrwt>
<pdfrwt beam="1">  1        2 0.14886245E+00 0.50451992E+03</pdfrwt>
<pdfrwt beam="2">  1       -2 0.46566537E-01 0.50451992E+03</pdfrwt>
<totfact> 0.11945746E+02</totfact>
</mgrwt>
</event>
<event>
 4    1  0.4840632E-008  0.2232274E+03  0.7818608E-02  0.1131499E+00
          2   -1    0    0  501    0  0.00000000000E+00  0.00000000000E+00  0.13905449571E+04  0.13905449571E+04  0.25500000000E-02 0. -1.
         -2   -1    0    0    0  501 -0.00000000000E+00 -0.00000000000E+00 -0.10968118770E+03  0.10968118773E+03  0.25500000000E-02 0.  1.
    8880022    1    1    2    0    0  0.82090849143E+02 -0.14035642418E+03  0.12559262066E+04  0.12756100983E+04  0.15294330000E+03 0.  0.
    8880022    1    1    2    0    0 -0.82090849143E+02  0.14035642418E+03  0.24937562777E+02  0.22461604656E+03  0.15294330000E+03 0.  0.
<mgrwt>
<rscale>  0 0.22322743E+03</rscale>
<asrwt>0</asrwt>
<pdfrwt beam="1">  1        2 0.21392999E+00 0.22322743E+03</pdfrwt>
<pdfrwt beam="2">  1       -2 0.16874029E-01 0.22322743E+03</pdfrwt>
<totfact> 0.44482555E+02</totfact>
</mgrwt>
</event>
<event>
 4    1  0.4840632E-008  0.2436893E+03  0.7818608E-02  0.1117359E+00
          2   -1    0    0  501    0  0.00000000000E+00  0.00000000000E+00  0.64933480985E+03  0.64933480986E+03  0.25500000000E-02 0. -1.
         -2   -1    0    0    0  501 -0.00000000000E+00 -0.00000000000E+00 -0.19225609394E+03  0.19225609396E+03  0.25500000000E-02 0.  1.
    8880022    1    1    2    0    0 -0.29825897749E+02  0.18735858469E+03 -0.76155452658E+02  0.25531182780E+03  0.15294330000E+03 0.  0.
    8880022    1    1    2    0    0  0.29825897749E+02 -0.18735858469E+03  0.53323416857E+03  0.58627907602E+03  0.15294330000E+03 0.  0.
<mgrwt>
<rscale>  0 0.24368930E+03</rscale>
<asrwt>0</asrwt>
<pdfrwt beam="1">  1        2 0.99897662E-01 0.24368930E+03</pdfrwt>
<pdfrwt beam="2">  1       -2 0.29577861E-01 0.24368930E+03</pdfrwt>
<totfact> 0.48563239E+02</totfact>
</mgrwt>
</event>
<event>
 4    1  0.4840632E-008  0.8330779E+03  0.7818608E-02  0.9513335E-01
         -2   -1    0    0    0  501 -0.00000000000E+00  0.00000000000E+00  0.95019820193E+03  0.95019820193E+03  0.25500000000E-02 0.  1.
          2   -1    0    0  501    0  0.00000000000E+00 -0.00000000000E+00 -0.14888624325E+04  0.14888624325E+04  0.25500000000E-02 0. -1.
    8880022    1    1    2    0    0 -0.17832470857E+03 -0.79926683592E+03  0.60109846708E+03  0.10272965477E+04  0.15294330000E+03 0.  0.
    8880022    1    1    2    0    0  0.17832470857E+03  0.79926683592E+03 -0.11397626976E+04  0.14117640867E+04  0.15294330000E+03 0.  0.
<mgrwt>
<rscale>  0 0.83307793E+03</rscale>
<asrwt>0</asrwt>
<pdfrwt beam="1">  1        2 0.22905576E+00 0.83307793E+03</pdfrwt>
<pdfrwt beam="2">  1       -2 0.14618434E+00 0.83307793E+03</pdfrwt>
<totfact> 0.41877021E+00</totfact>
</mgrwt>
</event>
<event>
 4    1  0.4840632E-008  0.3174945E+03  0.7818608E-02  0.1076808E+00
          2   -1    0    0  501    0  0.00000000000E+00  0.00000000000E+00  0.15259596364E+04  0.15259596364E+04  0.25500000000E-02 0. -1.
         -2   -1    0    0    0  501 -0.00000000000E+00 -0.00000000000E+00 -0.67467827495E+02  0.67467827543E+02  0.25500000000E-02 0.  1.
    8880022    1    1    2    0    0 -0.25036901429E+03  0.12135257644E+03  0.61410070932E+03  0.69131933673E+03  0.15294330000E+03 0. -1.
    8880022    1    1    2    0    0  0.25036901429E+03 -0.12135257644E+03  0.84439109958E+03  0.90210812722E+03  0.15294330000E+03 0.  1.
<mgrwt>
<rscale>  0 0.31749448E+03</rscale>
<asrwt>0</asrwt>
<pdfrwt beam="1">  1        2 0.23476301E+00 0.31749448E+03</pdfrwt>
<pdfrwt beam="2">  1       -2 0.10379666E-01 0.31749448E+03</pdfrwt>
<totfact> 0.82424868E+02</totfact>
</mgrwt>
</event>
<event>
 4    1  0.4840632E-008  0.1749442E+03  0.7818608E-02  0.1172788E+00
          2   -1    0    0  501    0  0.00000000000E+00  0.00000000000E+00  0.18829122543E+04  0.18829122543E+04  0.25500000000E-02 0. -1.
         -2   -1    0    0    0  501 -0.00000000000E+00 -0.00000000000E+00 -0.28092539139E+02  0.28092539255E+02  0.25500000000E-02 0.  1.
    8880022    1    1    2    0    0 -0.55562696794E+02 -0.64238670067E+02  0.15476777892E+04  0.15575339521E+04  0.15294330000E+03 0. -1.
    8880022    1    1    2    0    0  0.55562696794E+02  0.64238670067E+02  0.30714192600E+03  0.35347084142E+03  0.15294330000E+03 0.  0.
<mgrwt>
<rscale>  0 0.17494420E+03</rscale>
<asrwt>0</asrwt>
<pdfrwt beam="1">  1        2 0.28967884E+00 0.17494420E+03</pdfrwt>
<pdfrwt beam="2">  1       -2 0.43219286E-02 0.17494420E+03</pdfrwt>
<totfact> 0.21024714E+03</totfact>
</mgrwt>
</event>
<event>
 4    1  0.4840632E-008  0.6698190E+03  0.7818608E-02  0.9770285E-01
         -2   -1    0    0    0  501 -0.00000000000E+00  0.00000000000E+00  0.23902347047E+03  0.23902347048E+03  0.25500000000E-02 0.  1.
          2   -1    0    0  501    0  0.00000000000E+00 -0.00000000000E+00 -0.37224673689E+04  0.37224673689E+04  0.25500000000E-02 0. -1.
    8880022    1    1    2    0    0  0.52136205700E+03  0.39172368460E+03 -0.34708471072E+03  0.75440392959E+03  0.15294330000E+03 0.  0.
    8880022    1    1    2    0    0 -0.52136205700E+03 -0.39172368460E+03 -0.31363591877E+04  0.32070869098E+04  0.15294330000E+03 0.  0.
<mgrwt>
<rscale>  0 0.66981900E+03</rscale>
<asrwt>0</asrwt>
<pdfrwt beam="1">  1        2 0.57268725E+00 0.66981900E+03</pdfrwt>
<pdfrwt beam="2">  1       -2 0.36772844E-01 0.66981900E+03</pdfrwt>
<totfact> 0.43573462E+00</totfact>
</mgrwt>
</event>
<event>
 4    1  0.4840632E-008  0.3854187E+03  0.7818608E-02  0.1048949E+00
          2   -1    0    0  501    0  0.00000000000E+00  0.00000000000E+00  0.12178018430E+04  0.12178018430E+04  0.25500000000E-02 0. -1.
         -2   -1    0    0    0  501 -0.00000000000E+00 -0.00000000000E+00 -0.12895509380E+04  0.12895509380E+04  0.25500000000E-02 0.  1.
    8880022    1    1    2    0    0  0.35369153019E+03 -0.76318555550E+01 -0.12287849206E+04  0.12878120895E+04  0.15294330000E+03 0.  0.
    8880022    1    1    2    0    0 -0.35369153019E+03  0.76318555550E+01  0.11570358255E+04  0.12195406916E+04  0.15294330000E+03 0.  0.
<mgrwt>
<rscale>  0 0.38541873E+03</rscale>
<asrwt>0</asrwt>
<pdfrwt beam="1">  1        2 0.18735413E+00 0.38541873E+03</pdfrwt>
<pdfrwt beam="2">  1       -2 0.19839245E+00 0.38541873E+03</pdfrwt>
<totfact> 0.28073508E+00</totfact>
</mgrwt>
</event>
<event>
 4    1  0.4840632E-008  0.3631754E+03  0.7818608E-02  0.1057334E+00
          2   -1    0    0  501    0  0.00000000000E+00  0.00000000000E+00  0.14270357680E+04  0.14270357680E+04  0.25500000000E-02 0. -1.
         -2   -1    0    0    0  501 -0.00000000000E+00 -0.00000000000E+00 -0.12915674164E+03  0.12915674167E+03  0.25500000000E-02 0.  1.
    8880022    1    1    2    0    0 -0.98758837051E+02  0.31424738553E+03  0.10638790110E+04  0.11241596551E+04  0.15294330000E+03 0. -1.
    8880022    1    1    2    0    0  0.98758837051E+02 -0.31424738553E+03  0.23400001541E+03  0.43203285458E+03  0.15294330000E+03 0.  1.
<mgrwt>
<rscale>  0 0.36317541E+03</rscale>
<asrwt>0</asrwt>
<pdfrwt beam="1">  1        2 0.21954396E+00 0.36317541E+03</pdfrwt>
<pdfrwt beam="2">  1       -2 0.19870268E-01 0.36317541E+03</pdfrwt>
<totfact> 0.31557438E+02</totfact>
</mgrwt>
</event>
<event>
 4    1  0.4840632E-008  0.9746027E+03  0.7818608E-02  0.9336847E-01
          2   -1    0    0  501    0  0.00000000000E+00  0.00000000000E+00  0.76319834364E+03  0.76319834364E+03  0.25500000000E-02 0. -1.
         -2   -1    0    0    0  501 -0.00000000000E+00 -0.00000000000E+00 -0.12997380529E+04  0.12997380529E+04  0.25500000000E-02 0.  1.
    8880022    1    1    2    0    0 -0.95910365803E+03  0.81110136773E+02 -0.48078477875E+03  0.10867402347E+04  0.15294330000E+03 0.  0.
    8880022    1    1    2    0    0  0.95910365803E+03 -0.81110136773E+02 -0.55754930472E+02  0.97619616185E+03  0.15294330000E+03 0.  0.
<mgrwt>
<rscale>  0 0.97460265E+03</rscale>
<asrwt>0</asrwt>
<pdfrwt beam="1">  1        2 0.11741513E+00 0.97460265E+03</pdfrwt>
<pdfrwt beam="2">  1       -2 0.19995970E+00 0.97460265E+03</pdfrwt>
<totfact> 0.48567583E+00</totfact>
</mgrwt>
</event>
<event>
 4    1  0.4840632E-008  0.6643063E+03  0.7818608E-02  0.9780299E-01
          2   -1    0    0  501    0  0.00000000000E+00  0.00000000000E+00  0.24159317194E+04  0.24159317194E+04  0.25500000000E-02 0. -1.
         -2   -1    0    0    0  501 -0.00000000000E+00 -0.00000000000E+00 -0.24447156067E+03  0.24447156068E+03  0.25500000000E-02 0.  1.
    8880022    1    1    2    0    0  0.40471920375E+03 -0.50409674908E+03  0.17545750474E+04  0.18761227083E+04  0.15294330000E+03 0. -1.
    8880022    1    1    2    0    0 -0.40471920375E+03  0.50409674908E+03  0.41688511128E+03  0.78428057182E+03  0.15294330000E+03 0.  0.
<mgrwt>
<rscale>  0 0.66430627E+03</rscale>
<asrwt>0</asrwt>
<pdfrwt beam="1">  1        2 0.37168179E+00 0.66430627E+03</pdfrwt>
<pdfrwt beam="2">  1       -2 0.37611011E-01 0.66430627E+03</pdfrwt>
<totfact> 0.27409896E+01</totfact>
</mgrwt>
</event>
<event>
 4    1  0.4840632E-008  0.4721204E+03  0.7818608E-02  0.1021323E+00
         -2   -1    0    0    0  501 -0.00000000000E+00  0.00000000000E+00  0.48568126942E+03  0.48568126943E+03  0.25500000000E-02 0.  1.
          2   -1    0    0  501    0  0.00000000000E+00 -0.00000000000E+00 -0.21768787062E+04  0.21768787062E+04  0.25500000000E-02 0. -1.
    8880022    1    1    2    0    0 -0.43516638179E+03  0.10067893770E+03  0.33705159037E+03  0.58008745541E+03  0.15294330000E+03 0.  0.
    8880022    1    1    2    0    0  0.43516638179E+03 -0.10067893770E+03 -0.20282490272E+04  0.20824725202E+04  0.15294330000E+03 0.  0.
<mgrwt>
<rscale>  0 0.47212041E+03</rscale>
<asrwt>0</asrwt>
<pdfrwt beam="1">  1        2 0.33490441E+00 0.47212041E+03</pdfrwt>
<pdfrwt beam="2">  1       -2 0.74720197E-01 0.47212041E+03</pdfrwt>
<totfact> 0.94222591E+00</totfact>
</mgrwt>
</event>
<event>
 4    1  0.4840632E-008  0.4943271E+03  0.7818608E-02  0.1015270E+00
         -2   -1    0    0    0  501 -0.00000000000E+00  0.00000000000E+00  0.80800644263E+03  0.80800644263E+03  0.25500000000E-02 0.  1.
          2   -1    0    0  501    0  0.00000000000E+00 -0.00000000000E+00 -0.43853692028E+03  0.43853692029E+03  0.25500000000E-02 0. -1.
    8880022    1    1    2    0    0  0.68928772407E+02  0.46499085205E+03 -0.16250255995E+03  0.52035219146E+03  0.15294330000E+03 0.  0.
    8880022    1    1    2    0    0 -0.68928772407E+02 -0.46499085205E+03  0.53197208230E+03  0.72619117146E+03  0.15294330000E+03 0.  0.
<mgrwt>
<rscale>  0 0.49432714E+03</rscale>
<asrwt>0</asrwt>
<pdfrwt beam="1">  1        2 0.67467219E-01 0.49432714E+03</pdfrwt>
<pdfrwt beam="2">  1       -2 0.12430868E+00 0.49432714E+03</pdfrwt>
<totfact> 0.36031889E+01</totfact>
</mgrwt>
</event>
<event>
 4    1  0.4840632E-008  0.4209078E+03  0.7818608E-02  0.1036771E+00
         -2   -1    0    0    0  501 -0.00000000000E+00  0.00000000000E+00  0.29687775811E+03  0.29687775812E+03  0.25500000000E-02 0.  1.
          2   -1    0    0  501    0  0.00000000000E+00 -0.00000000000E+00 -0.81669880841E+03  0.81669880842E+03  0.25500000000E-02 0. -1.
    8880022    1    1    2    0    0  0.59429304155E+02 -0.38760788688E+03 -0.54885521816E+03  0.69166857647E+03  0.15294330000E+03 0. -1.
    8880022    1    1    2    0    0 -0.59429304155E+02  0.38760788688E+03  0.29034167858E+02  0.42190799007E+03  0.15294330000E+03 0.  0.
<mgrwt>
<rscale>  0 0.42090779E+03</rscale>
<asrwt>0</asrwt>
<pdfrwt beam="1">  1        2 0.12564597E+00 0.42090779E+03</pdfrwt>
<pdfrwt beam="2">  1       -2 0.45673502E-01 0.42090779E+03</pdfrwt>
<totfact> 0.15779120E+02</totfact>
</mgrwt>
</event>
<event>
 4    1  0.4840632E-008  0.4962254E+03  0.7818608E-02  0.1014769E+00
         -2   -1    0    0    0  501 -0.00000000000E+00  0.00000000000E+00  0.40075080360E+03  0.40075080361E+03  0.25500000000E-02 0.  1.
          2   -1    0    0  501    0  0.00000000000E+00 -0.00000000000E+00 -0.13636273995E+04  0.13636273995E+04  0.25500000000E-02 0. -1.
    8880022    1    1    2    0    0  0.42876775774E+03 -0.19749996343E+03 -0.11353323061E+04  0.12390395974E+04  0.15294330000E+03 0.  0.
    8880022    1    1    2    0    0 -0.42876775774E+03  0.19749996343E+03  0.17245571022E+03  0.52533860570E+03  0.15294330000E+03 0. -1.
<mgrwt>
<rscale>  0 0.49622543E+03</rscale>
<asrwt>0</asrwt>
<pdfrwt beam="1">  1        2 0.20978883E+00 0.49622543E+03</pdfrwt>
<pdfrwt beam="2">  1       -2 0.61653971E-01 0.49622543E+03</pdfrwt>
<totfact> 0.39145664E+01</totfact>
</mgrwt>
</event>
<event>
 4    1  0.4840632E-008  0.1680914E+03  0.7818608E-02  0.1179853E+00
          2   -1    0    0  501    0  0.00000000000E+00  0.00000000000E+00  0.13442154608E+04  0.13442154608E+04  0.25500000000E-02 0. -1.
         -2   -1    0    0    0  501 -0.00000000000E+00 -0.00000000000E+00 -0.18191326702E+03  0.18191326703E+03  0.25500000000E-02 0.  1.
    8880022    1    1    2    0    0 -0.68523142690E+02  0.12948075572E+02  0.12987778243E+04  0.13096100808E+04  0.15294330000E+03 0. -1.
    8880022    1    1    2    0    0  0.68523142690E+02 -0.12948075572E+02 -0.13647563058E+03  0.21651864701E+03  0.15294330000E+03 0.  0.
<mgrwt>
<rscale>  0 0.16809142E+03</rscale>
<asrwt>0</asrwt>
<pdfrwt beam="1">  1        2 0.20680238E+00 0.16809142E+03</pdfrwt>
<pdfrwt beam="2">  1       -2 0.27986656E-01 0.16809142E+03</pdfrwt>
<totfact> 0.19911040E+02</totfact>
</mgrwt>
</event>
<event>
 4    1  0.4840632E-008  0.2891606E+03  0.7818608E-02  0.1090788E+00
          2   -1    0    0  501    0  0.00000000000E+00  0.00000000000E+00  0.13505971675E+04  0.13505971675E+04  0.25500000000E-02 0. -1.
         -2   -1    0    0    0  501 -0.00000000000E+00 -0.00000000000E+00 -0.25854580175E+03  0.25854580176E+03  0.25500000000E-02 0.  1.
    8880022    1    1    2    0    0 -0.17749621304E+03 -0.16946170531E+03 -0.15563724427E+03  0.32838510933E+03  0.15294330000E+03 0.  0.
    8880022    1    1    2    0    0  0.17749621304E+03  0.16946170531E+03  0.12476886100E+04  0.12807578599E+04  0.15294330000E+03 0.  0.
<mgrwt>
<rscale>  0 0.28916056E+03</rscale>
<asrwt>0</asrwt>
<pdfrwt beam="1">  1        2 0.20778418E+00 0.28916056E+03</pdfrwt>
<pdfrwt beam="2">  1       -2 0.39776278E-01 0.28916056E+03</pdfrwt>
<totfact> 0.99933035E+01</totfact>
</mgrwt>
</event>
<event>
 4    1  0.4840632E-008  0.2548177E+03  0.7818608E-02  0.1110297E+00
         -2   -1    0    0    0  501 -0.00000000000E+00  0.00000000000E+00  0.27694412287E+03  0.27694412289E+03  0.25500000000E-02 0.  1.
          2   -1    0    0  501    0  0.00000000000E+00 -0.00000000000E+00 -0.10089188992E+04  0.10089188992E+04  0.25500000000E-02 0. -1.
    8880022    1    1    2    0    0 -0.16440055704E+03  0.12046944184E+03 -0.92928253523E+03  0.96358606926E+03  0.15294330000E+03 0.  0.
    8880022    1    1    2    0    0  0.16440055704E+03 -0.12046944184E+03  0.19730775892E+03  0.32227695282E+03  0.15294330000E+03 0.  0.
<mgrwt>
<rscale>  0 0.25481774E+03</rscale>
<asrwt>0</asrwt>
<pdfrwt beam="1">  1        2 0.15521829E+00 0.25481774E+03</pdfrwt>
<pdfrwt beam="2">  1       -2 0.42606789E-01 0.25481774E+03</pdfrwt>
<totfact> 0.13868647E+02</totfact>
</mgrwt>
</event>
<event>
 4    1  0.4840632E-008  0.3775321E+03  0.7818608E-02  0.1051850E+00
          2   -1    0    0  501    0  0.00000000000E+00  0.00000000000E+00  0.14585745739E+04  0.14585745739E+04  0.25500000000E-02 0. -1.
         -2   -1    0    0    0  501 -0.00000000000E+00 -0.00000000000E+00 -0.16473119585E+03  0.16473119587E+03  0.25500000000E-02 0.  1.
    8880022    1    1    2    0    0  0.28622161267E+03 -0.19291452239E+03  0.12924421016E+03  0.39904203211E+03  0.15294330000E+03 0.  0.
    8880022    1    1    2    0    0 -0.28622161267E+03  0.19291452239E+03  0.11645991678E+04  0.12242637376E+04  0.15294330000E+03 0.  0.
<mgrwt>
<rscale>  0 0.37753209E+03</rscale>
<asrwt>0</asrwt>
<pdfrwt beam="1">  1        2 0.22439609E+00 0.37753209E+03</pdfrwt>
<pdfrwt beam="2">  1       -2 0.25343261E-01 0.37753209E+03</pdfrwt>
<totfact> 0.19748325E+02</totfact>
</mgrwt>
</event>
<event>
 4    1  0.4840632E-008  0.2896250E+03  0.7818608E-02  0.1090545E+00
          2   -1    0    0  501    0  0.00000000000E+00  0.00000000000E+00  0.12202896686E+04  0.12202896686E+04  0.25500000000E-02 0. -1.
         -2   -1    0    0    0  501 -0.00000000000E+00 -0.00000000000E+00 -0.88650531751E+02  0.88650531788E+02  0.25500000000E-02 0.  1.
    8880022    1    1    2    0    0  0.17981750240E+03 -0.16779947906E+03  0.87598336139E+03  0.92262099575E+03  0.15294330000E+03 0. -1.
    8880022    1    1    2    0    0 -0.17981750240E+03  0.16779947906E+03  0.25565577546E+03  0.38631920465E+03  0.15294330000E+03 0.  0.
<mgrwt>
<rscale>  0 0.28962502E+03</rscale>
<asrwt>0</asrwt>
<pdfrwt beam="1">  1        2 0.18773686E+00 0.28962502E+03</pdfrwt>
<pdfrwt beam="2">  1       -2 0.13638544E-01 0.28962502E+03</pdfrwt>
<totfact> 0.78103725E+02</totfact>
</mgrwt>
</event>
<event>
 4    1  0.4840632E-008  0.1824580E+03  0.7818608E-02  0.1165445E+00
         -2   -1    0    0    0  501 -0.00000000000E+00  0.00000000000E+00  0.10106116303E+03  0.10106116306E+03  0.25500000000E-02 0.  1.
          2   -1    0    0  501    0  0.00000000000E+00 -0.00000000000E+00 -0.12355747331E+04  0.12355747331E+04  0.25500000000E-02 0. -1.
    8880022    1    1    2    0    0  0.95066975081E+02 -0.29351878618E+02 -0.11395931550E+04  0.11541072197E+04  0.15294330000E+03 0.  0.
    8880022    1    1    2    0    0 -0.95066975081E+02  0.29351878618E+02  0.50795849810E+01  0.18252867645E+03  0.15294330000E+03 0.  0.
<mgrwt>
<rscale>  0 0.18245798E+03</rscale>
<asrwt>0</asrwt>
<pdfrwt beam="1">  1        2 0.19008841E+00 0.18245798E+03</pdfrwt>
<pdfrwt beam="2">  1       -2 0.15547872E-01 0.18245798E+03</pdfrwt>
<totfact> 0.62324791E+02</totfact>
</mgrwt>
</event>
<event>
 4    1  0.4840632E-008  0.9153596E+03  0.7818608E-02  0.9406582E-01
         -2   -1    0    0    0  501 -0.00000000000E+00  0.00000000000E+00  0.18960525218E+04  0.18960525218E+04  0.25500000000E-02 0.  1.
          2   -1    0    0  501    0  0.00000000000E+00 -0.00000000000E+00 -0.10706767866E+04  0.10706767866E+04  0.25500000000E-02 0. -1.
    8880022    1    1    2    0    0  0.12719165089E+02 -0.90240221920E+03 -0.72405903560E+03  0.11671095417E+04  0.15294330000E+03 0.  0.
    8880022    1    1    2    0    0 -0.12719165089E+02  0.90240221920E+03  0.15494347709E+04  0.17996197667E+04  0.15294330000E+03 0.  0.
<mgrwt>
<rscale>  0 0.91535960E+03</rscale>
<asrwt>0</asrwt>
<pdfrwt beam="1">  1        2 0.16471951E+00 0.91535960E+03</pdfrwt>
<pdfrwt beam="2">  1       -2 0.29170039E+00 0.91535960E+03</pdfrwt>
<totfact> 0.82417340E-01</totfact>
</mgrwt>
</event>
<event>
 4    1  0.4840632E-008  0.8623236E+03  0.7818608E-02  0.9473944E-01
          2   -1    0    0  501    0  0.00000000000E+00  0.00000000000E+00  0.11348544910E+04  0.11348544910E+04  0.25500000000E-02 0. -1.
         -2   -1    0    0    0  501 -0.00000000000E+00 -0.00000000000E+00 -0.72738793598E+03  0.72738793599E+03  0.25500000000E-02 0.  1.
    8880022    1    1    2    0    0 -0.62282069938E+03 -0.57645873011E+03  0.49698152711E+03  0.99528517641E+03  0.15294330000E+03 0.  0.
    8880022    1    1    2    0    0  0.62282069938E+03  0.57645873011E+03 -0.89514972093E+02  0.86695725058E+03  0.15294330000E+03 0.  0.
<mgrwt>
<rscale>  0 0.86232357E+03</rscale>
<asrwt>0</asrwt>
<pdfrwt beam="1">  1        2 0.17459300E+00 0.86232357E+03</pdfrwt>
<pdfrwt beam="2">  1       -2 0.11190584E+00 0.86232357E+03</pdfrwt>
<totfact> 0.13149106E+01</totfact>
</mgrwt>
</event>
<event>
 4    1  0.4840632E-008  0.4747115E+03  0.7818608E-02  0.1020599E+00
         -2   -1    0    0    0  501 -0.00000000000E+00  0.00000000000E+00  0.15850611865E+03  0.15850611867E+03  0.25500000000E-02 0.  1.
          2   -1    0    0  501    0  0.00000000000E+00 -0.00000000000E+00 -0.17379564303E+04  0.17379564303E+04  0.25500000000E-02 0. -1.
    8880022    1    1    2    0    0  0.97273177787E+02 -0.43874507111E+03 -0.11942100720E+04  0.12851025865E+04  0.15294330000E+03 0.  0.
    8880022    1    1    2    0    0 -0.97273177787E+02  0.43874507111E+03 -0.38524023962E+03  0.61135996252E+03  0.15294330000E+03 0.  0.
<mgrwt>
<rscale>  0 0.47471145E+03</rscale>
<asrwt>0</asrwt>
<pdfrwt beam="1">  1        2 0.26737790E+00 0.47471145E+03</pdfrwt>
<pdfrwt beam="2">  1       -2 0.24385558E-01 0.47471145E+03</pdfrwt>
<totfact> 0.14730608E+02</totfact>
</mgrwt>
</event>
<event>
 4    1  0.4840632E-008  0.1801443E+03  0.7818608E-02  0.1167663E+00
          2   -1    0    0  501    0  0.00000000000E+00  0.00000000000E+00  0.24956014349E+04  0.24956014349E+04  0.25500000000E-02 0. -1.
         -2   -1    0    0    0  501 -0.00000000000E+00 -0.00000000000E+00 -0.80668085672E+02  0.80668085712E+02  0.25500000000E-02 0.  1.
    8880022    1    1    2    0    0 -0.83342991458E+02 -0.45981102971E+02  0.27714998235E+02  0.18226379289E+03  0.15294330000E+03 0.  1.
    8880022    1    1    2    0    0  0.83342991458E+02  0.45981102971E+02  0.23872183510E+04  0.23940057277E+04  0.15294330000E+03 0.  0.
<mgrwt>
<rscale>  0 0.18014430E+03</rscale>
<asrwt>0</asrwt>
<pdfrwt beam="1">  1        2 0.38393873E+00 0.18014430E+03</pdfrwt>
<pdfrwt beam="2">  1       -2 0.12410473E-01 0.18014430E+03</pdfrwt>
<totfact> 0.19549903E+02</totfact>
</mgrwt>
</event>
<event>
 4    1  0.4840632E-008  0.1914670E+03  0.7818608E-02  0.1157145E+00
          2   -1    0    0  501    0  0.00000000000E+00  0.00000000000E+00  0.84558320187E+03  0.84558320188E+03  0.25500000000E-02 0. -1.
         -2   -1    0    0    0  501 -0.00000000000E+00 -0.00000000000E+00 -0.49251648425E+03  0.49251648426E+03  0.25500000000E-02 0.  1.
    8880022    1    1    2    0    0 -0.10215576821E+03  0.53218188535E+02 -0.46239137728E+03  0.50046519895E+03  0.15294330000E+03 0.  1.
    8880022    1    1    2    0    0  0.10215576821E+03 -0.53218188535E+02  0.81545809490E+03  0.83763448718E+03  0.15294330000E+03 0.  0.
<mgrwt>
<rscale>  0 0.19146705E+03</rscale>
<asrwt>0</asrwt>
<pdfrwt beam="1">  1        2 0.13008972E+00 0.19146705E+03</pdfrwt>
<pdfrwt beam="2">  1       -2 0.75771767E-01 0.19146705E+03</pdfrwt>
<totfact> 0.54882582E+01</totfact>
</mgrwt>
</event>
<event>
 4    1  0.4840632E-008  0.3155491E+03  0.7818608E-02  0.1077716E+00
          2   -1    0    0  501    0  0.00000000000E+00  0.00000000000E+00  0.22604624491E+03  0.22604624492E+03  0.25500000000E-02 0. -1.
         -2   -1    0    0    0  501 -0.00000000000E+00 -0.00000000000E+00 -0.55843505083E+03  0.55843505084E+03  0.25500000000E-02 0.  1.
    8880022    1    1    2    0    0 -0.65715243873E+02 -0.26806921280E+03  0.14067932717E+02  0.31586255852E+03  0.15294330000E+03 0.  0.
    8880022    1    1    2    0    0  0.65715243873E+02  0.26806921280E+03 -0.34645673864E+03  0.46861873724E+03  0.15294330000E+03 0.  0.
<mgrwt>
<rscale>  0 0.31554912E+03</rscale>
<asrwt>0</asrwt>
<pdfrwt beam="1">  1        2 0.34776346E-01 0.31554912E+03</pdfrwt>
<pdfrwt beam="2">  1       -2 0.85913084E-01 0.31554912E+03</pdfrwt>
<totfact> 0.18165937E+02</totfact>
</mgrwt>
</event>
<event>
 4    1  0.4840632E-008  0.5110599E+03  0.7818608E-02  0.1010932E+00
          2   -1    0    0  501    0  0.00000000000E+00  0.00000000000E+00  0.73646488285E+03  0.73646488285E+03  0.25500000000E-02 0. -1.
         -2   -1    0    0    0  501 -0.00000000000E+00 -0.00000000000E+00 -0.13604254402E+04  0.13604254402E+04  0.25500000000E-02 0.  1.
    8880022    1    1    2    0    0 -0.37490061141E+03  0.31183337511E+03  0.58950856073E+03  0.78019389798E+03  0.15294330000E+03 0.  0.
    8880022    1    1    2    0    0  0.37490061141E+03 -0.31183337511E+03 -0.12134691181E+04  0.13166964251E+04  0.15294330000E+03 0.  0.
<mgrwt>
<rscale>  0 0.51105985E+03</rscale>
<asrwt>0</asrwt>
<pdfrwt beam="1">  1        2 0.11330229E+00 0.51105985E+03</pdfrwt>
<pdfrwt beam="2">  1       -2 0.20929622E+00 0.51105985E+03</pdfrwt>
<totfact> 0.47237136E+00</totfact>
</mgrwt>
</event>
<event>
 4    1  0.4840632E-008  0.1072422E+04  0.7818608E-02  0.9232496E-01
          2   -1    0    0  501    0  0.00000000000E+00  0.00000000000E+00  0.35397089906E+04  0.35397089906E+04  0.25500000000E-02 0. -1.
         -2   -1    0    0    0  501 -0.00000000000E+00 -0.00000000000E+00 -0.35062633098E+03  0.35062633099E+03  0.25500000000E-02 0.  1.
    8880022    1    1    2    0    0 -0.86624190103E+03  0.61345088656E+03  0.10677544814E+04  0.15133368121E+04  0.15294330000E+03 0.  0.
    8880022    1    1    2    0    0  0.86624190103E+03 -0.61345088656E+03  0.21213281782E+04  0.23769985095E+04  0.15294330000E+03 0.  0.
<mgrwt>
<rscale>  0 0.10724219E+04</rscale>
<asrwt>0</asrwt>
<pdfrwt beam="1">  1        2 0.54457061E+00 0.10724219E+04</pdfrwt>
<pdfrwt beam="2">  1       -2 0.53942512E-01 0.10724219E+04</pdfrwt>
<totfact> 0.25330991E+00</totfact>
</mgrwt>
</event>
<event>
 4    1  0.4840632E-008  0.1547251E+04  0.7818608E-02  0.8853625E-01
         -2   -1    0    0    0  501 -0.00000000000E+00  0.00000000000E+00  0.13939662769E+04  0.13939662769E+04  0.25500000000E-02 0.  1.
          2   -1    0    0  501    0  0.00000000000E+00 -0.00000000000E+00 -0.19537432696E+04  0.19537432696E+04  0.25500000000E-02 0. -1.
    8880022    1    1    2    0    0  0.12622961602E+04 -0.88159151988E+03 -0.86207587140E+03  0.17712034510E+04  0.15294330000E+03 0.  0.
    8880022    1    1    2    0    0 -0.12622961602E+04  0.88159151988E+03  0.30229887869E+03  0.15765060955E+04  0.15294330000E+03 0.  0.
<mgrwt>
<rscale>  0 0.15472514E+04</rscale>
<asrwt>0</asrwt>
<pdfrwt beam="1">  1        2 0.30057589E+00 0.15472514E+04</pdfrwt>
<pdfrwt beam="2">  1       -2 0.21445635E+00 0.15472514E+04</pdfrwt>
<totfact> 0.71002911E-01</totfact>
</mgrwt>
</event>
<event>
 4    1  0.4840632E-008  0.6010145E+03  0.7818608E-02  0.9903303E-01
          2   -1    0    0  501    0  0.00000000000E+00  0.00000000000E+00  0.14950837043E+04  0.14950837043E+04  0.25500000000E-02 0. -1.
         -2   -1    0    0    0  501 -0.00000000000E+00 -0.00000000000E+00 -0.29805422910E+03  0.29805422911E+03  0.25500000000E-02 0.  1.
    8880022    1    1    2    0    0 -0.15478172906E+03  0.56024051814E+03  0.98869762114E+03  0.11570399565E+04  0.15294330000E+03 0.  0.
    8880022    1    1    2    0    0  0.15478172906E+03 -0.56024051814E+03  0.20833185404E+03  0.63609797692E+03  0.15294330000E+03 0.  0.
<mgrwt>
<rscale>  0 0.60101454E+03</rscale>
<asrwt>0</asrwt>
<pdfrwt beam="1">  1        2 0.23001287E+00 0.60101454E+03</pdfrwt>
<pdfrwt beam="2">  1       -2 0.45854498E-01 0.60101454E+03</pdfrwt>
<totfact> 0.59817699E+01</totfact>
</mgrwt>
</event>
<event>
 4    1  0.5765143E-008  0.5734315E+03  0.7818608E-02  0.9962114E-01
         -2   -1    0    0    0  501 -0.00000000000E+00  0.00000000000E+00  0.84327696933E+03  0.84327696933E+03  0.25500000000E-02 0.  1.
          2   -1    0    0  501    0  0.00000000000E+00 -0.00000000000E+00 -0.23080689828E+04  0.23080689828E+04  0.25500000000E-02 0. -1.
    8880022    1    1    2    0    0  0.15053220383E+03  0.53176316790E+03  0.70402286552E+03  0.90800432780E+03  0.15294330000E+03 0.  0.
    8880022    1    1    2    0    0 -0.15053220383E+03 -0.53176316790E+03 -0.21688148790E+04  0.22433416243E+04  0.15294330000E+03 0.  0.
<mgrwt>
<rscale>  0 0.57343148E+03</rscale>
<asrwt>0</asrwt>
<pdfrwt beam="1">  1        2 0.35508753E+00 0.57343148E+03</pdfrwt>
<pdfrwt beam="2">  1       -2 0.12973492E+00 0.57343148E+03</pdfrwt>
<totfact> 0.21287976E+00</totfact>
</mgrwt>
</event>
<event>
 4    1  0.4840632E-008  0.3214826E+03  0.7818608E-02  0.1074969E+00
          2   -1    0    0  501    0  0.00000000000E+00  0.00000000000E+00  0.17707651192E+03  0.17707651194E+03  0.25500000000E-02 0. -1.
         -2   -1    0    0    0  501 -0.00000000000E+00 -0.00000000000E+00 -0.13281314832E+04  0.13281314832E+04  0.25500000000E-02 0.  1.
    8880022    1    1    2    0    0  0.18533018635E+03 -0.21356991146E+03 -0.12055422708E+02  0.32170851913E+03  0.15294330000E+03 0.  0.
    8880022    1    1    2    0    0 -0.18533018635E+03  0.21356991146E+03 -0.11389995486E+04  0.11834994760E+04  0.15294330000E+03 0.  0.
<mgrwt>
<rscale>  0 0.32148256E+03</rscale>
<asrwt>0</asrwt>
<pdfrwt beam="1">  1        2 0.27242541E-01 0.32148256E+03</pdfrwt>
<pdfrwt beam="2">  1       -2 0.20432791E+00 0.32148256E+03</pdfrwt>
<totfact> 0.26355302E+01</totfact>
</mgrwt>
</event>
<event>
 4    1  0.4840632E-008  0.4410879E+03  0.7818608E-02  0.1030414E+00
          2   -1    0    0  501    0  0.00000000000E+00  0.00000000000E+00  0.13023167691E+04  0.13023167691E+04  0.25500000000E-02 0. -1.
         -2   -1    0    0    0  501 -0.00000000000E+00 -0.00000000000E+00 -0.33230279840E+03  0.33230279841E+03  0.25500000000E-02 0.  1.
    8880022    1    1    2    0    0 -0.37695152368E+03  0.17051217410E+03  0.10913757471E+04  0.11771404024E+04  0.15294330000E+03 0.  0.
    8880022    1    1    2    0    0  0.37695152368E+03 -0.17051217410E+03 -0.12136177636E+03  0.45747916510E+03  0.15294330000E+03 0.  1.
<mgrwt>
<rscale>  0 0.44108787E+03</rscale>
<asrwt>0</asrwt>
<pdfrwt beam="1">  1        2 0.20035643E+00 0.44108787E+03</pdfrwt>
<pdfrwt beam="2">  1       -2 0.51123506E-01 0.44108787E+03</pdfrwt>
<totfact> 0.63001860E+01</totfact>
</mgrwt>
</event>
<event>
 4    1  0.4840632E-008  0.3836247E+03  0.7818608E-02  0.1049602E+00
          2   -1    0    0  501    0  0.00000000000E+00  0.00000000000E+00  0.12215731922E+04  0.12215731922E+04  0.25500000000E-02 0. -1.
         -2   -1    0    0    0  501 -0.00000000000E+00 -0.00000000000E+00 -0.77070416931E+03  0.77070416932E+03  0.25500000000E-02 0.  1.
    8880022    1    1    2    0    0  0.19088668782E+03  0.29553097848E+03 -0.68954100345E+03  0.78907207229E+03  0.15294330000E+03 0.  0.
    8880022    1    1    2    0    0 -0.19088668782E+03 -0.29553097848E+03  0.11404100263E+04  0.12032052892E+04  0.15294330000E+03 0. -1.
<mgrwt>
<rscale>  0 0.38362474E+03</rscale>
<asrwt>0</asrwt>
<pdfrwt beam="1">  1        2 0.18793434E+00 0.38362474E+03</pdfrwt>
<pdfrwt beam="2">  1       -2 0.11856987E+00 0.38362474E+03</pdfrwt>
<totfact> 0.10939888E+01</totfact>
</mgrwt>
</event>
<event>
 4    1  0.4840632E-008  0.6083051E+03  0.7818608E-02  0.9888324E-01
          2   -1    0    0  501    0  0.00000000000E+00  0.00000000000E+00  0.19649265238E+04  0.19649265238E+04  0.25500000000E-02 0. -1.
         -2   -1    0    0    0  501 -0.00000000000E+00 -0.00000000000E+00 -0.45812931771E+03  0.45812931772E+03  0.25500000000E-02 0.  1.
    8880022    1    1    2    0    0  0.68186615391E+02  0.58480257713E+03  0.16831520381E+04  0.17897027421E+04  0.15294330000E+03 0.  0.
    8880022    1    1    2    0    0 -0.68186615391E+02 -0.58480257713E+03 -0.17635483202E+03  0.63335309941E+03  0.15294330000E+03 0.  0.
<mgrwt>
<rscale>  0 0.60830512E+03</rscale>
<asrwt>0</asrwt>
<pdfrwt beam="1">  1        2 0.30229639E+00 0.60830512E+03</pdfrwt>
<pdfrwt beam="2">  1       -2 0.70481434E-01 0.60830512E+03</pdfrwt>
<totfact> 0.13540956E+01</totfact>
</mgrwt>
</event>
<event>
 4    1  0.4840632E-008  0.7521717E+03  0.7818608E-02  0.9631949E-01
          2   -1    0    0  501    0  0.00000000000E+00  0.00000000000E+00  0.11925209859E+04  0.11925209859E+04  0.25500000000E-02 0. -1.
         -2   -1    0    0    0  501 -0.00000000000E+00 -0.00000000000E+00 -0.67562750672E+03  0.67562750672E+03  0.25500000000E-02 0.  1.
    8880022    1    1    2    0    0 -0.73265447621E+03 -0.74753519417E+02 -0.25128764306E+03  0.79303707526E+03  0.15294330000E+03 0.  0.
    8880022    1    1    2    0    0  0.73265447621E+03  0.74753519417E+02  0.76818112224E+03  0.10751114174E+04  0.15294330000E+03 0.  0.
<mgrwt>
<rscale>  0 0.75217174E+03</rscale>
<asrwt>0</asrwt>
<pdfrwt beam="1">  1        2 0.18346477E+00 0.75217174E+03</pdfrwt>
<pdfrwt beam="2">  1       -2 0.10394269E+00 0.75217174E+03</pdfrwt>
<totfact> 0.14687827E+01</totfact>
</mgrwt>
</event>
<event>
 4    1  0.4840632E-008  0.5319328E+03  0.7818608E-02  0.1005764E+00
          2   -1    0    0  501    0  0.00000000000E+00  0.00000000000E+00  0.12756466541E+04  0.12756466541E+04  0.25500000000E-02 0. -1.
         -2   -1    0    0    0  501 -0.00000000000E+00 -0.00000000000E+00 -0.53981171869E+03  0.53981171870E+03  0.25500000000E-02 0.  1.
    8880022    1    1    2    0    0 -0.18636952915E+03  0.47415951384E+03 -0.32878793017E+03  0.62534310742E+03  0.15294330000E+03 0.  0.
    8880022    1    1    2    0    0  0.18636952915E+03 -0.47415951384E+03  0.10646228656E+04  0.11901152654E+04  0.15294330000E+03 0.  0.
<mgrwt>
<rscale>  0 0.53193280E+03</rscale>
<asrwt>0</asrwt>
<pdfrwt beam="1">  1        2 0.19625333E+00 0.53193280E+03</pdfrwt>
<pdfrwt beam="2">  1       -2 0.83047957E-01 0.53193280E+03</pdfrwt>
<totfact> 0.22791201E+01</totfact>
</mgrwt>
</event>
<event>
 4    1  0.4840632E-008  0.5280596E+03  0.7818608E-02  0.1006704E+00
         -2   -1    0    0    0  501 -0.00000000000E+00  0.00000000000E+00  0.38174115261E+03  0.38174115262E+03  0.25500000000E-02 0.  1.
          2   -1    0    0  501    0  0.00000000000E+00 -0.00000000000E+00 -0.21175601963E+04  0.21175601963E+04  0.25500000000E-02 0. -1.
    8880022    1    1    2    0    0 -0.42912220575E+03  0.26703814401E+03  0.14349422954E+03  0.54720881275E+03  0.15294330000E+03 0.  0.
    8880022    1    1    2    0    0  0.42912220575E+03 -0.26703814401E+03 -0.18793132733E+04  0.19520925362E+04  0.15294330000E+03 0.  0.
<mgrwt>
<rscale>  0 0.52805955E+03</rscale>
<asrwt>0</asrwt>
<pdfrwt beam="1">  1        2 0.32577849E+00 0.52805955E+03</pdfrwt>
<pdfrwt beam="2">  1       -2 0.58729409E-01 0.52805955E+03</pdfrwt>
<totfact> 0.16784748E+01</totfact>
</mgrwt>
</event>
<event>
 4    1  0.4840632E-008  0.1100937E+04  0.7818608E-02  0.9204279E-01
          2   -1    0    0  501    0  0.00000000000E+00  0.00000000000E+00  0.11675207637E+04  0.11675207637E+04  0.25500000000E-02 0. -1.
         -2   -1    0    0    0  501 -0.00000000000E+00 -0.00000000000E+00 -0.12987312440E+04  0.12987312440E+04  0.25500000000E-02 0.  1.
    8880022    1    1    2    0    0  0.27284228547E+03  0.10555703357E+04 -0.61796016829E+03  0.12625126015E+04  0.15294330000E+03 0.  0.
    8880022    1    1    2    0    0 -0.27284228547E+03 -0.10555703357E+04  0.48674968808E+03  0.12037394062E+04  0.15294330000E+03 0.  0.
<mgrwt>
<rscale>  0 0.11009375E+04</rscale>
<asrwt>0</asrwt>
<pdfrwt beam="1">  1        2 0.17961858E+00 0.11009375E+04</pdfrwt>
<pdfrwt beam="2">  1       -2 0.19980481E+00 0.11009375E+04</pdfrwt>
<totfact> 0.25928336E+00</totfact>
</mgrwt>
</event>
<event>
 4    1  0.4840632E-008  0.5474442E+03  0.7818608E-02  0.1002087E+00
          2   -1    0    0  501    0  0.00000000000E+00  0.00000000000E+00  0.14919931822E+04  0.14919931822E+04  0.25500000000E-02 0. -1.
         -2   -1    0    0    0  501 -0.00000000000E+00 -0.00000000000E+00 -0.21584589026E+03  0.21584589027E+03  0.25500000000E-02 0.  1.
    8880022    1    1    2    0    0  0.36469244592E+03  0.37855365013E+03  0.86300844684E+03  0.10219973965E+04  0.15294330000E+03 0.  0.
    8880022    1    1    2    0    0 -0.36469244592E+03 -0.37855365013E+03  0.41313884508E+03  0.68584167595E+03  0.15294330000E+03 0.  0.
<mgrwt>
<rscale>  0 0.54744415E+03</rscale>
<asrwt>0</asrwt>
<pdfrwt beam="1">  1        2 0.22953742E+00 0.54744415E+03</pdfrwt>
<pdfrwt beam="2">  1       -2 0.33207059E-01 0.54744415E+03</pdfrwt>
<totfact> 0.11284991E+02</totfact>
</mgrwt>
</event>
<event>
 4    1  0.4840632E-008  0.3453875E+03  0.7818608E-02  0.1064524E+00
         -2   -1    0    0    0  501 -0.00000000000E+00  0.00000000000E+00  0.21512608236E+03  0.21512608238E+03  0.25500000000E-02 0.  1.
          2   -1    0    0  501    0  0.00000000000E+00 -0.00000000000E+00 -0.10501870546E+04  0.10501870546E+04  0.25500000000E-02 0. -1.
    8880022    1    1    2    0    0 -0.13325414993E+03  0.27954289304E+03  0.17107837399E+02  0.34581097241E+03  0.15294330000E+03 0.  0.
    8880022    1    1    2    0    0  0.13325414993E+03 -0.27954289304E+03 -0.85216880968E+03  0.91950216462E+03  0.15294330000E+03 0.  0.
<mgrwt>
<rscale>  0 0.34538754E+03</rscale>
<asrwt>0</asrwt>
<pdfrwt beam="1">  1        2 0.16156724E+00 0.34538754E+03</pdfrwt>
<pdfrwt beam="2">  1       -2 0.33096321E-01 0.34538754E+03</pdfrwt>
<totfact> 0.20854392E+02</totfact>
</mgrwt>
</event>
<event>
 4    1  0.4840632E-008  0.2796034E+03  0.7818608E-02  0.1095906E+00
          2   -1    0    0  501    0  0.00000000000E+00  0.00000000000E+00  0.17381742392E+04  0.17381742392E+04  0.25500000000E-02 0. -1.
         -2   -1    0    0    0  501 -0.00000000000E+00 -0.00000000000E+00 -0.46725459046E+02  0.46725459116E+02  0.25500000000E-02 0.  1.
    8880022    1    1    2    0    0 -0.20627317587E+03  0.11062451682E+03  0.67309263417E+03  0.72885647009E+03  0.15294330000E+03 0. -1.
    8880022    1    1    2    0    0  0.20627317587E+03 -0.11062451682E+03  0.10183561459E+04  0.10560432282E+04  0.15294330000E+03 0.  1.
<mgrwt>
<rscale>  0 0.27960340E+03</rscale>
<asrwt>0</asrwt>
<pdfrwt beam="1">  1        2 0.26741144E+00 0.27960340E+03</pdfrwt>
<pdfrwt beam="2">  1       -2 0.71885316E-02 0.27960340E+03</pdfrwt>
<totfact> 0.11402232E+03</totfact>
</mgrwt>
</event>
<event>
 4    1  0.4840632E-008  0.4803804E+03  0.7818608E-02  0.1019031E+00
         -2   -1    0    0    0  501 -0.00000000000E+00  0.00000000000E+00  0.10417099877E+03  0.10417099880E+03  0.25500000000E-02 0.  1.
          2   -1    0    0  501    0  0.00000000000E+00 -0.00000000000E+00 -0.38804205255E+04  0.38804205255E+04  0.25500000000E-02 0. -1.
    8880022    1    1    2    0    0  0.45326106528E+03 -0.43910173214E+02 -0.58302686477E+03  0.75543740619E+03  0.15294330000E+03 0.  0.
    8880022    1    1    2    0    0 -0.45326106528E+03  0.43910173214E+02 -0.31932226619E+04  0.32291541181E+04  0.15294330000E+03 0.  0.
<mgrwt>
<rscale>  0 0.48038042E+03</rscale>
<asrwt>0</asrwt>
<pdfrwt beam="1">  1        2 0.59698766E+00 0.48038042E+03</pdfrwt>
<pdfrwt beam="2">  1       -2 0.16026311E-01 0.48038042E+03</pdfrwt>
<totfact> 0.15569847E+01</totfact>
</mgrwt>
</event>
<event>
 4    1  0.4840632E-008  0.2083467E+03  0.7818608E-02  0.1142882E+00
         -2   -1    0    0    0  501 -0.00000000000E+00  0.00000000000E+00  0.10495136589E+03  0.10495136592E+03  0.25500000000E-02 0.  1.
          2   -1    0    0  501    0  0.00000000000E+00 -0.00000000000E+00 -0.79127010740E+03  0.79127010740E+03  0.25500000000E-02 0. -1.
    8880022    1    1    2    0    0 -0.14133691562E+03  0.63686986431E+01 -0.33576588444E+02  0.21103488893E+03  0.15294330000E+03 0.  0.
    8880022    1    1    2    0    0  0.14133691562E+03 -0.63686986431E+01 -0.65274215306E+03  0.68518658439E+03  0.15294330000E+03 0.  0.
<mgrwt>
<rscale>  0 0.20834668E+03</rscale>
<asrwt>0</asrwt>
<pdfrwt beam="1">  1        2 0.12173386E+00 0.20834668E+03</pdfrwt>
<pdfrwt beam="2">  1       -2 0.16146364E-01 0.20834668E+03</pdfrwt>
<totfact> 0.10906497E+03</totfact>
</mgrwt>
</event>
<event>
 4    1  0.4840632E-008  0.6069269E+03  0.7818608E-02  0.9891138E-01
         -2   -1    0    0    0  501 -0.00000000000E+00  0.00000000000E+00  0.78973316164E+03  0.78973316164E+03  0.25500000000E-02 0.  1.
          2   -1    0    0  501    0  0.00000000000E+00 -0.00000000000E+00 -0.67989102565E+03  0.67989102566E+03  0.25500000000E-02 0. -1.
    8880022    1    1    2    0    0  0.12471395343E+03  0.57394684728E+03 -0.35680611168E+03  0.70403892508E+03  0.15294330000E+03 0.  0.
    8880022    1    1    2    0    0 -0.12471395343E+03 -0.57394684728E+03  0.46664824766E+03  0.76558526223E+03  0.15294330000E+03 0.  0.
<mgrwt>
<rscale>  0 0.60692685E+03</rscale>
<asrwt>0</asrwt>
<pdfrwt beam="1">  1        2 0.10459862E+00 0.60692685E+03</pdfrwt>
<pdfrwt beam="2">  1       -2 0.12149741E+00 0.60692685E+03</pdfrwt>
<totfact> 0.22505525E+01</totfact>
</mgrwt>
</event>
<event>
 4    1  0.4840632E-008  0.9887920E+03  0.7818608E-02  0.9320924E-01
          2   -1    0    0  501    0  0.00000000000E+00  0.00000000000E+00  0.34584024474E+04  0.34584024474E+04  0.25500000000E-02 0. -1.
         -2   -1    0    0    0  501 -0.00000000000E+00 -0.00000000000E+00 -0.56842905234E+03  0.56842905234E+03  0.25500000000E-02 0.  1.
    8880022    1    1    2    0    0 -0.91876091135E+03  0.33195841801E+03  0.28724609740E+04  0.30378844125E+04  0.15294330000E+03 0.  0.
    8880022    1    1    2    0    0  0.91876091135E+03 -0.33195841801E+03  0.17512421077E+02  0.98894708727E+03  0.15294330000E+03 0.  0.
<mgrwt>
<rscale>  0 0.98879202E+03</rscale>
<asrwt>0</asrwt>
<pdfrwt beam="1">  1        2 0.53206192E+00 0.98879202E+03</pdfrwt>
<pdfrwt beam="2">  1       -2 0.87450623E-01 0.98879202E+03</pdfrwt>
<totfact> 0.10159467E+00</totfact>
</mgrwt>
</event>
<event>
 4    1  0.4840632E-008  0.7583763E+03  0.7818608E-02  0.9622300E-01
         -2   -1    0    0    0  501 -0.00000000000E+00  0.00000000000E+00  0.31237343339E+03  0.31237343340E+03  0.25500000000E-02 0.  1.
          2   -1    0    0  501    0  0.00000000000E+00 -0.00000000000E+00 -0.20011215547E+04  0.20011215547E+04  0.25500000000E-02 0. -1.
    8880022    1    1    2    0    0 -0.17503120801E+03 -0.72187743030E+03 -0.11714038717E+04  0.13954646652E+04  0.15294330000E+03 0.  0.
    8880022    1    1    2    0    0  0.17503120801E+03  0.72187743030E+03 -0.51734424958E+03  0.91803032289E+03  0.15294330000E+03 0.  0.
<mgrwt>
<rscale>  0 0.75837629E+03</rscale>
<asrwt>0</asrwt>
<pdfrwt beam="1">  1        2 0.30786485E+00 0.75837629E+03</pdfrwt>
<pdfrwt beam="2">  1       -2 0.48057453E-01 0.75837629E+03</pdfrwt>
<totfact> 0.28235075E+01</totfact>
</mgrwt>
</event>
<event>
 4    1  0.4840632E-008  0.8874707E+03  0.7818608E-02  0.9441381E-01
          2   -1    0    0  501    0  0.00000000000E+00  0.00000000000E+00  0.30672983157E+04  0.30672983157E+04  0.25500000000E-02 0. -1.
         -2   -1    0    0    0  501 -0.00000000000E+00 -0.00000000000E+00 -0.10876272874E+04  0.10876272874E+04  0.25500000000E-02 0.  1.
    8880022    1    1    2    0    0  0.15676491452E+03  0.86002174806E+03  0.28055820450E+04  0.29426000255E+04  0.15294330000E+03 0.  0.
    8880022    1    1    2    0    0 -0.15676491452E+03 -0.86002174806E+03 -0.82591101671E+03  0.12123255776E+04  0.15294330000E+03 0.  0.
<mgrwt>
<rscale>  0 0.88747073E+03</rscale>
<asrwt>0</asrwt>
<pdfrwt beam="1">  1        2 0.47189205E+00 0.88747073E+03</pdfrwt>
<pdfrwt beam="2">  1       -2 0.16732728E+00 0.88747073E+03</pdfrwt>
<totfact> 0.36603312E-01</totfact>
</mgrwt>
</event>
<event>
 4    1  0.4840632E-008  0.6360853E+03  0.7818608E-02  0.9833245E-01
         -2   -1    0    0    0  501 -0.00000000000E+00  0.00000000000E+00  0.81960297548E+03  0.81960297548E+03  0.25500000000E-02 0.  1.
          2   -1    0    0  501    0  0.00000000000E+00 -0.00000000000E+00 -0.97250473255E+03  0.97250473255E+03  0.25500000000E-02 0. -1.
    8880022    1    1    2    0    0  0.54830090852E+03 -0.28386445692E+03 -0.70521240455E+03  0.94969948127E+03  0.15294330000E+03 0.  0.
    8880022    1    1    2    0    0 -0.54830090852E+03  0.28386445692E+03  0.55231064748E+03  0.84240822676E+03  0.15294330000E+03 0.  0.
<mgrwt>
<rscale>  0 0.63608535E+03</rscale>
<asrwt>0</asrwt>
<pdfrwt beam="1">  1        2 0.14961611E+00 0.63608535E+03</pdfrwt>
<pdfrwt beam="2">  1       -2 0.12609277E+00 0.63608535E+03</pdfrwt>
<totfact> 0.12694810E+01</totfact>
</mgrwt>
</event>
<event>
 4    1  0.4840632E-008  0.7311156E+03  0.7818608E-02  0.9665452E-01
         -2   -1    0    0    0  501 -0.00000000000E+00  0.00000000000E+00  0.65288906739E+03  0.65288906740E+03  0.25500000000E-02 0.  1.
          2   -1    0    0  501    0  0.00000000000E+00 -0.00000000000E+00 -0.10745907846E+04  0.10745907846E+04  0.25500000000E-02 0. -1.
    8880022    1    1    2    0    0 -0.62802002467E+03 -0.34165647596E+03  0.21062838305E+03  0.76085101545E+03  0.15294330000E+03 0.  0.
    8880022    1    1    2    0    0  0.62802002467E+03  0.34165647596E+03 -0.63233010024E+03  0.96662883654E+03  0.15294330000E+03 0.  0.
<mgrwt>
<rscale>  0 0.73111555E+03</rscale>
<asrwt>0</asrwt>
<pdfrwt beam="1">  1        2 0.16532166E+00 0.73111555E+03</pdfrwt>
<pdfrwt beam="2">  1       -2 0.10044447E+00 0.73111555E+03</pdfrwt>
<totfact> 0.18827160E+01</totfact>
</mgrwt>
</event>
<event>
 4    1  0.4840632E-008  0.2110797E+03  0.7818608E-02  0.1140714E+00
          2   -1    0    0  501    0  0.00000000000E+00  0.00000000000E+00  0.20762395616E+04  0.20762395616E+04  0.25500000000E-02 0. -1.
         -2   -1    0    0    0  501 -0.00000000000E+00 -0.00000000000E+00 -0.25645924978E+03  0.25645924979E+03  0.25500000000E-02 0.  1.
    8880022    1    1    2    0    0 -0.14423411790E+03 -0.18960490042E+02  0.20263764073E+04  0.20373404178E+04  0.15294330000E+03 0.  0.
    8880022    1    1    2    0    0  0.14423411790E+03  0.18960490042E+02 -0.20659609551E+03  0.29535839356E+03  0.15294330000E+03 0.  1.
<mgrwt>
<rscale>  0 0.21107969E+03</rscale>
<asrwt>0</asrwt>
<pdfrwt beam="1">  1        2 0.31942147E+00 0.21107969E+03</pdfrwt>
<pdfrwt beam="2">  1       -2 0.39455269E-01 0.21107969E+03</pdfrwt>
<totfact> 0.43031366E+01</totfact>
</mgrwt>
</event>
<event>
 4    1  0.4840632E-008  0.2349406E+03  0.7818608E-02  0.1123210E+00
         -2   -1    0    0    0  501 -0.00000000000E+00  0.00000000000E+00  0.42669004085E+03  0.42669004086E+03  0.25500000000E-02 0.  1.
          2   -1    0    0  501    0  0.00000000000E+00 -0.00000000000E+00 -0.44483913065E+03  0.44483913065E+03  0.25500000000E-02 0. -1.
    8880022    1    1    2    0    0  0.11921269053E+03 -0.13264145706E+03  0.35789923143E+03  0.42812256959E+03  0.15294330000E+03 0.  0.
    8880022    1    1    2    0    0 -0.11921269053E+03  0.13264145706E+03 -0.37604832123E+03  0.44340660192E+03  0.15294330000E+03 0.  0.
<mgrwt>
<rscale>  0 0.23494058E+03</rscale>
<asrwt>0</asrwt>
<pdfrwt beam="1">  1        2 0.68436790E-01 0.23494058E+03</pdfrwt>
<pdfrwt beam="2">  1       -2 0.65644621E-01 0.23494058E+03</pdfrwt>
<totfact> 0.15740855E+02</totfact>
</mgrwt>
</event>
<event>
 4    1  0.4840632E-008  0.5535947E+03  0.7818608E-02  0.1000665E+00
          2   -1    0    0  501    0  0.00000000000E+00  0.00000000000E+00  0.16106981333E+04  0.16106981333E+04  0.25500000000E-02 0. -1.
         -2   -1    0    0    0  501 -0.00000000000E+00 -0.00000000000E+00 -0.41022554516E+03  0.41022554517E+03  0.25500000000E-02 0.  1.
    8880022    1    1    2    0    0 -0.52466450202E+03  0.88332208648E+02  0.13401418818E+04  0.14499818396E+04  0.15294330000E+03 0.  0.
    8880022    1    1    2    0    0  0.52466450202E+03 -0.88332208648E+02 -0.13966929367E+03  0.57094183887E+03  0.15294330000E+03 0.  1.
<mgrwt>
<rscale>  0 0.55359468E+03</rscale>
<asrwt>0</asrwt>
<pdfrwt beam="1">  1        2 0.24779971E+00 0.55359468E+03</pdfrwt>
<pdfrwt beam="2">  1       -2 0.63111624E-01 0.55359468E+03</pdfrwt>
<totfact> 0.26968810E+01</totfact>
</mgrwt>
</event>
<event>
 4    1  0.4840632E-008  0.1809781E+03  0.7818608E-02  0.1166860E+00
         -2   -1    0    0    0  501 -0.00000000000E+00  0.00000000000E+00  0.13280238579E+03  0.13280238581E+03  0.25500000000E-02 0.  1.
          2   -1    0    0  501    0  0.00000000000E+00 -0.00000000000E+00 -0.26317897793E+04  0.26317897793E+04  0.25500000000E-02 0. -1.
    8880022    1    1    2    0    0 -0.43810620827E+02  0.86267341637E+02  0.66440583518E+02  0.19278856004E+03  0.15294330000E+03 0.  1.
    8880022    1    1    2    0    0  0.43810620827E+02 -0.86267341637E+02 -0.25654279770E+04  0.25718036051E+04  0.15294330000E+03 0.  0.
<mgrwt>
<rscale>  0 0.18097811E+03</rscale>
<asrwt>0</asrwt>
<pdfrwt beam="1">  1        2 0.40489070E+00 0.18097811E+03</pdfrwt>
<pdfrwt beam="2">  1       -2 0.20431138E-01 0.18097811E+03</pdfrwt>
<totfact> 0.72115914E+01</totfact>
</mgrwt>
</event>
<event>
 4    1  0.4840632E-008  0.2407868E+03  0.7818608E-02  0.1119270E+00
         -2   -1    0    0    0  501 -0.00000000000E+00  0.00000000000E+00  0.39851642700E+03  0.39851642701E+03  0.25500000000E-02 0.  1.
          2   -1    0    0  501    0  0.00000000000E+00 -0.00000000000E+00 -0.27122548778E+04  0.27122548778E+04  0.25500000000E-02 0. -1.
    8880022    1    1    2    0    0 -0.16992998775E+03 -0.75567432598E+02 -0.26699645135E+04  0.26808000287E+04  0.15294330000E+03 0.  0.
    8880022    1    1    2    0    0  0.16992998775E+03  0.75567432598E+02  0.35622606264E+03  0.42997127616E+03  0.15294330000E+03 0.  0.
<mgrwt>
<rscale>  0 0.24078682E+03</rscale>
<asrwt>0</asrwt>
<pdfrwt beam="1">  1        2 0.41726997E+00 0.24078682E+03</pdfrwt>
<pdfrwt beam="2">  1       -2 0.61310221E-01 0.24078682E+03</pdfrwt>
<totfact> 0.79903543E+00</totfact>
</mgrwt>
</event>
<event>
 4    1  0.4840632E-008  0.5386964E+03  0.7818608E-02  0.1004145E+00
         -2   -1    0    0    0  501 -0.00000000000E+00  0.00000000000E+00  0.34301573070E+03  0.34301573071E+03  0.25500000000E-02 0.  1.
          2   -1    0    0  501    0  0.00000000000E+00 -0.00000000000E+00 -0.23067323229E+04  0.23067323229E+04  0.25500000000E-02 0. -1.
    8880022    1    1    2    0    0  0.20851566555E+03 -0.47257100462E+03 -0.20361486417E+04  0.21062039506E+04  0.15294330000E+03 0.  0.
    8880022    1    1    2    0    0 -0.20851566555E+03  0.47257100462E+03  0.72432049481E+02  0.54354410308E+03  0.15294330000E+03 0.  0.
<mgrwt>
<rscale>  0 0.53869638E+03</rscale>
<asrwt>0</asrwt>
<pdfrwt beam="1">  1        2 0.35488189E+00 0.53869638E+03</pdfrwt>
<pdfrwt beam="2">  1       -2 0.52771652E-01 0.53869638E+03</pdfrwt>
<totfact> 0.16475572E+01</totfact>
</mgrwt>
</event>
<event>
 4    1  0.4840632E-008  0.8226737E+03  0.7818608E-02  0.9527766E-01
          2   -1    0    0  501    0  0.00000000000E+00  0.00000000000E+00  0.26650622623E+04  0.26650622623E+04  0.25500000000E-02 0. -1.
         -2   -1    0    0    0  501 -0.00000000000E+00 -0.00000000000E+00 -0.51252253111E+03  0.51252253111E+03  0.25500000000E-02 0.  1.
    8880022    1    1    2    0    0  0.56431221353E+03  0.57875041954E+03 -0.52231397943E+02  0.82433008825E+03  0.15294330000E+03 0.  0.
    8880022    1    1    2    0    0 -0.56431221353E+03 -0.57875041954E+03  0.22047711291E+04  0.23532547051E+04  0.15294330000E+03 0.  0.
<mgrwt>
<rscale>  0 0.82267367E+03</rscale>
<asrwt>0</asrwt>
<pdfrwt beam="1">  1        2 0.41000959E+00 0.82267367E+03</pdfrwt>
<pdfrwt beam="2">  1       -2 0.78849619E-01 0.82267367E+03</pdfrwt>
<totfact> 0.41434769E+00</totfact>
</mgrwt>
</event>
<event>
 4    1  0.4840632E-008  0.7407533E+03  0.7818608E-02  0.9649970E-01
         -2   -1    0    0    0  501 -0.00000000000E+00  0.00000000000E+00  0.12193048689E+04  0.12193048689E+04  0.25500000000E-02 0.  1.
          2   -1    0    0  501    0  0.00000000000E+00 -0.00000000000E+00 -0.95676013519E+03  0.95676013519E+03  0.25500000000E-02 0. -1.
    8880022    1    1    2    0    0 -0.63898862257E+03  0.34207791859E+03  0.92310179071E+03  0.11835676285E+04  0.15294330000E+03 0.  0.
    8880022    1    1    2    0    0  0.63898862257E+03 -0.34207791859E+03 -0.66055705696E+03  0.99249737565E+03  0.15294330000E+03 0.  0.
<mgrwt>
<rscale>  0 0.74075328E+03</rscale>
<asrwt>0</asrwt>
<pdfrwt beam="1">  1        2 0.14719387E+00 0.74075328E+03</pdfrwt>
<pdfrwt beam="2">  1       -2 0.18758536E+00 0.74075328E+03</pdfrwt>
<totfact> 0.44244141E+00</totfact>
</mgrwt>
</event>
<event>
 4    1  0.4840632E-008  0.7561355E+03  0.7818608E-02  0.9625774E-01
          2   -1    0    0  501    0  0.00000000000E+00  0.00000000000E+00  0.27757879676E+04  0.27757879676E+04  0.25500000000E-02 0. -1.
         -2   -1    0    0    0  501 -0.00000000000E+00 -0.00000000000E+00 -0.40380925004E+03  0.40380925005E+03  0.25500000000E-02 0.  1.
    8880022    1    1    2    0    0 -0.70006825863E+03 -0.24135792613E+03  0.22987596838E+04  0.24199249889E+04  0.15294330000E+03 0.  0.
    8880022    1    1    2    0    0  0.70006825863E+03  0.24135792613E+03  0.73219033823E+02  0.75967222877E+03  0.15294330000E+03 0.  0.
<mgrwt>
<rscale>  0 0.75613548E+03</rscale>
<asrwt>0</asrwt>
<pdfrwt beam="1">  1        2 0.42704430E+00 0.75613548E+03</pdfrwt>
<pdfrwt beam="2">  1       -2 0.62124500E-01 0.75613548E+03</pdfrwt>
<totfact> 0.60803013E+00</totfact>
</mgrwt>
</event>
<event>
 4    1  0.4840632E-008  0.4252990E+03  0.7818608E-02  0.1035355E+00
         -2   -1    0    0    0  501 -0.00000000000E+00  0.00000000000E+00  0.20026868057E+03  0.20026868058E+03  0.25500000000E-02 0.  1.
          2   -1    0    0  501    0  0.00000000000E+00 -0.00000000000E+00 -0.20035011666E+04  0.20035011666E+04  0.25500000000E-02 0. -1.
    8880022    1    1    2    0    0  0.28149269287E+03  0.27973106707E+03 -0.17181997262E+04  0.17700535467E+04  0.15294330000E+03 0.  0.
    8880022    1    1    2    0    0 -0.28149269287E+03 -0.27973106707E+03 -0.85032759789E+02  0.43371630045E+03  0.15294330000E+03 0.  0.
<mgrwt>
<rscale>  0 0.42529902E+03</rscale>
<asrwt>0</asrwt>
<pdfrwt beam="1">  1        2 0.30823093E+00 0.42529902E+03</pdfrwt>
<pdfrwt beam="2">  1       -2 0.30810568E-01 0.42529902E+03</pdfrwt>
<totfact> 0.70039286E+01</totfact>
</mgrwt>
</event>
<event>
 4    1  0.4840632E-008  0.7697168E+03  0.7818608E-02  0.9604916E-01
         -2   -1    0    0    0  501 -0.00000000000E+00  0.00000000000E+00  0.18871216071E+04  0.18871216071E+04  0.25500000000E-02 0.  1.
          2   -1    0    0  501    0  0.00000000000E+00 -0.00000000000E+00 -0.80273393440E+03  0.80273393440E+03  0.25500000000E-02 0. -1.
    8880022    1    1    2    0    0  0.75068765086E+03 -0.74433231004E+02 -0.50727880588E+03  0.92184363909E+03  0.15294330000E+03 0.  0.
    8880022    1    1    2    0    0 -0.75068765086E+03  0.74433231004E+02  0.15916664786E+04  0.17680119024E+04  0.15294330000E+03 0.  0.
<mgrwt>
<rscale>  0 0.76971677E+03</rscale>
<asrwt>0</asrwt>
<pdfrwt beam="1">  1        2 0.12349753E+00 0.76971677E+03</pdfrwt>
<pdfrwt beam="2">  1       -2 0.29032640E+00 0.76971677E+03</pdfrwt>
<totfact> 0.12964680E+00</totfact>
</mgrwt>
</event>
<event>
 4    1  0.4840632E-008  0.5311166E+03  0.7818608E-02  0.1005962E+00
          2   -1    0    0  501    0  0.00000000000E+00  0.00000000000E+00  0.16733015490E+04  0.16733015490E+04  0.25500000000E-02 0. -1.
         -2   -1    0    0    0  501 -0.00000000000E+00 -0.00000000000E+00 -0.64645173438E+03  0.64645173439E+03  0.25500000000E-02 0.  1.
    8880022    1    1    2    0    0 -0.39607731685E+03  0.31908613595E+03 -0.48381467513E+03  0.71844380154E+03  0.15294330000E+03 0.  0.
    8880022    1    1    2    0    0  0.39607731685E+03 -0.31908613595E+03  0.15106644897E+04  0.16013094818E+04  0.15294330000E+03 0.  0.
<mgrwt>
<rscale>  0 0.53111661E+03</rscale>
<asrwt>0</asrwt>
<pdfrwt beam="1">  1        2 0.25743100E+00 0.53111661E+03</pdfrwt>
<pdfrwt beam="2">  1       -2 0.99454115E-01 0.53111661E+03</pdfrwt>
<totfact> 0.90659174E+00</totfact>
</mgrwt>
</event>
<event>
 4    1  0.4840632E-008  0.9619783E+03  0.7818608E-02  0.9351258E-01
         -2   -1    0    0    0  501 -0.00000000000E+00  0.00000000000E+00  0.94522620212E+03  0.94522620212E+03  0.25500000000E-02 0.  1.
          2   -1    0    0  501    0  0.00000000000E+00 -0.00000000000E+00 -0.16186687193E+04  0.16186687193E+04  0.25500000000E-02 0. -1.
    8880022    1    1    2    0    0  0.93045315823E+03  0.19044039890E+03 -0.11425811125E+04  0.14936177144E+04  0.15294330000E+03 0.  0.
    8880022    1    1    2    0    0 -0.93045315823E+03 -0.19044039890E+03  0.46913859531E+03  0.10702772070E+04  0.15294330000E+03 0.  0.
<mgrwt>
<rscale>  0 0.96197831E+03</rscale>
<asrwt>0</asrwt>
<pdfrwt beam="1">  1        2 0.24902596E+00 0.96197831E+03</pdfrwt>
<pdfrwt beam="2">  1       -2 0.14541942E+00 0.96197831E+03</pdfrwt>
<totfact> 0.35345637E+00</totfact>
</mgrwt>
</event>
<event>
 4    1  0.4840632E-008  0.6399097E+03  0.7818608E-02  0.9825899E-01
          2   -1    0    0  501    0  0.00000000000E+00  0.00000000000E+00  0.15993784761E+04  0.15993784761E+04  0.25500000000E-02 0. -1.
         -2   -1    0    0    0  501 -0.00000000000E+00 -0.00000000000E+00 -0.47428521649E+03  0.47428521650E+03  0.25500000000E-02 0.  1.
    8880022    1    1    2    0    0 -0.48120352079E+03 -0.39311059934E+03 -0.14080681110E+03  0.65521827111E+03  0.15294330000E+03 0.  0.
    8880022    1    1    2    0    0  0.48120352079E+03  0.39311059934E+03  0.12659000707E+04  0.14184454215E+04  0.15294330000E+03 0.  0.
<mgrwt>
<rscale>  0 0.63990970E+03</rscale>
<asrwt>0</asrwt>
<pdfrwt beam="1">  1        2 0.24605823E+00 0.63990970E+03</pdfrwt>
<pdfrwt beam="2">  1       -2 0.72966956E-01 0.63990970E+03</pdfrwt>
<totfact> 0.19723679E+01</totfact>
</mgrwt>
</event>
<event>
 4    1  0.4840632E-008  0.1787535E+03  0.7818608E-02  0.1169015E+00
         -2   -1    0    0    0  501 -0.00000000000E+00  0.00000000000E+00  0.39701510968E+03  0.39701510969E+03  0.25500000000E-02 0.  1.
          2   -1    0    0  501    0  0.00000000000E+00 -0.00000000000E+00 -0.14253025295E+04  0.14253025295E+04  0.25500000000E-02 0. -1.
    8880022    1    1    2    0    0 -0.83119961960E+02  0.40647524084E+02  0.37091611204E+03  0.41174210918E+03  0.15294330000E+03 0.  1.
    8880022    1    1    2    0    0  0.83119961960E+02 -0.40647524084E+02 -0.13992035318E+04  0.14105755300E+04  0.15294330000E+03 0.  0.
<mgrwt>
<rscale>  0 0.17875347E+03</rscale>
<asrwt>0</asrwt>
<pdfrwt beam="1">  1        2 0.21927731E+00 0.17875347E+03</pdfrwt>
<pdfrwt beam="2">  1       -2 0.61079248E-01 0.17875347E+03</pdfrwt>
<totfact> 0.40135666E+01</totfact>
</mgrwt>
</event>
<event>
 4    1  0.4840632E-008  0.2423620E+03  0.7818608E-02  0.1118229E+00
         -2   -1    0    0    0  501 -0.00000000000E+00  0.00000000000E+00  0.34839418780E+03  0.34839418781E+03  0.25500000000E-02 0.  1.
          2   -1    0    0  501    0  0.00000000000E+00 -0.00000000000E+00 -0.13601162710E+04  0.13601162710E+04  0.25500000000E-02 0. -1.
    8880022    1    1    2    0    0 -0.17805681123E+03  0.60361173669E+02 -0.13054182967E+04  0.13277259814E+04  0.15294330000E+03 0. -1.
    8880022    1    1    2    0    0  0.17805681123E+03 -0.60361173669E+02  0.29369621357E+03  0.38078447735E+03  0.15294330000E+03 0.  0.
<mgrwt>
<rscale>  0 0.24236203E+03</rscale>
<asrwt>0</asrwt>
<pdfrwt beam="1">  1        2 0.20924865E+00 0.24236203E+03</pdfrwt>
<pdfrwt beam="2">  1       -2 0.53599106E-01 0.24236203E+03</pdfrwt>
<totfact> 0.55528605E+01</totfact>
</mgrwt>
</event>
<event>
 4    1  0.4840632E-008  0.5307048E+03  0.7818608E-02  0.1006061E+00
          2   -1    0    0  501    0  0.00000000000E+00  0.00000000000E+00  0.14859716079E+04  0.14859716079E+04  0.25500000000E-02 0. -1.
         -2   -1    0    0    0  501 -0.00000000000E+00 -0.00000000000E+00 -0.45684744851E+03  0.45684744852E+03  0.25500000000E-02 0.  1.
    8880022    1    1    2    0    0  0.50445465850E+03  0.61493219799E+02  0.12576226109E+04  0.13650136274E+04  0.15294330000E+03 0.  0.
    8880022    1    1    2    0    0 -0.50445465850E+03 -0.61493219799E+02 -0.22849845143E+03  0.57780542909E+03  0.15294330000E+03 0.  0.
<mgrwt>
<rscale>  0 0.53070479E+03</rscale>
<asrwt>0</asrwt>
<pdfrwt beam="1">  1        2 0.22861102E+00 0.53070479E+03</pdfrwt>
<pdfrwt beam="2">  1       -2 0.70284223E-01 0.53070479E+03</pdfrwt>
<totfact> 0.25139936E+01</totfact>
</mgrwt>
</event>
<event>
 4    1  0.4840632E-008  0.2620301E+03  0.7818608E-02  0.1105930E+00
          2   -1    0    0  501    0  0.00000000000E+00  0.00000000000E+00  0.20016639530E+04  0.20016639530E+04  0.25500000000E-02 0. -1.
         -2   -1    0    0    0  501 -0.00000000000E+00 -0.00000000000E+00 -0.97424320076E+02  0.97424320109E+02  0.25500000000E-02 0.  1.
    8880022    1    1    2    0    0  0.17809538645E+03 -0.11640519870E+03  0.10730659256E+03  0.28315101056E+03  0.15294330000E+03 0.  1.
    8880022    1    1    2    0    0 -0.17809538645E+03  0.11640519870E+03  0.17969330404E+04  0.18159372625E+04  0.15294330000E+03 0.  0.
<mgrwt>
<rscale>  0 0.26203013E+03</rscale>
<asrwt>0</asrwt>
<pdfrwt beam="1">  1        2 0.30794830E+00 0.26203013E+03</pdfrwt>
<pdfrwt beam="2">  1       -2 0.14988357E-01 0.26203013E+03</pdfrwt>
<totfact> 0.25583315E+02</totfact>
</mgrwt>
</event>
<event>
 4    1  0.4840632E-008  0.4220121E+03  0.7818608E-02  0.1036413E+00
          2   -1    0    0  501    0  0.00000000000E+00  0.00000000000E+00  0.73147743579E+03  0.73147743580E+03  0.25500000000E-02 0. -1.
         -2   -1    0    0    0  501 -0.00000000000E+00 -0.00000000000E+00 -0.50714637569E+03  0.50714637570E+03  0.25500000000E-02 0.  1.
    8880022    1    1    2    0    0  0.22001882870E+03  0.32602799524E+03  0.55872244839E+03  0.70018923586E+03  0.15294330000E+03 0.  0.
    8880022    1    1    2    0    0 -0.22001882870E+03 -0.32602799524E+03 -0.33439138828E+03  0.53843457564E+03  0.15294330000E+03 0.  0.
<mgrwt>
<rscale>  0 0.42201208E+03</rscale>
<asrwt>0</asrwt>
<pdfrwt beam="1">  1        2 0.11253499E+00 0.42201208E+03</pdfrwt>
<pdfrwt beam="2">  1       -2 0.78022520E-01 0.42201208E+03</pdfrwt>
<totfact> 0.59209456E+01</totfact>
</mgrwt>
</event>
<event>
 4    1  0.4840632E-008  0.4012915E+03  0.7818608E-02  0.1043333E+00
          2   -1    0    0  501    0  0.00000000000E+00  0.00000000000E+00  0.55060916154E+03  0.55060916154E+03  0.25500000000E-02 0. -1.
         -2   -1    0    0    0  501 -0.00000000000E+00 -0.00000000000E+00 -0.53387359939E+03  0.53387359939E+03  0.25500000000E-02 0.  1.
    8880022    1    1    2    0    0  0.37036600688E+03 -0.21730627253E+02  0.37299430813E+03  0.54786823792E+03  0.15294330000E+03 0.  0.
    8880022    1    1    2    0    0 -0.37036600688E+03  0.21730627253E+02 -0.35625874597E+03  0.53661452302E+03  0.15294330000E+03 0.  0.
<mgrwt>
<rscale>  0 0.40129148E+03</rscale>
<asrwt>0</asrwt>
<pdfrwt beam="1">  1        2 0.84709101E-01 0.40129148E+03</pdfrwt>
<pdfrwt beam="2">  1       -2 0.82134400E-01 0.40129148E+03</pdfrwt>
<totfact> 0.74532266E+01</totfact>
</mgrwt>
</event>
<event>
 4    1  0.4840632E-008  0.3039802E+03  0.7818608E-02  0.1083268E+00
          2   -1    0    0  501    0  0.00000000000E+00  0.00000000000E+00  0.24566231414E+03  0.24566231415E+03  0.25500000000E-02 0. -1.
         -2   -1    0    0    0  501 -0.00000000000E+00 -0.00000000000E+00 -0.37769678908E+03  0.37769678909E+03  0.25500000000E-02 0.  1.
    8880022    1    1    2    0    0 -0.21931900489E+03 -0.14460798022E+03 -0.86013729656E+02  0.31591503375E+03  0.15294330000E+03 0.  0.
    8880022    1    1    2    0    0  0.21931900489E+03  0.14460798022E+03 -0.46020745284E+02  0.30744406948E+03  0.15294330000E+03 0.  0.
<mgrwt>
<rscale>  0 0.30398018E+03</rscale>
<asrwt>0</asrwt>
<pdfrwt beam="1">  1        2 0.37794202E-01 0.30398018E+03</pdfrwt>
<pdfrwt beam="2">  1       -2 0.58107198E-01 0.30398018E+03</pdfrwt>
<totfact> 0.38597380E+02</totfact>
</mgrwt>
</event>
<event>
 4    1  0.4840632E-008  0.3558037E+03  0.7818608E-02  0.1060258E+00
          2   -1    0    0  501    0  0.00000000000E+00  0.00000000000E+00  0.37515531081E+03  0.37515531082E+03  0.25500000000E-02 0. -1.
         -2   -1    0    0    0  501 -0.00000000000E+00 -0.00000000000E+00 -0.19702972041E+04  0.19702972041E+04  0.25500000000E-02 0.  1.
    8880022    1    1    2    0    0  0.12719727614E+03 -0.29500082328E+03 -0.18651585135E+04  0.18987923969E+04  0.15294330000E+03 0.  1.
    8880022    1    1    2    0    0 -0.12719727614E+03  0.29500082328E+03  0.27001662027E+03  0.44666011802E+03  0.15294330000E+03 0.  0.
<mgrwt>
<rscale>  0 0.35580372E+03</rscale>
<asrwt>0</asrwt>
<pdfrwt beam="1">  1        2 0.57716202E-01 0.35580372E+03</pdfrwt>
<pdfrwt beam="2">  1       -2 0.30312264E+00 0.35580372E+03</pdfrwt>
<totfact> 0.29414354E+00</totfact>
</mgrwt>
</event>
<event>
 4    1  0.4840632E-008  0.2156814E+03  0.7818608E-02  0.1137144E+00
         -2   -1    0    0    0  501 -0.00000000000E+00  0.00000000000E+00  0.25799985808E+03  0.25799985810E+03  0.25500000000E-02 0.  1.
          2   -1    0    0  501    0  0.00000000000E+00 -0.00000000000E+00 -0.10605529607E+04  0.10605529607E+04  0.25500000000E-02 0. -1.
    8880022    1    1    2    0    0  0.14481574763E+03 -0.46424413035E+02  0.19934933479E+03  0.29369820766E+03  0.15294330000E+03 0.  1.
    8880022    1    1    2    0    0 -0.14481574763E+03  0.46424413035E+02 -0.10019024374E+04  0.10248546112E+04  0.15294330000E+03 0.  0.
<mgrwt>
<rscale>  0 0.21568143E+03</rscale>
<asrwt>0</asrwt>
<pdfrwt beam="1">  1        2 0.16316199E+00 0.21568143E+03</pdfrwt>
<pdfrwt beam="2">  1       -2 0.39692286E-01 0.21568143E+03</pdfrwt>
<totfact> 0.14914228E+02</totfact>
</mgrwt>
</event>
<event>
 4    1  0.4840632E-008  0.3089078E+03  0.7818608E-02  0.1080871E+00
          2   -1    0    0  501    0  0.00000000000E+00  0.00000000000E+00  0.40640516735E+03  0.40640516736E+03  0.25500000000E-02 0. -1.
         -2   -1    0    0    0  501 -0.00000000000E+00 -0.00000000000E+00 -0.98393405299E+03  0.98393405299E+03  0.25500000000E-02 0.  1.
    8880022    1    1    2    0    0  0.21219909930E+03 -0.16432861032E+03  0.31781474120E+03  0.44320448176E+03  0.15294330000E+03 0. -1.
    8880022    1    1    2    0    0 -0.21219909930E+03  0.16432861032E+03 -0.89534362684E+03  0.94713473859E+03  0.15294330000E+03 0.  0.
<mgrwt>
<rscale>  0 0.30890776E+03</rscale>
<asrwt>0</asrwt>
<pdfrwt beam="1">  1        2 0.62523872E-01 0.30890776E+03</pdfrwt>
<pdfrwt beam="2">  1       -2 0.15137447E+00 0.30890776E+03</pdfrwt>
<totfact> 0.24390840E+01</totfact>
</mgrwt>
</event>
<event>
 4    1  0.4840632E-008  0.4585802E+03  0.7818608E-02  0.1025194E+00
          2   -1    0    0  501    0  0.00000000000E+00  0.00000000000E+00  0.18412950026E+04  0.18412950026E+04  0.25500000000E-02 0. -1.
         -2   -1    0    0    0  501 -0.00000000000E+00 -0.00000000000E+00 -0.20190326330E+03  0.20190326331E+03  0.25500000000E-02 0.  1.
    8880022    1    1    2    0    0  0.18870477924E+03  0.38896619035E+03  0.14929668396E+04  0.15618085120E+04  0.15294330000E+03 0.  0.
    8880022    1    1    2    0    0 -0.18870477924E+03 -0.38896619035E+03  0.14642489973E+03  0.48138975396E+03  0.15294330000E+03 0.  1.
<mgrwt>
<rscale>  0 0.45858025E+03</rscale>
<asrwt>0</asrwt>
<pdfrwt beam="1">  1        2 0.28327615E+00 0.45858025E+03</pdfrwt>
<pdfrwt beam="2">  1       -2 0.31062041E-01 0.45858025E+03</pdfrwt>
<totfact> 0.83741917E+01</totfact>
</mgrwt>
</event>
<event>
 4    1  0.4840632E-008  0.7070847E+03  0.7818608E-02  0.9705193E-01
         -2   -1    0    0    0  501 -0.00000000000E+00  0.00000000000E+00  0.35011732008E+03  0.35011732008E+03  0.25500000000E-02 0.  1.
          2   -1    0    0  501    0  0.00000000000E+00 -0.00000000000E+00 -0.23614003698E+04  0.23614003698E+04  0.25500000000E-02 0. -1.
    8880022    1    1    2    0    0  0.35714659440E+03  0.59078200651E+03 -0.15326628196E+03  0.72350485507E+03  0.15294330000E+03 0.  0.
    8880022    1    1    2    0    0 -0.35714659440E+03 -0.59078200651E+03 -0.18580167678E+04  0.19880128349E+04  0.15294330000E+03 0.  0.
<mgrwt>
<rscale>  0 0.70708466E+03</rscale>
<asrwt>0</asrwt>
<pdfrwt beam="1">  1        2 0.36329235E+00 0.70708466E+03</pdfrwt>
<pdfrwt beam="2">  1       -2 0.53864205E-01 0.70708466E+03</pdfrwt>
<totfact> 0.14272341E+01</totfact>
</mgrwt>
</event>
<event>
 4    1  0.4840632E-008  0.2770901E+03  0.7818608E-02  0.1097289E+00
         -2   -1    0    0    0  501 -0.00000000000E+00  0.00000000000E+00  0.15802636343E+04  0.15802636343E+04  0.25500000000E-02 0.  1.
          2   -1    0    0  501    0  0.00000000000E+00 -0.00000000000E+00 -0.17271311751E+03  0.17271311752E+03  0.25500000000E-02 0. -1.
    8880022    1    1    2    0    0  0.21828286469E+03  0.75761882474E+02 -0.39272234355E+02  0.27985930976E+03  0.15294330000E+03 0.  0.
    8880022    1    1    2    0    0 -0.21828286469E+03 -0.75761882474E+02  0.14468227512E+04  0.14731174421E+04  0.15294330000E+03 0.  0.
<mgrwt>
<rscale>  0 0.27709010E+03</rscale>
<asrwt>0</asrwt>
<pdfrwt beam="1">  1        2 0.26571250E-01 0.27709010E+03</pdfrwt>
<pdfrwt beam="2">  1       -2 0.24311747E+00 0.27709010E+03</pdfrwt>
<totfact> 0.15869803E+01</totfact>
</mgrwt>
</event>
<event>
 4    1  0.4840632E-008  0.3333480E+03  0.7818608E-02  0.1069665E+00
          2   -1    0    0  501    0  0.00000000000E+00  0.00000000000E+00  0.18755593737E+04  0.18755593737E+04  0.25500000000E-02 0. -1.
         -2   -1    0    0    0  501 -0.00000000000E+00 -0.00000000000E+00 -0.79956285875E+02  0.79956285916E+02  0.25500000000E-02 0.  1.
    8880022    1    1    2    0    0  0.23919577988E+03 -0.17468433658E+03  0.40019091002E+03  0.52083937643E+03  0.15294330000E+03 0.  1.
    8880022    1    1    2    0    0 -0.23919577988E+03  0.17468433658E+03  0.13954121778E+04  0.14346762832E+04  0.15294330000E+03 0.  0.
<mgrwt>
<rscale>  0 0.33334800E+03</rscale>
<asrwt>0</asrwt>
<pdfrwt beam="1">  1        2 0.28854759E+00 0.33334800E+03</pdfrwt>
<pdfrwt beam="2">  1       -2 0.12300967E-01 0.33334800E+03</pdfrwt>
<totfact> 0.40718695E+02</totfact>
</mgrwt>
</event>
<event>
 4    1  0.4840632E-008  0.3907325E+03  0.7818608E-02  0.1047037E+00
         -2   -1    0    0    0  501 -0.00000000000E+00  0.00000000000E+00  0.22477410413E+03  0.22477410415E+03  0.25500000000E-02 0.  1.
          2   -1    0    0  501    0  0.00000000000E+00 -0.00000000000E+00 -0.19195946317E+04  0.19195946317E+04  0.25500000000E-02 0. -1.
    8880022    1    1    2    0    0 -0.29731130463E+03 -0.20220336602E+03  0.14457273429E+02  0.39099984509E+03  0.15294330000E+03 0.  0.
    8880022    1    1    2    0    0  0.29731130463E+03  0.20220336602E+03 -0.17092778010E+04  0.17533688907E+04  0.15294330000E+03 0.  0.
<mgrwt>
<rscale>  0 0.39073247E+03</rscale>
<asrwt>0</asrwt>
<pdfrwt beam="1">  1        2 0.29532224E+00 0.39073247E+03</pdfrwt>
<pdfrwt beam="2">  1       -2 0.34580633E-01 0.39073247E+03</pdfrwt>
<totfact> 0.63086885E+01</totfact>
</mgrwt>
</event>
<event>
 4    1  0.4840632E-008  0.2768491E+03  0.7818608E-02  0.1097422E+00
          2   -1    0    0  501    0  0.00000000000E+00  0.00000000000E+00  0.12988469266E+04  0.12988469266E+04  0.25500000000E-02 0. -1.
         -2   -1    0    0    0  501 -0.00000000000E+00 -0.00000000000E+00 -0.78671103290E+02  0.78671103331E+02  0.25500000000E-02 0.  1.
    8880022    1    1    2    0    0 -0.17517561702E+03  0.15022402211E+03  0.26576985682E+03  0.38376949257E+03  0.15294330000E+03 0.  0.
    8880022    1    1    2    0    0  0.17517561702E+03 -0.15022402211E+03  0.95440596647E+03  0.99374853734E+03  0.15294330000E+03 0.  0.
<mgrwt>
<rscale>  0 0.27684907E+03</rscale>
<asrwt>0</asrwt>
<pdfrwt beam="1">  1        2 0.19982261E+00 0.27684907E+03</pdfrwt>
<pdfrwt beam="2">  1       -2 0.12103246E-01 0.27684907E+03</pdfrwt>
<totfact> 0.85842932E+02</totfact>
</mgrwt>
</event>
<event>
 4    1  0.4840632E-008  0.3925499E+03  0.7818608E-02  0.1046390E+00
          2   -1    0    0  501    0  0.00000000000E+00  0.00000000000E+00  0.30576339349E+04  0.30576339349E+04  0.25500000000E-02 0. -1.
         -2   -1    0    0    0  501 -0.00000000000E+00 -0.00000000000E+00 -0.69070729047E+02  0.69070729094E+02  0.25500000000E-02 0.  1.
    8880022    1    1    2    0    0 -0.77899943751E+02  0.35303735208E+03  0.23071606842E+04  0.23403174675E+04  0.15294330000E+03 0. -1.
    8880022    1    1    2    0    0  0.77899943751E+02 -0.35303735208E+03  0.68140252165E+03  0.78638719644E+03  0.15294330000E+03 0.  0.
<mgrwt>
<rscale>  0 0.39254990E+03</rscale>
<asrwt>0</asrwt>
<pdfrwt beam="1">  1        2 0.47040516E+00 0.39254990E+03</pdfrwt>
<pdfrwt beam="2">  1       -2 0.10626267E-01 0.39254990E+03</pdfrwt>
<totfact> 0.11205231E+02</totfact>
</mgrwt>
</event>
<event>
 4    1  0.4840632E-008  0.5457131E+03  0.7818608E-02  0.1002491E+00
          2   -1    0    0  501    0  0.00000000000E+00  0.00000000000E+00  0.23116546259E+04  0.23116546259E+04  0.25500000000E-02 0. -1.
         -2   -1    0    0    0  501 -0.00000000000E+00 -0.00000000000E+00 -0.28952655674E+03  0.28952655675E+03  0.25500000000E-02 0.  1.
    8880022    1    1    2    0    0  0.39353886996E+03 -0.34574307879E+03  0.42107740381E+02  0.54733521129E+03  0.15294330000E+03 0.  0.
    8880022    1    1    2    0    0 -0.39353886996E+03  0.34574307879E+03  0.19800203287E+04  0.20538459713E+04  0.15294330000E+03 0.  0.
<mgrwt>
<rscale>  0 0.54571309E+03</rscale>
<asrwt>0</asrwt>
<pdfrwt beam="1">  1        2 0.35563915E+00 0.54571309E+03</pdfrwt>
<pdfrwt beam="2">  1       -2 0.44542550E-01 0.54571309E+03</pdfrwt>
<totfact> 0.23000100E+01</totfact>
</mgrwt>
</event>
<event>
 4    1  0.4840632E-008  0.4247260E+03  0.7818608E-02  0.1035539E+00
          2   -1    0    0  501    0  0.00000000000E+00  0.00000000000E+00  0.18569749602E+04  0.18569749602E+04  0.25500000000E-02 0. -1.
         -2   -1    0    0    0  501 -0.00000000000E+00 -0.00000000000E+00 -0.12431385419E+03  0.12431385422E+03  0.25500000000E-02 0.  1.
    8880022    1    1    2    0    0 -0.20552508687E+03 -0.33876235040E+03  0.40319346449E+03  0.58562540434E+03  0.15294330000E+03 0.  0.
    8880022    1    1    2    0    0  0.20552508687E+03  0.33876235040E+03  0.13294676415E+04  0.13956634101E+04  0.15294330000E+03 0.  0.
<mgrwt>
<rscale>  0 0.42472596E+03</rscale>
<asrwt>0</asrwt>
<pdfrwt beam="1">  1        2 0.28568848E+00 0.42472596E+03</pdfrwt>
<pdfrwt beam="2">  1       -2 0.19125207E-01 0.42472596E+03</pdfrwt>
<totfact> 0.19613240E+02</totfact>
</mgrwt>
</event>
<event>
 4    1  0.4840632E-008  0.1295874E+04  0.7818608E-02  0.9032844E-01
         -2   -1    0    0    0  501 -0.00000000000E+00  0.00000000000E+00  0.90993333824E+03  0.90993333824E+03  0.25500000000E-02 0.  1.
          2   -1    0    0  501    0  0.00000000000E+00 -0.00000000000E+00 -0.33497585372E+04  0.33497585372E+04  0.25500000000E-02 0. -1.
    8880022    1    1    2    0    0 -0.78142779923E+03 -0.10223832226E+04  0.20734263370E+03  0.13123564608E+04  0.15294330000E+03 0.  0.
    8880022    1    1    2    0    0  0.78142779923E+03  0.10223832226E+04 -0.26471678327E+04  0.29473354147E+04  0.15294330000E+03 0.  0.
<mgrwt>
<rscale>  0 0.12958736E+04</rscale>
<asrwt>0</asrwt>
<pdfrwt beam="1">  1        2 0.51534746E+00 0.12958736E+04</pdfrwt>
<pdfrwt beam="2">  1       -2 0.13998975E+00 0.12958736E+04</pdfrwt>
<totfact> 0.36250820E-01</totfact>
</mgrwt>
</event>
<event>
 4    1  0.4840632E-008  0.2291107E+03  0.7818608E-02  0.1127267E+00
         -2   -1    0    0    0  501 -0.00000000000E+00  0.00000000000E+00  0.88838950916E+03  0.88838950916E+03  0.25500000000E-02 0.  1.
          2   -1    0    0  501    0  0.00000000000E+00 -0.00000000000E+00 -0.95080990711E+03  0.95080990711E+03  0.25500000000E-02 0. -1.
    8880022    1    1    2    0    0  0.17050190823E+03  0.54011228625E+01 -0.92177820037E+03  0.94982460303E+03  0.15294330000E+03 0.  0.
    8880022    1    1    2    0    0 -0.17050190823E+03 -0.54011228625E+01  0.85935780242E+03  0.88937481324E+03  0.15294330000E+03 0.  1.
<mgrwt>
<rscale>  0 0.22911073E+03</rscale>
<asrwt>0</asrwt>
<pdfrwt beam="1">  1        2 0.14627845E+00 0.22911073E+03</pdfrwt>
<pdfrwt beam="2">  1       -2 0.13667531E+00 0.22911073E+03</pdfrwt>
<totfact> 0.11707177E+01</totfact>
</mgrwt>
</event>
<event>
 4    1  0.4840632E-008  0.4289545E+03  0.7818608E-02  0.1034191E+00
         -2   -1    0    0    0  501 -0.00000000000E+00  0.00000000000E+00  0.24069830702E+03  0.24069830703E+03  0.25500000000E-02 0.  1.
          2   -1    0    0  501    0  0.00000000000E+00 -0.00000000000E+00 -0.15502162207E+04  0.15502162207E+04  0.25500000000E-02 0. -1.
    8880022    1    1    2    0    0  0.36933756126E+03  0.15556381140E+03 -0.12922810100E+04  0.13616138202E+04  0.15294330000E+03 0. -1.
    8880022    1    1    2    0    0 -0.36933756126E+03 -0.15556381140E+03 -0.17236903633E+02  0.42930070748E+03  0.15294330000E+03 0.  0.
<mgrwt>
<rscale>  0 0.42895453E+03</rscale>
<asrwt>0</asrwt>
<pdfrwt beam="1">  1        2 0.23849480E+00 0.42895453E+03</pdfrwt>
<pdfrwt beam="2">  1       -2 0.37030510E-01 0.42895453E+03</pdfrwt>
<totfact> 0.86779127E+01</totfact>
</mgrwt>
</event>
<event>
 4    1  0.4840632E-008  0.2356063E+03  0.7818608E-02  0.1122755E+00
         -2   -1    0    0    0  501 -0.00000000000E+00  0.00000000000E+00  0.22648187487E+03  0.22648187488E+03  0.25500000000E-02 0.  1.
          2   -1    0    0  501    0  0.00000000000E+00 -0.00000000000E+00 -0.36447717731E+03  0.36447717732E+03  0.25500000000E-02 0. -1.
    8880022    1    1    2    0    0 -0.10638855907E+03 -0.14422256707E+03  0.10010714697E+03  0.25599173472E+03  0.15294330000E+03 0.  1.
    8880022    1    1    2    0    0  0.10638855907E+03  0.14422256707E+03 -0.23810244941E+03  0.33496731749E+03  0.15294330000E+03 0. -1.
<mgrwt>
<rscale>  0 0.23560630E+03</rscale>
<asrwt>0</asrwt>
<pdfrwt beam="1">  1        2 0.56073412E-01 0.23560630E+03</pdfrwt>
<pdfrwt beam="2">  1       -2 0.34843365E-01 0.23560630E+03</pdfrwt>
<totfact> 0.68688118E+02</totfact>
</mgrwt>
</event>
<event>
 4    1  0.4840632E-008  0.1446833E+04  0.7818608E-02  0.8920599E-01
          2   -1    0    0  501    0  0.00000000000E+00  0.00000000000E+00  0.22516073693E+04  0.22516073693E+04  0.25500000000E-02 0. -1.
         -2   -1    0    0    0  501 -0.00000000000E+00 -0.00000000000E+00 -0.15246914973E+04  0.15246914973E+04  0.25500000000E-02 0.  1.
    8880022    1    1    2    0    0 -0.97783292149E+03  0.10553569481E+04 -0.81604625987E+03  0.16611016409E+04  0.15294330000E+03 0.  0.
    8880022    1    1    2    0    0  0.97783292149E+03 -0.10553569481E+04  0.15429621319E+04  0.21151972257E+04  0.15294330000E+03 0.  0.
<mgrwt>
<rscale>  0 0.14468335E+04</rscale>
<asrwt>0</asrwt>
<pdfrwt beam="1">  1        2 0.34640113E+00 0.14468335E+04</pdfrwt>
<pdfrwt beam="2">  1       -2 0.23456792E+00 0.14468335E+04</pdfrwt>
<totfact> 0.36473459E-01</totfact>
</mgrwt>
</event>
<event>
 4    1  0.4840632E-008  0.2058698E+03  0.7818608E-02  0.1144879E+00
          2   -1    0    0  501    0  0.00000000000E+00  0.00000000000E+00  0.15254102006E+04  0.15254102006E+04  0.25500000000E-02 0. -1.
         -2   -1    0    0    0  501 -0.00000000000E+00 -0.00000000000E+00 -0.97861906476E+02  0.97861906509E+02  0.25500000000E-02 0.  1.
    8880022    1    1    2    0    0  0.12994220585E+03 -0.45888361767E+02  0.14005962976E+04  0.14156455632E+04  0.15294330000E+03 0.  0.
    8880022    1    1    2    0    0 -0.12994220585E+03  0.45888361767E+02  0.26951996475E+02  0.20762654391E+03  0.15294330000E+03 0.  1.
<mgrwt>
<rscale>  0 0.20586979E+03</rscale>
<asrwt>0</asrwt>
<pdfrwt beam="1">  1        2 0.23467849E+00 0.20586979E+03</pdfrwt>
<pdfrwt beam="2">  1       -2 0.15055678E-01 0.20586979E+03</pdfrwt>
<totfact> 0.45676894E+02</totfact>
</mgrwt>
</event>
<event>
 4    1  0.5003996E-008  0.1088014E+04  0.7818608E-02  0.9216954E-01
          2   -1    0    0  501    0  0.00000000000E+00  0.00000000000E+00  0.26840699876E+04  0.26840699876E+04  0.25500000000E-02 0. -1.
         -2   -1    0    0    0  501 -0.00000000000E+00 -0.00000000000E+00 -0.75173363920E+03  0.75173363920E+03  0.25500000000E-02 0.  1.
    8880022    1    1    2    0    0 -0.10417555551E+04 -0.27409422265E+03 -0.13825290394E+03  0.10967624163E+04  0.15294330000E+03 0.  0.
    8880022    1    1    2    0    0  0.10417555551E+04  0.27409422265E+03  0.20705892523E+04  0.23390412105E+04  0.15294330000E+03 0.  0.
<mgrwt>
<rscale>  0 0.10880138E+04</rscale>
<asrwt>0</asrwt>
<pdfrwt beam="1">  1        2 0.41293385E+00 0.10880138E+04</pdfrwt>
<pdfrwt beam="2">  1       -2 0.11565133E+00 0.10880138E+04</pdfrwt>
<totfact> 0.15756858E+00</totfact>
</mgrwt>
</event>
<event>
 4    1  0.4840632E-008  0.7452515E+03  0.7818608E-02  0.9642830E-01
          2   -1    0    0  501    0  0.00000000000E+00  0.00000000000E+00  0.23121566354E+04  0.23121566354E+04  0.25500000000E-02 0. -1.
         -2   -1    0    0    0  501 -0.00000000000E+00 -0.00000000000E+00 -0.40767492064E+03  0.40767492065E+03  0.25500000000E-02 0.  1.
    8880022    1    1    2    0    0 -0.32059685159E+03  0.65515322330E+03  0.80637592184E+02  0.74960133506E+03  0.15294330000E+03 0.  0.
    8880022    1    1    2    0    0  0.32059685159E+03 -0.65515322330E+03  0.18238441225E+04  0.19702302210E+04  0.15294330000E+03 0.  0.
<mgrwt>
<rscale>  0 0.74525146E+03</rscale>
<asrwt>0</asrwt>
<pdfrwt beam="1">  1        2 0.35571640E+00 0.74525146E+03</pdfrwt>
<pdfrwt beam="2">  1       -2 0.62719219E-01 0.74525146E+03</pdfrwt>
<totfact> 0.10979232E+01</totfact>
</mgrwt>
</event>
<event>
 4    1  0.4840632E-008  0.2418409E+03  0.7818608E-02  0.1118573E+00
         -2   -1    0    0    0  501 -0.00000000000E+00  0.00000000000E+00  0.18495163673E+03  0.18495163674E+03  0.25500000000E-02 0.  1.
          2   -1    0    0  501    0  0.00000000000E+00 -0.00000000000E+00 -0.68050978921E+03  0.68050978921E+03  0.25500000000E-02 0. -1.
    8880022    1    1    2    0    0  0.50403733746E+02  0.18042952865E+03 -0.56438488742E+03  0.61401734939E+03  0.15294330000E+03 0. -1.
    8880022    1    1    2    0    0 -0.50403733746E+02 -0.18042952865E+03  0.68826734941E+02  0.25144407657E+03  0.15294330000E+03 0.  0.
<mgrwt>
<rscale>  0 0.24184087E+03</rscale>
<asrwt>0</asrwt>
<pdfrwt beam="1">  1        2 0.10469381E+00 0.24184087E+03</pdfrwt>
<pdfrwt beam="2">  1       -2 0.28454098E-01 0.24184087E+03</pdfrwt>
<totfact> 0.49253946E+02</totfact>
</mgrwt>
</event>
<event>
 4    1  0.4840632E-008  0.4294135E+03  0.7818608E-02  0.1034045E+00
          2   -1    0    0  501    0  0.00000000000E+00  0.00000000000E+00  0.87823625787E+03  0.87823625787E+03  0.25500000000E-02 0. -1.
         -2   -1    0    0    0  501 -0.00000000000E+00 -0.00000000000E+00 -0.26995003692E+03  0.26995003694E+03  0.25500000000E-02 0.  1.
    8880022    1    1    2    0    0 -0.27287061678E+03  0.29418688582E+03  0.33514198605E+02  0.43071934228E+03  0.15294330000E+03 0.  0.
    8880022    1    1    2    0    0  0.27287061678E+03 -0.29418688582E+03  0.57477202234E+03  0.71746695253E+03  0.15294330000E+03 0.  0.
<mgrwt>
<rscale>  0 0.42941350E+03</rscale>
<asrwt>0</asrwt>
<pdfrwt beam="1">  1        2 0.13511327E+00 0.42941350E+03</pdfrwt>
<pdfrwt beam="2">  1       -2 0.41530775E-01 0.42941350E+03</pdfrwt>
<totfact> 0.17251164E+02</totfact>
</mgrwt>
</event>
<event>
 4    1  0.4840632E-008  0.1620631E+03  0.7818608E-02  0.1186387E+00
          2   -1    0    0  501    0  0.00000000000E+00  0.00000000000E+00  0.72450378807E+03  0.72450378807E+03  0.25500000000E-02 0. -1.
         -2   -1    0    0    0  501 -0.00000000000E+00 -0.00000000000E+00 -0.22779504126E+03  0.22779504127E+03  0.25500000000E-02 0.  1.
    8880022    1    1    2    0    0 -0.24113082072E+02  0.47868160455E+02 -0.18826672013E+03  0.24841258510E+03  0.15294330000E+03 0.  1.
    8880022    1    1    2    0    0  0.24113082072E+02 -0.47868160455E+02  0.68497546694E+03  0.70388624424E+03  0.15294330000E+03 0.  0.
<mgrwt>
<rscale>  0 0.16206312E+03</rscale>
<asrwt>0</asrwt>
<pdfrwt beam="1">  1        2 0.11146212E+00 0.16206312E+03</pdfrwt>
<pdfrwt beam="2">  1       -2 0.35045391E-01 0.16206312E+03</pdfrwt>
<totfact> 0.31420612E+02</totfact>
</mgrwt>
</event>
<event>
 4    1  0.4840632E-008  0.4782559E+03  0.7818608E-02  0.1019616E+00
         -2   -1    0    0    0  501 -0.00000000000E+00  0.00000000000E+00  0.46741079116E+03  0.46741079117E+03  0.25500000000E-02 0.  1.
          2   -1    0    0  501    0  0.00000000000E+00 -0.00000000000E+00 -0.64150404271E+03  0.64150404272E+03  0.25500000000E-02 0. -1.
    8880022    1    1    2    0    0 -0.31413550584E+03  0.32658222562E+03 -0.35707315518E+03  0.59685002914E+03  0.15294330000E+03 0.  0.
    8880022    1    1    2    0    0  0.31413550584E+03 -0.32658222562E+03  0.18297990363E+03  0.51206480475E+03  0.15294330000E+03 0.  0.
<mgrwt>
<rscale>  0 0.47825591E+03</rscale>
<asrwt>0</asrwt>
<pdfrwt beam="1">  1        2 0.98692930E-01 0.47825591E+03</pdfrwt>
<pdfrwt beam="2">  1       -2 0.71909352E-01 0.47825591E+03</pdfrwt>
<totfact> 0.82777151E+01</totfact>
</mgrwt>
</event>
<event>
 4    1  0.4840632E-008  0.6052334E+03  0.7818608E-02  0.9894607E-01
         -2   -1    0    0    0  501 -0.00000000000E+00  0.00000000000E+00  0.67994661581E+03  0.67994661582E+03  0.25500000000E-02 0.  1.
          2   -1    0    0  501    0  0.00000000000E+00 -0.00000000000E+00 -0.78420391964E+03  0.78420391965E+03  0.25500000000E-02 0. -1.
    8880022    1    1    2    0    0 -0.32835848867E+03 -0.48486758325E+03  0.35745636520E+03  0.70291007704E+03  0.15294330000E+03 0.  0.
    8880022    1    1    2    0    0  0.32835848867E+03  0.48486758325E+03 -0.46171366903E+03  0.76124045843E+03  0.15294330000E+03 0.  0.
<mgrwt>
<rscale>  0 0.60523345E+03</rscale>
<asrwt>0</asrwt>
<pdfrwt beam="1">  1        2 0.12064676E+00 0.60523345E+03</pdfrwt>
<pdfrwt beam="2">  1       -2 0.10460717E+00 0.60523345E+03</pdfrwt>
<totfact> 0.26998550E+01</totfact>
</mgrwt>
</event>
<event>
 4    1  0.4840632E-008  0.2174989E+03  0.7818608E-02  0.1135762E+00
          2   -1    0    0  501    0  0.00000000000E+00  0.00000000000E+00  0.26253268552E+04  0.26253268552E+04  0.25500000000E-02 0. -1.
         -2   -1    0    0    0  501 -0.00000000000E+00 -0.00000000000E+00 -0.15272800632E+03  0.15272800634E+03  0.25500000000E-02 0.  1.
    8880022    1    1    2    0    0  0.12835263960E+03 -0.86253903522E+02  0.25408165425E+04  0.25501087216E+04  0.15294330000E+03 0.  0.
    8880022    1    1    2    0    0 -0.12835263960E+03  0.86253903522E+02 -0.68217693699E+02  0.22794613994E+03  0.15294330000E+03 0.  0.
<mgrwt>
<rscale>  0 0.21749894E+03</rscale>
<asrwt>0</asrwt>
<pdfrwt beam="1">  1        2 0.40389640E+00 0.21749894E+03</pdfrwt>
<pdfrwt beam="2">  1       -2 0.23496619E-01 0.21749894E+03</pdfrwt>
<totfact> 0.56021985E+01</totfact>
</mgrwt>
</event>
<event>
 4    1  0.4840632E-008  0.5596830E+03  0.7818608E-02  0.9992772E-01
         -2   -1    0    0    0  501 -0.00000000000E+00  0.00000000000E+00  0.41291000127E+03  0.41291000128E+03  0.25500000000E-02 0.  1.
          2   -1    0    0  501    0  0.00000000000E+00 -0.00000000000E+00 -0.21021034993E+04  0.21021034993E+04  0.25500000000E-02 0. -1.
    8880022    1    1    2    0    0 -0.10610427237E+03 -0.52782124292E+03  0.16070901831E+03  0.58229925526E+03  0.15294330000E+03 0.  0.
    8880022    1    1    2    0    0  0.10610427237E+03  0.52782124292E+03 -0.18499025163E+04  0.19327142453E+04  0.15294330000E+03 0.  0.
<mgrwt>
<rscale>  0 0.55968298E+03</rscale>
<asrwt>0</asrwt>
<pdfrwt beam="1">  1        2 0.32340053E+00 0.55968298E+03</pdfrwt>
<pdfrwt beam="2">  1       -2 0.63524617E-01 0.55968298E+03</pdfrwt>
<totfact> 0.14406342E+01</totfact>
</mgrwt>
</event>
<event>
 4    1  0.4840632E-008  0.9163403E+03  0.7818608E-02  0.9405383E-01
         -2   -1    0    0    0  501 -0.00000000000E+00  0.00000000000E+00  0.57397446237E+03  0.57397446238E+03  0.25500000000E-02 0.  1.
          2   -1    0    0  501    0  0.00000000000E+00 -0.00000000000E+00 -0.31957825871E+04  0.31957825871E+04  0.25500000000E-02 0. -1.
    8880022    1    1    2    0    0 -0.86961347486E+03 -0.24507211987E+03  0.77054899996E+02  0.91957438537E+03  0.15294330000E+03 0.  0.
    8880022    1    1    2    0    0  0.86961347486E+03  0.24507211987E+03 -0.26988630247E+04  0.28501826641E+04  0.15294330000E+03 0.  0.
<mgrwt>
<rscale>  0 0.91634033E+03</rscale>
<asrwt>0</asrwt>
<pdfrwt beam="1">  1        2 0.49165885E+00 0.91634033E+03</pdfrwt>
<pdfrwt beam="2">  1       -2 0.88303765E-01 0.91634033E+03</pdfrwt>
<totfact> 0.14991221E+00</totfact>
</mgrwt>
</event>
<event>
 4    1  0.4840632E-008  0.2087243E+03  0.7818608E-02  0.1142580E+00
         -2   -1    0    0    0  501 -0.00000000000E+00  0.00000000000E+00  0.28717366300E+03  0.28717366301E+03  0.25500000000E-02 0.  1.
          2   -1    0    0  501    0  0.00000000000E+00 -0.00000000000E+00 -0.11832372044E+04  0.11832372044E+04  0.25500000000E-02 0. -1.
    8880022    1    1    2    0    0 -0.37330741404E+02 -0.13704238961E+03 -0.11344899252E+04  0.11535307730E+04  0.15294330000E+03 0. -1.
    8880022    1    1    2    0    0  0.37330741404E+02  0.13704238961E+03  0.23842638375E+03  0.31688009450E+03  0.15294330000E+03 0.  0.
<mgrwt>
<rscale>  0 0.20872435E+03</rscale>
<asrwt>0</asrwt>
<pdfrwt beam="1">  1        2 0.18203649E+00 0.20872435E+03</pdfrwt>
<pdfrwt beam="2">  1       -2 0.44180564E-01 0.20872435E+03</pdfrwt>
<totfact> 0.10320661E+02</totfact>
</mgrwt>
</event>
<event>
 4    1  0.4840632E-008  0.7600354E+03  0.7818608E-02  0.9619737E-01
         -2   -1    0    0    0  501 -0.00000000000E+00  0.00000000000E+00  0.34523184654E+03  0.34523184655E+03  0.25500000000E-02 0.  1.
          2   -1    0    0  501    0  0.00000000000E+00 -0.00000000000E+00 -0.17435183653E+04  0.17435183653E+04  0.25500000000E-02 0. -1.
    8880022    1    1    2    0    0  0.28405600526E+03 -0.68816738985E+03 -0.90883010146E+03  0.11847472207E+04  0.15294330000E+03 0.  0.
    8880022    1    1    2    0    0 -0.28405600526E+03  0.68816738985E+03 -0.48945641728E+03  0.90400299115E+03  0.15294330000E+03 0.  0.
<mgrwt>
<rscale>  0 0.76003541E+03</rscale>
<asrwt>0</asrwt>
<pdfrwt beam="1">  1        2 0.26823359E+00 0.76003541E+03</pdfrwt>
<pdfrwt beam="2">  1       -2 0.53112593E-01 0.76003541E+03</pdfrwt>
<totfact> 0.31813059E+01</totfact>
</mgrwt>
</event>
<event>
 4    1  0.4840632E-008  0.7420194E+03  0.7818608E-02  0.9647954E-01
          2   -1    0    0  501    0  0.00000000000E+00  0.00000000000E+00  0.46197694330E+03  0.46197694331E+03  0.25500000000E-02 0. -1.
         -2   -1    0    0    0  501 -0.00000000000E+00 -0.00000000000E+00 -0.23076064132E+04  0.23076064132E+04  0.25500000000E-02 0.  1.
    8880022    1    1    2    0    0 -0.30372833405E+03  0.65950760866E+03  0.40114406624E+02  0.74310295749E+03  0.15294330000E+03 0.  0.
    8880022    1    1    2    0    0  0.30372833405E+03 -0.65950760866E+03 -0.18857438766E+04  0.20264803991E+04  0.15294330000E+03 0.  0.
<mgrwt>
<rscale>  0 0.74201943E+03</rscale>
<asrwt>0</asrwt>
<pdfrwt beam="1">  1        2 0.71073377E-01 0.74201943E+03</pdfrwt>
<pdfrwt beam="2">  1       -2 0.35501636E+00 0.74201943E+03</pdfrwt>
<totfact> 0.10310516E+00</totfact>
</mgrwt>
</event>
<event>
 4    1  0.4840632E-008  0.1524618E+04  0.7818608E-02  0.8868245E-01
          2   -1    0    0  501    0  0.00000000000E+00  0.00000000000E+00  0.28263306203E+04  0.28263306203E+04  0.25500000000E-02 0. -1.
         -2   -1    0    0    0  501 -0.00000000000E+00 -0.00000000000E+00 -0.10110365331E+04  0.10110365331E+04  0.25500000000E-02 0.  1.
    8880022    1    1    2    0    0 -0.15099622907E+04  0.14519874233E+03  0.78946263380E+02  0.15266607219E+04  0.15294330000E+03 0.  0.
    8880022    1    1    2    0    0  0.15099622907E+04 -0.14519874233E+03  0.17363478239E+04  0.23107064315E+04  0.15294330000E+03 0.  0.
<mgrwt>
<rscale>  0 0.15246181E+04</rscale>
<asrwt>0</asrwt>
<pdfrwt beam="1">  1        2 0.43482010E+00 0.15246181E+04</pdfrwt>
<pdfrwt beam="2">  1       -2 0.15554408E+00 0.15246181E+04</pdfrwt>
<totfact> 0.57166249E-01</totfact>
</mgrwt>
</event>
<event>
 4    1  0.4840632E-008  0.5962331E+03  0.7818608E-02  0.9913252E-01
          2   -1    0    0  501    0  0.00000000000E+00  0.00000000000E+00  0.29435760712E+04  0.29435760712E+04  0.25500000000E-02 0. -1.
         -2   -1    0    0    0  501 -0.00000000000E+00 -0.00000000000E+00 -0.38296922171E+03  0.38296922172E+03  0.25500000000E-02 0.  1.
    8880022    1    1    2    0    0 -0.24217666837E+03 -0.52292701068E+03 -0.95947816806E+02  0.60390382824E+03  0.15294330000E+03 0.  0.
    8880022    1    1    2    0    0  0.24217666837E+03  0.52292701068E+03  0.26565546662E+04  0.27226414646E+04  0.15294330000E+03 0.  0.
<mgrwt>
<rscale>  0 0.59623305E+03</rscale>
<asrwt>0</asrwt>
<pdfrwt beam="1">  1        2 0.45285788E+00 0.59623305E+03</pdfrwt>
<pdfrwt beam="2">  1       -2 0.58918339E-01 0.59623305E+03</pdfrwt>
<totfact> 0.55876598E+00</totfact>
</mgrwt>
</event>
<event>
 4    1  0.4840632E-008  0.7930724E+03  0.7818608E-02  0.9570099E-01
         -2   -1    0    0    0  501 -0.00000000000E+00  0.00000000000E+00  0.11331283511E+04  0.11331283511E+04  0.25500000000E-02 0.  1.
          2   -1    0    0  501    0  0.00000000000E+00 -0.00000000000E+00 -0.74518747992E+03  0.74518747992E+03  0.25500000000E-02 0. -1.
    8880022    1    1    2    0    0  0.14512466592E+03 -0.76453318572E+03  0.66834197702E+03  0.10371329770E+04  0.15294330000E+03 0.  0.
    8880022    1    1    2    0    0 -0.14512466592E+03  0.76453318572E+03 -0.28040110585E+03  0.84118285402E+03  0.15294330000E+03 0. -1.
<mgrwt>
<rscale>  0 0.79307239E+03</rscale>
<asrwt>0</asrwt>
<pdfrwt beam="1">  1        2 0.11464423E+00 0.79307239E+03</pdfrwt>
<pdfrwt beam="2">  1       -2 0.17432744E+00 0.79307239E+03</pdfrwt>
<totfact> 0.76077047E+00</totfact>
</mgrwt>
</event>
<event>
 4    1  0.4840632E-008  0.8441538E+03  0.7818608E-02  0.9498217E-01
         -2   -1    0    0    0  501 -0.00000000000E+00  0.00000000000E+00  0.38251425870E+03  0.38251425871E+03  0.25500000000E-02 0.  1.
          2   -1    0    0  501    0  0.00000000000E+00 -0.00000000000E+00 -0.21073484684E+04  0.21073484684E+04  0.25500000000E-02 0. -1.
    8880022    1    1    2    0    0 -0.78967451935E+03 -0.25616024958E+03 -0.43843432046E+03  0.95122038789E+03  0.15294330000E+03 0.  0.
    8880022    1    1    2    0    0  0.78967451935E+03  0.25616024958E+03 -0.12863998892E+04  0.15386423392E+04  0.15294330000E+03 0.  0.
<mgrwt>
<rscale>  0 0.84415376E+03</rscale>
<asrwt>0</asrwt>
<pdfrwt beam="1">  1        2 0.32420745E+00 0.84415376E+03</pdfrwt>
<pdfrwt beam="2">  1       -2 0.58848349E-01 0.84415376E+03</pdfrwt>
<totfact> 0.16078251E+01</totfact>
</mgrwt>
</event>
<event>
 4    1  0.4840632E-008  0.6615971E+03  0.7818608E-02  0.9785258E-01
          2   -1    0    0  501    0  0.00000000000E+00  0.00000000000E+00  0.16936797064E+04  0.16936797064E+04  0.25500000000E-02 0. -1.
         -2   -1    0    0    0  501 -0.00000000000E+00 -0.00000000000E+00 -0.33877972881E+03  0.33877972882E+03  0.25500000000E-02 0.  1.
    8880022    1    1    2    0    0  0.49734230767E+02  0.64175192123E+03  0.11723353419E+04  0.13461355165E+04  0.15294330000E+03 0.  0.
    8880022    1    1    2    0    0 -0.49734230767E+02 -0.64175192123E+03  0.18256463572E+03  0.68632391867E+03  0.15294330000E+03 0.  0.
<mgrwt>
<rscale>  0 0.66159706E+03</rscale>
<asrwt>0</asrwt>
<pdfrwt beam="1">  1        2 0.26056611E+00 0.66159706E+03</pdfrwt>
<pdfrwt beam="2">  1       -2 0.52119958E-01 0.66159706E+03</pdfrwt>
<totfact> 0.35649791E+01</totfact>
</mgrwt>
</event>
<event>
 4    1  0.4840632E-008  0.6637484E+03  0.7818608E-02  0.9781318E-01
         -2   -1    0    0    0  501 -0.00000000000E+00  0.00000000000E+00  0.12825721513E+04  0.12825721513E+04  0.25500000000E-02 0.  1.
          2   -1    0    0  501    0  0.00000000000E+00 -0.00000000000E+00 -0.82170512895E+03  0.82170512895E+03  0.25500000000E-02 0. -1.
    8880022    1    1    2    0    0 -0.34731831879E+03  0.54455509710E+03 -0.57220992307E+03  0.87634817135E+03  0.15294330000E+03 0.  0.
    8880022    1    1    2    0    0  0.34731831879E+03 -0.54455509710E+03  0.10330769455E+04  0.12279291089E+04  0.15294330000E+03 0.  0.
<mgrwt>
<rscale>  0 0.66374839E+03</rscale>
<asrwt>0</asrwt>
<pdfrwt beam="1">  1        2 0.12641617E+00 0.66374839E+03</pdfrwt>
<pdfrwt beam="2">  1       -2 0.19731879E+00 0.66374839E+03</pdfrwt>
<totfact> 0.47619092E+00</totfact>
</mgrwt>
</event>
<event>
 4    1  0.4840632E-008  0.6641751E+03  0.7818608E-02  0.9780538E-01
          2   -1    0    0  501    0  0.00000000000E+00  0.00000000000E+00  0.23609090140E+04  0.23609090140E+04  0.25500000000E-02 0. -1.
         -2   -1    0    0    0  501 -0.00000000000E+00 -0.00000000000E+00 -0.29225864895E+03  0.29225864896E+03  0.25500000000E-02 0.  1.
    8880022    1    1    2    0    0 -0.13015267860E+03 -0.63308550218E+03  0.23762404008E+03  0.70540329617E+03  0.15294330000E+03 0.  0.
    8880022    1    1    2    0    0  0.13015267860E+03  0.63308550218E+03  0.18310263250E+04  0.19477643668E+04  0.15294330000E+03 0.  0.
<mgrwt>
<rscale>  0 0.66417515E+03</rscale>
<asrwt>0</asrwt>
<pdfrwt beam="1">  1        2 0.36321676E+00 0.66417515E+03</pdfrwt>
<pdfrwt beam="2">  1       -2 0.44962870E-01 0.66417515E+03</pdfrwt>
<totfact> 0.20743671E+01</totfact>
</mgrwt>
</event>
<event>
 4    1  0.4840632E-008  0.3953471E+03  0.7818608E-02  0.1045403E+00
          2   -1    0    0  501    0  0.00000000000E+00  0.00000000000E+00  0.11207361605E+04  0.11207361605E+04  0.25500000000E-02 0. -1.
         -2   -1    0    0    0  501 -0.00000000000E+00 -0.00000000000E+00 -0.23270766205E+03  0.23270766207E+03  0.25500000000E-02 0.  1.
    8880022    1    1    2    0    0  0.35711870717E+03 -0.73307091908E+02  0.87238595674E+03  0.95778735180E+03  0.15294330000E+03 0.  0.
    8880022    1    1    2    0    0 -0.35711870717E+03  0.73307091908E+02  0.15642541704E+02  0.39565647077E+03  0.15294330000E+03 0.  1.
<mgrwt>
<rscale>  0 0.39534713E+03</rscale>
<asrwt>0</asrwt>
<pdfrwt beam="1">  1        2 0.17242095E+00 0.39534713E+03</pdfrwt>
<pdfrwt beam="2">  1       -2 0.35801179E-01 0.39534713E+03</pdfrwt>
<totfact> 0.16222347E+02</totfact>
</mgrwt>
</event>
<event>
 4    1  0.4840632E-008  0.2278890E+03  0.7818608E-02  0.1128134E+00
          2   -1    0    0  501    0  0.00000000000E+00  0.00000000000E+00  0.13884895109E+04  0.13884895109E+04  0.25500000000E-02 0. -1.
         -2   -1    0    0    0  501 -0.00000000000E+00 -0.00000000000E+00 -0.51808586747E+02  0.51808586810E+02  0.25500000000E-02 0.  1.
    8880022    1    1    2    0    0  0.72418777214E+02 -0.15263446609E+03  0.28859742062E+03  0.36772528297E+03  0.15294330000E+03 0.  0.
    8880022    1    1    2    0    0 -0.72418777214E+02  0.15263446609E+03  0.10480835035E+04  0.10725728147E+04  0.15294330000E+03 0. -1.
<mgrwt>
<rscale>  0 0.22788904E+03</rscale>
<asrwt>0</asrwt>
<pdfrwt beam="1">  1        2 0.21361371E+00 0.22788904E+03</pdfrwt>
<pdfrwt beam="2">  1       -2 0.79705541E-02 0.22788904E+03</pdfrwt>
<totfact> 0.14948311E+03</totfact>
</mgrwt>
</event>
<event>
 4    1  0.4840632E-008  0.5372773E+03  0.7818608E-02  0.1004482E+00
          2   -1    0    0  501    0  0.00000000000E+00  0.00000000000E+00  0.17252703112E+04  0.17252703112E+04  0.25500000000E-02 0. -1.
         -2   -1    0    0    0  501 -0.00000000000E+00 -0.00000000000E+00 -0.49448577537E+03  0.49448577538E+03  0.25500000000E-02 0.  1.
    8880022    1    1    2    0    0  0.78993854862E+02  0.50895505874E+03  0.15181772547E+04  0.16104437620E+04  0.15294330000E+03 0.  0.
    8880022    1    1    2    0    0 -0.78993854862E+02 -0.50895505874E+03 -0.28739271890E+03  0.60931232452E+03  0.15294330000E+03 0.  0.
<mgrwt>
<rscale>  0 0.53727733E+03</rscale>
<asrwt>0</asrwt>
<pdfrwt beam="1">  1        2 0.26542620E+00 0.53727733E+03</pdfrwt>
<pdfrwt beam="2">  1       -2 0.76074735E-01 0.53727733E+03</pdfrwt>
<totfact> 0.15633512E+01</totfact>
</mgrwt>
</event>
<event>
 4    1  0.4840632E-008  0.4346617E+03  0.7818608E-02  0.1032397E+00
          2   -1    0    0  501    0  0.00000000000E+00  0.00000000000E+00  0.15895668562E+04  0.15895668562E+04  0.25500000000E-02 0. -1.
         -2   -1    0    0    0  501 -0.00000000000E+00 -0.00000000000E+00 -0.25134819327E+03  0.25134819328E+03  0.25500000000E-02 0.  1.
    8880022    1    1    2    0    0 -0.35494337198E+03 -0.19888266855E+03  0.13373913379E+04  0.14062525935E+04  0.15294330000E+03 0.  0.
    8880022    1    1    2    0    0  0.35494337198E+03  0.19888266855E+03  0.82732509347E+00  0.43466245599E+03  0.15294330000E+03 0.  1.
<mgrwt>
<rscale>  0 0.43466167E+03</rscale>
<asrwt>0</asrwt>
<pdfrwt beam="1">  1        2 0.24454875E+00 0.43466167E+03</pdfrwt>
<pdfrwt beam="2">  1       -2 0.38668953E-01 0.43466167E+03</pdfrwt>
<totfact> 0.75978592E+01</totfact>
</mgrwt>
</event>
<event>
 4    1  0.4840632E-008  0.2046225E+03  0.7818608E-02  0.1145897E+00
          2   -1    0    0  501    0  0.00000000000E+00  0.00000000000E+00  0.82567432856E+02  0.82567432896E+02  0.25500000000E-02 0. -1.
         -2   -1    0    0    0  501 -0.00000000000E+00 -0.00000000000E+00 -0.53539383177E+03  0.53539383178E+03  0.25500000000E-02 0.  1.
    8880022    1    1    2    0    0 -0.12945607504E+03  0.41471011043E+02 -0.29743647210E+03  0.36102469178E+03  0.15294330000E+03 0.  0.
    8880022    1    1    2    0    0  0.12945607504E+03 -0.41471011043E+02 -0.15538992681E+03  0.25693657290E+03  0.15294330000E+03 0.  1.
<mgrwt>
<rscale>  0 0.20462251E+03</rscale>
<asrwt>0</asrwt>
<pdfrwt beam="1">  1        2 0.12702682E-01 0.20462251E+03</pdfrwt>
<pdfrwt beam="2">  1       -2 0.82368280E-01 0.20462251E+03</pdfrwt>
<totfact> 0.63293223E+02</totfact>
</mgrwt>
</event>
<event>
 4    1  0.4840632E-008  0.6430274E+03  0.7818608E-02  0.9819951E-01
          2   -1    0    0  501    0  0.00000000000E+00  0.00000000000E+00  0.20665017535E+04  0.20665017535E+04  0.25500000000E-02 0. -1.
         -2   -1    0    0    0  501 -0.00000000000E+00 -0.00000000000E+00 -0.30416248473E+03  0.30416248474E+03  0.25500000000E-02 0.  1.
    8880022    1    1    2    0    0  0.97453043788E+01  0.62449786189E+03  0.18781193302E+03  0.66989366743E+03  0.15294330000E+03 0.  0.
    8880022    1    1    2    0    0 -0.97453043788E+01 -0.62449786189E+03  0.15745273357E+04  0.17007705708E+04  0.15294330000E+03 0.  0.
<mgrwt>
<rscale>  0 0.64302737E+03</rscale>
<asrwt>0</asrwt>
<pdfrwt beam="1">  1        2 0.31792335E+00 0.64302737E+03</pdfrwt>
<pdfrwt beam="2">  1       -2 0.46794227E-01 0.64302737E+03</pdfrwt>
<totfact> 0.27898644E+01</totfact>
</mgrwt>
</event>
<event>
 4    1  0.4840632E-008  0.6945192E+03  0.7818608E-02  0.9726651E-01
         -2   -1    0    0    0  501 -0.00000000000E+00  0.00000000000E+00  0.42027035713E+03  0.42027035714E+03  0.25500000000E-02 0.  1.
          2   -1    0    0  501    0  0.00000000000E+00 -0.00000000000E+00 -0.19198509081E+04  0.19198509081E+04  0.25500000000E-02 0. -1.
    8880022    1    1    2    0    0 -0.63923682116E+03 -0.22436911545E+03 -0.77674027842E+01  0.69456259549E+03  0.15294330000E+03 0.  0.
    8880022    1    1    2    0    0  0.63923682116E+03  0.22436911545E+03 -0.14918131481E+04  0.16455586697E+04  0.15294330000E+03 0.  0.
<mgrwt>
<rscale>  0 0.69451916E+03</rscale>
<asrwt>0</asrwt>
<pdfrwt beam="1">  1        2 0.29536167E+00 0.69451916E+03</pdfrwt>
<pdfrwt beam="2">  1       -2 0.64656979E-01 0.69451916E+03</pdfrwt>
<totfact> 0.17017614E+01</totfact>
</mgrwt>
</event>
<event>
 4    1  0.4840632E-008  0.8219529E+03  0.7818608E-02  0.9528774E-01
         -2   -1    0    0    0  501 -0.00000000000E+00  0.00000000000E+00  0.61073076302E+03  0.61073076303E+03  0.25500000000E-02 0.  1.
          2   -1    0    0  501    0  0.00000000000E+00 -0.00000000000E+00 -0.21205134424E+04  0.21205134424E+04  0.25500000000E-02 0. -1.
    8880022    1    1    2    0    0  0.69118532893E+03 -0.41770532055E+03  0.18958360708E+03  0.84353333712E+03  0.15294330000E+03 0.  0.
    8880022    1    1    2    0    0 -0.69118532893E+03  0.41770532055E+03 -0.16993662865E+04  0.18877108683E+04  0.15294330000E+03 0.  0.
<mgrwt>
<rscale>  0 0.82195289E+03</rscale>
<asrwt>0</asrwt>
<pdfrwt beam="1">  1        2 0.32623283E+00 0.82195289E+03</pdfrwt>
<pdfrwt beam="2">  1       -2 0.93958580E-01 0.82195289E+03</pdfrwt>
<totfact> 0.56217686E+00</totfact>
</mgrwt>
</event>
<event>
 4    1  0.4840632E-008  0.6080173E+03  0.7818608E-02  0.9888911E-01
          2   -1    0    0  501    0  0.00000000000E+00  0.00000000000E+00  0.14895565086E+04  0.14895565086E+04  0.25500000000E-02 0. -1.
         -2   -1    0    0    0  501 -0.00000000000E+00 -0.00000000000E+00 -0.60630623857E+03  0.60630623858E+03  0.25500000000E-02 0.  1.
    8880022    1    1    2    0    0 -0.53484019294E+03  0.24543716540E+03  0.12470074050E+04  0.13873401008E+04  0.15294330000E+03 0.  0.
    8880022    1    1    2    0    0  0.53484019294E+03 -0.24543716540E+03 -0.36375713499E+03  0.70852264637E+03  0.15294330000E+03 0.  0.
<mgrwt>
<rscale>  0 0.60801734E+03</rscale>
<asrwt>0</asrwt>
<pdfrwt beam="1">  1        2 0.22916254E+00 0.60801734E+03</pdfrwt>
<pdfrwt beam="2">  1       -2 0.93277884E-01 0.60801734E+03</pdfrwt>
<totfact> 0.13086440E+01</totfact>
</mgrwt>
</event>
<event>
 4    1  0.4840632E-008  0.1921012E+03  0.7818608E-02  0.1156580E+00
         -2   -1    0    0    0  501 -0.00000000000E+00  0.00000000000E+00  0.18030198276E+03  0.18030198278E+03  0.25500000000E-02 0.  1.
          2   -1    0    0  501    0  0.00000000000E+00 -0.00000000000E+00 -0.16572553107E+04  0.16572553107E+04  0.25500000000E-02 0. -1.
    8880022    1    1    2    0    0 -0.66327947821E+02 -0.95455880983E+02 -0.15986512744E+04  0.16101517854E+04  0.15294330000E+03 0. -1.
    8880022    1    1    2    0    0  0.66327947821E+02  0.95455880983E+02  0.12169794652E+03  0.22740550802E+03  0.15294330000E+03 0.  0.
<mgrwt>
<rscale>  0 0.19210121E+03</rscale>
<asrwt>0</asrwt>
<pdfrwt beam="1">  1        2 0.25496235E+00 0.19210121E+03</pdfrwt>
<pdfrwt beam="2">  1       -2 0.27738768E-01 0.19210121E+03</pdfrwt>
<totfact> 0.13717165E+02</totfact>
</mgrwt>
</event>
<event>
 4    1  0.4840632E-008  0.6615569E+03  0.7818608E-02  0.9785332E-01
          2   -1    0    0  501    0  0.00000000000E+00  0.00000000000E+00  0.90115761545E+03  0.90115761546E+03  0.25500000000E-02 0. -1.
         -2   -1    0    0    0  501 -0.00000000000E+00 -0.00000000000E+00 -0.73175085137E+03  0.73175085138E+03  0.25500000000E-02 0.  1.
    8880022    1    1    2    0    0 -0.37252086106E+03 -0.52487527489E+03 -0.38877122985E+03  0.76733341403E+03  0.15294330000E+03 0.  0.
    8880022    1    1    2    0    0  0.37252086106E+03  0.52487527489E+03  0.55817799393E+03  0.86557505280E+03  0.15294330000E+03 0.  0.
<mgrwt>
<rscale>  0 0.66155688E+03</rscale>
<asrwt>0</asrwt>
<pdfrwt beam="1">  1        2 0.13863963E+00 0.66155688E+03</pdfrwt>
<pdfrwt beam="2">  1       -2 0.11257705E+00 0.66155688E+03</pdfrwt>
<totfact> 0.18640837E+01</totfact>
</mgrwt>
</event>
<event>
 4    1  0.4840632E-008  0.3479543E+03  0.7818608E-02  0.1063458E+00
         -2   -1    0    0    0  501 -0.00000000000E+00  0.00000000000E+00  0.20688082421E+03  0.20688082423E+03  0.25500000000E-02 0.  1.
          2   -1    0    0  501    0  0.00000000000E+00 -0.00000000000E+00 -0.13069818194E+04  0.13069818194E+04  0.25500000000E-02 0. -1.
    8880022    1    1    2    0    0 -0.12628300003E+02 -0.31228366932E+03 -0.11125428070E+04  0.11656859416E+04  0.15294330000E+03 0.  0.
    8880022    1    1    2    0    0  0.12628300003E+02  0.31228366932E+03  0.12441811869E+02  0.34817670195E+03  0.15294330000E+03 0.  0.
<mgrwt>
<rscale>  0 0.34795433E+03</rscale>
<asrwt>0</asrwt>
<pdfrwt beam="1">  1        2 0.20107412E+00 0.34795433E+03</pdfrwt>
<pdfrwt beam="2">  1       -2 0.31827820E-01 0.34795433E+03</pdfrwt>
<totfact> 0.15901045E+02</totfact>
</mgrwt>
</event>
<event>
 4    1  0.4840632E-008  0.2521787E+03  0.7818608E-02  0.1111936E+00
         -2   -1    0    0    0  501 -0.00000000000E+00  0.00000000000E+00  0.90857027877E+02  0.90857027913E+02  0.25500000000E-02 0.  1.
          2   -1    0    0  501    0  0.00000000000E+00 -0.00000000000E+00 -0.14189235173E+04  0.14189235173E+04  0.25500000000E-02 0. -1.
    8880022    1    1    2    0    0 -0.15694490765E+03 -0.12478270962E+03 -0.12013929380E+04  0.12275744675E+04  0.15294330000E+03 0.  0.
    8880022    1    1    2    0    0  0.15694490765E+03  0.12478270962E+03 -0.12667355135E+03  0.28220607768E+03  0.15294330000E+03 0.  0.
<mgrwt>
<rscale>  0 0.25217867E+03</rscale>
<asrwt>0</asrwt>
<pdfrwt beam="1">  1        2 0.21829591E+00 0.25217867E+03</pdfrwt>
<pdfrwt beam="2">  1       -2 0.13978005E-01 0.25217867E+03</pdfrwt>
<totfact> 0.58444306E+02</totfact>
</mgrwt>
</event>
<event>
 4    1  0.4840632E-008  0.1558309E+03  0.7818608E-02  0.1193486E+00
          2   -1    0    0  501    0  0.00000000000E+00  0.00000000000E+00  0.55687935051E+03  0.55687935051E+03  0.25500000000E-02 0. -1.
         -2   -1    0    0    0  501 -0.00000000000E+00 -0.00000000000E+00 -0.15358943291E+03  0.15358943293E+03  0.25500000000E-02 0.  1.
    8880022    1    1    2    0    0  0.63327507169E+01  0.29180782531E+02 -0.98961282926E+02  0.18459851119E+03  0.15294330000E+03 0.  0.
    8880022    1    1    2    0    0 -0.63327507169E+01 -0.29180782531E+02  0.50225120052E+03  0.52587027226E+03  0.15294330000E+03 0. -1.
<mgrwt>
<rscale>  0 0.15583092E+03</rscale>
<asrwt>0</asrwt>
<pdfrwt beam="1">  1        2 0.85673746E-01 0.15583092E+03</pdfrwt>
<pdfrwt beam="2">  1       -2 0.23629144E-01 0.15583092E+03</pdfrwt>
<totfact> 0.86538663E+02</totfact>
</mgrwt>
</event>
<event>
 4    1  0.4840632E-008  0.4112214E+03  0.7818608E-02  0.1039962E+00
         -2   -1    0    0    0  501 -0.00000000000E+00  0.00000000000E+00  0.10683928680E+03  0.10683928683E+03  0.25500000000E-02 0.  1.
          2   -1    0    0  501    0  0.00000000000E+00 -0.00000000000E+00 -0.30277150807E+04  0.30277150807E+04  0.25500000000E-02 0. -1.
    8880022    1    1    2    0    0 -0.13370077163E+02  0.38148738540E+03 -0.37772690469E+03  0.55837321902E+03  0.15294330000E+03 0.  0.
    8880022    1    1    2    0    0  0.13370077163E+02 -0.38148738540E+03 -0.25431488892E+04  0.25761811485E+04  0.15294330000E+03 0.  0.
<mgrwt>
<rscale>  0 0.41122140E+03</rscale>
<asrwt>0</asrwt>
<pdfrwt beam="1">  1        2 0.46580225E+00 0.41122140E+03</pdfrwt>
<pdfrwt beam="2">  1       -2 0.16436816E-01 0.41122140E+03</pdfrwt>
<totfact> 0.56567142E+01</totfact>
</mgrwt>
</event>
<event>
 4    1  0.4840632E-008  0.1064668E+04  0.7818608E-02  0.9240330E-01
         -2   -1    0    0    0  501 -0.00000000000E+00  0.00000000000E+00  0.14734371114E+04  0.14734371114E+04  0.25500000000E-02 0.  1.
          2   -1    0    0  501    0  0.00000000000E+00 -0.00000000000E+00 -0.11271209613E+04  0.11271209613E+04  0.25500000000E-02 0. -1.
    8880022    1    1    2    0    0  0.95070326932E+03  0.45419109739E+03 -0.55946915611E+03  0.12027151154E+04  0.15294330000E+03 0.  0.
    8880022    1    1    2    0    0 -0.95070326932E+03 -0.45419109739E+03  0.90578530617E+03  0.13978429573E+04  0.15294330000E+03 0.  0.
<mgrwt>
<rscale>  0 0.10646680E+04</rscale>
<asrwt>0</asrwt>
<pdfrwt beam="1">  1        2 0.17340323E+00 0.10646680E+04</pdfrwt>
<pdfrwt beam="2">  1       -2 0.22668263E+00 0.10646680E+04</pdfrwt>
<totfact> 0.18550384E+00</totfact>
</mgrwt>
</event>
<event>
 4    1  0.4840632E-008  0.1449546E+04  0.7818608E-02  0.8918715E-01
          2   -1    0    0  501    0  0.00000000000E+00  0.00000000000E+00  0.13883172023E+04  0.13883172023E+04  0.25500000000E-02 0. -1.
         -2   -1    0    0    0  501 -0.00000000000E+00 -0.00000000000E+00 -0.25328910225E+04  0.25328910225E+04  0.25500000000E-02 0.  1.
    8880022    1    1    2    0    0 -0.14554633257E+03 -0.14340883801E+04  0.67153200115E+03  0.15975418925E+04  0.15294330000E+03 0.  0.
    8880022    1    1    2    0    0  0.14554633257E+03  0.14340883801E+04 -0.18161058214E+04  0.23236663324E+04  0.15294330000E+03 0.  0.
<mgrwt>
<rscale>  0 0.14495464E+04</rscale>
<asrwt>0</asrwt>
<pdfrwt beam="1">  1        2 0.21358726E+00 0.14495464E+04</pdfrwt>
<pdfrwt beam="2">  1       -2 0.38967554E+00 0.14495464E+04</pdfrwt>
<totfact> 0.12097861E-01</totfact>
</mgrwt>
</event>
<event>
 4    1  0.4840632E-008  0.8302846E+03  0.7818608E-02  0.9517187E-01
         -2   -1    0    0    0  501 -0.00000000000E+00  0.00000000000E+00  0.39867794586E+03  0.39867794587E+03  0.25500000000E-02 0.  1.
          2   -1    0    0  501    0  0.00000000000E+00 -0.00000000000E+00 -0.20436106243E+04  0.20436106243E+04  0.25500000000E-02 0. -1.
    8880022    1    1    2    0    0 -0.79459740306E+03 -0.18599932554E+03 -0.13014863987E+04  0.15437743621E+04  0.15294330000E+03 0.  0.
    8880022    1    1    2    0    0  0.79459740306E+03  0.18599932554E+03 -0.34344627976E+03  0.89851420809E+03  0.15294330000E+03 0.  0.
<mgrwt>
<rscale>  0 0.83028455E+03</rscale>
<asrwt>0</asrwt>
<pdfrwt beam="1">  1        2 0.31440163E+00 0.83028455E+03</pdfrwt>
<pdfrwt beam="2">  1       -2 0.61335070E-01 0.83028455E+03</pdfrwt>
<totfact> 0.15995666E+01</totfact>
</mgrwt>
</event>
<event>
 4    1  0.4840632E-008  0.7856400E+03  0.7818608E-02  0.9581038E-01
          2   -1    0    0  501    0  0.00000000000E+00  0.00000000000E+00  0.18343770836E+04  0.18343770836E+04  0.25500000000E-02 0. -1.
         -2   -1    0    0    0  501 -0.00000000000E+00 -0.00000000000E+00 -0.10379584870E+04  0.10379584870E+04  0.25500000000E-02 0.  1.
    8880022    1    1    2    0    0  0.28162490979E+03  0.71730466095E+03 -0.78244440215E+03  0.11088054211E+04  0.15294330000E+03 0.  0.
    8880022    1    1    2    0    0 -0.28162490979E+03 -0.71730466095E+03  0.15788629987E+04  0.17635301495E+04  0.15294330000E+03 0.  0.
<mgrwt>
<rscale>  0 0.78564001E+03</rscale>
<asrwt>0</asrwt>
<pdfrwt beam="1">  1        2 0.28221185E+00 0.78564001E+03</pdfrwt>
<pdfrwt beam="2">  1       -2 0.15968592E+00 0.78564001E+03</pdfrwt>
<totfact> 0.21502879E+00</totfact>
</mgrwt>
</event>
<event>
 4    1  0.4840632E-008  0.3015184E+03  0.7818608E-02  0.1084484E+00
          2   -1    0    0  501    0  0.00000000000E+00  0.00000000000E+00  0.61319183048E+03  0.61319183048E+03  0.25500000000E-02 0. -1.
         -2   -1    0    0    0  501 -0.00000000000E+00 -0.00000000000E+00 -0.23859738732E+03  0.23859738733E+03  0.25500000000E-02 0.  1.
    8880022    1    1    2    0    0 -0.22171115525E+03 -0.13552072727E+03 -0.74760549086E+02  0.31064850973E+03  0.15294330000E+03 0.  0.
    8880022    1    1    2    0    0  0.22171115525E+03  0.13552072727E+03  0.44935499224E+03  0.54114070809E+03  0.15294330000E+03 0.  0.
<mgrwt>
<rscale>  0 0.30151842E+03</rscale>
<asrwt>0</asrwt>
<pdfrwt beam="1">  1        2 0.94337203E-01 0.30151842E+03</pdfrwt>
<pdfrwt beam="2">  1       -2 0.36707291E-01 0.30151842E+03</pdfrwt>
<totfact> 0.34710102E+02</totfact>
</mgrwt>
</event>
<event>
 4    1  0.4840632E-008  0.9120015E+03  0.7818608E-02  0.9410702E-01
         -2   -1    0    0    0  501 -0.00000000000E+00  0.00000000000E+00  0.20148970880E+04  0.20148970880E+04  0.25500000000E-02 0.  1.
          2   -1    0    0  501    0  0.00000000000E+00 -0.00000000000E+00 -0.53646949310E+03  0.53646949310E+03  0.25500000000E-02 0. -1.
    8880022    1    1    2    0    0  0.82373124506E+03  0.36030805141E+03  0.13517109724E+04  0.16306039562E+04  0.15294330000E+03 0.  0.
    8880022    1    1    2    0    0 -0.82373124506E+03 -0.36030805141E+03  0.12671662251E+03  0.92076262492E+03  0.15294330000E+03 0.  0.
<mgrwt>
<rscale>  0 0.91200149E+03</rscale>
<asrwt>0</asrwt>
<pdfrwt beam="1">  1        2 0.82533768E-01 0.91200149E+03</pdfrwt>
<pdfrwt beam="2">  1       -2 0.30998417E+00 0.91200149E+03</pdfrwt>
<totfact> 0.15956733E+00</totfact>
</mgrwt>
</event>
<event>
 4    1  0.4840632E-008  0.7156818E+03  0.7818608E-02  0.9690784E-01
         -2   -1    0    0    0  501 -0.00000000000E+00  0.00000000000E+00  0.44297775393E+03  0.44297775394E+03  0.25500000000E-02 0.  1.
          2   -1    0    0  501    0  0.00000000000E+00 -0.00000000000E+00 -0.35147821141E+04  0.35147821141E+04  0.25500000000E-02 0. -1.
    8880022    1    1    2    0    0 -0.24883035606E+03 -0.65336993384E+03 -0.31569267266E+04  0.32370336462E+04  0.15294330000E+03 0.  0.
    8880022    1    1    2    0    0  0.24883035606E+03  0.65336993384E+03  0.85122366440E+02  0.72072622182E+03  0.15294330000E+03 0.  0.
<mgrwt>
<rscale>  0 0.71568182E+03</rscale>
<asrwt>0</asrwt>
<pdfrwt beam="1">  1        2 0.54073569E+00 0.71568182E+03</pdfrwt>
<pdfrwt beam="2">  1       -2 0.68150426E-01 0.71568182E+03</pdfrwt>
<totfact> 0.17161097E+00</totfact>
</mgrwt>
</event>
<event>
 4    1  0.4926595E-008  0.1046839E+04  0.7818608E-02  0.9258614E-01
         -2   -1    0    0    0  501 -0.00000000000E+00  0.00000000000E+00  0.83199923642E+03  0.83199923642E+03  0.25500000000E-02 0.  1.
          2   -1    0    0  501    0  0.00000000000E+00 -0.00000000000E+00 -0.27420884061E+04  0.27420884061E+04  0.25500000000E-02 0. -1.
    8880022    1    1    2    0    0  0.71436105289E+03 -0.74977830572E+03 -0.22432702812E+04  0.24755064995E+04  0.15294330000E+03 0.  0.
    8880022    1    1    2    0    0 -0.71436105289E+03  0.74977830572E+03  0.33318111155E+03  0.10985811430E+04  0.15294330000E+03 0.  0.
<mgrwt>
<rscale>  0 0.10468385E+04</rscale>
<asrwt>0</asrwt>
<pdfrwt beam="1">  1        2 0.42185975E+00 0.10468385E+04</pdfrwt>
<pdfrwt beam="2">  1       -2 0.12799988E+00 0.10468385E+04</pdfrwt>
<totfact> 0.11366673E+00</totfact>
</mgrwt>
</event>
<event>
 4    1  0.4840632E-008  0.6236962E+03  0.7818608E-02  0.9857428E-01
          2   -1    0    0  501    0  0.00000000000E+00  0.00000000000E+00  0.30950372604E+04  0.30950372604E+04  0.25500000000E-02 0. -1.
         -2   -1    0    0    0  501 -0.00000000000E+00 -0.00000000000E+00 -0.14295904635E+03  0.14295904637E+03  0.25500000000E-02 0.  1.
    8880022    1    1    2    0    0  0.57283332421E+03 -0.19356470895E+03  0.91324581953E+03  0.11059000379E+04  0.15294330000E+03 0.  0.
    8880022    1    1    2    0    0 -0.57283332421E+03  0.19356470895E+03  0.20388323945E+04  0.21320962689E+04  0.15294330000E+03 0.  0.
<mgrwt>
<rscale>  0 0.62369621E+03</rscale>
<asrwt>0</asrwt>
<pdfrwt beam="1">  1        2 0.47615960E+00 0.62369621E+03</pdfrwt>
<pdfrwt beam="2">  1       -2 0.21993698E-01 0.62369621E+03</pdfrwt>
<totfact> 0.29652032E+01</totfact>
</mgrwt>
</event>
<event>
 4    1  0.4840632E-008  0.2103879E+03  0.7818608E-02  0.1141259E+00
         -2   -1    0    0    0  501 -0.00000000000E+00  0.00000000000E+00  0.20500001426E+03  0.20500001428E+03  0.25500000000E-02 0.  1.
          2   -1    0    0  501    0  0.00000000000E+00 -0.00000000000E+00 -0.87304885036E+03  0.87304885036E+03  0.25500000000E-02 0. -1.
    8880022    1    1    2    0    0  0.34811399817E+02  0.14021256433E+03  0.13361955088E+03  0.24923329261E+03  0.15294330000E+03 0.  0.
    8880022    1    1    2    0    0 -0.34811399817E+02 -0.14021256433E+03 -0.80166838697E+03  0.82881557203E+03  0.15294330000E+03 0. -1.
<mgrwt>
<rscale>  0 0.21038786E+03</rscale>
<asrwt>0</asrwt>
<pdfrwt beam="1">  1        2 0.13431521E+00 0.21038786E+03</pdfrwt>
<pdfrwt beam="2">  1       -2 0.31538464E-01 0.21038786E+03</pdfrwt>
<totfact> 0.29978275E+02</totfact>
</mgrwt>
</event>
<event>
 4    1  0.4840632E-008  0.2158246E+03  0.7818608E-02  0.1137035E+00
         -2   -1    0    0    0  501 -0.00000000000E+00  0.00000000000E+00  0.49793103281E+03  0.49793103282E+03  0.25500000000E-02 0.  1.
          2   -1    0    0  501    0  0.00000000000E+00 -0.00000000000E+00 -0.36208486449E+03  0.36208486450E+03  0.25500000000E-02 0. -1.
    8880022    1    1    2    0    0  0.14019489250E+03 -0.59447490675E+02  0.43824000682E+03  0.48850237320E+03  0.15294330000E+03 0.  0.
    8880022    1    1    2    0    0 -0.14019489250E+03  0.59447490675E+02 -0.30239383849E+03  0.37151352412E+03  0.15294330000E+03 0.  0.
<mgrwt>
<rscale>  0 0.21582462E+03</rscale>
<asrwt>0</asrwt>
<pdfrwt beam="1">  1        2 0.55705364E-01 0.21582462E+03</pdfrwt>
<pdfrwt beam="2">  1       -2 0.76604774E-01 0.21582462E+03</pdfrwt>
<totfact> 0.14162523E+02</totfact>
</mgrwt>
</event>
<event>
 4    1  0.4840632E-008  0.2374435E+03  0.7818608E-02  0.1121508E+00
          2   -1    0    0  501    0  0.00000000000E+00  0.00000000000E+00  0.19599913594E+04  0.19599913594E+04  0.25500000000E-02 0. -1.
         -2   -1    0    0    0  501 -0.00000000000E+00 -0.00000000000E+00 -0.10357996082E+03  0.10357996085E+03  0.25500000000E-02 0.  1.
    8880022    1    1    2    0    0 -0.40777229005E+01  0.18157959936E+03  0.18050963260E+04  0.18206460881E+04  0.15294330000E+03 0. -1.
    8880022    1    1    2    0    0  0.40777229005E+01 -0.18157959936E+03  0.51315072509E+02  0.24292523214E+03  0.15294330000E+03 0.  0.
<mgrwt>
<rscale>  0 0.23744353E+03</rscale>
<asrwt>0</asrwt>
<pdfrwt beam="1">  1        2 0.30153711E+00 0.23744353E+03</pdfrwt>
<pdfrwt beam="2">  1       -2 0.15935380E-01 0.23744353E+03</pdfrwt>
<totfact> 0.24447522E+02</totfact>
</mgrwt>
</event>
<event>
 4    1  0.4840632E-008  0.2414684E+03  0.7818608E-02  0.1118818E+00
          2   -1    0    0  501    0  0.00000000000E+00  0.00000000000E+00  0.87491575794E+03  0.87491575795E+03  0.25500000000E-02 0. -1.
         -2   -1    0    0    0  501 -0.00000000000E+00 -0.00000000000E+00 -0.12524489326E+03  0.12524489329E+03  0.25500000000E-02 0.  1.
    8880022    1    1    2    0    0  0.45619630699E+02 -0.18120199919E+03  0.32764824550E+02  0.24368114814E+03  0.15294330000E+03 0.  1.
    8880022    1    1    2    0    0 -0.45619630699E+02  0.18120199919E+03  0.71690604013E+03  0.75647950310E+03  0.15294330000E+03 0.  0.
<mgrwt>
<rscale>  0 0.24146836E+03</rscale>
<asrwt>0</asrwt>
<pdfrwt beam="1">  1        2 0.13460242E+00 0.24146836E+03</pdfrwt>
<pdfrwt beam="2">  1       -2 0.19268446E-01 0.24146836E+03</pdfrwt>
<totfact> 0.71081903E+02</totfact>
</mgrwt>
</event>
<event>
 4    1  0.4840632E-008  0.4345352E+03  0.7818608E-02  0.1032437E+00
         -2   -1    0    0    0  501 -0.00000000000E+00  0.00000000000E+00  0.40016579279E+03  0.40016579280E+03  0.25500000000E-02 0.  1.
          2   -1    0    0  501    0  0.00000000000E+00 -0.00000000000E+00 -0.69884907540E+03  0.69884907540E+03  0.25500000000E-02 0. -1.
    8880022    1    1    2    0    0  0.34864552035E+03  0.20946476806E+03 -0.46251706652E+03  0.63462026264E+03  0.15294330000E+03 0.  0.
    8880022    1    1    2    0    0 -0.34864552035E+03 -0.20946476806E+03  0.16383378391E+03  0.46439460557E+03  0.15294330000E+03 0.  0.
<mgrwt>
<rscale>  0 0.43453520E+03</rscale>
<asrwt>0</asrwt>
<pdfrwt beam="1">  1        2 0.10751524E+00 0.43453520E+03</pdfrwt>
<pdfrwt beam="2">  1       -2 0.61563968E-01 0.43453520E+03</pdfrwt>
<totfact> 0.10442837E+02</totfact>
</mgrwt>
</event>
<event>
 4    1  0.4840632E-008  0.3632309E+03  0.7818608E-02  0.1057312E+00
         -2   -1    0    0    0  501 -0.00000000000E+00  0.00000000000E+00  0.12762616261E+03  0.12762616263E+03  0.25500000000E-02 0.  1.
          2   -1    0    0  501    0  0.00000000000E+00 -0.00000000000E+00 -0.22797569366E+04  0.22797569367E+04  0.25500000000E-02 0. -1.
    8880022    1    1    2    0    0  0.29738148582E+03 -0.14180710040E+03 -0.19659361191E+04  0.19992102139E+04  0.15294330000E+03 0.  0.
    8880022    1    1    2    0    0 -0.29738148582E+03  0.14180710040E+03 -0.18619465492E+03  0.40817288539E+03  0.15294330000E+03 0.  0.
<mgrwt>
<rscale>  0 0.36323086E+03</rscale>
<asrwt>0</asrwt>
<pdfrwt beam="1">  1        2 0.35073181E+00 0.36323086E+03</pdfrwt>
<pdfrwt beam="2">  1       -2 0.19634796E-01 0.36323086E+03</pdfrwt>
<totfact> 0.11252870E+02</totfact>
</mgrwt>
</event>
<event>
 4    1  0.4840632E-008  0.1241097E+04  0.7818608E-02  0.9077626E-01
          2   -1    0    0  501    0  0.00000000000E+00  0.00000000000E+00  0.35124617604E+04  0.35124617604E+04  0.25500000000E-02 0. -1.
         -2   -1    0    0    0  501 -0.00000000000E+00 -0.00000000000E+00 -0.66279462616E+03  0.66279462616E+03  0.25500000000E-02 0.  1.
    8880022    1    1    2    0    0  0.59630389286E+03  0.10776605000E+04  0.21048483705E+03  0.12588192903E+04  0.15294330000E+03 0.  0.
    8880022    1    1    2    0    0 -0.59630389286E+03 -0.10776605000E+04  0.26391822972E+04  0.29164370963E+04  0.15294330000E+03 0.  0.
<mgrwt>
<rscale>  0 0.12410972E+04</rscale>
<asrwt>0</asrwt>
<pdfrwt beam="1">  1        2 0.54037873E+00 0.12410972E+04</pdfrwt>
<pdfrwt beam="2">  1       -2 0.10196840E+00 0.12410972E+04</pdfrwt>
<totfact> 0.62479218E-01</totfact>
</mgrwt>
</event>
<event>
 4    1  0.4840632E-008  0.5666441E+03  0.7818608E-02  0.9977132E-01
          2   -1    0    0  501    0  0.00000000000E+00  0.00000000000E+00  0.91213155968E+03  0.91213155969E+03  0.25500000000E-02 0. -1.
         -2   -1    0    0    0  501 -0.00000000000E+00 -0.00000000000E+00 -0.67519955671E+03  0.67519955671E+03  0.25500000000E-02 0.  1.
    8880022    1    1    2    0    0  0.43766623324E+03  0.32579471325E+03  0.66755859966E+03  0.87562552721E+03  0.15294330000E+03 0. -1.
    8880022    1    1    2    0    0 -0.43766623324E+03 -0.32579471325E+03 -0.43062659668E+03  0.71170558919E+03  0.15294330000E+03 0.  0.
<mgrwt>
<rscale>  0 0.56664414E+03</rscale>
<asrwt>0</asrwt>
<pdfrwt beam="1">  1        2 0.14032793E+00 0.56664414E+03</pdfrwt>
<pdfrwt beam="2">  1       -2 0.10387685E+00 0.56664414E+03</pdfrwt>
<totfact> 0.22506904E+01</totfact>
</mgrwt>
</event>
<event>
 4    1  0.4840632E-008  0.3288888E+03  0.7818608E-02  0.1071630E+00
         -2   -1    0    0    0  501 -0.00000000000E+00  0.00000000000E+00  0.57649993715E+03  0.57649993716E+03  0.25500000000E-02 0.  1.
          2   -1    0    0  501    0  0.00000000000E+00 -0.00000000000E+00 -0.15350031260E+04  0.15350031260E+04  0.25500000000E-02 0. -1.
    8880022    1    1    2    0    0 -0.20179471357E+02 -0.29046337485E+03  0.50987360258E+03  0.60674453176E+03  0.15294330000E+03 0.  0.
    8880022    1    1    2    0    0  0.20179471357E+02  0.29046337485E+03 -0.14683767914E+04  0.15047585314E+04  0.15294330000E+03 0. -1.
<mgrwt>
<rscale>  0 0.32888879E+03</rscale>
<asrwt>0</asrwt>
<pdfrwt beam="1">  1        2 0.23615433E+00 0.32888879E+03</pdfrwt>
<pdfrwt beam="2">  1       -2 0.88692298E-01 0.32888879E+03</pdfrwt>
<totfact> 0.14753520E+01</totfact>
</mgrwt>
</event>
<event>
 4    1  0.4840632E-008  0.2607224E+03  0.7818608E-02  0.1106710E+00
         -2   -1    0    0    0  501 -0.00000000000E+00  0.00000000000E+00  0.42833131254E+03  0.42833131255E+03  0.25500000000E-02 0.  1.
          2   -1    0    0  501    0  0.00000000000E+00 -0.00000000000E+00 -0.58057753362E+03  0.58057753362E+03  0.25500000000E-02 0. -1.
    8880022    1    1    2    0    0  0.21110290467E+03  0.44816789305E+01  0.35389329617E+03  0.43956414765E+03  0.15294330000E+03 0.  0.
    8880022    1    1    2    0    0 -0.21110290467E+03 -0.44816789305E+01 -0.50613951725E+03  0.56934469853E+03  0.15294330000E+03 0. -1.
<mgrwt>
<rscale>  0 0.26072241E+03</rscale>
<asrwt>0</asrwt>
<pdfrwt beam="1">  1        2 0.89319621E-01 0.26072241E+03</pdfrwt>
<pdfrwt beam="2">  1       -2 0.65897124E-01 0.26072241E+03</pdfrwt>
<totfact> 0.11529123E+02</totfact>
</mgrwt>
</event>
<event>
 4    1  0.4840632E-008  0.2855080E+03  0.7818608E-02  0.1092718E+00
          2   -1    0    0  501    0  0.00000000000E+00  0.00000000000E+00  0.70498755880E+03  0.70498755881E+03  0.25500000000E-02 0. -1.
         -2   -1    0    0    0  501 -0.00000000000E+00 -0.00000000000E+00 -0.45424680319E+03  0.45424680320E+03  0.25500000000E-02 0.  1.
    8880022    1    1    2    0    0 -0.10240827462E+03 -0.21825611333E+03 -0.37506980755E+03  0.47137267556E+03  0.15294330000E+03 0.  0.
    8880022    1    1    2    0    0  0.10240827462E+03  0.21825611333E+03  0.62581056316E+03  0.68786168645E+03  0.15294330000E+03 0.  0.
<mgrwt>
<rscale>  0 0.28550804E+03</rscale>
<asrwt>0</asrwt>
<pdfrwt beam="1">  1        2 0.10845962E+00 0.28550804E+03</pdfrwt>
<pdfrwt beam="2">  1       -2 0.69884123E-01 0.28550804E+03</pdfrwt>
<totfact> 0.80428333E+01</totfact>
</mgrwt>
</event>
<event>
 4    1  0.4840632E-008  0.6596741E+03  0.7818608E-02  0.9788794E-01
         -2   -1    0    0    0  501 -0.00000000000E+00  0.00000000000E+00  0.75827610038E+03  0.75827610038E+03  0.25500000000E-02 0.  1.
          2   -1    0    0  501    0  0.00000000000E+00 -0.00000000000E+00 -0.11591693798E+04  0.11591693798E+04  0.25500000000E-02 0. -1.
    8880022    1    1    2    0    0  0.38350572717E+03  0.51449167892E+03 -0.88168605141E+03  0.11011540658E+04  0.15294330000E+03 0.  0.
    8880022    1    1    2    0    0 -0.38350572717E+03 -0.51449167892E+03  0.48079277202E+03  0.81629141432E+03  0.15294330000E+03 0.  0.
<mgrwt>
<rscale>  0 0.65967415E+03</rscale>
<asrwt>0</asrwt>
<pdfrwt beam="1">  1        2 0.17833375E+00 0.65967415E+03</pdfrwt>
<pdfrwt beam="2">  1       -2 0.11665786E+00 0.65967415E+03</pdfrwt>
<totfact> 0.11766782E+01</totfact>
</mgrwt>
</event>
<event>
 4    1  0.4840632E-008  0.5783227E+03  0.7818608E-02  0.9951429E-01
         -2   -1    0    0    0  501 -0.00000000000E+00  0.00000000000E+00  0.89047207902E+03  0.89047207902E+03  0.25500000000E-02 0.  1.
          2   -1    0    0  501    0  0.00000000000E+00 -0.00000000000E+00 -0.14098122104E+04  0.14098122104E+04  0.25500000000E-02 0. -1.
    8880022    1    1    2    0    0 -0.23508365255E+03  0.50576788852E+03  0.72542172447E+03  0.92773585255E+03  0.15294330000E+03 0.  0.
    8880022    1    1    2    0    0  0.23508365255E+03 -0.50576788852E+03 -0.12447618559E+04  0.13725484369E+04  0.15294330000E+03 0.  0.
<mgrwt>
<rscale>  0 0.57832269E+03</rscale>
<asrwt>0</asrwt>
<pdfrwt beam="1">  1        2 0.21689419E+00 0.57832269E+03</pdfrwt>
<pdfrwt beam="2">  1       -2 0.13699570E+00 0.57832269E+03</pdfrwt>
<totfact> 0.57187854E+00</totfact>
</mgrwt>
</event>
<event>
 4    1  0.4840632E-008  0.4673553E+03  0.7818608E-02  0.1022669E+00
         -2   -1    0    0    0  501 -0.00000000000E+00  0.00000000000E+00  0.95817989388E+03  0.95817989389E+03  0.25500000000E-02 0.  1.
          2   -1    0    0  501    0  0.00000000000E+00 -0.00000000000E+00 -0.16577230258E+04  0.16577230258E+04  0.25500000000E-02 0. -1.
    8880022    1    1    2    0    0 -0.28625918448E+03  0.33628113340E+03  0.86492716749E+03  0.98311747998E+03  0.15294330000E+03 0.  0.
    8880022    1    1    2    0    0  0.28625918448E+03 -0.33628113340E+03 -0.15644702994E+04  0.16327854397E+04  0.15294330000E+03 0. -1.
<mgrwt>
<rscale>  0 0.46735530E+03</rscale>
<asrwt>0</asrwt>
<pdfrwt beam="1">  1        2 0.25503431E+00 0.46735530E+03</pdfrwt>
<pdfrwt beam="2">  1       -2 0.14741229E+00 0.46735530E+03</pdfrwt>
<totfact> 0.35483267E+00</totfact>
</mgrwt>
</event>
<event>
 4    1  0.4840632E-008  0.5121029E+03  0.7818608E-02  0.1010667E+00
          2   -1    0    0  501    0  0.00000000000E+00  0.00000000000E+00  0.20261485756E+04  0.20261485756E+04  0.25500000000E-02 0. -1.
         -2   -1    0    0    0  501 -0.00000000000E+00 -0.00000000000E+00 -0.18445742579E+03  0.18445742581E+03  0.25500000000E-02 0.  1.
    8880022    1    1    2    0    0 -0.86915109242E+02  0.48094020803E+03  0.31715664805E+03  0.60236011848E+03  0.15294330000E+03 0.  0.
    8880022    1    1    2    0    0  0.86915109242E+02 -0.48094020803E+03  0.15245345017E+04  0.16082458829E+04  0.15294330000E+03 0.  0.
<mgrwt>
<rscale>  0 0.51210289E+03</rscale>
<asrwt>0</asrwt>
<pdfrwt beam="1">  1        2 0.31171518E+00 0.51210289E+03</pdfrwt>
<pdfrwt beam="2">  1       -2 0.28378064E-01 0.51210289E+03</pdfrwt>
<totfact> 0.77965686E+01</totfact>
</mgrwt>
</event>
<event>
 4    1  0.4840632E-008  0.2342352E+03  0.7818608E-02  0.1123694E+00
          2   -1    0    0  501    0  0.00000000000E+00  0.00000000000E+00  0.10073136239E+04  0.10073136239E+04  0.25500000000E-02 0. -1.
         -2   -1    0    0    0  501 -0.00000000000E+00 -0.00000000000E+00 -0.15408377907E+03  0.15408377909E+03  0.25500000000E-02 0.  1.
    8880022    1    1    2    0    0 -0.10087885285E+03 -0.14593808709E+03 -0.40299162977E+02  0.23767655283E+03  0.15294330000E+03 0.  1.
    8880022    1    1    2    0    0  0.10087885285E+03  0.14593808709E+03  0.89352900782E+03  0.92372085017E+03  0.15294330000E+03 0.  0.
<mgrwt>
<rscale>  0 0.23423518E+03</rscale>
<asrwt>0</asrwt>
<pdfrwt beam="1">  1        2 0.15497133E+00 0.23423518E+03</pdfrwt>
<pdfrwt beam="2">  1       -2 0.23705197E-01 0.23423518E+03</pdfrwt>
<totfact> 0.41011446E+02</totfact>
</mgrwt>
</event>
<event>
 4    1  0.4840632E-008  0.7409627E+03  0.7818608E-02  0.9649636E-01
          2   -1    0    0  501    0  0.00000000000E+00  0.00000000000E+00  0.26331988930E+04  0.26331988930E+04  0.25500000000E-02 0. -1.
         -2   -1    0    0    0  501 -0.00000000000E+00 -0.00000000000E+00 -0.39284380826E+03  0.39284380827E+03  0.25500000000E-02 0.  1.
    8880022    1    1    2    0    0  0.44638744390E+03 -0.57129003585E+03  0.83729095183E+02  0.74567839551E+03  0.15294330000E+03 0.  1.
    8880022    1    1    2    0    0 -0.44638744390E+03  0.57129003585E+03  0.21566259895E+04  0.22803643057E+04  0.15294330000E+03 0.  0.
<mgrwt>
<rscale>  0 0.74096269E+03</rscale>
<asrwt>0</asrwt>
<pdfrwt beam="1">  1        2 0.40510752E+00 0.74096269E+03</pdfrwt>
<pdfrwt beam="2">  1       -2 0.60437510E-01 0.74096269E+03</pdfrwt>
<totfact> 0.78257534E+00</totfact>
</mgrwt>
</event>
<event>
 4    1  0.4840632E-008  0.7486554E+03  0.7818608E-02  0.9637462E-01
         -2   -1    0    0    0  501 -0.00000000000E+00  0.00000000000E+00  0.22897616226E+03  0.22897616228E+03  0.25500000000E-02 0.  1.
          2   -1    0    0  501    0  0.00000000000E+00 -0.00000000000E+00 -0.34987536402E+04  0.34987536402E+04  0.25500000000E-02 0. -1.
    8880022    1    1    2    0    0 -0.40006621821E+03 -0.61403601620E+03 -0.26564213251E+04  0.27599020123E+04  0.15294330000E+03 0.  0.
    8880022    1    1    2    0    0  0.40006621821E+03  0.61403601620E+03 -0.61335615280E+03  0.96782779012E+03  0.15294330000E+03 0.  0.
<mgrwt>
<rscale>  0 0.74865537E+03</rscale>
<asrwt>0</asrwt>
<pdfrwt beam="1">  1        2 0.53826975E+00 0.74865537E+03</pdfrwt>
<pdfrwt beam="2">  1       -2 0.35227104E-01 0.74865537E+03</pdfrwt>
<totfact> 0.66713074E+00</totfact>
</mgrwt>
</event>
<event>
 4    1  0.4840632E-008  0.4459552E+03  0.7818608E-02  0.1028935E+00
          2   -1    0    0  501    0  0.00000000000E+00  0.00000000000E+00  0.16274134366E+04  0.16274134366E+04  0.25500000000E-02 0. -1.
         -2   -1    0    0    0  501 -0.00000000000E+00 -0.00000000000E+00 -0.52040946027E+03  0.52040946028E+03  0.25500000000E-02 0.  1.
    8880022    1    1    2    0    0  0.38416425916E+03 -0.16703956981E+03  0.14928999519E+04  0.15580841811E+04  0.15294330000E+03 0.  0.
    8880022    1    1    2    0    0 -0.38416425916E+03  0.16703956981E+03 -0.38589597560E+03  0.58973871579E+03  0.15294330000E+03 0.  0.
<mgrwt>
<rscale>  0 0.44595521E+03</rscale>
<asrwt>0</asrwt>
<pdfrwt beam="1">  1        2 0.25037130E+00 0.44595521E+03</pdfrwt>
<pdfrwt beam="2">  1       -2 0.80062994E-01 0.44595521E+03</pdfrwt>
<totfact> 0.16062599E+01</totfact>
</mgrwt>
</event>
<event>
 4    1  0.4840632E-008  0.6323586E+03  0.7818608E-02  0.9840457E-01
         -2   -1    0    0    0  501 -0.00000000000E+00  0.00000000000E+00  0.52238238574E+03  0.52238238574E+03  0.25500000000E-02 0.  1.
          2   -1    0    0  501    0  0.00000000000E+00 -0.00000000000E+00 -0.12734709229E+04  0.12734709229E+04  0.25500000000E-02 0. -1.
    8880022    1    1    2    0    0  0.58537804401E+03 -0.18389735373E+03 -0.94265907743E+03  0.11351138623E+04  0.15294330000E+03 0. -1.
    8880022    1    1    2    0    0 -0.58537804401E+03  0.18389735373E+03  0.19157054023E+03  0.66073944639E+03  0.15294330000E+03 0.  0.
<mgrwt>
<rscale>  0 0.63235856E+03</rscale>
<asrwt>0</asrwt>
<pdfrwt beam="1">  1        2 0.19591860E+00 0.63235856E+03</pdfrwt>
<pdfrwt beam="2">  1       -2 0.80366521E-01 0.63235856E+03</pdfrwt>
<totfact> 0.24252938E+01</totfact>
</mgrwt>
</event>
<event>
 4    1  0.4840632E-008  0.9961421E+03  0.7818608E-02  0.9312786E-01
          2   -1    0    0  501    0  0.00000000000E+00  0.00000000000E+00  0.17294830274E+04  0.17294830274E+04  0.25500000000E-02 0. -1.
         -2   -1    0    0    0  501 -0.00000000000E+00 -0.00000000000E+00 -0.85029673766E+03  0.85029673766E+03  0.25500000000E-02 0.  1.
    8880022    1    1    2    0    0 -0.29013067964E+03  0.94060175398E+03 -0.29601733875E+03  0.10391945866E+04  0.15294330000E+03 0.  0.
    8880022    1    1    2    0    0  0.29013067964E+03 -0.94060175398E+03  0.11752036285E+04  0.15405851786E+04  0.15294330000E+03 0.  0.
<mgrwt>
<rscale>  0 0.99614212E+03</rscale>
<asrwt>0</asrwt>
<pdfrwt beam="1">  1        2 0.26607431E+00 0.99614212E+03</pdfrwt>
<pdfrwt beam="2">  1       -2 0.13081488E+00 0.99614212E+03</pdfrwt>
<totfact> 0.40197198E+00</totfact>
</mgrwt>
</event>
<event>
 4    1  0.4840632E-008  0.8116083E+03  0.7818608E-02  0.9543365E-01
          2   -1    0    0  501    0  0.00000000000E+00  0.00000000000E+00  0.47042139238E+04  0.47042139238E+04  0.25500000000E-02 0. -1.
         -2   -1    0    0    0  501 -0.00000000000E+00 -0.00000000000E+00 -0.29253420203E+03  0.29253420204E+03  0.25500000000E-02 0.  1.
    8880022    1    1    2    0    0 -0.61213115420E+02  0.79471334456E+03  0.40097588401E+04  0.40910724700E+04  0.15294330000E+03 0.  0.
    8880022    1    1    2    0    0  0.61213115420E+02 -0.79471334456E+03  0.40192088165E+03  0.90567565587E+03  0.15294330000E+03 0.  0.
<mgrwt>
<rscale>  0 0.81160828E+03</rscale>
<asrwt>0</asrwt>
<pdfrwt beam="1">  1        2 0.72372521E+00 0.81160828E+03</pdfrwt>
<pdfrwt beam="2">  1       -2 0.45005263E-01 0.81160828E+03</pdfrwt>
<totfact> 0.40416077E-01</totfact>
</mgrwt>
</event>
<event>
 4    1  0.4840632E-008  0.3173162E+03  0.7818608E-02  0.1076891E+00
          2   -1    0    0  501    0  0.00000000000E+00  0.00000000000E+00  0.59466991671E+03  0.59466991672E+03  0.25500000000E-02 0. -1.
         -2   -1    0    0    0  501 -0.00000000000E+00 -0.00000000000E+00 -0.25802638287E+03  0.25802638288E+03  0.25500000000E-02 0.  1.
    8880022    1    1    2    0    0  0.18002239574E+03  0.21187231135E+03  0.41830416117E+03  0.52504091607E+03  0.15294330000E+03 0. -1.
    8880022    1    1    2    0    0 -0.18002239574E+03 -0.21187231135E+03 -0.81660627323E+02  0.32765538353E+03  0.15294330000E+03 0.  0.
<mgrwt>
<rscale>  0 0.31731623E+03</rscale>
<asrwt>0</asrwt>
<pdfrwt beam="1">  1        2 0.91487679E-01 0.31731623E+03</pdfrwt>
<pdfrwt beam="2">  1       -2 0.39696367E-01 0.31731623E+03</pdfrwt>
<totfact> 0.30964731E+02</totfact>
</mgrwt>
</event>
<event>
 4    1  0.4840632E-008  0.4409192E+03  0.7818608E-02  0.1030465E+00
         -2   -1    0    0    0  501 -0.00000000000E+00  0.00000000000E+00  0.38024649003E+03  0.38024649004E+03  0.25500000000E-02 0.  1.
          2   -1    0    0  501    0  0.00000000000E+00 -0.00000000000E+00 -0.29889957802E+04  0.29889957802E+04  0.25500000000E-02 0. -1.
    8880022    1    1    2    0    0 -0.32913283372E+03 -0.25037910484E+03  0.22941552173E+03  0.49703244663E+03  0.15294330000E+03 0.  0.
    8880022    1    1    2    0    0  0.32913283372E+03  0.25037910484E+03 -0.28381648119E+04  0.28722098236E+04  0.15294330000E+03 0.  0.
<mgrwt>
<rscale>  0 0.44091923E+03</rscale>
<asrwt>0</asrwt>
<pdfrwt beam="1">  1        2 0.45984549E+00 0.44091923E+03</pdfrwt>
<pdfrwt beam="2">  1       -2 0.58499462E-01 0.44091923E+03</pdfrwt>
<totfact> 0.55683530E+00</totfact>
</mgrwt>
</event>
<event>
 4    1  0.4840632E-008  0.3068505E+03  0.7818608E-02  0.1081865E+00
         -2   -1    0    0    0  501 -0.00000000000E+00  0.00000000000E+00  0.34855679839E+03  0.34855679840E+03  0.25500000000E-02 0.  1.
          2   -1    0    0  501    0  0.00000000000E+00 -0.00000000000E+00 -0.28339227328E+04  0.28339227328E+04  0.25500000000E-02 0. -1.
    8880022    1    1    2    0    0  0.45909109680E+01  0.26597839425E+03 -0.27561838939E+04  0.27732123778E+04  0.15294330000E+03 0.  0.
    8880022    1    1    2    0    0 -0.45909109680E+01 -0.26597839425E+03  0.27081795945E+03  0.40926715339E+03  0.15294330000E+03 0.  0.
<mgrwt>
<rscale>  0 0.30685051E+03</rscale>
<asrwt>0</asrwt>
<pdfrwt beam="1">  1        2 0.43598810E+00 0.30685051E+03</pdfrwt>
<pdfrwt beam="2">  1       -2 0.53624125E-01 0.30685051E+03</pdfrwt>
<totfact> 0.86689221E+00</totfact>
</mgrwt>
</event>
<event>
 4    1  0.4840632E-008  0.6620993E+03  0.7818608E-02  0.9784337E-01
         -2   -1    0    0    0  501 -0.00000000000E+00  0.00000000000E+00  0.63956780869E+03  0.63956780869E+03  0.25500000000E-02 0.  1.
          2   -1    0    0  501    0  0.00000000000E+00 -0.00000000000E+00 -0.93480298152E+03  0.93480298152E+03  0.25500000000E-02 0. -1.
    8880022    1    1    2    0    0 -0.67351531349E+02  0.64066180032E+03  0.25896287140E+03  0.71094106151E+03  0.15294330000E+03 0.  0.
    8880022    1    1    2    0    0  0.67351531349E+02 -0.64066180032E+03 -0.55419804423E+03  0.86342972870E+03  0.15294330000E+03 0.  0.
<mgrwt>
<rscale>  0 0.66209926E+03</rscale>
<asrwt>0</asrwt>
<pdfrwt beam="1">  1        2 0.14381584E+00 0.66209926E+03</pdfrwt>
<pdfrwt beam="2">  1       -2 0.98395048E-01 0.66209926E+03</pdfrwt>
<totfact> 0.24443438E+01</totfact>
</mgrwt>
</event>
<event>
 4    1  0.4840632E-008  0.2941787E+03  0.7818608E-02  0.1088187E+00
         -2   -1    0    0    0  501 -0.00000000000E+00  0.00000000000E+00  0.16651987609E+03  0.16651987611E+03  0.25500000000E-02 0.  1.
          2   -1    0    0  501    0  0.00000000000E+00 -0.00000000000E+00 -0.23591644710E+04  0.23591644710E+04  0.25500000000E-02 0. -1.
    8880022    1    1    2    0    0  0.72825339889E+02 -0.24051180315E+03 -0.22114257263E+04  0.22309067335E+04  0.15294330000E+03 0.  0.
    8880022    1    1    2    0    0 -0.72825339889E+02  0.24051180315E+03  0.18781131372E+02  0.29477761363E+03  0.15294330000E+03 0.  0.
<mgrwt>
<rscale>  0 0.29417871E+03</rscale>
<asrwt>0</asrwt>
<pdfrwt beam="1">  1        2 0.36294836E+00 0.29417871E+03</pdfrwt>
<pdfrwt beam="2">  1       -2 0.25618444E-01 0.29417871E+03</pdfrwt>
<totfact> 0.65199735E+01</totfact>
</mgrwt>
</event>
<event>
 4    1  0.4840632E-008  0.5291907E+03  0.7818608E-02  0.1006429E+00
          2   -1    0    0  501    0  0.00000000000E+00  0.00000000000E+00  0.32489493166E+04  0.32489493166E+04  0.25500000000E-02 0. -1.
         -2   -1    0    0    0  501 -0.00000000000E+00 -0.00000000000E+00 -0.11392787322E+03  0.11392787325E+03  0.25500000000E-02 0.  1.
    8880022    1    1    2    0    0 -0.48968129371E+03 -0.12985905406E+03  0.23971024055E+04  0.24548203068E+04  0.15294330000E+03 0.  0.
    8880022    1    1    2    0    0  0.48968129371E+03  0.12985905406E+03  0.73791903782E+03  0.90805688298E+03  0.15294330000E+03 0.  0.
<mgrwt>
<rscale>  0 0.52919070E+03</rscale>
<asrwt>0</asrwt>
<pdfrwt beam="1">  1        2 0.49983841E+00 0.52919070E+03</pdfrwt>
<pdfrwt beam="2">  1       -2 0.17527363E-01 0.52919070E+03</pdfrwt>
<totfact> 0.35920619E+01</totfact>
</mgrwt>
</event>
<event>
 4    1  0.4840632E-008  0.2730047E+03  0.7818608E-02  0.1099572E+00
          2   -1    0    0  501    0  0.00000000000E+00  0.00000000000E+00  0.55845830033E+03  0.55845830034E+03  0.25500000000E-02 0. -1.
         -2   -1    0    0    0  501 -0.00000000000E+00 -0.00000000000E+00 -0.17142033504E+03  0.17142033506E+03  0.25500000000E-02 0.  1.
    8880022    1    1    2    0    0 -0.14228122746E+03  0.17577252516E+03  0.36525334546E+03  0.45600612680E+03  0.15294330000E+03 0.  0.
    8880022    1    1    2    0    0  0.14228122746E+03 -0.17577252516E+03  0.21784619830E+02  0.27387250860E+03  0.15294330000E+03 0.  0.
<mgrwt>
<rscale>  0 0.27300473E+03</rscale>
<asrwt>0</asrwt>
<pdfrwt beam="1">  1        2 0.85916660E-01 0.27300473E+03</pdfrwt>
<pdfrwt beam="2">  1       -2 0.26372360E-01 0.27300473E+03</pdfrwt>
<totfact> 0.71128242E+02</totfact>
</mgrwt>
</event>
<event>
 4    1  0.4840632E-008  0.3440611E+03  0.7818608E-02  0.1065079E+00
         -2   -1    0    0    0  501 -0.00000000000E+00  0.00000000000E+00  0.20438888999E+03  0.20438889000E+03  0.25500000000E-02 0.  1.
          2   -1    0    0  501    0  0.00000000000E+00 -0.00000000000E+00 -0.13923363295E+04  0.13923363295E+04  0.25500000000E-02 0. -1.
    8880022    1    1    2    0    0 -0.10188925297E+03  0.29086935933E+03  0.16145919299E+02  0.34443975931E+03  0.15294330000E+03 0.  0.
    8880022    1    1    2    0    0  0.10188925297E+03 -0.29086935933E+03 -0.12040933588E+04  0.12522854602E+04  0.15294330000E+03 0.  0.
<mgrwt>
<rscale>  0 0.34406112E+03</rscale>
<asrwt>0</asrwt>
<pdfrwt beam="1">  1        2 0.21420558E+00 0.34406112E+03</pdfrwt>
<pdfrwt beam="2">  1       -2 0.31444445E-01 0.34406112E+03</pdfrwt>
<totfact> 0.14590325E+02</totfact>
</mgrwt>
</event>
<event>
 4    1  0.4840632E-008  0.3500469E+03  0.7818608E-02  0.1062596E+00
          2   -1    0    0  501    0  0.00000000000E+00  0.00000000000E+00  0.97574084237E+03  0.97574084238E+03  0.25500000000E-02 0. -1.
         -2   -1    0    0    0  501 -0.00000000000E+00 -0.00000000000E+00 -0.24690658817E+03  0.24690658818E+03  0.25500000000E-02 0.  1.
    8880022    1    1    2    0    0 -0.96365150312E+02 -0.29975811301E+03  0.79295006261E+03  0.86677714743E+03  0.15294330000E+03 0.  0.
    8880022    1    1    2    0    0  0.96365150312E+02  0.29975811301E+03 -0.64115808399E+02  0.35587028312E+03  0.15294330000E+03 0.  0.
<mgrwt>
<rscale>  0 0.35004688E+03</rscale>
<asrwt>0</asrwt>
<pdfrwt beam="1">  1        2 0.15011398E+00 0.35004688E+03</pdfrwt>
<pdfrwt beam="2">  1       -2 0.37985628E-01 0.35004688E+03</pdfrwt>
<totfact> 0.17870422E+02</totfact>
</mgrwt>
</event>
<event>
 4    1  0.4840632E-008  0.3199775E+03  0.7818608E-02  0.1075660E+00
          2   -1    0    0  501    0  0.00000000000E+00  0.00000000000E+00  0.32619590656E+04  0.32619590656E+04  0.25500000000E-02 0. -1.
         -2   -1    0    0    0  501 -0.00000000000E+00 -0.00000000000E+00 -0.88216817666E+02  0.88216817703E+02  0.25500000000E-02 0.  1.
    8880022    1    1    2    0    0 -0.27037899435E+03  0.76740679548E+02  0.29313288446E+04  0.29487411518E+04  0.15294330000E+03 0. -1.
    8880022    1    1    2    0    0  0.27037899435E+03 -0.76740679548E+02  0.24241340336E+03  0.40143473146E+03  0.15294330000E+03 0.  0.
<mgrwt>
<rscale>  0 0.31997748E+03</rscale>
<asrwt>0</asrwt>
<pdfrwt beam="1">  1        2 0.50183975E+00 0.31997748E+03</pdfrwt>
<pdfrwt beam="2">  1       -2 0.13571821E-01 0.31997748E+03</pdfrwt>
<totfact> 0.57459788E+01</totfact>
</mgrwt>
</event>
<event>
 4    1  0.4840632E-008  0.3957181E+03  0.7818608E-02  0.1045273E+00
         -2   -1    0    0    0  501 -0.00000000000E+00  0.00000000000E+00  0.20513412993E+03  0.20513412994E+03  0.25500000000E-02 0.  1.
          2   -1    0    0  501    0  0.00000000000E+00 -0.00000000000E+00 -0.78375042437E+03  0.78375042438E+03  0.25500000000E-02 0. -1.
    8880022    1    1    2    0    0 -0.34644161943E+03 -0.11480141062E+03 -0.20957194349E+03  0.44778701641E+03  0.15294330000E+03 0.  0.
    8880022    1    1    2    0    0  0.34644161943E+03  0.11480141062E+03 -0.36904435096E+03  0.54109753791E+03  0.15294330000E+03 0.  0.
<mgrwt>
<rscale>  0 0.39571810E+03</rscale>
<asrwt>0</asrwt>
<pdfrwt beam="1">  1        2 0.12057699E+00 0.39571810E+03</pdfrwt>
<pdfrwt beam="2">  1       -2 0.31559097E-01 0.39571810E+03</pdfrwt>
<totfact> 0.33845861E+02</totfact>
</mgrwt>
</event>
<event>
 4    1  0.4840632E-008  0.1660434E+03  0.7818608E-02  0.1182038E+00
          2   -1    0    0  501    0  0.00000000000E+00  0.00000000000E+00  0.74375269171E+02  0.74375269215E+02  0.25500000000E-02 0. -1.
         -2   -1    0    0    0  501 -0.00000000000E+00 -0.00000000000E+00 -0.89629006335E+03  0.89629006335E+03  0.25500000000E-02 0.  1.
    8880022    1    1    2    0    0  0.56810785672E+02  0.30842850977E+02 -0.39300966044E+02  0.17063108091E+03  0.15294330000E+03 0.  0.
    8880022    1    1    2    0    0 -0.56810785672E+02 -0.30842850977E+02 -0.78261382813E+03  0.80003425165E+03  0.15294330000E+03 0.  0.
<mgrwt>
<rscale>  0 0.16604337E+03</rscale>
<asrwt>0</asrwt>
<pdfrwt beam="1">  1        2 0.11442350E-01 0.16604337E+03</pdfrwt>
<pdfrwt beam="2">  1       -2 0.13789077E+00 0.16604337E+03</pdfrwt>
<totfact> 0.21323405E+02</totfact>
</mgrwt>
</event>
<event>
 4    1  0.4840632E-008  0.5479042E+03  0.7818608E-02  0.1001980E+00
          2   -1    0    0  501    0  0.00000000000E+00  0.00000000000E+00  0.14783859744E+04  0.14783859744E+04  0.25500000000E-02 0. -1.
         -2   -1    0    0    0  501 -0.00000000000E+00 -0.00000000000E+00 -0.23817941443E+03  0.23817941444E+03  0.25500000000E-02 0.  1.
    8880022    1    1    2    0    0  0.30967213729E+03  0.42533576126E+03  0.94968301104E+03  0.10964017589E+04  0.15294330000E+03 0. -1.
    8880022    1    1    2    0    0 -0.30967213729E+03 -0.42533576126E+03  0.29052354893E+03  0.62016362996E+03  0.15294330000E+03 0.  0.
<mgrwt>
<rscale>  0 0.54790418E+03</rscale>
<asrwt>0</asrwt>
<pdfrwt beam="1">  1        2 0.22744400E+00 0.54790418E+03</pdfrwt>
<pdfrwt beam="2">  1       -2 0.36642987E-01 0.54790418E+03</pdfrwt>
<totfact> 0.95282000E+01</totfact>
</mgrwt>
</event>
<event>
 4    1  0.4840632E-008  0.4175584E+03  0.7818608E-02  0.1037864E+00
         -2   -1    0    0    0  501 -0.00000000000E+00  0.00000000000E+00  0.45661231093E+03  0.45661231094E+03  0.25500000000E-02 0.  1.
          2   -1    0    0  501    0  0.00000000000E+00 -0.00000000000E+00 -0.22676047979E+04  0.22676047979E+04  0.25500000000E-02 0. -1.
    8880022    1    1    2    0    0 -0.38342995112E+03 -0.62807900448E+02  0.33664577264E+03  0.53636311304E+03  0.15294330000E+03 0.  0.
    8880022    1    1    2    0    0  0.38342995112E+03  0.62807900448E+02 -0.21476382596E+04  0.21878539958E+04  0.15294330000E+03 0. -1.
<mgrwt>
<rscale>  0 0.41755839E+03</rscale>
<asrwt>0</asrwt>
<pdfrwt beam="1">  1        2 0.34886227E+00 0.41755839E+03</pdfrwt>
<pdfrwt beam="2">  1       -2 0.70248049E-01 0.41755839E+03</pdfrwt>
<totfact> 0.97725057E+00</totfact>
</mgrwt>
</event>
<event>
 4    1  0.4840632E-008  0.1657515E+04  0.7818608E-02  0.8785973E-01
         -2   -1    0    0    0  501 -0.00000000000E+00  0.00000000000E+00  0.13235650252E+04  0.13235650252E+04  0.25500000000E-02 0.  1.
          2   -1    0    0  501    0  0.00000000000E+00 -0.00000000000E+00 -0.29378155538E+04  0.29378155538E+04  0.25500000000E-02 0. -1.
    8880022    1    1    2    0    0  0.14717491571E+04 -0.74694008427E+03  0.34708401551E+03  0.16934650979E+04  0.15294330000E+03 0.  0.
    8880022    1    1    2    0    0 -0.14717491571E+04  0.74694008427E+03 -0.19613345441E+04  0.25679154811E+04  0.15294330000E+03 0.  0.
<mgrwt>
<rscale>  0 0.16575152E+04</rscale>
<asrwt>0</asrwt>
<pdfrwt beam="1">  1        2 0.45197162E+00 0.16575152E+04</pdfrwt>
<pdfrwt beam="2">  1       -2 0.20362539E+00 0.16575152E+04</pdfrwt>
<totfact> 0.22169180E-01</totfact>
</mgrwt>
</event>
<event>
 4    1  0.4840632E-008  0.1046625E+04  0.7818608E-02  0.9258835E-01
         -2   -1    0    0    0  501 -0.00000000000E+00  0.00000000000E+00  0.14258262747E+04  0.14258262747E+04  0.25500000000E-02 0.  1.
          2   -1    0    0  501    0  0.00000000000E+00 -0.00000000000E+00 -0.12412595943E+04  0.12412595943E+04  0.25500000000E-02 0. -1.
    8880022    1    1    2    0    0  0.99974288243E+03  0.26934597159E+03  0.91547283107E+03  0.13905089862E+04  0.15294330000E+03 0.  0.
    8880022    1    1    2    0    0 -0.99974288243E+03 -0.26934597159E+03 -0.73090615073E+03  0.12765768828E+04  0.15294330000E+03 0.  0.
<mgrwt>
<rscale>  0 0.10466254E+04</rscale>
<asrwt>0</asrwt>
<pdfrwt beam="1">  1        2 0.19096301E+00 0.10466254E+04</pdfrwt>
<pdfrwt beam="2">  1       -2 0.21935789E+00 0.10466254E+04</pdfrwt>
<totfact> 0.17643296E+00</totfact>
</mgrwt>
</event>
<event>
 4    1  0.4840632E-008  0.4349259E+03  0.7818608E-02  0.1032315E+00
          2   -1    0    0  501    0  0.00000000000E+00  0.00000000000E+00  0.34793625757E+04  0.34793625757E+04  0.25500000000E-02 0. -1.
         -2   -1    0    0    0  501 -0.00000000000E+00 -0.00000000000E+00 -0.15560782979E+03  0.15560782981E+03  0.25500000000E-02 0.  1.
    8880022    1    1    2    0    0 -0.31223184513E+03 -0.26130476871E+03  0.31278781744E+04  0.31579712530E+04  0.15294330000E+03 0.  0.
    8880022    1    1    2    0    0  0.31223184513E+03  0.26130476871E+03  0.19587657143E+03  0.47699915253E+03  0.15294330000E+03 0.  1.
<mgrwt>
<rscale>  0 0.43492593E+03</rscale>
<asrwt>0</asrwt>
<pdfrwt beam="1">  1        2 0.53528653E+00 0.43492593E+03</pdfrwt>
<pdfrwt beam="2">  1       -2 0.23939667E-01 0.43492593E+03</pdfrwt>
<totfact> 0.15147867E+01</totfact>
</mgrwt>
</event>
<event>
 4    1  0.4840632E-008  0.4249232E+03  0.7818608E-02  0.1035476E+00
         -2   -1    0    0    0  501 -0.00000000000E+00  0.00000000000E+00  0.13143064417E+03  0.13143064419E+03  0.25500000000E-02 0.  1.
          2   -1    0    0  501    0  0.00000000000E+00 -0.00000000000E+00 -0.25846113545E+04  0.25846113545E+04  0.25500000000E-02 0. -1.
    8880022    1    1    2    0    0 -0.33825494027E+03 -0.20676483446E+03 -0.29709623592E+03  0.51848425993E+03  0.15294330000E+03 0.  0.
    8880022    1    1    2    0    0  0.33825494027E+03  0.20676483446E+03 -0.21560844744E+04  0.21975577387E+04  0.15294330000E+03 0.  0.
<mgrwt>
<rscale>  0 0.42492323E+03</rscale>
<asrwt>0</asrwt>
<pdfrwt beam="1">  1        2 0.39763248E+00 0.42492323E+03</pdfrwt>
<pdfrwt beam="2">  1       -2 0.20220101E-01 0.42492323E+03</pdfrwt>
<totfact> 0.71602649E+01</totfact>
</mgrwt>
</event>
<event>
 4    1  0.4840632E-008  0.5755955E+03  0.7818608E-02  0.9957372E-01
          2   -1    0    0  501    0  0.00000000000E+00  0.00000000000E+00  0.24825442215E+04  0.24825442215E+04  0.25500000000E-02 0. -1.
         -2   -1    0    0    0  501 -0.00000000000E+00 -0.00000000000E+00 -0.32859439779E+03  0.32859439780E+03  0.25500000000E-02 0.  1.
    8880022    1    1    2    0    0 -0.25308440354E+03 -0.49382874482E+03  0.21601375124E+04  0.22355098456E+04  0.15294330000E+03 0.  0.
    8880022    1    1    2    0    0  0.25308440354E+03  0.49382874482E+03 -0.61876887007E+01  0.57562877363E+03  0.15294330000E+03 0.  0.
<mgrwt>
<rscale>  0 0.57559552E+03</rscale>
<asrwt>0</asrwt>
<pdfrwt beam="1">  1        2 0.38192988E+00 0.57559552E+03</pdfrwt>
<pdfrwt beam="2">  1       -2 0.50552984E-01 0.57559552E+03</pdfrwt>
<totfact> 0.14250692E+01</totfact>
</mgrwt>
</event>
<event>
 4    1  0.4840632E-008  0.6718137E+03  0.7818608E-02  0.9766687E-01
          2   -1    0    0  501    0  0.00000000000E+00  0.00000000000E+00  0.31186591616E+04  0.31186591616E+04  0.25500000000E-02 0. -1.
         -2   -1    0    0    0  501 -0.00000000000E+00 -0.00000000000E+00 -0.15488487233E+03  0.15488487235E+03  0.25500000000E-02 0.  1.
    8880022    1    1    2    0    0  0.57947676045E+03  0.30356006245E+03  0.10625864635E+04  0.12571490257E+04  0.15294330000E+03 0.  0.
    8880022    1    1    2    0    0 -0.57947676045E+03 -0.30356006245E+03  0.19011878258E+04  0.20163950082E+04  0.15294330000E+03 0.  0.
<mgrwt>
<rscale>  0 0.67181372E+03</rscale>
<asrwt>0</asrwt>
<pdfrwt beam="1">  1        2 0.47979373E+00 0.67181372E+03</pdfrwt>
<pdfrwt beam="2">  1       -2 0.23828441E-01 0.67181372E+03</pdfrwt>
<totfact> 0.24637044E+01</totfact>
</mgrwt>
</event>
<event>
 4    1  0.4840632E-008  0.4858941E+03  0.7818608E-02  0.1017528E+00
          2   -1    0    0  501    0  0.00000000000E+00  0.00000000000E+00  0.11137907767E+04  0.11137907767E+04  0.25500000000E-02 0. -1.
         -2   -1    0    0    0  501 -0.00000000000E+00 -0.00000000000E+00 -0.45936921642E+03  0.45936921643E+03  0.25500000000E-02 0.  1.
    8880022    1    1    2    0    0 -0.23025611902E+03  0.39960428089E+03 -0.25003244009E+03  0.54645158593E+03  0.15294330000E+03 0.  0.
    8880022    1    1    2    0    0  0.23025611902E+03 -0.39960428089E+03  0.90445400037E+03  0.10267084072E+04  0.15294330000E+03 0.  0.
<mgrwt>
<rscale>  0 0.48589414E+03</rscale>
<asrwt>0</asrwt>
<pdfrwt beam="1">  1        2 0.17135243E+00 0.48589414E+03</pdfrwt>
<pdfrwt beam="2">  1       -2 0.70672188E-01 0.48589414E+03</pdfrwt>
<totfact> 0.40810830E+01</totfact>
</mgrwt>
</event>
<event>
 4    1  0.4840632E-008  0.2005800E+03  0.7818608E-02  0.1149251E+00
         -2   -1    0    0    0  501 -0.00000000000E+00  0.00000000000E+00  0.42572157440E+03  0.42572157441E+03  0.25500000000E-02 0.  1.
          2   -1    0    0  501    0  0.00000000000E+00 -0.00000000000E+00 -0.39677736289E+03  0.39677736290E+03  0.25500000000E-02 0. -1.
    8880022    1    1    2    0    0  0.12746214302E+03 -0.24373819785E+02  0.37342044034E+03  0.42388106737E+03  0.15294330000E+03 0.  1.
    8880022    1    1    2    0    0 -0.12746214302E+03  0.24373819785E+02 -0.34447622883E+03  0.39861786995E+03  0.15294330000E+03 0.  0.
<mgrwt>
<rscale>  0 0.20057999E+03</rscale>
<asrwt>0</asrwt>
<pdfrwt beam="1">  1        2 0.61042671E-01 0.20057999E+03</pdfrwt>
<pdfrwt beam="2">  1       -2 0.65495627E-01 0.20057999E+03</pdfrwt>
<totfact> 0.17984076E+02</totfact>
</mgrwt>
</event>
<event>
 4    1  0.4840632E-008  0.4373847E+03  0.7818608E-02  0.1031552E+00
          2   -1    0    0  501    0  0.00000000000E+00  0.00000000000E+00  0.30398681986E+04  0.30398681987E+04  0.25500000000E-02 0. -1.
         -2   -1    0    0    0  501 -0.00000000000E+00 -0.00000000000E+00 -0.80373606267E+02  0.80373606307E+02  0.25500000000E-02 0.  1.
    8880022    1    1    2    0    0 -0.35564731168E+03  0.20354053529E+03  0.22065106446E+04  0.22494431839E+04  0.15294330000E+03 0.  0.
    8880022    1    1    2    0    0  0.35564731168E+03 -0.20354053529E+03  0.75298394774E+03  0.87079862103E+03  0.15294330000E+03 0.  0.
<mgrwt>
<rscale>  0 0.43738474E+03</rscale>
<asrwt>0</asrwt>
<pdfrwt beam="1">  1        2 0.46767195E+00 0.43738474E+03</pdfrwt>
<pdfrwt beam="2">  1       -2 0.12365172E-01 0.43738474E+03</pdfrwt>
<totfact> 0.88775670E+01</totfact>
</mgrwt>
</event>
<event>
 4    1  0.4840632E-008  0.2925482E+03  0.7818608E-02  0.1089026E+00
          2   -1    0    0  501    0  0.00000000000E+00  0.00000000000E+00  0.46081767879E+03  0.46081767879E+03  0.25500000000E-02 0. -1.
         -2   -1    0    0    0  501 -0.00000000000E+00 -0.00000000000E+00 -0.10558854791E+04  0.10558854791E+04  0.25500000000E-02 0.  1.
    8880022    1    1    2    0    0 -0.12561770954E+03  0.21543668395E+03 -0.98596799579E+03  0.10284538470E+04  0.15294330000E+03 0.  0.
    8880022    1    1    2    0    0  0.12561770954E+03 -0.21543668395E+03  0.39090019547E+03  0.48824931088E+03  0.15294330000E+03 0. -1.
<mgrwt>
<rscale>  0 0.29254816E+03</rscale>
<asrwt>0</asrwt>
<pdfrwt beam="1">  1        2 0.70895028E-01 0.29254816E+03</pdfrwt>
<pdfrwt beam="2">  1       -2 0.16244392E+00 0.29254816E+03</pdfrwt>
<totfact> 0.17676838E+01</totfact>
</mgrwt>
</event>
<event>
 4    1  0.4840632E-008  0.2495405E+03  0.7818608E-02  0.1113596E+00
         -2   -1    0    0    0  501 -0.00000000000E+00  0.00000000000E+00  0.88430267288E+02  0.88430267324E+02  0.25500000000E-02 0.  1.
          2   -1    0    0  501    0  0.00000000000E+00 -0.00000000000E+00 -0.18901103822E+04  0.18901103822E+04  0.25500000000E-02 0. -1.
    8880022    1    1    2    0    0  0.10820263799E+03  0.16483621139E+03 -0.16844533476E+04  0.17028369038E+04  0.15294330000E+03 0. -1.
    8880022    1    1    2    0    0 -0.10820263799E+03 -0.16483621139E+03 -0.11722676730E+03  0.27570374578E+03  0.15294330000E+03 0.  0.
<mgrwt>
<rscale>  0 0.24954046E+03</rscale>
<asrwt>0</asrwt>
<pdfrwt beam="1">  1        2 0.29078618E+00 0.24954046E+03</pdfrwt>
<pdfrwt beam="2">  1       -2 0.13604658E-01 0.24954046E+03</pdfrwt>
<totfact> 0.34439064E+02</totfact>
</mgrwt>
</event>
<event>
 4    1  0.4840632E-008  0.6729625E+03  0.7818608E-02  0.9764621E-01
          2   -1    0    0  501    0  0.00000000000E+00  0.00000000000E+00  0.23784917669E+04  0.23784917669E+04  0.25500000000E-02 0. -1.
         -2   -1    0    0    0  501 -0.00000000000E+00 -0.00000000000E+00 -0.24217987922E+03  0.24217987924E+03  0.25500000000E-02 0.  1.
    8880022    1    1    2    0    0 -0.64367396010E+03  0.12316968970E+03  0.46229934935E+03  0.81645531463E+03  0.15294330000E+03 0.  0.
    8880022    1    1    2    0    0  0.64367396010E+03 -0.12316968970E+03  0.16740125383E+04  0.18042163315E+04  0.15294330000E+03 0.  0.
<mgrwt>
<rscale>  0 0.67296255E+03</rscale>
<asrwt>0</asrwt>
<pdfrwt beam="1">  1        2 0.36592182E+00 0.67296255E+03</pdfrwt>
<pdfrwt beam="2">  1       -2 0.37258441E-01 0.67296255E+03</pdfrwt>
<totfact> 0.29247018E+01</totfact>
</mgrwt>
</event>
<event>
 4    1  0.4840632E-008  0.9096156E+03  0.7818608E-02  0.9413641E-01
         -2   -1    0    0    0  501 -0.00000000000E+00  0.00000000000E+00  0.40331866927E+03  0.40331866928E+03  0.25500000000E-02 0.  1.
          2   -1    0    0  501    0  0.00000000000E+00 -0.00000000000E+00 -0.30183960136E+04  0.30183960136E+04  0.25500000000E-02 0. -1.
    8880022    1    1    2    0    0 -0.87251935723E+03  0.20668554454E+03 -0.33921659146E+03  0.97080816437E+03  0.15294330000E+03 0.  0.
    8880022    1    1    2    0    0  0.87251935723E+03 -0.20668554454E+03 -0.22758607529E+04  0.24509065186E+04  0.15294330000E+03 0. -1.
<mgrwt>
<rscale>  0 0.90961563E+03</rscale>
<asrwt>0</asrwt>
<pdfrwt beam="1">  1        2 0.46436860E+00 0.90961563E+03</pdfrwt>
<pdfrwt beam="2">  1       -2 0.62049028E-01 0.90961563E+03</pdfrwt>
<totfact> 0.42409990E+00</totfact>
</mgrwt>
</event>
<event>
 4    1  0.4840632E-008  0.1771494E+03  0.7818608E-02  0.1170591E+00
          2   -1    0    0  501    0  0.00000000000E+00  0.00000000000E+00  0.21233604127E+03  0.21233604129E+03  0.25500000000E-02 0. -1.
         -2   -1    0    0    0  501 -0.00000000000E+00 -0.00000000000E+00 -0.65105763705E+03  0.65105763706E+03  0.25500000000E-02 0.  1.
    8880022    1    1    2    0    0  0.54640826156E+02  0.70743498968E+02  0.16018753056E+03  0.23883458814E+03  0.15294330000E+03 0. -1.
    8880022    1    1    2    0    0 -0.54640826156E+02 -0.70743498968E+02 -0.59890912634E+03  0.62455909021E+03  0.15294330000E+03 0.  0.
<mgrwt>
<rscale>  0 0.17714942E+03</rscale>
<asrwt>0</asrwt>
<pdfrwt beam="1">  1        2 0.32667083E-01 0.17714942E+03</pdfrwt>
<pdfrwt beam="2">  1       -2 0.10016271E+00 0.17714942E+03</pdfrwt>
<totfact> 0.13823841E+02</totfact>
</mgrwt>
</event>
<event>
 4    1  0.4840632E-008  0.3374378E+03  0.7818608E-02  0.1067892E+00
         -2   -1    0    0    0  501 -0.00000000000E+00  0.00000000000E+00  0.57576995594E+03  0.57576995595E+03  0.25500000000E-02 0.  1.
          2   -1    0    0  501    0  0.00000000000E+00 -0.00000000000E+00 -0.22049809184E+04  0.22049809184E+04  0.25500000000E-02 0. -1.
    8880022    1    1    2    0    0  0.27688406627E+03  0.11750675503E+03  0.51195560773E+03  0.61315807173E+03  0.15294330000E+03 0.  0.
    8880022    1    1    2    0    0 -0.27688406627E+03 -0.11750675503E+03 -0.21411665702E+04  0.21675928026E+04  0.15294330000E+03 0.  0.
<mgrwt>
<rscale>  0 0.33743781E+03</rscale>
<asrwt>0</asrwt>
<pdfrwt beam="1">  1        2 0.33922783E+00 0.33743781E+03</pdfrwt>
<pdfrwt beam="2">  1       -2 0.88579995E-01 0.33743781E+03</pdfrwt>
<totfact> 0.64908670E+00</totfact>
</mgrwt>
</event>
<event>
 4    1  0.4840632E-008  0.2378270E+03  0.7818608E-02  0.1121249E+00
          2   -1    0    0  501    0  0.00000000000E+00  0.00000000000E+00  0.38000152678E+03  0.38000152679E+03  0.25500000000E-02 0. -1.
         -2   -1    0    0    0  501 -0.00000000000E+00 -0.00000000000E+00 -0.39655166530E+03  0.39655166531E+03  0.25500000000E-02 0.  1.
    8880022    1    1    2    0    0  0.10559919853E+03  0.14838748355E+03 -0.31514853376E+03  0.39481677693E+03  0.15294330000E+03 0.  0.
    8880022    1    1    2    0    0 -0.10559919853E+03 -0.14838748355E+03  0.29859839524E+03  0.38173641516E+03  0.15294330000E+03 0. -1.
<mgrwt>
<rscale>  0 0.23782701E+03</rscale>
<asrwt>0</asrwt>
<pdfrwt beam="1">  1        2 0.58461773E-01 0.23782701E+03</pdfrwt>
<pdfrwt beam="2">  1       -2 0.61007948E-01 0.23782701E+03</pdfrwt>
<totfact> 0.21795964E+02</totfact>
</mgrwt>
</event>
<event>
 4    1  0.4840632E-008  0.3298732E+03  0.7818608E-02  0.1071193E+00
         -2   -1    0    0    0  501 -0.00000000000E+00  0.00000000000E+00  0.10145188427E+03  0.10145188430E+03  0.25500000000E-02 0.  1.
          2   -1    0    0  501    0  0.00000000000E+00 -0.00000000000E+00 -0.27873056378E+04  0.27873056378E+04  0.25500000000E-02 0. -1.
    8880022    1    1    2    0    0 -0.24017643807E+03 -0.16655316132E+03 -0.24758091590E+04  0.24976883956E+04  0.15294330000E+03 0.  0.
    8880022    1    1    2    0    0  0.24017643807E+03  0.16655316132E+03 -0.21004459452E+03  0.39106912644E+03  0.15294330000E+03 0.  0.
<mgrwt>
<rscale>  0 0.32987320E+03</rscale>
<asrwt>0</asrwt>
<pdfrwt beam="1">  1        2 0.42881619E+00 0.32987320E+03</pdfrwt>
<pdfrwt beam="2">  1       -2 0.15607984E-01 0.32987320E+03</pdfrwt>
<totfact> 0.87493775E+01</totfact>
</mgrwt>
</event>
<event>
 4    1  0.4840632E-008  0.6159292E+03  0.7818608E-02  0.9872898E-01
         -2   -1    0    0    0  501 -0.00000000000E+00  0.00000000000E+00  0.41240287966E+03  0.41240287966E+03  0.25500000000E-02 0.  1.
          2   -1    0    0  501    0  0.00000000000E+00 -0.00000000000E+00 -0.21750458912E+04  0.21750458912E+04  0.25500000000E-02 0. -1.
    8880022    1    1    2    0    0  0.51463667312E+03 -0.30187110387E+03 -0.18640984165E+04  0.19632197096E+04  0.15294330000E+03 0.  0.
    8880022    1    1    2    0    0 -0.51463667312E+03  0.30187110387E+03  0.10145540501E+03  0.62422906123E+03  0.15294330000E+03 0.  0.
<mgrwt>
<rscale>  0 0.61592915E+03</rscale>
<asrwt>0</asrwt>
<pdfrwt beam="1">  1        2 0.33462244E+00 0.61592915E+03</pdfrwt>
<pdfrwt beam="2">  1       -2 0.63446598E-01 0.61592915E+03</pdfrwt>
<totfact> 0.13037710E+01</totfact>
</mgrwt>
</event>
<event>
 4    1  0.4840632E-008  0.3880561E+03  0.7818608E-02  0.1047996E+00
          2   -1    0    0  501    0  0.00000000000E+00  0.00000000000E+00  0.48474573499E+03  0.48474573500E+03  0.25500000000E-02 0. -1.
         -2   -1    0    0    0  501 -0.00000000000E+00 -0.00000000000E+00 -0.60462199264E+03  0.60462199264E+03  0.25500000000E-02 0.  1.
    8880022    1    1    2    0    0 -0.17369032787E+03  0.31149251960E+03  0.31986061240E+03  0.50289003186E+03  0.15294330000E+03 0.  0.
    8880022    1    1    2    0    0  0.17369032787E+03 -0.31149251960E+03 -0.43973687004E+03  0.58647769578E+03  0.15294330000E+03 0.  0.
<mgrwt>
<rscale>  0 0.38805615E+03</rscale>
<asrwt>0</asrwt>
<pdfrwt beam="1">  1        2 0.74576267E-01 0.38805615E+03</pdfrwt>
<pdfrwt beam="2">  1       -2 0.93018768E-01 0.38805615E+03</pdfrwt>
<totfact> 0.65120504E+01</totfact>
</mgrwt>
</event>
<event>
 4    1  0.4840632E-008  0.6217429E+03  0.7818608E-02  0.9861296E-01
          2   -1    0    0  501    0  0.00000000000E+00  0.00000000000E+00  0.17102890991E+04  0.17102890991E+04  0.25500000000E-02 0. -1.
         -2   -1    0    0    0  501 -0.00000000000E+00 -0.00000000000E+00 -0.24810525877E+03  0.24810525879E+03  0.25500000000E-02 0.  1.
    8880022    1    1    2    0    0 -0.30223590296E+03  0.52136936832E+03  0.10232221939E+04  0.11973085944E+04  0.15294330000E+03 0.  0.
    8880022    1    1    2    0    0  0.30223590296E+03 -0.52136936832E+03  0.43896164646E+03  0.76108576346E+03  0.15294330000E+03 0.  0.
<mgrwt>
<rscale>  0 0.62174288E+03</rscale>
<asrwt>0</asrwt>
<pdfrwt beam="1">  1        2 0.26312140E+00 0.62174288E+03</pdfrwt>
<pdfrwt beam="2">  1       -2 0.38170040E-01 0.62174288E+03</pdfrwt>
<totfact> 0.65168703E+01</totfact>
</mgrwt>
</event>
<event>
 4    1  0.4880513E-008  0.5868254E+03  0.7818608E-02  0.9933123E-01
          2   -1    0    0  501    0  0.00000000000E+00  0.00000000000E+00  0.15046747705E+04  0.15046747705E+04  0.25500000000E-02 0. -1.
         -2   -1    0    0    0  501 -0.00000000000E+00 -0.00000000000E+00 -0.96813738761E+03  0.96813738762E+03  0.25500000000E-02 0.  1.
    8880022    1    1    2    0    0 -0.56623649474E+03 -0.18671261427E+02 -0.81215856825E+03  0.10019808267E+04  0.15294330000E+03 0.  1.
    8880022    1    1    2    0    0  0.56623649474E+03  0.18671261427E+02  0.13486959511E+04  0.14708313314E+04  0.15294330000E+03 0.  0.
<mgrwt>
<rscale>  0 0.58682539E+03</rscale>
<asrwt>0</asrwt>
<pdfrwt beam="1">  1        2 0.23148843E+00 0.58682539E+03</pdfrwt>
<pdfrwt beam="2">  1       -2 0.14894421E+00 0.58682539E+03</pdfrwt>
<totfact> 0.40702882E+00</totfact>
</mgrwt>
</event>
<event>
 4    1  0.4840632E-008  0.6690918E+03  0.7818608E-02  0.9771600E-01
          2   -1    0    0  501    0  0.00000000000E+00  0.00000000000E+00  0.85465079857E+03  0.85465079857E+03  0.25500000000E-02 0. -1.
         -2   -1    0    0    0  501 -0.00000000000E+00 -0.00000000000E+00 -0.14280617603E+04  0.14280617603E+04  0.25500000000E-02 0.  1.
    8880022    1    1    2    0    0  0.49372452653E+03  0.42488623788E+03  0.62151192796E+03  0.91321462584E+03  0.15294330000E+03 0.  0.
    8880022    1    1    2    0    0 -0.49372452653E+03 -0.42488623788E+03 -0.11949228897E+04  0.13694979330E+04  0.15294330000E+03 0.  0.
<mgrwt>
<rscale>  0 0.66909183E+03</rscale>
<asrwt>0</asrwt>
<pdfrwt beam="1">  1        2 0.13148474E+00 0.66909183E+03</pdfrwt>
<pdfrwt beam="2">  1       -2 0.21970181E+00 0.66909183E+03</pdfrwt>
<totfact> 0.32489680E+00</totfact>
</mgrwt>
</event>
<event>
 4    1  0.4840632E-008  0.5270549E+03  0.7818608E-02  0.1006949E+00
         -2   -1    0    0    0  501 -0.00000000000E+00  0.00000000000E+00  0.13429693306E+03  0.13429693309E+03  0.25500000000E-02 0.  1.
          2   -1    0    0  501    0  0.00000000000E+00 -0.00000000000E+00 -0.30582744452E+04  0.30582744452E+04  0.25500000000E-02 0. -1.
    8880022    1    1    2    0    0 -0.45657722055E+03 -0.21431856240E+03 -0.55385277841E+03  0.76455199802E+03  0.15294330000E+03 0.  0.
    8880022    1    1    2    0    0  0.45657722055E+03  0.21431856240E+03 -0.23701247338E+04  0.24280193803E+04  0.15294330000E+03 0.  0.
<mgrwt>
<rscale>  0 0.52705489E+03</rscale>
<asrwt>0</asrwt>
<pdfrwt beam="1">  1        2 0.47050371E+00 0.52705489E+03</pdfrwt>
<pdfrwt beam="2">  1       -2 0.20661069E-01 0.52705489E+03</pdfrwt>
<totfact> 0.35571258E+01</totfact>
</mgrwt>
</event>
<event>
 4    1  0.4840632E-008  0.4727986E+03  0.7818608E-02  0.1021133E+00
         -2   -1    0    0    0  501 -0.00000000000E+00  0.00000000000E+00  0.14559925974E+03  0.14559925977E+03  0.25500000000E-02 0.  1.
          2   -1    0    0  501    0  0.00000000000E+00 -0.00000000000E+00 -0.16537164877E+04  0.16537164877E+04  0.25500000000E-02 0. -1.
    8880022    1    1    2    0    0 -0.26393430981E+03 -0.36122782433E+03 -0.51331580882E+03  0.69787651742E+03  0.15294330000E+03 0.  0.
    8880022    1    1    2    0    0  0.26393430981E+03  0.36122782433E+03 -0.99480141915E+03  0.11014392301E+04  0.15294330000E+03 0.  0.
<mgrwt>
<rscale>  0 0.47279860E+03</rscale>
<asrwt>0</asrwt>
<pdfrwt beam="1">  1        2 0.25441791E+00 0.47279860E+03</pdfrwt>
<pdfrwt beam="2">  1       -2 0.22399887E-01 0.47279860E+03</pdfrwt>
<totfact> 0.19016152E+02</totfact>
</mgrwt>
</event>
<event>
 4    1  0.4840632E-008  0.7452782E+03  0.7818608E-02  0.9642787E-01
          2   -1    0    0  501    0  0.00000000000E+00  0.00000000000E+00  0.24396837759E+04  0.24396837759E+04  0.25500000000E-02 0. -1.
         -2   -1    0    0    0  501 -0.00000000000E+00 -0.00000000000E+00 -0.25800708159E+03  0.25800708160E+03  0.25500000000E-02 0.  1.
    8880022    1    1    2    0    0  0.16464474474E+03  0.71059131339E+03  0.15533714214E+04  0.17229052012E+04  0.15294330000E+03 0.  0.
    8880022    1    1    2    0    0 -0.16464474474E+03 -0.71059131339E+03  0.62830527290E+03  0.97478565624E+03  0.15294330000E+03 0.  0.
<mgrwt>
<rscale>  0 0.74527818E+03</rscale>
<asrwt>0</asrwt>
<pdfrwt beam="1">  1        2 0.37533597E+00 0.74527818E+03</pdfrwt>
<pdfrwt beam="2">  1       -2 0.39693397E-01 0.74527818E+03</pdfrwt>
<totfact> 0.23647028E+01</totfact>
</mgrwt>
</event>
<event>
 4    1  0.4840632E-008  0.3391151E+03  0.7818608E-02  0.1067173E+00
          2   -1    0    0  501    0  0.00000000000E+00  0.00000000000E+00  0.23995862680E+04  0.23995862680E+04  0.25500000000E-02 0. -1.
         -2   -1    0    0    0  501 -0.00000000000E+00 -0.00000000000E+00 -0.14498149633E+03  0.14498149635E+03  0.25500000000E-02 0.  1.
    8880022    1    1    2    0    0  0.71347441265E+02  0.29413761493E+03  0.86325490870E+02  0.34993018915E+03  0.15294330000E+03 0.  0.
    8880022    1    1    2    0    0 -0.71347441265E+02 -0.29413761493E+03  0.21682792808E+04  0.21946375752E+04  0.15294330000E+03 0.  0.
<mgrwt>
<rscale>  0 0.33911509E+03</rscale>
<asrwt>0</asrwt>
<pdfrwt beam="1">  1        2 0.36916710E+00 0.33911509E+03</pdfrwt>
<pdfrwt beam="2">  1       -2 0.22304847E-01 0.33911509E+03</pdfrwt>
<totfact> 0.78084994E+01</totfact>
</mgrwt>
</event>
<event>
 4    1  0.4840632E-008  0.1649158E+03  0.7818608E-02  0.1183256E+00
          2   -1    0    0  501    0  0.00000000000E+00  0.00000000000E+00  0.14803406768E+04  0.14803406768E+04  0.25500000000E-02 0. -1.
         -2   -1    0    0    0  501 -0.00000000000E+00 -0.00000000000E+00 -0.55634735918E+03  0.55634735918E+03  0.25500000000E-02 0.  1.
    8880022    1    1    2    0    0 -0.49760390710E+02 -0.36461727714E+02  0.14633851306E+04  0.14726483788E+04  0.15294330000E+03 0. -1.
    8880022    1    1    2    0    0  0.49760390710E+02  0.36461727714E+02 -0.53939181293E+03  0.56403965724E+03  0.15294330000E+03 0.  0.
<mgrwt>
<rscale>  0 0.16491576E+03</rscale>
<asrwt>0</asrwt>
<pdfrwt beam="1">  1        2 0.22774471E+00 0.16491576E+03</pdfrwt>
<pdfrwt beam="2">  1       -2 0.85591904E-01 0.16491576E+03</pdfrwt>
<totfact> 0.18309881E+01</totfact>
</mgrwt>
</event>
<event>
 4    1  0.4840632E-008  0.6176491E+03  0.7818608E-02  0.9869451E-01
          2   -1    0    0  501    0  0.00000000000E+00  0.00000000000E+00  0.41714602828E+04  0.41714602828E+04  0.25500000000E-02 0. -1.
         -2   -1    0    0    0  501 -0.00000000000E+00 -0.00000000000E+00 -0.13464804760E+03  0.13464804763E+03  0.25500000000E-02 0.  1.
    8880022    1    1    2    0    0  0.51812318661E+03 -0.29941139134E+03  0.79892685814E+03  0.10098388958E+04  0.15294330000E+03 0.  1.
    8880022    1    1    2    0    0 -0.51812318661E+03  0.29941139134E+03  0.32378853771E+04  0.32962694347E+04  0.15294330000E+03 0.  0.
<mgrwt>
<rscale>  0 0.61764915E+03</rscale>
<asrwt>0</asrwt>
<pdfrwt beam="1">  1        2 0.64176311E+00 0.61764915E+03</pdfrwt>
<pdfrwt beam="2">  1       -2 0.20715084E-01 0.61764915E+03</pdfrwt>
<totfact> 0.56711571E+00</totfact>
</mgrwt>
</event>
<event>
 4    1  0.4840632E-008  0.1352341E+04  0.7818608E-02  0.8989058E-01
          2   -1    0    0  501    0  0.00000000000E+00  0.00000000000E+00  0.17424874364E+04  0.17424874364E+04  0.25500000000E-02 0. -1.
         -2   -1    0    0    0  501 -0.00000000000E+00 -0.00000000000E+00 -0.10976080013E+04  0.10976080013E+04  0.25500000000E-02 0.  1.
    8880022    1    1    2    0    0 -0.40848037736E+03 -0.12800699346E+04  0.25297622964E+02  0.13525778643E+04  0.15294330000E+03 0.  0.
    8880022    1    1    2    0    0  0.40848037736E+03  0.12800699346E+04  0.61958181222E+03  0.14875175734E+04  0.15294330000E+03 0.  0.
<mgrwt>
<rscale>  0 0.13523413E+04</rscale>
<asrwt>0</asrwt>
<pdfrwt beam="1">  1        2 0.26807499E+00 0.13523413E+04</pdfrwt>
<pdfrwt beam="2">  1       -2 0.16886277E+00 0.13523413E+04</pdfrwt>
<totfact> 0.19281940E+00</totfact>
</mgrwt>
</event>
<event>
 4    1  0.4840632E-008  0.9415954E+03  0.7818608E-02  0.9375029E-01
         -2   -1    0    0    0  501 -0.00000000000E+00  0.00000000000E+00  0.60688188010E+03  0.60688188011E+03  0.25500000000E-02 0.  1.
          2   -1    0    0  501    0  0.00000000000E+00 -0.00000000000E+00 -0.26241614737E+04  0.26241614737E+04  0.25500000000E-02 0. -1.
    8880022    1    1    2    0    0  0.42653705021E+03  0.82539471906E+03 -0.20842468927E+04  0.22870695355E+04  0.15294330000E+03 0.  0.
    8880022    1    1    2    0    0 -0.42653705021E+03 -0.82539471906E+03  0.66967299124E+02  0.94397381829E+03  0.15294330000E+03 0.  0.
<mgrwt>
<rscale>  0 0.94159543E+03</rscale>
<asrwt>0</asrwt>
<pdfrwt beam="1">  1        2 0.40371714E+00 0.94159543E+03</pdfrwt>
<pdfrwt beam="2">  1       -2 0.93366444E-01 0.94159543E+03</pdfrwt>
<totfact> 0.29165055E+00</totfact>
</mgrwt>
</event>
<event>
 4    1  0.4840632E-008  0.8117887E+03  0.7818608E-02  0.9543108E-01
         -2   -1    0    0    0  501 -0.00000000000E+00  0.00000000000E+00  0.42473392125E+03  0.42473392126E+03  0.25500000000E-02 0.  1.
          2   -1    0    0  501    0  0.00000000000E+00 -0.00000000000E+00 -0.21262851204E+04  0.21262851204E+04  0.25500000000E-02 0. -1.
    8880022    1    1    2    0    0  0.60004584206E+03  0.52493258571E+03 -0.18763990984E+03  0.83319242729E+03  0.15294330000E+03 0.  0.
    8880022    1    1    2    0    0 -0.60004584206E+03 -0.52493258571E+03 -0.15139112893E+04  0.17178266144E+04  0.15294330000E+03 0.  0.
<mgrwt>
<rscale>  0 0.81178869E+03</rscale>
<asrwt>0</asrwt>
<pdfrwt beam="1">  1        2 0.32712078E+00 0.81178869E+03</pdfrwt>
<pdfrwt beam="2">  1       -2 0.65343681E-01 0.81178869E+03</pdfrwt>
<totfact> 0.12614587E+01</totfact>
</mgrwt>
</event>
<event>
 4    1  0.4840632E-008  0.3398216E+03  0.7818608E-02  0.1066872E+00
          2   -1    0    0  501    0  0.00000000000E+00  0.00000000000E+00  0.85959461015E+03  0.85959461015E+03  0.25500000000E-02 0. -1.
         -2   -1    0    0    0  501 -0.00000000000E+00 -0.00000000000E+00 -0.26532956600E+03  0.26532956601E+03  0.25500000000E-02 0.  1.
    8880022    1    1    2    0    0 -0.30095365075E+03  0.38909937992E+02 -0.98067761442E+02  0.35368916017E+03  0.15294330000E+03 0.  0.
    8880022    1    1    2    0    0  0.30095365075E+03 -0.38909937992E+02  0.69233280559E+03  0.77123501599E+03  0.15294330000E+03 0.  0.
<mgrwt>
<rscale>  0 0.33982162E+03</rscale>
<asrwt>0</asrwt>
<pdfrwt beam="1">  1        2 0.13224533E+00 0.33982162E+03</pdfrwt>
<pdfrwt beam="2">  1       -2 0.40819933E-01 0.33982162E+03</pdfrwt>
<totfact> 0.18535298E+02</totfact>
</mgrwt>
</event>
<event>
 4    1  0.4840632E-008  0.6907559E+03  0.7818608E-02  0.9733173E-01
         -2   -1    0    0    0  501 -0.00000000000E+00  0.00000000000E+00  0.40727802179E+03  0.40727802180E+03  0.25500000000E-02 0.  1.
          2   -1    0    0  501    0  0.00000000000E+00 -0.00000000000E+00 -0.14482328875E+04  0.14482328875E+04  0.25500000000E-02 0. -1.
    8880022    1    1    2    0    0 -0.20387890606E+03 -0.64201666122E+03 -0.92599630868E+03  0.11552544388E+04  0.15294330000E+03 0.  0.
    8880022    1    1    2    0    0  0.20387890606E+03  0.64201666122E+03 -0.11495855700E+03  0.70025647049E+03  0.15294330000E+03 0.  0.
<mgrwt>
<rscale>  0 0.69075586E+03</rscale>
<asrwt>0</asrwt>
<pdfrwt beam="1">  1        2 0.22280506E+00 0.69075586E+03</pdfrwt>
<pdfrwt beam="2">  1       -2 0.62658158E-01 0.69075586E+03</pdfrwt>
<totfact> 0.33016148E+01</totfact>
</mgrwt>
</event>
<event>
 4    1  0.4840632E-008  0.7607072E+03  0.7818608E-02  0.9618701E-01
          2   -1    0    0  501    0  0.00000000000E+00  0.00000000000E+00  0.19432137482E+04  0.19432137482E+04  0.25500000000E-02 0. -1.
         -2   -1    0    0    0  501 -0.00000000000E+00 -0.00000000000E+00 -0.42653609019E+03  0.42653609020E+03  0.25500000000E-02 0.  1.
    8880022    1    1    2    0    0 -0.20755592051E+03  0.71568453971E+03  0.14093022128E+04  0.16015018578E+04  0.15294330000E+03 0.  0.
    8880022    1    1    2    0    0  0.20755592051E+03 -0.71568453971E+03  0.10737544526E+03  0.76824798065E+03  0.15294330000E+03 0.  0.
<mgrwt>
<rscale>  0 0.76070722E+03</rscale>
<asrwt>0</asrwt>
<pdfrwt beam="1">  1        2 0.29895596E+00 0.76070722E+03</pdfrwt>
<pdfrwt beam="2">  1       -2 0.65620937E-01 0.76070722E+03</pdfrwt>
<totfact> 0.15856799E+01</totfact>
</mgrwt>
</event>
<event>
 4    1  0.4840632E-008  0.7422557E+03  0.7818608E-02  0.9647579E-01
          2   -1    0    0  501    0  0.00000000000E+00  0.00000000000E+00  0.13891749449E+04  0.13891749449E+04  0.25500000000E-02 0. -1.
         -2   -1    0    0    0  501 -0.00000000000E+00 -0.00000000000E+00 -0.57937910896E+03  0.57937910897E+03  0.25500000000E-02 0.  1.
    8880022    1    1    2    0    0 -0.23566925390E+03 -0.68703119747E+03  0.95774115917E+03  0.12116978355E+04  0.15294330000E+03 0.  0.
    8880022    1    1    2    0    0  0.23566925390E+03  0.68703119747E+03 -0.14794532328E+03  0.75685621834E+03  0.15294330000E+03 0.  0.
<mgrwt>
<rscale>  0 0.74225569E+03</rscale>
<asrwt>0</asrwt>
<pdfrwt beam="1">  1        2 0.21371922E+00 0.74225569E+03</pdfrwt>
<pdfrwt beam="2">  1       -2 0.89135249E-01 0.74225569E+03</pdfrwt>
<totfact> 0.16230921E+01</totfact>
</mgrwt>
</event>
<event>
 4    1  0.4840632E-008  0.2226670E+03  0.7818608E-02  0.1131910E+00
         -2   -1    0    0    0  501 -0.00000000000E+00  0.00000000000E+00  0.11295690599E+04  0.11295690599E+04  0.25500000000E-02 0.  1.
          2   -1    0    0  501    0  0.00000000000E+00 -0.00000000000E+00 -0.50842061523E+02  0.50842061587E+02  0.25500000000E-02 0. -1.
    8880022    1    1    2    0    0 -0.78772594347E+02 -0.14136414313E+03  0.75755767689E+03  0.78960384334E+03  0.15294330000E+03 0.  1.
    8880022    1    1    2    0    0  0.78772594347E+02  0.14136414313E+03  0.32116932152E+03  0.39080727818E+03  0.15294330000E+03 0. -1.
<mgrwt>
<rscale>  0 0.22266701E+03</rscale>
<asrwt>0</asrwt>
<pdfrwt beam="1">  1        2 0.78218565E-02 0.22266701E+03</pdfrwt>
<pdfrwt beam="2">  1       -2 0.17377983E+00 0.22266701E+03</pdfrwt>
<totfact> 0.18762910E+02</totfact>
</mgrwt>
</event>
<event>
 4    1  0.6363275E-008  0.7026044E+03  0.7818608E-02  0.9712789E-01
          2   -1    0    0  501    0  0.00000000000E+00  0.00000000000E+00  0.15324540541E+04  0.15324540541E+04  0.25500000000E-02 0. -1.
         -2   -1    0    0    0  501 -0.00000000000E+00 -0.00000000000E+00 -0.13223257522E+04  0.13223257522E+04  0.25500000000E-02 0.  1.
    8880022    1    1    2    0    0  0.39925610522E+03 -0.55754447309E+03 -0.11363463042E+04  0.13360149150E+04  0.15294330000E+03 0.  0.
    8880022    1    1    2    0    0 -0.39925610522E+03  0.55754447309E+03  0.13464746062E+04  0.15187648913E+04  0.15294330000E+03 0.  0.
<mgrwt>
<rscale>  0 0.70260439E+03</rscale>
<asrwt>0</asrwt>
<pdfrwt beam="1">  1        2 0.23576216E+00 0.70260439E+03</pdfrwt>
<pdfrwt beam="2">  1       -2 0.20343473E+00 0.70260439E+03</pdfrwt>
<totfact> 0.16027662E+00</totfact>
</mgrwt>
</event>
<event>
 4    1  0.4840632E-008  0.6026224E+03  0.7818608E-02  0.9899980E-01
         -2   -1    0    0    0  501 -0.00000000000E+00  0.00000000000E+00  0.17477226517E+03  0.17477226519E+03  0.25500000000E-02 0.  1.
          2   -1    0    0  501    0  0.00000000000E+00 -0.00000000000E+00 -0.22633696631E+04  0.22633696631E+04  0.25500000000E-02 0. -1.
    8880022    1    1    2    0    0  0.20663566606E+03  0.54503555151E+03 -0.69529896150E+03  0.92010561881E+03  0.15294330000E+03 0.  0.
    8880022    1    1    2    0    0 -0.20663566606E+03 -0.54503555151E+03 -0.13932984364E+04  0.15180363094E+04  0.15294330000E+03 0.  0.
<mgrwt>
<rscale>  0 0.60262236E+03</rscale>
<asrwt>0</asrwt>
<pdfrwt beam="1">  1        2 0.34821070E+00 0.60262236E+03</pdfrwt>
<pdfrwt beam="2">  1       -2 0.26888042E-01 0.60262236E+03</pdfrwt>
<totfact> 0.62987656E+01</totfact>
</mgrwt>
</event>
<event>
 4    1  0.4840632E-008  0.5613639E+03  0.7818608E-02  0.9988973E-01
          2   -1    0    0  501    0  0.00000000000E+00  0.00000000000E+00  0.13839274216E+04  0.13839274216E+04  0.25500000000E-02 0. -1.
         -2   -1    0    0    0  501 -0.00000000000E+00 -0.00000000000E+00 -0.10532396853E+04  0.10532396853E+04  0.25500000000E-02 0.  1.
    8880022    1    1    2    0    0  0.34697630380E+03  0.41393860780E+03  0.12441886173E+04  0.13649669208E+04  0.15294330000E+03 0.  0.
    8880022    1    1    2    0    0 -0.34697630380E+03 -0.41393860780E+03 -0.91350088102E+03  0.10722001861E+04  0.15294330000E+03 0.  0.
<mgrwt>
<rscale>  0 0.56136386E+03</rscale>
<asrwt>0</asrwt>
<pdfrwt beam="1">  1        2 0.21291191E+00 0.56136386E+03</pdfrwt>
<pdfrwt beam="2">  1       -2 0.16203688E+00 0.56136386E+03</pdfrwt>
<totfact> 0.38154161E+00</totfact>
</mgrwt>
</event>
<event>
 4    1  0.4840632E-008  0.3070196E+03  0.7818608E-02  0.1081783E+00
          2   -1    0    0  501    0  0.00000000000E+00  0.00000000000E+00  0.54774446225E+03  0.54774446225E+03  0.25500000000E-02 0. -1.
         -2   -1    0    0    0  501 -0.00000000000E+00 -0.00000000000E+00 -0.26112652384E+03  0.26112652386E+03  0.25500000000E-02 0.  1.
    8880022    1    1    2    0    0  0.26539905488E+03 -0.20802338454E+02 -0.92852577105E+02  0.32075325362E+03  0.15294330000E+03 0.  0.
    8880022    1    1    2    0    0 -0.26539905488E+03  0.20802338454E+02  0.37947051551E+03  0.48811773249E+03  0.15294330000E+03 0.  0.
<mgrwt>
<rscale>  0 0.30701962E+03</rscale>
<asrwt>0</asrwt>
<pdfrwt beam="1">  1        2 0.84268379E-01 0.30701962E+03</pdfrwt>
<pdfrwt beam="2">  1       -2 0.40173311E-01 0.30701962E+03</pdfrwt>
<totfact> 0.33312011E+02</totfact>
</mgrwt>
</event>
<event>
 4    1  0.4840632E-008  0.7839043E+03  0.7818608E-02  0.9583612E-01
         -2   -1    0    0    0  501 -0.00000000000E+00  0.00000000000E+00  0.42214925412E+03  0.42214925413E+03  0.25500000000E-02 0.  1.
          2   -1    0    0  501    0  0.00000000000E+00 -0.00000000000E+00 -0.27847129458E+04  0.27847129459E+04  0.25500000000E-02 0. -1.
    8880022    1    1    2    0    0  0.76426375689E+03 -0.83756672879E+02 -0.22890048452E+04  0.24195142291E+04  0.15294330000E+03 0.  0.
    8880022    1    1    2    0    0 -0.76426375689E+03  0.83756672879E+02 -0.73558846512E+02  0.78734797089E+03  0.15294330000E+03 0.  0.
<mgrwt>
<rscale>  0 0.78390428E+03</rscale>
<asrwt>0</asrwt>
<pdfrwt beam="1">  1        2 0.42841736E+00 0.78390428E+03</pdfrwt>
<pdfrwt beam="2">  1       -2 0.64946041E-01 0.78390428E+03</pdfrwt>
<totfact> 0.54357061E+00</totfact>
</mgrwt>
</event>
<event>
 4    1  0.4840632E-008  0.5009831E+03  0.7818608E-02  0.1013523E+00
          2   -1    0    0  501    0  0.00000000000E+00  0.00000000000E+00  0.91810472087E+03  0.91810472087E+03  0.25500000000E-02 0. -1.
         -2   -1    0    0    0  501 -0.00000000000E+00 -0.00000000000E+00 -0.34534885309E+03  0.34534885310E+03  0.25500000000E-02 0.  1.
    8880022    1    1    2    0    0 -0.34999845856E+03 -0.32418130867E+03 -0.20230952700E+01  0.50098721322E+03  0.15294330000E+03 0.  0.
    8880022    1    1    2    0    0  0.34999845856E+03  0.32418130867E+03  0.57477896305E+03  0.76246636074E+03  0.15294330000E+03 0.  0.
<mgrwt>
<rscale>  0 0.50098313E+03</rscale>
<asrwt>0</asrwt>
<pdfrwt beam="1">  1        2 0.14124688E+00 0.50098313E+03</pdfrwt>
<pdfrwt beam="2">  1       -2 0.53130593E-01 0.50098313E+03</pdfrwt>
<totfact> 0.98558071E+01</totfact>
</mgrwt>
</event>
<event>
 4    1  0.4840632E-008  0.4645467E+03  0.7818608E-02  0.1023471E+00
         -2   -1    0    0    0  501 -0.00000000000E+00  0.00000000000E+00  0.21665120414E+03  0.21665120415E+03  0.25500000000E-02 0.  1.
          2   -1    0    0  501    0  0.00000000000E+00 -0.00000000000E+00 -0.13512289617E+04  0.13512289617E+04  0.25500000000E-02 0. -1.
    8880022    1    1    2    0    0  0.13365221144E+03  0.41779072912E+03 -0.96918960814E+03  0.10747707460E+04  0.15294330000E+03 0.  0.
    8880022    1    1    2    0    0 -0.13365221144E+03 -0.41779072912E+03 -0.16538814945E+03  0.49310941986E+03  0.15294330000E+03 0.  0.
<mgrwt>
<rscale>  0 0.46454673E+03</rscale>
<asrwt>0</asrwt>
<pdfrwt beam="1">  1        2 0.20788137E+00 0.46454673E+03</pdfrwt>
<pdfrwt beam="2">  1       -2 0.33330955E-01 0.46454673E+03</pdfrwt>
<totfact> 0.13556498E+02</totfact>
</mgrwt>
</event>
<event>
 4    1  0.4840632E-008  0.5958090E+03  0.7818608E-02  0.9914139E-01
          2   -1    0    0  501    0  0.00000000000E+00  0.00000000000E+00  0.10606915036E+04  0.10606915036E+04  0.25500000000E-02 0. -1.
         -2   -1    0    0    0  501 -0.00000000000E+00 -0.00000000000E+00 -0.90143398767E+03  0.90143398768E+03  0.25500000000E-02 0.  1.
    8880022    1    1    2    0    0 -0.29722211640E+03  0.49320958693E+03 -0.69827974694E+03  0.91792316733E+03  0.15294330000E+03 0.  0.
    8880022    1    1    2    0    0  0.29722211640E+03 -0.49320958693E+03  0.85753726286E+03  0.10442023239E+04  0.15294330000E+03 0.  0.
<mgrwt>
<rscale>  0 0.59580898E+03</rscale>
<asrwt>0</asrwt>
<pdfrwt beam="1">  1        2 0.16318331E+00 0.59580898E+03</pdfrwt>
<pdfrwt beam="2">  1       -2 0.13868215E+00 0.59580898E+03</pdfrwt>
<totfact> 0.88300032E+00</totfact>
</mgrwt>
</event>
<event>
 4    1  0.4840632E-008  0.3808040E+03  0.7818608E-02  0.1050637E+00
         -2   -1    0    0    0  501 -0.00000000000E+00  0.00000000000E+00  0.10970136648E+03  0.10970136651E+03  0.25500000000E-02 0.  1.
          2   -1    0    0  501    0  0.00000000000E+00 -0.00000000000E+00 -0.26768124766E+04  0.26768124766E+04  0.25500000000E-02 0. -1.
    8880022    1    1    2    0    0  0.14513704204E+03 -0.31710450762E+03 -0.29230923742E+03  0.48005871830E+03  0.15294330000E+03 0.  0.
    8880022    1    1    2    0    0 -0.14513704204E+03  0.31710450762E+03 -0.22748018727E+04  0.23064551248E+04  0.15294330000E+03 0.  0.
<mgrwt>
<rscale>  0 0.38080400E+03</rscale>
<asrwt>0</asrwt>
<pdfrwt beam="1">  1        2 0.41181726E+00 0.38080400E+03</pdfrwt>
<pdfrwt beam="2">  1       -2 0.16877135E-01 0.38080400E+03</pdfrwt>
<totfact> 0.87480278E+01</totfact>
</mgrwt>
</event>
<event>
 4    1  0.4840632E-008  0.1626553E+03  0.7818608E-02  0.1185731E+00
          2   -1    0    0  501    0  0.00000000000E+00  0.00000000000E+00  0.77021525113E+03  0.77021525114E+03  0.25500000000E-02 0. -1.
         -2   -1    0    0    0  501 -0.00000000000E+00 -0.00000000000E+00 -0.10664899219E+03  0.10664899222E+03  0.25500000000E-02 0.  1.
    8880022    1    1    2    0    0 -0.43596689074E+02 -0.34123467451E+02  0.69276943544E+03  0.71160819699E+03  0.15294330000E+03 0. -1.
    8880022    1    1    2    0    0  0.43596689074E+02  0.34123467451E+02 -0.29203176495E+02  0.16525604637E+03  0.15294330000E+03 0.  0.
<mgrwt>
<rscale>  0 0.16265527E+03</rscale>
<asrwt>0</asrwt>
<pdfrwt beam="1">  1        2 0.11849466E+00 0.16265527E+03</pdfrwt>
<pdfrwt beam="2">  1       -2 0.16407536E-01 0.16265527E+03</pdfrwt>
<totfact> 0.10976621E+03</totfact>
</mgrwt>
</event>
<event>
 4    1  0.4840632E-008  0.4062394E+03  0.7818608E-02  0.1041640E+00
         -2   -1    0    0    0  501 -0.00000000000E+00  0.00000000000E+00  0.16416749861E+03  0.16416749863E+03  0.25500000000E-02 0.  1.
          2   -1    0    0  501    0  0.00000000000E+00 -0.00000000000E+00 -0.17589179250E+04  0.17589179250E+04  0.25500000000E-02 0. -1.
    8880022    1    1    2    0    0 -0.22913677204E+03 -0.29855508619E+03 -0.16796480107E+03  0.43959370696E+03  0.15294330000E+03 0.  0.
    8880022    1    1    2    0    0  0.22913677204E+03  0.29855508619E+03 -0.14267856253E+04  0.14834917166E+04  0.15294330000E+03 0.  0.
<mgrwt>
<rscale>  0 0.40623940E+03</rscale>
<asrwt>0</asrwt>
<pdfrwt beam="1">  1        2 0.27060274E+00 0.40623940E+03</pdfrwt>
<pdfrwt beam="2">  1       -2 0.25256540E-01 0.40623940E+03</pdfrwt>
<totfact> 0.13625859E+02</totfact>
</mgrwt>
</event>
<event>
 4    1  0.4840632E-008  0.5561324E+03  0.7818608E-02  0.1000084E+00
          2   -1    0    0  501    0  0.00000000000E+00  0.00000000000E+00  0.10578966575E+04  0.10578966575E+04  0.25500000000E-02 0. -1.
         -2   -1    0    0    0  501 -0.00000000000E+00 -0.00000000000E+00 -0.52188113764E+03  0.52188113764E+03  0.25500000000E-02 0.  1.
    8880022    1    1    2    0    0  0.49618493658E+03  0.19922887516E+03  0.79184283422E+03  0.96762511496E+03  0.15294330000E+03 0.  0.
    8880022    1    1    2    0    0 -0.49618493658E+03 -0.19922887516E+03 -0.25582731440E+03  0.61215268014E+03  0.15294330000E+03 0.  0.
<mgrwt>
<rscale>  0 0.55613244E+03</rscale>
<asrwt>0</asrwt>
<pdfrwt beam="1">  1        2 0.16275333E+00 0.55613244E+03</pdfrwt>
<pdfrwt beam="2">  1       -2 0.80289407E-01 0.55613244E+03</pdfrwt>
<totfact> 0.32975461E+01</totfact>
</mgrwt>
</event>
<event>
 4    1  0.4840632E-008  0.1059555E+04  0.7818608E-02  0.9245534E-01
         -2   -1    0    0    0  501 -0.00000000000E+00  0.00000000000E+00  0.13360360147E+04  0.13360360147E+04  0.25500000000E-02 0.  1.
          2   -1    0    0  501    0  0.00000000000E+00 -0.00000000000E+00 -0.17183914636E+04  0.17183914636E+04  0.25500000000E-02 0. -1.
    8880022    1    1    2    0    0 -0.95902962807E+03 -0.42370644149E+03  0.90054240580E+03  0.13905514207E+04  0.15294330000E+03 0.  0.
    8880022    1    1    2    0    0  0.95902962807E+03  0.42370644149E+03 -0.12828978547E+04  0.16638760575E+04  0.15294330000E+03 0.  0.
<mgrwt>
<rscale>  0 0.10595549E+04</rscale>
<asrwt>0</asrwt>
<pdfrwt beam="1">  1        2 0.26436792E+00 0.10595549E+04</pdfrwt>
<pdfrwt beam="2">  1       -2 0.20554400E+00 0.10595549E+04</pdfrwt>
<totfact> 0.11573880E+00</totfact>
</mgrwt>
</event>
<event>
 4    1  0.4840632E-008  0.7286542E+03  0.7818608E-02  0.9669447E-01
          2   -1    0    0  501    0  0.00000000000E+00  0.00000000000E+00  0.13006082160E+04  0.13006082160E+04  0.25500000000E-02 0. -1.
         -2   -1    0    0    0  501 -0.00000000000E+00 -0.00000000000E+00 -0.52974729572E+03  0.52974729572E+03  0.25500000000E-02 0.  1.
    8880022    1    1    2    0    0  0.37888662950E+03  0.60331606135E+03 -0.52902641441E+02  0.73057216645E+03  0.15294330000E+03 0.  0.
    8880022    1    1    2    0    0 -0.37888662950E+03 -0.60331606135E+03  0.82376356172E+03  0.10997833453E+04  0.15294330000E+03 0.  0.
<mgrwt>
<rscale>  0 0.72865424E+03</rscale>
<asrwt>0</asrwt>
<pdfrwt beam="1">  1        2 0.20009357E+00 0.72865424E+03</pdfrwt>
<pdfrwt beam="2">  1       -2 0.81499585E-01 0.72865424E+03</pdfrwt>
<totfact> 0.22399374E+01</totfact>
</mgrwt>
</event>
<event>
 4    1  0.4840632E-008  0.2631542E+03  0.7818608E-02  0.1105263E+00
          2   -1    0    0  501    0  0.00000000000E+00  0.00000000000E+00  0.87816651382E+03  0.87816651382E+03  0.25500000000E-02 0. -1.
         -2   -1    0    0    0  501 -0.00000000000E+00 -0.00000000000E+00 -0.95314415022E+02  0.95314415056E+02  0.25500000000E-02 0.  1.
    8880022    1    1    2    0    0 -0.49303215319E+02 -0.20839307975E+03  0.18917509904E+03  0.32409466802E+03  0.15294330000E+03 0. -1.
    8880022    1    1    2    0    0  0.49303215319E+02  0.20839307975E+03  0.59367699976E+03  0.64938626086E+03  0.15294330000E+03 0.  0.
<mgrwt>
<rscale>  0 0.26315421E+03</rscale>
<asrwt>0</asrwt>
<pdfrwt beam="1">  1        2 0.13510254E+00 0.26315421E+03</pdfrwt>
<pdfrwt beam="2">  1       -2 0.14663756E-01 0.26315421E+03</pdfrwt>
<totfact> 0.11178584E+03</totfact>
</mgrwt>
</event>
<event>
 4    1  0.4840632E-008  0.3567868E+03  0.7818608E-02  0.1059863E+00
         -2   -1    0    0    0  501 -0.00000000000E+00  0.00000000000E+00  0.20856573281E+03  0.20856573282E+03  0.25500000000E-02 0.  1.
          2   -1    0    0  501    0  0.00000000000E+00 -0.00000000000E+00 -0.29604099922E+04  0.29604099922E+04  0.25500000000E-02 0. -1.
    8880022    1    1    2    0    0  0.50415859028E+02 -0.31837620060E+03  0.35812365953E+02  0.35857961810E+03  0.15294330000E+03 0.  0.
    8880022    1    1    2    0    0 -0.50415859028E+02  0.31837620060E+03 -0.27876566254E+04  0.28103961069E+04  0.15294330000E+03 0.  0.
<mgrwt>
<rscale>  0 0.35678679E+03</rscale>
<asrwt>0</asrwt>
<pdfrwt beam="1">  1        2 0.45544766E+00 0.35678679E+03</pdfrwt>
<pdfrwt beam="2">  1       -2 0.32087038E-01 0.35678679E+03</pdfrwt>
<totfact> 0.19388948E+01</totfact>
</mgrwt>
</event>
<event>
 4    1  0.4840632E-008  0.5374249E+03  0.7818608E-02  0.1004447E+00
         -2   -1    0    0    0  501 -0.00000000000E+00  0.00000000000E+00  0.53434912009E+03  0.53434912010E+03  0.25500000000E-02 0.  1.
          2   -1    0    0  501    0  0.00000000000E+00 -0.00000000000E+00 -0.15709288000E+04  0.15709288000E+04  0.25500000000E-02 0. -1.
    8880022    1    1    2    0    0  0.44050432988E+03  0.26718872372E+03 -0.13708132349E+04  0.14723975199E+04  0.15294330000E+03 0.  0.
    8880022    1    1    2    0    0 -0.44050432988E+03 -0.26718872372E+03  0.33423355494E+03  0.63288040022E+03  0.15294330000E+03 0.  0.
<mgrwt>
<rscale>  0 0.53742491E+03</rscale>
<asrwt>0</asrwt>
<pdfrwt beam="1">  1        2 0.24168135E+00 0.53742491E+03</pdfrwt>
<pdfrwt beam="2">  1       -2 0.82207558E-01 0.53742491E+03</pdfrwt>
<totfact> 0.15947419E+01</totfact>
</mgrwt>
</event>
<event>
 4    1  0.4840632E-008  0.1895822E+03  0.7818608E-02  0.1158839E+00
         -2   -1    0    0    0  501 -0.00000000000E+00  0.00000000000E+00  0.79510596289E+03  0.79510596290E+03  0.25500000000E-02 0.  1.
          2   -1    0    0  501    0  0.00000000000E+00 -0.00000000000E+00 -0.14489995611E+03  0.14489995614E+03  0.25500000000E-02 0. -1.
    8880022    1    1    2    0    0  0.48009160925E+02 -0.10121700900E+03  0.71496127761E+03  0.73966955050E+03  0.15294330000E+03 0.  0.
    8880022    1    1    2    0    0 -0.48009160925E+02  0.10121700900E+03 -0.64755270827E+02  0.20033636853E+03  0.15294330000E+03 0.  0.
<mgrwt>
<rscale>  0 0.18958221E+03</rscale>
<asrwt>0</asrwt>
<pdfrwt beam="1">  1        2 0.22292300E-01 0.18958221E+03</pdfrwt>
<pdfrwt beam="2">  1       -2 0.12232400E+00 0.18958221E+03</pdfrwt>
<totfact> 0.13114240E+02</totfact>
</mgrwt>
</event>
<event>
 4    1  0.4840632E-008  0.3901596E+03  0.7818608E-02  0.1047241E+00
         -2   -1    0    0    0  501 -0.00000000000E+00  0.00000000000E+00  0.28913108655E+03  0.28913108656E+03  0.25500000000E-02 0.  1.
          2   -1    0    0  501    0  0.00000000000E+00 -0.00000000000E+00 -0.70243311802E+03  0.70243311803E+03  0.25500000000E-02 0. -1.
    8880022    1    1    2    0    0 -0.91155475464E+02  0.34716497219E+03  0.41476581287E+02  0.39235799779E+03  0.15294330000E+03 0.  0.
    8880022    1    1    2    0    0  0.91155475464E+02 -0.34716497219E+03 -0.45477861276E+03  0.59920620680E+03  0.15294330000E+03 0.  0.
<mgrwt>
<rscale>  0 0.39015957E+03</rscale>
<asrwt>0</asrwt>
<pdfrwt beam="1">  1        2 0.10806663E+00 0.39015957E+03</pdfrwt>
<pdfrwt beam="2">  1       -2 0.44481706E-01 0.39015957E+03</pdfrwt>
<totfact> 0.20196048E+02</totfact>
</mgrwt>
</event>
<event>
 4    1  0.4840632E-008  0.2215247E+03  0.7818608E-02  0.1132751E+00
         -2   -1    0    0    0  501 -0.00000000000E+00  0.00000000000E+00  0.10615308794E+03  0.10615308797E+03  0.25500000000E-02 0.  1.
          2   -1    0    0  501    0  0.00000000000E+00 -0.00000000000E+00 -0.20824452863E+04  0.20824452863E+04  0.25500000000E-02 0. -1.
    8880022    1    1    2    0    0 -0.15011321595E+03  0.56103065616E+02 -0.19533698726E+04  0.19658909033E+04  0.15294330000E+03 0.  0.
    8880022    1    1    2    0    0  0.15011321595E+03 -0.56103065616E+02 -0.22922325746E+02  0.22270747093E+03  0.15294330000E+03 0.  0.
<mgrwt>
<rscale>  0 0.22152468E+03</rscale>
<asrwt>0</asrwt>
<pdfrwt beam="1">  1        2 0.32037617E+00 0.22152468E+03</pdfrwt>
<pdfrwt beam="2">  1       -2 0.16331246E-01 0.22152468E+03</pdfrwt>
<totfact> 0.20338629E+02</totfact>
</mgrwt>
</event>
<event>
 4    1  0.4840632E-008  0.6254643E+03  0.7818608E-02  0.9853940E-01
         -2   -1    0    0    0  501 -0.00000000000E+00  0.00000000000E+00  0.90769284906E+03  0.90769284906E+03  0.25500000000E-02 0.  1.
          2   -1    0    0  501    0  0.00000000000E+00 -0.00000000000E+00 -0.14696671526E+04  0.14696671526E+04  0.25500000000E-02 0. -1.
    8880022    1    1    2    0    0  0.55388320612E+03  0.24703720892E+03 -0.12802873154E+04  0.14249004357E+04  0.15294330000E+03 0.  0.
    8880022    1    1    2    0    0 -0.55388320612E+03 -0.24703720892E+03  0.71831301192E+03  0.95245956592E+03  0.15294330000E+03 0.  0.
<mgrwt>
<rscale>  0 0.62546434E+03</rscale>
<asrwt>0</asrwt>
<pdfrwt beam="1">  1        2 0.22610264E+00 0.62546434E+03</pdfrwt>
<pdfrwt beam="2">  1       -2 0.13964505E+00 0.62546434E+03</pdfrwt>
<totfact> 0.49971271E+00</totfact>
</mgrwt>
</event>
<event>
 4    1  0.4840632E-008  0.4749406E+03  0.7818608E-02  0.1020535E+00
          2   -1    0    0  501    0  0.00000000000E+00  0.00000000000E+00  0.13678507260E+04  0.13678507260E+04  0.25500000000E-02 0. -1.
         -2   -1    0    0    0  501 -0.00000000000E+00 -0.00000000000E+00 -0.23981643261E+03  0.23981643263E+03  0.25500000000E-02 0.  1.
    8880022    1    1    2    0    0 -0.31783718711E+03  0.31805095687E+03  0.10132733883E+04  0.11190583100E+04  0.15294330000E+03 0.  0.
    8880022    1    1    2    0    0  0.31783718711E+03 -0.31805095687E+03  0.11476090515E+03  0.48860884871E+03  0.15294330000E+03 0.  0.
<mgrwt>
<rscale>  0 0.47494057E+03</rscale>
<asrwt>0</asrwt>
<pdfrwt beam="1">  1        2 0.21043857E+00 0.47494057E+03</pdfrwt>
<pdfrwt beam="2">  1       -2 0.36894836E-01 0.47494057E+03</pdfrwt>
<totfact> 0.10935484E+02</totfact>
</mgrwt>
</event>
<event>
 4    1  0.4840632E-008  0.2588688E+03  0.7818608E-02  0.1107825E+00
          2   -1    0    0  501    0  0.00000000000E+00  0.00000000000E+00  0.10729059416E+04  0.10729059416E+04  0.25500000000E-02 0. -1.
         -2   -1    0    0    0  501 -0.00000000000E+00 -0.00000000000E+00 -0.96690007119E+02  0.96690007153E+02  0.25500000000E-02 0.  1.
    8880022    1    1    2    0    0 -0.16066645078E+03 -0.13344548256E+03  0.14015352685E+03  0.29437402964E+03  0.15294330000E+03 0.  0.
    8880022    1    1    2    0    0  0.16066645078E+03  0.13344548256E+03  0.83606240759E+03  0.87522191908E+03  0.15294330000E+03 0.  0.
<mgrwt>
<rscale>  0 0.25886881E+03</rscale>
<asrwt>0</asrwt>
<pdfrwt beam="1">  1        2 0.16506244E+00 0.25886881E+03</pdfrwt>
<pdfrwt beam="2">  1       -2 0.14875387E-01 0.25886881E+03</pdfrwt>
<totfact> 0.82578646E+02</totfact>
</mgrwt>
</event>
<event>
 4    1  0.4840632E-008  0.2095366E+03  0.7818608E-02  0.1141933E+00
         -2   -1    0    0    0  501 -0.00000000000E+00  0.00000000000E+00  0.49685812707E+03  0.49685812708E+03  0.25500000000E-02 0.  1.
          2   -1    0    0  501    0  0.00000000000E+00 -0.00000000000E+00 -0.20585183813E+03  0.20585183815E+03  0.25500000000E-02 0. -1.
    8880022    1    1    2    0    0 -0.14129786290E+03 -0.23427267846E+02 -0.11993340186E+03  0.24143238564E+03  0.15294330000E+03 0.  0.
    8880022    1    1    2    0    0  0.14129786290E+03  0.23427267846E+02  0.41093969080E+03  0.46127757959E+03  0.15294330000E+03 0.  0.
<mgrwt>
<rscale>  0 0.20953657E+03</rscale>
<asrwt>0</asrwt>
<pdfrwt beam="1">  1        2 0.31669514E-01 0.20953657E+03</pdfrwt>
<pdfrwt beam="2">  1       -2 0.76439710E-01 0.20953657E+03</pdfrwt>
<totfact> 0.26191654E+02</totfact>
</mgrwt>
</event>
<event>
 4    1  0.4840632E-008  0.1856838E+03  0.7818608E-02  0.1162413E+00
         -2   -1    0    0    0  501 -0.00000000000E+00  0.00000000000E+00  0.36637735496E+03  0.36637735497E+03  0.25500000000E-02 0.  1.
          2   -1    0    0  501    0  0.00000000000E+00 -0.00000000000E+00 -0.10980191544E+04  0.10980191544E+04  0.25500000000E-02 0. -1.
    8880022    1    1    2    0    0  0.10045654725E+03  0.31548633070E+02 -0.10659396317E+04  0.10819915829E+04  0.15294330000E+03 0.  0.
    8880022    1    1    2    0    0 -0.10045654725E+03 -0.31548633070E+02  0.33429783222E+03  0.38240492645E+03  0.15294330000E+03 0.  0.
<mgrwt>
<rscale>  0 0.18568384E+03</rscale>
<asrwt>0</asrwt>
<pdfrwt beam="1">  1        2 0.16892602E+00 0.18568384E+03</pdfrwt>
<pdfrwt beam="2">  1       -2 0.56365747E-01 0.18568384E+03</pdfrwt>
<totfact> 0.71616704E+01</totfact>
</mgrwt>
</event>
<event>
 4    1  0.4840632E-008  0.5103226E+03  0.7818608E-02  0.1011119E+00
         -2   -1    0    0    0  501 -0.00000000000E+00  0.00000000000E+00  0.13796616597E+03  0.13796616600E+03  0.25500000000E-02 0.  1.
          2   -1    0    0  501    0  0.00000000000E+00 -0.00000000000E+00 -0.27085276189E+04  0.27085276189E+04  0.25500000000E-02 0. -1.
    8880022    1    1    2    0    0  0.41785715581E+03 -0.24986580266E+03 -0.20688148482E+04  0.21308270815E+04  0.15294330000E+03 0.  0.
    8880022    1    1    2    0    0 -0.41785715581E+03  0.24986580266E+03 -0.50174660469E+03  0.71566670338E+03  0.15294330000E+03 0.  1.
<mgrwt>
<rscale>  0 0.51032262E+03</rscale>
<asrwt>0</asrwt>
<pdfrwt beam="1">  1        2 0.41669652E+00 0.51032262E+03</pdfrwt>
<pdfrwt beam="2">  1       -2 0.21225566E-01 0.51032262E+03</pdfrwt>
<totfact> 0.54904707E+01</totfact>
</mgrwt>
</event>
<event>
 4    1  0.4840632E-008  0.1556255E+03  0.7818608E-02  0.1193726E+00
          2   -1    0    0  501    0  0.00000000000E+00  0.00000000000E+00  0.99946639114E+03  0.99946639115E+03  0.25500000000E-02 0. -1.
         -2   -1    0    0    0  501 -0.00000000000E+00 -0.00000000000E+00 -0.40648023715E+03  0.40648023715E+03  0.25500000000E-02 0.  1.
    8880022    1    1    2    0    0  0.28092375674E+02 -0.62010939838E+01  0.97819064189E+03  0.99049291771E+03  0.15294330000E+03 0.  0.
    8880022    1    1    2    0    0 -0.28092375674E+02  0.62010939838E+01 -0.38520448789E+03  0.41545371059E+03  0.15294330000E+03 0.  1.
<mgrwt>
<rscale>  0 0.15562547E+03</rscale>
<asrwt>0</asrwt>
<pdfrwt beam="1">  1        2 0.15376406E+00 0.15562547E+03</pdfrwt>
<pdfrwt beam="2">  1       -2 0.62535421E-01 0.15562547E+03</pdfrwt>
<totfact> 0.66842503E+01</totfact>
</mgrwt>
</event>
<event>
 4    1  0.4840632E-008  0.4417910E+03  0.7818608E-02  0.1030199E+00
          2   -1    0    0  501    0  0.00000000000E+00  0.00000000000E+00  0.23505717048E+04  0.23505717048E+04  0.25500000000E-02 0. -1.
         -2   -1    0    0    0  501 -0.00000000000E+00 -0.00000000000E+00 -0.22553322353E+03  0.22553322355E+03  0.25500000000E-02 0.  1.
    8880022    1    1    2    0    0 -0.41193468423E+03  0.45798384846E+02  0.20863620125E+04  0.21326241527E+04  0.15294330000E+03 0. -1.
    8880022    1    1    2    0    0  0.41193468423E+03 -0.45798384846E+02  0.38676468690E+02  0.44348077565E+03  0.15294330000E+03 0.  0.
<mgrwt>
<rscale>  0 0.44179105E+03</rscale>
<asrwt>0</asrwt>
<pdfrwt beam="1">  1        2 0.36162645E+00 0.44179105E+03</pdfrwt>
<pdfrwt beam="2">  1       -2 0.34697416E-01 0.44179105E+03</pdfrwt>
<totfact> 0.36288501E+01</totfact>
</mgrwt>
</event>
<event>
 4    1  0.4840632E-008  0.6433044E+03  0.7818608E-02  0.9819425E-01
         -2   -1    0    0    0  501 -0.00000000000E+00  0.00000000000E+00  0.18258251008E+04  0.18258251008E+04  0.25500000000E-02 0.  1.
          2   -1    0    0  501    0  0.00000000000E+00 -0.00000000000E+00 -0.50756827569E+03  0.50756827569E+03  0.25500000000E-02 0. -1.
    8880022    1    1    2    0    0  0.41933429039E+03 -0.46325764907E+03  0.15270758133E+04  0.16570458923E+04  0.15294330000E+03 0.  0.
    8880022    1    1    2    0    0 -0.41933429039E+03  0.46325764907E+03 -0.20881898822E+03  0.67634748419E+03  0.15294330000E+03 0.  0.
<mgrwt>
<rscale>  0 0.64330440E+03</rscale>
<asrwt>0</asrwt>
<pdfrwt beam="1">  1        2 0.78087427E-01 0.64330440E+03</pdfrwt>
<pdfrwt beam="2">  1       -2 0.28089617E+00 0.64330440E+03</pdfrwt>
<totfact> 0.26539068E+00</totfact>
</mgrwt>
</event>
<event>
 4    1  0.4840632E-008  0.6385402E+03  0.7818608E-02  0.9828523E-01
          2   -1    0    0  501    0  0.00000000000E+00  0.00000000000E+00  0.51566450510E+03  0.51566450510E+03  0.25500000000E-02 0. -1.
         -2   -1    0    0    0  501 -0.00000000000E+00 -0.00000000000E+00 -0.90525003838E+03  0.90525003838E+03  0.25500000000E-02 0.  1.
    8880022    1    1    2    0    0  0.13945929888E+03 -0.60406379457E+03 -0.44752450746E+03  0.77975111526E+03  0.15294330000E+03 0.  0.
    8880022    1    1    2    0    0 -0.13945929888E+03  0.60406379457E+03  0.57938974173E+02  0.64116342823E+03  0.15294330000E+03 0.  0.
<mgrwt>
<rscale>  0 0.63854022E+03</rscale>
<asrwt>0</asrwt>
<pdfrwt beam="1">  1        2 0.79333001E-01 0.63854022E+03</pdfrwt>
<pdfrwt beam="2">  1       -2 0.13926924E+00 0.63854022E+03</pdfrwt>
<totfact> 0.22135547E+01</totfact>
</mgrwt>
</event>
<event>
 4    1  0.4840632E-008  0.9749442E+03  0.7818608E-02  0.9336461E-01
          2   -1    0    0  501    0  0.00000000000E+00  0.00000000000E+00  0.37527379754E+04  0.37527379754E+04  0.25500000000E-02 0. -1.
         -2   -1    0    0    0  501 -0.00000000000E+00 -0.00000000000E+00 -0.72049416975E+03  0.72049416975E+03  0.25500000000E-02 0.  1.
    8880022    1    1    2    0    0 -0.51076076683E+03  0.81624010123E+03 -0.28495146582E+03  0.10157329643E+04  0.15294330000E+03 0.  0.
    8880022    1    1    2    0    0  0.51076076683E+03 -0.81624010123E+03  0.33171952715E+04  0.34574991809E+04  0.15294330000E+03 0.  0.
<mgrwt>
<rscale>  0 0.97494416E+03</rscale>
<asrwt>0</asrwt>
<pdfrwt beam="1">  1        2 0.57734430E+00 0.97494416E+03</pdfrwt>
<pdfrwt beam="2">  1       -2 0.11084526E+00 0.97494416E+03</pdfrwt>
<totfact> 0.35978841E-01</totfact>
</mgrwt>
</event>
<event>
 4    1  0.4840632E-008  0.5032593E+03  0.7818608E-02  0.1012932E+00
         -2   -1    0    0    0  501 -0.00000000000E+00  0.00000000000E+00  0.54404994123E+03  0.54404994123E+03  0.25500000000E-02 0.  1.
          2   -1    0    0  501    0  0.00000000000E+00 -0.00000000000E+00 -0.10578187045E+04  0.10578187045E+04  0.25500000000E-02 0. -1.
    8880022    1    1    2    0    0  0.49223622695E+01  0.47943090715E+03  0.34243614062E+03  0.60871371580E+03  0.15294330000E+03 0.  0.
    8880022    1    1    2    0    0 -0.49223622695E+01 -0.47943090715E+03 -0.85620490388E+03  0.99315492992E+03  0.15294330000E+03 0.  0.
<mgrwt>
<rscale>  0 0.50325925E+03</rscale>
<asrwt>0</asrwt>
<pdfrwt beam="1">  1        2 0.16274134E+00 0.50325925E+03</pdfrwt>
<pdfrwt beam="2">  1       -2 0.83699991E-01 0.50325925E+03</pdfrwt>
<totfact> 0.30256125E+01</totfact>
</mgrwt>
</event>
<event>
 4    1  0.4840632E-008  0.4277799E+03  0.7818608E-02  0.1034564E+00
         -2   -1    0    0    0  501 -0.00000000000E+00  0.00000000000E+00  0.21936160780E+03  0.21936160782E+03  0.25500000000E-02 0.  1.
          2   -1    0    0  501    0  0.00000000000E+00 -0.00000000000E+00 -0.10490312271E+04  0.10490312271E+04  0.25500000000E-02 0. -1.
    8880022    1    1    2    0    0  0.35012303192E+03  0.19240022158E+03 -0.70181968392E+03  0.82191636101E+03  0.15294330000E+03 0.  0.
    8880022    1    1    2    0    0 -0.35012303192E+03 -0.19240022158E+03 -0.12784993535E+03  0.44647647388E+03  0.15294330000E+03 0.  1.
<mgrwt>
<rscale>  0 0.42777989E+03</rscale>
<asrwt>0</asrwt>
<pdfrwt beam="1">  1        2 0.16138942E+00 0.42777989E+03</pdfrwt>
<pdfrwt beam="2">  1       -2 0.33747940E-01 0.42777989E+03</pdfrwt>
<totfact> 0.19953241E+02</totfact>
</mgrwt>
</event>
<event>
 4    1  0.5505238E-008  0.7447511E+03  0.7818608E-02  0.9643621E-01
          2   -1    0    0  501    0  0.00000000000E+00  0.00000000000E+00  0.12401179863E+04  0.12401179863E+04  0.25500000000E-02 0. -1.
         -2   -1    0    0    0  501 -0.00000000000E+00 -0.00000000000E+00 -0.18407161025E+04  0.18407161025E+04  0.25500000000E-02 0.  1.
    8880022    1    1    2    0    0  0.59916320548E+03  0.41504944140E+03 -0.16405671324E+04  0.18016977422E+04  0.15294330000E+03 0.  0.
    8880022    1    1    2    0    0 -0.59916320548E+03 -0.41504944140E+03  0.10399690161E+04  0.12791363466E+04  0.15294330000E+03 0.  0.
<mgrwt>
<rscale>  0 0.74475113E+03</rscale>
<asrwt>0</asrwt>
<pdfrwt beam="1">  1        2 0.19078738E+00 0.74475113E+03</pdfrwt>
<pdfrwt beam="2">  1       -2 0.28318709E+00 0.74475113E+03</pdfrwt>
<totfact> 0.75568637E-01</totfact>
</mgrwt>
</event>
<event>
 4    1  0.4840632E-008  0.7190509E+03  0.7818608E-02  0.9685196E-01
          2   -1    0    0  501    0  0.00000000000E+00  0.00000000000E+00  0.19514956279E+04  0.19514956279E+04  0.25500000000E-02 0. -1.
         -2   -1    0    0    0  501 -0.00000000000E+00 -0.00000000000E+00 -0.90810406908E+03  0.90810406909E+03  0.25500000000E-02 0.  1.
    8880022    1    1    2    0    0  0.61437566356E+03  0.34085929569E+03  0.17249779240E+04  0.18688453673E+04  0.15294330000E+03 0.  0.
    8880022    1    1    2    0    0 -0.61437566356E+03 -0.34085929569E+03 -0.68158636525E+03  0.99075432966E+03  0.15294330000E+03 0.  0.
<mgrwt>
<rscale>  0 0.71905088E+03</rscale>
<asrwt>0</asrwt>
<pdfrwt beam="1">  1        2 0.30023009E+00 0.71905088E+03</pdfrwt>
<pdfrwt beam="2">  1       -2 0.13970832E+00 0.71905088E+03</pdfrwt>
<totfact> 0.26747608E+00</totfact>
</mgrwt>
</event>
<event>
 4    1  0.4840632E-008  0.4468420E+03  0.7818608E-02  0.1028668E+00
         -2   -1    0    0    0  501 -0.00000000000E+00  0.00000000000E+00  0.50859599788E+03  0.50859599788E+03  0.25500000000E-02 0.  1.
          2   -1    0    0  501    0  0.00000000000E+00 -0.00000000000E+00 -0.90032643998E+03  0.90032643998E+03  0.25500000000E-02 0. -1.
    8880022    1    1    2    0    0  0.35673806971E+03  0.22139125382E+03  0.33316180908E+03  0.55737292874E+03  0.15294330000E+03 0.  0.
    8880022    1    1    2    0    0 -0.35673806971E+03 -0.22139125382E+03 -0.72489225118E+03  0.85154950912E+03  0.15294330000E+03 0.  0.
<mgrwt>
<rscale>  0 0.44684202E+03</rscale>
<asrwt>0</asrwt>
<pdfrwt beam="1">  1        2 0.13851176E+00 0.44684202E+03</pdfrwt>
<pdfrwt beam="2">  1       -2 0.78245538E-01 0.44684202E+03</pdfrwt>
<totfact> 0.44667527E+01</totfact>
</mgrwt>
</event>
<event>
 4    1  0.4840632E-008  0.4971162E+03  0.7818608E-02  0.1014534E+00
         -2   -1    0    0    0  501 -0.00000000000E+00  0.00000000000E+00  0.97642541327E+03  0.97642541327E+03  0.25500000000E-02 0.  1.
          2   -1    0    0  501    0  0.00000000000E+00 -0.00000000000E+00 -0.56593043094E+03  0.56593043095E+03  0.25500000000E-02 0. -1.
    8880022    1    1    2    0    0 -0.44402695226E+03 -0.16301206759E+03  0.77861592710E+03  0.92377880657E+03  0.15294330000E+03 0.  0.
    8880022    1    1    2    0    0  0.44402695226E+03  0.16301206759E+03 -0.36812094477E+03  0.61857703765E+03  0.15294330000E+03 0. -1.
<mgrwt>
<rscale>  0 0.49711621E+03</rscale>
<asrwt>0</asrwt>
<pdfrwt beam="1">  1        2 0.87066221E-01 0.49711621E+03</pdfrwt>
<pdfrwt beam="2">  1       -2 0.15021929E+00 0.49711621E+03</pdfrwt>
<totfact> 0.16581064E+01</totfact>
</mgrwt>
</event>
<event>
 4    1  0.4840632E-008  0.1102364E+04  0.7818608E-02  0.9202891E-01
          2   -1    0    0  501    0  0.00000000000E+00  0.00000000000E+00  0.91214374379E+03  0.91214374379E+03  0.25500000000E-02 0. -1.
         -2   -1    0    0    0  501 -0.00000000000E+00 -0.00000000000E+00 -0.15731931120E+04  0.15731931120E+04  0.25500000000E-02 0.  1.
    8880022    1    1    2    0    0 -0.47686618386E+03  0.98204582122E+03  0.15579073917E+03  0.11133183551E+04  0.15294330000E+03 0.  0.
    8880022    1    1    2    0    0  0.47686618386E+03 -0.98204582122E+03 -0.81684010735E+03  0.13720185007E+04  0.15294330000E+03 0.  0.
<mgrwt>
<rscale>  0 0.11023643E+04</rscale>
<asrwt>0</asrwt>
<pdfrwt beam="1">  1        2 0.14032981E+00 0.11023643E+04</pdfrwt>
<pdfrwt beam="2">  1       -2 0.24202971E+00 0.11023643E+04</pdfrwt>
<totfact> 0.20386866E+00</totfact>
</mgrwt>
</event>
<event>
 4    1  0.4840632E-008  0.2359165E+03  0.7818608E-02  0.1122543E+00
          2   -1    0    0  501    0  0.00000000000E+00  0.00000000000E+00  0.34368893684E+04  0.34368893684E+04  0.25500000000E-02 0. -1.
         -2   -1    0    0    0  501 -0.00000000000E+00 -0.00000000000E+00 -0.21878464087E+03  0.21878464088E+03  0.25500000000E-02 0.  1.
    8880022    1    1    2    0    0 -0.17962430450E+03  0.23140379312E+00  0.33679430965E+04  0.33761956843E+04  0.15294330000E+03 0.  0.
    8880022    1    1    2    0    0  0.17962430450E+03 -0.23140379312E+00 -0.14983836897E+03  0.27947832500E+03  0.15294330000E+03 0.  0.
<mgrwt>
<rscale>  0 0.23591650E+03</rscale>
<asrwt>0</asrwt>
<pdfrwt beam="1">  1        2 0.52875218E+00 0.23591650E+03</pdfrwt>
<pdfrwt beam="2">  1       -2 0.33659178E-01 0.23591650E+03</pdfrwt>
<totfact> 0.95413907E+00</totfact>
</mgrwt>
</event>
<event>
 4    1  0.4840632E-008  0.2786236E+03  0.7818608E-02  0.1096443E+00
          2   -1    0    0  501    0  0.00000000000E+00  0.00000000000E+00  0.21465420577E+03  0.21465420578E+03  0.25500000000E-02 0. -1.
         -2   -1    0    0    0  501 -0.00000000000E+00 -0.00000000000E+00 -0.15499335464E+04  0.15499335464E+04  0.25500000000E-02 0.  1.
    8880022    1    1    2    0    0 -0.22387459800E+03  0.64184159425E+02 -0.14401700634E+04  0.14668745367E+04  0.15294330000E+03 0.  0.
    8880022    1    1    2    0    0  0.22387459800E+03 -0.64184159425E+02  0.10489072274E+03  0.29771321550E+03  0.15294330000E+03 0. -1.
<mgrwt>
<rscale>  0 0.27862357E+03</rscale>
<asrwt>0</asrwt>
<pdfrwt beam="1">  1        2 0.33023725E-01 0.27862357E+03</pdfrwt>
<pdfrwt beam="2">  1       -2 0.23845131E+00 0.27862357E+03</pdfrwt>
<totfact> 0.13292394E+01</totfact>
</mgrwt>
</event>
<event>
 4    1  0.4840632E-008  0.1362145E+04  0.7818608E-02  0.8981685E-01
          2   -1    0    0  501    0  0.00000000000E+00  0.00000000000E+00  0.11736889307E+04  0.11736889307E+04  0.25500000000E-02 0. -1.
         -2   -1    0    0    0  501 -0.00000000000E+00 -0.00000000000E+00 -0.17304458722E+04  0.17304458722E+04  0.25500000000E-02 0.  1.
    8880022    1    1    2    0    0 -0.53771942715E+03  0.12421376829E+04  0.14854557021E+03  0.13702210205E+04  0.15294330000E+03 0.  0.
    8880022    1    1    2    0    0  0.53771942715E+03 -0.12421376829E+04 -0.70530251176E+03  0.15339137824E+04  0.15294330000E+03 0.  0.
<mgrwt>
<rscale>  0 0.13621453E+04</rscale>
<asrwt>0</asrwt>
<pdfrwt beam="1">  1        2 0.18056753E+00 0.13621453E+04</pdfrwt>
<pdfrwt beam="2">  1       -2 0.26622244E+00 0.13621453E+04</pdfrwt>
<totfact> 0.96091137E-01</totfact>
</mgrwt>
</event>
<event>
 4    1  0.4840632E-008  0.2999107E+03  0.7818608E-02  0.1085285E+00
         -2   -1    0    0    0  501 -0.00000000000E+00  0.00000000000E+00  0.13513074327E+03  0.13513074330E+03  0.25500000000E-02 0.  1.
          2   -1    0    0  501    0  0.00000000000E+00 -0.00000000000E+00 -0.11713116521E+04  0.11713116521E+04  0.25500000000E-02 0. -1.
    8880022    1    1    2    0    0  0.24201125740E+03  0.89360739160E+02 -0.94729533135E+03  0.99363720151E+03  0.15294330000E+03 0.  0.
    8880022    1    1    2    0    0 -0.24201125740E+03 -0.89360739160E+02 -0.88885577446E+02  0.31280519386E+03  0.15294330000E+03 0.  0.
<mgrwt>
<rscale>  0 0.29991073E+03</rscale>
<asrwt>0</asrwt>
<pdfrwt beam="1">  1        2 0.18020179E+00 0.29991073E+03</pdfrwt>
<pdfrwt beam="2">  1       -2 0.20789346E-01 0.29991073E+03</pdfrwt>
<totfact> 0.40910789E+02</totfact>
</mgrwt>
</event>
<event>
 4    1  0.4840632E-008  0.3836757E+03  0.7818608E-02  0.1049584E+00
          2   -1    0    0  501    0  0.00000000000E+00  0.00000000000E+00  0.17975880197E+04  0.17975880197E+04  0.25500000000E-02 0. -1.
         -2   -1    0    0    0  501 -0.00000000000E+00 -0.00000000000E+00 -0.30997094075E+03  0.30997094076E+03  0.25500000000E-02 0.  1.
    8880022    1    1    2    0    0  0.22314928688E+03 -0.27206574357E+03  0.16477335390E+04  0.16918134772E+04  0.15294330000E+03 0.  0.
    8880022    1    1    2    0    0 -0.22314928688E+03  0.27206574357E+03 -0.16011646005E+03  0.41574548326E+03  0.15294330000E+03 0.  0.
<mgrwt>
<rscale>  0 0.38367568E+03</rscale>
<asrwt>0</asrwt>
<pdfrwt beam="1">  1        2 0.27655201E+00 0.38367568E+03</pdfrwt>
<pdfrwt beam="2">  1       -2 0.47687837E-01 0.38367568E+03</pdfrwt>
<totfact> 0.39394679E+01</totfact>
</mgrwt>
</event>
<event>
 4    1  0.4840632E-008  0.7213451E+03  0.7818608E-02  0.9681410E-01
         -2   -1    0    0    0  501 -0.00000000000E+00  0.00000000000E+00  0.83407597351E+03  0.83407597352E+03  0.25500000000E-02 0.  1.
          2   -1    0    0  501    0  0.00000000000E+00 -0.00000000000E+00 -0.12844299502E+04  0.12844299502E+04  0.25500000000E-02 0. -1.
    8880022    1    1    2    0    0  0.32746979510E+03 -0.62426804337E+03  0.53446157906E+03  0.89776828257E+03  0.15294330000E+03 0.  0.
    8880022    1    1    2    0    0 -0.32746979510E+03  0.62426804337E+03 -0.98481555579E+03  0.12207376412E+04  0.15294330000E+03 0.  0.
<mgrwt>
<rscale>  0 0.72134507E+03</rscale>
<asrwt>0</asrwt>
<pdfrwt beam="1">  1        2 0.19760461E+00 0.72134507E+03</pdfrwt>
<pdfrwt beam="2">  1       -2 0.12831938E+00 0.72134507E+03</pdfrwt>
<totfact> 0.77702055E+00</totfact>
</mgrwt>
</event>
<event>
 4    1  0.4840632E-008  0.5799169E+03  0.7818608E-02  0.9947971E-01
         -2   -1    0    0    0  501 -0.00000000000E+00  0.00000000000E+00  0.16469134793E+04  0.16469134793E+04  0.25500000000E-02 0.  1.
          2   -1    0    0  501    0  0.00000000000E+00 -0.00000000000E+00 -0.55681658892E+03  0.55681658893E+03  0.25500000000E-02 0. -1.
    8880022    1    1    2    0    0 -0.34027803184E+03  0.44398517715E+03  0.14218922375E+04  0.15356044948E+04  0.15294330000E+03 0.  0.
    8880022    1    1    2    0    0  0.34027803184E+03 -0.44398517715E+03 -0.33179534710E+03  0.66812557342E+03  0.15294330000E+03 0.  0.
<mgrwt>
<rscale>  0 0.57991692E+03</rscale>
<asrwt>0</asrwt>
<pdfrwt beam="1">  1        2 0.85664089E-01 0.57991692E+03</pdfrwt>
<pdfrwt beam="2">  1       -2 0.25337131E+00 0.57991692E+03</pdfrwt>
<totfact> 0.35190829E+00</totfact>
</mgrwt>
</event>
<event>
 4    1  0.4840632E-008  0.1780197E+03  0.7818608E-02  0.1169733E+00
         -2   -1    0    0    0  501 -0.00000000000E+00  0.00000000000E+00  0.46343912480E+03  0.46343912480E+03  0.25500000000E-02 0.  1.
          2   -1    0    0  501    0  0.00000000000E+00 -0.00000000000E+00 -0.18516310354E+03  0.18516310356E+03  0.25500000000E-02 0. -1.
    8880022    1    1    2    0    0  0.21394500871E+02 -0.88553092023E+02  0.39668529005E+03  0.43479908824E+03  0.15294330000E+03 0.  0.
    8880022    1    1    2    0    0 -0.21394500871E+02  0.88553092023E+02 -0.11840926880E+03  0.21380314012E+03  0.15294330000E+03 0. -1.
<mgrwt>
<rscale>  0 0.17801974E+03</rscale>
<asrwt>0</asrwt>
<pdfrwt beam="1">  1        2 0.28486631E-01 0.17801974E+03</pdfrwt>
<pdfrwt beam="2">  1       -2 0.71298327E-01 0.17801974E+03</pdfrwt>
<totfact> 0.34195781E+02</totfact>
</mgrwt>
</event>
<event>
 4    1  0.4840632E-008  0.6351423E+03  0.7818608E-02  0.9835065E-01
         -2   -1    0    0    0  501 -0.00000000000E+00  0.00000000000E+00  0.63836293435E+03  0.63836293436E+03  0.25500000000E-02 0.  1.
          2   -1    0    0  501    0  0.00000000000E+00 -0.00000000000E+00 -0.36603467066E+04  0.36603467066E+04  0.25500000000E-02 0. -1.
    8880022    1    1    2    0    0 -0.40891972432E+03  0.46130115998E+03  0.44404183080E+03  0.77497025855E+03  0.15294330000E+03 0.  0.
    8880022    1    1    2    0    0  0.40891972432E+03 -0.46130115998E+03 -0.34660256031E+04  0.35237393824E+04  0.15294330000E+03 0.  0.
<mgrwt>
<rscale>  0 0.63514231E+03</rscale>
<asrwt>0</asrwt>
<pdfrwt beam="1">  1        2 0.56313025E+00 0.63514231E+03</pdfrwt>
<pdfrwt beam="2">  1       -2 0.98209685E-01 0.63514231E+03</pdfrwt>
<totfact> 0.60895281E-01</totfact>
</mgrwt>
</event>
<event>
 4    1  0.4840632E-008  0.4333823E+03  0.7818608E-02  0.1032797E+00
          2   -1    0    0  501    0  0.00000000000E+00  0.00000000000E+00  0.23810973921E+04  0.23810973921E+04  0.25500000000E-02 0. -1.
         -2   -1    0    0    0  501 -0.00000000000E+00 -0.00000000000E+00 -0.13325972423E+04  0.13325972423E+04  0.25500000000E-02 0.  1.
    8880022    1    1    2    0    0 -0.49636486786E+02  0.40244845538E+03 -0.12768033466E+04  0.13483497243E+04  0.15294330000E+03 0.  0.
    8880022    1    1    2    0    0  0.49636486786E+02 -0.40244845538E+03  0.23253034965E+04  0.23653449101E+04  0.15294330000E+03 0.  0.
<mgrwt>
<rscale>  0 0.43338227E+03</rscale>
<asrwt>0</asrwt>
<pdfrwt beam="1">  1        2 0.36632268E+00 0.43338227E+03</pdfrwt>
<pdfrwt beam="2">  1       -2 0.20501496E+00 0.43338227E+03</pdfrwt>
<totfact> 0.58421746E-01</totfact>
</mgrwt>
</event>
<event>
 4    1  0.4840632E-008  0.1136433E+04  0.7818608E-02  0.9170391E-01
         -2   -1    0    0    0  501 -0.00000000000E+00  0.00000000000E+00  0.46128848326E+03  0.46128848327E+03  0.25500000000E-02 0.  1.
          2   -1    0    0  501    0  0.00000000000E+00 -0.00000000000E+00 -0.40416041040E+04  0.40416041040E+04  0.25500000000E-02 0. -1.
    8880022    1    1    2    0    0  0.93262523312E+03 -0.63110973248E+03 -0.54212978314E+03  0.12591209929E+04  0.15294330000E+03 0.  0.
    8880022    1    1    2    0    0 -0.93262523312E+03  0.63110973248E+03 -0.30381858376E+04  0.32437715944E+04  0.15294330000E+03 0.  0.
<mgrwt>
<rscale>  0 0.11364334E+04</rscale>
<asrwt>0</asrwt>
<pdfrwt beam="1">  1        2 0.62178522E+00 0.11364334E+04</pdfrwt>
<pdfrwt beam="2">  1       -2 0.70967462E-01 0.11364334E+04</pdfrwt>
<totfact> 0.58779644E-01</totfact>
</mgrwt>
</event>
<event>
 4    1  0.4840632E-008  0.2903243E+03  0.7818608E-02  0.1090180E+00
         -2   -1    0    0    0  501 -0.00000000000E+00  0.00000000000E+00  0.25232956361E+03  0.25232956363E+03  0.25500000000E-02 0.  1.
          2   -1    0    0  501    0  0.00000000000E+00 -0.00000000000E+00 -0.11576115444E+04  0.11576115444E+04  0.25500000000E-02 0. -1.
    8880022    1    1    2    0    0  0.24137996498E+03  0.51305520996E+02  0.14197993457E+03  0.32318183553E+03  0.15294330000E+03 0.  0.
    8880022    1    1    2    0    0 -0.24137996498E+03 -0.51305520996E+02 -0.10472619154E+04  0.10867592725E+04  0.15294330000E+03 0.  0.
<mgrwt>
<rscale>  0 0.29032430E+03</rscale>
<asrwt>0</asrwt>
<pdfrwt beam="1">  1        2 0.17809408E+00 0.29032430E+03</pdfrwt>
<pdfrwt beam="2">  1       -2 0.38819933E-01 0.29032430E+03</pdfrwt>
<totfact> 0.13446610E+02</totfact>
</mgrwt>
</event>
<event>
 4    1  0.4840632E-008  0.4850193E+03  0.7818608E-02  0.1017765E+00
          2   -1    0    0  501    0  0.00000000000E+00  0.00000000000E+00  0.20537911455E+04  0.20537911455E+04  0.25500000000E-02 0. -1.
         -2   -1    0    0    0  501 -0.00000000000E+00 -0.00000000000E+00 -0.13317154628E+03  0.13317154630E+03  0.25500000000E-02 0.  1.
    8880022    1    1    2    0    0  0.22831863641E+01 -0.46026828105E+03  0.55131685725E+03  0.73429832738E+03  0.15294330000E+03 0.  0.
    8880022    1    1    2    0    0 -0.22831863641E+01  0.46026828105E+03  0.13693027420E+04  0.14526643644E+04  0.15294330000E+03 0. -1.
<mgrwt>
<rscale>  0 0.48501934E+03</rscale>
<asrwt>0</asrwt>
<pdfrwt beam="1">  1        2 0.31596786E+00 0.48501934E+03</pdfrwt>
<pdfrwt beam="2">  1       -2 0.20487931E-01 0.48501934E+03</pdfrwt>
<totfact> 0.13526669E+02</totfact>
</mgrwt>
</event>
<event>
 4    1  0.4840632E-008  0.6390671E+03  0.7818608E-02  0.9827513E-01
         -2   -1    0    0    0  501 -0.00000000000E+00  0.00000000000E+00  0.35228758002E+03  0.35228758003E+03  0.25500000000E-02 0.  1.
          2   -1    0    0  501    0  0.00000000000E+00 -0.00000000000E+00 -0.23794763020E+04  0.23794763020E+04  0.25500000000E-02 0. -1.
    8880022    1    1    2    0    0  0.78790733833E+01 -0.62044586487E+03 -0.19916957120E+04  0.20917118858E+04  0.15294330000E+03 0.  0.
    8880022    1    1    2    0    0 -0.78790733833E+01  0.62044586487E+03 -0.35493009915E+02  0.64005199616E+03  0.15294330000E+03 0.  0.
<mgrwt>
<rscale>  0 0.63906714E+03</rscale>
<asrwt>0</asrwt>
<pdfrwt beam="1">  1        2 0.36607327E+00 0.63906714E+03</pdfrwt>
<pdfrwt beam="2">  1       -2 0.54198091E-01 0.63906714E+03</pdfrwt>
<totfact> 0.13934109E+01</totfact>
</mgrwt>
</event>
<event>
 4    1  0.4840632E-008  0.2612835E+03  0.7818608E-02  0.1106375E+00
         -2   -1    0    0    0  501 -0.00000000000E+00  0.00000000000E+00  0.14949642944E+03  0.14949642946E+03  0.25500000000E-02 0.  1.
          2   -1    0    0  501    0  0.00000000000E+00 -0.00000000000E+00 -0.90109546906E+03  0.90109546906E+03  0.25500000000E-02 0. -1.
    8880022    1    1    2    0    0 -0.18445489201E+03  0.10418149926E+03 -0.74471169336E+03  0.78921768303E+03  0.15294330000E+03 0.  0.
    8880022    1    1    2    0    0  0.18445489201E+03 -0.10418149926E+03 -0.68873462626E+01  0.26137421550E+03  0.15294330000E+03 0.  0.
<mgrwt>
<rscale>  0 0.26128346E+03</rscale>
<asrwt>0</asrwt>
<pdfrwt beam="1">  1        2 0.13863007E+00 0.26128346E+03</pdfrwt>
<pdfrwt beam="2">  1       -2 0.22999451E-01 0.26128346E+03</pdfrwt>
<totfact> 0.50279423E+02</totfact>
</mgrwt>
</event>
<event>
 4    1  0.4840632E-008  0.6632796E+03  0.7818608E-02  0.9782175E-01
          2   -1    0    0  501    0  0.00000000000E+00  0.00000000000E+00  0.44498502129E+03  0.44498502130E+03  0.25500000000E-02 0. -1.
         -2   -1    0    0    0  501 -0.00000000000E+00 -0.00000000000E+00 -0.12112712830E+04  0.12112712830E+04  0.25500000000E-02 0.  1.
    8880022    1    1    2    0    0  0.57890677804E+03  0.28533345645E+03 -0.28126882365E+02  0.66387575160E+03  0.15294330000E+03 0.  0.
    8880022    1    1    2    0    0 -0.57890677804E+03 -0.28533345645E+03 -0.73815937933E+03  0.99238055268E+03  0.15294330000E+03 0.  0.
<mgrwt>
<rscale>  0 0.66327965E+03</rscale>
<asrwt>0</asrwt>
<pdfrwt beam="1">  1        2 0.68459235E-01 0.66327965E+03</pdfrwt>
<pdfrwt beam="2">  1       -2 0.18634943E+00 0.66327965E+03</pdfrwt>
<totfact> 0.11861150E+01</totfact>
</mgrwt>
</event>
<event>
 4    1  0.4840632E-008  0.2313896E+03  0.7818608E-02  0.1125665E+00
         -2   -1    0    0    0  501 -0.00000000000E+00  0.00000000000E+00  0.14819627692E+03  0.14819627694E+03  0.25500000000E-02 0.  1.
          2   -1    0    0  501    0  0.00000000000E+00 -0.00000000000E+00 -0.11744357481E+04  0.11744357481E+04  0.25500000000E-02 0. -1.
    8880022    1    1    2    0    0 -0.14509695293E+03 -0.95374989930E+02  0.37155291963E+02  0.23435375651E+03  0.15294330000E+03 0.  0.
    8880022    1    1    2    0    0  0.14509695293E+03  0.95374989930E+02 -0.10633947631E+04  0.10882782685E+04  0.15294330000E+03 0.  0.
<mgrwt>
<rscale>  0 0.23138964E+03</rscale>
<asrwt>0</asrwt>
<pdfrwt beam="1">  1        2 0.18068242E+00 0.23138964E+03</pdfrwt>
<pdfrwt beam="2">  1       -2 0.22799428E-01 0.23138964E+03</pdfrwt>
<totfact> 0.35017043E+02</totfact>
</mgrwt>
</event>
<event>
 4    1  0.4840632E-008  0.6714844E+03  0.7818608E-02  0.9767280E-01
          2   -1    0    0  501    0  0.00000000000E+00  0.00000000000E+00  0.11477032784E+04  0.11477032784E+04  0.25500000000E-02 0. -1.
         -2   -1    0    0    0  501 -0.00000000000E+00 -0.00000000000E+00 -0.46823179985E+03  0.46823179986E+03  0.25500000000E-02 0.  1.
    8880022    1    1    2    0    0 -0.64859717022E+03  0.82591322369E+02  0.66389352674E+03  0.94427002685E+03  0.15294330000E+03 0.  0.
    8880022    1    1    2    0    0  0.64859717022E+03 -0.82591322369E+02  0.15577951850E+02  0.67166505145E+03  0.15294330000E+03 0.  0.
<mgrwt>
<rscale>  0 0.67148438E+03</rscale>
<asrwt>0</asrwt>
<pdfrwt beam="1">  1        2 0.17656973E+00 0.67148438E+03</pdfrwt>
<pdfrwt beam="2">  1       -2 0.72035662E-01 0.67148438E+03</pdfrwt>
<totfact> 0.36481761E+01</totfact>
</mgrwt>
</event>
<event>
 4    1  0.4840632E-008  0.4647948E+03  0.7818608E-02  0.1023400E+00
         -2   -1    0    0    0  501 -0.00000000000E+00  0.00000000000E+00  0.26260528357E+03  0.26260528358E+03  0.25500000000E-02 0.  1.
          2   -1    0    0  501    0  0.00000000000E+00 -0.00000000000E+00 -0.19894706102E+04  0.19894706102E+04  0.25500000000E-02 0. -1.
    8880022    1    1    2    0    0  0.43869132244E+03 -0.13874814459E+02 -0.10800407638E+01  0.46479609117E+03  0.15294330000E+03 0.  0.
    8880022    1    1    2    0    0 -0.43869132244E+03  0.13874814459E+02 -0.17257852858E+04  0.17872798026E+04  0.15294330000E+03 0.  0.
<mgrwt>
<rscale>  0 0.46479484E+03</rscale>
<asrwt>0</asrwt>
<pdfrwt beam="1">  1        2 0.30607239E+00 0.46479484E+03</pdfrwt>
<pdfrwt beam="2">  1       -2 0.40400814E-01 0.46479484E+03</pdfrwt>
<totfact> 0.42343382E+01</totfact>
</mgrwt>
</event>
<event>
 4    1  0.4840632E-008  0.9765837E+03  0.7818608E-02  0.9334607E-01
          2   -1    0    0  501    0  0.00000000000E+00  0.00000000000E+00  0.10149713717E+04  0.10149713717E+04  0.25500000000E-02 0. -1.
         -2   -1    0    0    0  501 -0.00000000000E+00 -0.00000000000E+00 -0.11604209238E+04  0.11604209238E+04  0.25500000000E-02 0.  1.
    8880022    1    1    2    0    0 -0.90110649504E+03  0.34399290572E+03  0.40170599304E+03  0.10559750908E+04  0.15294330000E+03 0.  0.
    8880022    1    1    2    0    0  0.90110649504E+03 -0.34399290572E+03 -0.54715554514E+03  0.11194172047E+04  0.15294330000E+03 0.  0.
<mgrwt>
<rscale>  0 0.97658368E+03</rscale>
<asrwt>0</asrwt>
<pdfrwt beam="1">  1        2 0.15614944E+00 0.97658368E+03</pdfrwt>
<pdfrwt beam="2">  1       -2 0.17852629E+00 0.97658368E+03</pdfrwt>
<totfact> 0.45451634E+00</totfact>
</mgrwt>
</event>
<event>
 4    1  0.4840632E-008  0.5276416E+03  0.7818608E-02  0.1006806E+00
          2   -1    0    0  501    0  0.00000000000E+00  0.00000000000E+00  0.14233403064E+04  0.14233403064E+04  0.25500000000E-02 0. -1.
         -2   -1    0    0    0  501 -0.00000000000E+00 -0.00000000000E+00 -0.14524951693E+04  0.14524951693E+04  0.25500000000E-02 0.  1.
    8880022    1    1    2    0    0  0.28084579998E+03 -0.41968995381E+03  0.13230223333E+04  0.14243573176E+04  0.15294330000E+03 0. -1.
    8880022    1    1    2    0    0 -0.28084579998E+03  0.41968995381E+03 -0.13521771962E+04  0.14514781581E+04  0.15294330000E+03 0.  0.
<mgrwt>
<rscale>  0 0.52764161E+03</rscale>
<asrwt>0</asrwt>
<pdfrwt beam="1">  1        2 0.21897543E+00 0.52764161E+03</pdfrwt>
<pdfrwt beam="2">  1       -2 0.22346080E+00 0.52764161E+03</pdfrwt>
<totfact> 0.14340569E+00</totfact>
</mgrwt>
</event>
<event>
 4    1  0.4840632E-008  0.5989695E+03  0.7818608E-02  0.9907546E-01
         -2   -1    0    0    0  501 -0.00000000000E+00  0.00000000000E+00  0.53612031723E+03  0.53612031724E+03  0.25500000000E-02 0.  1.
          2   -1    0    0  501    0  0.00000000000E+00 -0.00000000000E+00 -0.11802710955E+04  0.11802710955E+04  0.25500000000E-02 0. -1.
    8880022    1    1    2    0    0 -0.56674193404E+03 -0.11906477642E+03 -0.88680665825E+03  0.10701357591E+04  0.15294330000E+03 0. -1.
    8880022    1    1    2    0    0  0.56674193404E+03  0.11906477642E+03  0.24265587997E+03  0.64625565365E+03  0.15294330000E+03 0.  0.
<mgrwt>
<rscale>  0 0.59896953E+03</rscale>
<asrwt>0</asrwt>
<pdfrwt beam="1">  1        2 0.18158017E+00 0.59896953E+03</pdfrwt>
<pdfrwt beam="2">  1       -2 0.82480049E-01 0.59896953E+03</pdfrwt>
<totfact> 0.26043108E+01</totfact>
</mgrwt>
</event>
<event>
 4    1  0.4840632E-008  0.7037306E+03  0.7818608E-02  0.9710874E-01
          2   -1    0    0  501    0  0.00000000000E+00  0.00000000000E+00  0.17191912458E+04  0.17191912458E+04  0.25500000000E-02 0. -1.
         -2   -1    0    0    0  501 -0.00000000000E+00 -0.00000000000E+00 -0.74715476744E+03  0.74715476745E+03  0.25500000000E-02 0.  1.
    8880022    1    1    2    0    0 -0.58130770550E+03 -0.36595967578E+03 -0.48062917077E+03  0.85219785589E+03  0.15294330000E+03 0.  1.
    8880022    1    1    2    0    0  0.58130770550E+03  0.36595967578E+03  0.14526656491E+04  0.16141481574E+04  0.15294330000E+03 0.  0.
<mgrwt>
<rscale>  0 0.70373062E+03</rscale>
<asrwt>0</asrwt>
<pdfrwt beam="1">  1        2 0.26449096E+00 0.70373062E+03</pdfrwt>
<pdfrwt beam="2">  1       -2 0.11494689E+00 0.70373062E+03</pdfrwt>
<totfact> 0.58583389E+00</totfact>
</mgrwt>
</event>
<event>
 4    1  0.4840632E-008  0.1118482E+04  0.7818608E-02  0.9187363E-01
         -2   -1    0    0    0  501 -0.00000000000E+00  0.00000000000E+00  0.14150123141E+04  0.14150123141E+04  0.25500000000E-02 0.  1.
          2   -1    0    0  501    0  0.00000000000E+00 -0.00000000000E+00 -0.23931217606E+04  0.23931217606E+04  0.25500000000E-02 0. -1.
    8880022    1    1    2    0    0  0.90457050879E+03  0.63981409180E+03  0.10229344873E+04  0.15157164959E+04  0.15294330000E+03 0.  0.
    8880022    1    1    2    0    0 -0.90457050879E+03 -0.63981409180E+03 -0.20010439338E+04  0.22924175788E+04  0.15294330000E+03 0.  0.
<mgrwt>
<rscale>  0 0.11184818E+04</rscale>
<asrwt>0</asrwt>
<pdfrwt beam="1">  1        2 0.36817258E+00 0.11184818E+04</pdfrwt>
<pdfrwt beam="2">  1       -2 0.21769420E+00 0.11184818E+04</pdfrwt>
<totfact> 0.40465082E-01</totfact>
</mgrwt>
</event>
<event>
 4    1  0.4840632E-008  0.8437315E+03  0.7818608E-02  0.9498789E-01
         -2   -1    0    0    0  501 -0.00000000000E+00  0.00000000000E+00  0.32708741067E+03  0.32708741068E+03  0.25500000000E-02 0.  1.
          2   -1    0    0  501    0  0.00000000000E+00 -0.00000000000E+00 -0.24449224612E+04  0.24449224612E+04  0.25500000000E-02 0. -1.
    8880022    1    1    2    0    0 -0.79557620584E+03  0.23568990724E+03 -0.15182193829E+04  0.17369147876E+04  0.15294330000E+03 0.  0.
    8880022    1    1    2    0    0  0.79557620584E+03 -0.23568990724E+03 -0.59961566765E+03  0.10350950843E+04  0.15294330000E+03 0.  0.
<mgrwt>
<rscale>  0 0.84373152E+03</rscale>
<asrwt>0</asrwt>
<pdfrwt beam="1">  1        2 0.37614191E+00 0.84373152E+03</pdfrwt>
<pdfrwt beam="2">  1       -2 0.50321142E-01 0.84373152E+03</pdfrwt>
<totfact> 0.14430315E+01</totfact>
</mgrwt>
</event>
<event>
 4    1  0.4840632E-008  0.5337029E+03  0.7818608E-02  0.1005338E+00
          2   -1    0    0  501    0  0.00000000000E+00  0.00000000000E+00  0.12067481839E+04  0.12067481839E+04  0.25500000000E-02 0. -1.
         -2   -1    0    0    0  501 -0.00000000000E+00 -0.00000000000E+00 -0.10624082428E+04  0.10624082428E+04  0.25500000000E-02 0.  1.
    8880022    1    1    2    0    0 -0.15097427321E+03  0.48852211781E+03 -0.92846572249E+03  0.10709282617E+04  0.15294330000E+03 0.  0.
    8880022    1    1    2    0    0  0.15097427321E+03 -0.48852211781E+03  0.10728056636E+04  0.11982281651E+04  0.15294330000E+03 0.  0.
<mgrwt>
<rscale>  0 0.53370286E+03</rscale>
<asrwt>0</asrwt>
<pdfrwt beam="1">  1        2 0.18565357E+00 0.53370286E+03</pdfrwt>
<pdfrwt beam="2">  1       -2 0.16344742E+00 0.53370286E+03</pdfrwt>
<totfact> 0.47325506E+00</totfact>
</mgrwt>
</event>
<event>
 4    1  0.4840632E-008  0.2304475E+03  0.7818608E-02  0.1126325E+00
          2   -1    0    0  501    0  0.00000000000E+00  0.00000000000E+00  0.13629731551E+04  0.13629731551E+04  0.25500000000E-02 0. -1.
         -2   -1    0    0    0  501 -0.00000000000E+00 -0.00000000000E+00 -0.49900720533E+03  0.49900720534E+03  0.25500000000E-02 0.  1.
    8880022    1    1    2    0    0 -0.17232626856E+03 -0.42517367843E+01  0.13258878047E+04  0.13457654118E+04  0.15294330000E+03 0.  0.
    8880022    1    1    2    0    0  0.17232626856E+03  0.42517367843E+01 -0.46192185490E+03  0.51621494860E+03  0.15294330000E+03 0.  1.
<mgrwt>
<rscale>  0 0.23044755E+03</rscale>
<asrwt>0</asrwt>
<pdfrwt beam="1">  1        2 0.20968818E+00 0.23044755E+03</pdfrwt>
<pdfrwt beam="2">  1       -2 0.76770340E-01 0.23044755E+03</pdfrwt>
<totfact> 0.26076798E+01</totfact>
</mgrwt>
</event>
<event>
 4    1  0.4840632E-008  0.1740947E+03  0.7818608E-02  0.1173644E+00
          2   -1    0    0  501    0  0.00000000000E+00  0.00000000000E+00  0.58550911443E+03  0.58550911443E+03  0.25500000000E-02 0. -1.
         -2   -1    0    0    0  501 -0.00000000000E+00 -0.00000000000E+00 -0.56497176542E+02  0.56497176599E+02  0.25500000000E-02 0.  1.
    8880022    1    1    2    0    0  0.77862917130E+02  0.29234739326E+02  0.35740695174E+03  0.39755337505E+03  0.15294330000E+03 0. -1.
    8880022    1    1    2    0    0 -0.77862917130E+02 -0.29234739326E+02  0.17160498615E+03  0.24445291599E+03  0.15294330000E+03 0.  1.
<mgrwt>
<rscale>  0 0.17409468E+03</rscale>
<asrwt>0</asrwt>
<pdfrwt beam="1">  1        2 0.90078325E-01 0.17409468E+03</pdfrwt>
<pdfrwt beam="2">  1       -2 0.86918734E-02 0.17409468E+03</pdfrwt>
<totfact> 0.42210052E+03</totfact>
</mgrwt>
</event>
<event>
 4    1  0.4840632E-008  0.2921216E+03  0.7818608E-02  0.1089247E+00
          2   -1    0    0  501    0  0.00000000000E+00  0.00000000000E+00  0.11744595412E+04  0.11744595412E+04  0.25500000000E-02 0. -1.
         -2   -1    0    0    0  501 -0.00000000000E+00 -0.00000000000E+00 -0.27092234044E+03  0.27092234046E+03  0.25500000000E-02 0.  1.
    8880022    1    1    2    0    0  0.10875966457E+02 -0.24864653843E+03 -0.16646332043E+03  0.33622176875E+03  0.15294330000E+03 0.  0.
    8880022    1    1    2    0    0 -0.10875966457E+02  0.24864653843E+03  0.10700005212E+04  0.11091601129E+04  0.15294330000E+03 0.  0.
<mgrwt>
<rscale>  0 0.29212162E+03</rscale>
<asrwt>0</asrwt>
<pdfrwt beam="1">  1        2 0.18068608E+00 0.29212162E+03</pdfrwt>
<pdfrwt beam="2">  1       -2 0.41680360E-01 0.29212162E+03</pdfrwt>
<totfact> 0.11465371E+02</totfact>
</mgrwt>
</event>
<event>
 4    1  0.4840632E-008  0.9133025E+03  0.7818608E-02  0.9409104E-01
          2   -1    0    0  501    0  0.00000000000E+00  0.00000000000E+00  0.27778684158E+04  0.27778684158E+04  0.25500000000E-02 0. -1.
         -2   -1    0    0    0  501 -0.00000000000E+00 -0.00000000000E+00 -0.44197032517E+03  0.44197032517E+03  0.25500000000E-02 0.  1.
    8880022    1    1    2    0    0 -0.58882601084E+03 -0.68118547446E+03  0.25638534690E+03  0.94860677879E+03  0.15294330000E+03 0.  0.
    8880022    1    1    2    0    0  0.58882601084E+03  0.68118547446E+03  0.20795127438E+04  0.22712319622E+04  0.15294330000E+03 0.  0.
<mgrwt>
<rscale>  0 0.91330246E+03</rscale>
<asrwt>0</asrwt>
<pdfrwt beam="1">  1        2 0.42736436E+00 0.91330246E+03</pdfrwt>
<pdfrwt beam="2">  1       -2 0.67995436E-01 0.91330246E+03</pdfrwt>
<totfact> 0.48638922E+00</totfact>
</mgrwt>
</event>
<event>
 4    1  0.4840632E-008  0.6602238E+03  0.7818608E-02  0.9787782E-01
         -2   -1    0    0    0  501 -0.00000000000E+00  0.00000000000E+00  0.13226699561E+04  0.13226699561E+04  0.25500000000E-02 0.  1.
          2   -1    0    0  501    0  0.00000000000E+00 -0.00000000000E+00 -0.63097854856E+03  0.63097854857E+03  0.25500000000E-02 0. -1.
    8880022    1    1    2    0    0  0.18446981975E+03  0.61520301925E+03  0.10209891837E+04  0.12158595459E+04  0.15294330000E+03 0.  0.
    8880022    1    1    2    0    0 -0.18446981975E+03 -0.61520301925E+03 -0.32929777610E+03  0.73778895875E+03  0.15294330000E+03 0.  0.
<mgrwt>
<rscale>  0 0.66022384E+03</rscale>
<asrwt>0</asrwt>
<pdfrwt beam="1">  1        2 0.97073624E-01 0.66022384E+03</pdfrwt>
<pdfrwt beam="2">  1       -2 0.20348768E+00 0.66022384E+03</pdfrwt>
<totfact> 0.60802625E+00</totfact>
</mgrwt>
</event>
<event>
 4    1  0.4840632E-008  0.1121532E+04  0.7818608E-02  0.9184456E-01
          2   -1    0    0  501    0  0.00000000000E+00  0.00000000000E+00  0.20476167790E+04  0.20476167790E+04  0.25500000000E-02 0. -1.
         -2   -1    0    0    0  501 -0.00000000000E+00 -0.00000000000E+00 -0.11129853759E+04  0.11129853759E+04  0.25500000000E-02 0.  1.
    8880022    1    1    2    0    0 -0.76798806234E+03  0.80289244671E+03  0.15251365481E+04  0.18931125398E+04  0.15294330000E+03 0.  0.
    8880022    1    1    2    0    0  0.76798806234E+03 -0.80289244671E+03 -0.59050514502E+03  0.12674896150E+04  0.15294330000E+03 0.  0.
<mgrwt>
<rscale>  0 0.11215318E+04</rscale>
<asrwt>0</asrwt>
<pdfrwt beam="1">  1        2 0.31501796E+00 0.11215318E+04</pdfrwt>
<pdfrwt beam="2">  1       -2 0.17122852E+00 0.11215318E+04</pdfrwt>
<totfact> 0.12891231E+00</totfact>
</mgrwt>
</event>
<event>
 4    1  0.4840632E-008  0.3001423E+03  0.7818608E-02  0.1085170E+00
          2   -1    0    0  501    0  0.00000000000E+00  0.00000000000E+00  0.60962580767E+03  0.60962580768E+03  0.25500000000E-02 0. -1.
         -2   -1    0    0    0  501 -0.00000000000E+00 -0.00000000000E+00 -0.16826649071E+03  0.16826649073E+03  0.25500000000E-02 0.  1.
    8880022    1    1    2    0    0 -0.25223554211E+03  0.55416278793E+02  0.35642138842E+03  0.46596307986E+03  0.15294330000E+03 0.  0.
    8880022    1    1    2    0    0  0.25223554211E+03 -0.55416278793E+02  0.84937928544E+02  0.31192921854E+03  0.15294330000E+03 0.  0.
<mgrwt>
<rscale>  0 0.30014228E+03</rscale>
<asrwt>0</asrwt>
<pdfrwt beam="1">  1        2 0.93788585E-01 0.30014228E+03</pdfrwt>
<pdfrwt beam="2">  1       -2 0.25887153E-01 0.30014228E+03</pdfrwt>
<totfact> 0.66363290E+02</totfact>
</mgrwt>
</event>
<event>
 4    1  0.4840632E-008  0.6595660E+03  0.7818608E-02  0.9788993E-01
          2   -1    0    0  501    0  0.00000000000E+00  0.00000000000E+00  0.50042229187E+03  0.50042229188E+03  0.25500000000E-02 0. -1.
         -2   -1    0    0    0  501 -0.00000000000E+00 -0.00000000000E+00 -0.11376382286E+04  0.11376382286E+04  0.25500000000E-02 0.  1.
    8880022    1    1    2    0    0  0.26830360757E+03  0.58279400835E+03 -0.71636931648E+03  0.97376194864E+03  0.15294330000E+03 0.  0.
    8880022    1    1    2    0    0 -0.26830360757E+03 -0.58279400835E+03  0.79153379763E+02  0.66429857184E+03  0.15294330000E+03 0.  0.
<mgrwt>
<rscale>  0 0.65956602E+03</rscale>
<asrwt>0</asrwt>
<pdfrwt beam="1">  1        2 0.76988045E-01 0.65956602E+03</pdfrwt>
<pdfrwt beam="2">  1       -2 0.17502127E+00 0.65956602E+03</pdfrwt>
<totfact> 0.12394580E+01</totfact>
</mgrwt>
</event>
<event>
 4    1  0.4840632E-008  0.2757671E+03  0.7818608E-02  0.1098024E+00
          2   -1    0    0  501    0  0.00000000000E+00  0.00000000000E+00  0.69733496083E+03  0.69733496083E+03  0.25500000000E-02 0. -1.
         -2   -1    0    0    0  501 -0.00000000000E+00 -0.00000000000E+00 -0.24857340179E+03  0.24857340181E+03  0.25500000000E-02 0.  1.
    8880022    1    1    2    0    0 -0.84255694790E+02 -0.21344045560E+03  0.57871108073E+03  0.64105695392E+03  0.15294330000E+03 0. -1.
    8880022    1    1    2    0    0  0.84255694790E+02  0.21344045560E+03 -0.12994952170E+03  0.30485140872E+03  0.15294330000E+03 0.  0.
<mgrwt>
<rscale>  0 0.27576712E+03</rscale>
<asrwt>0</asrwt>
<pdfrwt beam="1">  1        2 0.10728230E+00 0.27576712E+03</pdfrwt>
<pdfrwt beam="2">  1       -2 0.38242062E-01 0.27576712E+03</pdfrwt>
<totfact> 0.27587535E+02</totfact>
</mgrwt>
</event>
<event>
 4    1  0.4840632E-008  0.7740431E+03  0.7818608E-02  0.9598368E-01
          2   -1    0    0  501    0  0.00000000000E+00  0.00000000000E+00  0.22347570749E+04  0.22347570749E+04  0.25500000000E-02 0. -1.
         -2   -1    0    0    0  501 -0.00000000000E+00 -0.00000000000E+00 -0.33614166258E+03  0.33614166259E+03  0.25500000000E-02 0.  1.
    8880022    1    1    2    0    0 -0.44710433688E+03 -0.61306508376E+03  0.15276367810E+04  0.17125468965E+04  0.15294330000E+03 0.  0.
    8880022    1    1    2    0    0  0.44710433688E+03  0.61306508376E+03  0.37097863126E+03  0.85835184094E+03  0.15294330000E+03 0.  0.
<mgrwt>
<rscale>  0 0.77404311E+03</rscale>
<asrwt>0</asrwt>
<pdfrwt beam="1">  1        2 0.34380878E+00 0.77404311E+03</pdfrwt>
<pdfrwt beam="2">  1       -2 0.51714102E-01 0.77404311E+03</pdfrwt>
<totfact> 0.18061913E+01</totfact>
</mgrwt>
</event>
<event>
 4    1  0.4840632E-008  0.8808925E+03  0.7818608E-02  0.9449787E-01
          2   -1    0    0  501    0  0.00000000000E+00  0.00000000000E+00  0.36589574632E+04  0.36589574632E+04  0.25500000000E-02 0. -1.
         -2   -1    0    0    0  501 -0.00000000000E+00 -0.00000000000E+00 -0.43182928798E+03  0.43182928799E+03  0.25500000000E-02 0.  1.
    8880022    1    1    2    0    0  0.50436572381E+03  0.70582938063E+03  0.30726806174E+04  0.31964570586E+04  0.15294330000E+03 0.  0.
    8880022    1    1    2    0    0 -0.50436572381E+03 -0.70582938063E+03  0.15444755783E+03  0.89432969260E+03  0.15294330000E+03 0.  0.
<mgrwt>
<rscale>  0 0.88089247E+03</rscale>
<asrwt>0</asrwt>
<pdfrwt beam="1">  1        2 0.56291654E+00 0.88089247E+03</pdfrwt>
<pdfrwt beam="2">  1       -2 0.66435275E-01 0.88089247E+03</pdfrwt>
<totfact> 0.13872784E+00</totfact>
</mgrwt>
</event>
<event>
 4    1  0.4840632E-008  0.2702725E+03  0.7818608E-02  0.1101124E+00
          2   -1    0    0  501    0  0.00000000000E+00  0.00000000000E+00  0.20585569403E+04  0.20585569403E+04  0.25500000000E-02 0. -1.
         -2   -1    0    0    0  501 -0.00000000000E+00 -0.00000000000E+00 -0.55440992516E+02  0.55440992575E+02  0.25500000000E-02 0.  1.
    8880022    1    1    2    0    0  0.70115807403E+02  0.21151683367E+03  0.36739756137E+03  0.45610110555E+03  0.15294330000E+03 0.  0.
    8880022    1    1    2    0    0 -0.70115807403E+02 -0.21151683367E+03  0.16357183864E+04  0.16578968273E+04  0.15294330000E+03 0.  0.
<mgrwt>
<rscale>  0 0.27027255E+03</rscale>
<asrwt>0</asrwt>
<pdfrwt beam="1">  1        2 0.31670109E+00 0.27027255E+03</pdfrwt>
<pdfrwt beam="2">  1       -2 0.85293828E-02 0.27027255E+03</pdfrwt>
<totfact> 0.59219147E+02</totfact>
</mgrwt>
</event>
<event>
 4    1  0.4840632E-008  0.3368365E+03  0.7818608E-02  0.1068151E+00
         -2   -1    0    0    0  501 -0.00000000000E+00  0.00000000000E+00  0.11396313984E+04  0.11396313984E+04  0.25500000000E-02 0.  1.
          2   -1    0    0  501    0  0.00000000000E+00 -0.00000000000E+00 -0.26923862028E+03  0.26923862029E+03  0.25500000000E-02 0. -1.
    8880022    1    1    2    0    0  0.13430779239E+03 -0.26838138766E+03 -0.12403181739E+03  0.35894664935E+03  0.15294330000E+03 0.  0.
    8880022    1    1    2    0    0 -0.13430779239E+03  0.26838138766E+03  0.99442459550E+03  0.10499233693E+04  0.15294330000E+03 0.  1.
<mgrwt>
<rscale>  0 0.33683647E+03</rscale>
<asrwt>0</asrwt>
<pdfrwt beam="1">  1        2 0.41421326E-01 0.33683647E+03</pdfrwt>
<pdfrwt beam="2">  1       -2 0.17532791E+00 0.33683647E+03</pdfrwt>
<totfact> 0.25658479E+01</totfact>
</mgrwt>
</event>
<event>
 4    1  0.4840632E-008  0.1654163E+03  0.7818608E-02  0.1182714E+00
         -2   -1    0    0    0  501 -0.00000000000E+00  0.00000000000E+00  0.17497134938E+04  0.17497134938E+04  0.25500000000E-02 0.  1.
          2   -1    0    0  501    0  0.00000000000E+00 -0.00000000000E+00 -0.50499318384E+03  0.50499318384E+03  0.25500000000E-02 0. -1.
    8880022    1    1    2    0    0  0.50361930873E+02 -0.37875882796E+02 -0.48740033009E+03  0.51470539279E+03  0.15294330000E+03 0.  0.
    8880022    1    1    2    0    0 -0.50361930873E+02  0.37875882796E+02  0.17321206401E+04  0.17400012849E+04  0.15294330000E+03 0.  1.
<mgrwt>
<rscale>  0 0.16541632E+03</rscale>
<asrwt>0</asrwt>
<pdfrwt beam="1">  1        2 0.77691259E-01 0.16541632E+03</pdfrwt>
<pdfrwt beam="2">  1       -2 0.26918669E+00 0.16541632E+03</pdfrwt>
<totfact> 0.36438115E+00</totfact>
</mgrwt>
</event>
<event>
 4    1  0.4840632E-008  0.3137161E+03  0.7818608E-02  0.1078578E+00
          2   -1    0    0  501    0  0.00000000000E+00  0.00000000000E+00  0.52780806234E+03  0.52780806234E+03  0.25500000000E-02 0. -1.
         -2   -1    0    0    0  501 -0.00000000000E+00 -0.00000000000E+00 -0.32167855240E+03  0.32167855241E+03  0.25500000000E-02 0.  1.
    8880022    1    1    2    0    0 -0.27361784300E+03  0.12626449607E+02  0.37844030539E+03  0.49156369780E+03  0.15294330000E+03 0.  0.
    8880022    1    1    2    0    0  0.27361784300E+03 -0.12626449607E+02 -0.17231079545E+03  0.35792291695E+03  0.15294330000E+03 0.  0.
<mgrwt>
<rscale>  0 0.31371612E+03</rscale>
<asrwt>0</asrwt>
<pdfrwt beam="1">  1        2 0.81201240E-01 0.31371612E+03</pdfrwt>
<pdfrwt beam="2">  1       -2 0.49489008E-01 0.31371612E+03</pdfrwt>
<totfact> 0.23072216E+02</totfact>
</mgrwt>
</event>
<event>
 4    1  0.4840632E-008  0.8000821E+03  0.7818608E-02  0.9559898E-01
          2   -1    0    0  501    0  0.00000000000E+00  0.00000000000E+00  0.14551770566E+04  0.14551770566E+04  0.25500000000E-02 0. -1.
         -2   -1    0    0    0  501 -0.00000000000E+00 -0.00000000000E+00 -0.56330097353E+03  0.56330097353E+03  0.25500000000E-02 0.  1.
    8880022    1    1    2    0    0 -0.33305410851E+03 -0.71120654445E+03 -0.26434035133E+02  0.80051870640E+03  0.15294330000E+03 0.  0.
    8880022    1    1    2    0    0  0.33305410851E+03  0.71120654445E+03  0.91831011821E+03  0.12179593237E+04  0.15294330000E+03 0.  0.
<mgrwt>
<rscale>  0 0.80008215E+03</rscale>
<asrwt>0</asrwt>
<pdfrwt beam="1">  1        2 0.22387339E+00 0.80008215E+03</pdfrwt>
<pdfrwt beam="2">  1       -2 0.86661688E-01 0.80008215E+03</pdfrwt>
<totfact> 0.15782371E+01</totfact>
</mgrwt>
</event>
<event>
 4    1  0.4840632E-008  0.2694295E+03  0.7818608E-02  0.1101607E+00
          2   -1    0    0  501    0  0.00000000000E+00  0.00000000000E+00  0.23082275930E+04  0.23082275931E+04  0.25500000000E-02 0. -1.
         -2   -1    0    0    0  501 -0.00000000000E+00 -0.00000000000E+00 -0.10277033609E+03  0.10277033612E+03  0.25500000000E-02 0.  1.
    8880022    1    1    2    0    0 -0.20450833451E+03 -0.85889164893E+02  0.21069781160E+04  0.21241348926E+04  0.15294330000E+03 0.  0.
    8880022    1    1    2    0    0  0.20450833451E+03  0.85889164893E+02  0.98479140909E+02  0.28686303655E+03  0.15294330000E+03 0.  0.
<mgrwt>
<rscale>  0 0.26942951E+03</rscale>
<asrwt>0</asrwt>
<pdfrwt beam="1">  1        2 0.35511192E+00 0.26942951E+03</pdfrwt>
<pdfrwt beam="2">  1       -2 0.15810822E-01 0.26942951E+03</pdfrwt>
<totfact> 0.16064728E+02</totfact>
</mgrwt>
</event>
<event>
 4    1  0.4840632E-008  0.7206625E+03  0.7818608E-02  0.9682535E-01
          2   -1    0    0  501    0  0.00000000000E+00  0.00000000000E+00  0.58620841271E+03  0.58620841272E+03  0.25500000000E-02 0. -1.
         -2   -1    0    0    0  501 -0.00000000000E+00 -0.00000000000E+00 -0.91705191927E+03  0.91705191928E+03  0.25500000000E-02 0.  1.
    8880022    1    1    2    0    0  0.33393374467E+03  0.62004112922E+03 -0.30383078049E+03  0.78209177463E+03  0.15294330000E+03 0.  1.
    8880022    1    1    2    0    0 -0.33393374467E+03 -0.62004112922E+03 -0.27012726072E+02  0.72116855737E+03  0.15294330000E+03 0. -1.
<mgrwt>
<rscale>  0 0.72066247E+03</rscale>
<asrwt>0</asrwt>
<pdfrwt beam="1">  1        2 0.90185910E-01 0.72066247E+03</pdfrwt>
<pdfrwt beam="2">  1       -2 0.14108491E+00 0.72066247E+03</pdfrwt>
<totfact> 0.18252896E+01</totfact>
</mgrwt>
</event>
<event>
 4    1  0.4840632E-008  0.4314640E+03  0.7818608E-02  0.1033399E+00
         -2   -1    0    0    0  501 -0.00000000000E+00  0.00000000000E+00  0.25563968694E+03  0.25563968695E+03  0.25500000000E-02 0.  1.
          2   -1    0    0  501    0  0.00000000000E+00 -0.00000000000E+00 -0.10318723083E+04  0.10318723083E+04  0.25500000000E-02 0. -1.
    8880022    1    1    2    0    0  0.20491081472E+03  0.34753569306E+03 -0.38896570902E+02  0.43321368421E+03  0.15294330000E+03 0.  0.
    8880022    1    1    2    0    0 -0.20491081472E+03 -0.34753569306E+03 -0.73733605048E+03  0.85429831107E+03  0.15294330000E+03 0.  0.
<mgrwt>
<rscale>  0 0.43146396E+03</rscale>
<asrwt>0</asrwt>
<pdfrwt beam="1">  1        2 0.15874958E+00 0.43146396E+03</pdfrwt>
<pdfrwt beam="2">  1       -2 0.39329183E-01 0.43146396E+03</pdfrwt>
<totfact> 0.15277805E+02</totfact>
</mgrwt>
</event>
<event>
 4    1  0.4840632E-008  0.5247512E+03  0.7818608E-02  0.1007513E+00
         -2   -1    0    0    0  501 -0.00000000000E+00  0.00000000000E+00  0.25990944130E+03  0.25990944131E+03  0.25500000000E-02 0.  1.
          2   -1    0    0  501    0  0.00000000000E+00 -0.00000000000E+00 -0.18738644517E+04  0.18738644517E+04  0.25500000000E-02 0. -1.
    8880022    1    1    2    0    0 -0.12916286887E+03  0.48506607408E+03 -0.15103238614E+04  0.15988877266E+04  0.15294330000E+03 0.  0.
    8880022    1    1    2    0    0  0.12916286887E+03 -0.48506607408E+03 -0.10363114894E+03  0.53488616636E+03  0.15294330000E+03 0.  0.
<mgrwt>
<rscale>  0 0.52475118E+03</rscale>
<asrwt>0</asrwt>
<pdfrwt beam="1">  1        2 0.28828683E+00 0.52475118E+03</pdfrwt>
<pdfrwt beam="2">  1       -2 0.39986069E-01 0.52475118E+03</pdfrwt>
<totfact> 0.49293314E+01</totfact>
</mgrwt>
</event>
<event>
 4    1  0.5355516E-008  0.3997176E+03  0.7818608E-02  0.1043878E+00
          2   -1    0    0  501    0  0.00000000000E+00  0.00000000000E+00  0.18257158027E+04  0.18257158027E+04  0.25500000000E-02 0. -1.
         -2   -1    0    0    0  501 -0.00000000000E+00 -0.00000000000E+00 -0.66905043230E+03  0.66905043231E+03  0.25500000000E-02 0.  1.
    8880022    1    1    2    0    0  0.30198015904E+03  0.21258053553E+03  0.17412777840E+04  0.17865672321E+04  0.15294330000E+03 0.  0.
    8880022    1    1    2    0    0 -0.30198015904E+03 -0.21258053553E+03 -0.58461241365E+03  0.70819900293E+03  0.15294330000E+03 0.  0.
<mgrwt>
<rscale>  0 0.39971759E+03</rscale>
<asrwt>0</asrwt>
<pdfrwt beam="1">  1        2 0.28087935E+00 0.39971759E+03</pdfrwt>
<pdfrwt beam="2">  1       -2 0.10293084E+00 0.39971759E+03</pdfrwt>
<totfact> 0.71516472E+00</totfact>
</mgrwt>
</event>
<event>
 4    1  0.5909626E-008  0.8115270E+03  0.7818608E-02  0.9543480E-01
         -2   -1    0    0    0  501 -0.00000000000E+00  0.00000000000E+00  0.95524604083E+03  0.95524604083E+03  0.25500000000E-02 0.  1.
          2   -1    0    0  501    0  0.00000000000E+00 -0.00000000000E+00 -0.40061871325E+04  0.40061871325E+04  0.25500000000E-02 0. -1.
    8880022    1    1    2    0    0 -0.25870397039E+03  0.75382802458E+03  0.73172048014E+03  0.10926989288E+04  0.15294330000E+03 0.  0.
    8880022    1    1    2    0    0  0.25870397039E+03 -0.75382802458E+03 -0.37826615718E+04  0.38687342446E+04  0.15294330000E+03 0.  0.
<mgrwt>
<rscale>  0 0.81152701E+03</rscale>
<asrwt>0</asrwt>
<pdfrwt beam="1">  1        2 0.61633648E+00 0.81152701E+03</pdfrwt>
<pdfrwt beam="2">  1       -2 0.14696093E+00 0.81152701E+03</pdfrwt>
<totfact> 0.11738830E-01</totfact>
</mgrwt>
</event>
<event>
 4    1  0.4840632E-008  0.6702380E+03  0.7818608E-02  0.9769528E-01
          2   -1    0    0  501    0  0.00000000000E+00  0.00000000000E+00  0.18110347246E+04  0.18110347246E+04  0.25500000000E-02 0. -1.
         -2   -1    0    0    0  501 -0.00000000000E+00 -0.00000000000E+00 -0.29147803638E+03  0.29147803639E+03  0.25500000000E-02 0.  1.
    8880022    1    1    2    0    0  0.13053893069E+03  0.63936449348E+03  0.35397716610E+03  0.75797022044E+03  0.15294330000E+03 0.  0.
    8880022    1    1    2    0    0 -0.13053893069E+03 -0.63936449348E+03  0.11655795222E+04  0.13445425406E+04  0.15294330000E+03 0.  0.
<mgrwt>
<rscale>  0 0.67023803E+03</rscale>
<asrwt>0</asrwt>
<pdfrwt beam="1">  1        2 0.27862072E+00 0.67023803E+03</pdfrwt>
<pdfrwt beam="2">  1       -2 0.44842775E-01 0.67023803E+03</pdfrwt>
<totfact> 0.41643556E+01</totfact>
</mgrwt>
</event>
<event>
 4    1  0.4840632E-008  0.5556182E+03  0.7818608E-02  0.1000202E+00
         -2   -1    0    0    0  501 -0.00000000000E+00  0.00000000000E+00  0.50034558036E+03  0.50034558037E+03  0.25500000000E-02 0.  1.
          2   -1    0    0  501    0  0.00000000000E+00 -0.00000000000E+00 -0.17818787512E+04  0.17818787512E+04  0.25500000000E-02 0. -1.
    8880022    1    1    2    0    0  0.63718133287E+02 -0.53033949253E+03  0.28186903167E+03  0.62302630913E+03  0.15294330000E+03 0.  0.
    8880022    1    1    2    0    0 -0.63718133287E+02  0.53033949253E+03 -0.15634022025E+04  0.16591980224E+04  0.15294330000E+03 0.  0.
<mgrwt>
<rscale>  0 0.55561824E+03</rscale>
<asrwt>0</asrwt>
<pdfrwt beam="1">  1        2 0.27413519E+00 0.55561824E+03</pdfrwt>
<pdfrwt beam="2">  1       -2 0.76976244E-01 0.55561824E+03</pdfrwt>
<totfact> 0.14145599E+01</totfact>
</mgrwt>
</event>
<event>
 4    1  0.4840632E-008  0.2491870E+03  0.7818608E-02  0.1113820E+00
          2   -1    0    0  501    0  0.00000000000E+00  0.00000000000E+00  0.36022353519E+03  0.36022353520E+03  0.25500000000E-02 0. -1.
         -2   -1    0    0    0  501 -0.00000000000E+00 -0.00000000000E+00 -0.28123829123E+03  0.28123829124E+03  0.25500000000E-02 0.  1.
    8880022    1    1    2    0    0 -0.37523912979E+01 -0.19669377768E+03  0.23903758098E+03  0.34530152151E+03  0.15294330000E+03 0.  0.
    8880022    1    1    2    0    0  0.37523912979E+01  0.19669377768E+03 -0.16005233703E+03  0.29616030494E+03  0.15294330000E+03 0.  0.
<mgrwt>
<rscale>  0 0.24918703E+03</rscale>
<asrwt>0</asrwt>
<pdfrwt beam="1">  1        2 0.55419006E-01 0.24918703E+03</pdfrwt>
<pdfrwt beam="2">  1       -2 0.43267429E-01 0.24918703E+03</pdfrwt>
<totfact> 0.46066869E+02</totfact>
</mgrwt>
</event>
<event>
 4    1  0.4840632E-008  0.3155916E+03  0.7818608E-02  0.1077696E+00
          2   -1    0    0  501    0  0.00000000000E+00  0.00000000000E+00  0.72110875943E+03  0.72110875943E+03  0.25500000000E-02 0. -1.
         -2   -1    0    0    0  501 -0.00000000000E+00 -0.00000000000E+00 -0.27820047478E+03  0.27820047479E+03  0.25500000000E-02 0.  1.
    8880022    1    1    2    0    0  0.46466140937E+02 -0.27211630351E+03 -0.13310036194E+03  0.34251094034E+03  0.15294330000E+03 0.  0.
    8880022    1    1    2    0    0 -0.46466140937E+02  0.27211630351E+03  0.57600864659E+03  0.65679829389E+03  0.15294330000E+03 0. -1.
<mgrwt>
<rscale>  0 0.31559157E+03</rscale>
<asrwt>0</asrwt>
<pdfrwt beam="1">  1        2 0.11093981E+00 0.31559157E+03</pdfrwt>
<pdfrwt beam="2">  1       -2 0.42800074E-01 0.31559157E+03</pdfrwt>
<totfact> 0.21231473E+02</totfact>
</mgrwt>
</event>
<event>
 4    1  0.4840632E-008  0.7226083E+03  0.7818608E-02  0.9679331E-01
          2   -1    0    0  501    0  0.00000000000E+00  0.00000000000E+00  0.12180029319E+04  0.12180029319E+04  0.25500000000E-02 0. -1.
         -2   -1    0    0    0  501 -0.00000000000E+00 -0.00000000000E+00 -0.51140558162E+03  0.51140558163E+03  0.25500000000E-02 0.  1.
    8880022    1    1    2    0    0 -0.57336932526E+03 -0.41233325145E+03  0.70102833443E+03  0.10067787603E+04  0.15294330000E+03 0.  0.
    8880022    1    1    2    0    0  0.57336932526E+03  0.41233325145E+03  0.55690158659E+01  0.72262975330E+03  0.15294330000E+03 0.  0.
<mgrwt>
<rscale>  0 0.72260829E+03</rscale>
<asrwt>0</asrwt>
<pdfrwt beam="1">  1        2 0.18738507E+00 0.72260829E+03</pdfrwt>
<pdfrwt beam="2">  1       -2 0.78677782E-01 0.72260829E+03</pdfrwt>
<totfact> 0.27101894E+01</totfact>
</mgrwt>
</event>
<event>
 4    1  0.4840632E-008  0.5352149E+03  0.7818608E-02  0.1004975E+00
          2   -1    0    0  501    0  0.00000000000E+00  0.00000000000E+00  0.87297692411E+03  0.87297692412E+03  0.25500000000E-02 0. -1.
         -2   -1    0    0    0  501 -0.00000000000E+00 -0.00000000000E+00 -0.52521535962E+03  0.52521535963E+03  0.25500000000E-02 0.  1.
    8880022    1    1    2    0    0  0.34108274253E+03  0.38304816957E+03  0.60212250386E+03  0.80560939675E+03  0.15294330000E+03 0.  0.
    8880022    1    1    2    0    0 -0.34108274253E+03 -0.38304816957E+03 -0.25436093937E+03  0.59258288699E+03  0.15294330000E+03 0.  1.
<mgrwt>
<rscale>  0 0.53521490E+03</rscale>
<asrwt>0</asrwt>
<pdfrwt beam="1">  1        2 0.13430414E+00 0.53521490E+03</pdfrwt>
<pdfrwt beam="2">  1       -2 0.80802363E-01 0.53521490E+03</pdfrwt>
<totfact> 0.42864592E+01</totfact>
</mgrwt>
</event>
<event>
 4    1  0.4840632E-008  0.3286974E+03  0.7818608E-02  0.1071715E+00
         -2   -1    0    0    0  501 -0.00000000000E+00  0.00000000000E+00  0.10337424398E+03  0.10337424401E+03  0.25500000000E-02 0.  1.
          2   -1    0    0  501    0  0.00000000000E+00 -0.00000000000E+00 -0.33312871766E+04  0.33312871766E+04  0.25500000000E-02 0. -1.
    8880022    1    1    2    0    0  0.15296538985E+03  0.24749125795E+03 -0.19130446307E+03  0.38031484833E+03  0.15294330000E+03 0.  1.
    8880022    1    1    2    0    0 -0.15296538985E+03 -0.24749125795E+03 -0.30366084696E+04  0.30543465723E+04  0.15294330000E+03 0.  0.
<mgrwt>
<rscale>  0 0.32869741E+03</rscale>
<asrwt>0</asrwt>
<pdfrwt beam="1">  1        2 0.51250564E+00 0.32869741E+03</pdfrwt>
<pdfrwt beam="2">  1       -2 0.15903732E-01 0.32869741E+03</pdfrwt>
<totfact> 0.39769793E+01</totfact>
</mgrwt>
</event>
<event>
 4    1  0.4840632E-008  0.6204841E+03  0.7818608E-02  0.9863796E-01
         -2   -1    0    0    0  501 -0.00000000000E+00  0.00000000000E+00  0.32897613151E+04  0.32897613151E+04  0.25500000000E-02 0.  1.
          2   -1    0    0  501    0  0.00000000000E+00 -0.00000000000E+00 -0.44105899134E+03  0.44105899135E+03  0.25500000000E-02 0. -1.
    8880022    1    1    2    0    0 -0.50954391955E+03 -0.31933343408E+03  0.30232389476E+04  0.30862556983E+04  0.15294330000E+03 0.  0.
    8880022    1    1    2    0    0  0.50954391955E+03  0.31933343408E+03 -0.17453662379E+03  0.64456460819E+03  0.15294330000E+03 0.  0.
<mgrwt>
<rscale>  0 0.62048409E+03</rscale>
<asrwt>0</asrwt>
<pdfrwt beam="1">  1        2 0.67855229E-01 0.62048409E+03</pdfrwt>
<pdfrwt beam="2">  1       -2 0.50611713E+00 0.62048409E+03</pdfrwt>
<totfact> 0.11692336E-01</totfact>
</mgrwt>
</event>
<event>
 4    1  0.4840632E-008  0.5122628E+03  0.7818608E-02  0.1010627E+00
         -2   -1    0    0    0  501 -0.00000000000E+00  0.00000000000E+00  0.14950231056E+04  0.14950231056E+04  0.25500000000E-02 0.  1.
          2   -1    0    0  501    0  0.00000000000E+00 -0.00000000000E+00 -0.11043863678E+04  0.11043863678E+04  0.25500000000E-02 0. -1.
    8880022    1    1    2    0    0 -0.38518197424E+03 -0.30109192078E+03 -0.99663634437E+03  0.11205789370E+04  0.15294330000E+03 0. -1.
    8880022    1    1    2    0    0  0.38518197424E+03  0.30109192078E+03  0.13872730821E+04  0.14788305364E+04  0.15294330000E+03 0.  0.
<mgrwt>
<rscale>  0 0.51226278E+03</rscale>
<asrwt>0</asrwt>
<pdfrwt beam="1">  1        2 0.16990559E+00 0.51226278E+03</pdfrwt>
<pdfrwt beam="2">  1       -2 0.23000356E+00 0.51226278E+03</pdfrwt>
<totfact> 0.20037278E+00</totfact>
</mgrwt>
</event>
<event>
 4    1  0.4840632E-008  0.2710461E+03  0.7818608E-02  0.1100682E+00
         -2   -1    0    0    0  501 -0.00000000000E+00  0.00000000000E+00  0.42572112584E+03  0.42572112585E+03  0.25500000000E-02 0.  1.
          2   -1    0    0  501    0  0.00000000000E+00 -0.00000000000E+00 -0.90016829993E+03  0.90016829993E+03  0.25500000000E-02 0. -1.
    8880022    1    1    2    0    0 -0.11664801024E+03 -0.19096485000E+03  0.35879772491E+03  0.44966853642E+03  0.15294330000E+03 0.  1.
    8880022    1    1    2    0    0  0.11664801024E+03  0.19096485000E+03 -0.83324489900E+03  0.87622088936E+03  0.15294330000E+03 0.  0.
<mgrwt>
<rscale>  0 0.27104609E+03</rscale>
<asrwt>0</asrwt>
<pdfrwt beam="1">  1        2 0.13848743E+00 0.27104609E+03</pdfrwt>
<pdfrwt beam="2">  1       -2 0.65495558E-01 0.27104609E+03</pdfrwt>
<totfact> 0.67735157E+01</totfact>
</mgrwt>
</event>
<event>
 4    1  0.4840632E-008  0.1369639E+04  0.7818608E-02  0.8976094E-01
          2   -1    0    0  501    0  0.00000000000E+00  0.00000000000E+00  0.92840463297E+03  0.92840463297E+03  0.25500000000E-02 0. -1.
         -2   -1    0    0    0  501 -0.00000000000E+00 -0.00000000000E+00 -0.22491677904E+04  0.22491677904E+04  0.25500000000E-02 0.  1.
    8880022    1    1    2    0    0  0.74634366123E+03 -0.11381957253E+04 -0.11668903782E+04  0.17993174198E+04  0.15294330000E+03 0.  0.
    8880022    1    1    2    0    0 -0.74634366123E+03  0.11381957253E+04 -0.15387277930E+03  0.13782550036E+04  0.15294330000E+03 0.  0.
<mgrwt>
<rscale>  0 0.13696386E+04</rscale>
<asrwt>0</asrwt>
<pdfrwt beam="1">  1        2 0.14283148E+00 0.13696386E+04</pdfrwt>
<pdfrwt beam="2">  1       -2 0.34602581E+00 0.13696386E+04</pdfrwt>
<totfact> 0.44570007E-01</totfact>
</mgrwt>
</event>
<event>
 4    1  0.4840632E-008  0.5929219E+03  0.7818608E-02  0.9920201E-01
          2   -1    0    0  501    0  0.00000000000E+00  0.00000000000E+00  0.17827349328E+04  0.17827349328E+04  0.25500000000E-02 0. -1.
         -2   -1    0    0    0  501 -0.00000000000E+00 -0.00000000000E+00 -0.27736714342E+03  0.27736714344E+03  0.25500000000E-02 0.  1.
    8880022    1    1    2    0    0 -0.55142998627E+03 -0.15520873848E+03  0.19891601662E+03  0.62539908614E+03  0.15294330000E+03 0.  0.
    8880022    1    1    2    0    0  0.55142998627E+03  0.15520873848E+03  0.13064517728E+04  0.14347029901E+04  0.15294330000E+03 0.  0.
<mgrwt>
<rscale>  0 0.59292195E+03</rscale>
<asrwt>0</asrwt>
<pdfrwt beam="1">  1        2 0.27426692E+00 0.59292195E+03</pdfrwt>
<pdfrwt beam="2">  1       -2 0.42671868E-01 0.59292195E+03</pdfrwt>
<totfact> 0.48103281E+01</totfact>
</mgrwt>
</event>
<event>
 4    1  0.4840632E-008  0.1177024E+04  0.7818608E-02  0.9133208E-01
          2   -1    0    0  501    0  0.00000000000E+00  0.00000000000E+00  0.23656038454E+04  0.23656038454E+04  0.25500000000E-02 0. -1.
         -2   -1    0    0    0  501 -0.00000000000E+00 -0.00000000000E+00 -0.63002439534E+03  0.63002439534E+03  0.25500000000E-02 0.  1.
    8880022    1    1    2    0    0 -0.11032670064E+04  0.38052059785E+03  0.12653545740E+04  0.17281515743E+04  0.15294330000E+03 0.  0.
    8880022    1    1    2    0    0  0.11032670064E+04 -0.38052059785E+03  0.47022487606E+03  0.12674766664E+04  0.15294330000E+03 0.  0.
<mgrwt>
<rscale>  0 0.11770241E+04</rscale>
<asrwt>0</asrwt>
<pdfrwt beam="1">  1        2 0.36393905E+00 0.11770241E+04</pdfrwt>
<pdfrwt beam="2">  1       -2 0.96926831E-01 0.11770241E+04</pdfrwt>
<totfact> 0.36426903E+00</totfact>
</mgrwt>
</event>
<event>
 4    1  0.4840632E-008  0.1726930E+04  0.7818608E-02  0.8746152E-01
          2   -1    0    0  501    0  0.00000000000E+00  0.00000000000E+00  0.31708041233E+04  0.31708041233E+04  0.25500000000E-02 0. -1.
         -2   -1    0    0    0  501 -0.00000000000E+00 -0.00000000000E+00 -0.10181589166E+04  0.10181589166E+04  0.25500000000E-02 0.  1.
    8880022    1    1    2    0    0 -0.62361696790E+03 -0.16031216586E+04  0.49804781732E+03  0.17973147905E+04  0.15294330000E+03 0.  0.
    8880022    1    1    2    0    0  0.62361696790E+03  0.16031216586E+04  0.16545973894E+04  0.23916482494E+04  0.15294330000E+03 0.  0.
<mgrwt>
<rscale>  0 0.17269305E+04</rscale>
<asrwt>0</asrwt>
<pdfrwt beam="1">  1        2 0.48781601E+00 0.17269305E+04</pdfrwt>
<pdfrwt beam="2">  1       -2 0.15663984E+00 0.17269305E+04</pdfrwt>
<totfact> 0.33437034E-01</totfact>
</mgrwt>
</event>
<event>
 4    1  0.4840632E-008  0.3044846E+03  0.7818608E-02  0.1083020E+00
         -2   -1    0    0    0  501 -0.00000000000E+00  0.00000000000E+00  0.36304777225E+03  0.36304777226E+03  0.25500000000E-02 0.  1.
          2   -1    0    0  501    0  0.00000000000E+00 -0.00000000000E+00 -0.11304571958E+04  0.11304571958E+04  0.25500000000E-02 0. -1.
    8880022    1    1    2    0    0  0.11810544958E+03 -0.23530897421E+03  0.27331094780E+03  0.40915735086E+03  0.15294330000E+03 0.  0.
    8880022    1    1    2    0    0 -0.11810544958E+03  0.23530897421E+03 -0.10407203713E+04  0.10843476172E+04  0.15294330000E+03 0.  0.
<mgrwt>
<rscale>  0 0.30448459E+03</rscale>
<asrwt>0</asrwt>
<pdfrwt beam="1">  1        2 0.17391649E+00 0.30448459E+03</pdfrwt>
<pdfrwt beam="2">  1       -2 0.55853504E-01 0.30448459E+03</pdfrwt>
<totfact> 0.67699976E+01</totfact>
</mgrwt>
</event>
<event>
 4    1  0.4840632E-008  0.4197691E+03  0.7818608E-02  0.1037141E+00
         -2   -1    0    0    0  501 -0.00000000000E+00  0.00000000000E+00  0.63154496936E+03  0.63154496937E+03  0.25500000000E-02 0.  1.
          2   -1    0    0  501    0  0.00000000000E+00 -0.00000000000E+00 -0.56304326173E+03  0.56304326174E+03  0.25500000000E-02 0. -1.
    8880022    1    1    2    0    0  0.16254830638E+03 -0.35551721175E+03 -0.38998121059E+03  0.57296722191E+03  0.15294330000E+03 0. -1.
    8880022    1    1    2    0    0 -0.16254830638E+03  0.35551721175E+03  0.45848291822E+03  0.62162100919E+03  0.15294330000E+03 0.  1.
<mgrwt>
<rscale>  0 0.41976909E+03</rscale>
<asrwt>0</asrwt>
<pdfrwt beam="1">  1        2 0.86622041E-01 0.41976909E+03</pdfrwt>
<pdfrwt beam="2">  1       -2 0.97160764E-01 0.41976909E+03</pdfrwt>
<totfact> 0.49377701E+01</totfact>
</mgrwt>
</event>
<event>
 4    1  0.4840632E-008  0.5692523E+03  0.7818608E-02  0.9971334E-01
         -2   -1    0    0    0  501 -0.00000000000E+00  0.00000000000E+00  0.38172607619E+03  0.38172607620E+03  0.25500000000E-02 0.  1.
          2   -1    0    0  501    0  0.00000000000E+00 -0.00000000000E+00 -0.12679009749E+04  0.12679009749E+04  0.25500000000E-02 0. -1.
    8880022    1    1    2    0    0  0.40369841812E+03  0.37105817221E+03 -0.91724133096E+03  0.10795276246E+04  0.15294330000E+03 0.  0.
    8880022    1    1    2    0    0 -0.40369841812E+03 -0.37105817221E+03  0.31066432215E+02  0.57009942658E+03  0.15294330000E+03 0.  0.
<mgrwt>
<rscale>  0 0.56925235E+03</rscale>
<asrwt>0</asrwt>
<pdfrwt beam="1">  1        2 0.19506169E+00 0.56925235E+03</pdfrwt>
<pdfrwt beam="2">  1       -2 0.58727089E-01 0.56925235E+03</pdfrwt>
<totfact> 0.48629647E+01</totfact>
</mgrwt>
</event>
<event>
 4    1  0.4840632E-008  0.1607529E+03  0.7818608E-02  0.1187849E+00
          2   -1    0    0  501    0  0.00000000000E+00  0.00000000000E+00  0.68771635116E+03  0.68771635117E+03  0.25500000000E-02 0. -1.
         -2   -1    0    0    0  501 -0.00000000000E+00 -0.00000000000E+00 -0.36372943194E+03  0.36372943195E+03  0.25500000000E-02 0.  1.
    8880022    1    1    2    0    0 -0.44532776127E+02  0.21602788761E+02  0.65982082507E+03  0.67912077192E+03  0.15294330000E+03 0.  0.
    8880022    1    1    2    0    0  0.44532776127E+02 -0.21602788761E+02 -0.33583390585E+03  0.37232501120E+03  0.15294330000E+03 0.  1.
<mgrwt>
<rscale>  0 0.16075292E+03</rscale>
<asrwt>0</asrwt>
<pdfrwt beam="1">  1        2 0.10580251E+00 0.16075292E+03</pdfrwt>
<pdfrwt beam="2">  1       -2 0.55958375E-01 0.16075292E+03</pdfrwt>
<totfact> 0.13505524E+02</totfact>
</mgrwt>
</event>
<event>
 4    1  0.4840632E-008  0.7303121E+03  0.7818608E-02  0.9666754E-01
          2   -1    0    0  501    0  0.00000000000E+00  0.00000000000E+00  0.11738268001E+04  0.11738268001E+04  0.25500000000E-02 0. -1.
         -2   -1    0    0    0  501 -0.00000000000E+00 -0.00000000000E+00 -0.68313886319E+03  0.68313886319E+03  0.25500000000E-02 0.  1.
    8880022    1    1    2    0    0  0.43329619316E+03  0.56764297894E+03 -0.29195315187E+03  0.78650647705E+03  0.15294330000E+03 0.  0.
    8880022    1    1    2    0    0 -0.43329619316E+03 -0.56764297894E+03  0.78264108880E+03  0.10704591863E+04  0.15294330000E+03 0.  0.
<mgrwt>
<rscale>  0 0.73031212E+03</rscale>
<asrwt>0</asrwt>
<pdfrwt beam="1">  1        2 0.18058874E+00 0.73031212E+03</pdfrwt>
<pdfrwt beam="2">  1       -2 0.10509829E+00 0.73031212E+03</pdfrwt>
<totfact> 0.14712468E+01</totfact>
</mgrwt>
</event>
<event>
 4    1  0.4840632E-008  0.5194703E+03  0.7818608E-02  0.1008818E+00
         -2   -1    0    0    0  501 -0.00000000000E+00  0.00000000000E+00  0.55956615391E+03  0.55956615392E+03  0.25500000000E-02 0.  1.
          2   -1    0    0  501    0  0.00000000000E+00 -0.00000000000E+00 -0.20746622484E+04  0.20746622484E+04  0.25500000000E-02 0. -1.
    8880022    1    1    2    0    0  0.32639225230E+02 -0.49537102820E+03 -0.19114736619E+04  0.19808031169E+04  0.15294330000E+03 0.  0.
    8880022    1    1    2    0    0 -0.32639225230E+02  0.49537102820E+03  0.39637756747E+03  0.65342528541E+03  0.15294330000E+03 0.  0.
<mgrwt>
<rscale>  0 0.51947033E+03</rscale>
<asrwt>0</asrwt>
<pdfrwt beam="1">  1        2 0.31917880E+00 0.51947033E+03</pdfrwt>
<pdfrwt beam="2">  1       -2 0.86087102E-01 0.51947033E+03</pdfrwt>
<totfact> 0.77074324E+00</totfact>
</mgrwt>
</event>
<event>
 4    1  0.4840632E-008  0.4550295E+03  0.7818608E-02  0.1026233E+00
          2   -1    0    0  501    0  0.00000000000E+00  0.00000000000E+00  0.19032605972E+04  0.19032605972E+04  0.25500000000E-02 0. -1.
         -2   -1    0    0    0  501 -0.00000000000E+00 -0.00000000000E+00 -0.12847076446E+03  0.12847076448E+03  0.25500000000E-02 0.  1.
    8880022    1    1    2    0    0 -0.39349880068E+03 -0.16976115986E+03  0.48976616342E+03  0.66852277851E+03  0.15294330000E+03 0.  0.
    8880022    1    1    2    0    0  0.39349880068E+03  0.16976115986E+03  0.12850236694E+04  0.13632085832E+04  0.15294330000E+03 0.  0.
<mgrwt>
<rscale>  0 0.45502946E+03</rscale>
<asrwt>0</asrwt>
<pdfrwt beam="1">  1        2 0.29280933E+00 0.45502946E+03</pdfrwt>
<pdfrwt beam="2">  1       -2 0.19764732E-01 0.45502946E+03</pdfrwt>
<totfact> 0.17423699E+02</totfact>
</mgrwt>
</event>
<event>
 4    1  0.4840632E-008  0.7827880E+03  0.7818608E-02  0.9585270E-01
          2   -1    0    0  501    0  0.00000000000E+00  0.00000000000E+00  0.43206780264E+03  0.43206780265E+03  0.25500000000E-02 0. -1.
         -2   -1    0    0    0  501 -0.00000000000E+00 -0.00000000000E+00 -0.14735936132E+04  0.14735936132E+04  0.25500000000E-02 0.  1.
    8880022    1    1    2    0    0  0.71956486164E+03 -0.26756658576E+03 -0.70550665846E+03  0.10538011037E+04  0.15294330000E+03 0.  0.
    8880022    1    1    2    0    0 -0.71956486164E+03  0.26756658576E+03 -0.33601915212E+03  0.85186031222E+03  0.15294330000E+03 0.  0.
<mgrwt>
<rscale>  0 0.78278804E+03</rscale>
<asrwt>0</asrwt>
<pdfrwt beam="1">  1        2 0.66471971E-01 0.78278804E+03</pdfrwt>
<pdfrwt beam="2">  1       -2 0.22670671E+00 0.78278804E+03</pdfrwt>
<totfact> 0.66619169E+00</totfact>
</mgrwt>
</event>
<event>
 4    1  0.4840632E-008  0.7843829E+03  0.7818608E-02  0.9582901E-01
          2   -1    0    0  501    0  0.00000000000E+00  0.00000000000E+00  0.28475903678E+04  0.28475903678E+04  0.25500000000E-02 0. -1.
         -2   -1    0    0    0  501 -0.00000000000E+00 -0.00000000000E+00 -0.59811512021E+03  0.59811512022E+03  0.25500000000E-02 0.  1.
    8880022    1    1    2    0    0 -0.72892532408E+03 -0.24603411299E+03 -0.25221039251E+03  0.82393364293E+03  0.15294330000E+03 0.  0.
    8880022    1    1    2    0    0  0.72892532408E+03  0.24603411299E+03  0.25016856401E+04  0.26217718451E+04  0.15294330000E+03 0.  0.
<mgrwt>
<rscale>  0 0.78438292E+03</rscale>
<asrwt>0</asrwt>
<pdfrwt beam="1">  1        2 0.43809083E+00 0.78438292E+03</pdfrwt>
<pdfrwt beam="2">  1       -2 0.92017710E-01 0.78438292E+03</pdfrwt>
<totfact> 0.22907265E+00</totfact>
</mgrwt>
</event>
<event>
 4    1  0.4840632E-008  0.1690228E+03  0.7818608E-02  0.1178871E+00
          2   -1    0    0  501    0  0.00000000000E+00  0.00000000000E+00  0.25324127274E+03  0.25324127275E+03  0.25500000000E-02 0. -1.
         -2   -1    0    0    0  501 -0.00000000000E+00 -0.00000000000E+00 -0.15516325819E+03  0.15516325821E+03  0.25500000000E-02 0.  1.
    8880022    1    1    2    0    0  0.22643940121E+01 -0.71916014487E+02  0.15572280719E+03  0.22982229290E+03  0.15294330000E+03 0. -1.
    8880022    1    1    2    0    0 -0.22643940121E+01  0.71916014487E+02 -0.57644792637E+02  0.17858223807E+03  0.15294330000E+03 0.  1.
<mgrwt>
<rscale>  0 0.16902276E+03</rscale>
<asrwt>0</asrwt>
<pdfrwt beam="1">  1        2 0.38960196E-01 0.16902276E+03</pdfrwt>
<pdfrwt beam="2">  1       -2 0.23871270E-01 0.16902276E+03</pdfrwt>
<totfact> 0.19952727E+03</totfact>
</mgrwt>
</event>
<event>
 4    1  0.4840632E-008  0.1326925E+04  0.7818608E-02  0.9008482E-01
         -2   -1    0    0    0  501 -0.00000000000E+00  0.00000000000E+00  0.89653440288E+03  0.89653440289E+03  0.25500000000E-02 0.  1.
          2   -1    0    0  501    0  0.00000000000E+00 -0.00000000000E+00 -0.22374643671E+04  0.22374643671E+04  0.25500000000E-02 0. -1.
    8880022    1    1    2    0    0  0.45370028272E+03  0.12375351366E+04 -0.12183614228E+04  0.18014253719E+04  0.15294330000E+03 0.  0.
    8880022    1    1    2    0    0 -0.45370028272E+03 -0.12375351366E+04 -0.12256854137E+03  0.13325733981E+04  0.15294330000E+03 0.  0.
<mgrwt>
<rscale>  0 0.13269246E+04</rscale>
<asrwt>0</asrwt>
<pdfrwt beam="1">  1        2 0.34422528E+00 0.13269246E+04</pdfrwt>
<pdfrwt beam="2">  1       -2 0.13792837E+00 0.13269246E+04</pdfrwt>
<totfact> 0.17673765E+00</totfact>
</mgrwt>
</event>
<event>
 4    1  0.4840632E-008  0.2839008E+03  0.7818608E-02  0.1093577E+00
          2   -1    0    0  501    0  0.00000000000E+00  0.00000000000E+00  0.56199166480E+03  0.56199166481E+03  0.25500000000E-02 0. -1.
         -2   -1    0    0    0  501 -0.00000000000E+00 -0.00000000000E+00 -0.22714647658E+03  0.22714647660E+03  0.25500000000E-02 0.  1.
    8880022    1    1    2    0    0  0.23612152402E+03  0.38139528763E+02 -0.72133351142E+02  0.29292127120E+03  0.15294330000E+03 0.  1.
    8880022    1    1    2    0    0 -0.23612152402E+03 -0.38139528763E+02  0.40697853936E+03  0.49621687020E+03  0.15294330000E+03 0.  0.
<mgrwt>
<rscale>  0 0.28390078E+03</rscale>
<asrwt>0</asrwt>
<pdfrwt beam="1">  1        2 0.86460256E-01 0.28390078E+03</pdfrwt>
<pdfrwt beam="2">  1       -2 0.34945612E-01 0.28390078E+03</pdfrwt>
<totfact> 0.42191864E+02</totfact>
</mgrwt>
</event>
<event>
 4    1  0.4840632E-008  0.4233546E+03  0.7818608E-02  0.1035980E+00
         -2   -1    0    0    0  501 -0.00000000000E+00  0.00000000000E+00  0.91011756094E+03  0.91011756094E+03  0.25500000000E-02 0.  1.
          2   -1    0    0  501    0  0.00000000000E+00 -0.00000000000E+00 -0.60354496714E+03  0.60354496714E+03  0.25500000000E-02 0. -1.
    8880022    1    1    2    0    0  0.33815303433E+03  0.20369096877E+03 -0.46792037514E+03  0.63101395853E+03  0.15294330000E+03 0. -1.
    8880022    1    1    2    0    0 -0.33815303433E+03 -0.20369096877E+03  0.77449296893E+03  0.88264856955E+03  0.15294330000E+03 0.  0.
<mgrwt>
<rscale>  0 0.42335462E+03</rscale>
<asrwt>0</asrwt>
<pdfrwt beam="1">  1        2 0.92853072E-01 0.42335462E+03</pdfrwt>
<pdfrwt beam="2">  1       -2 0.14001809E+00 0.42335462E+03</pdfrwt>
<totfact> 0.18651764E+01</totfact>
</mgrwt>
</event>
<event>
 4    1  0.4840632E-008  0.2570604E+03  0.7818608E-02  0.1108922E+00
         -2   -1    0    0    0  501 -0.00000000000E+00  0.00000000000E+00  0.15731928122E+03  0.15731928124E+03  0.25500000000E-02 0.  1.
          2   -1    0    0  501    0  0.00000000000E+00 -0.00000000000E+00 -0.12638174001E+04  0.12638174001E+04  0.25500000000E-02 0. -1.
    8880022    1    1    2    0    0 -0.30910578979E+02  0.20428634464E+03  0.27352539262E+02  0.25851148701E+03  0.15294330000E+03 0.  1.
    8880022    1    1    2    0    0  0.30910578979E+02 -0.20428634464E+03 -0.11338506582E+04  0.11626251944E+04  0.15294330000E+03 0.  0.
<mgrwt>
<rscale>  0 0.25706036E+03</rscale>
<asrwt>0</asrwt>
<pdfrwt beam="1">  1        2 0.19443344E+00 0.25706036E+03</pdfrwt>
<pdfrwt beam="2">  1       -2 0.24202967E-01 0.25706036E+03</pdfrwt>
<totfact> 0.27963843E+02</totfact>
</mgrwt>
</event>
<event>
 4    1  0.4840632E-008  0.7769663E+03  0.7818608E-02  0.9593969E-01
         -2   -1    0    0    0  501 -0.00000000000E+00  0.00000000000E+00  0.41778708311E+03  0.41778708312E+03  0.25500000000E-02 0.  1.
          2   -1    0    0  501    0  0.00000000000E+00 -0.00000000000E+00 -0.26495575453E+04  0.26495575453E+04  0.25500000000E-02 0. -1.
    8880022    1    1    2    0    0 -0.63202299052E+03 -0.42524344731E+03 -0.81765712044E+02  0.78125689418E+03  0.15294330000E+03 0.  0.
    8880022    1    1    2    0    0  0.63202299052E+03  0.42524344731E+03 -0.21500047502E+04  0.22860877343E+04  0.15294330000E+03 0.  0.
<mgrwt>
<rscale>  0 0.77696635E+03</rscale>
<asrwt>0</asrwt>
<pdfrwt beam="1">  1        2 0.40762423E+00 0.77696635E+03</pdfrwt>
<pdfrwt beam="2">  1       -2 0.64274937E-01 0.77696635E+03</pdfrwt>
<totfact> 0.66748646E+00</totfact>
</mgrwt>
</event>
<event>
 4    1  0.4840632E-008  0.3965392E+03  0.7818608E-02  0.1044985E+00
         -2   -1    0    0    0  501 -0.00000000000E+00  0.00000000000E+00  0.43004055764E+03  0.43004055764E+03  0.25500000000E-02 0.  1.
          2   -1    0    0  501    0  0.00000000000E+00 -0.00000000000E+00 -0.18473370107E+04  0.18473370107E+04  0.25500000000E-02 0. -1.
    8880022    1    1    2    0    0 -0.30888031914E+03  0.19607300149E+03  0.31114132058E+03  0.50403595889E+03  0.15294330000E+03 0.  0.
    8880022    1    1    2    0    0  0.30888031914E+03 -0.19607300149E+03 -0.17284377737E+04  0.17733416095E+04  0.15294330000E+03 0.  0.
<mgrwt>
<rscale>  0 0.39653919E+03</rscale>
<asrwt>0</asrwt>
<pdfrwt beam="1">  1        2 0.28420569E+00 0.39653919E+03</pdfrwt>
<pdfrwt beam="2">  1       -2 0.66160086E-01 0.39653919E+03</pdfrwt>
<totfact> 0.18796030E+01</totfact>
</mgrwt>
</event>
<event>
 4    1  0.4840632E-008  0.3755800E+03  0.7818608E-02  0.1052580E+00
         -2   -1    0    0    0  501 -0.00000000000E+00  0.00000000000E+00  0.41720265107E+03  0.41720265108E+03  0.25500000000E-02 0.  1.
          2   -1    0    0  501    0  0.00000000000E+00 -0.00000000000E+00 -0.91128232112E+03  0.91128232112E+03  0.25500000000E-02 0. -1.
    8880022    1    1    2    0    0 -0.17754222654E+03 -0.29350886411E+03 -0.77383625991E+03  0.86016446432E+03  0.15294330000E+03 0.  0.
    8880022    1    1    2    0    0  0.17754222654E+03  0.29350886411E+03  0.27975658986E+03  0.46832050788E+03  0.15294330000E+03 0.  0.
<mgrwt>
<rscale>  0 0.37558002E+03</rscale>
<asrwt>0</asrwt>
<pdfrwt beam="1">  1        2 0.14019728E+00 0.37558002E+03</pdfrwt>
<pdfrwt beam="2">  1       -2 0.64185023E-01 0.37558002E+03</pdfrwt>
<totfact> 0.68240486E+01</totfact>
</mgrwt>
</event>
<event>
 4    1  0.4840632E-008  0.3446041E+03  0.7818608E-02  0.1064852E+00
          2   -1    0    0  501    0  0.00000000000E+00  0.00000000000E+00  0.18926880890E+04  0.18926880890E+04  0.25500000000E-02 0. -1.
         -2   -1    0    0    0  501 -0.00000000000E+00 -0.00000000000E+00 -0.38244966325E+03  0.38244966326E+03  0.25500000000E-02 0.  1.
    8880022    1    1    2    0    0  0.23207399538E+03  0.20372029629E+03 -0.28496080909E+03  0.44716284974E+03  0.15294330000E+03 0.  0.
    8880022    1    1    2    0    0 -0.23207399538E+03 -0.20372029629E+03  0.17951992349E+04  0.18279749025E+04  0.15294330000E+03 0.  0.
<mgrwt>
<rscale>  0 0.34460405E+03</rscale>
<asrwt>0</asrwt>
<pdfrwt beam="1">  1        2 0.29118279E+00 0.34460405E+03</pdfrwt>
<pdfrwt beam="2">  1       -2 0.58838409E-01 0.34460405E+03</pdfrwt>
<totfact> 0.23099353E+01</totfact>
</mgrwt>
</event>
<event>
 4    1  0.4840632E-008  0.1217175E+04  0.7818608E-02  0.9097955E-01
          2   -1    0    0  501    0  0.00000000000E+00  0.00000000000E+00  0.17610201783E+04  0.17610201783E+04  0.25500000000E-02 0. -1.
         -2   -1    0    0    0  501 -0.00000000000E+00 -0.00000000000E+00 -0.97088640810E+03  0.97088640810E+03  0.25500000000E-02 0.  1.
    8880022    1    1    2    0    0  0.95526689980E+03  0.73863981842E+03  0.89413618257E+03  0.15102962614E+04  0.15294330000E+03 0.  0.
    8880022    1    1    2    0    0 -0.95526689980E+03 -0.73863981842E+03 -0.10400241241E+03  0.12216103249E+04  0.15294330000E+03 0.  0.
<mgrwt>
<rscale>  0 0.12171751E+04</rscale>
<asrwt>0</asrwt>
<pdfrwt beam="1">  1        2 0.27092618E+00 0.12171751E+04</pdfrwt>
<pdfrwt beam="2">  1       -2 0.14936714E+00 0.12171751E+04</pdfrwt>
<totfact> 0.26673690E+00</totfact>
</mgrwt>
</event>
<event>
 4    1  0.4840632E-008  0.4531968E+03  0.7818608E-02  0.1026773E+00
          2   -1    0    0  501    0  0.00000000000E+00  0.00000000000E+00  0.27416315266E+03  0.27416315267E+03  0.25500000000E-02 0. -1.
         -2   -1    0    0    0  501 -0.00000000000E+00 -0.00000000000E+00 -0.95115832019E+03  0.95115832019E+03  0.25500000000E-02 0.  1.
    8880022    1    1    2    0    0 -0.26610084029E+03 -0.33344564523E+03 -0.56148631262E+02  0.45666177564E+03  0.15294330000E+03 0.  0.
    8880022    1    1    2    0    0  0.26610084029E+03  0.33344564523E+03 -0.62084653627E+03  0.76865969722E+03  0.15294330000E+03 0.  0.
<mgrwt>
<rscale>  0 0.45319677E+03</rscale>
<asrwt>0</asrwt>
<pdfrwt beam="1">  1        2 0.42178947E-01 0.45319677E+03</pdfrwt>
<pdfrwt beam="2">  1       -2 0.14633205E+00 0.45319677E+03</pdfrwt>
<totfact> 0.40202295E+01</totfact>
</mgrwt>
</event>
<event>
 4    1  0.4840632E-008  0.6218606E+03  0.7818608E-02  0.9861062E-01
         -2   -1    0    0    0  501 -0.00000000000E+00  0.00000000000E+00  0.53648080352E+03  0.53648080353E+03  0.25500000000E-02 0.  1.
          2   -1    0    0  501    0  0.00000000000E+00 -0.00000000000E+00 -0.12514689868E+04  0.12514689868E+04  0.25500000000E-02 0. -1.
    8880022    1    1    2    0    0 -0.24965640565E+03  0.54862608735E+03 -0.93961814036E+03  0.11267620899E+04  0.15294330000E+03 0.  0.
    8880022    1    1    2    0    0  0.24965640565E+03 -0.54862608735E+03  0.22462995703E+03  0.66118770044E+03  0.15294330000E+03 0.  0.
<mgrwt>
<rscale>  0 0.62186056E+03</rscale>
<asrwt>0</asrwt>
<pdfrwt beam="1">  1        2 0.19253369E+00 0.62186056E+03</pdfrwt>
<pdfrwt beam="2">  1       -2 0.82535509E-01 0.62186056E+03</pdfrwt>
<totfact> 0.23553194E+01</totfact>
</mgrwt>
</event>
<event>
 4    1  0.4840632E-008  0.1080240E+04  0.7818608E-02  0.9224668E-01
          2   -1    0    0  501    0  0.00000000000E+00  0.00000000000E+00  0.12656508940E+04  0.12656508940E+04  0.25500000000E-02 0. -1.
         -2   -1    0    0    0  501 -0.00000000000E+00 -0.00000000000E+00 -0.11546520178E+04  0.11546520178E+04  0.25500000000E-02 0.  1.
    8880022    1    1    2    0    0  0.73681954394E+03 -0.77499953473E+03  0.59871950408E+03  0.12350643776E+04  0.15294330000E+03 0.  0.
    8880022    1    1    2    0    0 -0.73681954394E+03  0.77499953473E+03 -0.48772062792E+03  0.11852385343E+04  0.15294330000E+03 0.  0.
<mgrwt>
<rscale>  0 0.10802402E+04</rscale>
<asrwt>0</asrwt>
<pdfrwt beam="1">  1        2 0.19471552E+00 0.10802402E+04</pdfrwt>
<pdfrwt beam="2">  1       -2 0.17763877E+00 0.10802402E+04</pdfrwt>
<totfact> 0.32046064E+00</totfact>
</mgrwt>
</event>
<event>
 4    1  0.4840632E-008  0.1997879E+03  0.7818608E-02  0.1149918E+00
         -2   -1    0    0    0  501 -0.00000000000E+00  0.00000000000E+00  0.11325356195E+03  0.11325356198E+03  0.25500000000E-02 0.  1.
          2   -1    0    0  501    0  0.00000000000E+00 -0.00000000000E+00 -0.23817026482E+04  0.23817026482E+04  0.25500000000E-02 0. -1.
    8880022    1    1    2    0    0 -0.54030974952E+02 -0.11663706328E+03 -0.22857092676E+04  0.22944241238E+04  0.15294330000E+03 0.  0.
    8880022    1    1    2    0    0  0.54030974952E+02  0.11663706328E+03  0.17260181389E+02  0.20053208636E+03  0.15294330000E+03 0.  1.
<mgrwt>
<rscale>  0 0.19978790E+03</rscale>
<asrwt>0</asrwt>
<pdfrwt beam="1">  1        2 0.36641575E+00 0.19978790E+03</pdfrwt>
<pdfrwt beam="2">  1       -2 0.17423627E-01 0.19978790E+03</pdfrwt>
<totfact> 0.12778821E+02</totfact>
</mgrwt>
</event>
<event>
 4    1  0.4840632E-008  0.1001984E+04  0.7818608E-02  0.9306372E-01
         -2   -1    0    0    0  501 -0.00000000000E+00  0.00000000000E+00  0.16178845596E+04  0.16178845596E+04  0.25500000000E-02 0.  1.
          2   -1    0    0  501    0  0.00000000000E+00 -0.00000000000E+00 -0.92101471012E+03  0.92101471012E+03  0.25500000000E-02 0. -1.
    8880022    1    1    2    0    0  0.98725090641E+03  0.76910688408E+02  0.10735084634E+04  0.14684657572E+04  0.15294330000E+03 0.  0.
    8880022    1    1    2    0    0 -0.98725090641E+03 -0.76910688408E+02 -0.37663861390E+03  0.10704335125E+04  0.15294330000E+03 0.  0.
<mgrwt>
<rscale>  0 0.10019837E+04</rscale>
<asrwt>0</asrwt>
<pdfrwt beam="1">  1        2 0.14169457E+00 0.10019837E+04</pdfrwt>
<pdfrwt beam="2">  1       -2 0.24890531E+00 0.10019837E+04</pdfrwt>
<totfact> 0.18461059E+00</totfact>
</mgrwt>
</event>
<event>
 4    1  0.4840632E-008  0.2391594E+03  0.7818608E-02  0.1120354E+00
          2   -1    0    0  501    0  0.00000000000E+00  0.00000000000E+00  0.90167468326E+03  0.90167468326E+03  0.25500000000E-02 0. -1.
         -2   -1    0    0    0  501 -0.00000000000E+00 -0.00000000000E+00 -0.16007015839E+03  0.16007015841E+03  0.25500000000E-02 0.  1.
    8880022    1    1    2    0    0  0.11530543417E+02  0.18350103668E+03 -0.41678592451E+02  0.24276396351E+03  0.15294330000E+03 0.  0.
    8880022    1    1    2    0    0 -0.11530543417E+02 -0.18350103668E+03  0.78328311732E+03  0.81898087816E+03  0.15294330000E+03 0. -1.
<mgrwt>
<rscale>  0 0.23915944E+03</rscale>
<asrwt>0</asrwt>
<pdfrwt beam="1">  1        2 0.13871918E+00 0.23915944E+03</pdfrwt>
<pdfrwt beam="2">  1       -2 0.24626178E-01 0.23915944E+03</pdfrwt>
<totfact> 0.44640596E+02</totfact>
</mgrwt>
</event>
<event>
 4    1  0.4840632E-008  0.1101035E+04  0.7818608E-02  0.9204183E-01
          2   -1    0    0  501    0  0.00000000000E+00  0.00000000000E+00  0.15679564796E+04  0.15679564796E+04  0.25500000000E-02 0. -1.
         -2   -1    0    0    0  501 -0.00000000000E+00 -0.00000000000E+00 -0.12963862431E+04  0.12963862431E+04  0.25500000000E-02 0.  1.
    8880022    1    1    2    0    0 -0.10051167935E+04 -0.42264341030E+03 -0.77407192534E+03  0.13459072106E+04  0.15294330000E+03 0.  0.
    8880022    1    1    2    0    0  0.10051167935E+04  0.42264341030E+03  0.10456421619E+04  0.15184355121E+04  0.15294330000E+03 0.  0.
<mgrwt>
<rscale>  0 0.11010354E+04</rscale>
<asrwt>0</asrwt>
<pdfrwt beam="1">  1        2 0.24122407E+00 0.11010354E+04</pdfrwt>
<pdfrwt beam="2">  1       -2 0.19944404E+00 0.11010354E+04</pdfrwt>
<totfact> 0.15297462E+00</totfact>
</mgrwt>
</event>
<event>
 4    1  0.4840632E-008  0.1890020E+03  0.7818608E-02  0.1159365E+00
          2   -1    0    0  501    0  0.00000000000E+00  0.00000000000E+00  0.24253523807E+04  0.24253523807E+04  0.25500000000E-02 0. -1.
         -2   -1    0    0    0  501 -0.00000000000E+00 -0.00000000000E+00 -0.86120131622E+02  0.86120131660E+02  0.25500000000E-02 0.  1.
    8880022    1    1    2    0    0  0.10901452773E+03  0.21117449762E+02  0.26290888406E+02  0.19082184825E+03  0.15294330000E+03 0.  0.
    8880022    1    1    2    0    0 -0.10901452773E+03 -0.21117449762E+02  0.23129413607E+04  0.23206506641E+04  0.15294330000E+03 0. -1.
<mgrwt>
<rscale>  0 0.18900203E+03</rscale>
<asrwt>0</asrwt>
<pdfrwt beam="1">  1        2 0.37313117E+00 0.18900203E+03</pdfrwt>
<pdfrwt beam="2">  1       -2 0.13249250E-01 0.18900203E+03</pdfrwt>
<totfact> 0.19113037E+02</totfact>
</mgrwt>
</event>
<event>
 4    1  0.4840632E-008  0.9120654E+03  0.7818608E-02  0.9410624E-01
          2   -1    0    0  501    0  0.00000000000E+00  0.00000000000E+00  0.12849827712E+04  0.12849827712E+04  0.25500000000E-02 0. -1.
         -2   -1    0    0    0  501 -0.00000000000E+00 -0.00000000000E+00 -0.65278029191E+03  0.65278029192E+03  0.25500000000E-02 0.  1.
    8880022    1    1    2    0    0  0.16293406996E+03  0.88426473648E+03  0.22792069176E+03  0.94011229653E+03  0.15294330000E+03 0. -1.
    8880022    1    1    2    0    0 -0.16293406996E+03 -0.88426473648E+03  0.40428178754E+03  0.99765076660E+03  0.15294330000E+03 0.  1.
<mgrwt>
<rscale>  0 0.91206540E+03</rscale>
<asrwt>0</asrwt>
<pdfrwt beam="1">  1        2 0.19768965E+00 0.91206540E+03</pdfrwt>
<pdfrwt beam="2">  1       -2 0.10042774E+00 0.91206540E+03</pdfrwt>
<totfact> 0.13830430E+01</totfact>
</mgrwt>
</event>
<event>
 4    1  0.4840632E-008  0.1328255E+04  0.7818608E-02  0.9007454E-01
         -2   -1    0    0    0  501 -0.00000000000E+00  0.00000000000E+00  0.20984165282E+04  0.20984165282E+04  0.25500000000E-02 0.  1.
          2   -1    0    0  501    0  0.00000000000E+00 -0.00000000000E+00 -0.97210501885E+03  0.97210501885E+03  0.25500000000E-02 0. -1.
    8880022    1    1    2    0    0 -0.55346627118E+03  0.11977252933E+04  0.11274870384E+04  0.17422656130E+04  0.15294330000E+03 0.  0.
    8880022    1    1    2    0    0  0.55346627118E+03 -0.11977252933E+04 -0.11755290237E+01  0.13282559341E+04  0.15294330000E+03 0.  0.
<mgrwt>
<rscale>  0 0.13282554E+04</rscale>
<asrwt>0</asrwt>
<pdfrwt beam="1">  1        2 0.14955462E+00 0.13282554E+04</pdfrwt>
<pdfrwt beam="2">  1       -2 0.32283331E+00 0.13282554E+04</pdfrwt>
<totfact> 0.58339334E-01</totfact>
</mgrwt>
</event>
<event>
 4    1  0.4840632E-008  0.2476396E+03  0.7818608E-02  0.1114806E+00
          2   -1    0    0  501    0  0.00000000000E+00  0.00000000000E+00  0.19715662417E+04  0.19715662417E+04  0.25500000000E-02 0. -1.
         -2   -1    0    0    0  501 -0.00000000000E+00 -0.00000000000E+00 -0.60690512393E+02  0.60690512446E+02  0.25500000000E-02 0.  1.
    8880022    1    1    2    0    0  0.18709472532E+03 -0.54122984606E+02  0.16648986580E+04  0.16832150570E+04  0.15294330000E+03 0.  0.
    8880022    1    1    2    0    0 -0.18709472532E+03  0.54122984606E+02  0.24597707124E+03  0.34904169708E+03  0.15294330000E+03 0.  0.
<mgrwt>
<rscale>  0 0.24763963E+03</rscale>
<asrwt>0</asrwt>
<pdfrwt beam="1">  1        2 0.30331790E+00 0.24763963E+03</pdfrwt>
<pdfrwt beam="2">  1       -2 0.93370015E-02 0.24763963E+03</pdfrwt>
<totfact> 0.57254281E+02</totfact>
</mgrwt>
</event>
<event>
 4    1  0.4840632E-008  0.9809783E+03  0.7818608E-02  0.9329657E-01
         -2   -1    0    0    0  501 -0.00000000000E+00  0.00000000000E+00  0.69832965146E+03  0.69832965146E+03  0.25500000000E-02 0.  1.
          2   -1    0    0  501    0  0.00000000000E+00 -0.00000000000E+00 -0.16752098967E+04  0.16752098968E+04  0.25500000000E-02 0. -1.
    8880022    1    1    2    0    0 -0.62444475547E+03 -0.74094237947E+03 -0.98829312136E+03  0.13924948147E+04  0.15294330000E+03 0.  0.
    8880022    1    1    2    0    0  0.62444475547E+03  0.74094237947E+03  0.11412876072E+02  0.98104473348E+03  0.15294330000E+03 0.  0.
<mgrwt>
<rscale>  0 0.98097835E+03</rscale>
<asrwt>0</asrwt>
<pdfrwt beam="1">  1        2 0.25772460E+00 0.98097835E+03</pdfrwt>
<pdfrwt beam="2">  1       -2 0.10743533E+00 0.98097835E+03</pdfrwt>
<totfact> 0.70308696E+00</totfact>
</mgrwt>
</event>
<event>
 4    1  0.4840632E-008  0.2968044E+03  0.7818608E-02  0.1086849E+00
          2   -1    0    0  501    0  0.00000000000E+00  0.00000000000E+00  0.25211793483E+04  0.25211793483E+04  0.25500000000E-02 0. -1.
         -2   -1    0    0    0  501 -0.00000000000E+00 -0.00000000000E+00 -0.81166376788E+02  0.81166376828E+02  0.25500000000E-02 0.  1.
    8880022    1    1    2    0    0  0.54643041851E+02  0.24842575456E+03  0.23806296678E+03  0.38048238687E+03  0.15294330000E+03 0.  0.
    8880022    1    1    2    0    0 -0.54643041851E+02 -0.24842575456E+03  0.22019500047E+04  0.22218633382E+04  0.15294330000E+03 0.  0.
<mgrwt>
<rscale>  0 0.29680443E+03</rscale>
<asrwt>0</asrwt>
<pdfrwt beam="1">  1        2 0.38787374E+00 0.29680443E+03</pdfrwt>
<pdfrwt beam="2">  1       -2 0.12487135E-01 0.29680443E+03</pdfrwt>
<totfact> 0.18022893E+02</totfact>
</mgrwt>
</event>
<event>
 4    1  0.4840632E-008  0.7959894E+03  0.7818608E-02  0.9565840E-01
          2   -1    0    0  501    0  0.00000000000E+00  0.00000000000E+00  0.57302820433E+03  0.57302820433E+03  0.25500000000E-02 0. -1.
         -2   -1    0    0    0  501 -0.00000000000E+00 -0.00000000000E+00 -0.19126125524E+04  0.19126125524E+04  0.25500000000E-02 0.  1.
    8880022    1    1    2    0    0  0.70514615436E+03 -0.33611956648E+03 -0.14770406643E+04  0.16778701496E+04  0.15294330000E+03 0.  0.
    8880022    1    1    2    0    0 -0.70514615436E+03  0.33611956648E+03  0.13745631615E+03  0.80777060719E+03  0.15294330000E+03 0. -1.
<mgrwt>
<rscale>  0 0.79598939E+03</rscale>
<asrwt>0</asrwt>
<pdfrwt beam="1">  1        2 0.88158186E-01 0.79598939E+03</pdfrwt>
<pdfrwt beam="2">  1       -2 0.29424808E+00 0.79598939E+03</pdfrwt>
<totfact> 0.18668335E+00</totfact>
</mgrwt>
</event>
<event>
 4    1  0.4840632E-008  0.8224790E+03  0.7818608E-02  0.9528038E-01
          2   -1    0    0  501    0  0.00000000000E+00  0.00000000000E+00  0.11635585172E+04  0.11635585172E+04  0.25500000000E-02 0. -1.
         -2   -1    0    0    0  501 -0.00000000000E+00 -0.00000000000E+00 -0.82311230162E+03  0.82311230162E+03  0.25500000000E-02 0.  1.
    8880022    1    1    2    0    0 -0.26267411215E+02 -0.80770671147E+03 -0.36808644238E+03  0.90108789290E+03  0.15294330000E+03 0.  0.
    8880022    1    1    2    0    0  0.26267411215E+02  0.80770671147E+03  0.70853265796E+03  0.10855829259E+04  0.15294330000E+03 0.  0.
<mgrwt>
<rscale>  0 0.82247903E+03</rscale>
<asrwt>0</asrwt>
<pdfrwt beam="1">  1        2 0.17900900E+00 0.82247903E+03</pdfrwt>
<pdfrwt beam="2">  1       -2 0.12663266E+00 0.82247903E+03</pdfrwt>
<totfact> 0.93436291E+00</totfact>
</mgrwt>
</event>
<event>
 4    1  0.4840632E-008  0.9419913E+03  0.7818608E-02  0.9374561E-01
         -2   -1    0    0    0  501 -0.00000000000E+00  0.00000000000E+00  0.67619600070E+03  0.67619600071E+03  0.25500000000E-02 0.  1.
          2   -1    0    0  501    0  0.00000000000E+00 -0.00000000000E+00 -0.21798338052E+04  0.21798338052E+04  0.25500000000E-02 0. -1.
    8880022    1    1    2    0    0 -0.14142525573E+03  0.91867016699E+03 -0.16527120342E+04  0.19023156151E+04  0.15294330000E+03 0.  0.
    8880022    1    1    2    0    0  0.14142525573E+03 -0.91867016699E+03  0.14907422969E+03  0.95371419076E+03  0.15294330000E+03 0.  0.
<mgrwt>
<rscale>  0 0.94199131E+03</rscale>
<asrwt>0</asrwt>
<pdfrwt beam="1">  1        2 0.33535904E+00 0.94199131E+03</pdfrwt>
<pdfrwt beam="2">  1       -2 0.10403015E+00 0.94199131E+03</pdfrwt>
<totfact> 0.40260498E+00</totfact>
</mgrwt>
</event>
<event>
 4    1  0.4840632E-008  0.2313154E+03  0.7818608E-02  0.1125717E+00
         -2   -1    0    0    0  501 -0.00000000000E+00  0.00000000000E+00  0.23800457920E+03  0.23800457922E+03  0.25500000000E-02 0.  1.
          2   -1    0    0  501    0  0.00000000000E+00 -0.00000000000E+00 -0.39546301786E+03  0.39546301787E+03  0.25500000000E-02 0. -1.
    8880022    1    1    2    0    0 -0.15256494374E+03  0.82698805430E+02  0.12933294969E+03  0.26501663980E+03  0.15294330000E+03 0.  1.
    8880022    1    1    2    0    0  0.15256494374E+03 -0.82698805430E+02 -0.28679138835E+03  0.36845095728E+03  0.15294330000E+03 0.  0.
<mgrwt>
<rscale>  0 0.23131539E+03</rscale>
<asrwt>0</asrwt>
<pdfrwt beam="1">  1        2 0.60840464E-01 0.23131539E+03</pdfrwt>
<pdfrwt beam="2">  1       -2 0.36616089E-01 0.23131539E+03</pdfrwt>
<totfact> 0.57287331E+02</totfact>
</mgrwt>
</event>
<event>
 4    1  0.4840632E-008  0.6439383E+03  0.7818608E-02  0.9818220E-01
          2   -1    0    0  501    0  0.00000000000E+00  0.00000000000E+00  0.84489807802E+03  0.84489807802E+03  0.25500000000E-02 0. -1.
         -2   -1    0    0    0  501 -0.00000000000E+00 -0.00000000000E+00 -0.68051472102E+03  0.68051472103E+03  0.25500000000E-02 0.  1.
    8880022    1    1    2    0    0 -0.39527139587E+03  0.48479422046E+03  0.48492302945E+03  0.80610601665E+03  0.15294330000E+03 0.  0.
    8880022    1    1    2    0    0  0.39527139587E+03 -0.48479422046E+03 -0.32053967245E+03  0.71930678240E+03  0.15294330000E+03 0.  0.
<mgrwt>
<rscale>  0 0.64393832E+03</rscale>
<asrwt>0</asrwt>
<pdfrwt beam="1">  1        2 0.12998432E+00 0.64393832E+03</pdfrwt>
<pdfrwt beam="2">  1       -2 0.10469457E+00 0.64393832E+03</pdfrwt>
<totfact> 0.24301873E+01</totfact>
</mgrwt>
</event>
<event>
 4    1  0.4840632E-008  0.2905352E+03  0.7818608E-02  0.1090070E+00
         -2   -1    0    0    0  501 -0.00000000000E+00  0.00000000000E+00  0.32126666053E+02  0.32126666154E+02  0.25500000000E-02 0.  1.
          2   -1    0    0  501    0  0.00000000000E+00 -0.00000000000E+00 -0.26910824782E+04  0.26910824782E+04  0.25500000000E-02 0. -1.
    8880022    1    1    2    0    0 -0.24012500375E+03 -0.57957350821E+02 -0.15388786934E+04  0.15660646085E+04  0.15294330000E+03 0. -1.
    8880022    1    1    2    0    0  0.24012500375E+03  0.57957350821E+02 -0.11200771188E+04  0.11571445359E+04  0.15294330000E+03 0.  1.
<mgrwt>
<rscale>  0 0.29053524E+03</rscale>
<asrwt>0</asrwt>
<pdfrwt beam="1">  1        2 0.41401251E+00 0.29053524E+03</pdfrwt>
<pdfrwt beam="2">  1       -2 0.49425661E-02 0.29053524E+03</pdfrwt>
<totfact> 0.62367397E+02</totfact>
</mgrwt>
</event>
<event>
 4    1  0.4840632E-008  0.4498491E+03  0.7818608E-02  0.1027767E+00
          2   -1    0    0  501    0  0.00000000000E+00  0.00000000000E+00  0.12030749315E+04  0.12030749315E+04  0.25500000000E-02 0. -1.
         -2   -1    0    0    0  501 -0.00000000000E+00 -0.00000000000E+00 -0.37412095619E+03  0.37412095620E+03  0.25500000000E-02 0.  1.
    8880022    1    1    2    0    0 -0.17633864027E+03  0.38454813416E+03 -0.17057401902E+03  0.48110262161E+03  0.15294330000E+03 0.  0.
    8880022    1    1    2    0    0  0.17633864027E+03 -0.38454813416E+03  0.99952799437E+03  0.10960932661E+04  0.15294330000E+03 0.  0.
<mgrwt>
<rscale>  0 0.44984913E+03</rscale>
<asrwt>0</asrwt>
<pdfrwt beam="1">  1        2 0.18508845E+00 0.44984913E+03</pdfrwt>
<pdfrwt beam="2">  1       -2 0.57557071E-01 0.44984913E+03</pdfrwt>
<totfact> 0.56223051E+01</totfact>
</mgrwt>
</event>
<event>
 4    1  0.4840632E-008  0.1911080E+03  0.7818608E-02  0.1157466E+00
         -2   -1    0    0    0  501 -0.00000000000E+00  0.00000000000E+00  0.10461144915E+03  0.10461144918E+03  0.25500000000E-02 0.  1.
          2   -1    0    0  501    0  0.00000000000E+00 -0.00000000000E+00 -0.20614521036E+04  0.20614521036E+04  0.25500000000E-02 0. -1.
    8880022    1    1    2    0    0  0.54574386478E+02 -0.10075829704E+03  0.86502538047E+01  0.19130362774E+03  0.15294330000E+03 0.  0.
    8880022    1    1    2    0    0 -0.54574386478E+02  0.10075829704E+03 -0.19654909083E+04  0.19747599251E+04  0.15294330000E+03 0. -1.
<mgrwt>
<rscale>  0 0.19110796E+03</rscale>
<asrwt>0</asrwt>
<pdfrwt beam="1">  1        2 0.31714645E+00 0.19110796E+03</pdfrwt>
<pdfrwt beam="2">  1       -2 0.16094071E-01 0.19110796E+03</pdfrwt>
<totfact> 0.21585520E+02</totfact>
</mgrwt>
</event>
<event>
 4    1  0.4840632E-008  0.3409682E+03  0.7818608E-02  0.1066384E+00
         -2   -1    0    0    0  501 -0.00000000000E+00  0.00000000000E+00  0.17988458728E+03  0.17988458730E+03  0.25500000000E-02 0.  1.
          2   -1    0    0  501    0  0.00000000000E+00 -0.00000000000E+00 -0.37809512479E+04  0.37809512479E+04  0.25500000000E-02 0. -1.
    8880022    1    1    2    0    0  0.29162228593E+03  0.88453892931E+02 -0.36037626661E+04  0.36198569938E+04  0.15294330000E+03 0. -1.
    8880022    1    1    2    0    0 -0.29162228593E+03 -0.88453892931E+02  0.26960055044E+01  0.34097884140E+03  0.15294330000E+03 0.  0.
<mgrwt>
<rscale>  0 0.34096818E+03</rscale>
<asrwt>0</asrwt>
<pdfrwt beam="1">  1        2 0.58168475E+00 0.34096818E+03</pdfrwt>
<pdfrwt beam="2">  1       -2 0.27674555E-01 0.34096818E+03</pdfrwt>
<totfact> 0.74907969E+00</totfact>
</mgrwt>
</event>
<event>
 4    1  0.4840632E-008  0.6375706E+03  0.7818608E-02  0.9830386E-01
         -2   -1    0    0    0  501 -0.00000000000E+00  0.00000000000E+00  0.48484000315E+03  0.48484000316E+03  0.25500000000E-02 0.  1.
          2   -1    0    0  501    0  0.00000000000E+00 -0.00000000000E+00 -0.13673605451E+04  0.13673605451E+04  0.25500000000E-02 0. -1.
    8880022    1    1    2    0    0 -0.29464594341E+03  0.54432374635E+03  0.13474006820E+03  0.65165260055E+03  0.15294330000E+03 0.  0.
    8880022    1    1    2    0    0  0.29464594341E+03 -0.54432374635E+03 -0.10172606102E+04  0.12005479478E+04  0.15294330000E+03 0.  0.
<mgrwt>
<rscale>  0 0.63757057E+03</rscale>
<asrwt>0</asrwt>
<pdfrwt beam="1">  1        2 0.21036316E+00 0.63757057E+03</pdfrwt>
<pdfrwt beam="2">  1       -2 0.74590770E-01 0.63757057E+03</pdfrwt>
<totfact> 0.25292452E+01</totfact>
</mgrwt>
</event>
<event>
 4    1  0.4840632E-008  0.5134178E+03  0.7818608E-02  0.1010335E+00
          2   -1    0    0  501    0  0.00000000000E+00  0.00000000000E+00  0.46471526581E+03  0.46471526581E+03  0.25500000000E-02 0. -1.
         -2   -1    0    0    0  501 -0.00000000000E+00 -0.00000000000E+00 -0.13146321254E+04  0.13146321254E+04  0.25500000000E-02 0.  1.
    8880022    1    1    2    0    0 -0.48903474649E+03  0.32421891675E+02 -0.10957806430E+04  0.12100962907E+04  0.15294330000E+03 0.  0.
    8880022    1    1    2    0    0  0.48903474649E+03 -0.32421891675E+02  0.24586378343E+03  0.56925110043E+03  0.15294330000E+03 0.  0.
<mgrwt>
<rscale>  0 0.51341778E+03</rscale>
<asrwt>0</asrwt>
<pdfrwt beam="1">  1        2 0.71494657E-01 0.51341778E+03</pdfrwt>
<pdfrwt beam="2">  1       -2 0.20225109E+00 0.51341778E+03</pdfrwt>
<totfact> 0.90600248E+00</totfact>
</mgrwt>
</event>
<event>
 4    1  0.4840632E-008  0.5749115E+03  0.7818608E-02  0.9958869E-01
          2   -1    0    0  501    0  0.00000000000E+00  0.00000000000E+00  0.41006937408E+03  0.41006937409E+03  0.25500000000E-02 0. -1.
         -2   -1    0    0    0  501 -0.00000000000E+00 -0.00000000000E+00 -0.12819993748E+04  0.12819993748E+04  0.25500000000E-02 0.  1.
    8880022    1    1    2    0    0 -0.28224089596E+03  0.47693994649E+03  0.79547369046E+02  0.58038872564E+03  0.15294330000E+03 0.  0.
    8880022    1    1    2    0    0  0.28224089596E+03 -0.47693994649E+03 -0.95147736978E+03  0.11116800233E+04  0.15294330000E+03 0.  0.
<mgrwt>
<rscale>  0 0.57491155E+03</rscale>
<asrwt>0</asrwt>
<pdfrwt beam="1">  1        2 0.63087597E-01 0.57491155E+03</pdfrwt>
<pdfrwt beam="2">  1       -2 0.19723067E+00 0.57491155E+03</pdfrwt>
<totfact> 0.11141996E+01</totfact>
</mgrwt>
</event>
<event>
 4    1  0.4840632E-008  0.4382652E+03  0.7818608E-02  0.1031280E+00
         -2   -1    0    0    0  501 -0.00000000000E+00  0.00000000000E+00  0.17625717537E+03  0.17625717538E+03  0.25500000000E-02 0.  1.
          2   -1    0    0  501    0  0.00000000000E+00 -0.00000000000E+00 -0.15253163731E+04  0.15253163731E+04  0.25500000000E-02 0. -1.
    8880022    1    1    2    0    0  0.15872351954E+03  0.37880279232E+03 -0.21988960999E+03  0.49033438052E+03  0.15294330000E+03 0.  0.
    8880022    1    1    2    0    0 -0.15872351954E+03 -0.37880279232E+03 -0.11291695878E+04  0.12112391680E+04  0.15294330000E+03 0.  0.
<mgrwt>
<rscale>  0 0.43826518E+03</rscale>
<asrwt>0</asrwt>
<pdfrwt beam="1">  1        2 0.23466405E+00 0.43826518E+03</pdfrwt>
<pdfrwt beam="2">  1       -2 0.27116490E-01 0.43826518E+03</pdfrwt>
<totfact> 0.15942970E+02</totfact>
</mgrwt>
</event>
<event>
 4    1  0.4840632E-008  0.4061041E+03  0.7818608E-02  0.1041686E+00
          2   -1    0    0  501    0  0.00000000000E+00  0.00000000000E+00  0.37827518479E+03  0.37827518480E+03  0.25500000000E-02 0. -1.
         -2   -1    0    0    0  501 -0.00000000000E+00 -0.00000000000E+00 -0.81293153102E+03  0.81293153103E+03  0.25500000000E-02 0.  1.
    8880022    1    1    2    0    0 -0.36571102645E+03 -0.88228808181E+02  0.18824828033E+03  0.44761361186E+03  0.15294330000E+03 0.  0.
    8880022    1    1    2    0    0  0.36571102645E+03  0.88228808181E+02 -0.62290462656E+03  0.74359310396E+03  0.15294330000E+03 0.  1.
<mgrwt>
<rscale>  0 0.40610409E+03</rscale>
<asrwt>0</asrwt>
<pdfrwt beam="1">  1        2 0.58196183E-01 0.40610409E+03</pdfrwt>
<pdfrwt beam="2">  1       -2 0.12506639E+00 0.40610409E+03</pdfrwt>
<totfact> 0.42254344E+01</totfact>
</mgrwt>
</event>
<event>
 4    1  0.4840632E-008  0.8203284E+03  0.7818608E-02  0.9531050E-01
          2   -1    0    0  501    0  0.00000000000E+00  0.00000000000E+00  0.74689587243E+03  0.74689587243E+03  0.25500000000E-02 0. -1.
         -2   -1    0    0    0  501 -0.00000000000E+00 -0.00000000000E+00 -0.99695197380E+03  0.99695197381E+03  0.25500000000E-02 0.  1.
    8880022    1    1    2    0    0  0.70660798606E+03 -0.38762385479E+03  0.14549990299E+03  0.83313202648E+03  0.15294330000E+03 0.  0.
    8880022    1    1    2    0    0 -0.70660798606E+03  0.38762385479E+03 -0.39555600436E+03  0.91071581976E+03  0.15294330000E+03 0.  0.
<mgrwt>
<rscale>  0 0.82032844E+03</rscale>
<asrwt>0</asrwt>
<pdfrwt beam="1">  1        2 0.11490706E+00 0.82032844E+03</pdfrwt>
<pdfrwt beam="2">  1       -2 0.15337723E+00 0.82032844E+03</pdfrwt>
<totfact> 0.10736121E+01</totfact>
</mgrwt>
</event>
<event>
 4    1  0.4840632E-008  0.7523124E+03  0.7818608E-02  0.9631729E-01
          2   -1    0    0  501    0  0.00000000000E+00  0.00000000000E+00  0.48441448847E+03  0.48441448848E+03  0.25500000000E-02 0. -1.
         -2   -1    0    0    0  501 -0.00000000000E+00 -0.00000000000E+00 -0.28458665537E+04  0.28458665537E+04  0.25500000000E-02 0.  1.
    8880022    1    1    2    0    0 -0.26942572263E+03  0.68555973024E+03 -0.24591496933E+04  0.25716514598E+04  0.15294330000E+03 0.  0.
    8880022    1    1    2    0    0  0.26942572263E+03 -0.68555973024E+03  0.97697628043E+02  0.75862958239E+03  0.15294330000E+03 0.  0.
<mgrwt>
<rscale>  0 0.75231245E+03</rscale>
<asrwt>0</asrwt>
<pdfrwt beam="1">  1        2 0.74525308E-01 0.75231245E+03</pdfrwt>
<pdfrwt beam="2">  1       -2 0.43782561E+00 0.75231245E+03</pdfrwt>
<totfact> 0.28465993E-01</totfact>
</mgrwt>
</event>
<event>
 4    1  0.4840632E-008  0.4281345E+03  0.7818608E-02  0.1034451E+00
          2   -1    0    0  501    0  0.00000000000E+00  0.00000000000E+00  0.22214184235E+04  0.22214184235E+04  0.25500000000E-02 0. -1.
         -2   -1    0    0    0  501 -0.00000000000E+00 -0.00000000000E+00 -0.61089448288E+03  0.61089448289E+03  0.25500000000E-02 0.  1.
    8880022    1    1    2    0    0  0.63525400332E+02 -0.39480626650E+03  0.21223091521E+04  0.21650624136E+04  0.15294330000E+03 0. -1.
    8880022    1    1    2    0    0 -0.63525400332E+02  0.39480626650E+03 -0.51178521144E+03  0.66725049286E+03  0.15294330000E+03 0.  0.
<mgrwt>
<rscale>  0 0.42813446E+03</rscale>
<asrwt>0</asrwt>
<pdfrwt beam="1">  1        2 0.34175669E+00 0.42813446E+03</pdfrwt>
<pdfrwt beam="2">  1       -2 0.93983764E-01 0.42813446E+03</pdfrwt>
<totfact> 0.53811178E+00</totfact>
</mgrwt>
</event>
<event>
 4    1  0.4840632E-008  0.2788553E+03  0.7818608E-02  0.1096316E+00
         -2   -1    0    0    0  501 -0.00000000000E+00  0.00000000000E+00  0.54786856203E+03  0.54786856203E+03  0.25500000000E-02 0.  1.
          2   -1    0    0  501    0  0.00000000000E+00 -0.00000000000E+00 -0.26993792407E+03  0.26993792409E+03  0.25500000000E-02 0. -1.
    8880022    1    1    2    0    0 -0.16429865253E+03  0.16545272834E+03 -0.14261541826E+03  0.31320833813E+03  0.15294330000E+03 0. -1.
    8880022    1    1    2    0    0  0.16429865253E+03 -0.16545272834E+03  0.42054605621E+03  0.50459814798E+03  0.15294330000E+03 0.  0.
<mgrwt>
<rscale>  0 0.27885535E+03</rscale>
<asrwt>0</asrwt>
<pdfrwt beam="1">  1        2 0.41528912E-01 0.27885535E+03</pdfrwt>
<pdfrwt beam="2">  1       -2 0.84287469E-01 0.27885535E+03</pdfrwt>
<totfact> 0.15659175E+02</totfact>
</mgrwt>
</event>
<event>
 4    1  0.4840632E-008  0.8837265E+03  0.7818608E-02  0.9446156E-01
          2   -1    0    0  501    0  0.00000000000E+00  0.00000000000E+00  0.21297988372E+04  0.21297988372E+04  0.25500000000E-02 0. -1.
         -2   -1    0    0    0  501 -0.00000000000E+00 -0.00000000000E+00 -0.43123122566E+03  0.43123122567E+03  0.25500000000E-02 0.  1.
    8880022    1    1    2    0    0  0.13051007198E+03 -0.86055093229E+03  0.35388642242E+03  0.95194959895E+03  0.15294330000E+03 0.  0.
    8880022    1    1    2    0    0 -0.13051007198E+03  0.86055093229E+03  0.13446811891E+04  0.16090804639E+04  0.15294330000E+03 0. -1.
<mgrwt>
<rscale>  0 0.88372645E+03</rscale>
<asrwt>0</asrwt>
<pdfrwt beam="1">  1        2 0.32766137E+00 0.88372645E+03</pdfrwt>
<pdfrwt beam="2">  1       -2 0.66343264E-01 0.88372645E+03</pdfrwt>
<totfact> 0.12037406E+01</totfact>
</mgrwt>
</event>
<event>
 4    1  0.4840632E-008  0.5463211E+03  0.7818608E-02  0.1002349E+00
         -2   -1    0    0    0  501 -0.00000000000E+00  0.00000000000E+00  0.45281594938E+03  0.45281594939E+03  0.25500000000E-02 0.  1.
          2   -1    0    0  501    0  0.00000000000E+00 -0.00000000000E+00 -0.28561442864E+04  0.28561442864E+04  0.25500000000E-02 0. -1.
    8880022    1    1    2    0    0  0.29687339016E+03 -0.43236709915E+03 -0.26527310912E+04  0.27084034067E+04  0.15294330000E+03 0.  0.
    8880022    1    1    2    0    0 -0.29687339016E+03  0.43236709915E+03  0.24940275415E+03  0.60055682912E+03  0.15294330000E+03 0.  0.
<mgrwt>
<rscale>  0 0.54632112E+03</rscale>
<asrwt>0</asrwt>
<pdfrwt beam="1">  1        2 0.43940680E+00 0.54632112E+03</pdfrwt>
<pdfrwt beam="2">  1       -2 0.69663994E-01 0.54632112E+03</pdfrwt>
<totfact> 0.44642196E+00</totfact>
</mgrwt>
</event>
<event>
 4    1  0.4840632E-008  0.6570146E+03  0.7818608E-02  0.9793705E-01
         -2   -1    0    0    0  501 -0.00000000000E+00  0.00000000000E+00  0.69122688692E+03  0.69122688692E+03  0.25500000000E-02 0.  1.
          2   -1    0    0  501    0  0.00000000000E+00 -0.00000000000E+00 -0.12028579156E+04  0.12028579156E+04  0.25500000000E-02 0. -1.
    8880022    1    1    2    0    0  0.63766545220E+03  0.40735033710E+02  0.40087722035E+03  0.76965626790E+03  0.15294330000E+03 0.  0.
    8880022    1    1    2    0    0 -0.63766545220E+03 -0.40735033710E+02 -0.91250824903E+03  0.11244285346E+04  0.15294330000E+03 0.  0.
<mgrwt>
<rscale>  0 0.65701463E+03</rscale>
<asrwt>0</asrwt>
<pdfrwt beam="1">  1        2 0.18505506E+00 0.65701463E+03</pdfrwt>
<pdfrwt beam="2">  1       -2 0.10634260E+00 0.65701463E+03</pdfrwt>
<totfact> 0.13877545E+01</totfact>
</mgrwt>
</event>
<event>
 4    1  0.4840632E-008  0.5282177E+03  0.7818608E-02  0.1006665E+00
         -2   -1    0    0    0  501 -0.00000000000E+00  0.00000000000E+00  0.49984665485E+03  0.49984665486E+03  0.25500000000E-02 0.  1.
          2   -1    0    0  501    0  0.00000000000E+00 -0.00000000000E+00 -0.12241036596E+04  0.12241036596E+04  0.25500000000E-02 0. -1.
    8880022    1    1    2    0    0  0.47038169884E+03 -0.18537340869E+03  0.27362927601E+03  0.59488391889E+03  0.15294330000E+03 0.  1.
    8880022    1    1    2    0    0 -0.47038169884E+03  0.18537340869E+03 -0.99788628076E+03  0.11290663956E+04  0.15294330000E+03 0.  0.
<mgrwt>
<rscale>  0 0.52821766E+03</rscale>
<asrwt>0</asrwt>
<pdfrwt beam="1">  1        2 0.18832364E+00 0.52821766E+03</pdfrwt>
<pdfrwt beam="2">  1       -2 0.76899486E-01 0.52821766E+03</pdfrwt>
<totfact> 0.29004451E+01</totfact>
</mgrwt>
</event>
<event>
 4    1  0.4840632E-008  0.8289184E+03  0.7818608E-02  0.9519077E-01
         -2   -1    0    0    0  501 -0.00000000000E+00  0.00000000000E+00  0.91077896735E+03  0.91077896736E+03  0.25500000000E-02 0.  1.
          2   -1    0    0  501    0  0.00000000000E+00 -0.00000000000E+00 -0.85865383535E+03  0.85865383535E+03  0.25500000000E-02 0. -1.
    8880022    1    1    2    0    0 -0.76321841356E+03 -0.28497673394E+03  0.33431664121E+03  0.89379715556E+03  0.15294330000E+03 0.  0.
    8880022    1    1    2    0    0  0.76321841356E+03  0.28497673394E+03 -0.28219150921E+03  0.87563564715E+03  0.15294330000E+03 0.  0.
<mgrwt>
<rscale>  0 0.82891841E+03</rscale>
<asrwt>0</asrwt>
<pdfrwt beam="1">  1        2 0.13210059E+00 0.82891841E+03</pdfrwt>
<pdfrwt beam="2">  1       -2 0.14011984E+00 0.82891841E+03</pdfrwt>
<totfact> 0.11302971E+01</totfact>
</mgrwt>
</event>
<event>
 4    1  0.4840632E-008  0.4030367E+03  0.7818608E-02  0.1042733E+00
          2   -1    0    0  501    0  0.00000000000E+00  0.00000000000E+00  0.88875481088E+03  0.88875481088E+03  0.25500000000E-02 0. -1.
         -2   -1    0    0    0  501 -0.00000000000E+00 -0.00000000000E+00 -0.24981389053E+03  0.24981389054E+03  0.25500000000E-02 0.  1.
    8880022    1    1    2    0    0 -0.32084238547E+03  0.19001862615E+03  0.61438586436E+03  0.73478470176E+03  0.15294330000E+03 0.  0.
    8880022    1    1    2    0    0  0.32084238547E+03 -0.19001862615E+03  0.24555055992E+02  0.40378399967E+03  0.15294330000E+03 0.  0.
<mgrwt>
<rscale>  0 0.40303668E+03</rscale>
<asrwt>0</asrwt>
<pdfrwt beam="1">  1        2 0.13673151E+00 0.40303668E+03</pdfrwt>
<pdfrwt beam="2">  1       -2 0.38432906E-01 0.40303668E+03</pdfrwt>
<totfact> 0.19768260E+02</totfact>
</mgrwt>
</event>
<event>
 4    1  0.4840632E-008  0.6169934E+03  0.7818608E-02  0.9870764E-01
          2   -1    0    0  501    0  0.00000000000E+00  0.00000000000E+00  0.13855408619E+04  0.13855408619E+04  0.25500000000E-02 0. -1.
         -2   -1    0    0    0  501 -0.00000000000E+00 -0.00000000000E+00 -0.44724027978E+03  0.44724027978E+03  0.25500000000E-02 0.  1.
    8880022    1    1    2    0    0  0.45945677662E+03 -0.38234623327E+03 -0.99950664064E+02  0.62503676687E+03  0.15294330000E+03 0.  0.
    8880022    1    1    2    0    0 -0.45945677662E+03  0.38234623327E+03  0.10382512462E+04  0.12077443749E+04  0.15294330000E+03 0.  0.
<mgrwt>
<rscale>  0 0.61699337E+03</rscale>
<asrwt>0</asrwt>
<pdfrwt beam="1">  1        2 0.21316013E+00 0.61699337E+03</pdfrwt>
<pdfrwt beam="2">  1       -2 0.68806198E-01 0.61699337E+03</pdfrwt>
<totfact> 0.29557062E+01</totfact>
</mgrwt>
</event>
<event>
 4    1  0.4840632E-008  0.3554394E+03  0.7818608E-02  0.1060404E+00
          2   -1    0    0  501    0  0.00000000000E+00  0.00000000000E+00  0.27237410834E+04  0.27237410834E+04  0.25500000000E-02 0. -1.
         -2   -1    0    0    0  501 -0.00000000000E+00 -0.00000000000E+00 -0.22546852531E+03  0.22546852532E+03  0.25500000000E-02 0.  1.
    8880022    1    1    2    0    0 -0.26035860997E+02 -0.31979314029E+03 -0.65065600680E+02  0.36134568497E+03  0.15294330000E+03 0.  0.
    8880022    1    1    2    0    0  0.26035860997E+02  0.31979314029E+03  0.25633381587E+04  0.25878639237E+04  0.15294330000E+03 0.  0.
<mgrwt>
<rscale>  0 0.35543941E+03</rscale>
<asrwt>0</asrwt>
<pdfrwt beam="1">  1        2 0.41903710E+00 0.35543941E+03</pdfrwt>
<pdfrwt beam="2">  1       -2 0.34687465E-01 0.35543941E+03</pdfrwt>
<totfact> 0.23030925E+01</totfact>
</mgrwt>
</event>
<event>
 4    1  0.4840632E-008  0.1242673E+04  0.7818608E-02  0.9076303E-01
         -2   -1    0    0    0  501 -0.00000000000E+00  0.00000000000E+00  0.18595311851E+04  0.18595311851E+04  0.25500000000E-02 0.  1.
          2   -1    0    0  501    0  0.00000000000E+00 -0.00000000000E+00 -0.20229322812E+04  0.20229322812E+04  0.25500000000E-02 0. -1.
    8880022    1    1    2    0    0  0.96085491254E+03 -0.77304808490E+03 -0.15721378342E+04  0.20039597120E+04  0.15294330000E+03 0.  0.
    8880022    1    1    2    0    0 -0.96085491254E+03  0.77304808490E+03  0.14087367382E+04  0.18785037543E+04  0.15294330000E+03 0.  0.
<mgrwt>
<rscale>  0 0.12426734E+04</rscale>
<asrwt>0</asrwt>
<pdfrwt beam="1">  1        2 0.31122035E+00 0.12426734E+04</pdfrwt>
<pdfrwt beam="2">  1       -2 0.28608172E+00 0.12426734E+04</pdfrwt>
<totfact> 0.24322298E-01</totfact>
</mgrwt>
</event>
<event>
 4    1  0.4840632E-008  0.9845216E+03  0.7818608E-02  0.9325686E-01
          2   -1    0    0  501    0  0.00000000000E+00  0.00000000000E+00  0.73662756186E+03  0.73662756187E+03  0.25500000000E-02 0. -1.
         -2   -1    0    0    0  501 -0.00000000000E+00 -0.00000000000E+00 -0.23820238950E+04  0.23820238950E+04  0.25500000000E-02 0.  1.
    8880022    1    1    2    0    0  0.76885539922E+03  0.59561099525E+03  0.22053215050E+03  0.10089188099E+04  0.15294330000E+03 0.  0.
    8880022    1    1    2    0    0 -0.76885539922E+03 -0.59561099525E+03 -0.18659284836E+04  0.21097326469E+04  0.15294330000E+03 0.  0.
<mgrwt>
<rscale>  0 0.98452158E+03</rscale>
<asrwt>0</asrwt>
<pdfrwt beam="1">  1        2 0.11332732E+00 0.98452158E+03</pdfrwt>
<pdfrwt beam="2">  1       -2 0.36646521E+00 0.98452158E+03</pdfrwt>
<totfact> 0.47744814E-01</totfact>
</mgrwt>
</event>
<event>
 4    1  0.4840632E-008  0.6044313E+03  0.7818608E-02  0.9896255E-01
          2   -1    0    0  501    0  0.00000000000E+00  0.00000000000E+00  0.41607352861E+03  0.41607352862E+03  0.25500000000E-02 0. -1.
         -2   -1    0    0    0  501 -0.00000000000E+00 -0.00000000000E+00 -0.12551807367E+04  0.12551807367E+04  0.25500000000E-02 0.  1.
    8880022    1    1    2    0    0 -0.46444739992E+02  0.58291373064E+03 -0.87759009118E+03  0.10655991518E+04  0.15294330000E+03 0.  0.
    8880022    1    1    2    0    0  0.46444739992E+02 -0.58291373064E+03  0.38482883042E+02  0.60565511353E+03  0.15294330000E+03 0.  0.
<mgrwt>
<rscale>  0 0.60443129E+03</rscale>
<asrwt>0</asrwt>
<pdfrwt beam="1">  1        2 0.64011313E-01 0.60443129E+03</pdfrwt>
<pdfrwt beam="2">  1       -2 0.19310473E+00 0.60443129E+03</pdfrwt>
<totfact> 0.11621201E+01</totfact>
</mgrwt>
</event>
<event>
 4    1  0.4840632E-008  0.6947040E+03  0.7818608E-02  0.9726332E-01
          2   -1    0    0  501    0  0.00000000000E+00  0.00000000000E+00  0.15227006868E+04  0.15227006868E+04  0.25500000000E-02 0. -1.
         -2   -1    0    0    0  501 -0.00000000000E+00 -0.00000000000E+00 -0.38047704378E+03  0.38047704379E+03  0.25500000000E-02 0.  1.
    8880022    1    1    2    0    0 -0.67144735657E+03 -0.91545094786E+02  0.95995861842E+03  0.11849617121E+04  0.15294330000E+03 0.  0.
    8880022    1    1    2    0    0  0.67144735657E+03  0.91545094786E+02  0.18226502461E+03  0.71821601851E+03  0.15294330000E+03 0.  0.
<mgrwt>
<rscale>  0 0.69470404E+03</rscale>
<asrwt>0</asrwt>
<pdfrwt beam="1">  1        2 0.23426164E+00 0.69470404E+03</pdfrwt>
<pdfrwt beam="2">  1       -2 0.58534930E-01 0.69470404E+03</pdfrwt>
<totfact> 0.34638144E+01</totfact>
</mgrwt>
</event>
<event>
 4    1  0.6574635E-008  0.5807885E+03  0.7818608E-02  0.9946085E-01
          2   -1    0    0  501    0  0.00000000000E+00  0.00000000000E+00  0.21684142563E+04  0.21684142563E+04  0.25500000000E-02 0. -1.
         -2   -1    0    0    0  501 -0.00000000000E+00 -0.00000000000E+00 -0.13395927152E+04  0.13395927152E+04  0.25500000000E-02 0.  1.
    8880022    1    1    2    0    0  0.13946156505E+03  0.54265462850E+03 -0.12346102559E+04  0.13643964640E+04  0.15294330000E+03 0.  0.
    8880022    1    1    2    0    0 -0.13946156505E+03 -0.54265462850E+03  0.20634317970E+04  0.21436105075E+04  0.15294330000E+03 0.  0.
<mgrwt>
<rscale>  0 0.58078845E+03</rscale>
<asrwt>0</asrwt>
<pdfrwt beam="1">  1        2 0.33360219E+00 0.58078845E+03</pdfrwt>
<pdfrwt beam="2">  1       -2 0.20609119E+00 0.58078845E+03</pdfrwt>
<totfact> 0.71471856E-01</totfact>
</mgrwt>
</event>
<event>
 4    1  0.4840632E-008  0.2895194E+03  0.7818608E-02  0.1090600E+00
         -2   -1    0    0    0  501 -0.00000000000E+00  0.00000000000E+00  0.10955139446E+04  0.10955139447E+04  0.25500000000E-02 0.  1.
          2   -1    0    0  501    0  0.00000000000E+00 -0.00000000000E+00 -0.97775147214E+03  0.97775147214E+03  0.25500000000E-02 0. -1.
    8880022    1    1    2    0    0 -0.66121855066E+02  0.23676512230E+03 -0.93636475753E+03  0.98010225743E+03  0.15294330000E+03 0.  0.
    8880022    1    1    2    0    0  0.66121855066E+02 -0.23676512230E+03  0.10541272300E+04  0.10931631594E+04  0.15294330000E+03 0.  0.
<mgrwt>
<rscale>  0 0.28951939E+03</rscale>
<asrwt>0</asrwt>
<pdfrwt beam="1">  1        2 0.15042330E+00 0.28951939E+03</pdfrwt>
<pdfrwt beam="2">  1       -2 0.16854061E+00 0.28951939E+03</pdfrwt>
<totfact> 0.63799873E+00</totfact>
</mgrwt>
</event>
<event>
 4    1  0.4840632E-008  0.3595786E+03  0.7818608E-02  0.1058751E+00
         -2   -1    0    0    0  501 -0.00000000000E+00  0.00000000000E+00  0.17806549549E+03  0.17806549551E+03  0.25500000000E-02 0.  1.
          2   -1    0    0  501    0  0.00000000000E+00 -0.00000000000E+00 -0.15335788192E+04  0.15335788192E+04  0.25500000000E-02 0. -1.
    8880022    1    1    2    0    0 -0.32280825943E+03 -0.41230133655E+02 -0.12987556903E+04  0.13476138514E+04  0.15294330000E+03 0.  0.
    8880022    1    1    2    0    0  0.32280825943E+03  0.41230133655E+02 -0.56757633397E+02  0.36403046334E+03  0.15294330000E+03 0.  1.
<mgrwt>
<rscale>  0 0.35957857E+03</rscale>
<asrwt>0</asrwt>
<pdfrwt beam="1">  1        2 0.23593519E+00 0.35957857E+03</pdfrwt>
<pdfrwt beam="2">  1       -2 0.27394693E-01 0.35957857E+03</pdfrwt>
<totfact> 0.15678470E+02</totfact>
</mgrwt>
</event>
<event>
 4    1  0.4840632E-008  0.8014452E+03  0.7818608E-02  0.9557928E-01
         -2   -1    0    0    0  501 -0.00000000000E+00  0.00000000000E+00  0.16965761287E+04  0.16965761287E+04  0.25500000000E-02 0.  1.
          2   -1    0    0  501    0  0.00000000000E+00 -0.00000000000E+00 -0.48058955021E+03  0.48058955021E+03  0.25500000000E-02 0. -1.
    8880022    1    1    2    0    0 -0.56575981369E+03  0.54666124978E+03  0.11094851999E+04  0.13686751808E+04  0.15294330000E+03 0.  0.
    8880022    1    1    2    0    0  0.56575981369E+03 -0.54666124978E+03  0.10650137855E+03  0.80849049805E+03  0.15294330000E+03 0.  0.
<mgrwt>
<rscale>  0 0.80144516E+03</rscale>
<asrwt>0</asrwt>
<pdfrwt beam="1">  1        2 0.73936854E-01 0.80144516E+03</pdfrwt>
<pdfrwt beam="2">  1       -2 0.26101171E+00 0.80144516E+03</pdfrwt>
<totfact> 0.36336926E+00</totfact>
</mgrwt>
</event>
<event>
 4    1  0.4840632E-008  0.5675607E+03  0.7818608E-02  0.9975091E-01
         -2   -1    0    0    0  501 -0.00000000000E+00  0.00000000000E+00  0.54546685751E+03  0.54546685751E+03  0.25500000000E-02 0.  1.
          2   -1    0    0  501    0  0.00000000000E+00 -0.00000000000E+00 -0.19094138731E+04  0.19094138731E+04  0.25500000000E-02 0. -1.
    8880022    1    1    2    0    0  0.54346634524E+02  0.54385654862E+03  0.33814456153E+03  0.66065641574E+03  0.15294330000E+03 0.  0.
    8880022    1    1    2    0    0 -0.54346634524E+02 -0.54385654862E+03 -0.17020915772E+04  0.17942243149E+04  0.15294330000E+03 0.  0.
<mgrwt>
<rscale>  0 0.56756071E+03</rscale>
<asrwt>0</asrwt>
<pdfrwt beam="1">  1        2 0.29375598E+00 0.56756071E+03</pdfrwt>
<pdfrwt beam="2">  1       -2 0.83917979E-01 0.56756071E+03</pdfrwt>
<totfact> 0.99248935E+00</totfact>
</mgrwt>
</event>
<event>
 4    1  0.4840632E-008  0.8472525E+03  0.7818608E-02  0.9494032E-01
          2   -1    0    0  501    0  0.00000000000E+00  0.00000000000E+00  0.15688787861E+04  0.15688787861E+04  0.25500000000E-02 0. -1.
         -2   -1    0    0    0  501 -0.00000000000E+00 -0.00000000000E+00 -0.74170582328E+03  0.74170582329E+03  0.25500000000E-02 0.  1.
    8880022    1    1    2    0    0  0.27821220260E+03  0.78552092136E+03  0.11286689205E+04  0.14112867649E+04  0.15294330000E+03 0.  0.
    8880022    1    1    2    0    0 -0.27821220260E+03 -0.78552092136E+03 -0.30149595772E+03  0.89929784449E+03  0.15294330000E+03 0.  0.
<mgrwt>
<rscale>  0 0.84725250E+03</rscale>
<asrwt>0</asrwt>
<pdfrwt beam="1">  1        2 0.24136596E+00 0.84725250E+03</pdfrwt>
<pdfrwt beam="2">  1       -2 0.11410859E+00 0.84725250E+03</pdfrwt>
<totfact> 0.70661174E+00</totfact>
</mgrwt>
</event>
<event>
 4    1  0.4840632E-008  0.3089835E+03  0.7818608E-02  0.1080834E+00
         -2   -1    0    0    0  501 -0.00000000000E+00  0.00000000000E+00  0.37667105827E+03  0.37667105828E+03  0.25500000000E-02 0.  1.
          2   -1    0    0  501    0  0.00000000000E+00 -0.00000000000E+00 -0.14520886910E+04  0.14520886910E+04  0.25500000000E-02 0. -1.
    8880022    1    1    2    0    0 -0.16678714568E+03  0.21038338306E+03  0.29304539829E+03  0.42584783468E+03  0.15294330000E+03 0.  0.
    8880022    1    1    2    0    0  0.16678714568E+03 -0.21038338306E+03 -0.13684630310E+04  0.14029119146E+04  0.15294330000E+03 0.  0.
<mgrwt>
<rscale>  0 0.30898345E+03</rscale>
<asrwt>0</asrwt>
<pdfrwt beam="1">  1        2 0.22339826E+00 0.30898345E+03</pdfrwt>
<pdfrwt beam="2">  1       -2 0.57949394E-01 0.30898345E+03</pdfrwt>
<totfact> 0.41378800E+01</totfact>
</mgrwt>
</event>
<event>
 4    1  0.4840632E-008  0.5225768E+03  0.7818608E-02  0.1008048E+00
          2   -1    0    0  501    0  0.00000000000E+00  0.00000000000E+00  0.20975044671E+04  0.20975044671E+04  0.25500000000E-02 0. -1.
         -2   -1    0    0    0  501 -0.00000000000E+00 -0.00000000000E+00 -0.20864452724E+03  0.20864452726E+03  0.25500000000E-02 0.  1.
    8880022    1    1    2    0    0 -0.43102004020E+03  0.25281727672E+03  0.16514740879E+04  0.17321816206E+04  0.15294330000E+03 0.  0.
    8880022    1    1    2    0    0  0.43102004020E+03 -0.25281727672E+03  0.23738585190E+03  0.57396737378E+03  0.15294330000E+03 0.  0.
<mgrwt>
<rscale>  0 0.52257679E+03</rscale>
<asrwt>0</asrwt>
<pdfrwt beam="1">  1        2 0.32269299E+00 0.52257679E+03</pdfrwt>
<pdfrwt beam="2">  1       -2 0.32099159E-01 0.52257679E+03</pdfrwt>
<totfact> 0.56723442E+01</totfact>
</mgrwt>
</event>
<event>
 4    1  0.4840632E-008  0.4224876E+03  0.7818608E-02  0.1036260E+00
         -2   -1    0    0    0  501 -0.00000000000E+00  0.00000000000E+00  0.13084845522E+03  0.13084845525E+03  0.25500000000E-02 0.  1.
          2   -1    0    0  501    0  0.00000000000E+00 -0.00000000000E+00 -0.22607707494E+04  0.22607707494E+04  0.25500000000E-02 0. -1.
    8880022    1    1    2    0    0 -0.10145181830E+03  0.38054128872E+03 -0.18180396410E+04  0.18664843779E+04  0.15294330000E+03 0.  0.
    8880022    1    1    2    0    0  0.10145181830E+03 -0.38054128872E+03 -0.31188265319E+03  0.52513482671E+03  0.15294330000E+03 0.  0.
<mgrwt>
<rscale>  0 0.42248763E+03</rscale>
<asrwt>0</asrwt>
<pdfrwt beam="1">  1        2 0.34781086E+00 0.42248763E+03</pdfrwt>
<pdfrwt beam="2">  1       -2 0.20130533E-01 0.42248763E+03</pdfrwt>
<totfact> 0.10897533E+02</totfact>
</mgrwt>
</event>
<event>
 4    1  0.4840632E-008  0.3398401E+03  0.7818608E-02  0.1066864E+00
          2   -1    0    0  501    0  0.00000000000E+00  0.00000000000E+00  0.16782009266E+04  0.16782009266E+04  0.25500000000E-02 0. -1.
         -2   -1    0    0    0  501 -0.00000000000E+00 -0.00000000000E+00 -0.10259091284E+03  0.10259091288E+03  0.25500000000E-02 0.  1.
    8880022    1    1    2    0    0 -0.15615418316E+03  0.26022204635E+03  0.12986741405E+04  0.13424030015E+04  0.15294330000E+03 0.  0.
    8880022    1    1    2    0    0  0.15615418316E+03 -0.26022204635E+03  0.27693587328E+03  0.43838883796E+03  0.15294330000E+03 0.  0.
<mgrwt>
<rscale>  0 0.33984010E+03</rscale>
<asrwt>0</asrwt>
<pdfrwt beam="1">  1        2 0.25818473E+00 0.33984010E+03</pdfrwt>
<pdfrwt beam="2">  1       -2 0.15783219E-01 0.33984010E+03</pdfrwt>
<totfact> 0.34280783E+02</totfact>
</mgrwt>
</event>
<event>
 4    1  0.5843838E-008  0.8387912E+03  0.7818608E-02  0.9505506E-01
          2   -1    0    0  501    0  0.00000000000E+00  0.00000000000E+00  0.17574417541E+04  0.17574417541E+04  0.25500000000E-02 0. -1.
         -2   -1    0    0    0  501 -0.00000000000E+00 -0.00000000000E+00 -0.11592276881E+04  0.11592276881E+04  0.25500000000E-02 0.  1.
    8880022    1    1    2    0    0  0.59044816644E+03  0.57580376359E+03 -0.88083908951E+03  0.12163256826E+04  0.15294330000E+03 0.  0.
    8880022    1    1    2    0    0 -0.59044816644E+03 -0.57580376359E+03  0.14790531555E+04  0.17003437597E+04  0.15294330000E+03 0. -1.
<mgrwt>
<rscale>  0 0.83879119E+03</rscale>
<asrwt>0</asrwt>
<pdfrwt beam="1">  1        2 0.27037565E+00 0.83879119E+03</pdfrwt>
<pdfrwt beam="2">  1       -2 0.17834272E+00 0.83879119E+03</pdfrwt>
<totfact> 0.17287451E+00</totfact>
</mgrwt>
</event>
<event>
 4    1  0.4840632E-008  0.2127815E+03  0.7818608E-02  0.1139382E+00
          2   -1    0    0  501    0  0.00000000000E+00  0.00000000000E+00  0.48463739523E+03  0.48463739524E+03  0.25500000000E-02 0. -1.
         -2   -1    0    0    0  501 -0.00000000000E+00 -0.00000000000E+00 -0.32421980419E+03  0.32421980420E+03  0.25500000000E-02 0.  1.
    8880022    1    1    2    0    0 -0.12691462737E+03 -0.76006557543E+02 -0.26101364235E+03  0.33675524337E+03  0.15294330000E+03 0.  0.
    8880022    1    1    2    0    0  0.12691462737E+03  0.76006557543E+02  0.42143123339E+03  0.47210195607E+03  0.15294330000E+03 0. -1.
<mgrwt>
<rscale>  0 0.21278151E+03</rscale>
<asrwt>0</asrwt>
<pdfrwt beam="1">  1        2 0.74559599E-01 0.21278151E+03</pdfrwt>
<pdfrwt beam="2">  1       -2 0.49879970E-01 0.21278151E+03</pdfrwt>
<totfact> 0.25212937E+02</totfact>
</mgrwt>
</event>
<event>
 4    1  0.4840632E-008  0.6557573E+03  0.7818608E-02  0.9796036E-01
          2   -1    0    0  501    0  0.00000000000E+00  0.00000000000E+00  0.23967984972E+04  0.23967984972E+04  0.25500000000E-02 0. -1.
         -2   -1    0    0    0  501 -0.00000000000E+00 -0.00000000000E+00 -0.38973024509E+03  0.38973024510E+03  0.25500000000E-02 0.  1.
    8880022    1    1    2    0    0  0.39967340046E+03  0.49687736600E+03  0.20270358506E+04  0.21304675394E+04  0.15294330000E+03 0.  0.
    8880022    1    1    2    0    0 -0.39967340046E+03 -0.49687736600E+03 -0.19967598517E+02  0.65606120285E+03  0.15294330000E+03 0.  0.
<mgrwt>
<rscale>  0 0.65575727E+03</rscale>
<asrwt>0</asrwt>
<pdfrwt beam="1">  1        2 0.36873823E+00 0.65575727E+03</pdfrwt>
<pdfrwt beam="2">  1       -2 0.59958499E-01 0.65575727E+03</pdfrwt>
<totfact> 0.11004922E+01</totfact>
</mgrwt>
</event>
<event>
 4    1  0.5705582E-008  0.7642320E+03  0.7818608E-02  0.9613283E-01
         -2   -1    0    0    0  501 -0.00000000000E+00  0.00000000000E+00  0.19198229493E+04  0.19198229493E+04  0.25500000000E-02 0.  1.
          2   -1    0    0  501    0  0.00000000000E+00 -0.00000000000E+00 -0.12431281465E+04  0.12431281465E+04  0.25500000000E-02 0. -1.
    8880022    1    1    2    0    0  0.60962588580E+03  0.43475871294E+03 -0.10360611459E+04  0.12874289146E+04  0.15294330000E+03 0.  0.
    8880022    1    1    2    0    0 -0.60962588580E+03 -0.43475871294E+03  0.17127559487E+04  0.18755221811E+04  0.15294330000E+03 0.  0.
<mgrwt>
<rscale>  0 0.76423198E+03</rscale>
<asrwt>0</asrwt>
<pdfrwt beam="1">  1        2 0.19125049E+00 0.76423198E+03</pdfrwt>
<pdfrwt beam="2">  1       -2 0.29535737E+00 0.76423198E+03</pdfrwt>
<totfact> 0.63358098E-01</totfact>
</mgrwt>
</event>
<event>
 4    1  0.4840632E-008  0.6646170E+03  0.7818608E-02  0.9779731E-01
          2   -1    0    0  501    0  0.00000000000E+00  0.00000000000E+00  0.22210820353E+04  0.22210820353E+04  0.25500000000E-02 0. -1.
         -2   -1    0    0    0  501 -0.00000000000E+00 -0.00000000000E+00 -0.21520818146E+03  0.21520818147E+03  0.25500000000E-02 0.  1.
    8880022    1    1    2    0    0  0.30426791054E+03 -0.57074088691E+03  0.13385327100E+04  0.14944516018E+04  0.15294330000E+03 0.  0.
    8880022    1    1    2    0    0 -0.30426791054E+03  0.57074088691E+03  0.66734114387E+03  0.94183861499E+03  0.15294330000E+03 0.  0.
<mgrwt>
<rscale>  0 0.66461701E+03</rscale>
<asrwt>0</asrwt>
<pdfrwt beam="1">  1        2 0.34170493E+00 0.66461701E+03</pdfrwt>
<pdfrwt beam="2">  1       -2 0.33108951E-01 0.66461701E+03</pdfrwt>
<totfact> 0.44803846E+01</totfact>
</mgrwt>
</event>
<event>
 4    1  0.4840632E-008  0.3398562E+03  0.7818608E-02  0.1066857E+00
         -2   -1    0    0    0  501 -0.00000000000E+00  0.00000000000E+00  0.20875710328E+03  0.20875710329E+03  0.25500000000E-02 0.  1.
          2   -1    0    0  501    0  0.00000000000E+00 -0.00000000000E+00 -0.15248490519E+04  0.15248490519E+04  0.25500000000E-02 0. -1.
    8880022    1    1    2    0    0  0.27109829136E+03 -0.13644159638E+03  0.33852956193E+02  0.34153809225E+03  0.15294330000E+03 0.  0.
    8880022    1    1    2    0    0 -0.27109829136E+03  0.13644159638E+03 -0.13499449048E+04  0.13920680629E+04  0.15294330000E+03 0.  0.
<mgrwt>
<rscale>  0 0.33985621E+03</rscale>
<asrwt>0</asrwt>
<pdfrwt beam="1">  1        2 0.23459216E+00 0.33985621E+03</pdfrwt>
<pdfrwt beam="2">  1       -2 0.32116478E-01 0.33985621E+03</pdfrwt>
<totfact> 0.11892122E+02</totfact>
</mgrwt>
</event>
<event>
 4    1  0.4840632E-008  0.5432670E+03  0.7818608E-02  0.1003064E+00
         -2   -1    0    0    0  501 -0.00000000000E+00  0.00000000000E+00  0.93965865531E+03  0.93965865531E+03  0.25500000000E-02 0.  1.
          2   -1    0    0  501    0  0.00000000000E+00 -0.00000000000E+00 -0.22331096202E+04  0.22331096202E+04  0.25500000000E-02 0. -1.
    8880022    1    1    2    0    0 -0.36113850557E+03  0.37593398318E+03 -0.21173196756E+04  0.21859052225E+04  0.15294330000E+03 0.  0.
    8880022    1    1    2    0    0  0.36113850557E+03 -0.37593398318E+03  0.82386871072E+03  0.98686305303E+03  0.15294330000E+03 0.  0.
<mgrwt>
<rscale>  0 0.54326700E+03</rscale>
<asrwt>0</asrwt>
<pdfrwt beam="1">  1        2 0.34355533E+00 0.54326700E+03</pdfrwt>
<pdfrwt beam="2">  1       -2 0.14456287E+00 0.54326700E+03</pdfrwt>
<totfact> 0.17888787E+00</totfact>
</mgrwt>
</event>
<event>
 4    1  0.4840632E-008  0.2818380E+03  0.7818608E-02  0.1094689E+00
          2   -1    0    0  501    0  0.00000000000E+00  0.00000000000E+00  0.12749459777E+04  0.12749459777E+04  0.25500000000E-02 0. -1.
         -2   -1    0    0    0  501 -0.00000000000E+00 -0.00000000000E+00 -0.16253697147E+03  0.16253697149E+03  0.25500000000E-02 0.  1.
    8880022    1    1    2    0    0 -0.73006395568E+02 -0.22519123324E+03 -0.82183258252E+01  0.28195783234E+03  0.15294330000E+03 0.  0.
    8880022    1    1    2    0    0  0.73006395568E+02  0.22519123324E+03  0.11206273321E+04  0.11555251169E+04  0.15294330000E+03 0. -1.
<mgrwt>
<rscale>  0 0.28183804E+03</rscale>
<asrwt>0</asrwt>
<pdfrwt beam="1">  1        2 0.19614553E+00 0.28183804E+03</pdfrwt>
<pdfrwt beam="2">  1       -2 0.25005689E-01 0.28183804E+03</pdfrwt>
<totfact> 0.25918010E+02</totfact>
</mgrwt>
</event>
<event>
 4    1  0.4840632E-008  0.5568933E+03  0.7818608E-02  0.9999109E-01
         -2   -1    0    0    0  501 -0.00000000000E+00  0.00000000000E+00  0.80790218494E+03  0.80790218494E+03  0.25500000000E-02 0.  1.
          2   -1    0    0  501    0  0.00000000000E+00 -0.00000000000E+00 -0.10796342236E+04  0.10796342236E+04  0.25500000000E-02 0. -1.
    8880022    1    1    2    0    0 -0.62397153936E+02  0.53183181053E+03  0.62176507175E+03  0.83469871030E+03  0.15294330000E+03 0.  0.
    8880022    1    1    2    0    0  0.62397153936E+02 -0.53183181053E+03 -0.89349711037E+03  0.10528376982E+04  0.15294330000E+03 0.  0.
<mgrwt>
<rscale>  0 0.55689329E+03</rscale>
<asrwt>0</asrwt>
<pdfrwt beam="1">  1        2 0.16609757E+00 0.55689329E+03</pdfrwt>
<pdfrwt beam="2">  1       -2 0.12429264E+00 0.55689329E+03</pdfrwt>
<totfact> 0.11409028E+01</totfact>
</mgrwt>
</event>
<event>
 4    1  0.4840632E-008  0.1019580E+04  0.7818608E-02  0.9287326E-01
         -2   -1    0    0    0  501 -0.00000000000E+00  0.00000000000E+00  0.84761636702E+03  0.84761636703E+03  0.25500000000E-02 0.  1.
          2   -1    0    0  501    0  0.00000000000E+00 -0.00000000000E+00 -0.12514182350E+04  0.12514182350E+04  0.25500000000E-02 0. -1.
    8880022    1    1    2    0    0 -0.65661340446E+03  0.76486016410E+03 -0.53601922255E+02  0.10209882725E+04  0.15294330000E+03 0.  0.
    8880022    1    1    2    0    0  0.65661340446E+03 -0.76486016410E+03 -0.35019994571E+03  0.10780463295E+04  0.15294330000E+03 0.  0.
<mgrwt>
<rscale>  0 0.10195803E+04</rscale>
<asrwt>0</asrwt>
<pdfrwt beam="1">  1        2 0.19252588E+00 0.10195803E+04</pdfrwt>
<pdfrwt beam="2">  1       -2 0.13040252E+00 0.10195803E+04</pdfrwt>
<totfact> 0.75335056E+00</totfact>
</mgrwt>
</event>
<event>
 4    1  0.4840632E-008  0.2344946E+03  0.7818608E-02  0.1123516E+00
          2   -1    0    0  501    0  0.00000000000E+00  0.00000000000E+00  0.10170644804E+04  0.10170644804E+04  0.25500000000E-02 0. -1.
         -2   -1    0    0    0  501 -0.00000000000E+00 -0.00000000000E+00 -0.22702716324E+03  0.22702716326E+03  0.25500000000E-02 0.  1.
    8880022    1    1    2    0    0 -0.16515690129E+03  0.65721270354E+02  0.93796740652E+03  0.96683535110E+03  0.15294330000E+03 0.  0.
    8880022    1    1    2    0    0  0.16515690129E+03 -0.65721270354E+02 -0.14793008936E+03  0.27725629257E+03  0.15294330000E+03 0.  1.
<mgrwt>
<rscale>  0 0.23449465E+03</rscale>
<asrwt>0</asrwt>
<pdfrwt beam="1">  1        2 0.15647146E+00 0.23449465E+03</pdfrwt>
<pdfrwt beam="2">  1       -2 0.34927256E-01 0.23449465E+03</pdfrwt>
<totfact> 0.20082113E+02</totfact>
</mgrwt>
</event>
<event>
 4    1  0.4840632E-008  0.1027370E+04  0.7818608E-02  0.9279025E-01
         -2   -1    0    0    0  501 -0.00000000000E+00  0.00000000000E+00  0.10636714768E+04  0.10636714768E+04  0.25500000000E-02 0.  1.
          2   -1    0    0  501    0  0.00000000000E+00 -0.00000000000E+00 -0.14263780728E+04  0.14263780728E+04  0.25500000000E-02 0. -1.
    8880022    1    1    2    0    0  0.84389294944E+03  0.56563443936E+03 -0.86816991272E+03  0.13450681319E+04  0.15294330000E+03 0.  0.
    8880022    1    1    2    0    0 -0.84389294944E+03 -0.56563443936E+03  0.50546331673E+03  0.11449814176E+04  0.15294330000E+03 0.  0.
<mgrwt>
<rscale>  0 0.10273701E+04</rscale>
<asrwt>0</asrwt>
<pdfrwt beam="1">  1        2 0.21944278E+00 0.10273701E+04</pdfrwt>
<pdfrwt beam="2">  1       -2 0.16364177E+00 0.10273701E+04</pdfrwt>
<totfact> 0.32737480E+00</totfact>
</mgrwt>
</event>
<event>
 4    1  0.4840632E-008  0.9374204E+03  0.7818608E-02  0.9379976E-01
         -2   -1    0    0    0  501 -0.00000000000E+00  0.00000000000E+00  0.51410152701E+03  0.51410152702E+03  0.25500000000E-02 0.  1.
          2   -1    0    0  501    0  0.00000000000E+00 -0.00000000000E+00 -0.24980865083E+04  0.24980865083E+04  0.25500000000E-02 0. -1.
    8880022    1    1    2    0    0 -0.48662259461E+03 -0.78648826669E+03 -0.14568859542E+03  0.94867389712E+03  0.15294330000E+03 0.  0.
    8880022    1    1    2    0    0  0.48662259461E+03  0.78648826669E+03 -0.18382963859E+04  0.20635141382E+04  0.15294330000E+03 0.  0.
<mgrwt>
<rscale>  0 0.93742039E+03</rscale>
<asrwt>0</asrwt>
<pdfrwt beam="1">  1        2 0.38432099E+00 0.93742039E+03</pdfrwt>
<pdfrwt beam="2">  1       -2 0.79092544E-01 0.93742039E+03</pdfrwt>
<totfact> 0.50436432E+00</totfact>
</mgrwt>
</event>
<event>
 4    1  0.4840632E-008  0.3237057E+03  0.7818608E-02  0.1073956E+00
          2   -1    0    0  501    0  0.00000000000E+00  0.00000000000E+00  0.17218543101E+04  0.17218543101E+04  0.25500000000E-02 0. -1.
         -2   -1    0    0    0  501 -0.00000000000E+00 -0.00000000000E+00 -0.75196136583E+03  0.75196136583E+03  0.25500000000E-02 0.  1.
    8880022    1    1    2    0    0  0.11040852633E+03  0.26306588778E+03 -0.70085415337E+03  0.77199864074E+03  0.15294330000E+03 0.  0.
    8880022    1    1    2    0    0 -0.11040852633E+03 -0.26306588778E+03  0.16707470977E+04  0.17018170352E+04  0.15294330000E+03 0. -1.
<mgrwt>
<rscale>  0 0.32370566E+03</rscale>
<asrwt>0</asrwt>
<pdfrwt beam="1">  1        2 0.26490066E+00 0.32370566E+03</pdfrwt>
<pdfrwt beam="2">  1       -2 0.11568636E+00 0.32370566E+03</pdfrwt>
<totfact> 0.63006178E+00</totfact>
</mgrwt>
</event>
<event>
 4    1  0.4840632E-008  0.5257808E+03  0.7818608E-02  0.1007261E+00
          2   -1    0    0  501    0  0.00000000000E+00  0.00000000000E+00  0.11901766611E+04  0.11901766611E+04  0.25500000000E-02 0. -1.
         -2   -1    0    0    0  501 -0.00000000000E+00 -0.00000000000E+00 -0.27386844339E+03  0.27386844340E+03  0.25500000000E-02 0.  1.
    8880022    1    1    2    0    0 -0.49842710703E+03 -0.68001661602E+02  0.74343868296E+03  0.91057483786E+03  0.15294330000E+03 0.  0.
    8880022    1    1    2    0    0  0.49842710703E+03  0.68001661602E+02  0.17286953476E+03  0.55347026665E+03  0.15294330000E+03 0.  0.
<mgrwt>
<rscale>  0 0.52578081E+03</rscale>
<asrwt>0</asrwt>
<pdfrwt beam="1">  1        2 0.18310410E+00 0.52578081E+03</pdfrwt>
<pdfrwt beam="2">  1       -2 0.42133607E-01 0.52578081E+03</pdfrwt>
<totfact> 0.10623949E+02</totfact>
</mgrwt>
</event>
<event>
 4    1  0.4840632E-008  0.8922890E+03  0.7818608E-02  0.9435272E-01
          2   -1    0    0  501    0  0.00000000000E+00  0.00000000000E+00  0.23486868807E+04  0.23486868807E+04  0.25500000000E-02 0. -1.
         -2   -1    0    0    0  501 -0.00000000000E+00 -0.00000000000E+00 -0.55984059904E+03  0.55984059905E+03  0.25500000000E-02 0.  1.
    8880022    1    1    2    0    0 -0.57137881493E+03 -0.66806753256E+03 -0.18976838981E+02  0.89249075718E+03  0.15294330000E+03 0.  0.
    8880022    1    1    2    0    0  0.57137881493E+03  0.66806753256E+03  0.18078231206E+04  0.20160367225E+04  0.15294330000E+03 0.  0.
<mgrwt>
<rscale>  0 0.89228898E+03</rscale>
<asrwt>0</asrwt>
<pdfrwt beam="1">  1        2 0.36133645E+00 0.89228898E+03</pdfrwt>
<pdfrwt beam="2">  1       -2 0.86129322E-01 0.89228898E+03</pdfrwt>
<totfact> 0.50818550E+00</totfact>
</mgrwt>
</event>
<event>
 4    1  0.4840632E-008  0.4839745E+03  0.7818608E-02  0.1018049E+00
         -2   -1    0    0    0  501 -0.00000000000E+00  0.00000000000E+00  0.52285064378E+03  0.52285064379E+03  0.25500000000E-02 0.  1.
          2   -1    0    0  501    0  0.00000000000E+00 -0.00000000000E+00 -0.10215088785E+04  0.10215088785E+04  0.25500000000E-02 0. -1.
    8880022    1    1    2    0    0  0.36442497852E+03 -0.27934584387E+03  0.32926177470E+03  0.58535855230E+03  0.15294330000E+03 0.  0.
    8880022    1    1    2    0    0 -0.36442497852E+03  0.27934584387E+03 -0.82792000944E+03  0.95900097002E+03  0.15294330000E+03 0.  0.
<mgrwt>
<rscale>  0 0.48397450E+03</rscale>
<asrwt>0</asrwt>
<pdfrwt beam="1">  1        2 0.15715521E+00 0.48397450E+03</pdfrwt>
<pdfrwt beam="2">  1       -2 0.80438561E-01 0.48397450E+03</pdfrwt>
<totfact> 0.34936002E+01</totfact>
</mgrwt>
</event>
<event>
 4    1  0.4840632E-008  0.1335944E+04  0.7818608E-02  0.9001537E-01
          2   -1    0    0  501    0  0.00000000000E+00  0.00000000000E+00  0.25708143663E+04  0.25708143663E+04  0.25500000000E-02 0. -1.
         -2   -1    0    0    0  501 -0.00000000000E+00 -0.00000000000E+00 -0.84603043654E+03  0.84603043655E+03  0.25500000000E-02 0.  1.
    8880022    1    1    2    0    0  0.16455668609E+03 -0.13169193573E+04  0.13873486976E+03  0.13431286288E+04  0.15294330000E+03 0.  0.
    8880022    1    1    2    0    0 -0.16455668609E+03  0.13169193573E+04  0.15860490600E+04  0.20737161740E+04  0.15294330000E+03 0.  0.
<mgrwt>
<rscale>  0 0.13359443E+04</rscale>
<asrwt>0</asrwt>
<pdfrwt beam="1">  1        2 0.39550990E+00 0.13359443E+04</pdfrwt>
<pdfrwt beam="2">  1       -2 0.13015853E+00 0.13359443E+04</pdfrwt>
<totfact> 0.13223038E+00</totfact>
</mgrwt>
</event>
<event>
 4    1  0.4840632E-008  0.8260394E+03  0.7818608E-02  0.9523073E-01
          2   -1    0    0  501    0  0.00000000000E+00  0.00000000000E+00  0.32297748810E+04  0.32297748810E+04  0.25500000000E-02 0. -1.
         -2   -1    0    0    0  501 -0.00000000000E+00 -0.00000000000E+00 -0.32684284306E+03  0.32684284307E+03  0.25500000000E-02 0.  1.
    8880022    1    1    2    0    0 -0.20875799777E+03  0.78445495564E+03  0.39398300377E+03  0.91518508474E+03  0.15294330000E+03 0.  0.
    8880022    1    1    2    0    0  0.20875799777E+03 -0.78445495564E+03  0.25089490342E+04  0.26414326394E+04  0.15294330000E+03 0.  0.
<mgrwt>
<rscale>  0 0.82603943E+03</rscale>
<asrwt>0</asrwt>
<pdfrwt beam="1">  1        2 0.49688845E+00 0.82603943E+03</pdfrwt>
<pdfrwt beam="2">  1       -2 0.50283514E-01 0.82603943E+03</pdfrwt>
<totfact> 0.49099420E+00</totfact>
</mgrwt>
</event>
<event>
 4    1  0.4840632E-008  0.1149156E+04  0.7818608E-02  0.9158563E-01
          2   -1    0    0  501    0  0.00000000000E+00  0.00000000000E+00  0.76007157991E+03  0.76007157992E+03  0.25500000000E-02 0. -1.
         -2   -1    0    0    0  501 -0.00000000000E+00 -0.00000000000E+00 -0.18866970595E+04  0.18866970595E+04  0.25500000000E-02 0.  1.
    8880022    1    1    2    0    0  0.94086615992E+03  0.64182366008E+03 -0.19105706405E+03  0.11649296958E+04  0.15294330000E+03 0.  0.
    8880022    1    1    2    0    0 -0.94086615992E+03 -0.64182366008E+03 -0.93556841554E+03  0.14818389436E+04  0.15294330000E+03 0.  0.
<mgrwt>
<rscale>  0 0.11491555E+04</rscale>
<asrwt>0</asrwt>
<pdfrwt beam="1">  1        2 0.11693409E+00 0.11491555E+04</pdfrwt>
<pdfrwt beam="2">  1       -2 0.29026108E+00 0.11491555E+04</pdfrwt>
<totfact> 0.13243637E+00</totfact>
</mgrwt>
</event>
<event>
 4    1  0.5085899E-008  0.8101848E+03  0.7818608E-02  0.9545391E-01
         -2   -1    0    0    0  501 -0.00000000000E+00  0.00000000000E+00  0.77796073554E+03  0.77796073554E+03  0.25500000000E-02 0.  1.
          2   -1    0    0  501    0  0.00000000000E+00 -0.00000000000E+00 -0.19649949376E+04  0.19649949376E+04  0.25500000000E-02 0. -1.
    8880022    1    1    2    0    0  0.14030367142E+02 -0.79549417596E+03  0.44248238227E+03  0.92314145548E+03  0.15294330000E+03 0.  0.
    8880022    1    1    2    0    0 -0.14030367142E+02  0.79549417596E+03 -0.16295165843E+04  0.18198142176E+04  0.15294330000E+03 0.  0.
<mgrwt>
<rscale>  0 0.81018485E+03</rscale>
<asrwt>0</asrwt>
<pdfrwt beam="1">  1        2 0.30230691E+00 0.81018485E+03</pdfrwt>
<pdfrwt beam="2">  1       -2 0.11968627E+00 0.81018485E+03</pdfrwt>
<totfact> 0.38297399E+00</totfact>
</mgrwt>
</event>
<event>
 4    1  0.4840632E-008  0.6866523E+03  0.7818608E-02  0.9740335E-01
          2   -1    0    0  501    0  0.00000000000E+00  0.00000000000E+00  0.45392652570E+03  0.45392652571E+03  0.25500000000E-02 0. -1.
         -2   -1    0    0    0  501 -0.00000000000E+00 -0.00000000000E+00 -0.16845581534E+04  0.16845581534E+04  0.25500000000E-02 0.  1.
    8880022    1    1    2    0    0 -0.20375910080E+03 -0.63763780264E+03 -0.12773848319E+04  0.14502425316E+04  0.15294330000E+03 0.  0.
    8880022    1    1    2    0    0  0.20375910080E+03  0.63763780264E+03  0.46753204250E+02  0.68824214753E+03  0.15294330000E+03 0.  0.
<mgrwt>
<rscale>  0 0.68665231E+03</rscale>
<asrwt>0</asrwt>
<pdfrwt beam="1">  1        2 0.69834851E-01 0.68665231E+03</pdfrwt>
<pdfrwt beam="2">  1       -2 0.25916279E+00 0.68665231E+03</pdfrwt>
<totfact> 0.40435013E+00</totfact>
</mgrwt>
</event>
<event>
 4    1  0.4840632E-008  0.3142161E+03  0.7818608E-02  0.1078342E+00
          2   -1    0    0  501    0  0.00000000000E+00  0.00000000000E+00  0.44040751405E+03  0.44040751406E+03  0.25500000000E-02 0. -1.
         -2   -1    0    0    0  501 -0.00000000000E+00 -0.00000000000E+00 -0.36485158567E+03  0.36485158568E+03  0.25500000000E-02 0.  1.
    8880022    1    1    2    0    0 -0.25260921761E+03  0.10737166867E+03  0.28778173084E+03  0.42608692737E+03  0.15294330000E+03 0.  0.
    8880022    1    1    2    0    0  0.25260921761E+03 -0.10737166867E+03 -0.21222580247E+03  0.37917217237E+03  0.15294330000E+03 0.  0.
<mgrwt>
<rscale>  0 0.31421608E+03</rscale>
<asrwt>0</asrwt>
<pdfrwt beam="1">  1        2 0.67755002E-01 0.31421608E+03</pdfrwt>
<pdfrwt beam="2">  1       -2 0.56131013E-01 0.31421608E+03</pdfrwt>
<totfact> 0.21903621E+02</totfact>
</mgrwt>
</event>
<event>
 4    1  0.4840632E-008  0.4129444E+03  0.7818608E-02  0.1039387E+00
         -2   -1    0    0    0  501 -0.00000000000E+00  0.00000000000E+00  0.30287739060E+03  0.30287739061E+03  0.25500000000E-02 0.  1.
          2   -1    0    0  501    0  0.00000000000E+00 -0.00000000000E+00 -0.13342116655E+04  0.13342116655E+04  0.25500000000E-02 0. -1.
    8880022    1    1    2    0    0  0.27296844616E+03  0.26948036030E+03  0.10665297663E+03  0.42649495616E+03  0.15294330000E+03 0.  0.
    8880022    1    1    2    0    0 -0.27296844616E+03 -0.26948036030E+03 -0.11379872516E+04  0.12105941000E+04  0.15294330000E+03 0.  0.
<mgrwt>
<rscale>  0 0.41294442E+03</rscale>
<asrwt>0</asrwt>
<pdfrwt beam="1">  1        2 0.20526333E+00 0.41294442E+03</pdfrwt>
<pdfrwt beam="2">  1       -2 0.46596522E-01 0.41294442E+03</pdfrwt>
<totfact> 0.73157362E+01</totfact>
</mgrwt>
</event>
<event>
 4    1  0.4840632E-008  0.5380003E+03  0.7818608E-02  0.1004310E+00
          2   -1    0    0  501    0  0.00000000000E+00  0.00000000000E+00  0.97405079949E+03  0.97405079949E+03  0.25500000000E-02 0. -1.
         -2   -1    0    0    0  501 -0.00000000000E+00 -0.00000000000E+00 -0.34129465021E+03  0.34129465022E+03  0.25500000000E-02 0.  1.
    8880022    1    1    2    0    0  0.12245832223E+03 -0.50105547467E+03  0.55289293777E+03  0.77144985775E+03  0.15294330000E+03 0. -1.
    8880022    1    1    2    0    0 -0.12245832223E+03  0.50105547467E+03  0.79863211507E+02  0.54389559195E+03  0.15294330000E+03 0.  1.
<mgrwt>
<rscale>  0 0.53800026E+03</rscale>
<asrwt>0</asrwt>
<pdfrwt beam="1">  1        2 0.14985397E+00 0.53800026E+03</pdfrwt>
<pdfrwt beam="2">  1       -2 0.52506869E-01 0.53800026E+03</pdfrwt>
<totfact> 0.92531806E+01</totfact>
</mgrwt>
</event>
<event>
 4    1  0.4840632E-008  0.7648504E+03  0.7818608E-02  0.9612336E-01
          2   -1    0    0  501    0  0.00000000000E+00  0.00000000000E+00  0.25204902981E+04  0.25204902981E+04  0.25500000000E-02 0. -1.
         -2   -1    0    0    0  501 -0.00000000000E+00 -0.00000000000E+00 -0.47424891812E+03  0.47424891813E+03  0.25500000000E-02 0.  1.
    8880022    1    1    2    0    0  0.74940273798E+03 -0.13400025034E+00  0.20930880864E+04  0.22284554903E+04  0.15294330000E+03 0.  0.
    8880022    1    1    2    0    0 -0.74940273798E+03  0.13400025034E+00 -0.46846706503E+02  0.76628372589E+03  0.15294330000E+03 0.  0.
<mgrwt>
<rscale>  0 0.76485040E+03</rscale>
<asrwt>0</asrwt>
<pdfrwt beam="1">  1        2 0.38776773E+00 0.76485040E+03</pdfrwt>
<pdfrwt beam="2">  1       -2 0.72961373E-01 0.76485040E+03</pdfrwt>
<totfact> 0.60215705E+00</totfact>
</mgrwt>
</event>
<event>
 4    1  0.4840632E-008  0.2876657E+03  0.7818608E-02  0.1091574E+00
          2   -1    0    0  501    0  0.00000000000E+00  0.00000000000E+00  0.62338595144E+03  0.62338595145E+03  0.25500000000E-02 0. -1.
         -2   -1    0    0    0  501 -0.00000000000E+00 -0.00000000000E+00 -0.57354176451E+03  0.57354176451E+03  0.25500000000E-02 0.  1.
    8880022    1    1    2    0    0 -0.24306236059E+03 -0.16750474529E+02  0.54957787751E+03  0.62031232939E+03  0.15294330000E+03 0.  0.
    8880022    1    1    2    0    0  0.24306236059E+03  0.16750474529E+02 -0.49973369057E+03  0.57661538657E+03  0.15294330000E+03 0.  0.
<mgrwt>
<rscale>  0 0.28766568E+03</rscale>
<asrwt>0</asrwt>
<pdfrwt beam="1">  1        2 0.95905531E-01 0.28766568E+03</pdfrwt>
<pdfrwt beam="2">  1       -2 0.88237194E-01 0.28766568E+03</pdfrwt>
<totfact> 0.55723134E+01</totfact>
</mgrwt>
</event>
<event>
 4    1  0.4840632E-008  0.4436664E+03  0.7818608E-02  0.1029628E+00
         -2   -1    0    0    0  501 -0.00000000000E+00  0.00000000000E+00  0.46195184834E+03  0.46195184834E+03  0.25500000000E-02 0.  1.
          2   -1    0    0  501    0  0.00000000000E+00 -0.00000000000E+00 -0.56744468586E+03  0.56744468587E+03  0.25500000000E-02 0. -1.
    8880022    1    1    2    0    0  0.69761381161E+02 -0.41058682884E+03  0.20412955325E+03  0.48837354745E+03  0.15294330000E+03 0.  0.
    8880022    1    1    2    0    0 -0.69761381161E+02  0.41058682884E+03 -0.30962239077E+03  0.54102298676E+03  0.15294330000E+03 0.  0.
<mgrwt>
<rscale>  0 0.44366637E+03</rscale>
<asrwt>0</asrwt>
<pdfrwt beam="1">  1        2 0.87299182E-01 0.44366637E+03</pdfrwt>
<pdfrwt beam="2">  1       -2 0.71069515E-01 0.44366637E+03</pdfrwt>
<totfact> 0.98607342E+01</totfact>
</mgrwt>
</event>
<event>
 4    1  0.4840632E-008  0.2177421E+03  0.7818608E-02  0.1135578E+00
         -2   -1    0    0    0  501 -0.00000000000E+00  0.00000000000E+00  0.32780977276E+03  0.32780977277E+03  0.25500000000E-02 0.  1.
          2   -1    0    0  501    0  0.00000000000E+00 -0.00000000000E+00 -0.36282955350E+04  0.36282955350E+04  0.25500000000E-02 0. -1.
    8880022    1    1    2    0    0  0.10668722522E+03 -0.11241807525E+03 -0.35884699258E+04  0.35950699644E+04  0.15294330000E+03 0. -1.
    8880022    1    1    2    0    0 -0.10668722522E+03  0.11241807525E+03  0.28798416357E+03  0.36103534335E+03  0.15294330000E+03 0.  0.
<mgrwt>
<rscale>  0 0.21774214E+03</rscale>
<asrwt>0</asrwt>
<pdfrwt beam="1">  1        2 0.55819929E+00 0.21774214E+03</pdfrwt>
<pdfrwt beam="2">  1       -2 0.50432275E-01 0.21774214E+03</pdfrwt>
<totfact> 0.33163656E+00</totfact>
</mgrwt>
</event>
<event>
 4    1  0.4840632E-008  0.3406071E+03  0.7818608E-02  0.1066538E+00
          2   -1    0    0  501    0  0.00000000000E+00  0.00000000000E+00  0.21484978136E+04  0.21484978136E+04  0.25500000000E-02 0. -1.
         -2   -1    0    0    0  501 -0.00000000000E+00 -0.00000000000E+00 -0.28575212837E+03  0.28575212838E+03  0.25500000000E-02 0.  1.
    8880022    1    1    2    0    0  0.29853047798E+03  0.59170209739E+02  0.20274844421E+04  0.20558955168E+04  0.15294330000E+03 0.  0.
    8880022    1    1    2    0    0 -0.29853047798E+03 -0.59170209739E+02 -0.16473875689E+03  0.37835442516E+03  0.15294330000E+03 0.  0.
<mgrwt>
<rscale>  0 0.34060712E+03</rscale>
<asrwt>0</asrwt>
<pdfrwt beam="1">  1        2 0.33053813E+00 0.34060712E+03</pdfrwt>
<pdfrwt beam="2">  1       -2 0.43961866E-01 0.34060712E+03</pdfrwt>
<totfact> 0.30445541E+01</totfact>
</mgrwt>
</event>
<event>
 4    1  0.5466800E-008  0.7458419E+03  0.7818608E-02  0.9641896E-01
          2   -1    0    0  501    0  0.00000000000E+00  0.00000000000E+00  0.13681728223E+04  0.13681728223E+04  0.25500000000E-02 0. -1.
         -2   -1    0    0    0  501 -0.00000000000E+00 -0.00000000000E+00 -0.95760511885E+03  0.95760511885E+03  0.25500000000E-02 0.  1.
    8880022    1    1    2    0    0 -0.71305583904E+03  0.15633242401E+03  0.10874051339E+04  0.13186091288E+04  0.15294330000E+03 0.  0.
    8880022    1    1    2    0    0  0.71305583904E+03 -0.15633242401E+03 -0.67683743040E+03  0.10071688124E+04  0.15294330000E+03 0.  0.
<mgrwt>
<rscale>  0 0.74584188E+03</rscale>
<asrwt>0</asrwt>
<pdfrwt beam="1">  1        2 0.21048813E+00 0.74584188E+03</pdfrwt>
<pdfrwt beam="2">  1       -2 0.14732387E+00 0.74584188E+03</pdfrwt>
<totfact> 0.48593458E+00</totfact>
</mgrwt>
</event>
<event>
 4    1  0.4840632E-008  0.1842481E+03  0.7818608E-02  0.1163754E+00
         -2   -1    0    0    0  501 -0.00000000000E+00  0.00000000000E+00  0.35900706547E+03  0.35900706548E+03  0.25500000000E-02 0.  1.
          2   -1    0    0  501    0  0.00000000000E+00 -0.00000000000E+00 -0.38667994369E+03  0.38667994370E+03  0.25500000000E-02 0. -1.
    8880022    1    1    2    0    0  0.10090654173E+03 -0.19328549214E+02  0.31022850235E+03  0.36081726630E+03  0.15294330000E+03 0.  0.
    8880022    1    1    2    0    0 -0.10090654173E+03  0.19328549214E+02 -0.33790138056E+03  0.38486974287E+03  0.15294330000E+03 0.  0.
<mgrwt>
<rscale>  0 0.18424814E+03</rscale>
<asrwt>0</asrwt>
<pdfrwt beam="1">  1        2 0.59489222E-01 0.18424814E+03</pdfrwt>
<pdfrwt beam="2">  1       -2 0.55231857E-01 0.18424814E+03</pdfrwt>
<totfact> 0.26343121E+02</totfact>
</mgrwt>
</event>
<event>
 4    1  0.4840632E-008  0.4500669E+03  0.7818608E-02  0.1027702E+00
         -2   -1    0    0    0  501 -0.00000000000E+00  0.00000000000E+00  0.34349568290E+03  0.34349568291E+03  0.25500000000E-02 0.  1.
          2   -1    0    0  501    0  0.00000000000E+00 -0.00000000000E+00 -0.15774911386E+04  0.15774911386E+04  0.25500000000E-02 0. -1.
    8880022    1    1    2    0    0  0.22483927696E+03  0.35863051378E+03 -0.13770491571E+04  0.14487320594E+04  0.15294330000E+03 0. -1.
    8880022    1    1    2    0    0 -0.22483927696E+03 -0.35863051378E+03  0.14305370136E+03  0.47225476214E+03  0.15294330000E+03 0.  0.
<mgrwt>
<rscale>  0 0.45006688E+03</rscale>
<asrwt>0</asrwt>
<pdfrwt beam="1">  1        2 0.24269094E+00 0.45006688E+03</pdfrwt>
<pdfrwt beam="2">  1       -2 0.52845491E-01 0.45006688E+03</pdfrwt>
<totfact> 0.41442118E+01</totfact>
</mgrwt>
</event>
<event>
 4    1  0.4840632E-008  0.6839647E+03  0.7818608E-02  0.9745055E-01
         -2   -1    0    0    0  501 -0.00000000000E+00  0.00000000000E+00  0.62255212892E+03  0.62255212892E+03  0.25500000000E-02 0.  1.
          2   -1    0    0  501    0  0.00000000000E+00 -0.00000000000E+00 -0.11145204420E+04  0.11145204420E+04  0.25500000000E-02 0. -1.
    8880022    1    1    2    0    0 -0.59004684040E+03 -0.31025918152E+03  0.24974920545E+03  0.72813621818E+03  0.15294330000E+03 0.  0.
    8880022    1    1    2    0    0  0.59004684040E+03  0.31025918152E+03 -0.74171751855E+03  0.10089363528E+04  0.15294330000E+03 0.  0.
<mgrwt>
<rscale>  0 0.68396468E+03</rscale>
<asrwt>0</asrwt>
<pdfrwt beam="1">  1        2 0.17146468E+00 0.68396468E+03</pdfrwt>
<pdfrwt beam="2">  1       -2 0.95777251E-01 0.68396468E+03</pdfrwt>
<totfact> 0.20015182E+01</totfact>
</mgrwt>
</event>
<event>
 4    1  0.4840632E-008  0.2020999E+03  0.7818608E-02  0.1147979E+00
          2   -1    0    0  501    0  0.00000000000E+00  0.00000000000E+00  0.98961457232E+03  0.98961457232E+03  0.25500000000E-02 0. -1.
         -2   -1    0    0    0  501 -0.00000000000E+00 -0.00000000000E+00 -0.30736970191E+03  0.30736970192E+03  0.25500000000E-02 0.  1.
    8880022    1    1    2    0    0  0.12668715845E+03  0.37457648242E+02 -0.26226176064E+03  0.33109756212E+03  0.15294330000E+03 0.  1.
    8880022    1    1    2    0    0 -0.12668715845E+03 -0.37457648242E+02  0.94450663106E+03  0.96588671212E+03  0.15294330000E+03 0.  0.
<mgrwt>
<rscale>  0 0.20209989E+03</rscale>
<asrwt>0</asrwt>
<pdfrwt beam="1">  1        2 0.15224839E+00 0.20209989E+03</pdfrwt>
<pdfrwt beam="2">  1       -2 0.47287647E-01 0.20209989E+03</pdfrwt>
<totfact> 0.11757148E+02</totfact>
</mgrwt>
</event>
<event>
 4    1  0.4840632E-008  0.4992374E+03  0.7818608E-02  0.1013978E+00
         -2   -1    0    0    0  501 -0.00000000000E+00  0.00000000000E+00  0.40730138735E+03  0.40730138736E+03  0.25500000000E-02 0.  1.
          2   -1    0    0  501    0  0.00000000000E+00 -0.00000000000E+00 -0.15911244044E+04  0.15911244044E+04  0.25500000000E-02 0. -1.
    8880022    1    1    2    0    0 -0.15683091410E+03 -0.44860939447E+03  0.19195388407E+03  0.53486846145E+03  0.15294330000E+03 0.  0.
    8880022    1    1    2    0    0  0.15683091410E+03  0.44860939447E+03 -0.13757769011E+04  0.14635573303E+04  0.15294330000E+03 0.  0.
<mgrwt>
<rscale>  0 0.49923740E+03</rscale>
<asrwt>0</asrwt>
<pdfrwt beam="1">  1        2 0.24478837E+00 0.49923740E+03</pdfrwt>
<pdfrwt beam="2">  1       -2 0.62661753E-01 0.49923740E+03</pdfrwt>
<totfact> 0.28325709E+01</totfact>
</mgrwt>
</event>
<event>
 4    1  0.4840632E-008  0.5056754E+03  0.7818608E-02  0.1012308E+00
          2   -1    0    0  501    0  0.00000000000E+00  0.00000000000E+00  0.28312877949E+04  0.28312877949E+04  0.25500000000E-02 0. -1.
         -2   -1    0    0    0  501 -0.00000000000E+00 -0.00000000000E+00 -0.20132926706E+03  0.20132926708E+03  0.25500000000E-02 0.  1.
    8880022    1    1    2    0    0  0.35805486007E+03  0.32266495255E+03  0.24409409783E+04  0.24927696377E+04  0.15294330000E+03 0.  0.
    8880022    1    1    2    0    0 -0.35805486007E+03 -0.32266495255E+03  0.18901754960E+03  0.53984742427E+03  0.15294330000E+03 0.  1.
<mgrwt>
<rscale>  0 0.50567540E+03</rscale>
<asrwt>0</asrwt>
<pdfrwt beam="1">  1        2 0.43558269E+00 0.50567540E+03</pdfrwt>
<pdfrwt beam="2">  1       -2 0.30973737E-01 0.50567540E+03</pdfrwt>
<totfact> 0.23613644E+01</totfact>
</mgrwt>
</event>
<event>
 4    1  0.4840632E-008  0.5947747E+03  0.7818608E-02  0.9916307E-01
          2   -1    0    0  501    0  0.00000000000E+00  0.00000000000E+00  0.12468307834E+04  0.12468307834E+04  0.25500000000E-02 0. -1.
         -2   -1    0    0    0  501 -0.00000000000E+00 -0.00000000000E+00 -0.40523995370E+03  0.40523995370E+03  0.25500000000E-02 0.  1.
    8880022    1    1    2    0    0 -0.56326947377E+03 -0.11442382940E+03  0.87312762871E+03  0.10564605160E+04  0.15294330000E+03 0.  0.
    8880022    1    1    2    0    0  0.56326947377E+03  0.11442382940E+03 -0.31536798984E+02  0.59561022114E+03  0.15294330000E+03 0.  0.
<mgrwt>
<rscale>  0 0.59477472E+03</rscale>
<asrwt>0</asrwt>
<pdfrwt beam="1">  1        2 0.19182012E+00 0.59477472E+03</pdfrwt>
<pdfrwt beam="2">  1       -2 0.62344610E-01 0.59477472E+03</pdfrwt>
<totfact> 0.43948149E+01</totfact>
</mgrwt>
</event>
<event>
 4    1  0.4840632E-008  0.8956146E+03  0.7818608E-02  0.9431080E-01
         -2   -1    0    0    0  501 -0.00000000000E+00  0.00000000000E+00  0.41298610971E+03  0.41298610972E+03  0.25500000000E-02 0.  1.
          2   -1    0    0  501    0  0.00000000000E+00 -0.00000000000E+00 -0.24872398663E+04  0.24872398663E+04  0.25500000000E-02 0. -1.
    8880022    1    1    2    0    0  0.11653597236E+03  0.87473034870E+03 -0.35833890937E+03  0.96464099165E+03  0.15294330000E+03 0.  0.
    8880022    1    1    2    0    0 -0.11653597236E+03 -0.87473034870E+03 -0.17159148472E+04  0.19355849843E+04  0.15294330000E+03 0.  0.
<mgrwt>
<rscale>  0 0.89561458E+03</rscale>
<asrwt>0</asrwt>
<pdfrwt beam="1">  1        2 0.38265228E+00 0.89561458E+03</pdfrwt>
<pdfrwt beam="2">  1       -2 0.63536326E-01 0.89561458E+03</pdfrwt>
<totfact> 0.83235900E+00</totfact>
</mgrwt>
</event>
<event>
 4    1  0.4840632E-008  0.4559761E+03  0.7818608E-02  0.1025955E+00
          2   -1    0    0  501    0  0.00000000000E+00  0.00000000000E+00  0.40145354148E+03  0.40145354149E+03  0.25500000000E-02 0. -1.
         -2   -1    0    0    0  501 -0.00000000000E+00 -0.00000000000E+00 -0.64673487387E+03  0.64673487388E+03  0.25500000000E-02 0.  1.
    8880022    1    1    2    0    0  0.41024885957E+03 -0.12735162837E+03 -0.35655505809E+03  0.57883134546E+03  0.15294330000E+03 0.  0.
    8880022    1    1    2    0    0 -0.41024885957E+03  0.12735162837E+03  0.11127372570E+03  0.46935706991E+03  0.15294330000E+03 0. -1.
<mgrwt>
<rscale>  0 0.45597611E+03</rscale>
<asrwt>0</asrwt>
<pdfrwt beam="1">  1        2 0.61762083E-01 0.45597611E+03</pdfrwt>
<pdfrwt beam="2">  1       -2 0.99497673E-01 0.45597611E+03</pdfrwt>
<totfact> 0.68325830E+01</totfact>
</mgrwt>
</event>
<event>
 4    1  0.4840632E-008  0.6975274E+03  0.7818608E-02  0.9721470E-01
         -2   -1    0    0    0  501 -0.00000000000E+00  0.00000000000E+00  0.52079680671E+03  0.52079680672E+03  0.25500000000E-02 0.  1.
          2   -1    0    0  501    0  0.00000000000E+00 -0.00000000000E+00 -0.22755736166E+04  0.22755736166E+04  0.25500000000E-02 0. -1.
    8880022    1    1    2    0    0  0.18524477204E+03 -0.65485662407E+03  0.19607967473E+03  0.72456312045E+03  0.15294330000E+03 0.  0.
    8880022    1    1    2    0    0 -0.18524477204E+03  0.65485662407E+03 -0.19508564846E+04  0.20718073029E+04  0.15294330000E+03 0.  0.
<mgrwt>
<rscale>  0 0.69752740E+03</rscale>
<asrwt>0</asrwt>
<pdfrwt beam="1">  1        2 0.35008825E+00 0.69752740E+03</pdfrwt>
<pdfrwt beam="2">  1       -2 0.80122586E-01 0.69752740E+03</pdfrwt>
<totfact> 0.67865194E+00</totfact>
</mgrwt>
</event>
<event>
 4    1  0.4840632E-008  0.1201425E+04  0.7818608E-02  0.9111610E-01
         -2   -1    0    0    0  501 -0.00000000000E+00  0.00000000000E+00  0.97650781505E+03  0.97650781506E+03  0.25500000000E-02 0.  1.
          2   -1    0    0  501    0  0.00000000000E+00 -0.00000000000E+00 -0.28370789872E+04  0.28370789872E+04  0.25500000000E-02 0. -1.
    8880022    1    1    2    0    0  0.30366378875E+03 -0.11523098433E+04 -0.22499603563E+04  0.25506357893E+04  0.15294330000E+03 0.  0.
    8880022    1    1    2    0    0 -0.30366378875E+03  0.11523098433E+04  0.38938918415E+03  0.12629510130E+04  0.15294330000E+03 0.  0.
<mgrwt>
<rscale>  0 0.12014247E+04</rscale>
<asrwt>0</asrwt>
<pdfrwt beam="1">  1        2 0.43647369E+00 0.12014247E+04</pdfrwt>
<pdfrwt beam="2">  1       -2 0.15023197E+00 0.12014247E+04</pdfrwt>
<totfact> 0.64339054E-01</totfact>
</mgrwt>
</event>
<event>
 4    1  0.9058753E-008  0.7273165E+03  0.7818608E-02  0.9671625E-01
         -2   -1    0    0    0  501 -0.00000000000E+00  0.00000000000E+00  0.88632444439E+03  0.88632444439E+03  0.25500000000E-02 0.  1.
          2   -1    0    0  501    0  0.00000000000E+00 -0.00000000000E+00 -0.19778630967E+04  0.19778630967E+04  0.25500000000E-02 0. -1.
    8880022    1    1    2    0    0  0.20230462424E+03 -0.68166740142E+03  0.65090130512E+03  0.97604393813E+03  0.15294330000E+03 0.  0.
    8880022    1    1    2    0    0 -0.20230462424E+03  0.68166740142E+03 -0.17424399574E+04  0.18881436030E+04  0.15294330000E+03 0.  0.
<mgrwt>
<rscale>  0 0.72731648E+03</rscale>
<asrwt>0</asrwt>
<pdfrwt beam="1">  1        2 0.30428663E+00 0.72731648E+03</pdfrwt>
<pdfrwt beam="2">  1       -2 0.13635761E+00 0.72731648E+03</pdfrwt>
<totfact> 0.27507887E+00</totfact>
</mgrwt>
</event>
<event>
 4    1  0.4840632E-008  0.8128309E+03  0.7818608E-02  0.9541628E-01
         -2   -1    0    0    0  501 -0.00000000000E+00  0.00000000000E+00  0.41977355418E+03  0.41977355419E+03  0.25500000000E-02 0.  1.
          2   -1    0    0  501    0  0.00000000000E+00 -0.00000000000E+00 -0.21389309250E+04  0.21389309250E+04  0.25500000000E-02 0. -1.
    8880022    1    1    2    0    0  0.54141322550E+03 -0.58666362298E+03 -0.20204746428E+03  0.83756630669E+03  0.15294330000E+03 0.  0.
    8880022    1    1    2    0    0 -0.54141322550E+03  0.58666362298E+03 -0.15171099065E+04  0.17211381725E+04  0.15294330000E+03 0.  0.
<mgrwt>
<rscale>  0 0.81283094E+03</rscale>
<asrwt>0</asrwt>
<pdfrwt beam="1">  1        2 0.32906629E+00 0.81283094E+03</pdfrwt>
<pdfrwt beam="2">  1       -2 0.64580548E-01 0.81283094E+03</pdfrwt>
<totfact> 0.12729795E+01</totfact>
</mgrwt>
</event>
<event>
 4    1  0.4840632E-008  0.3831146E+03  0.7818608E-02  0.1049789E+00
         -2   -1    0    0    0  501 -0.00000000000E+00  0.00000000000E+00  0.86888234554E+02  0.86888234591E+02  0.25500000000E-02 0.  1.
          2   -1    0    0  501    0  0.00000000000E+00 -0.00000000000E+00 -0.35768236323E+04  0.35768236323E+04  0.25500000000E-02 0. -1.
    8880022    1    1    2    0    0  0.44521986121E+02 -0.34842926071E+03 -0.30757081702E+04  0.30994769814E+04  0.15294330000E+03 0.  0.
    8880022    1    1    2    0    0 -0.44521986121E+02  0.34842926071E+03 -0.41422722758E+03  0.56423488553E+03  0.15294330000E+03 0.  0.
<mgrwt>
<rscale>  0 0.38311462E+03</rscale>
<asrwt>0</asrwt>
<pdfrwt beam="1">  1        2 0.55028044E+00 0.38311462E+03</pdfrwt>
<pdfrwt beam="2">  1       -2 0.13367423E-01 0.38311462E+03</pdfrwt>
<totfact> 0.35851942E+01</totfact>
</mgrwt>
</event>
<event>
 4    1  0.4840632E-008  0.6693119E+03  0.7818608E-02  0.9771202E-01
         -2   -1    0    0    0  501 -0.00000000000E+00  0.00000000000E+00  0.70225089033E+03  0.70225089034E+03  0.25500000000E-02 0.  1.
          2   -1    0    0  501    0  0.00000000000E+00 -0.00000000000E+00 -0.13179580646E+04  0.13179580646E+04  0.25500000000E-02 0. -1.
    8880022    1    1    2    0    0  0.29830533664E+03 -0.57931056986E+03  0.41772216287E+03  0.78896785016E+03  0.15294330000E+03 0.  0.
    8880022    1    1    2    0    0 -0.29830533664E+03  0.57931056986E+03 -0.10334293371E+04  0.12312411048E+04  0.15294330000E+03 0.  0.
<mgrwt>
<rscale>  0 0.66931193E+03</rscale>
<asrwt>0</asrwt>
<pdfrwt beam="1">  1        2 0.20276278E+00 0.66931193E+03</pdfrwt>
<pdfrwt beam="2">  1       -2 0.10803860E+00 0.66931193E+03</pdfrwt>
<totfact> 0.11436197E+01</totfact>
</mgrwt>
</event>
<event>
 4    1  0.4840632E-008  0.2270505E+03  0.7818608E-02  0.1128733E+00
         -2   -1    0    0    0  501 -0.00000000000E+00  0.00000000000E+00  0.14908006562E+03  0.14908006564E+03  0.25500000000E-02 0.  1.
          2   -1    0    0  501    0  0.00000000000E+00 -0.00000000000E+00 -0.99011007455E+03  0.99011007455E+03  0.25500000000E-02 0. -1.
    8880022    1    1    2    0    0  0.14946076226E+03  0.76300394434E+02 -0.88000055827E+03  0.90881951190E+03  0.15294330000E+03 0. -1.
    8880022    1    1    2    0    0 -0.14946076226E+03 -0.76300394434E+02  0.38970549339E+02  0.23037062829E+03  0.15294330000E+03 0.  0.
<mgrwt>
<rscale>  0 0.22705048E+03</rscale>
<asrwt>0</asrwt>
<pdfrwt beam="1">  1        2 0.15232462E+00 0.22705048E+03</pdfrwt>
<pdfrwt beam="2">  1       -2 0.22935395E-01 0.22705048E+03</pdfrwt>
<totfact> 0.44548365E+02</totfact>
</mgrwt>
</event>
<event>
 4    1  0.4840632E-008  0.4195132E+03  0.7818608E-02  0.1037225E+00
         -2   -1    0    0    0  501 -0.00000000000E+00  0.00000000000E+00  0.36108909977E+03  0.36108909978E+03  0.25500000000E-02 0.  1.
          2   -1    0    0  501    0  0.00000000000E+00 -0.00000000000E+00 -0.15333001590E+04  0.15333001590E+04  0.25500000000E-02 0. -1.
    8880022    1    1    2    0    0 -0.22668480983E+03 -0.31814096930E+03 -0.13684045034E+04  0.14312659492E+04  0.15294330000E+03 0.  0.
    8880022    1    1    2    0    0  0.22668480983E+03  0.31814096930E+03  0.19619344416E+03  0.46312330961E+03  0.15294330000E+03 0.  0.
<mgrwt>
<rscale>  0 0.41951321E+03</rscale>
<asrwt>0</asrwt>
<pdfrwt beam="1">  1        2 0.23589233E+00 0.41951321E+03</pdfrwt>
<pdfrwt beam="2">  1       -2 0.55552170E-01 0.41951321E+03</pdfrwt>
<totfact> 0.39764599E+01</totfact>
</mgrwt>
</event>
<event>
 4    1  0.4840632E-008  0.1169941E+04  0.7818608E-02  0.9139581E-01
          2   -1    0    0  501    0  0.00000000000E+00  0.00000000000E+00  0.26552375826E+04  0.26552375826E+04  0.25500000000E-02 0. -1.
         -2   -1    0    0    0  501 -0.00000000000E+00 -0.00000000000E+00 -0.69703726150E+03  0.69703726150E+03  0.25500000000E-02 0.  1.
    8880022    1    1    2    0    0 -0.86735397872E+03 -0.77010907697E+03  0.12369847120E+03  0.11764624429E+04  0.15294330000E+03 0.  0.
    8880022    1    1    2    0    0  0.86735397872E+03  0.77010907697E+03  0.18345018499E+04  0.21758124012E+04  0.15294330000E+03 0.  0.
<mgrwt>
<rscale>  0 0.11699413E+04</rscale>
<asrwt>0</asrwt>
<pdfrwt beam="1">  1        2 0.40849809E+00 0.11699413E+04</pdfrwt>
<pdfrwt beam="2">  1       -2 0.10723650E+00 0.11699413E+04</pdfrwt>
<totfact> 0.19490076E+00</totfact>
</mgrwt>
</event>
<event>
 4    1  0.4840632E-008  0.4780633E+03  0.7818608E-02  0.1019669E+00
         -2   -1    0    0    0  501 -0.00000000000E+00  0.00000000000E+00  0.92549974652E+02  0.92549974687E+02  0.25500000000E-02 0.  1.
          2   -1    0    0  501    0  0.00000000000E+00 -0.00000000000E+00 -0.42565963018E+04  0.42565963018E+04  0.25500000000E-02 0. -1.
    8880022    1    1    2    0    0 -0.30477845160E+02 -0.45191145347E+03 -0.67297185701E+03  0.82549114724E+03  0.15294330000E+03 0.  0.
    8880022    1    1    2    0    0  0.30477845160E+02  0.45191145347E+03 -0.34910744702E+04  0.35236551293E+04  0.15294330000E+03 0.  0.
<mgrwt>
<rscale>  0 0.47806329E+03</rscale>
<asrwt>0</asrwt>
<pdfrwt beam="1">  1        2 0.65486082E+00 0.47806329E+03</pdfrwt>
<pdfrwt beam="2">  1       -2 0.14238461E-01 0.47806329E+03</pdfrwt>
<totfact> 0.95154128E+00</totfact>
</mgrwt>
</event>
<event>
 4    1  0.4840632E-008  0.8506513E+03  0.7818608E-02  0.9489463E-01
         -2   -1    0    0    0  501 -0.00000000000E+00  0.00000000000E+00  0.10183552216E+04  0.10183552216E+04  0.25500000000E-02 0.  1.
          2   -1    0    0  501    0  0.00000000000E+00 -0.00000000000E+00 -0.86888818135E+03  0.86888818135E+03  0.25500000000E-02 0. -1.
    8880022    1    1    2    0    0 -0.25236199949E+03 -0.79782791006E+03 -0.32806530187E+03  0.91172059765E+03  0.15294330000E+03 0.  0.
    8880022    1    1    2    0    0  0.25236199949E+03  0.79782791006E+03  0.47753234211E+03  0.97552280529E+03  0.15294330000E+03 0.  0.
<mgrwt>
<rscale>  0 0.85065128E+03</rscale>
<asrwt>0</asrwt>
<pdfrwt beam="1">  1        2 0.13367510E+00 0.85065128E+03</pdfrwt>
<pdfrwt beam="2">  1       -2 0.15667003E+00 0.85065128E+03</pdfrwt>
<totfact> 0.82616835E+00</totfact>
</mgrwt>
</event>
<event>
 4    1  0.4895351E-008  0.1097221E+04  0.7818608E-02  0.9207905E-01
         -2   -1    0    0    0  501 -0.00000000000E+00  0.00000000000E+00  0.12563859404E+04  0.12563859404E+04  0.25500000000E-02 0.  1.
          2   -1    0    0  501    0  0.00000000000E+00 -0.00000000000E+00 -0.16051713539E+04  0.16051713539E+04  0.25500000000E-02 0. -1.
    8880022    1    1    2    0    0 -0.10356293266E+04 -0.32859291285E+03 -0.10827314760E+04  0.15414929473E+04  0.15294330000E+03 0.  0.
    8880022    1    1    2    0    0  0.10356293266E+04  0.32859291285E+03  0.73394606257E+03  0.13200643470E+04  0.15294330000E+03 0.  0.
<mgrwt>
<rscale>  0 0.10972206E+04</rscale>
<asrwt>0</asrwt>
<pdfrwt beam="1">  1        2 0.24694944E+00 0.10972206E+04</pdfrwt>
<pdfrwt beam="2">  1       -2 0.19329014E+00 0.10972206E+04</pdfrwt>
<totfact> 0.16023563E+00</totfact>
</mgrwt>
</event>
<event>
 4    1  0.9964847E-008  0.7166968E+03  0.7818608E-02  0.9689097E-01
         -2   -1    0    0    0  501 -0.00000000000E+00  0.00000000000E+00  0.12941189021E+04  0.12941189021E+04  0.25500000000E-02 0.  1.
          2   -1    0    0  501    0  0.00000000000E+00 -0.00000000000E+00 -0.18264633987E+04  0.18264633987E+04  0.25500000000E-02 0. -1.
    8880022    1    1    2    0    0  0.60460794990E+03 -0.35314560887E+03 -0.16465555673E+04  0.17957726703E+04  0.15294330000E+03 0.  0.
    8880022    1    1    2    0    0 -0.60460794990E+03  0.35314560887E+03  0.11142110707E+04  0.13248096305E+04  0.15294330000E+03 0.  0.
<mgrwt>
<rscale>  0 0.71669676E+03</rscale>
<asrwt>0</asrwt>
<pdfrwt beam="1">  1        2 0.28099437E+00 0.71669676E+03</pdfrwt>
<pdfrwt beam="2">  1       -2 0.19909522E+00 0.71669676E+03</pdfrwt>
<totfact> 0.11768677E+00</totfact>
</mgrwt>
</event>
<event>
 4    1  0.4840632E-008  0.4711272E+03  0.7818608E-02  0.1021603E+00
          2   -1    0    0  501    0  0.00000000000E+00  0.00000000000E+00  0.99166824059E+03  0.99166824059E+03  0.25500000000E-02 0. -1.
         -2   -1    0    0    0  501 -0.00000000000E+00 -0.00000000000E+00 -0.66087872717E+03  0.66087872718E+03  0.25500000000E-02 0.  1.
    8880022    1    1    2    0    0  0.41770675954E+03 -0.15521048251E+03  0.83733394901E+03  0.96077522138E+03  0.15294330000E+03 0.  0.
    8880022    1    1    2    0    0 -0.41770675954E+03  0.15521048251E+03 -0.50654443560E+03  0.69177174638E+03  0.15294330000E+03 0.  0.
<mgrwt>
<rscale>  0 0.47112725E+03</rscale>
<asrwt>0</asrwt>
<pdfrwt beam="1">  1        2 0.15256434E+00 0.47112725E+03</pdfrwt>
<pdfrwt beam="2">  1       -2 0.10167365E+00 0.47112725E+03</pdfrwt>
<totfact> 0.21341499E+01</totfact>
</mgrwt>
</event>
<event>
 4    1  0.4840632E-008  0.2696444E+03  0.7818608E-02  0.1101483E+00
          2   -1    0    0  501    0  0.00000000000E+00  0.00000000000E+00  0.10270949165E+04  0.10270949165E+04  0.25500000000E-02 0. -1.
         -2   -1    0    0    0  501 -0.00000000000E+00 -0.00000000000E+00 -0.50775492440E+03  0.50775492440E+03  0.25500000000E-02 0.  1.
    8880022    1    1    2    0    0 -0.14963735376E+03  0.16408878989E+03  0.97159144774E+03  0.10083144663E+04  0.15294330000E+03 0.  0.
    8880022    1    1    2    0    0  0.14963735376E+03 -0.16408878989E+03 -0.45225145562E+03  0.52653537463E+03  0.15294330000E+03 0.  0.
<mgrwt>
<rscale>  0 0.26964444E+03</rscale>
<asrwt>0</asrwt>
<pdfrwt beam="1">  1        2 0.15801460E+00 0.26964444E+03</pdfrwt>
<pdfrwt beam="2">  1       -2 0.78116143E-01 0.26964444E+03</pdfrwt>
<totfact> 0.38559861E+01</totfact>
</mgrwt>
</event>
<event>
 4    1  0.4840632E-008  0.5229703E+03  0.7818608E-02  0.1007951E+00
          2   -1    0    0  501    0  0.00000000000E+00  0.00000000000E+00  0.42377593756E+03  0.42377593757E+03  0.25500000000E-02 0. -1.
         -2   -1    0    0    0  501 -0.00000000000E+00 -0.00000000000E+00 -0.14406881514E+04  0.14406881514E+04  0.25500000000E-02 0.  1.
    8880022    1    1    2    0    0  0.45737436509E+03  0.20227440150E+03  0.18418117093E+03  0.55445522820E+03  0.15294330000E+03 0.  0.
    8880022    1    1    2    0    0 -0.45737436509E+03 -0.20227440150E+03 -0.12010933848E+04  0.13100088608E+04  0.15294330000E+03 0.  0.
<mgrwt>
<rscale>  0 0.52297026E+03</rscale>
<asrwt>0</asrwt>
<pdfrwt beam="1">  1        2 0.65196299E-01 0.52297026E+03</pdfrwt>
<pdfrwt beam="2">  1       -2 0.22164433E+00 0.52297026E+03</pdfrwt>
<totfact> 0.75791048E+00</totfact>
</mgrwt>
</event>
<event>
 4    1  0.4840632E-008  0.5006267E+03  0.7818608E-02  0.1013615E+00
          2   -1    0    0  501    0  0.00000000000E+00  0.00000000000E+00  0.19081204844E+04  0.19081204844E+04  0.25500000000E-02 0. -1.
         -2   -1    0    0    0  501 -0.00000000000E+00 -0.00000000000E+00 -0.24813855095E+03  0.24813855096E+03  0.25500000000E-02 0.  1.
    8880022    1    1    2    0    0 -0.24087223487E+03  0.41135873485E+03  0.90337384160E+02  0.50871203864E+03  0.15294330000E+03 0.  0.
    8880022    1    1    2    0    0  0.24087223487E+03 -0.41135873485E+03  0.15696445492E+04  0.16475469967E+04  0.15294330000E+03 0.  0.
<mgrwt>
<rscale>  0 0.50062670E+03</rscale>
<asrwt>0</asrwt>
<pdfrwt beam="1">  1        2 0.29355700E+00 0.50062670E+03</pdfrwt>
<pdfrwt beam="2">  1       -2 0.38175161E-01 0.50062670E+03</pdfrwt>
<totfact> 0.51881510E+01</totfact>
</mgrwt>
</event>
<event>
 4    1  0.4840632E-008  0.1140564E+04  0.7818608E-02  0.9166533E-01
          2   -1    0    0  501    0  0.00000000000E+00  0.00000000000E+00  0.15293019285E+04  0.15293019285E+04  0.25500000000E-02 0. -1.
         -2   -1    0    0    0  501 -0.00000000000E+00 -0.00000000000E+00 -0.93846451786E+03  0.93846451787E+03  0.25500000000E-02 0.  1.
    8880022    1    1    2    0    0  0.30974146646E+03  0.10869936308E+04  0.67287884297E+03  0.13242554587E+04  0.15294330000E+03 0.  0.
    8880022    1    1    2    0    0 -0.30974146646E+03 -0.10869936308E+04 -0.82041432296E+02  0.11435109877E+04  0.15294330000E+03 0.  0.
<mgrwt>
<rscale>  0 0.11405642E+04</rscale>
<asrwt>0</asrwt>
<pdfrwt beam="1">  1        2 0.23527722E+00 0.11405642E+04</pdfrwt>
<pdfrwt beam="2">  1       -2 0.14437916E+00 0.11405642E+04</pdfrwt>
<totfact> 0.39610270E+00</totfact>
</mgrwt>
</event>
<event>
 4    1  0.4840632E-008  0.5053515E+03  0.7818608E-02  0.1012391E+00
          2   -1    0    0  501    0  0.00000000000E+00  0.00000000000E+00  0.10765136853E+04  0.10765136853E+04  0.25500000000E-02 0. -1.
         -2   -1    0    0    0  501 -0.00000000000E+00 -0.00000000000E+00 -0.79311767535E+03  0.79311767535E+03  0.25500000000E-02 0.  1.
    8880022    1    1    2    0    0 -0.25199623395E+03 -0.41047093888E+03 -0.64092233435E+03  0.81618722440E+03  0.15294330000E+03 0.  1.
    8880022    1    1    2    0    0  0.25199623395E+03  0.41047093888E+03  0.92431834432E+03  0.10534441363E+04  0.15294330000E+03 0.  0.
<mgrwt>
<rscale>  0 0.50535151E+03</rscale>
<asrwt>0</asrwt>
<pdfrwt beam="1">  1        2 0.16561749E+00 0.50535151E+03</pdfrwt>
<pdfrwt beam="2">  1       -2 0.12201810E+00 0.50535151E+03</pdfrwt>
<totfact> 0.12102490E+01</totfact>
</mgrwt>
</event>
<event>
 4    1  0.4840632E-008  0.7090815E+03  0.7818608E-02  0.9701826E-01
          2   -1    0    0  501    0  0.00000000000E+00  0.00000000000E+00  0.11046828187E+04  0.11046828187E+04  0.25500000000E-02 0. -1.
         -2   -1    0    0    0  501 -0.00000000000E+00 -0.00000000000E+00 -0.46866081567E+03  0.46866081568E+03  0.25500000000E-02 0.  1.
    8880022    1    1    2    0    0  0.45877225871E+03  0.51858744619E+03  0.18444305495E+03  0.73267715826E+03  0.15294330000E+03 0.  0.
    8880022    1    1    2    0    0 -0.45877225871E+03 -0.51858744619E+03  0.45157894805E+03  0.84066647610E+03  0.15294330000E+03 0.  0.
<mgrwt>
<rscale>  0 0.70908150E+03</rscale>
<asrwt>0</asrwt>
<pdfrwt beam="1">  1        2 0.16995120E+00 0.70908150E+03</pdfrwt>
<pdfrwt beam="2">  1       -2 0.72101665E-01 0.70908150E+03</pdfrwt>
<totfact> 0.38501217E+01</totfact>
</mgrwt>
</event>
<event>
 4    1  0.4840632E-008  0.4327546E+03  0.7818608E-02  0.1032993E+00
         -2   -1    0    0    0  501 -0.00000000000E+00  0.00000000000E+00  0.55349835629E+03  0.55349835629E+03  0.25500000000E-02 0.  1.
          2   -1    0    0  501    0  0.00000000000E+00 -0.00000000000E+00 -0.18352406483E+04  0.18352406483E+04  0.25500000000E-02 0. -1.
    8880022    1    1    2    0    0  0.15316625351E+03  0.37473324152E+03  0.43779520579E+03  0.61558200001E+03  0.15294330000E+03 0.  0.
    8880022    1    1    2    0    0 -0.15316625351E+03 -0.37473324152E+03 -0.17195374978E+04  0.17731570045E+04  0.15294330000E+03 0.  0.
<mgrwt>
<rscale>  0 0.43275461E+03</rscale>
<asrwt>0</asrwt>
<pdfrwt beam="1">  1        2 0.28234471E+00 0.43275461E+03</pdfrwt>
<pdfrwt beam="2">  1       -2 0.85153594E-01 0.43275461E+03</pdfrwt>
<totfact> 0.10852669E+01</totfact>
</mgrwt>
</event>
<event>
 4    1  0.4840632E-008  0.3382910E+03  0.7818608E-02  0.1067526E+00
         -2   -1    0    0    0  501 -0.00000000000E+00  0.00000000000E+00  0.48413105257E+02  0.48413105324E+02  0.25500000000E-02 0.  1.
          2   -1    0    0  501    0  0.00000000000E+00 -0.00000000000E+00 -0.33998690995E+04  0.33998690995E+04  0.25500000000E-02 0. -1.
    8880022    1    1    2    0    0 -0.14729064131E+03 -0.26335268937E+03 -0.72396738829E+03  0.79910550264E+03  0.15294330000E+03 0.  1.
    8880022    1    1    2    0    0  0.14729064131E+03  0.26335268937E+03 -0.26274886059E+04  0.26491767022E+04  0.15294330000E+03 0. -1.
<mgrwt>
<rscale>  0 0.33829104E+03</rscale>
<asrwt>0</asrwt>
<pdfrwt beam="1">  1        2 0.52305660E+00 0.33829104E+03</pdfrwt>
<pdfrwt beam="2">  1       -2 0.74481727E-02 0.33829104E+03</pdfrwt>
<totfact> 0.12210830E+02</totfact>
</mgrwt>
</event>
<event>
 4    1  0.4840632E-008  0.5402391E+03  0.7818608E-02  0.1003779E+00
          2   -1    0    0  501    0  0.00000000000E+00  0.00000000000E+00  0.12347760006E+04  0.12347760006E+04  0.25500000000E-02 0. -1.
         -2   -1    0    0    0  501 -0.00000000000E+00 -0.00000000000E+00 -0.61248062138E+03  0.61248062138E+03  0.25500000000E-02 0.  1.
    8880022    1    1    2    0    0 -0.68171961938E+02 -0.51363333900E+03  0.10349359538E+04  0.11674547978E+04  0.15294330000E+03 0.  0.
    8880022    1    1    2    0    0  0.68171961938E+02  0.51363333900E+03 -0.41264057463E+03  0.67980182419E+03  0.15294330000E+03 0.  0.
<mgrwt>
<rscale>  0 0.54023909E+03</rscale>
<asrwt>0</asrwt>
<pdfrwt beam="1">  1        2 0.18996554E+00 0.54023909E+03</pdfrwt>
<pdfrwt beam="2">  1       -2 0.94227789E-01 0.54023909E+03</pdfrwt>
<totfact> 0.18000968E+01</totfact>
</mgrwt>
</event>
<event>
 4    1  0.4840632E-008  0.4820627E+03  0.7818608E-02  0.1018570E+00
         -2   -1    0    0    0  501 -0.00000000000E+00  0.00000000000E+00  0.41025207752E+03  0.41025207753E+03  0.25500000000E-02 0.  1.
          2   -1    0    0  501    0  0.00000000000E+00 -0.00000000000E+00 -0.22173625369E+04  0.22173625369E+04  0.25500000000E-02 0. -1.
    8880022    1    1    2    0    0  0.35193923216E+02 -0.45580061490E+03  0.23008763328E+03  0.53415801480E+03  0.15294330000E+03 0.  0.
    8880022    1    1    2    0    0 -0.35193923216E+02  0.45580061490E+03 -0.20371980927E+04  0.20934565997E+04  0.15294330000E+03 0.  0.
<mgrwt>
<rscale>  0 0.48206272E+03</rscale>
<asrwt>0</asrwt>
<pdfrwt beam="1">  1        2 0.34113269E+00 0.48206272E+03</pdfrwt>
<pdfrwt beam="2">  1       -2 0.63115705E-01 0.48206272E+03</pdfrwt>
<totfact> 0.12864141E+01</totfact>
</mgrwt>
</event>
<event>
 4    1  0.4840632E-008  0.5351901E+03  0.7818608E-02  0.1004981E+00
          2   -1    0    0  501    0  0.00000000000E+00  0.00000000000E+00  0.17688946091E+04  0.17688946091E+04  0.25500000000E-02 0. -1.
         -2   -1    0    0    0  501 -0.00000000000E+00 -0.00000000000E+00 -0.21985686579E+03  0.21985686580E+03  0.25500000000E-02 0.  1.
    8880022    1    1    2    0    0  0.68641185422E+02 -0.50825696556E+03  0.12849521082E+04  0.13919519851E+04  0.15294330000E+03 0.  0.
    8880022    1    1    2    0    0 -0.68641185422E+02  0.50825696556E+03  0.26408563513E+03  0.59679948984E+03  0.15294330000E+03 0.  0.
<mgrwt>
<rscale>  0 0.53519007E+03</rscale>
<asrwt>0</asrwt>
<pdfrwt beam="1">  1        2 0.27213763E+00 0.53519007E+03</pdfrwt>
<pdfrwt beam="2">  1       -2 0.33824134E-01 0.53519007E+03</pdfrwt>
<totfact> 0.77176568E+01</totfact>
</mgrwt>
</event>
<event>
 4    1  0.4840632E-008  0.4057456E+03  0.7818608E-02  0.1041808E+00
         -2   -1    0    0    0  501 -0.00000000000E+00  0.00000000000E+00  0.19763792161E+03  0.19763792163E+03  0.25500000000E-02 0.  1.
          2   -1    0    0  501    0  0.00000000000E+00 -0.00000000000E+00 -0.15158873525E+04  0.15158873525E+04  0.25500000000E-02 0. -1.
    8880022    1    1    2    0    0 -0.29722693940E+03  0.22998698621E+03 -0.12341755045E+04  0.12991607662E+04  0.15294330000E+03 0.  0.
    8880022    1    1    2    0    0  0.29722693940E+03 -0.22998698621E+03 -0.84073926308E+02  0.41436450793E+03  0.15294330000E+03 0.  0.
<mgrwt>
<rscale>  0 0.40574564E+03</rscale>
<asrwt>0</asrwt>
<pdfrwt beam="1">  1        2 0.23321343E+00 0.40574564E+03</pdfrwt>
<pdfrwt beam="2">  1       -2 0.30405835E-01 0.40574564E+03</pdfrwt>
<totfact> 0.13152638E+02</totfact>
</mgrwt>
</event>
<event>
 4    1  0.4840632E-008  0.9192621E+03  0.7818608E-02  0.9401818E-01
          2   -1    0    0  501    0  0.00000000000E+00  0.00000000000E+00  0.28919519300E+04  0.28919519300E+04  0.25500000000E-02 0. -1.
         -2   -1    0    0    0  501 -0.00000000000E+00 -0.00000000000E+00 -0.51426876734E+03  0.51426876734E+03  0.25500000000E-02 0.  1.
    8880022    1    1    2    0    0 -0.94130489592E+02  0.90154897951E+03  0.69696007423E+02  0.92190037314E+03  0.15294330000E+03 0.  0.
    8880022    1    1    2    0    0  0.94130489592E+02 -0.90154897951E+03  0.23079871553E+04  0.24843203242E+04  0.15294330000E+03 0.  0.
<mgrwt>
<rscale>  0 0.91926208E+03</rscale>
<asrwt>0</asrwt>
<pdfrwt beam="1">  1        2 0.44491569E+00 0.91926208E+03</pdfrwt>
<pdfrwt beam="2">  1       -2 0.79118270E-01 0.91926208E+03</pdfrwt>
<totfact> 0.29704403E+00</totfact>
</mgrwt>
</event>
<event>
 4    1  0.4840632E-008  0.3257489E+03  0.7818608E-02  0.1073034E+00
         -2   -1    0    0    0  501 -0.00000000000E+00  0.00000000000E+00  0.16475669758E+03  0.16475669760E+03  0.25500000000E-02 0.  1.
          2   -1    0    0  501    0  0.00000000000E+00 -0.00000000000E+00 -0.11066379669E+04  0.11066379669E+04  0.25500000000E-02 0. -1.
    8880022    1    1    2    0    0  0.28514152808E+03  0.37616184464E+02 -0.59939920158E+02  0.33121762545E+03  0.15294330000E+03 0.  1.
    8880022    1    1    2    0    0 -0.28514152808E+03 -0.37616184464E+02 -0.88194134918E+03  0.94017703906E+03  0.15294330000E+03 0.  0.
<mgrwt>
<rscale>  0 0.32574886E+03</rscale>
<asrwt>0</asrwt>
<pdfrwt beam="1">  1        2 0.17025199E+00 0.32574886E+03</pdfrwt>
<pdfrwt beam="2">  1       -2 0.25347185E-01 0.32574886E+03</pdfrwt>
<totfact> 0.31426757E+02</totfact>
</mgrwt>
</event>
<event>
 4    1  0.4840632E-008  0.3385091E+03  0.7818608E-02  0.1067433E+00
          2   -1    0    0  501    0  0.00000000000E+00  0.00000000000E+00  0.59078010276E+03  0.59078010276E+03  0.25500000000E-02 0. -1.
         -2   -1    0    0    0  501 -0.00000000000E+00 -0.00000000000E+00 -0.40742544074E+03  0.40742544075E+03  0.25500000000E-02 0.  1.
    8880022    1    1    2    0    0  0.23582062269E+03 -0.18864088120E+03  0.45294450732E+03  0.56546187128E+03  0.15294330000E+03 0.  0.
    8880022    1    1    2    0    0 -0.23582062269E+03  0.18864088120E+03 -0.26958984531E+03  0.43274367223E+03  0.15294330000E+03 0.  0.
<mgrwt>
<rscale>  0 0.33850909E+03</rscale>
<asrwt>0</asrwt>
<pdfrwt beam="1">  1        2 0.90889246E-01 0.33850909E+03</pdfrwt>
<pdfrwt beam="2">  1       -2 0.62680837E-01 0.33850909E+03</pdfrwt>
<totfact> 0.12436392E+02</totfact>
</mgrwt>
</event>
<event>
 4    1  0.4840632E-008  0.4600586E+03  0.7818608E-02  0.1024764E+00
         -2   -1    0    0    0  501 -0.00000000000E+00  0.00000000000E+00  0.16183061931E+03  0.16183061933E+03  0.25500000000E-02 0.  1.
          2   -1    0    0  501    0  0.00000000000E+00 -0.00000000000E+00 -0.18702468132E+04  0.18702468132E+04  0.25500000000E-02 0. -1.
    8880022    1    1    2    0    0  0.42591736783E+03  0.82804696098E+02 -0.14113597126E+04  0.14844494311E+04  0.15294330000E+03 0.  0.
    8880022    1    1    2    0    0 -0.42591736783E+03 -0.82804696098E+02 -0.29705648123E+03  0.54762800145E+03  0.15294330000E+03 0.  0.
<mgrwt>
<rscale>  0 0.46005856E+03</rscale>
<asrwt>0</asrwt>
<pdfrwt beam="1">  1        2 0.28773026E+00 0.46005856E+03</pdfrwt>
<pdfrwt beam="2">  1       -2 0.24897020E-01 0.46005856E+03</pdfrwt>
<totfact> 0.12080876E+02</totfact>
</mgrwt>
</event>
<event>
 4    1  0.4840632E-008  0.2445742E+03  0.7818608E-02  0.1116783E+00
          2   -1    0    0  501    0  0.00000000000E+00  0.00000000000E+00  0.64628573977E+03  0.64628573978E+03  0.25500000000E-02 0. -1.
         -2   -1    0    0    0  501 -0.00000000000E+00 -0.00000000000E+00 -0.67616568030E+03  0.67616568030E+03  0.25500000000E-02 0.  1.
    8880022    1    1    2    0    0  0.53674374351E+02 -0.18315006079E+03 -0.62924636868E+03  0.67510556859E+03  0.15294330000E+03 0.  0.
    8880022    1    1    2    0    0 -0.53674374351E+02  0.18315006079E+03  0.59936642815E+03  0.64734585149E+03  0.15294330000E+03 0.  0.
<mgrwt>
<rscale>  0 0.24457419E+03</rscale>
<asrwt>0</asrwt>
<pdfrwt beam="1">  1        2 0.99428575E-01 0.24457419E+03</pdfrwt>
<pdfrwt beam="2">  1       -2 0.10402549E+00 0.24457419E+03</pdfrwt>
<totfact> 0.36852263E+01</totfact>
</mgrwt>
</event>
<event>
 4    1  0.4840632E-008  0.8827064E+03  0.7818608E-02  0.9447461E-01
         -2   -1    0    0    0  501 -0.00000000000E+00  0.00000000000E+00  0.44417349892E+03  0.44417349893E+03  0.25500000000E-02 0.  1.
          2   -1    0    0  501    0  0.00000000000E+00 -0.00000000000E+00 -0.35339083372E+04  0.35339083372E+04  0.25500000000E-02 0. -1.
    8880022    1    1    2    0    0  0.69740798353E+03 -0.51903860937E+03 -0.29563973432E+04  0.30853615472E+04  0.15294330000E+03 0.  0.
    8880022    1    1    2    0    0 -0.69740798353E+03  0.51903860937E+03 -0.13333749508E+03  0.89272028885E+03  0.15294330000E+03 0.  0.
<mgrwt>
<rscale>  0 0.88270642E+03</rscale>
<asrwt>0</asrwt>
<pdfrwt beam="1">  1        2 0.54367819E+00 0.88270642E+03</pdfrwt>
<pdfrwt beam="2">  1       -2 0.68334387E-01 0.88270642E+03</pdfrwt>
<totfact> 0.15970240E+00</totfact>
</mgrwt>
</event>
<event>
 4    1  0.4840632E-008  0.3913985E+03  0.7818608E-02  0.1046799E+00
         -2   -1    0    0    0  501 -0.00000000000E+00  0.00000000000E+00  0.88057519134E+03  0.88057519134E+03  0.25500000000E-02 0.  1.
          2   -1    0    0  501    0  0.00000000000E+00 -0.00000000000E+00 -0.11220876921E+04  0.11220876921E+04  0.25500000000E-02 0. -1.
    8880022    1    1    2    0    0 -0.35792939420E+02  0.35849686475E+03 -0.10411969358E+04  0.11123326160E+04  0.15294330000E+03 0.  0.
    8880022    1    1    2    0    0  0.35792939420E+02 -0.35849686475E+03  0.79968443500E+03  0.89033026745E+03  0.15294330000E+03 0.  0.
<mgrwt>
<rscale>  0 0.39139850E+03</rscale>
<asrwt>0</asrwt>
<pdfrwt beam="1">  1        2 0.17262888E+00 0.39139850E+03</pdfrwt>
<pdfrwt beam="2">  1       -2 0.13547311E+00 0.39139850E+03</pdfrwt>
<totfact> 0.89590856E+00</totfact>
</mgrwt>
</event>
<event>
 4    1  0.4840632E-008  0.6548223E+03  0.7818608E-02  0.9797772E-01
         -2   -1    0    0    0  501 -0.00000000000E+00  0.00000000000E+00  0.35240670601E+03  0.35240670602E+03  0.25500000000E-02 0.  1.
          2   -1    0    0  501    0  0.00000000000E+00 -0.00000000000E+00 -0.16745588069E+04  0.16745588069E+04  0.25500000000E-02 0. -1.
    8880022    1    1    2    0    0  0.57613332854E+03 -0.27105541124E+03 -0.11909911482E+04  0.13591365702E+04  0.15294330000E+03 0.  0.
    8880022    1    1    2    0    0 -0.57613332854E+03  0.27105541124E+03 -0.13116095262E+03  0.66782894271E+03  0.15294330000E+03 0.  0.
<mgrwt>
<rscale>  0 0.65482234E+03</rscale>
<asrwt>0</asrwt>
<pdfrwt beam="1">  1        2 0.25762443E+00 0.65482234E+03</pdfrwt>
<pdfrwt beam="2">  1       -2 0.54216417E-01 0.65482234E+03</pdfrwt>
<totfact> 0.33702050E+01</totfact>
</mgrwt>
</event>
<event>
 4    1  0.4840632E-008  0.6816717E+03  0.7818608E-02  0.9749100E-01
         -2   -1    0    0    0  501 -0.00000000000E+00  0.00000000000E+00  0.70243989884E+03  0.70243989884E+03  0.25500000000E-02 0.  1.
          2   -1    0    0  501    0  0.00000000000E+00 -0.00000000000E+00 -0.76293093550E+03  0.76293093551E+03  0.25500000000E-02 0. -1.
    8880022    1    1    2    0    0 -0.66261020307E+03 -0.47247797230E+02  0.23688448791E+03  0.72165819415E+03  0.15294330000E+03 0.  0.
    8880022    1    1    2    0    0  0.66261020307E+03  0.47247797230E+02 -0.29737552457E+03  0.74371264020E+03  0.15294330000E+03 0.  0.
<mgrwt>
<rscale>  0 0.68167169E+03</rscale>
<asrwt>0</asrwt>
<pdfrwt beam="1">  1        2 0.11737399E+00 0.68167169E+03</pdfrwt>
<pdfrwt beam="2">  1       -2 0.10806768E+00 0.68167169E+03</pdfrwt>
<totfact> 0.25670789E+01</totfact>
</mgrwt>
</event>
<event>
 4    1  0.4840632E-008  0.6420983E+03  0.7818608E-02  0.9821720E-01
          2   -1    0    0  501    0  0.00000000000E+00  0.00000000000E+00  0.85682473466E+03  0.85682473466E+03  0.25500000000E-02 0. -1.
         -2   -1    0    0    0  501 -0.00000000000E+00 -0.00000000000E+00 -0.12437021642E+04  0.12437021642E+04  0.25500000000E-02 0.  1.
    8880022    1    1    2    0    0 -0.43425819198E+03 -0.44756941729E+03 -0.10158048158E+04  0.12017277717E+04  0.15294330000E+03 0.  0.
    8880022    1    1    2    0    0  0.43425819198E+03  0.44756941729E+03  0.62892738629E+03  0.89879912708E+03  0.15294330000E+03 0.  0.
<mgrwt>
<rscale>  0 0.64209829E+03</rscale>
<asrwt>0</asrwt>
<pdfrwt beam="1">  1        2 0.13181919E+00 0.64209829E+03</pdfrwt>
<pdfrwt beam="2">  1       -2 0.19133879E+00 0.64209829E+03</pdfrwt>
<totfact> 0.49443806E+00</totfact>
</mgrwt>
</event>
<event>
 4    1  0.4840632E-008  0.6527034E+03  0.7818608E-02  0.9801720E-01
          2   -1    0    0  501    0  0.00000000000E+00  0.00000000000E+00  0.18223124276E+04  0.18223124276E+04  0.25500000000E-02 0. -1.
         -2   -1    0    0    0  501 -0.00000000000E+00 -0.00000000000E+00 -0.35992088421E+03  0.35992088422E+03  0.25500000000E-02 0.  1.
    8880022    1    1    2    0    0  0.22607757041E+03  0.59289039457E+03  0.85252853708E+02  0.65824751416E+03  0.15294330000E+03 0.  0.
    8880022    1    1    2    0    0 -0.22607757041E+03 -0.59289039457E+03  0.13771386897E+04  0.15239857976E+04  0.15294330000E+03 0.  0.
<mgrwt>
<rscale>  0 0.65270341E+03</rscale>
<asrwt>0</asrwt>
<pdfrwt beam="1">  1        2 0.28035576E+00 0.65270341E+03</pdfrwt>
<pdfrwt beam="2">  1       -2 0.55372443E-01 0.65270341E+03</pdfrwt>
<totfact> 0.26821062E+01</totfact>
</mgrwt>
</event>
<event>
 4    1  0.4840632E-008  0.2573544E+03  0.7818608E-02  0.1108743E+00
         -2   -1    0    0    0  501 -0.00000000000E+00  0.00000000000E+00  0.33205466287E+02  0.33205466385E+02  0.25500000000E-02 0.  1.
          2   -1    0    0  501    0  0.00000000000E+00 -0.00000000000E+00 -0.19972788988E+04  0.19972788988E+04  0.25500000000E-02 0. -1.
    8880022    1    1    2    0    0 -0.17361754232E+03 -0.11267904585E+03 -0.94478164025E+03  0.97920560616E+03  0.15294330000E+03 0.  1.
    8880022    1    1    2    0    0  0.17361754232E+03  0.11267904585E+03 -0.10192917922E+04  0.10512787590E+04  0.15294330000E+03 0. -1.
<mgrwt>
<rscale>  0 0.25735437E+03</rscale>
<asrwt>0</asrwt>
<pdfrwt beam="1">  1        2 0.30727358E+00 0.25735437E+03</pdfrwt>
<pdfrwt beam="2">  1       -2 0.51085348E-02 0.25735437E+03</pdfrwt>
<totfact> 0.14140027E+03</totfact>
</mgrwt>
</event>
<event>
 4    1  0.4840632E-008  0.2831972E+03  0.7818608E-02  0.1093955E+00
          2   -1    0    0  501    0  0.00000000000E+00  0.00000000000E+00  0.11402074472E+04  0.11402074472E+04  0.25500000000E-02 0. -1.
         -2   -1    0    0    0  501 -0.00000000000E+00 -0.00000000000E+00 -0.16651757122E+03  0.16651757124E+03  0.25500000000E-02 0.  1.
    8880022    1    1    2    0    0 -0.14723888431E+03 -0.18742926376E+03 -0.97063250377E+01  0.28336351870E+03  0.15294330000E+03 0.  0.
    8880022    1    1    2    0    0  0.14723888431E+03  0.18742926376E+03  0.98339620103E+03  0.10233614998E+04  0.15294330000E+03 0. -1.
<mgrwt>
<rscale>  0 0.28319723E+03</rscale>
<asrwt>0</asrwt>
<pdfrwt beam="1">  1        2 0.17541653E+00 0.28319723E+03</pdfrwt>
<pdfrwt beam="2">  1       -2 0.25618087E-01 0.28319723E+03</pdfrwt>
<totfact> 0.29624928E+02</totfact>
</mgrwt>
</event>
<event>
 4    1  0.4840632E-008  0.5555244E+03  0.7818608E-02  0.1000223E+00
          2   -1    0    0  501    0  0.00000000000E+00  0.00000000000E+00  0.14838849370E+04  0.14838849370E+04  0.25500000000E-02 0. -1.
         -2   -1    0    0    0  501 -0.00000000000E+00 -0.00000000000E+00 -0.43472111579E+03  0.43472111579E+03  0.25500000000E-02 0.  1.
    8880022    1    1    2    0    0 -0.21299733036E+03 -0.48974259111E+03 -0.16824177967E+03  0.58044174361E+03  0.15294330000E+03 0.  0.
    8880022    1    1    2    0    0  0.21299733036E+03  0.48974259111E+03  0.12174056009E+04  0.13381643092E+04  0.15294330000E+03 0.  0.
<mgrwt>
<rscale>  0 0.55552437E+03</rscale>
<asrwt>0</asrwt>
<pdfrwt beam="1">  1        2 0.22828999E+00 0.55552437E+03</pdfrwt>
<pdfrwt beam="2">  1       -2 0.66880172E-01 0.55552437E+03</pdfrwt>
<totfact> 0.27950650E+01</totfact>
</mgrwt>
</event>
<event>
 4    1  0.4840632E-008  0.1688264E+03  0.7818608E-02  0.1179077E+00
          2   -1    0    0  501    0  0.00000000000E+00  0.00000000000E+00  0.55736344446E+03  0.55736344446E+03  0.25500000000E-02 0. -1.
         -2   -1    0    0    0  501 -0.00000000000E+00 -0.00000000000E+00 -0.33442583197E+03  0.33442583198E+03  0.25500000000E-02 0.  1.
    8880022    1    1    2    0    0  0.45581823020E+00 -0.71487601302E+02 -0.29892090012E+03  0.34330167849E+03  0.15294330000E+03 0.  1.
    8880022    1    1    2    0    0 -0.45581823020E+00  0.71487601302E+02  0.52185851261E+03  0.54848759795E+03  0.15294330000E+03 0.  0.
<mgrwt>
<rscale>  0 0.16882635E+03</rscale>
<asrwt>0</asrwt>
<pdfrwt beam="1">  1        2 0.85748221E-01 0.16882635E+03</pdfrwt>
<pdfrwt beam="2">  1       -2 0.51450129E-01 0.16882635E+03</pdfrwt>
<totfact> 0.20366417E+02</totfact>
</mgrwt>
</event>
<event>
 4    1  0.4840632E-008  0.7514631E+03  0.7818608E-02  0.9633058E-01
          2   -1    0    0  501    0  0.00000000000E+00  0.00000000000E+00  0.79192159567E+03  0.79192159568E+03  0.25500000000E-02 0. -1.
         -2   -1    0    0    0  501 -0.00000000000E+00 -0.00000000000E+00 -0.11661879935E+04  0.11661879935E+04  0.25500000000E-02 0.  1.
    8880022    1    1    2    0    0 -0.72332226963E+03  0.13457364912E+03  0.42314462239E+03  0.86240837035E+03  0.15294330000E+03 0.  0.
    8880022    1    1    2    0    0  0.72332226963E+03 -0.13457364912E+03 -0.79741102021E+03  0.10957012188E+04  0.15294330000E+03 0.  0.
<mgrwt>
<rscale>  0 0.75146312E+03</rscale>
<asrwt>0</asrwt>
<pdfrwt beam="1">  1        2 0.12183409E+00 0.75146312E+03</pdfrwt>
<pdfrwt beam="2">  1       -2 0.17941354E+00 0.75146312E+03</pdfrwt>
<totfact> 0.65102803E+00</totfact>
</mgrwt>
</event>
<event>
 4    1  0.4840632E-008  0.3554114E+03  0.7818608E-02  0.1060416E+00
         -2   -1    0    0    0  501 -0.00000000000E+00  0.00000000000E+00  0.61786012652E+03  0.61786012653E+03  0.25500000000E-02 0.  1.
          2   -1    0    0  501    0  0.00000000000E+00 -0.00000000000E+00 -0.20966239362E+03  0.20966239363E+03  0.25500000000E-02 0. -1.
    8880022    1    1    2    0    0  0.27330128750E+03 -0.16802380323E+03  0.13881662685E+03  0.38155904013E+03  0.15294330000E+03 0.  0.
    8880022    1    1    2    0    0 -0.27330128750E+03  0.16802380323E+03  0.26938110606E+03  0.44596348003E+03  0.15294330000E+03 0.  0.
<mgrwt>
<rscale>  0 0.35541137E+03</rscale>
<asrwt>0</asrwt>
<pdfrwt beam="1">  1        2 0.32255753E-01 0.35541137E+03</pdfrwt>
<pdfrwt beam="2">  1       -2 0.95055404E-01 0.35541137E+03</pdfrwt>
<totfact> 0.15638451E+02</totfact>
</mgrwt>
</event>
<event>
 4    1  0.4840632E-008  0.2808602E+03  0.7818608E-02  0.1095220E+00
         -2   -1    0    0    0  501 -0.00000000000E+00  0.00000000000E+00  0.17812607393E+04  0.17812607393E+04  0.25500000000E-02 0.  1.
          2   -1    0    0  501    0  0.00000000000E+00 -0.00000000000E+00 -0.12641542691E+04  0.12641542691E+04  0.25500000000E-02 0. -1.
    8880022    1    1    2    0    0  0.92699980244E+02 -0.21655832528E+03  0.17543519782E+04  0.17766916758E+04  0.15294330000E+03 0.  1.
    8880022    1    1    2    0    0 -0.92699980244E+02  0.21655832528E+03 -0.12372455080E+04  0.12687233326E+04  0.15294330000E+03 0.  0.
<mgrwt>
<rscale>  0 0.28086019E+03</rscale>
<asrwt>0</asrwt>
<pdfrwt beam="1">  1        2 0.19448527E+00 0.28086019E+03</pdfrwt>
<pdfrwt beam="2">  1       -2 0.27404011E+00 0.28086019E+03</pdfrwt>
<totfact> 0.96442413E-01</totfact>
</mgrwt>
</event>
<event>
 4    1  0.4840632E-008  0.3387098E+03  0.7818608E-02  0.1067347E+00
          2   -1    0    0  501    0  0.00000000000E+00  0.00000000000E+00  0.11365561231E+04  0.11365561231E+04  0.25500000000E-02 0. -1.
         -2   -1    0    0    0  501 -0.00000000000E+00 -0.00000000000E+00 -0.60880339532E+03  0.60880339532E+03  0.25500000000E-02 0.  1.
    8880022    1    1    2    0    0  0.24793441564E+03  0.17280385969E+03 -0.53318122911E+03  0.63166963238E+03  0.15294330000E+03 0.  1.
    8880022    1    1    2    0    0 -0.24793441564E+03 -0.17280385969E+03  0.10609339569E+04  0.11136898861E+04  0.15294330000E+03 0.  0.
<mgrwt>
<rscale>  0 0.33870976E+03</rscale>
<asrwt>0</asrwt>
<pdfrwt beam="1">  1        2 0.17485479E+00 0.33870976E+03</pdfrwt>
<pdfrwt beam="2">  1       -2 0.93662060E-01 0.33870976E+03</pdfrwt>
<totfact> 0.21670884E+01</totfact>
</mgrwt>
</event>
<event>
 4    1  0.4840632E-008  0.4691147E+03  0.7818608E-02  0.1022170E+00
         -2   -1    0    0    0  501 -0.00000000000E+00  0.00000000000E+00  0.47523931507E+03  0.47523931507E+03  0.25500000000E-02 0.  1.
          2   -1    0    0  501    0  0.00000000000E+00 -0.00000000000E+00 -0.90493825017E+03  0.90493825017E+03  0.25500000000E-02 0. -1.
    8880022    1    1    2    0    0  0.31860683684E+03 -0.30849085778E+03  0.26736740417E+03  0.53995732020E+03  0.15294330000E+03 0.  0.
    8880022    1    1    2    0    0 -0.31860683684E+03  0.30849085778E+03 -0.69706633927E+03  0.84022024504E+03  0.15294330000E+03 0.  0.
<mgrwt>
<rscale>  0 0.46911468E+03</rscale>
<asrwt>0</asrwt>
<pdfrwt beam="1">  1        2 0.13922127E+00 0.46911468E+03</pdfrwt>
<pdfrwt beam="2">  1       -2 0.73113741E-01 0.46911468E+03</pdfrwt>
<totfact> 0.51352441E+01</totfact>
</mgrwt>
</event>
<event>
 4    1  0.4840632E-008  0.8809626E+03  0.7818608E-02  0.9449697E-01
         -2   -1    0    0    0  501 -0.00000000000E+00  0.00000000000E+00  0.12488479390E+04  0.12488479390E+04  0.25500000000E-02 0.  1.
          2   -1    0    0  501    0  0.00000000000E+00 -0.00000000000E+00 -0.13710645442E+04  0.13710645443E+04  0.25500000000E-02 0. -1.
    8880022    1    1    2    0    0 -0.69817747006E+03 -0.51502592773E+03  0.90749772719E+03  0.12647716252E+04  0.15294330000E+03 0.  1.
    8880022    1    1    2    0    0  0.69817747006E+03  0.51502592773E+03 -0.10297143324E+04  0.13551408581E+04  0.15294330000E+03 0.  0.
<mgrwt>
<rscale>  0 0.88096262E+03</rscale>
<asrwt>0</asrwt>
<pdfrwt beam="1">  1        2 0.21093301E+00 0.88096262E+03</pdfrwt>
<pdfrwt beam="2">  1       -2 0.19213045E+00 0.88096262E+03</pdfrwt>
<totfact> 0.22735918E+00</totfact>
</mgrwt>
</event>
<event>
 4    1  0.4840632E-008  0.1696305E+04  0.7818608E-02  0.8763475E-01
          2   -1    0    0  501    0  0.00000000000E+00  0.00000000000E+00  0.24531948240E+04  0.24531948240E+04  0.25500000000E-02 0. -1.
         -2   -1    0    0    0  501 -0.00000000000E+00 -0.00000000000E+00 -0.13073268282E+04  0.13073268282E+04  0.25500000000E-02 0.  1.
    8880022    1    1    2    0    0 -0.13893448005E+04 -0.96113403492E+03 -0.29910181062E+02  0.16965682656E+04  0.15294330000E+03 0.  0.
    8880022    1    1    2    0    0  0.13893448005E+04  0.96113403492E+03  0.11757781768E+04  0.20639533866E+04  0.15294330000E+03 0.  0.
<mgrwt>
<rscale>  0 0.16963046E+04</rscale>
<asrwt>0</asrwt>
<pdfrwt beam="1">  1        2 0.37741458E+00 0.16963046E+04</pdfrwt>
<pdfrwt beam="2">  1       -2 0.20112721E+00 0.16963046E+04</pdfrwt>
<totfact> 0.44597195E-01</totfact>
</mgrwt>
</event>
<event>
 4    1  0.4840632E-008  0.5121749E+03  0.7818608E-02  0.1010649E+00
         -2   -1    0    0    0  501 -0.00000000000E+00  0.00000000000E+00  0.27944460028E+03  0.27944460029E+03  0.25500000000E-02 0.  1.
          2   -1    0    0  501    0  0.00000000000E+00 -0.00000000000E+00 -0.17092320956E+04  0.17092320956E+04  0.25500000000E-02 0. -1.
    8880022    1    1    2    0    0 -0.12941444088E+03 -0.47136334960E+03 -0.47287408199E+02  0.51435324131E+03  0.15294330000E+03 0.  1.
    8880022    1    1    2    0    0  0.12941444088E+03  0.47136334960E+03 -0.13825000871E+04  0.14743234546E+04  0.15294330000E+03 0.  0.
<mgrwt>
<rscale>  0 0.51217493E+03</rscale>
<asrwt>0</asrwt>
<pdfrwt beam="1">  1        2 0.26295878E+00 0.51217493E+03</pdfrwt>
<pdfrwt beam="2">  1       -2 0.42991478E-01 0.51217493E+03</pdfrwt>
<totfact> 0.52596456E+01</totfact>
</mgrwt>
</event>
<event>
 4    1  0.4840632E-008  0.3087285E+03  0.7818608E-02  0.1080957E+00
         -2   -1    0    0    0  501 -0.00000000000E+00  0.00000000000E+00  0.18914387212E+03  0.18914387213E+03  0.25500000000E-02 0.  1.
          2   -1    0    0  501    0  0.00000000000E+00 -0.00000000000E+00 -0.23814352631E+04  0.23814352631E+04  0.25500000000E-02 0. -1.
    8880022    1    1    2    0    0  0.44256702978E+02 -0.26450510122E+03  0.45084898252E+02  0.31200305350E+03  0.15294330000E+03 0.  1.
    8880022    1    1    2    0    0 -0.44256702978E+02  0.26450510122E+03 -0.22373762892E+04  0.22585760817E+04  0.15294330000E+03 0.  0.
<mgrwt>
<rscale>  0 0.30872845E+03</rscale>
<asrwt>0</asrwt>
<pdfrwt beam="1">  1        2 0.36637464E+00 0.30872845E+03</pdfrwt>
<pdfrwt beam="2">  1       -2 0.29099059E-01 0.30872845E+03</pdfrwt>
<totfact> 0.50180022E+01</totfact>
</mgrwt>
</event>
<event>
 4    1  0.4840632E-008  0.1107785E+04  0.7818608E-02  0.9197637E-01
         -2   -1    0    0    0  501 -0.00000000000E+00  0.00000000000E+00  0.67618861653E+03  0.67618861654E+03  0.25500000000E-02 0.  1.
          2   -1    0    0  501    0  0.00000000000E+00 -0.00000000000E+00 -0.20102875712E+04  0.20102875712E+04  0.25500000000E-02 0. -1.
    8880022    1    1    2    0    0  0.25218901981E+02 -0.10968869772E+04 -0.24824129613E+03  0.11352587493E+04  0.15294330000E+03 0.  0.
    8880022    1    1    2    0    0 -0.25218901981E+02  0.10968869772E+04 -0.10858576585E+04  0.15512174384E+04  0.15294330000E+03 0.  0.
<mgrwt>
<rscale>  0 0.11077855E+04</rscale>
<asrwt>0</asrwt>
<pdfrwt beam="1">  1        2 0.30927501E+00 0.11077855E+04</pdfrwt>
<pdfrwt beam="2">  1       -2 0.10402902E+00 0.11077855E+04</pdfrwt>
<totfact> 0.48965495E+00</totfact>
</mgrwt>
</event>
<event>
 4    1  0.4840632E-008  0.3495595E+03  0.7818608E-02  0.1062796E+00
         -2   -1    0    0    0  501 -0.00000000000E+00  0.00000000000E+00  0.60227967947E+03  0.60227967948E+03  0.25500000000E-02 0.  1.
          2   -1    0    0  501    0  0.00000000000E+00 -0.00000000000E+00 -0.30574743085E+03  0.30574743086E+03  0.25500000000E-02 0. -1.
    8880022    1    1    2    0    0 -0.24441142529E+03  0.19764417881E+03 -0.11507685151E+03  0.36801426738E+03  0.15294330000E+03 0.  0.
    8880022    1    1    2    0    0  0.24441142529E+03 -0.19764417881E+03  0.41160910014E+03  0.54001284296E+03  0.15294330000E+03 0.  0.
<mgrwt>
<rscale>  0 0.34955946E+03</rscale>
<asrwt>0</asrwt>
<pdfrwt beam="1">  1        2 0.47038066E-01 0.34955946E+03</pdfrwt>
<pdfrwt beam="2">  1       -2 0.92658412E-01 0.34955946E+03</pdfrwt>
<totfact> 0.10974294E+02</totfact>
</mgrwt>
</event>
<event>
 4    1  0.4840632E-008  0.7548616E+03  0.7818608E-02  0.9627754E-01
          2   -1    0    0  501    0  0.00000000000E+00  0.00000000000E+00  0.26197931834E+03  0.26197931835E+03  0.25500000000E-02 0. -1.
         -2   -1    0    0    0  501 -0.00000000000E+00 -0.00000000000E+00 -0.24150147953E+04  0.24150147953E+04  0.25500000000E-02 0.  1.
    8880022    1    1    2    0    0 -0.73723517439E+03  0.53932383618E+02 -0.14984457906E+04  0.16778426162E+04  0.15294330000E+03 0.  0.
    8880022    1    1    2    0    0  0.73723517439E+03 -0.53932383618E+02 -0.65458968640E+03  0.99915149748E+03  0.15294330000E+03 0.  0.
<mgrwt>
<rscale>  0 0.75486161E+03</rscale>
<asrwt>0</asrwt>
<pdfrwt beam="1">  1        2 0.40304512E-01 0.75486161E+03</pdfrwt>
<pdfrwt beam="2">  1       -2 0.37154072E+00 0.75486161E+03</pdfrwt>
<totfact> 0.15298688E+00</totfact>
</mgrwt>
</event>
<event>
 4    1  0.4840632E-008  0.1735078E+03  0.7818608E-02  0.1174238E+00
          2   -1    0    0  501    0  0.00000000000E+00  0.00000000000E+00  0.81985435527E+03  0.81985435527E+03  0.25500000000E-02 0. -1.
         -2   -1    0    0    0  501 -0.00000000000E+00 -0.00000000000E+00 -0.44857623350E+03  0.44857623351E+03  0.25500000000E-02 0.  1.
    8880022    1    1    2    0    0 -0.13952305674E+02  0.80738104112E+02 -0.42206405207E+03  0.45633652643E+03  0.15294330000E+03 0.  0.
    8880022    1    1    2    0    0  0.13952305674E+02 -0.80738104112E+02  0.79334217384E+03  0.81209406235E+03  0.15294330000E+03 0. -1.
<mgrwt>
<rscale>  0 0.17350781E+03</rscale>
<asrwt>0</asrwt>
<pdfrwt beam="1">  1        2 0.12613144E+00 0.17350781E+03</pdfrwt>
<pdfrwt beam="2">  1       -2 0.69011728E-01 0.17350781E+03</pdfrwt>
<totfact> 0.70185323E+01</totfact>
</mgrwt>
</event>
<event>
 4    1  0.4840632E-008  0.4123348E+03  0.7818608E-02  0.1039590E+00
          2   -1    0    0  501    0  0.00000000000E+00  0.00000000000E+00  0.21122862987E+04  0.21122862987E+04  0.25500000000E-02 0. -1.
         -2   -1    0    0    0  501 -0.00000000000E+00 -0.00000000000E+00 -0.14342090902E+03  0.14342090905E+03  0.25500000000E-02 0.  1.
    8880022    1    1    2    0    0  0.13572824054E+03 -0.35805893172E+03  0.23733895638E+03  0.47576232206E+03  0.15294330000E+03 0.  1.
    8880022    1    1    2    0    0 -0.13572824054E+03  0.35805893172E+03  0.17315264333E+04  0.17799448857E+04  0.15294330000E+03 0.  1.
<mgrwt>
<rscale>  0 0.41233482E+03</rscale>
<asrwt>0</asrwt>
<pdfrwt beam="1">  1        2 0.32496711E+00 0.41233482E+03</pdfrwt>
<pdfrwt beam="2">  1       -2 0.22064756E-01 0.41233482E+03</pdfrwt>
<totfact> 0.11191788E+02</totfact>
</mgrwt>
</event>
<event>
 4    1  0.4840632E-008  0.9646418E+03  0.7818608E-02  0.9348198E-01
         -2   -1    0    0    0  501 -0.00000000000E+00  0.00000000000E+00  0.70986894302E+03  0.70986894302E+03  0.25500000000E-02 0.  1.
          2   -1    0    0  501    0  0.00000000000E+00 -0.00000000000E+00 -0.14083137199E+04  0.14083137199E+04  0.25500000000E-02 0. -1.
    8880022    1    1    2    0    0  0.71921991872E+03  0.62439151938E+03 -0.62783379399E+03  0.11509600283E+04  0.15294330000E+03 0.  0.
    8880022    1    1    2    0    0 -0.71921991872E+03 -0.62439151938E+03 -0.70610982915E+02  0.96722263460E+03  0.15294330000E+03 0.  0.
<mgrwt>
<rscale>  0 0.96464175E+03</rscale>
<asrwt>0</asrwt>
<pdfrwt beam="1">  1        2 0.21666365E+00 0.96464175E+03</pdfrwt>
<pdfrwt beam="2">  1       -2 0.10921061E+00 0.96464175E+03</pdfrwt>
<totfact> 0.95481881E+00</totfact>
</mgrwt>
</event>
<event>
 4    1  0.4840632E-008  0.7310874E+03  0.7818608E-02  0.9665497E-01
          2   -1    0    0  501    0  0.00000000000E+00  0.00000000000E+00  0.33707519917E+03  0.33707519918E+03  0.25500000000E-02 0. -1.
         -2   -1    0    0    0  501 -0.00000000000E+00 -0.00000000000E+00 -0.16348456381E+04  0.16348456381E+04  0.25500000000E-02 0.  1.
    8880022    1    1    2    0    0  0.55072686406E+03 -0.45584765847E+03 -0.47787897197E+03  0.87341692873E+03  0.15294330000E+03 0.  0.
    8880022    1    1    2    0    0 -0.55072686406E+03  0.45584765847E+03 -0.81989146700E+03  0.10985039086E+04  0.15294330000E+03 0.  0.
<mgrwt>
<rscale>  0 0.73108742E+03</rscale>
<asrwt>0</asrwt>
<pdfrwt beam="1">  1        2 0.51857724E-01 0.73108742E+03</pdfrwt>
<pdfrwt beam="2">  1       -2 0.25151471E+00 0.73108742E+03</pdfrwt>
<totfact> 0.62467700E+00</totfact>
</mgrwt>
</event>
<event>
 4    1  0.4840632E-008  0.4992979E+03  0.7818608E-02  0.1013962E+00
          2   -1    0    0  501    0  0.00000000000E+00  0.00000000000E+00  0.91967925344E+03  0.91967925345E+03  0.25500000000E-02 0. -1.
         -2   -1    0    0    0  501 -0.00000000000E+00 -0.00000000000E+00 -0.34910163206E+03  0.34910163207E+03  0.25500000000E-02 0.  1.
    8880022    1    1    2    0    0  0.30748419758E+03  0.36243646541E+03  0.58521421324E+03  0.76926851724E+03  0.15294330000E+03 0. -1.
    8880022    1    1    2    0    0 -0.30748419758E+03 -0.36243646541E+03 -0.14636591859E+02  0.49951236827E+03  0.15294330000E+03 0.  0.
<mgrwt>
<rscale>  0 0.49929788E+03</rscale>
<asrwt>0</asrwt>
<pdfrwt beam="1">  1        2 0.14148911E+00 0.49929788E+03</pdfrwt>
<pdfrwt beam="2">  1       -2 0.53707944E-01 0.49929788E+03</pdfrwt>
<totfact> 0.96186135E+01</totfact>
</mgrwt>
</event>
<event>
 4    1  0.4840632E-008  0.4704229E+03  0.7818608E-02  0.1021801E+00
         -2   -1    0    0    0  501 -0.00000000000E+00  0.00000000000E+00  0.24604032144E+03  0.24604032145E+03  0.25500000000E-02 0.  1.
          2   -1    0    0  501    0  0.00000000000E+00 -0.00000000000E+00 -0.17065539846E+04  0.17065539846E+04  0.25500000000E-02 0. -1.
    8880022    1    1    2    0    0  0.16425026856E+03 -0.41343427866E+03 -0.14016707168E+04  0.14785054970E+04  0.15294330000E+03 0.  0.
    8880022    1    1    2    0    0 -0.16425026856E+03  0.41343427866E+03 -0.58842946397E+02  0.47408880903E+03  0.15294330000E+03 0.  0.
<mgrwt>
<rscale>  0 0.47042290E+03</rscale>
<asrwt>0</asrwt>
<pdfrwt beam="1">  1        2 0.26254676E+00 0.47042290E+03</pdfrwt>
<pdfrwt beam="2">  1       -2 0.37852358E-01 0.47042290E+03</pdfrwt>
<totfact> 0.68030160E+01</totfact>
</mgrwt>
</event>
<event>
 4    1  0.4840632E-008  0.6792248E+03  0.7818608E-02  0.9753435E-01
          2   -1    0    0  501    0  0.00000000000E+00  0.00000000000E+00  0.18191755411E+04  0.18191755411E+04  0.25500000000E-02 0. -1.
         -2   -1    0    0    0  501 -0.00000000000E+00 -0.00000000000E+00 -0.25792862424E+03  0.25792862426E+03  0.25500000000E-02 0.  1.
    8880022    1    1    2    0    0  0.54679500388E+03  0.37278663226E+03  0.64611175175E+03  0.93744690422E+03  0.15294330000E+03 0.  0.
    8880022    1    1    2    0    0 -0.54679500388E+03 -0.37278663226E+03  0.91513516514E+03  0.11396572612E+04  0.15294330000E+03 0.  0.
<mgrwt>
<rscale>  0 0.67922478E+03</rscale>
<asrwt>0</asrwt>
<pdfrwt beam="1">  1        2 0.27987317E+00 0.67922478E+03</pdfrwt>
<pdfrwt beam="2">  1       -2 0.39681326E-01 0.67922478E+03</pdfrwt>
<totfact> 0.52366820E+01</totfact>
</mgrwt>
</event>
<event>
 4    1  0.4840632E-008  0.6049348E+03  0.7818608E-02  0.9895220E-01
          2   -1    0    0  501    0  0.00000000000E+00  0.00000000000E+00  0.51200319098E+03  0.51200319099E+03  0.25500000000E-02 0. -1.
         -2   -1    0    0    0  501 -0.00000000000E+00 -0.00000000000E+00 -0.12806573451E+04  0.12806573451E+04  0.25500000000E-02 0.  1.
    8880022    1    1    2    0    0 -0.57043369427E+03  0.13099573190E+03 -0.98016804508E+03  0.11518140175E+04  0.15294330000E+03 0.  0.
    8880022    1    1    2    0    0  0.57043369427E+03 -0.13099573190E+03  0.21151389093E+03  0.64084651861E+03  0.15294330000E+03 0.  0.
<mgrwt>
<rscale>  0 0.60493482E+03</rscale>
<asrwt>0</asrwt>
<pdfrwt beam="1">  1        2 0.78769722E-01 0.60493482E+03</pdfrwt>
<pdfrwt beam="2">  1       -2 0.19702421E+00 0.60493482E+03</pdfrwt>
<totfact> 0.86456405E+00</totfact>
</mgrwt>
</event>
<event>
 4    1  0.4840632E-008  0.1535815E+03  0.7818608E-02  0.1196140E+00
          2   -1    0    0  501    0  0.00000000000E+00  0.00000000000E+00  0.64524850212E+03  0.64524850212E+03  0.25500000000E-02 0. -1.
         -2   -1    0    0    0  501 -0.00000000000E+00 -0.00000000000E+00 -0.28857066857E+03  0.28857066858E+03  0.25500000000E-02 0.  1.
    8880022    1    1    2    0    0  0.97117921620E+01 -0.10064769333E+02  0.61467405141E+03  0.63357040728E+03  0.15294330000E+03 0. -1.
    8880022    1    1    2    0    0 -0.97117921620E+01  0.10064769333E+02 -0.25799621786E+03  0.30024876342E+03  0.15294330000E+03 0.  0.
<mgrwt>
<rscale>  0 0.15358148E+03</rscale>
<asrwt>0</asrwt>
<pdfrwt beam="1">  1        2 0.99268998E-01 0.15358148E+03</pdfrwt>
<pdfrwt beam="2">  1       -2 0.44395488E-01 0.15358148E+03</pdfrwt>
<totfact> 0.23064405E+02</totfact>
</mgrwt>
</event>
<event>
 4    1  0.4840632E-008  0.3562640E+03  0.7818608E-02  0.1060073E+00
          2   -1    0    0  501    0  0.00000000000E+00  0.00000000000E+00  0.32117745205E+04  0.32117745205E+04  0.25500000000E-02 0. -1.
         -2   -1    0    0    0  501 -0.00000000000E+00 -0.00000000000E+00 -0.12302180149E+03  0.12302180152E+03  0.25500000000E-02 0.  1.
    8880022    1    1    2    0    0 -0.29116800174E+03 -0.13694360242E+03  0.17064912772E+03  0.39502548435E+03  0.15294330000E+03 0.  0.
    8880022    1    1    2    0    0  0.29116800174E+03  0.13694360242E+03  0.29181035913E+04  0.29397708377E+04  0.15294330000E+03 0.  0.
<mgrwt>
<rscale>  0 0.35626396E+03</rscale>
<asrwt>0</asrwt>
<pdfrwt beam="1">  1        2 0.49411915E+00 0.35626396E+03</pdfrwt>
<pdfrwt beam="2">  1       -2 0.18926431E-01 0.35626396E+03</pdfrwt>
<totfact> 0.34887047E+01</totfact>
</mgrwt>
</event>
<event>
 4    1  0.4840632E-008  0.7711818E+03  0.7818608E-02  0.9602693E-01
          2   -1    0    0  501    0  0.00000000000E+00  0.00000000000E+00  0.33019959620E+04  0.33019959620E+04  0.25500000000E-02 0. -1.
         -2   -1    0    0    0  501 -0.00000000000E+00 -0.00000000000E+00 -0.99327931143E+03  0.99327931144E+03  0.25500000000E-02 0.  1.
    8880022    1    1    2    0    0 -0.72449840245E+03 -0.21548040370E+03  0.30975511153E+04  0.31921065622E+04  0.15294330000E+03 0.  0.
    8880022    1    1    2    0    0  0.72449840245E+03  0.21548040370E+03 -0.78883446477E+03  0.11031687112E+04  0.15294330000E+03 0.  0.
<mgrwt>
<rscale>  0 0.77118182E+03</rscale>
<asrwt>0</asrwt>
<pdfrwt beam="1">  1        2 0.50799938E+00 0.77118182E+03</pdfrwt>
<pdfrwt beam="2">  1       -2 0.15281220E+00 0.77118182E+03</pdfrwt>
<totfact> 0.34091311E-01</totfact>
</mgrwt>
</event>
<event>
 4    1  0.4840632E-008  0.3904696E+03  0.7818608E-02  0.1047131E+00
          2   -1    0    0  501    0  0.00000000000E+00  0.00000000000E+00  0.11303110279E+04  0.11303110279E+04  0.25500000000E-02 0. -1.
         -2   -1    0    0    0  501 -0.00000000000E+00 -0.00000000000E+00 -0.37103195179E+03  0.37103195180E+03  0.25500000000E-02 0.  1.
    8880022    1    1    2    0    0  0.12839681634E+03 -0.33554306161E+03  0.97850841856E+03  0.10535393998E+04  0.15294330000E+03 0.  0.
    8880022    1    1    2    0    0 -0.12839681634E+03  0.33554306161E+03 -0.21922934242E+03  0.44780357997E+03  0.15294330000E+03 0.  1.
<mgrwt>
<rscale>  0 0.39046964E+03</rscale>
<asrwt>0</asrwt>
<pdfrwt beam="1">  1        2 0.17389400E+00 0.39046964E+03</pdfrwt>
<pdfrwt beam="2">  1       -2 0.57081839E-01 0.39046964E+03</pdfrwt>
<totfact> 0.63703175E+01</totfact>
</mgrwt>
</event>
<event>
 4    1  0.4840632E-008  0.4601795E+03  0.7818608E-02  0.1024729E+00
         -2   -1    0    0    0  501 -0.00000000000E+00  0.00000000000E+00  0.25201437117E+03  0.25201437118E+03  0.25500000000E-02 0.  1.
          2   -1    0    0  501    0  0.00000000000E+00 -0.00000000000E+00 -0.11326306115E+04  0.11326306116E+04  0.25500000000E-02 0. -1.
    8880022    1    1    2    0    0  0.12949465902E+03 -0.41425189259E+03 -0.79203769378E+03  0.91601793575E+03  0.15294330000E+03 0. -1.
    8880022    1    1    2    0    0 -0.12949465902E+03  0.41425189259E+03 -0.88578546606E+02  0.46862704698E+03  0.15294330000E+03 0. -1.
<mgrwt>
<rscale>  0 0.46017948E+03</rscale>
<asrwt>0</asrwt>
<pdfrwt beam="1">  1        2 0.17425086E+00 0.46017948E+03</pdfrwt>
<pdfrwt beam="2">  1       -2 0.38771442E-01 0.46017948E+03</pdfrwt>
<totfact> 0.13602212E+02</totfact>
</mgrwt>
</event>
<event>
 4    1  0.4840632E-008  0.3833614E+03  0.7818608E-02  0.1049698E+00
          2   -1    0    0  501    0  0.00000000000E+00  0.00000000000E+00  0.30334730076E+04  0.30334730076E+04  0.25500000000E-02 0. -1.
         -2   -1    0    0    0  501 -0.00000000000E+00 -0.00000000000E+00 -0.26354984353E+03  0.26354984354E+03  0.25500000000E-02 0.  1.
    8880022    1    1    2    0    0 -0.35151794662E+03 -0.30733923142E+01  0.28742628461E+04  0.28997159989E+04  0.15294330000E+03 0.  0.
    8880022    1    1    2    0    0  0.35151794662E+03  0.30733923142E+01 -0.10433968211E+03  0.39730685221E+03  0.15294330000E+03 0.  0.
<mgrwt>
<rscale>  0 0.38336140E+03</rscale>
<asrwt>0</asrwt>
<pdfrwt beam="1">  1        2 0.46668815E+00 0.38336140E+03</pdfrwt>
<pdfrwt beam="2">  1       -2 0.40546130E-01 0.38336140E+03</pdfrwt>
<totfact> 0.11150352E+01</totfact>
</mgrwt>
</event>
<event>
 4    1  0.4840632E-008  0.6068549E+03  0.7818608E-02  0.9891285E-01
          2   -1    0    0  501    0  0.00000000000E+00  0.00000000000E+00  0.21665612778E+04  0.21665612778E+04  0.25500000000E-02 0. -1.
         -2   -1    0    0    0  501 -0.00000000000E+00 -0.00000000000E+00 -0.26568881555E+03  0.26568881556E+03  0.25500000000E-02 0.  1.
    8880022    1    1    2    0    0 -0.12162904049E+03  0.57453250663E+03  0.16803419031E+04  0.17865670401E+04  0.15294330000E+03 0.  0.
    8880022    1    1    2    0    0  0.12162904049E+03 -0.57453250663E+03  0.22053055918E+03  0.64568305322E+03  0.15294330000E+03 0.  0.
<mgrwt>
<rscale>  0 0.60685491E+03</rscale>
<asrwt>0</asrwt>
<pdfrwt beam="1">  1        2 0.33331712E+00 0.60685491E+03</pdfrwt>
<pdfrwt beam="2">  1       -2 0.40875203E-01 0.60685491E+03</pdfrwt>
<totfact> 0.32338081E+01</totfact>
</mgrwt>
</event>
<event>
 4    1  0.4840632E-008  0.5714251E+03  0.7818608E-02  0.9966530E-01
          2   -1    0    0  501    0  0.00000000000E+00  0.00000000000E+00  0.21047299726E+04  0.21047299726E+04  0.25500000000E-02 0. -1.
         -2   -1    0    0    0  501 -0.00000000000E+00 -0.00000000000E+00 -0.29961559843E+03  0.29961559844E+03  0.25500000000E-02 0.  1.
    8880022    1    1    2    0    0  0.47366018827E+02  0.54853569715E+03  0.17373578656E+04  0.18289174276E+04  0.15294330000E+03 0.  0.
    8880022    1    1    2    0    0 -0.47366018827E+02 -0.54853569715E+03  0.67756508552E+02  0.57542814343E+03  0.15294330000E+03 0.  1.
<mgrwt>
<rscale>  0 0.57142506E+03</rscale>
<asrwt>0</asrwt>
<pdfrwt beam="1">  1        2 0.32380461E+00 0.57142506E+03</pdfrwt>
<pdfrwt beam="2">  1       -2 0.46094707E-01 0.57142506E+03</pdfrwt>
<totfact> 0.27739290E+01</totfact>
</mgrwt>
</event>
<event>
 4    1  0.4840632E-008  0.5395684E+03  0.7818608E-02  0.1003938E+00
         -2   -1    0    0    0  501 -0.00000000000E+00  0.00000000000E+00  0.10963167703E+03  0.10963167706E+03  0.25500000000E-02 0.  1.
          2   -1    0    0  501    0  0.00000000000E+00 -0.00000000000E+00 -0.36558882324E+04  0.36558882324E+04  0.25500000000E-02 0. -1.
    8880022    1    1    2    0    0  0.41160681976E+03  0.31356368746E+03 -0.78828134387E+03  0.95525990718E+03  0.15294330000E+03 0.  0.
    8880022    1    1    2    0    0 -0.41160681976E+03 -0.31356368746E+03 -0.27579752115E+04  0.28102600023E+04  0.15294330000E+03 0.  0.
<mgrwt>
<rscale>  0 0.53956836E+03</rscale>
<asrwt>0</asrwt>
<pdfrwt beam="1">  1        2 0.56244425E+00 0.53956836E+03</pdfrwt>
<pdfrwt beam="2">  1       -2 0.16866415E-01 0.53956836E+03</pdfrwt>
<totfact> 0.20445274E+01</totfact>
</mgrwt>
</event>
<event>
 4    1  0.4840632E-008  0.4873521E+03  0.7818608E-02  0.1017134E+00
          2   -1    0    0  501    0  0.00000000000E+00  0.00000000000E+00  0.10822640265E+04  0.10822640265E+04  0.25500000000E-02 0. -1.
         -2   -1    0    0    0  501 -0.00000000000E+00 -0.00000000000E+00 -0.88258810182E+03  0.88258810183E+03  0.25500000000E-02 0.  1.
    8880022    1    1    2    0    0  0.36933191393E+03  0.27877285751E+03 -0.75173145238E+03  0.89588626412E+03  0.15294330000E+03 0.  0.
    8880022    1    1    2    0    0 -0.36933191393E+03 -0.27877285751E+03  0.95140737707E+03  0.10689658642E+04  0.15294330000E+03 0. -1.
<mgrwt>
<rscale>  0 0.48735205E+03</rscale>
<asrwt>0</asrwt>
<pdfrwt beam="1">  1        2 0.16650216E+00 0.48735205E+03</pdfrwt>
<pdfrwt beam="2">  1       -2 0.13578279E+00 0.48735205E+03</pdfrwt>
<totfact> 0.92149235E+00</totfact>
</mgrwt>
</event>
<event>
 4    1  0.4840632E-008  0.1074699E+04  0.7818608E-02  0.9230209E-01
         -2   -1    0    0    0  501 -0.00000000000E+00  0.00000000000E+00  0.57972029268E+03  0.57972029269E+03  0.25500000000E-02 0.  1.
          2   -1    0    0  501    0  0.00000000000E+00 -0.00000000000E+00 -0.26325188655E+04  0.26325188655E+04  0.25500000000E-02 0. -1.
    8880022    1    1    2    0    0  0.58022626745E+03 -0.89158501652E+03 -0.23434378134E+03  0.10999522826E+04  0.15294330000E+03 0.  0.
    8880022    1    1    2    0    0 -0.58022626745E+03  0.89158501652E+03 -0.18184547915E+04  0.21122868756E+04  0.15294330000E+03 0.  0.
<mgrwt>
<rscale>  0 0.10746990E+04</rscale>
<asrwt>0</asrwt>
<pdfrwt beam="1">  1        2 0.40500290E+00 0.10746990E+04</pdfrwt>
<pdfrwt beam="2">  1       -2 0.89187739E-01 0.10746990E+04</pdfrwt>
<totfact> 0.31483457E+00</totfact>
</mgrwt>
</event>
<event>
 4    1  0.4840632E-008  0.4340511E+03  0.7818608E-02  0.1032588E+00
          2   -1    0    0  501    0  0.00000000000E+00  0.00000000000E+00  0.14542344931E+04  0.14542344931E+04  0.25500000000E-02 0. -1.
         -2   -1    0    0    0  501 -0.00000000000E+00 -0.00000000000E+00 -0.55230001748E+03  0.55230001748E+03  0.25500000000E-02 0.  1.
    8880022    1    1    2    0    0  0.40618362556E+03 -0.48534702480E+01 -0.42677989390E+03  0.60872113870E+03  0.15294330000E+03 0.  0.
    8880022    1    1    2    0    0 -0.40618362556E+03  0.48534702480E+01  0.13287143696E+04  0.13978133719E+04  0.15294330000E+03 0.  0.
<mgrwt>
<rscale>  0 0.43405109E+03</rscale>
<asrwt>0</asrwt>
<pdfrwt beam="1">  1        2 0.22372838E+00 0.43405109E+03</pdfrwt>
<pdfrwt beam="2">  1       -2 0.84969235E-01 0.43405109E+03</pdfrwt>
<totfact> 0.17506935E+01</totfact>
</mgrwt>
</event>
<event>
 4    1  0.4840632E-008  0.2423186E+03  0.7818608E-02  0.1118258E+00
         -2   -1    0    0    0  501 -0.00000000000E+00  0.00000000000E+00  0.69692680096E+02  0.69692680143E+02  0.25500000000E-02 0.  1.
          2   -1    0    0  501    0  0.00000000000E+00 -0.00000000000E+00 -0.98539457466E+03  0.98539457467E+03  0.25500000000E-02 0. -1.
    8880022    1    1    2    0    0 -0.44007028984E+02 -0.18272942355E+03 -0.25698213141E+03  0.35321116872E+03  0.15294330000E+03 0.  0.
    8880022    1    1    2    0    0  0.44007028984E+02  0.18272942355E+03 -0.65871976316E+03  0.70187608609E+03  0.15294330000E+03 0.  0.
<mgrwt>
<rscale>  0 0.24231862E+03</rscale>
<asrwt>0</asrwt>
<pdfrwt beam="1">  1        2 0.15159916E+00 0.24231862E+03</pdfrwt>
<pdfrwt beam="2">  1       -2 0.10721951E-01 0.24231862E+03</pdfrwt>
<totfact> 0.15902751E+03</totfact>
</mgrwt>
</event>
<event>
 4    1  0.4840632E-008  0.6413169E+03  0.7818608E-02  0.9823210E-01
         -2   -1    0    0    0  501 -0.00000000000E+00  0.00000000000E+00  0.22857994767E+03  0.22857994768E+03  0.25500000000E-02 0.  1.
          2   -1    0    0  501    0  0.00000000000E+00 -0.00000000000E+00 -0.21264132219E+04  0.21264132219E+04  0.25500000000E-02 0. -1.
    8880022    1    1    2    0    0  0.59789299202E+03 -0.17441240803E+03 -0.14107388230E+04  0.15496681573E+04  0.15294330000E+03 0. -1.
    8880022    1    1    2    0    0 -0.59789299202E+03  0.17441240803E+03 -0.48709445122E+03  0.80532501228E+03  0.15294330000E+03 0.  0.
<mgrwt>
<rscale>  0 0.64131690E+03</rscale>
<asrwt>0</asrwt>
<pdfrwt beam="1">  1        2 0.32714048E+00 0.64131690E+03</pdfrwt>
<pdfrwt beam="2">  1       -2 0.35166147E-01 0.64131690E+03</pdfrwt>
<totfact> 0.45199423E+01</totfact>
</mgrwt>
</event>
<event>
 4    1  0.4840632E-008  0.4109385E+03  0.7818608E-02  0.1040057E+00
          2   -1    0    0  501    0  0.00000000000E+00  0.00000000000E+00  0.79678650929E+03  0.79678650929E+03  0.25500000000E-02 0. -1.
         -2   -1    0    0    0  501 -0.00000000000E+00 -0.00000000000E+00 -0.45736135624E+03  0.45736135624E+03  0.25500000000E-02 0.  1.
    8880022    1    1    2    0    0 -0.37390334119E+03 -0.75332942592E+02 -0.28963958713E+03  0.50275392016E+03  0.15294330000E+03 0.  1.
    8880022    1    1    2    0    0  0.37390334119E+03  0.75332942592E+02  0.62906474018E+03  0.75139394537E+03  0.15294330000E+03 0.  0.
<mgrwt>
<rscale>  0 0.41093846E+03</rscale>
<asrwt>0</asrwt>
<pdfrwt beam="1">  1        2 0.12258254E+00 0.41093846E+03</pdfrwt>
<pdfrwt beam="2">  1       -2 0.70363287E-01 0.41093846E+03</pdfrwt>
<totfact> 0.66673341E+01</totfact>
</mgrwt>
</event>
<event>
 4    1  0.4840632E-008  0.1540384E+03  0.7818608E-02  0.1195597E+00
         -2   -1    0    0    0  501 -0.00000000000E+00  0.00000000000E+00  0.78938846645E+02  0.78938846687E+02  0.25500000000E-02 0.  1.
          2   -1    0    0  501    0  0.00000000000E+00 -0.00000000000E+00 -0.86573361922E+03  0.86573361922E+03  0.25500000000E-02 0. -1.
    8880022    1    1    2    0    0 -0.54261918334E+01  0.17513705108E+02 -0.77502561239E+03  0.79018512154E+03  0.15294330000E+03 0. -1.
    8880022    1    1    2    0    0  0.54261918334E+01 -0.17513705108E+02 -0.11769160183E+02  0.15448734437E+03  0.15294330000E+03 0.  0.
<mgrwt>
<rscale>  0 0.15403839E+03</rscale>
<asrwt>0</asrwt>
<pdfrwt beam="1">  1        2 0.13318978E+00 0.15403839E+03</pdfrwt>
<pdfrwt beam="2">  1       -2 0.12144439E-01 0.15403839E+03</pdfrwt>
<totfact> 0.15456597E+03</totfact>
</mgrwt>
</event>
<event>
 4    1  0.4840632E-008  0.2369804E+03  0.7818608E-02  0.1121821E+00
          2   -1    0    0  501    0  0.00000000000E+00  0.00000000000E+00  0.33428822617E+04  0.33428822617E+04  0.25500000000E-02 0. -1.
         -2   -1    0    0    0  501 -0.00000000000E+00 -0.00000000000E+00 -0.28432165999E+02  0.28432166113E+02  0.25500000000E-02 0.  1.
    8880022    1    1    2    0    0  0.73771286601E+02 -0.16530527242E+03  0.57902665302E+03  0.62564491026E+03  0.15294330000E+03 0.  1.
    8880022    1    1    2    0    0 -0.73771286601E+02  0.16530527242E+03  0.27354234427E+04  0.27456695176E+04  0.15294330000E+03 0.  0.
<mgrwt>
<rscale>  0 0.23698036E+03</rscale>
<asrwt>0</asrwt>
<pdfrwt beam="1">  1        2 0.51428932E+00 0.23698036E+03</pdfrwt>
<pdfrwt beam="2">  1       -2 0.43741816E-02 0.23698036E+03</pdfrwt>
<totfact> 0.31137411E+02</totfact>
</mgrwt>
</event>
<event>
 4    1  0.4840632E-008  0.1989482E+03  0.7818608E-02  0.1150629E+00
          2   -1    0    0  501    0  0.00000000000E+00  0.00000000000E+00  0.48282591764E+04  0.48282591764E+04  0.25500000000E-02 0. -1.
         -2   -1    0    0    0  501 -0.00000000000E+00 -0.00000000000E+00 -0.18622759747E+02  0.18622759922E+02  0.25500000000E-02 0.  1.
    8880022    1    1    2    0    0  0.39629761733E+02  0.12090587732E+03  0.59159761464E+03  0.62415393923E+03  0.15294330000E+03 0.  1.
    8880022    1    1    2    0    0 -0.39629761733E+02 -0.12090587732E+03  0.42180388020E+04  0.42227279971E+04  0.15294330000E+03 0.  0.
<mgrwt>
<rscale>  0 0.19894824E+03</rscale>
<asrwt>0</asrwt>
<pdfrwt beam="1">  1        2 0.74280834E+00 0.19894824E+03</pdfrwt>
<pdfrwt beam="2">  1       -2 0.28650429E-02 0.19894824E+03</pdfrwt>
<totfact> 0.37812220E+01</totfact>
</mgrwt>
</event>
<event>
 4    1  0.4840632E-008  0.2840534E+03  0.7818608E-02  0.1093495E+00
          2   -1    0    0  501    0  0.00000000000E+00  0.00000000000E+00  0.11041257432E+04  0.11041257432E+04  0.25500000000E-02 0. -1.
         -2   -1    0    0    0  501 -0.00000000000E+00 -0.00000000000E+00 -0.12854069029E+04  0.12854069029E+04  0.25500000000E-02 0.  1.
    8880022    1    1    2    0    0  0.33253234838E+02  0.23704195732E+03  0.10696667812E+04  0.11067399618E+04  0.15294330000E+03 0.  0.
    8880022    1    1    2    0    0 -0.33253234838E+02 -0.23704195732E+03 -0.12509479409E+04  0.12827926843E+04  0.15294330000E+03 0.  1.
<mgrwt>
<rscale>  0 0.28405338E+03</rscale>
<asrwt>0</asrwt>
<pdfrwt beam="1">  1        2 0.16986550E+00 0.28405338E+03</pdfrwt>
<pdfrwt beam="2">  1       -2 0.19775491E+00 0.28405338E+03</pdfrwt>
<totfact> 0.34252759E+00</totfact>
</mgrwt>
</event>
<event>
 4    1  0.4840632E-008  0.4849111E+03  0.7818608E-02  0.1017794E+00
         -2   -1    0    0    0  501 -0.00000000000E+00  0.00000000000E+00  0.18138131144E+03  0.18138131146E+03  0.25500000000E-02 0.  1.
          2   -1    0    0  501    0  0.00000000000E+00 -0.00000000000E+00 -0.28482474094E+04  0.28482474094E+04  0.25500000000E-02 0. -1.
    8880022    1    1    2    0    0  0.25980951894E+03 -0.37979748880E+03 -0.24515780364E+04  0.24990745567E+04  0.15294330000E+03 0.  0.
    8880022    1    1    2    0    0 -0.25980951894E+03  0.37979748880E+03 -0.21528806162E+03  0.53055416417E+03  0.15294330000E+03 0.  0.
<mgrwt>
<rscale>  0 0.48491110E+03</rscale>
<asrwt>0</asrwt>
<pdfrwt beam="1">  1        2 0.43819188E+00 0.48491110E+03</pdfrwt>
<pdfrwt beam="2">  1       -2 0.27904819E-01 0.48491110E+03</pdfrwt>
<totfact> 0.28096224E+01</totfact>
</mgrwt>
</event>
<event>
 4    1  0.4840632E-008  0.5706624E+03  0.7818608E-02  0.9968214E-01
          2   -1    0    0  501    0  0.00000000000E+00  0.00000000000E+00  0.11176120350E+04  0.11176120350E+04  0.25500000000E-02 0. -1.
         -2   -1    0    0    0  501 -0.00000000000E+00 -0.00000000000E+00 -0.68108290478E+03  0.68108290479E+03  0.25500000000E-02 0.  1.
    8880022    1    1    2    0    0  0.50708258780E+03 -0.21244110440E+03 -0.46202129040E+03  0.73424743751E+03  0.15294330000E+03 0.  0.
    8880022    1    1    2    0    0 -0.50708258780E+03  0.21244110440E+03  0.89855042058E+03  0.10644475022E+04  0.15294330000E+03 0.  0.
<mgrwt>
<rscale>  0 0.57066245E+03</rscale>
<asrwt>0</asrwt>
<pdfrwt beam="1">  1        2 0.17194031E+00 0.57066245E+03</pdfrwt>
<pdfrwt beam="2">  1       -2 0.10478199E+00 0.57066245E+03</pdfrwt>
<totfact> 0.16360389E+01</totfact>
</mgrwt>
</event>
<event>
 4    1  0.4840632E-008  0.4413424E+03  0.7818608E-02  0.1030336E+00
          2   -1    0    0  501    0  0.00000000000E+00  0.00000000000E+00  0.39256533339E+04  0.39256533339E+04  0.25500000000E-02 0. -1.
         -2   -1    0    0    0  501 -0.00000000000E+00 -0.00000000000E+00 -0.76295757120E+02  0.76295757163E+02  0.25500000000E-02 0.  1.
    8880022    1    1    2    0    0 -0.35287868835E+03 -0.21649031587E+03  0.74145742059E+03  0.86286857928E+03  0.15294330000E+03 0.  0.
    8880022    1    1    2    0    0  0.35287868835E+03  0.21649031587E+03  0.31079001562E+04  0.31390805118E+04  0.15294330000E+03 0.  0.
<mgrwt>
<rscale>  0 0.44134236E+03</rscale>
<asrwt>0</asrwt>
<pdfrwt beam="1">  1        2 0.60394672E+00 0.44134236E+03</pdfrwt>
<pdfrwt beam="2">  1       -2 0.11737808E-01 0.44134236E+03</pdfrwt>
<totfact> 0.24445413E+01</totfact>
</mgrwt>
</event>
<event>
 4    1  0.4840632E-008  0.3455212E+03  0.7818608E-02  0.1064468E+00
         -2   -1    0    0    0  501 -0.00000000000E+00  0.00000000000E+00  0.18039722191E+03  0.18039722193E+03  0.25500000000E-02 0.  1.
          2   -1    0    0  501    0  0.00000000000E+00 -0.00000000000E+00 -0.84959332418E+03  0.84959332418E+03  0.25500000000E-02 0. -1.
    8880022    1    1    2    0    0  0.13367598738E+03 -0.27950664389E+03 -0.92466960413E+02  0.35768006006E+03  0.15294330000E+03 0.  1.
    8880022    1    1    2    0    0 -0.13367598738E+03  0.27950664389E+03 -0.57672914185E+03  0.67231048605E+03  0.15294330000E+03 0.  0.
<mgrwt>
<rscale>  0 0.34552118E+03</rscale>
<asrwt>0</asrwt>
<pdfrwt beam="1">  1        2 0.13070666E+00 0.34552118E+03</pdfrwt>
<pdfrwt beam="2">  1       -2 0.27753419E-01 0.34552118E+03</pdfrwt>
<totfact> 0.38683147E+02</totfact>
</mgrwt>
</event>
<event>
 4    1  0.5925467E-008  0.5684576E+03  0.7818608E-02  0.9973097E-01
         -2   -1    0    0    0  501 -0.00000000000E+00  0.00000000000E+00  0.71104252908E+03  0.71104252908E+03  0.25500000000E-02 0.  1.
          2   -1    0    0  501    0  0.00000000000E+00 -0.00000000000E+00 -0.18626708361E+04  0.18626708361E+04  0.25500000000E-02 0. -1.
    8880022    1    1    2    0    0 -0.54348979326E+03 -0.66115560433E+02  0.54309587380E+03  0.78619158216E+03  0.15294330000E+03 0.  0.
    8880022    1    1    2    0    0  0.54348979326E+03  0.66115560433E+02 -0.16947241808E+04  0.17875217830E+04  0.15294330000E+03 0.  0.
<mgrwt>
<rscale>  0 0.56845763E+03</rscale>
<asrwt>0</asrwt>
<pdfrwt beam="1">  1        2 0.28656474E+00 0.56845763E+03</pdfrwt>
<pdfrwt beam="2">  1       -2 0.10939116E+00 0.56845763E+03</pdfrwt>
<totfact> 0.56633375E+00</totfact>
</mgrwt>
</event>
<event>
 4    1  0.4840632E-008  0.3036455E+03  0.7818608E-02  0.1083432E+00
         -2   -1    0    0    0  501 -0.00000000000E+00  0.00000000000E+00  0.44668253183E+02  0.44668253256E+02  0.25500000000E-02 0.  1.
          2   -1    0    0  501    0  0.00000000000E+00 -0.00000000000E+00 -0.24123653263E+04  0.24123653263E+04  0.25500000000E-02 0. -1.
    8880022    1    1    2    0    0  0.78531872923E+01  0.26219704550E+03 -0.71707904181E+03  0.77871879934E+03  0.15294330000E+03 0.  0.
    8880022    1    1    2    0    0 -0.78531872923E+01 -0.26219704550E+03 -0.16506180313E+04  0.16783147802E+04  0.15294330000E+03 0.  0.
<mgrwt>
<rscale>  0 0.30364554E+03</rscale>
<asrwt>0</asrwt>
<pdfrwt beam="1">  1        2 0.37113303E+00 0.30364554E+03</pdfrwt>
<pdfrwt beam="2">  1       -2 0.68720408E-02 0.30364554E+03</pdfrwt>
<totfact> 0.53403337E+02</totfact>
</mgrwt>
</event>
<event>
 4    1  0.4840632E-008  0.3376162E+03  0.7818608E-02  0.1067816E+00
         -2   -1    0    0    0  501 -0.00000000000E+00  0.00000000000E+00  0.34414063827E+03  0.34414063828E+03  0.25500000000E-02 0.  1.
          2   -1    0    0  501    0  0.00000000000E+00 -0.00000000000E+00 -0.20038421295E+04  0.20038421295E+04  0.25500000000E-02 0. -1.
    8880022    1    1    2    0    0  0.25166743893E+01 -0.30097630436E+03 -0.19024380646E+04  0.19321633761E+04  0.15294330000E+03 0. -1.
    8880022    1    1    2    0    0 -0.25166743893E+01  0.30097630436E+03  0.24273657334E+03  0.41581939167E+03  0.15294330000E+03 0.  0.
<mgrwt>
<rscale>  0 0.33761624E+03</rscale>
<asrwt>0</asrwt>
<pdfrwt beam="1">  1        2 0.30828340E+00 0.33761624E+03</pdfrwt>
<pdfrwt beam="2">  1       -2 0.52944715E-01 0.33761624E+03</pdfrwt>
<totfact> 0.25107418E+01</totfact>
</mgrwt>
</event>
<event>
 4    1  0.4840632E-008  0.2614284E+03  0.7818608E-02  0.1106288E+00
          2   -1    0    0  501    0  0.00000000000E+00  0.00000000000E+00  0.13729772404E+03  0.13729772406E+03  0.25500000000E-02 0. -1.
         -2   -1    0    0    0  501 -0.00000000000E+00 -0.00000000000E+00 -0.51580206900E+03  0.51580206901E+03  0.25500000000E-02 0.  1.
    8880022    1    1    2    0    0 -0.88725955291E+02 -0.19256392096E+03 -0.12822202183E+03  0.29117983910E+03  0.15294330000E+03 0. -1.
    8880022    1    1    2    0    0  0.88725955291E+02  0.19256392096E+03 -0.25028232313E+03  0.36191995397E+03  0.15294330000E+03 0.  1.
<mgrwt>
<rscale>  0 0.26142841E+03</rscale>
<asrwt>0</asrwt>
<pdfrwt beam="1">  1        2 0.21122727E-01 0.26142841E+03</pdfrwt>
<pdfrwt beam="2">  1       -2 0.79354163E-01 0.26142841E+03</pdfrwt>
<totfact> 0.37917377E+02</totfact>
</mgrwt>
</event>
<event>
 4    1  0.4840632E-008  0.8224580E+03  0.7818608E-02  0.9528067E-01
         -2   -1    0    0    0  501 -0.00000000000E+00  0.00000000000E+00  0.12406176143E+04  0.12406176143E+04  0.25500000000E-02 0.  1.
          2   -1    0    0  501    0  0.00000000000E+00 -0.00000000000E+00 -0.90248642682E+03  0.90248642682E+03  0.25500000000E-02 0. -1.
    8880022    1    1    2    0    0  0.13828343811E+03 -0.79619296289E+03  0.84324498303E+03  0.11779216009E+04  0.15294330000E+03 0.  0.
    8880022    1    1    2    0    0 -0.13828343811E+03  0.79619296289E+03 -0.50511379557E+03  0.96518244022E+03  0.15294330000E+03 0.  0.
<mgrwt>
<rscale>  0 0.82245802E+03</rscale>
<asrwt>0</asrwt>
<pdfrwt beam="1">  1        2 0.13884407E+00 0.82245802E+03</pdfrwt>
<pdfrwt beam="2">  1       -2 0.19086425E+00 0.82245802E+03</pdfrwt>
<totfact> 0.45207872E+00</totfact>
</mgrwt>
</event>
<event>
 4    1  0.4840632E-008  0.6917777E+03  0.7818608E-02  0.9731398E-01
         -2   -1    0    0    0  501 -0.00000000000E+00  0.00000000000E+00  0.16749263448E+04  0.16749263448E+04  0.25500000000E-02 0.  1.
          2   -1    0    0  501    0  0.00000000000E+00 -0.00000000000E+00 -0.61359449787E+03  0.61359449787E+03  0.25500000000E-02 0. -1.
    8880022    1    1    2    0    0 -0.47966519483E+03  0.47443233818E+03 -0.30578290049E+03  0.75634620240E+03  0.15294330000E+03 0.  0.
    8880022    1    1    2    0    0  0.47966519483E+03 -0.47443233818E+03  0.13671147474E+04  0.15321746402E+04  0.15294330000E+03 0.  1.
<mgrwt>
<rscale>  0 0.69177771E+03</rscale>
<asrwt>0</asrwt>
<pdfrwt beam="1">  1        2 0.94399154E-01 0.69177771E+03</pdfrwt>
<pdfrwt beam="2">  1       -2 0.25768097E+00 0.69177771E+03</pdfrwt>
<totfact> 0.28965924E+00</totfact>
</mgrwt>
</event>
<event>
 4    1  0.4840632E-008  0.5735375E+03  0.7818608E-02  0.9961881E-01
         -2   -1    0    0    0  501 -0.00000000000E+00  0.00000000000E+00  0.90587563032E+03  0.90587563032E+03  0.25500000000E-02 0.  1.
          2   -1    0    0  501    0  0.00000000000E+00 -0.00000000000E+00 -0.97522759542E+03  0.97522759542E+03  0.25500000000E-02 0. -1.
    8880022    1    1    2    0    0 -0.43691577344E+03 -0.33861220435E+03 -0.77982317961E+03  0.96802348241E+03  0.15294330000E+03 0.  0.
    8880022    1    1    2    0    0  0.43691577344E+03  0.33861220435E+03  0.71047121452E+03  0.91307974333E+03  0.15294330000E+03 0.  0.
<mgrwt>
<rscale>  0 0.57353751E+03</rscale>
<asrwt>0</asrwt>
<pdfrwt beam="1">  1        2 0.15003501E+00 0.57353751E+03</pdfrwt>
<pdfrwt beam="2">  1       -2 0.13936548E+00 0.57353751E+03</pdfrwt>
<totfact> 0.99001901E+00</totfact>
</mgrwt>
</event>
<event>
 4    1  0.5937509E-008  0.1222479E+04  0.7818608E-02  0.9093405E-01
          2   -1    0    0  501    0  0.00000000000E+00  0.00000000000E+00  0.25580059869E+04  0.25580059869E+04  0.25500000000E-02 0. -1.
         -2   -1    0    0    0  501 -0.00000000000E+00 -0.00000000000E+00 -0.11369423348E+04  0.11369423348E+04  0.25500000000E-02 0.  1.
    8880022    1    1    2    0    0  0.45681045676E+03  0.11235603135E+04  0.19986628948E+04  0.23428846731E+04  0.15294330000E+03 0.  0.
    8880022    1    1    2    0    0 -0.45681045676E+03 -0.11235603135E+04 -0.57759924268E+03  0.13520636485E+04  0.15294330000E+03 0.  0.
<mgrwt>
<rscale>  0 0.12224791E+04</rscale>
<asrwt>0</asrwt>
<pdfrwt beam="1">  1        2 0.39353938E+00 0.12224791E+04</pdfrwt>
<pdfrwt beam="2">  1       -2 0.17491421E+00 0.12224791E+04</pdfrwt>
<totfact> 0.61719498E-01</totfact>
</mgrwt>
</event>
<event>
 4    1  0.4840632E-008  0.8534685E+03  0.7818608E-02  0.9485693E-01
          2   -1    0    0  501    0  0.00000000000E+00  0.00000000000E+00  0.16901364404E+04  0.16901364404E+04  0.25500000000E-02 0. -1.
         -2   -1    0    0    0  501 -0.00000000000E+00 -0.00000000000E+00 -0.73017426336E+03  0.73017426337E+03  0.25500000000E-02 0.  1.
    8880022    1    1    2    0    0  0.51583385673E+03  0.66251958592E+03 -0.29467211666E+03  0.90290646184E+03  0.15294330000E+03 0.  0.
    8880022    1    1    2    0    0 -0.51583385673E+03 -0.66251958592E+03  0.12546342937E+04  0.15174042419E+04  0.15294330000E+03 0.  0.
<mgrwt>
<rscale>  0 0.85346847E+03</rscale>
<asrwt>0</asrwt>
<pdfrwt beam="1">  1        2 0.26002099E+00 0.85346847E+03</pdfrwt>
<pdfrwt beam="2">  1       -2 0.11233450E+00 0.85346847E+03</pdfrwt>
<totfact> 0.62872291E+00</totfact>
</mgrwt>
</event>
<event>
 4    1  0.4840632E-008  0.3554452E+03  0.7818608E-02  0.1060402E+00
         -2   -1    0    0    0  501 -0.00000000000E+00  0.00000000000E+00  0.38620020898E+03  0.38620020899E+03  0.25500000000E-02 0.  1.
          2   -1    0    0  501    0  0.00000000000E+00 -0.00000000000E+00 -0.10370121598E+04  0.10370121598E+04  0.25500000000E-02 0. -1.
    8880022    1    1    2    0    0 -0.27339776996E+03  0.16793828394E+03 -0.91416568125E+03  0.98083645610E+03  0.15294330000E+03 0.  0.
    8880022    1    1    2    0    0  0.27339776996E+03 -0.16793828394E+03  0.26335373039E+03  0.44237591272E+03  0.15294330000E+03 0.  0.
<mgrwt>
<rscale>  0 0.35544516E+03</rscale>
<asrwt>0</asrwt>
<pdfrwt beam="1">  1        2 0.15954033E+00 0.35544516E+03</pdfrwt>
<pdfrwt beam="2">  1       -2 0.59415417E-01 0.35544516E+03</pdfrwt>
<totfact> 0.67092917E+01</totfact>
</mgrwt>
</event>
<event>
 4    1  0.4840632E-008  0.7491569E+03  0.7818608E-02  0.9636674E-01
         -2   -1    0    0    0  501 -0.00000000000E+00  0.00000000000E+00  0.73612495761E+03  0.73612495761E+03  0.25500000000E-02 0.  1.
          2   -1    0    0  501    0  0.00000000000E+00 -0.00000000000E+00 -0.14645714622E+04  0.14645714622E+04  0.25500000000E-02 0. -1.
    8880022    1    1    2    0    0 -0.20832927688E+02  0.73308283360E+03  0.39766342560E+03  0.84815818387E+03  0.15294330000E+03 0.  0.
    8880022    1    1    2    0    0  0.20832927688E+02 -0.73308283360E+03 -0.11261099302E+04  0.13525382359E+04  0.15294330000E+03 0.  0.
<mgrwt>
<rscale>  0 0.74915693E+03</rscale>
<asrwt>0</asrwt>
<pdfrwt beam="1">  1        2 0.22531869E+00 0.74915693E+03</pdfrwt>
<pdfrwt beam="2">  1       -2 0.11324999E+00 0.74915693E+03</pdfrwt>
<totfact> 0.83359549E+00</totfact>
</mgrwt>
</event>
<event>
 4    1  0.4840632E-008  0.5958437E+03  0.7818608E-02  0.9914067E-01
          2   -1    0    0  501    0  0.00000000000E+00  0.00000000000E+00  0.40920651214E+04  0.40920651214E+04  0.25500000000E-02 0. -1.
         -2   -1    0    0    0  501 -0.00000000000E+00 -0.00000000000E+00 -0.19668792159E+03  0.19668792160E+03  0.25500000000E-02 0.  1.
    8880022    1    1    2    0    0 -0.36373634563E+03 -0.44646826222E+03  0.35508054625E+04  0.36004512390E+04  0.15294330000E+03 0.  0.
    8880022    1    1    2    0    0  0.36373634563E+03  0.44646826222E+03  0.34457173725E+03  0.68830180403E+03  0.15294330000E+03 0.  0.
<mgrwt>
<rscale>  0 0.59584368E+03</rscale>
<asrwt>0</asrwt>
<pdfrwt beam="1">  1        2 0.62954846E+00 0.59584368E+03</pdfrwt>
<pdfrwt beam="2">  1       -2 0.30259681E-01 0.59584368E+03</pdfrwt>
<totfact> 0.33515022E+00</totfact>
</mgrwt>
</event>
<event>
 4    1  0.4840632E-008  0.4536209E+03  0.7818608E-02  0.1026648E+00
         -2   -1    0    0    0  501 -0.00000000000E+00  0.00000000000E+00  0.67571960077E+03  0.67571960078E+03  0.25500000000E-02 0.  1.
          2   -1    0    0  501    0  0.00000000000E+00 -0.00000000000E+00 -0.83248557992E+03  0.83248557993E+03  0.25500000000E-02 0. -1.
    8880022    1    1    2    0    0 -0.48014950440E+02  0.42435229396E+03  0.52215953739E+03  0.69168095272E+03  0.15294330000E+03 0.  0.
    8880022    1    1    2    0    0  0.48014950440E+02 -0.42435229396E+03 -0.67892551654E+03  0.81652422798E+03  0.15294330000E+03 0.  0.
<mgrwt>
<rscale>  0 0.45362094E+03</rscale>
<asrwt>0</asrwt>
<pdfrwt beam="1">  1        2 0.12807470E+00 0.45362094E+03</pdfrwt>
<pdfrwt beam="2">  1       -2 0.10395686E+00 0.45362094E+03</pdfrwt>
<totfact> 0.25844125E+01</totfact>
</mgrwt>
</event>
<event>
 4    1  0.4840632E-008  0.2608041E+03  0.7818608E-02  0.1106661E+00
          2   -1    0    0  501    0  0.00000000000E+00  0.00000000000E+00  0.89051750740E+03  0.89051750740E+03  0.25500000000E-02 0. -1.
         -2   -1    0    0    0  501 -0.00000000000E+00 -0.00000000000E+00 -0.28855047812E+03  0.28855047813E+03  0.25500000000E-02 0.  1.
    8880022    1    1    2    0    0  0.20737235556E+02 -0.21023099656E+03 -0.20453753678E+03  0.33144284850E+03  0.15294330000E+03 0.  0.
    8880022    1    1    2    0    0 -0.20737235556E+02  0.21023099656E+03  0.80650456606E+03  0.84762513704E+03  0.15294330000E+03 0. -1.
<mgrwt>
<rscale>  0 0.26080406E+03</rscale>
<asrwt>0</asrwt>
<pdfrwt beam="1">  1        2 0.13700269E+00 0.26080406E+03</pdfrwt>
<pdfrwt beam="2">  1       -2 0.44392382E-01 0.26080406E+03</pdfrwt>
<totfact> 0.15186904E+02</totfact>
</mgrwt>
</event>
<event>
 4    1  0.4840632E-008  0.1028983E+04  0.7818608E-02  0.9277315E-01
          2   -1    0    0  501    0  0.00000000000E+00  0.00000000000E+00  0.18195956680E+04  0.18195956680E+04  0.25500000000E-02 0. -1.
         -2   -1    0    0    0  501 -0.00000000000E+00 -0.00000000000E+00 -0.66061433653E+03  0.66061433653E+03  0.25500000000E-02 0.  1.
    8880022    1    1    2    0    0  0.98818219787E+03 -0.24271612405E+03  0.10075810529E+04  0.14401480494E+04  0.15294330000E+03 0.  0.
    8880022    1    1    2    0    0 -0.98818219787E+03  0.24271612405E+03  0.15140027852E+03  0.10400619551E+04  0.15294330000E+03 0.  0.
<mgrwt>
<rscale>  0 0.10289834E+04</rscale>
<asrwt>0</asrwt>
<pdfrwt beam="1">  1        2 0.27993779E+00 0.10289834E+04</pdfrwt>
<pdfrwt beam="2">  1       -2 0.10163298E+00 0.10289834E+04</pdfrwt>
<totfact> 0.66542896E+00</totfact>
</mgrwt>
</event>
<event>
 4    1  0.4840632E-008  0.7625604E+03  0.7818608E-02  0.9615849E-01
          2   -1    0    0  501    0  0.00000000000E+00  0.00000000000E+00  0.32776956814E+04  0.32776956814E+04  0.25500000000E-02 0. -1.
         -2   -1    0    0    0  501 -0.00000000000E+00 -0.00000000000E+00 -0.19414094378E+03  0.19414094379E+03  0.25500000000E-02 0.  1.
    8880022    1    1    2    0    0  0.23330780701E+03  0.70970008744E+03  0.10321867824E+04  0.12833191161E+04  0.15294330000E+03 0.  0.
    8880022    1    1    2    0    0 -0.23330780701E+03 -0.70970008744E+03  0.20513679552E+04  0.21885175091E+04  0.15294330000E+03 0.  0.
<mgrwt>
<rscale>  0 0.76256042E+03</rscale>
<asrwt>0</asrwt>
<pdfrwt beam="1">  1        2 0.50426083E+00 0.76256042E+03</pdfrwt>
<pdfrwt beam="2">  1       -2 0.29867840E-01 0.76256042E+03</pdfrwt>
<totfact> 0.12726538E+01</totfact>
</mgrwt>
</event>
<event>
 4    1  0.4840632E-008  0.3709884E+03  0.7818608E-02  0.1054316E+00
          2   -1    0    0  501    0  0.00000000000E+00  0.00000000000E+00  0.34789900572E+03  0.34789900573E+03  0.25500000000E-02 0. -1.
         -2   -1    0    0    0  501 -0.00000000000E+00 -0.00000000000E+00 -0.52976014352E+03  0.52976014353E+03  0.25500000000E-02 0.  1.
    8880022    1    1    2    0    0  0.25981908089E+03 -0.21618226249E+03 -0.31175726442E+03  0.48458742281E+03  0.15294330000E+03 0.  0.
    8880022    1    1    2    0    0 -0.25981908089E+03  0.21618226249E+03  0.12989612661E+03  0.39307172645E+03  0.15294330000E+03 0.  0.
<mgrwt>
<rscale>  0 0.37098838E+03</rscale>
<asrwt>0</asrwt>
<pdfrwt beam="1">  1        2 0.53522924E-01 0.37098838E+03</pdfrwt>
<pdfrwt beam="2">  1       -2 0.81501561E-01 0.37098838E+03</pdfrwt>
<totfact> 0.12719996E+02</totfact>
</mgrwt>
</event>
<event>
 4    1  0.4840632E-008  0.2365447E+03  0.7818608E-02  0.1122116E+00
          2   -1    0    0  501    0  0.00000000000E+00  0.00000000000E+00  0.29580900938E+04  0.29580900938E+04  0.25500000000E-02 0. -1.
         -2   -1    0    0    0  501 -0.00000000000E+00 -0.00000000000E+00 -0.29357793258E+03  0.29357793259E+03  0.25500000000E-02 0.  1.
    8880022    1    1    2    0    0  0.17320571592E+03  0.50611608697E+02  0.29048414265E+04  0.29144565739E+04  0.15294330000E+03 0.  0.
    8880022    1    1    2    0    0 -0.17320571592E+03 -0.50611608697E+02 -0.24032926525E+03  0.33721145253E+03  0.15294330000E+03 0.  1.
<mgrwt>
<rscale>  0 0.23654473E+03</rscale>
<asrwt>0</asrwt>
<pdfrwt beam="1">  1        2 0.45509078E+00 0.23654473E+03</pdfrwt>
<pdfrwt beam="2">  1       -2 0.45165836E-01 0.23654473E+03</pdfrwt>
<totfact> 0.10734702E+01</totfact>
</mgrwt>
</event>
<event>
 4    1  0.4840632E-008  0.4884465E+03  0.7818608E-02  0.1016839E+00
          2   -1    0    0  501    0  0.00000000000E+00  0.00000000000E+00  0.13989138170E+04  0.13989138170E+04  0.25500000000E-02 0. -1.
         -2   -1    0    0    0  501 -0.00000000000E+00 -0.00000000000E+00 -0.32955476616E+03  0.32955476617E+03  0.25500000000E-02 0.  1.
    8880022    1    1    2    0    0  0.46329673665E+03  0.23332927643E+02 -0.65633075755E+02  0.49283632714E+03  0.15294330000E+03 0.  0.
    8880022    1    1    2    0    0 -0.46329673665E+03 -0.23332927643E+02  0.11349921266E+04  0.12356322560E+04  0.15294330000E+03 0.  0.
<mgrwt>
<rscale>  0 0.48844646E+03</rscale>
<asrwt>0</asrwt>
<pdfrwt beam="1">  1        2 0.21521752E+00 0.48844646E+03</pdfrwt>
<pdfrwt beam="2">  1       -2 0.50700732E-01 0.48844646E+03</pdfrwt>
<totfact> 0.56136436E+01</totfact>
</mgrwt>
</event>
<event>
 4    1  0.4840632E-008  0.3027244E+03  0.7818608E-02  0.1083887E+00
          2   -1    0    0  501    0  0.00000000000E+00  0.00000000000E+00  0.12171072538E+04  0.12171072538E+04  0.25500000000E-02 0. -1.
         -2   -1    0    0    0  501 -0.00000000000E+00 -0.00000000000E+00 -0.10891710145E+03  0.10891710148E+03  0.25500000000E-02 0.  1.
    8880022    1    1    2    0    0  0.18059407759E+03  0.18877553015E+03  0.92246653992E+03  0.97086898804E+03  0.15294330000E+03 0. -1.
    8880022    1    1    2    0    0 -0.18059407759E+03 -0.18877553015E+03  0.18572361240E+03  0.35515536722E+03  0.15294330000E+03 0.  0.
<mgrwt>
<rscale>  0 0.30272442E+03</rscale>
<asrwt>0</asrwt>
<pdfrwt beam="1">  1        2 0.18724728E+00 0.30272442E+03</pdfrwt>
<pdfrwt beam="2">  1       -2 0.16756477E-01 0.30272442E+03</pdfrwt>
<totfact> 0.55620806E+02</totfact>
</mgrwt>
</event>
<event>
 4    1  0.4840632E-008  0.2288896E+03  0.7818608E-02  0.1127424E+00
          2   -1    0    0  501    0  0.00000000000E+00  0.00000000000E+00  0.29970118903E+04  0.29970118903E+04  0.25500000000E-02 0. -1.
         -2   -1    0    0    0  501 -0.00000000000E+00 -0.00000000000E+00 -0.70218748004E+02  0.70218748051E+02  0.25500000000E-02 0.  1.
    8880022    1    1    2    0    0  0.24353198350E+02 -0.16854000059E+03  0.13431663439E+03  0.26538918847E+03  0.15294330000E+03 0.  0.
    8880022    1    1    2    0    0 -0.24353198350E+02  0.16854000059E+03  0.27924765079E+04  0.28018414499E+04  0.15294330000E+03 0. -1.
<mgrwt>
<rscale>  0 0.22888963E+03</rscale>
<asrwt>0</asrwt>
<pdfrwt beam="1">  1        2 0.46107880E+00 0.22888963E+03</pdfrwt>
<pdfrwt beam="2">  1       -2 0.10802883E-01 0.22888963E+03</pdfrwt>
<totfact> 0.12497938E+02</totfact>
</mgrwt>
</event>
<event>
 4    1  0.4840632E-008  0.1315556E+04  0.7818608E-02  0.9017319E-01
          2   -1    0    0  501    0  0.00000000000E+00  0.00000000000E+00  0.16950355985E+04  0.16950355985E+04  0.25500000000E-02 0. -1.
         -2   -1    0    0    0  501 -0.00000000000E+00 -0.00000000000E+00 -0.20251749215E+04  0.20251749215E+04  0.25500000000E-02 0.  1.
    8880022    1    1    2    0    0  0.10686609143E+04  0.75183778287E+03  0.11447265406E+04  0.17438711842E+04  0.15294330000E+03 0.  0.
    8880022    1    1    2    0    0 -0.10686609143E+04 -0.75183778287E+03 -0.14748658636E+04  0.19763393357E+04  0.15294330000E+03 0.  0.
<mgrwt>
<rscale>  0 0.13155561E+04</rscale>
<asrwt>0</asrwt>
<pdfrwt beam="1">  1        2 0.26077471E+00 0.13155561E+04</pdfrwt>
<pdfrwt beam="2">  1       -2 0.31156537E+00 0.13155561E+04</pdfrwt>
<totfact> 0.25605491E-01</totfact>
</mgrwt>
</event>
<event>
 4    1  0.4840632E-008  0.8982085E+03  0.7818608E-02  0.9427824E-01
          2   -1    0    0  501    0  0.00000000000E+00  0.00000000000E+00  0.17429694860E+04  0.17429694860E+04  0.25500000000E-02 0. -1.
         -2   -1    0    0    0  501 -0.00000000000E+00 -0.00000000000E+00 -0.51571360793E+03  0.51571360794E+03  0.25500000000E-02 0.  1.
    8880022    1    1    2    0    0  0.72542170694E+03 -0.50709979263E+03  0.97511532362E+03  0.13257557844E+04  0.15294330000E+03 0.  0.
    8880022    1    1    2    0    0 -0.72542170694E+03  0.50709979263E+03  0.25214055444E+03  0.93292730949E+03  0.15294330000E+03 0.  0.
<mgrwt>
<rscale>  0 0.89820850E+03</rscale>
<asrwt>0</asrwt>
<pdfrwt beam="1">  1        2 0.26814915E+00 0.89820850E+03</pdfrwt>
<pdfrwt beam="2">  1       -2 0.79340554E-01 0.89820850E+03</pdfrwt>
<totfact> 0.13205276E+01</totfact>
</mgrwt>
</event>
<event>
 4    1  0.4840632E-008  0.2356332E+03  0.7818608E-02  0.1122736E+00
         -2   -1    0    0    0  501 -0.00000000000E+00  0.00000000000E+00  0.71321200444E+03  0.71321200444E+03  0.25500000000E-02 0.  1.
          2   -1    0    0  501    0  0.00000000000E+00 -0.00000000000E+00 -0.10020602285E+04  0.10020602285E+04  0.25500000000E-02 0. -1.
    8880022    1    1    2    0    0  0.82953463399E+02  0.15890278076E+03 -0.96807222744E+03  0.99633672089E+03  0.15294330000E+03 0. -1.
    8880022    1    1    2    0    0 -0.82953463399E+02 -0.15890278076E+03  0.67922400334E+03  0.71893551210E+03  0.15294330000E+03 0.  0.
<mgrwt>
<rscale>  0 0.23563324E+03</rscale>
<asrwt>0</asrwt>
<pdfrwt beam="1">  1        2 0.15416311E+00 0.23563324E+03</pdfrwt>
<pdfrwt beam="2">  1       -2 0.10972492E+00 0.23563324E+03</pdfrwt>
<totfact> 0.18553032E+01</totfact>
</mgrwt>
</event>
<event>
 4    1  0.4840632E-008  0.2224643E+03  0.7818608E-02  0.1132059E+00
         -2   -1    0    0    0  501 -0.00000000000E+00  0.00000000000E+00  0.39502696562E+03  0.39502696563E+03  0.25500000000E-02 0.  1.
          2   -1    0    0  501    0  0.00000000000E+00 -0.00000000000E+00 -0.62113288911E+03  0.62113288911E+03  0.25500000000E-02 0. -1.
    8880022    1    1    2    0    0 -0.15726651552E+03 -0.36958939241E+02  0.34090397043E+03  0.40706988363E+03  0.15294330000E+03 0.  0.
    8880022    1    1    2    0    0  0.15726651552E+03  0.36958939241E+02 -0.56700989391E+03  0.60908997111E+03  0.15294330000E+03 0. -1.
<mgrwt>
<rscale>  0 0.22246432E+03</rscale>
<asrwt>0</asrwt>
<pdfrwt beam="1">  1        2 0.95558906E-01 0.22246432E+03</pdfrwt>
<pdfrwt beam="2">  1       -2 0.60773379E-01 0.22246432E+03</pdfrwt>
<totfact> 0.12704670E+02</totfact>
</mgrwt>
</event>
<event>
 4    1  0.4999591E-008  0.8991118E+03  0.7818608E-02  0.9426692E-01
          2   -1    0    0  501    0  0.00000000000E+00  0.00000000000E+00  0.28374786425E+04  0.28374786425E+04  0.25500000000E-02 0. -1.
         -2   -1    0    0    0  501 -0.00000000000E+00 -0.00000000000E+00 -0.64943618335E+03  0.64943618336E+03  0.25500000000E-02 0.  1.
    8880022    1    1    2    0    0  0.76224638539E+03  0.45165342303E+03  0.24002297417E+04  0.25631045302E+04  0.15294330000E+03 0.  0.
    8880022    1    1    2    0    0 -0.76224638539E+03 -0.45165342303E+03 -0.21218728254E+03  0.92381029571E+03  0.15294330000E+03 0.  0.
<mgrwt>
<rscale>  0 0.89911179E+03</rscale>
<asrwt>0</asrwt>
<pdfrwt beam="1">  1        2 0.43653517E+00 0.89911179E+03</pdfrwt>
<pdfrwt beam="2">  1       -2 0.99913260E-01 0.89911179E+03</pdfrwt>
<totfact> 0.18750637E+00</totfact>
</mgrwt>
</event>
<event>
 4    1  0.4840632E-008  0.1262477E+04  0.7818608E-02  0.9059862E-01
         -2   -1    0    0    0  501 -0.00000000000E+00  0.00000000000E+00  0.91572283234E+03  0.91572283234E+03  0.25500000000E-02 0.  1.
          2   -1    0    0  501    0  0.00000000000E+00 -0.00000000000E+00 -0.19302947757E+04  0.19302947757E+04  0.25500000000E-02 0. -1.
    8880022    1    1    2    0    0  0.77264067062E+03  0.98665245694E+03 -0.61119442755E+02  0.12639556622E+04  0.15294330000E+03 0.  0.
    8880022    1    1    2    0    0 -0.77264067062E+03 -0.98665245694E+03 -0.95345250065E+03  0.15820619459E+04  0.15294330000E+03 0.  0.
<mgrwt>
<rscale>  0 0.12624771E+04</rscale>
<asrwt>0</asrwt>
<pdfrwt beam="1">  1        2 0.29696843E+00 0.12624771E+04</pdfrwt>
<pdfrwt beam="2">  1       -2 0.14088044E+00 0.12624771E+04</pdfrwt>
<totfact> 0.24967901E+00</totfact>
</mgrwt>
</event>
<event>
 4    1  0.4840632E-008  0.6841756E+03  0.7818608E-02  0.9744683E-01
         -2   -1    0    0    0  501 -0.00000000000E+00  0.00000000000E+00  0.46179294628E+03  0.46179294629E+03  0.25500000000E-02 0.  1.
          2   -1    0    0  501    0  0.00000000000E+00 -0.00000000000E+00 -0.30583720475E+04  0.30583720475E+04  0.25500000000E-02 0. -1.
    8880022    1    1    2    0    0  0.32898461093E+03 -0.58006350079E+03 -0.27374362254E+04  0.28216401756E+04  0.15294330000E+03 0.  0.
    8880022    1    1    2    0    0 -0.32898461093E+03  0.58006350079E+03  0.14085712422E+03  0.69852481820E+03  0.15294330000E+03 0.  0.
<mgrwt>
<rscale>  0 0.68417556E+03</rscale>
<asrwt>0</asrwt>
<pdfrwt beam="1">  1        2 0.47051876E+00 0.68417556E+03</pdfrwt>
<pdfrwt beam="2">  1       -2 0.71045071E-01 0.68417556E+03</pdfrwt>
<totfact> 0.31214584E+00</totfact>
</mgrwt>
</event>
<event>
 4    1  0.4840632E-008  0.7555264E+03  0.7818608E-02  0.9626720E-01
          2   -1    0    0  501    0  0.00000000000E+00  0.00000000000E+00  0.21135259998E+04  0.21135259998E+04  0.25500000000E-02 0. -1.
         -2   -1    0    0    0  501 -0.00000000000E+00 -0.00000000000E+00 -0.33368478753E+03  0.33368478754E+03  0.25500000000E-02 0.  1.
    8880022    1    1    2    0    0 -0.29277025155E+03  0.67949547431E+03  0.14241399171E+04  0.16121397819E+04  0.15294330000E+03 0. -1.
    8880022    1    1    2    0    0  0.29277025155E+03 -0.67949547431E+03  0.35570129517E+03  0.83507100548E+03  0.15294330000E+03 0.  0.
<mgrwt>
<rscale>  0 0.75552642E+03</rscale>
<asrwt>0</asrwt>
<pdfrwt beam="1">  1        2 0.32515785E+00 0.75552642E+03</pdfrwt>
<pdfrwt beam="2">  1       -2 0.51336120E-01 0.75552642E+03</pdfrwt>
<totfact> 0.21437689E+01</totfact>
</mgrwt>
</event>
<event>
 4    1  0.4840632E-008  0.7862195E+03  0.7818608E-02  0.9580181E-01
         -2   -1    0    0    0  501 -0.00000000000E+00  0.00000000000E+00  0.10883299695E+04  0.10883299695E+04  0.25500000000E-02 0.  1.
          2   -1    0    0  501    0  0.00000000000E+00 -0.00000000000E+00 -0.12431970191E+04  0.12431970191E+04  0.25500000000E-02 0. -1.
    8880022    1    1    2    0    0 -0.54631908396E+03 -0.54432054921E+03  0.78170798575E+03  0.11086967258E+04  0.15294330000E+03 0.  0.
    8880022    1    1    2    0    0  0.54631908396E+03  0.54432054921E+03 -0.93657503535E+03  0.12228302628E+04  0.15294330000E+03 0.  0.
<mgrwt>
<rscale>  0 0.78621947E+03</rscale>
<asrwt>0</asrwt>
<pdfrwt beam="1">  1        2 0.19126108E+00 0.78621947E+03</pdfrwt>
<pdfrwt beam="2">  1       -2 0.16743538E+00 0.78621947E+03</pdfrwt>
<totfact> 0.40411717E+00</totfact>
</mgrwt>
</event>
<event>
 4    1  0.4840632E-008  0.6826836E+03  0.7818608E-02  0.9747312E-01
         -2   -1    0    0    0  501 -0.00000000000E+00  0.00000000000E+00  0.13278640632E+03  0.13278640635E+03  0.25500000000E-02 0.  1.
          2   -1    0    0  501    0  0.00000000000E+00 -0.00000000000E+00 -0.38390580574E+04  0.38390580574E+04  0.25500000000E-02 0. -1.
    8880022    1    1    2    0    0  0.11417468224E+03  0.65546122359E+03 -0.12715655240E+04  0.14432379598E+04  0.15294330000E+03 0.  0.
    8880022    1    1    2    0    0 -0.11417468224E+03 -0.65546122359E+03 -0.24347061271E+04  0.25286065040E+04  0.15294330000E+03 0.  0.
<mgrwt>
<rscale>  0 0.68268362E+03</rscale>
<asrwt>0</asrwt>
<pdfrwt beam="1">  1        2 0.59062423E+00 0.68268362E+03</pdfrwt>
<pdfrwt beam="2">  1       -2 0.20428681E-01 0.68268362E+03</pdfrwt>
<totfact> 0.10454390E+01</totfact>
</mgrwt>
</event>
<event>
 4    1  0.4840632E-008  0.2715889E+03  0.7818608E-02  0.1100374E+00
          2   -1    0    0  501    0  0.00000000000E+00  0.00000000000E+00  0.14906972364E+04  0.14906972364E+04  0.25500000000E-02 0. -1.
         -2   -1    0    0    0  501 -0.00000000000E+00 -0.00000000000E+00 -0.94885725484E+02  0.94885725518E+02  0.25500000000E-02 0.  1.
    8880022    1    1    2    0    0  0.21626314635E+03  0.59992954554E+02  0.12463229898E+04  0.12755710686E+04  0.15294330000E+03 0.  0.
    8880022    1    1    2    0    0 -0.21626314635E+03 -0.59992954554E+02  0.14948852114E+03  0.31001189337E+03  0.15294330000E+03 0.  0.
<mgrwt>
<rscale>  0 0.27158895E+03</rscale>
<asrwt>0</asrwt>
<pdfrwt beam="1">  1        2 0.22933801E+00 0.27158895E+03</pdfrwt>
<pdfrwt beam="2">  1       -2 0.14597805E-01 0.27158895E+03</pdfrwt>
<totfact> 0.49646954E+02</totfact>
</mgrwt>
</event>
<event>
 4    1  0.4840632E-008  0.4169392E+03  0.7818608E-02  0.1038067E+00
         -2   -1    0    0    0  501 -0.00000000000E+00  0.00000000000E+00  0.28420323097E+03  0.28420323098E+03  0.25500000000E-02 0.  1.
          2   -1    0    0  501    0  0.00000000000E+00 -0.00000000000E+00 -0.66588080030E+03  0.66588080031E+03  0.25500000000E-02 0. -1.
    8880022    1    1    2    0    0  0.36663604560E+03  0.12658863417E+03 -0.32638282325E+03  0.52949416669E+03  0.15294330000E+03 0.  0.
    8880022    1    1    2    0    0 -0.36663604560E+03 -0.12658863417E+03 -0.55294746086E+02  0.42058986459E+03  0.15294330000E+03 0.  1.
<mgrwt>
<rscale>  0 0.41693923E+03</rscale>
<asrwt>0</asrwt>
<pdfrwt beam="1">  1        2 0.10244320E+00 0.41693923E+03</pdfrwt>
<pdfrwt beam="2">  1       -2 0.43723574E-01 0.41693923E+03</pdfrwt>
<totfact> 0.22259902E+02</totfact>
</mgrwt>
</event>
<event>
 4    1  0.4840632E-008  0.9096313E+03  0.7818608E-02  0.9413621E-01
          2   -1    0    0  501    0  0.00000000000E+00  0.00000000000E+00  0.12396531572E+04  0.12396531572E+04  0.25500000000E-02 0. -1.
         -2   -1    0    0    0  501 -0.00000000000E+00 -0.00000000000E+00 -0.12773249399E+04  0.12773249399E+04  0.25500000000E-02 0.  1.
    8880022    1    1    2    0    0 -0.30565666513E+02 -0.89616022185E+03  0.85075035088E+03  0.12454738920E+04  0.15294330000E+03 0.  1.
    8880022    1    1    2    0    0  0.30565666513E+02  0.89616022185E+03 -0.88842213358E+03  0.12715042051E+04  0.15294330000E+03 0.  0.
<mgrwt>
<rscale>  0 0.90963127E+03</rscale>
<asrwt>0</asrwt>
<pdfrwt beam="1">  1        2 0.19071587E+00 0.90963127E+03</pdfrwt>
<pdfrwt beam="2">  1       -2 0.19651153E+00 0.90963127E+03</pdfrwt>
<totfact> 0.25245549E+00</totfact>
</mgrwt>
</event>
<event>
 4    1  0.4840632E-008  0.4587838E+03  0.7818608E-02  0.1025135E+00
          2   -1    0    0  501    0  0.00000000000E+00  0.00000000000E+00  0.21774998434E+04  0.21774998434E+04  0.25500000000E-02 0. -1.
         -2   -1    0    0    0  501 -0.00000000000E+00 -0.00000000000E+00 -0.17913337144E+03  0.17913337146E+03  0.25500000000E-02 0.  1.
    8880022    1    1    2    0    0  0.40591663203E+03  0.14940745546E+03  0.19967291999E+03  0.50035170420E+03  0.15294330000E+03 0.  1.
    8880022    1    1    2    0    0 -0.40591663203E+03 -0.14940745546E+03  0.17986935520E+04  0.18562815106E+04  0.15294330000E+03 0.  0.
<mgrwt>
<rscale>  0 0.45878378E+03</rscale>
<asrwt>0</asrwt>
<pdfrwt beam="1">  1        2 0.33499997E+00 0.45878378E+03</pdfrwt>
<pdfrwt beam="2">  1       -2 0.27558981E-01 0.45878378E+03</pdfrwt>
<totfact> 0.68785834E+01</totfact>
</mgrwt>
</event>
<event>
 4    1  0.4840632E-008  0.1304899E+04  0.7818608E-02  0.9025689E-01
          2   -1    0    0  501    0  0.00000000000E+00  0.00000000000E+00  0.17643335047E+04  0.17643335047E+04  0.25500000000E-02 0. -1.
         -2   -1    0    0    0  501 -0.00000000000E+00 -0.00000000000E+00 -0.11366567532E+04  0.11366567532E+04  0.25500000000E-02 0.  1.
    8880022    1    1    2    0    0  0.78667423397E+03 -0.10298118997E+04 -0.24967454069E+03  0.13285698809E+04  0.15294330000E+03 0.  0.
    8880022    1    1    2    0    0 -0.78667423397E+03  0.10298118997E+04  0.87735129221E+03  0.15724203770E+04  0.15294330000E+03 0.  0.
<mgrwt>
<rscale>  0 0.13048987E+04</rscale>
<asrwt>0</asrwt>
<pdfrwt beam="1">  1        2 0.27143592E+00 0.13048987E+04</pdfrwt>
<pdfrwt beam="2">  1       -2 0.17487027E+00 0.13048987E+04</pdfrwt>
<totfact> 0.17072014E+00</totfact>
</mgrwt>
</event>
<event>
 4    1  0.4840632E-008  0.2901157E+03  0.7818608E-02  0.1090289E+00
         -2   -1    0    0    0  501 -0.00000000000E+00  0.00000000000E+00  0.42067346231E+03  0.42067346231E+03  0.25500000000E-02 0.  1.
          2   -1    0    0  501    0  0.00000000000E+00 -0.00000000000E+00 -0.79831639776E+03  0.79831639776E+03  0.25500000000E-02 0. -1.
    8880022    1    1    2    0    0 -0.24634829705E+03 -0.93787219622E+01 -0.71644003084E+03  0.77295110757E+03  0.15294330000E+03 0. -1.
    8880022    1    1    2    0    0  0.24634829705E+03  0.93787219622E+01  0.33879709538E+03  0.44603875251E+03  0.15294330000E+03 0.  0.
<mgrwt>
<rscale>  0 0.29011566E+03</rscale>
<asrwt>0</asrwt>
<pdfrwt beam="1">  1        2 0.12281791E+00 0.29011566E+03</pdfrwt>
<pdfrwt beam="2">  1       -2 0.64718994E-01 0.29011566E+03</pdfrwt>
<totfact> 0.81019404E+01</totfact>
</mgrwt>
</event>
<event>
 4    1  0.4840632E-008  0.9883206E+03  0.7818608E-02  0.9321448E-01
         -2   -1    0    0    0  501 -0.00000000000E+00  0.00000000000E+00  0.52042525980E+03  0.52042525981E+03  0.25500000000E-02 0.  1.
          2   -1    0    0  501    0  0.00000000000E+00 -0.00000000000E+00 -0.26395438439E+04  0.26395438439E+04  0.25500000000E-02 0. -1.
    8880022    1    1    2    0    0  0.57768005474E+03 -0.78719227891E+03 -0.19088453279E+04  0.21495274058E+04  0.15294330000E+03 0.  0.
    8880022    1    1    2    0    0 -0.57768005474E+03  0.78719227891E+03 -0.21027325627E+03  0.10104416979E+04  0.15294330000E+03 0.  0.
<mgrwt>
<rscale>  0 0.98832059E+03</rscale>
<asrwt>0</asrwt>
<pdfrwt beam="1">  1        2 0.40608366E+00 0.98832059E+03</pdfrwt>
<pdfrwt beam="2">  1       -2 0.80065426E-01 0.98832059E+03</pdfrwt>
<totfact> 0.40380337E+00</totfact>
</mgrwt>
</event>
<event>
 4    1  0.4840632E-008  0.6268876E+03  0.7818608E-02  0.9851141E-01
          2   -1    0    0  501    0  0.00000000000E+00  0.00000000000E+00  0.12393889408E+04  0.12393889408E+04  0.25500000000E-02 0. -1.
         -2   -1    0    0    0  501 -0.00000000000E+00 -0.00000000000E+00 -0.94485522031E+03  0.94485522031E+03  0.25500000000E-02 0.  1.
    8880022    1    1    2    0    0 -0.60737622324E+03 -0.26276955369E+02 -0.74293792340E+03  0.97208269503E+03  0.15294330000E+03 0.  0.
    8880022    1    1    2    0    0  0.60737622324E+03  0.26276955369E+02  0.10374716439E+04  0.12121614660E+04  0.15294330000E+03 0.  0.
<mgrwt>
<rscale>  0 0.62688756E+03</rscale>
<asrwt>0</asrwt>
<pdfrwt beam="1">  1        2 0.19067522E+00 0.62688756E+03</pdfrwt>
<pdfrwt beam="2">  1       -2 0.14536234E+00 0.62688756E+03</pdfrwt>
<totfact> 0.60810753E+00</totfact>
</mgrwt>
</event>
<event>
 4    1  0.4840632E-008  0.6272690E+03  0.7818608E-02  0.9850393E-01
         -2   -1    0    0    0  501 -0.00000000000E+00  0.00000000000E+00  0.17144737852E+04  0.17144737852E+04  0.25500000000E-02 0.  1.
          2   -1    0    0  501    0  0.00000000000E+00 -0.00000000000E+00 -0.82551899855E+03  0.82551899856E+03  0.25500000000E-02 0. -1.
    8880022    1    1    2    0    0  0.60535518215E+03 -0.60165217521E+02  0.15235983714E+04  0.16476705983E+04  0.15294330000E+03 0.  0.
    8880022    1    1    2    0    0 -0.60535518215E+03  0.60165217521E+02 -0.63464358480E+03  0.89232218548E+03  0.15294330000E+03 0.  0.
<mgrwt>
<rscale>  0 0.62726900E+03</rscale>
<asrwt>0</asrwt>
<pdfrwt beam="1">  1        2 0.12700293E+00 0.62726900E+03</pdfrwt>
<pdfrwt beam="2">  1       -2 0.26376519E+00 0.62726900E+03</pdfrwt>
<totfact> 0.18497376E+00</totfact>
</mgrwt>
</event>
<event>
 4    1  0.4840632E-008  0.3416262E+03  0.7818608E-02  0.1066105E+00
         -2   -1    0    0    0  501 -0.00000000000E+00  0.00000000000E+00  0.12567596311E+03  0.12567596314E+03  0.25500000000E-02 0.  1.
          2   -1    0    0  501    0  0.00000000000E+00 -0.00000000000E+00 -0.22518897099E+04  0.22518897099E+04  0.25500000000E-02 0. -1.
    8880022    1    1    2    0    0 -0.29548340869E+03 -0.77500914649E+02 -0.19743806547E+04  0.20037184082E+04  0.15294330000E+03 0.  0.
    8880022    1    1    2    0    0  0.29548340869E+03  0.77500914649E+02 -0.15183309210E+03  0.37384726488E+03  0.15294330000E+03 0.  0.
<mgrwt>
<rscale>  0 0.34162624E+03</rscale>
<asrwt>0</asrwt>
<pdfrwt beam="1">  1        2 0.34644454E+00 0.34162624E+03</pdfrwt>
<pdfrwt beam="2">  1       -2 0.19334765E-01 0.34162624E+03</pdfrwt>
<totfact> 0.12023041E+02</totfact>
</mgrwt>
</event>
<event>
 4    1  0.4840632E-008  0.8707221E+03  0.7818608E-02  0.9462939E-01
         -2   -1    0    0    0  501 -0.00000000000E+00  0.00000000000E+00  0.54304669985E+03  0.54304669986E+03  0.25500000000E-02 0.  1.
          2   -1    0    0  501    0  0.00000000000E+00 -0.00000000000E+00 -0.16854063669E+04  0.16854063669E+04  0.25500000000E-02 0. -1.
    8880022    1    1    2    0    0  0.41646530061E+03  0.74921422521E+03 -0.10955718856E+03  0.87758745003E+03  0.15294330000E+03 0.  0.
    8880022    1    1    2    0    0 -0.41646530061E+03 -0.74921422521E+03 -0.10328024785E+04  0.13508656167E+04  0.15294330000E+03 0.  0.
<mgrwt>
<rscale>  0 0.87072209E+03</rscale>
<asrwt>0</asrwt>
<pdfrwt beam="1">  1        2 0.25929328E+00 0.87072209E+03</pdfrwt>
<pdfrwt beam="2">  1       -2 0.83545647E-01 0.87072209E+03</pdfrwt>
<totfact> 0.12677508E+01</totfact>
</mgrwt>
</event>
<event>
 4    1  0.4840632E-008  0.2286596E+03  0.7818608E-02  0.1127587E+00
          2   -1    0    0  501    0  0.00000000000E+00  0.00000000000E+00  0.62859988201E+03  0.62859988201E+03  0.25500000000E-02 0. -1.
         -2   -1    0    0    0  501 -0.00000000000E+00 -0.00000000000E+00 -0.26261716097E+03  0.26261716098E+03  0.25500000000E-02 0.  1.
    8880022    1    1    2    0    0 -0.16286963217E+03  0.48652482877E+02 -0.18535078330E+03  0.29434698411E+03  0.15294330000E+03 0.  1.
    8880022    1    1    2    0    0  0.16286963217E+03 -0.48652482877E+02  0.55133350434E+03  0.59687005888E+03  0.15294330000E+03 0.  0.
<mgrwt>
<rscale>  0 0.22865965E+03</rscale>
<asrwt>0</asrwt>
<pdfrwt beam="1">  1        2 0.96707673E-01 0.22865965E+03</pdfrwt>
<pdfrwt beam="2">  1       -2 0.40402641E-01 0.22865965E+03</pdfrwt>
<totfact> 0.28251908E+02</totfact>
</mgrwt>
</event>
<event>
 4    1  0.4840632E-008  0.2396366E+03  0.7818608E-02  0.1120035E+00
         -2   -1    0    0    0  501 -0.00000000000E+00  0.00000000000E+00  0.59709020289E+02  0.59709020343E+02  0.25500000000E-02 0.  1.
          2   -1    0    0  501    0  0.00000000000E+00 -0.00000000000E+00 -0.17717935393E+04  0.17717935393E+04  0.25500000000E-02 0. -1.
    8880022    1    1    2    0    0 -0.16974816963E+03 -0.72246909750E+02 -0.14752304227E+04  0.14945669975E+04  0.15294330000E+03 0.  0.
    8880022    1    1    2    0    0  0.16974816963E+03  0.72246909750E+02 -0.23685409634E+03  0.33693556214E+03  0.15294330000E+03 0.  0.
<mgrwt>
<rscale>  0 0.23963662E+03</rscale>
<asrwt>0</asrwt>
<pdfrwt beam="1">  1        2 0.27258358E+00 0.23963662E+03</pdfrwt>
<pdfrwt beam="2">  1       -2 0.91860045E-02 0.23963662E+03</pdfrwt>
<totfact> 0.74838263E+02</totfact>
</mgrwt>
</event>
<event>
 4    1  0.4840632E-008  0.3038227E+03  0.7818608E-02  0.1083345E+00
          2   -1    0    0  501    0  0.00000000000E+00  0.00000000000E+00  0.17843659266E+04  0.17843659266E+04  0.25500000000E-02 0. -1.
         -2   -1    0    0    0  501 -0.00000000000E+00 -0.00000000000E+00 -0.16739035581E+03  0.16739035582E+03  0.25500000000E-02 0.  1.
    8880022    1    1    2    0    0 -0.25111448000E+03 -0.76538307417E+02  0.16196719824E+04  0.16479215934E+04  0.15294330000E+03 0. -1.
    8880022    1    1    2    0    0  0.25111448000E+03  0.76538307417E+02 -0.26964116159E+01  0.30383468897E+03  0.15294330000E+03 0.  0.
<mgrwt>
<rscale>  0 0.30382272E+03</rscale>
<asrwt>0</asrwt>
<pdfrwt beam="1">  1        2 0.27451783E+00 0.30382272E+03</pdfrwt>
<pdfrwt beam="2">  1       -2 0.25752363E-01 0.30382272E+03</pdfrwt>
<totfact> 0.13019207E+02</totfact>
</mgrwt>
</event>
<event>
 4    1  0.4840632E-008  0.3871622E+03  0.7818608E-02  0.1048318E+00
         -2   -1    0    0    0  501 -0.00000000000E+00  0.00000000000E+00  0.26010445330E+03  0.26010445332E+03  0.25500000000E-02 0.  1.
          2   -1    0    0  501    0  0.00000000000E+00 -0.00000000000E+00 -0.83900489471E+03  0.83900489471E+03  0.25500000000E-02 0. -1.
    8880022    1    1    2    0    0 -0.34636862665E+03  0.80818901088E+02 -0.59697084992E+03  0.71152566290E+03  0.15294330000E+03 0.  0.
    8880022    1    1    2    0    0  0.34636862665E+03 -0.80818901088E+02  0.18070408514E+02  0.38758368513E+03  0.15294330000E+03 0.  1.
<mgrwt>
<rscale>  0 0.38716221E+03</rscale>
<asrwt>0</asrwt>
<pdfrwt beam="1">  1        2 0.12907767E+00 0.38716221E+03</pdfrwt>
<pdfrwt beam="2">  1       -2 0.40016070E-01 0.38716221E+03</pdfrwt>
<totfact> 0.19789021E+02</totfact>
</mgrwt>
</event>
<event>
 4    1  0.4840632E-008  0.4721036E+03  0.7818608E-02  0.1021328E+00
         -2   -1    0    0    0  501 -0.00000000000E+00  0.00000000000E+00  0.21339363400E+03  0.21339363402E+03  0.25500000000E-02 0.  1.
          2   -1    0    0  501    0  0.00000000000E+00 -0.00000000000E+00 -0.28933866576E+04  0.28933866576E+04  0.25500000000E-02 0. -1.
    8880022    1    1    2    0    0  0.93585762210E+02 -0.43672863289E+03 -0.25817538865E+04  0.26245637689E+04  0.15294330000E+03 0. -1.
    8880022    1    1    2    0    0 -0.93585762210E+02  0.43672863289E+03 -0.98239137078E+02  0.48221652268E+03  0.15294330000E+03 0.  0.
<mgrwt>
<rscale>  0 0.47210364E+03</rscale>
<asrwt>0</asrwt>
<pdfrwt beam="1">  1        2 0.44513638E+00 0.47210364E+03</pdfrwt>
<pdfrwt beam="2">  1       -2 0.32829792E-01 0.47210364E+03</pdfrwt>
<totfact> 0.19643151E+01</totfact>
</mgrwt>
</event>
<event>
 4    1  0.4840632E-008  0.2102149E+03  0.7818608E-02  0.1141396E+00
          2   -1    0    0  501    0  0.00000000000E+00  0.00000000000E+00  0.20057676578E+04  0.20057676578E+04  0.25500000000E-02 0. -1.
         -2   -1    0    0    0  501 -0.00000000000E+00 -0.00000000000E+00 -0.28830609097E+03  0.28830609098E+03  0.25500000000E-02 0.  1.
    8880022    1    1    2    0    0  0.10130421938E+03  0.10264551656E+03  0.19610699553E+04  0.19723046594E+04  0.15294330000E+03 0.  0.
    8880022    1    1    2    0    0 -0.10130421938E+03 -0.10264551656E+03 -0.24360838847E+03  0.32176908938E+03  0.15294330000E+03 0.  1.
<mgrwt>
<rscale>  0 0.21021489E+03</rscale>
<asrwt>0</asrwt>
<pdfrwt beam="1">  1        2 0.30857965E+00 0.21021489E+03</pdfrwt>
<pdfrwt beam="2">  1       -2 0.44354782E-01 0.21021489E+03</pdfrwt>
<totfact> 0.37402792E+01</totfact>
</mgrwt>
</event>
<event>
 4    1  0.4840632E-008  0.1173299E+04  0.7818608E-02  0.9136554E-01
         -2   -1    0    0    0  501 -0.00000000000E+00  0.00000000000E+00  0.68436261120E+03  0.68436261120E+03  0.25500000000E-02 0.  1.
          2   -1    0    0  501    0  0.00000000000E+00 -0.00000000000E+00 -0.20752271171E+04  0.20752271171E+04  0.25500000000E-02 0. -1.
    8880022    1    1    2    0    0 -0.73665157174E+03 -0.90032399789E+03 -0.45373650508E+03  0.12579774674E+04  0.15294330000E+03 0.  0.
    8880022    1    1    2    0    0  0.73665157174E+03  0.90032399789E+03 -0.93712800086E+03  0.15016122610E+04  0.15294330000E+03 0.  0.
<mgrwt>
<rscale>  0 0.11732990E+04</rscale>
<asrwt>0</asrwt>
<pdfrwt beam="1">  1        2 0.31926571E+00 0.11732990E+04</pdfrwt>
<pdfrwt beam="2">  1       -2 0.10528656E+00 0.11732990E+04</pdfrwt>
<totfact> 0.43477838E+00</totfact>
</mgrwt>
</event>
<event>
 4    1  0.4840632E-008  0.3793526E+03  0.7818608E-02  0.1051173E+00
          2   -1    0    0  501    0  0.00000000000E+00  0.00000000000E+00  0.11264591954E+04  0.11264591954E+04  0.25500000000E-02 0. -1.
         -2   -1    0    0    0  501 -0.00000000000E+00 -0.00000000000E+00 -0.73971761977E+03  0.73971761977E+03  0.25500000000E-02 0.  1.
    8880022    1    1    2    0    0 -0.22547191554E+03 -0.26396809080E+03  0.10420684716E+04  0.11089702837E+04  0.15294330000E+03 0.  0.
    8880022    1    1    2    0    0  0.22547191554E+03  0.26396809080E+03 -0.65532689597E+03  0.75720653144E+03  0.15294330000E+03 0.  1.
<mgrwt>
<rscale>  0 0.37935259E+03</rscale>
<asrwt>0</asrwt>
<pdfrwt beam="1">  1        2 0.17330142E+00 0.37935259E+03</pdfrwt>
<pdfrwt beam="2">  1       -2 0.11380271E+00 0.37935259E+03</pdfrwt>
<totfact> 0.13740557E+01</totfact>
</mgrwt>
</event>
<event>
 4    1  0.4840632E-008  0.1210412E+04  0.7818608E-02  0.9103792E-01
          2   -1    0    0  501    0  0.00000000000E+00  0.00000000000E+00  0.76972034264E+03  0.76972034264E+03  0.25500000000E-02 0. -1.
         -2   -1    0    0    0  501 -0.00000000000E+00 -0.00000000000E+00 -0.19867654373E+04  0.19867654373E+04  0.25500000000E-02 0.  1.
    8880022    1    1    2    0    0 -0.28315903492E+03 -0.11668443354E+04 -0.89082151100E+03  0.15028836813E+04  0.15294330000E+03 0.  1.
    8880022    1    1    2    0    0  0.28315903492E+03  0.11668443354E+04 -0.32622358369E+03  0.12536020986E+04  0.15294330000E+03 0. -1.
<mgrwt>
<rscale>  0 0.12104117E+04</rscale>
<asrwt>0</asrwt>
<pdfrwt beam="1">  1        2 0.11841851E+00 0.12104117E+04</pdfrwt>
<pdfrwt beam="2">  1       -2 0.30565622E+00 0.12104117E+04</pdfrwt>
<totfact> 0.10429466E+00</totfact>
</mgrwt>
</event>
<event>
 4    1  0.4840632E-008  0.1052080E+04  0.7818608E-02  0.9253199E-01
         -2   -1    0    0    0  501 -0.00000000000E+00  0.00000000000E+00  0.15150342751E+04  0.15150342751E+04  0.25500000000E-02 0.  1.
          2   -1    0    0  501    0  0.00000000000E+00 -0.00000000000E+00 -0.10380168580E+04  0.10380168580E+04  0.25500000000E-02 0. -1.
    8880022    1    1    2    0    0  0.70293425744E+03 -0.76770031292E+03  0.93320786362E+03  0.14063246106E+04  0.15294330000E+03 0.  0.
    8880022    1    1    2    0    0 -0.70293425744E+03  0.76770031292E+03 -0.45619044648E+03  0.11467265224E+04  0.15294330000E+03 0.  0.
<mgrwt>
<rscale>  0 0.10520798E+04</rscale>
<asrwt>0</asrwt>
<pdfrwt beam="1">  1        2 0.15969490E+00 0.10520798E+04</pdfrwt>
<pdfrwt beam="2">  1       -2 0.23308219E+00 0.10520798E+04</pdfrwt>
<totfact> 0.19260920E+00</totfact>
</mgrwt>
</event>
<event>
 4    1  0.4840632E-008  0.2492340E+03  0.7818608E-02  0.1113790E+00
         -2   -1    0    0    0  501 -0.00000000000E+00  0.00000000000E+00  0.20193731904E+03  0.20193731905E+03  0.25500000000E-02 0.  1.
          2   -1    0    0  501    0  0.00000000000E+00 -0.00000000000E+00 -0.15304112346E+04  0.15304112346E+04  0.25500000000E-02 0. -1.
    8880022    1    1    2    0    0 -0.17122523289E+03  0.96994203200E+02 -0.14384837842E+04  0.14599154792E+04  0.15294330000E+03 0.  0.
    8880022    1    1    2    0    0  0.17122523289E+03 -0.96994203200E+02  0.11000986869E+03  0.27243307445E+03  0.15294330000E+03 0.  1.
<mgrwt>
<rscale>  0 0.24923404E+03</rscale>
<asrwt>0</asrwt>
<pdfrwt beam="1">  1        2 0.23544787E+00 0.24923404E+03</pdfrwt>
<pdfrwt beam="2">  1       -2 0.31067281E-01 0.24923404E+03</pdfrwt>
<totfact> 0.12812369E+02</totfact>
</mgrwt>
</event>
<event>
 4    1  0.4840632E-008  0.1772169E+03  0.7818608E-02  0.1170524E+00
          2   -1    0    0  501    0  0.00000000000E+00  0.00000000000E+00  0.20390717493E+04  0.20390717493E+04  0.25500000000E-02 0. -1.
         -2   -1    0    0    0  501 -0.00000000000E+00 -0.00000000000E+00 -0.92341715746E+02  0.92341715782E+02  0.25500000000E-02 0.  1.
    8880022    1    1    2    0    0  0.78856565049E+02 -0.42377105329E+02  0.19461435170E+04  0.19541955938E+04  0.15294330000E+03 0. -1.
    8880022    1    1    2    0    0 -0.78856565049E+02  0.42377105329E+02  0.58651657839E+00  0.17721787134E+03  0.15294330000E+03 0.  0.
<mgrwt>
<rscale>  0 0.17721690E+03</rscale>
<asrwt>0</asrwt>
<pdfrwt beam="1">  1        2 0.31370336E+00 0.17721690E+03</pdfrwt>
<pdfrwt beam="2">  1       -2 0.14206417E-01 0.17721690E+03</pdfrwt>
<totfact> 0.27359742E+02</totfact>
</mgrwt>
</event>
<event>
 4    1  0.4840632E-008  0.1793841E+03  0.7818608E-02  0.1168400E+00
         -2   -1    0    0    0  501 -0.00000000000E+00  0.00000000000E+00  0.74583824781E+02  0.74583824824E+02  0.25500000000E-02 0.  1.
          2   -1    0    0  501    0  0.00000000000E+00 -0.00000000000E+00 -0.93150167213E+03  0.93150167213E+03  0.25500000000E-02 0. -1.
    8880022    1    1    2    0    0  0.84353376626E+02  0.40884255514E+02 -0.79703196350E+03  0.81696916610E+03  0.15294330000E+03 0. -1.
    8880022    1    1    2    0    0 -0.84353376626E+02 -0.40884255514E+02 -0.59885883842E+02  0.18911633085E+03  0.15294330000E+03 0.  0.
<mgrwt>
<rscale>  0 0.17938413E+03</rscale>
<asrwt>0</asrwt>
<pdfrwt beam="1">  1        2 0.14330794E+00 0.17938413E+03</pdfrwt>
<pdfrwt beam="2">  1       -2 0.11474435E-01 0.17938413E+03</pdfrwt>
<totfact> 0.15390660E+03</totfact>
</mgrwt>
</event>
<event>
 4    1  0.4840632E-008  0.7104438E+03  0.7818608E-02  0.9699537E-01
          2   -1    0    0  501    0  0.00000000000E+00  0.00000000000E+00  0.77676231750E+03  0.77676231751E+03  0.25500000000E-02 0. -1.
         -2   -1    0    0    0  501 -0.00000000000E+00 -0.00000000000E+00 -0.70364954348E+03  0.70364954348E+03  0.25500000000E-02 0.  1.
    8880022    1    1    2    0    0  0.31551840328E+03  0.61788906833E+03 -0.16823699239E+03  0.73009184504E+03  0.15294330000E+03 0.  0.
    8880022    1    1    2    0    0 -0.31551840328E+03 -0.61788906833E+03  0.24134976642E+03  0.75032001595E+03  0.15294330000E+03 0.  0.
<mgrwt>
<rscale>  0 0.71044382E+03</rscale>
<asrwt>0</asrwt>
<pdfrwt beam="1">  1        2 0.11950189E+00 0.71044382E+03</pdfrwt>
<pdfrwt beam="2">  1       -2 0.10825378E+00 0.71044382E+03</pdfrwt>
<totfact> 0.24902317E+01</totfact>
</mgrwt>
</event>
<event>
 4    1  0.4840632E-008  0.1965249E+03  0.7818608E-02  0.1152705E+00
         -2   -1    0    0    0  501 -0.00000000000E+00  0.00000000000E+00  0.24976528345E+02  0.24976528475E+02  0.25500000000E-02 0.  1.
          2   -1    0    0  501    0  0.00000000000E+00 -0.00000000000E+00 -0.20406106049E+04  0.20406106049E+04  0.25500000000E-02 0. -1.
    8880022    1    1    2    0    0  0.12235569867E+03  0.16107824633E+02 -0.49951846884E+03  0.53678741857E+03  0.15294330000E+03 0.  0.
    8880022    1    1    2    0    0 -0.12235569867E+03 -0.16107824633E+02 -0.15161156077E+04  0.15287997148E+04  0.15294330000E+03 0.  0.
<mgrwt>
<rscale>  0 0.19652489E+03</rscale>
<asrwt>0</asrwt>
<pdfrwt beam="1">  1        2 0.31393996E+00 0.19652489E+03</pdfrwt>
<pdfrwt beam="2">  1       -2 0.38425444E-02 0.19652489E+03</pdfrwt>
<totfact> 0.20746487E+03</totfact>
</mgrwt>
</event>
<event>
 4    1  0.4840632E-008  0.3547630E+03  0.7818608E-02  0.1060677E+00
         -2   -1    0    0    0  501 -0.00000000000E+00  0.00000000000E+00  0.85813913539E+02  0.85813913577E+02  0.25500000000E-02 0.  1.
          2   -1    0    0  501    0  0.00000000000E+00 -0.00000000000E+00 -0.21967096447E+04  0.21967096447E+04  0.25500000000E-02 0. -1.
    8880022    1    1    2    0    0 -0.16137328854E+03  0.27644854654E+03 -0.39750877037E+03  0.53279453138E+03  0.15294330000E+03 0.  0.
    8880022    1    1    2    0    0  0.16137328854E+03 -0.27644854654E+03 -0.17133869607E+04  0.17497290268E+04  0.15294330000E+03 0.  0.
<mgrwt>
<rscale>  0 0.35476301E+03</rscale>
<asrwt>0</asrwt>
<pdfrwt beam="1">  1        2 0.33795529E+00 0.35476301E+03</pdfrwt>
<pdfrwt beam="2">  1       -2 0.13202142E-01 0.35476301E+03</pdfrwt>
<totfact> 0.24371498E+02</totfact>
</mgrwt>
</event>
<event>
 4    1  0.4840632E-008  0.5667788E+03  0.7818608E-02  0.9976832E-01
         -2   -1    0    0    0  501 -0.00000000000E+00  0.00000000000E+00  0.10976883624E+03  0.10976883627E+03  0.25500000000E-02 0.  1.
          2   -1    0    0  501    0  0.00000000000E+00 -0.00000000000E+00 -0.41718312591E+04  0.41718312591E+04  0.25500000000E-02 0. -1.
    8880022    1    1    2    0    0  0.53412741596E+03 -0.11204668955E+03 -0.86138197157E+03  0.10311241977E+04  0.15294330000E+03 0.  1.
    8880022    1    1    2    0    0 -0.53412741596E+03  0.11204668955E+03 -0.32006804513E+04  0.32504758977E+04  0.15294330000E+03 0.  0.
<mgrwt>
<rscale>  0 0.56677880E+03</rscale>
<asrwt>0</asrwt>
<pdfrwt beam="1">  1        2 0.64182007E+00 0.56677880E+03</pdfrwt>
<pdfrwt beam="2">  1       -2 0.16887516E-01 0.56677880E+03</pdfrwt>
<totfact> 0.81817015E+00</totfact>
</mgrwt>
</event>
<event>
 4    1  0.4840632E-008  0.4725164E+03  0.7818608E-02  0.1021212E+00
         -2   -1    0    0    0  501 -0.00000000000E+00  0.00000000000E+00  0.23730314296E+03  0.23730314298E+03  0.25500000000E-02 0.  1.
          2   -1    0    0  501    0  0.00000000000E+00 -0.00000000000E+00 -0.10871365564E+04  0.10871365564E+04  0.25500000000E-02 0. -1.
    8880022    1    1    2    0    0 -0.20813170948E+03  0.39567824909E+03 -0.66781843072E+03  0.81807896607E+03  0.15294330000E+03 0.  0.
    8880022    1    1    2    0    0  0.20813170948E+03 -0.39567824909E+03 -0.18201498272E+03  0.50636073331E+03  0.15294330000E+03 0.  0.
<mgrwt>
<rscale>  0 0.47251639E+03</rscale>
<asrwt>0</asrwt>
<pdfrwt beam="1">  1        2 0.16725178E+00 0.47251639E+03</pdfrwt>
<pdfrwt beam="2">  1       -2 0.36508176E-01 0.47251639E+03</pdfrwt>
<totfact> 0.16229006E+02</totfact>
</mgrwt>
</event>
<event>
 4    1  0.4840632E-008  0.4100616E+03  0.7818608E-02  0.1040350E+00
          2   -1    0    0  501    0  0.00000000000E+00  0.00000000000E+00  0.19029541032E+04  0.19029541032E+04  0.25500000000E-02 0. -1.
         -2   -1    0    0    0  501 -0.00000000000E+00 -0.00000000000E+00 -0.22286574480E+03  0.22286574482E+03  0.25500000000E-02 0.  1.
    8880022    1    1    2    0    0  0.24144171763E+02  0.37970508115E+03  0.16657788817E+04  0.17155086200E+04  0.15294330000E+03 0.  0.
    8880022    1    1    2    0    0 -0.24144171763E+02 -0.37970508115E+03  0.14309476709E+02  0.41031122799E+03  0.15294330000E+03 0.  0.
<mgrwt>
<rscale>  0 0.41006163E+03</rscale>
<asrwt>0</asrwt>
<pdfrwt beam="1">  1        2 0.29276219E+00 0.41006163E+03</pdfrwt>
<pdfrwt beam="2">  1       -2 0.34287036E-01 0.41006163E+03</pdfrwt>
<totfact> 0.65156070E+01</totfact>
</mgrwt>
</event>
<event>
 4    1  0.4840632E-008  0.2041144E+03  0.7818608E-02  0.1146313E+00
          2   -1    0    0  501    0  0.00000000000E+00  0.00000000000E+00  0.66198031443E+03  0.66198031444E+03  0.25500000000E-02 0. -1.
         -2   -1    0    0    0  501 -0.00000000000E+00 -0.00000000000E+00 -0.57809497653E+03  0.57809497653E+03  0.25500000000E-02 0.  1.
    8880022    1    1    2    0    0  0.33029556352E+02  0.13107278568E+03 -0.54337133366E+03  0.58044386981E+03  0.15294330000E+03 0.  1.
    8880022    1    1    2    0    0 -0.33029556352E+02 -0.13107278568E+03  0.62725667157E+03  0.65963142116E+03  0.15294330000E+03 0.  0.
<mgrwt>
<rscale>  0 0.20411438E+03</rscale>
<asrwt>0</asrwt>
<pdfrwt beam="1">  1        2 0.10184313E+00 0.20411438E+03</pdfrwt>
<pdfrwt beam="2">  1       -2 0.88937688E-01 0.20411438E+03</pdfrwt>
<totfact> 0.51887678E+01</totfact>
</mgrwt>
</event>
<event>
 4    1  0.4840632E-008  0.3209325E+03  0.7818608E-02  0.1075221E+00
          2   -1    0    0  501    0  0.00000000000E+00  0.00000000000E+00  0.55804469134E+03  0.55804469135E+03  0.25500000000E-02 0. -1.
         -2   -1    0    0    0  501 -0.00000000000E+00 -0.00000000000E+00 -0.58623039738E+03  0.58623039739E+03  0.25500000000E-02 0.  1.
    8880022    1    1    2    0    0  0.28094507113E+03 -0.25998256675E+02 -0.48767615548E+03  0.58380281602E+03  0.15294330000E+03 0.  0.
    8880022    1    1    2    0    0 -0.28094507113E+03  0.25998256675E+02  0.45949044944E+03  0.56047227272E+03  0.15294330000E+03 0.  0.
<mgrwt>
<rscale>  0 0.32093254E+03</rscale>
<asrwt>0</asrwt>
<pdfrwt beam="1">  1        2 0.85853029E-01 0.32093254E+03</pdfrwt>
<pdfrwt beam="2">  1       -2 0.90189292E-01 0.32093254E+03</pdfrwt>
<totfact> 0.60018980E+01</totfact>
</mgrwt>
</event>
<event>
 4    1  0.4840632E-008  0.6871822E+03  0.7818608E-02  0.9739407E-01
          2   -1    0    0  501    0  0.00000000000E+00  0.00000000000E+00  0.13337699693E+04  0.13337699693E+04  0.25500000000E-02 0. -1.
         -2   -1    0    0    0  501 -0.00000000000E+00 -0.00000000000E+00 -0.44475244096E+03  0.44475244097E+03  0.25500000000E-02 0.  1.
    8880022    1    1    2    0    0  0.55300086002E+03  0.37817682209E+03  0.84609900842E+03  0.10900013051E+04  0.15294330000E+03 0.  0.
    8880022    1    1    2    0    0 -0.55300086002E+03 -0.37817682209E+03  0.42918519909E+02  0.68852110521E+03  0.15294330000E+03 0.  0.
<mgrwt>
<rscale>  0 0.68718215E+03</rscale>
<asrwt>0</asrwt>
<pdfrwt beam="1">  1        2 0.20519538E+00 0.68718215E+03</pdfrwt>
<pdfrwt beam="2">  1       -2 0.68423452E-01 0.68718215E+03</pdfrwt>
<totfact> 0.31725125E+01</totfact>
</mgrwt>
</event>
<event>
 4    1  0.4840632E-008  0.1324048E+04  0.7818608E-02  0.9010710E-01
          2   -1    0    0  501    0  0.00000000000E+00  0.00000000000E+00  0.94541162780E+03  0.94541162780E+03  0.25500000000E-02 0. -1.
         -2   -1    0    0    0  501 -0.00000000000E+00 -0.00000000000E+00 -0.18957360962E+04  0.18957360962E+04  0.25500000000E-02 0.  1.
    8880022    1    1    2    0    0  0.12711053160E+04  0.33764158864E+03 -0.68511579369E+03  0.14908004127E+04  0.15294330000E+03 0.  0.
    8880022    1    1    2    0    0 -0.12711053160E+04 -0.33764158864E+03 -0.26520867468E+03  0.13503473112E+04  0.15294330000E+03 0. -1.
<mgrwt>
<rscale>  0 0.13240477E+04</rscale>
<asrwt>0</asrwt>
<pdfrwt beam="1">  1        2 0.14544794E+00 0.13240477E+04</pdfrwt>
<pdfrwt beam="2">  1       -2 0.29165171E+00 0.13240477E+04</pdfrwt>
<totfact> 0.94319026E-01</totfact>
</mgrwt>
</event>
<event>
 4    1  0.4840632E-008  0.8666217E+03  0.7818608E-02  0.9468296E-01
         -2   -1    0    0    0  501 -0.00000000000E+00  0.00000000000E+00  0.40094453309E+03  0.40094453310E+03  0.25500000000E-02 0.  1.
          2   -1    0    0  501    0  0.00000000000E+00 -0.00000000000E+00 -0.26716750355E+04  0.26716750355E+04  0.25500000000E-02 0. -1.
    8880022    1    1    2    0    0  0.55574395440E+03 -0.64713996865E+03 -0.29546325154E+03  0.91560453685E+03  0.15294330000E+03 0.  0.
    8880022    1    1    2    0    0 -0.55574395440E+03  0.64713996865E+03 -0.19752672509E+04  0.21570150318E+04  0.15294330000E+03 0.  0.
<mgrwt>
<rscale>  0 0.86662168E+03</rscale>
<asrwt>0</asrwt>
<pdfrwt beam="1">  1        2 0.41102692E+00 0.86662168E+03</pdfrwt>
<pdfrwt beam="2">  1       -2 0.61683776E-01 0.86662168E+03</pdfrwt>
<totfact> 0.69733921E+00</totfact>
</mgrwt>
</event>
<event>
 4    1  0.4840632E-008  0.1196387E+04  0.7818608E-02  0.9116025E-01
          2   -1    0    0  501    0  0.00000000000E+00  0.00000000000E+00  0.19128384675E+04  0.19128384675E+04  0.25500000000E-02 0. -1.
         -2   -1    0    0    0  501 -0.00000000000E+00 -0.00000000000E+00 -0.98632983115E+03  0.98632983115E+03  0.25500000000E-02 0.  1.
    8880022    1    1    2    0    0  0.80793286211E+03 -0.86901893890E+03  0.11753939971E+04  0.16771678888E+04  0.15294330000E+03 0.  0.
    8880022    1    1    2    0    0 -0.80793286211E+03  0.86901893890E+03 -0.24888536073E+03  0.12220004098E+04  0.15294330000E+03 0.  0.
<mgrwt>
<rscale>  0 0.11963867E+04</rscale>
<asrwt>0</asrwt>
<pdfrwt beam="1">  1        2 0.29428284E+00 0.11963867E+04</pdfrwt>
<pdfrwt beam="2">  1       -2 0.15174305E+00 0.11963867E+04</pdfrwt>
<totfact> 0.21120949E+00</totfact>
</mgrwt>
</event>
<event>
 4    1  0.4840632E-008  0.2770737E+03  0.7818608E-02  0.1097298E+00
          2   -1    0    0  501    0  0.00000000000E+00  0.00000000000E+00  0.10037134025E+04  0.10037134025E+04  0.25500000000E-02 0. -1.
         -2   -1    0    0    0  501 -0.00000000000E+00 -0.00000000000E+00 -0.79713482641E+02  0.79713482681E+02  0.25500000000E-02 0.  1.
    8880022    1    1    2    0    0  0.18637843129E+03  0.13653295819E+03  0.57100566233E+03  0.63467888554E+03  0.15294330000E+03 0. -1.
    8880022    1    1    2    0    0 -0.18637843129E+03 -0.13653295819E+03  0.35299425752E+03  0.44874799964E+03  0.15294330000E+03 0.  1.
<mgrwt>
<rscale>  0 0.27707367E+03</rscale>
<asrwt>0</asrwt>
<pdfrwt beam="1">  1        2 0.15441744E+00 0.27707367E+03</pdfrwt>
<pdfrwt beam="2">  1       -2 0.12263613E-01 0.27707367E+03</pdfrwt>
<totfact> 0.12472458E+03</totfact>
</mgrwt>
</event>
<event>
 4    1  0.4840632E-008  0.2715777E+03  0.7818608E-02  0.1100380E+00
          2   -1    0    0  501    0  0.00000000000E+00  0.00000000000E+00  0.14131353033E+04  0.14131353033E+04  0.25500000000E-02 0. -1.
         -2   -1    0    0    0  501 -0.00000000000E+00 -0.00000000000E+00 -0.61003415707E+03  0.61003415708E+03  0.25500000000E-02 0.  1.
    8880022    1    1    2    0    0  0.40827572775E+02  0.22067145867E+03 -0.56579318308E+03  0.62759569980E+03  0.15294330000E+03 0.  0.
    8880022    1    1    2    0    0 -0.40827572775E+02 -0.22067145867E+03  0.13688943293E+04  0.13955737606E+04  0.15294330000E+03 0.  0.
<mgrwt>
<rscale>  0 0.27157768E+03</rscale>
<asrwt>0</asrwt>
<pdfrwt beam="1">  1        2 0.21740543E+00 0.27157768E+03</pdfrwt>
<pdfrwt beam="2">  1       -2 0.93851409E-01 0.27157768E+03</pdfrwt>
<totfact> 0.15380768E+01</totfact>
</mgrwt>
</event>
<event>
 4    1  0.4840632E-008  0.5340879E+03  0.7818608E-02  0.1005246E+00
          2   -1    0    0  501    0  0.00000000000E+00  0.00000000000E+00  0.13942172365E+04  0.13942172365E+04  0.25500000000E-02 0. -1.
         -2   -1    0    0    0  501 -0.00000000000E+00 -0.00000000000E+00 -0.27249882873E+03  0.27249882874E+03  0.25500000000E-02 0.  1.
    8880022    1    1    2    0    0  0.40242663149E+03  0.31608701621E+03  0.97686223882E+03  0.11133326916E+04  0.15294330000E+03 0.  0.
    8880022    1    1    2    0    0 -0.40242663149E+03 -0.31608701621E+03  0.14485616897E+03  0.55338337366E+03  0.15294330000E+03 0.  0.
<mgrwt>
<rscale>  0 0.53408787E+03</rscale>
<asrwt>0</asrwt>
<pdfrwt beam="1">  1        2 0.21449496E+00 0.53408787E+03</pdfrwt>
<pdfrwt beam="2">  1       -2 0.41922896E-01 0.53408787E+03</pdfrwt>
<totfact> 0.81946018E+01</totfact>
</mgrwt>
</event>
<event>
 4    1  0.4840632E-008  0.2517246E+03  0.7818608E-02  0.1112220E+00
         -2   -1    0    0    0  501 -0.00000000000E+00  0.00000000000E+00  0.23184164583E+03  0.23184164585E+03  0.25500000000E-02 0.  1.
          2   -1    0    0  501    0  0.00000000000E+00 -0.00000000000E+00 -0.26456131181E+04  0.26456131181E+04  0.25500000000E-02 0. -1.
    8880022    1    1    2    0    0 -0.19039612638E+03 -0.61015971617E+02  0.15550027641E+03  0.29588109556E+03  0.15294330000E+03 0.  1.
    8880022    1    1    2    0    0  0.19039612638E+03  0.61015971617E+02 -0.25692717487E+04  0.25815736684E+04  0.15294330000E+03 0.  0.
<mgrwt>
<rscale>  0 0.25172462E+03</rscale>
<asrwt>0</asrwt>
<pdfrwt beam="1">  1        2 0.40701738E+00 0.25172462E+03</pdfrwt>
<pdfrwt beam="2">  1       -2 0.35667947E-01 0.25172462E+03</pdfrwt>
<totfact> 0.25231975E+01</totfact>
</mgrwt>
</event>
<event>
 4    1  0.4840632E-008  0.2627392E+03  0.7818608E-02  0.1105509E+00
         -2   -1    0    0    0  501 -0.00000000000E+00  0.00000000000E+00  0.10732415767E+03  0.10732415770E+03  0.25500000000E-02 0.  1.
          2   -1    0    0  501    0  0.00000000000E+00 -0.00000000000E+00 -0.22116931094E+04  0.22116931094E+04  0.25500000000E-02 0. -1.
    8880022    1    1    2    0    0  0.73751913571E+02 -0.20050165220E+03 -0.75730998738E+02  0.27343572275E+03  0.15294330000E+03 0.  0.
    8880022    1    1    2    0    0 -0.73751913571E+02  0.20050165220E+03 -0.20286379530E+04  0.20455815443E+04  0.15294330000E+03 0.  0.
<mgrwt>
<rscale>  0 0.26273924E+03</rscale>
<asrwt>0</asrwt>
<pdfrwt beam="1">  1        2 0.34026044E+00 0.26273924E+03</pdfrwt>
<pdfrwt beam="2">  1       -2 0.16511411E-01 0.26273924E+03</pdfrwt>
<totfact> 0.16858210E+02</totfact>
</mgrwt>
</event>
<event>
 4    1  0.4840632E-008  0.1953026E+03  0.7818608E-02  0.1153764E+00
         -2   -1    0    0    0  501 -0.00000000000E+00  0.00000000000E+00  0.66145174797E+02  0.66145174846E+02  0.25500000000E-02 0.  1.
          2   -1    0    0  501    0  0.00000000000E+00 -0.00000000000E+00 -0.17912376875E+04  0.17912376876E+04  0.25500000000E-02 0. -1.
    8880022    1    1    2    0    0  0.37119977395E+02  0.11564406986E+03 -0.16272759697E+04  0.16389539890E+04  0.15294330000E+03 0. -1.
    8880022    1    1    2    0    0 -0.37119977395E+02 -0.11564406986E+03 -0.97816543091E+02  0.21842887339E+03  0.15294330000E+03 0.  0.
<mgrwt>
<rscale>  0 0.19530258E+03</rscale>
<asrwt>0</asrwt>
<pdfrwt beam="1">  1        2 0.27557499E+00 0.19530258E+03</pdfrwt>
<pdfrwt beam="2">  1       -2 0.10176182E-01 0.19530258E+03</pdfrwt>
<totfact> 0.62612304E+02</totfact>
</mgrwt>
</event>
<event>
 4    1  0.4840632E-008  0.4552310E+03  0.7818608E-02  0.1026173E+00
          2   -1    0    0  501    0  0.00000000000E+00  0.00000000000E+00  0.95311438033E+03  0.95311438034E+03  0.25500000000E-02 0. -1.
         -2   -1    0    0    0  501 -0.00000000000E+00 -0.00000000000E+00 -0.28740031073E+03  0.28740031074E+03  0.25500000000E-02 0.  1.
    8880022    1    1    2    0    0 -0.15007022187E+03  0.40164975937E+03  0.26811165053E+02  0.45601983759E+03  0.15294330000E+03 0.  0.
    8880022    1    1    2    0    0  0.15007022187E+03 -0.40164975937E+03  0.63890290455E+03  0.78449485349E+03  0.15294330000E+03 0.  0.
<mgrwt>
<rscale>  0 0.45523099E+03</rscale>
<asrwt>0</asrwt>
<pdfrwt beam="1">  1        2 0.14663298E+00 0.45523099E+03</pdfrwt>
<pdfrwt beam="2">  1       -2 0.44215432E-01 0.45523099E+03</pdfrwt>
<totfact> 0.13593730E+02</totfact>
</mgrwt>
</event>
<event>
 4    1  0.4840632E-008  0.2951111E+03  0.7818608E-02  0.1087710E+00
         -2   -1    0    0    0  501 -0.00000000000E+00  0.00000000000E+00  0.18767142789E+04  0.18767142789E+04  0.25500000000E-02 0.  1.
          2   -1    0    0  501    0  0.00000000000E+00 -0.00000000000E+00 -0.84399254692E+03  0.84399254693E+03  0.25500000000E-02 0. -1.
    8880022    1    1    2    0    0 -0.38498410637E+01  0.25235702686E+03 -0.80606517421E+03  0.85838896100E+03  0.15294330000E+03 0.  0.
    8880022    1    1    2    0    0  0.38498410637E+01 -0.25235702686E+03  0.18387869062E+04  0.18623178648E+04  0.15294330000E+03 0.  0.
<mgrwt>
<rscale>  0 0.29511107E+03</rscale>
<asrwt>0</asrwt>
<pdfrwt beam="1">  1        2 0.12984501E+00 0.29511107E+03</pdfrwt>
<pdfrwt beam="2">  1       -2 0.28872527E+00 0.29511107E+03</pdfrwt>
<totfact> 0.14134230E+00</totfact>
</mgrwt>
</event>
<event>
 4    1  0.4840632E-008  0.4106347E+03  0.7818608E-02  0.1040158E+00
          2   -1    0    0  501    0  0.00000000000E+00  0.00000000000E+00  0.27004439849E+03  0.27004439850E+03  0.25500000000E-02 0. -1.
         -2   -1    0    0    0  501 -0.00000000000E+00 -0.00000000000E+00 -0.66901969616E+03  0.66901969617E+03  0.25500000000E-02 0.  1.
    8880022    1    1    2    0    0 -0.23535234745E+03 -0.29973066884E+03 -0.32071945847E+03  0.52103917833E+03  0.15294330000E+03 0.  0.
    8880022    1    1    2    0    0  0.23535234745E+03  0.29973066884E+03 -0.78255839209E+02  0.41802491634E+03  0.15294330000E+03 0.  0.
<mgrwt>
<rscale>  0 0.41063470E+03</rscale>
<asrwt>0</asrwt>
<pdfrwt beam="1">  1        2 0.41545292E-01 0.41063470E+03</pdfrwt>
<pdfrwt beam="2">  1       -2 0.10292611E+00 0.41063470E+03</pdfrwt>
<totfact> 0.97933529E+01</totfact>
</mgrwt>
</event>
<event>
 4    1  0.4840632E-008  0.6656830E+03  0.7818608E-02  0.9777788E-01
         -2   -1    0    0    0  501 -0.00000000000E+00  0.00000000000E+00  0.17948504292E+04  0.17948504292E+04  0.25500000000E-02 0.  1.
          2   -1    0    0  501    0  0.00000000000E+00 -0.00000000000E+00 -0.87220613915E+03  0.87220613916E+03  0.25500000000E-02 0. -1.
    8880022    1    1    2    0    0  0.63595421362E+03 -0.12371109325E+03 -0.66780242142E+03  0.94291777132E+03  0.15294330000E+03 0.  0.
    8880022    1    1    2    0    0 -0.63595421362E+03  0.12371109325E+03  0.15904467114E+04  0.17241387970E+04  0.15294330000E+03 0.  1.
<mgrwt>
<rscale>  0 0.66568299E+03</rscale>
<asrwt>0</asrwt>
<pdfrwt beam="1">  1        2 0.13418556E+00 0.66568299E+03</pdfrwt>
<pdfrwt beam="2">  1       -2 0.27613083E+00 0.66568299E+03</pdfrwt>
<totfact> 0.14372398E+00</totfact>
</mgrwt>
</event>
<event>
 4    1  0.4840632E-008  0.3583646E+03  0.7818608E-02  0.1059233E+00
         -2   -1    0    0    0  501 -0.00000000000E+00  0.00000000000E+00  0.22923837770E+03  0.22923837771E+03  0.25500000000E-02 0.  1.
          2   -1    0    0  501    0  0.00000000000E+00 -0.00000000000E+00 -0.10359708674E+04  0.10359708674E+04  0.25500000000E-02 0. -1.
    8880022    1    1    2    0    0  0.31850261035E+03 -0.59913482777E+02 -0.83205872038E+03  0.90595082946E+03  0.15294330000E+03 0.  0.
    8880022    1    1    2    0    0 -0.31850261035E+03  0.59913482777E+02  0.25326230715E+02  0.35925841562E+03  0.15294330000E+03 0.  1.
<mgrwt>
<rscale>  0 0.35836461E+03</rscale>
<asrwt>0</asrwt>
<pdfrwt beam="1">  1        2 0.15938013E+00 0.35836461E+03</pdfrwt>
<pdfrwt beam="2">  1       -2 0.35267443E-01 0.35836461E+03</pdfrwt>
<totfact> 0.18857397E+02</totfact>
</mgrwt>
</event>
<event>
 4    1  0.4840632E-008  0.4088728E+03  0.7818608E-02  0.1040750E+00
          2   -1    0    0  501    0  0.00000000000E+00  0.00000000000E+00  0.20701707145E+04  0.20701707145E+04  0.25500000000E-02 0. -1.
         -2   -1    0    0    0  501 -0.00000000000E+00 -0.00000000000E+00 -0.23155985330E+03  0.23155985331E+03  0.25500000000E-02 0.  1.
    8880022    1    1    2    0    0  0.24431801675E+03  0.28998975619E+03  0.18480584943E+04  0.18927485843E+04  0.15294330000E+03 0.  0.
    8880022    1    1    2    0    0 -0.24431801675E+03 -0.28998975619E+03 -0.94476331491E+01  0.40898198346E+03  0.15294330000E+03 0.  0.
<mgrwt>
<rscale>  0 0.40887285E+03</rscale>
<asrwt>0</asrwt>
<pdfrwt beam="1">  1        2 0.31848779E+00 0.40887285E+03</pdfrwt>
<pdfrwt beam="2">  1       -2 0.35624594E-01 0.40887285E+03</pdfrwt>
<totfact> 0.49356679E+01</totfact>
</mgrwt>
</event>
<event>
 4    1  0.4840632E-008  0.6372063E+03  0.7818608E-02  0.9831086E-01
         -2   -1    0    0    0  501 -0.00000000000E+00  0.00000000000E+00  0.94239666000E+03  0.94239666001E+03  0.25500000000E-02 0.  1.
          2   -1    0    0  501    0  0.00000000000E+00 -0.00000000000E+00 -0.48513047968E+03  0.48513047969E+03  0.25500000000E-02 0. -1.
    8880022    1    1    2    0    0  0.61273185914E+03 -0.84852331726E+02  0.46738434132E+03  0.79024048551E+03  0.15294330000E+03 0.  0.
    8880022    1    1    2    0    0 -0.61273185914E+03  0.84852331726E+02 -0.10118160991E+02  0.63728665419E+03  0.15294330000E+03 0.  0.
<mgrwt>
<rscale>  0 0.63720633E+03</rscale>
<asrwt>0</asrwt>
<pdfrwt beam="1">  1        2 0.74635460E-01 0.63720633E+03</pdfrwt>
<pdfrwt beam="2">  1       -2 0.14498410E+00 0.63720633E+03</pdfrwt>
<totfact> 0.21401973E+01</totfact>
</mgrwt>
</event>
<event>
 4    1  0.4840632E-008  0.1121467E+04  0.7818608E-02  0.9184518E-01
         -2   -1    0    0    0  501 -0.00000000000E+00  0.00000000000E+00  0.13445586227E+04  0.13445586227E+04  0.25500000000E-02 0.  1.
          2   -1    0    0  501    0  0.00000000000E+00 -0.00000000000E+00 -0.13791630925E+04  0.13791630925E+04  0.25500000000E-02 0. -1.
    8880022    1    1    2    0    0  0.10122396726E+04 -0.45789374931E+03  0.75520955258E+03  0.13520462129E+04  0.15294330000E+03 0.  0.
    8880022    1    1    2    0    0 -0.10122396726E+04  0.45789374931E+03 -0.78981402236E+03  0.13716755022E+04  0.15294330000E+03 0.  0.
<mgrwt>
<rscale>  0 0.11214667E+04</rscale>
<asrwt>0</asrwt>
<pdfrwt beam="1">  1        2 0.21217894E+00 0.11214667E+04</pdfrwt>
<pdfrwt beam="2">  1       -2 0.20685517E+00 0.11214667E+04</pdfrwt>
<totfact> 0.17469478E+00</totfact>
</mgrwt>
</event>
<event>
 4    1  0.4840632E-008  0.2706669E+03  0.7818608E-02  0.1100899E+00
          2   -1    0    0  501    0  0.00000000000E+00  0.00000000000E+00  0.54694673827E+03  0.54694673828E+03  0.25500000000E-02 0. -1.
         -2   -1    0    0    0  501 -0.00000000000E+00 -0.00000000000E+00 -0.35861274096E+03  0.35861274097E+03  0.25500000000E-02 0.  1.
    8880022    1    1    2    0    0 -0.20336897505E+03  0.92249556301E+02 -0.26421389915E+03  0.37824536768E+03  0.15294330000E+03 0.  0.
    8880022    1    1    2    0    0  0.20336897505E+03 -0.92249556301E+02  0.45254789646E+03  0.52731411157E+03  0.15294330000E+03 0.  0.
<mgrwt>
<rscale>  0 0.27066691E+03</rscale>
<asrwt>0</asrwt>
<pdfrwt beam="1">  1        2 0.84145652E-01 0.27066691E+03</pdfrwt>
<pdfrwt beam="2">  1       -2 0.55171191E-01 0.27066691E+03</pdfrwt>
<totfact> 0.17848742E+02</totfact>
</mgrwt>
</event>
<event>
 4    1  0.4840632E-008  0.4699847E+03  0.7818608E-02  0.1021925E+00
          2   -1    0    0  501    0  0.00000000000E+00  0.00000000000E+00  0.10307215952E+04  0.10307215952E+04  0.25500000000E-02 0. -1.
         -2   -1    0    0    0  501 -0.00000000000E+00 -0.00000000000E+00 -0.91266721609E+03  0.91266721609E+03  0.25500000000E-02 0.  1.
    8880022    1    1    2    0    0  0.36759856716E+03 -0.24973029209E+03  0.90901914143E+03  0.10233285777E+04  0.15294330000E+03 0.  0.
    8880022    1    1    2    0    0 -0.36759856716E+03  0.24973029209E+03 -0.79096476229E+03  0.92006023366E+03  0.15294330000E+03 0.  1.
<mgrwt>
<rscale>  0 0.46998466E+03</rscale>
<asrwt>0</asrwt>
<pdfrwt beam="1">  1        2 0.15857255E+00 0.46998466E+03</pdfrwt>
<pdfrwt beam="2">  1       -2 0.14041034E+00 0.46998466E+03</pdfrwt>
<totfact> 0.91269759E+00</totfact>
</mgrwt>
</event>
<event>
 4    1  0.4840632E-008  0.4750964E+03  0.7818608E-02  0.1020492E+00
          2   -1    0    0  501    0  0.00000000000E+00  0.00000000000E+00  0.10424100216E+04  0.10424100216E+04  0.25500000000E-02 0. -1.
         -2   -1    0    0    0  501 -0.00000000000E+00 -0.00000000000E+00 -0.32559515944E+03  0.32559515945E+03  0.25500000000E-02 0.  1.
    8880022    1    1    2    0    0 -0.23941970271E+03 -0.38079273243E+03  0.75427971033E+03  0.89143391990E+03  0.15294330000E+03 0.  0.
    8880022    1    1    2    0    0  0.23941970271E+03  0.38079273243E+03 -0.37464848148E+02  0.47657126118E+03  0.15294330000E+03 0.  0.
<mgrwt>
<rscale>  0 0.47509636E+03</rscale>
<asrwt>0</asrwt>
<pdfrwt beam="1">  1        2 0.16037077E+00 0.47509636E+03</pdfrwt>
<pdfrwt beam="2">  1       -2 0.50091563E-01 0.47509636E+03</pdfrwt>
<totfact> 0.92905242E+01</totfact>
</mgrwt>
</event>
<event>
 4    1  0.4840632E-008  0.4673706E+03  0.7818608E-02  0.1022665E+00
          2   -1    0    0  501    0  0.00000000000E+00  0.00000000000E+00  0.35865797307E+04  0.35865797307E+04  0.25500000000E-02 0. -1.
         -2   -1    0    0    0  501 -0.00000000000E+00 -0.00000000000E+00 -0.29246424688E+03  0.29246424689E+03  0.25500000000E-02 0.  1.
    8880022    1    1    2    0    0  0.36226432059E+03 -0.25260286558E+03  0.33728589830E+04  0.34050863451E+04  0.15294330000E+03 0.  0.
    8880022    1    1    2    0    0 -0.36226432059E+03  0.25260286558E+03 -0.78743499188E+02  0.47395763244E+03  0.15294330000E+03 0.  0.
<mgrwt>
<rscale>  0 0.46737062E+03</rscale>
<asrwt>0</asrwt>
<pdfrwt beam="1">  1        2 0.55178152E+00 0.46737062E+03</pdfrwt>
<pdfrwt beam="2">  1       -2 0.44994498E-01 0.46737062E+03</pdfrwt>
<totfact> 0.38908010E+00</totfact>
</mgrwt>
</event>
<event>
 4    1  0.4840632E-008  0.3334179E+03  0.7818608E-02  0.1069634E+00
         -2   -1    0    0    0  501 -0.00000000000E+00  0.00000000000E+00  0.15727781404E+04  0.15727781404E+04  0.25500000000E-02 0.  1.
          2   -1    0    0  501    0  0.00000000000E+00 -0.00000000000E+00 -0.13884521154E+03  0.13884521157E+03  0.25500000000E-02 0. -1.
    8880022    1    1    2    0    0  0.29339670894E+03 -0.41160719610E+02  0.13166015030E+04  0.13581630994E+04  0.15294330000E+03 0.  0.
    8880022    1    1    2    0    0 -0.29339670894E+03  0.41160719610E+02  0.11733142579E+03  0.35346025257E+03  0.15294330000E+03 0. -1.
<mgrwt>
<rscale>  0 0.33341789E+03</rscale>
<asrwt>0</asrwt>
<pdfrwt beam="1">  1        2 0.21360802E-01 0.33341789E+03</pdfrwt>
<pdfrwt beam="2">  1       -2 0.24196586E+00 0.33341789E+03</pdfrwt>
<totfact> 0.20407488E+01</totfact>
</mgrwt>
</event>
<event>
 4    1  0.4840632E-008  0.9745203E+03  0.7818608E-02  0.9336940E-01
         -2   -1    0    0    0  501 -0.00000000000E+00  0.00000000000E+00  0.51495787700E+03  0.51495787700E+03  0.25500000000E-02 0.  1.
          2   -1    0    0  501    0  0.00000000000E+00 -0.00000000000E+00 -0.22203807826E+04  0.22203807827E+04  0.25500000000E-02 0. -1.
    8880022    1    1    2    0    0 -0.47035785799E+03 -0.83967953442E+03 -0.14156494408E+04  0.17186486631E+04  0.15294330000E+03 0.  0.
    8880022    1    1    2    0    0  0.47035785799E+03  0.83967953442E+03 -0.28977346489E+03  0.10166899965E+04  0.15294330000E+03 0.  0.
<mgrwt>
<rscale>  0 0.97452034E+03</rscale>
<asrwt>0</asrwt>
<pdfrwt beam="1">  1        2 0.34159704E+00 0.97452034E+03</pdfrwt>
<pdfrwt beam="2">  1       -2 0.79224290E-01 0.97452034E+03</pdfrwt>
<totfact> 0.71667707E+00</totfact>
</mgrwt>
</event>
<event>
 4    1  0.4840632E-008  0.1855405E+03  0.7818608E-02  0.1162546E+00
         -2   -1    0    0    0  501 -0.00000000000E+00  0.00000000000E+00  0.12400838445E+03  0.12400838447E+03  0.25500000000E-02 0.  1.
          2   -1    0    0  501    0  0.00000000000E+00 -0.00000000000E+00 -0.13203235276E+04  0.13203235276E+04  0.25500000000E-02 0. -1.
    8880022    1    1    2    0    0 -0.32824460619E+00 -0.10504046581E+03  0.43614069015E+02  0.19059760553E+03  0.15294330000E+03 0.  1.
    8880022    1    1    2    0    0  0.32824460619E+00  0.10504046581E+03 -0.12399292122E+04  0.12537343066E+04  0.15294330000E+03 0.  0.
<mgrwt>
<rscale>  0 0.18554045E+03</rscale>
<asrwt>0</asrwt>
<pdfrwt beam="1">  1        2 0.20312669E+00 0.18554045E+03</pdfrwt>
<pdfrwt beam="2">  1       -2 0.19078214E-01 0.18554045E+03</pdfrwt>
<totfact> 0.39749715E+02</totfact>
</mgrwt>
</event>
<event>
 4    1  0.4840632E-008  0.9754931E+03  0.7818608E-02  0.9335840E-01
         -2   -1    0    0    0  501 -0.00000000000E+00  0.00000000000E+00  0.36385578969E+03  0.36385578970E+03  0.25500000000E-02 0.  1.
          2   -1    0    0  501    0  0.00000000000E+00 -0.00000000000E+00 -0.28386628301E+04  0.28386628301E+04  0.25500000000E-02 0. -1.
    8880022    1    1    2    0    0 -0.50055785998E+03  0.82318712439E+03 -0.16865872904E+04  0.19483745929E+04  0.15294330000E+03 0.  0.
    8880022    1    1    2    0    0  0.50055785998E+03 -0.82318712439E+03 -0.78821974996E+03  0.12541440269E+04  0.15294330000E+03 0.  0.
<mgrwt>
<rscale>  0 0.97549314E+03</rscale>
<asrwt>0</asrwt>
<pdfrwt beam="1">  1        2 0.43671735E+00 0.97549314E+03</pdfrwt>
<pdfrwt beam="2">  1       -2 0.55977815E-01 0.97549314E+03</pdfrwt>
<totfact> 0.67128954E+00</totfact>
</mgrwt>
</event>
<event>
 4    1  0.4840632E-008  0.1814080E+03  0.7818608E-02  0.1166447E+00
         -2   -1    0    0    0  501 -0.00000000000E+00  0.00000000000E+00  0.15217040645E+03  0.15217040647E+03  0.25500000000E-02 0.  1.
          2   -1    0    0  501    0  0.00000000000E+00 -0.00000000000E+00 -0.70139139999E+03  0.70139139999E+03  0.25500000000E-02 0. -1.
    8880022    1    1    2    0    0  0.61038148645E+02  0.76102232560E+02  0.80327931682E+02  0.19839716483E+03  0.15294330000E+03 0.  0.
    8880022    1    1    2    0    0 -0.61038148645E+02 -0.76102232560E+02 -0.62954892522E+03  0.65516464163E+03  0.15294330000E+03 0. -1.
<mgrwt>
<rscale>  0 0.18140799E+03</rscale>
<asrwt>0</asrwt>
<pdfrwt beam="1">  1        2 0.10790637E+00 0.18140799E+03</pdfrwt>
<pdfrwt beam="2">  1       -2 0.23410832E-01 0.18140799E+03</pdfrwt>
<totfact> 0.67288498E+02</totfact>
</mgrwt>
</event>
<event>
 4    1  0.4840632E-008  0.4827305E+03  0.7818608E-02  0.1018387E+00
         -2   -1    0    0    0  501 -0.00000000000E+00  0.00000000000E+00  0.11837651345E+04  0.11837651345E+04  0.25500000000E-02 0.  1.
          2   -1    0    0  501    0  0.00000000000E+00 -0.00000000000E+00 -0.83540974320E+03  0.83540974321E+03  0.25500000000E-02 0. -1.
    8880022    1    1    2    0    0 -0.39943964434E+03  0.22379688471E+03  0.10568380659E+04  0.11618672151E+04  0.15294330000E+03 0.  0.
    8880022    1    1    2    0    0  0.39943964434E+03 -0.22379688471E+03 -0.70848267460E+03  0.85730766257E+03  0.15294330000E+03 0.  0.
<mgrwt>
<rscale>  0 0.48273049E+03</rscale>
<asrwt>0</asrwt>
<pdfrwt beam="1">  1        2 0.12852458E+00 0.48273049E+03</pdfrwt>
<pdfrwt beam="2">  1       -2 0.18211771E+00 0.48273049E+03</pdfrwt>
<totfact> 0.60642220E+00</totfact>
</mgrwt>
</event>
<event>
 4    1  0.4840632E-008  0.5555635E+03  0.7818608E-02  0.1000214E+00
          2   -1    0    0  501    0  0.00000000000E+00  0.00000000000E+00  0.59797530911E+03  0.59797530912E+03  0.25500000000E-02 0. -1.
         -2   -1    0    0    0  501 -0.00000000000E+00 -0.00000000000E+00 -0.14696557620E+04  0.14696557620E+04  0.25500000000E-02 0.  1.
    8880022    1    1    2    0    0 -0.40492843035E+03  0.34827019944E+03  0.39687148257E+03  0.68275749151E+03  0.15294330000E+03 0.  0.
    8880022    1    1    2    0    0  0.40492843035E+03 -0.34827019944E+03 -0.12685519354E+04  0.13848735796E+04  0.15294330000E+03 0.  1.
<mgrwt>
<rscale>  0 0.55556351E+03</rscale>
<asrwt>0</asrwt>
<pdfrwt beam="1">  1        2 0.91996202E-01 0.55556351E+03</pdfrwt>
<pdfrwt beam="2">  1       -2 0.22610089E+00 0.55556351E+03</pdfrwt>
<totfact> 0.47549014E+00</totfact>
</mgrwt>
</event>
<event>
 4    1  0.4840632E-008  0.4579993E+03  0.7818608E-02  0.1025363E+00
         -2   -1    0    0    0  501 -0.00000000000E+00  0.00000000000E+00  0.61383820268E+03  0.61383820268E+03  0.25500000000E-02 0.  1.
          2   -1    0    0  501    0  0.00000000000E+00 -0.00000000000E+00 -0.99345687384E+03  0.99345687384E+03  0.25500000000E-02 0. -1.
    8880022    1    1    2    0    0 -0.48528361670E+02  0.42897169826E+03 -0.84072669531E+03  0.95738432670E+03  0.15294330000E+03 0. -1.
    8880022    1    1    2    0    0  0.48528361670E+02 -0.42897169826E+03  0.46110802415E+03  0.64991074983E+03  0.15294330000E+03 0.  0.
<mgrwt>
<rscale>  0 0.45799932E+03</rscale>
<asrwt>0</asrwt>
<pdfrwt beam="1">  1        2 0.15283952E+00 0.45799932E+03</pdfrwt>
<pdfrwt beam="2">  1       -2 0.94436646E-01 0.45799932E+03</pdfrwt>
<totfact> 0.25354913E+01</totfact>
</mgrwt>
</event>
<event>
 4    1  0.4840632E-008  0.7778719E+03  0.7818608E-02  0.9592611E-01
          2   -1    0    0  501    0  0.00000000000E+00  0.00000000000E+00  0.23217944499E+04  0.23217944499E+04  0.25500000000E-02 0. -1.
         -2   -1    0    0    0  501 -0.00000000000E+00 -0.00000000000E+00 -0.44175550299E+03  0.44175550299E+03  0.25500000000E-02 0.  1.
    8880022    1    1    2    0    0  0.26905363261E+03  0.71365485643E+03  0.18248480298E+04  0.19837225350E+04  0.15294330000E+03 0.  0.
    8880022    1    1    2    0    0 -0.26905363261E+03 -0.71365485643E+03  0.55190917186E+02  0.77982741788E+03  0.15294330000E+03 0.  0.
<mgrwt>
<rscale>  0 0.77787195E+03</rscale>
<asrwt>0</asrwt>
<pdfrwt beam="1">  1        2 0.35719915E+00 0.77787195E+03</pdfrwt>
<pdfrwt beam="2">  1       -2 0.67962384E-01 0.77787195E+03</pdfrwt>
<totfact> 0.90778226E+00</totfact>
</mgrwt>
</event>
<event>
 4    1  0.4840632E-008  0.1167156E+04  0.7818608E-02  0.9142101E-01
         -2   -1    0    0    0  501 -0.00000000000E+00  0.00000000000E+00  0.25018530017E+04  0.25018530017E+04  0.25500000000E-02 0.  1.
          2   -1    0    0  501    0  0.00000000000E+00 -0.00000000000E+00 -0.62503125568E+03  0.62503125569E+03  0.25500000000E-02 0. -1.
    8880022    1    1    2    0    0 -0.91122433393E+03  0.71311334900E+03  0.14996146477E+04  0.19002884465E+04  0.15294330000E+03 0.  0.
    8880022    1    1    2    0    0  0.91122433393E+03 -0.71311334900E+03  0.37720709833E+03  0.12265958109E+04  0.15294330000E+03 0.  0.
<mgrwt>
<rscale>  0 0.11671556E+04</rscale>
<asrwt>0</asrwt>
<pdfrwt beam="1">  1        2 0.96158653E-01 0.11671556E+04</pdfrwt>
<pdfrwt beam="2">  1       -2 0.38490047E+00 0.11671556E+04</pdfrwt>
<totfact> 0.43687915E-01</totfact>
</mgrwt>
</event>
<event>
 4    1  0.4840632E-008  0.6568178E+03  0.7818608E-02  0.9794070E-01
         -2   -1    0    0    0  501 -0.00000000000E+00  0.00000000000E+00  0.36938706391E+03  0.36938706392E+03  0.25500000000E-02 0.  1.
          2   -1    0    0  501    0  0.00000000000E+00 -0.00000000000E+00 -0.21619961217E+04  0.21619961217E+04  0.25500000000E-02 0. -1.
    8880022    1    1    2    0    0  0.50260052816E+03  0.39422153164E+03 -0.38055726930E+02  0.65791929466E+03  0.15294330000E+03 0.  0.
    8880022    1    1    2    0    0 -0.50260052816E+03 -0.39422153164E+03 -0.17545533309E+04  0.18734638910E+04  0.15294330000E+03 0.  0.
<mgrwt>
<rscale>  0 0.65681775E+03</rscale>
<asrwt>0</asrwt>
<pdfrwt beam="1">  1        2 0.33261478E+00 0.65681775E+03</pdfrwt>
<pdfrwt beam="2">  1       -2 0.56828780E-01 0.65681775E+03</pdfrwt>
<totfact> 0.16596133E+01</totfact>
</mgrwt>
</event>
<event>
 4    1  0.4840632E-008  0.8344660E+03  0.7818608E-02  0.9511427E-01
          2   -1    0    0  501    0  0.00000000000E+00  0.00000000000E+00  0.30385679121E+04  0.30385679121E+04  0.25500000000E-02 0. -1.
         -2   -1    0    0    0  501 -0.00000000000E+00 -0.00000000000E+00 -0.56339282745E+03  0.56339282746E+03  0.25500000000E-02 0.  1.
    8880022    1    1    2    0    0 -0.37176821164E+03 -0.73125248859E+03  0.26247413430E+04  0.27541969022E+04  0.15294330000E+03 0.  0.
    8880022    1    1    2    0    0  0.37176821164E+03  0.73125248859E+03 -0.14956625839E+03  0.84776383735E+03  0.15294330000E+03 0.  0.
<mgrwt>
<rscale>  0 0.83446597E+03</rscale>
<asrwt>0</asrwt>
<pdfrwt beam="1">  1        2 0.46747198E+00 0.83446597E+03</pdfrwt>
<pdfrwt beam="2">  1       -2 0.86675821E-01 0.83446597E+03</pdfrwt>
<totfact> 0.19941362E+00</totfact>
</mgrwt>
</event>
<event>
 4    1  0.4840632E-008  0.5132576E+03  0.7818608E-02  0.1010375E+00
          2   -1    0    0  501    0  0.00000000000E+00  0.00000000000E+00  0.23610276315E+04  0.23610276315E+04  0.25500000000E-02 0. -1.
         -2   -1    0    0    0  501 -0.00000000000E+00 -0.00000000000E+00 -0.29137085701E+03  0.29137085703E+03  0.25500000000E-02 0.  1.
    8880022    1    1    2    0    0  0.12103962727E+03  0.47475373046E+03  0.20766052205E+04  0.21390938714E+04  0.15294330000E+03 0.  0.
    8880022    1    1    2    0    0 -0.12103962727E+03 -0.47475373046E+03 -0.69484460702E+01  0.51330461704E+03  0.15294330000E+03 0.  1.
<mgrwt>
<rscale>  0 0.51325759E+03</rscale>
<asrwt>0</asrwt>
<pdfrwt beam="1">  1        2 0.36323502E+00 0.51325759E+03</pdfrwt>
<pdfrwt beam="2">  1       -2 0.44826286E-01 0.51325759E+03</pdfrwt>
<totfact> 0.21479555E+01</totfact>
</mgrwt>
</event>
<event>
 4    1  0.4840632E-008  0.3145385E+03  0.7818608E-02  0.1078191E+00
          2   -1    0    0  501    0  0.00000000000E+00  0.00000000000E+00  0.17034144609E+04  0.17034144609E+04  0.25500000000E-02 0. -1.
         -2   -1    0    0    0  501 -0.00000000000E+00 -0.00000000000E+00 -0.76678955474E+02  0.76678955516E+02  0.25500000000E-02 0.  1.
    8880022    1    1    2    0    0 -0.25170987441E+03 -0.11038558370E+03  0.37502103977E+03  0.48946426964E+03  0.15294330000E+03 0.  0.
    8880022    1    1    2    0    0  0.25170987441E+03  0.11038558370E+03  0.12517144656E+04  0.12906291468E+04  0.15294330000E+03 0.  0.
<mgrwt>
<rscale>  0 0.31453854E+03</rscale>
<asrwt>0</asrwt>
<pdfrwt beam="1">  1        2 0.26206373E+00 0.31453854E+03</pdfrwt>
<pdfrwt beam="2">  1       -2 0.11796764E-01 0.31453854E+03</pdfrwt>
<totfact> 0.53914728E+02</totfact>
</mgrwt>
</event>
<event>
 4    1  0.4840632E-008  0.1830895E+03  0.7818608E-02  0.1164846E+00
          2   -1    0    0  501    0  0.00000000000E+00  0.00000000000E+00  0.84173831808E+02  0.84173831847E+02  0.25500000000E-02 0. -1.
         -2   -1    0    0    0  501 -0.00000000000E+00 -0.00000000000E+00 -0.47311406492E+03  0.47311406492E+03  0.25500000000E-02 0.  1.
    8880022    1    1    2    0    0 -0.10116758713E+02 -0.10013874085E+03 -0.83624323700E+02  0.20128287745E+03  0.15294330000E+03 0.  0.
    8880022    1    1    2    0    0  0.10116758713E+02  0.10013874085E+03 -0.30531590941E+03  0.35600501932E+03  0.15294330000E+03 0.  0.
<mgrwt>
<rscale>  0 0.18308951E+03</rscale>
<asrwt>0</asrwt>
<pdfrwt beam="1">  1        2 0.12949821E-01 0.18308951E+03</pdfrwt>
<pdfrwt beam="2">  1       -2 0.72786777E-01 0.18308951E+03</pdfrwt>
<totfact> 0.80819460E+02</totfact>
</mgrwt>
</event>
<event>
 4    1  0.4840632E-008  0.1134467E+04  0.7818608E-02  0.9172234E-01
          2   -1    0    0  501    0  0.00000000000E+00  0.00000000000E+00  0.16493371077E+04  0.16493371077E+04  0.25500000000E-02 0. -1.
         -2   -1    0    0    0  501 -0.00000000000E+00 -0.00000000000E+00 -0.11098268370E+04  0.11098268370E+04  0.25500000000E-02 0.  1.
    8880022    1    1    2    0    0 -0.11196828846E+04 -0.99666776435E+02  0.10214653584E+04  0.15265668540E+04  0.15294330000E+03 0.  0.
    8880022    1    1    2    0    0  0.11196828846E+04  0.99666776435E+02 -0.48195508769E+03  0.12325970907E+04  0.15294330000E+03 0.  0.
<mgrwt>
<rscale>  0 0.11344668E+04</rscale>
<asrwt>0</asrwt>
<pdfrwt beam="1">  1        2 0.25374417E+00 0.11344668E+04</pdfrwt>
<pdfrwt beam="2">  1       -2 0.17074259E+00 0.11344668E+04</pdfrwt>
<totfact> 0.21547176E+00</totfact>
</mgrwt>
</event>
<event>
 4    1  0.4840632E-008  0.1227882E+04  0.7818608E-02  0.9088796E-01
         -2   -1    0    0    0  501 -0.00000000000E+00  0.00000000000E+00  0.60959435479E+03  0.60959435479E+03  0.25500000000E-02 0.  1.
          2   -1    0    0  501    0  0.00000000000E+00 -0.00000000000E+00 -0.28102069320E+04  0.28102069320E+04  0.25500000000E-02 0. -1.
    8880022    1    1    2    0    0 -0.11636672615E+04 -0.36080580871E+03 -0.50823590458E+03  0.13289084674E+04  0.15294330000E+03 0.  0.
    8880022    1    1    2    0    0  0.11636672615E+04  0.36080580871E+03 -0.16923766726E+04  0.20908928194E+04  0.15294330000E+03 0.  0.
<mgrwt>
<rscale>  0 0.12278819E+04</rscale>
<asrwt>0</asrwt>
<pdfrwt beam="1">  1        2 0.43233952E+00 0.12278819E+04</pdfrwt>
<pdfrwt beam="2">  1       -2 0.93783748E-01 0.12278819E+04</pdfrwt>
<totfact> 0.21568333E+00</totfact>
</mgrwt>
</event>
<event>
 4    1  0.4840632E-008  0.2849963E+03  0.7818608E-02  0.1092991E+00
         -2   -1    0    0    0  501 -0.00000000000E+00  0.00000000000E+00  0.15736892801E+04  0.15736892801E+04  0.25500000000E-02 0.  1.
          2   -1    0    0  501    0  0.00000000000E+00 -0.00000000000E+00 -0.55026884273E+03  0.55026884273E+03  0.25500000000E-02 0. -1.
    8880022    1    1    2    0    0 -0.20545934707E+03  0.12497085712E+03  0.15226584682E+04  0.15491002945E+04  0.15294330000E+03 0.  0.
    8880022    1    1    2    0    0  0.20545934707E+03 -0.12497085712E+03 -0.49923803083E+03  0.57485782840E+03  0.15294330000E+03 0.  0.
<mgrwt>
<rscale>  0 0.28499634E+03</rscale>
<asrwt>0</asrwt>
<pdfrwt beam="1">  1        2 0.84656747E-01 0.28499634E+03</pdfrwt>
<pdfrwt beam="2">  1       -2 0.24210604E+00 0.28499634E+03</pdfrwt>
<totfact> 0.44878053E+00</totfact>
</mgrwt>
</event>
<event>
 4    1  0.4840632E-008  0.2107901E+03  0.7818608E-02  0.1140942E+00
         -2   -1    0    0    0  501 -0.00000000000E+00  0.00000000000E+00  0.11964262420E+04  0.11964262420E+04  0.25500000000E-02 0.  1.
          2   -1    0    0  501    0  0.00000000000E+00 -0.00000000000E+00 -0.13180069567E+04  0.13180069567E+04  0.25500000000E-02 0. -1.
    8880022    1    1    2    0    0  0.24934707329E+02 -0.14289536396E+03  0.11785872979E+04  0.11972888108E+04  0.15294330000E+03 0.  0.
    8880022    1    1    2    0    0 -0.24934707329E+02  0.14289536396E+03 -0.13001680126E+04  0.13171443879E+04  0.15294330000E+03 0. -1.
<mgrwt>
<rscale>  0 0.21079013E+03</rscale>
<asrwt>0</asrwt>
<pdfrwt beam="1">  1        2 0.20277030E+00 0.21079013E+03</pdfrwt>
<pdfrwt beam="2">  1       -2 0.18406558E+00 0.21079013E+03</pdfrwt>
<totfact> 0.32974214E+00</totfact>
</mgrwt>
</event>
<event>
 4    1  0.4840632E-008  0.3137058E+03  0.7818608E-02  0.1078583E+00
         -2   -1    0    0    0  501 -0.00000000000E+00  0.00000000000E+00  0.32911666048E+03  0.32911666049E+03  0.25500000000E-02 0.  1.
          2   -1    0    0  501    0  0.00000000000E+00 -0.00000000000E+00 -0.44054446564E+03  0.44054446565E+03  0.25500000000E-02 0. -1.
    8880022    1    1    2    0    0 -0.10565735350E+03  0.25269785803E+03 -0.27383400715E+03  0.41640893397E+03  0.15294330000E+03 0.  0.
    8880022    1    1    2    0    0  0.10565735350E+03 -0.25269785803E+03  0.16240620199E+03  0.35325219216E+03  0.15294330000E+03 0.  0.
<mgrwt>
<rscale>  0 0.31370581E+03</rscale>
<asrwt>0</asrwt>
<pdfrwt beam="1">  1        2 0.67776072E-01 0.31370581E+03</pdfrwt>
<pdfrwt beam="2">  1       -2 0.50633332E-01 0.31370581E+03</pdfrwt>
<totfact> 0.27004801E+02</totfact>
</mgrwt>
</event>
<event>
 4    1  0.4840632E-008  0.3959832E+03  0.7818608E-02  0.1045180E+00
         -2   -1    0    0    0  501 -0.00000000000E+00  0.00000000000E+00  0.17720627713E+03  0.17720627715E+03  0.25500000000E-02 0.  1.
          2   -1    0    0  501    0  0.00000000000E+00 -0.00000000000E+00 -0.28140755494E+04  0.28140755494E+04  0.25500000000E-02 0. -1.
    8880022    1    1    2    0    0 -0.11700067299E+03 -0.34600846148E+03 -0.25568031130E+04  0.25872852229E+04  0.15294330000E+03 0.  0.
    8880022    1    1    2    0    0  0.11700067299E+03  0.34600846148E+03 -0.80066159256E+02  0.40399660366E+03  0.15294330000E+03 0.  0.
<mgrwt>
<rscale>  0 0.39598316E+03</rscale>
<asrwt>0</asrwt>
<pdfrwt beam="1">  1        2 0.43293467E+00 0.39598316E+03</pdfrwt>
<pdfrwt beam="2">  1       -2 0.27262506E-01 0.39598316E+03</pdfrwt>
<totfact> 0.31433249E+01</totfact>
</mgrwt>
</event>
<event>
 4    1  0.4840632E-008  0.1249349E+04  0.7818608E-02  0.9070725E-01
          2   -1    0    0  501    0  0.00000000000E+00  0.00000000000E+00  0.20775760695E+04  0.20775760695E+04  0.25500000000E-02 0. -1.
         -2   -1    0    0    0  501 -0.00000000000E+00 -0.00000000000E+00 -0.97922793721E+03  0.97922793722E+03  0.25500000000E-02 0.  1.
    8880022    1    1    2    0    0  0.53983011329E+02  0.12387764966E+04  0.12865670625E+04  0.17933565829E+04  0.15294330000E+03 0.  0.
    8880022    1    1    2    0    0 -0.53983011329E+02 -0.12387764966E+04 -0.18821893019E+03  0.12634474238E+04  0.15294330000E+03 0.  0.
<mgrwt>
<rscale>  0 0.12493490E+04</rscale>
<asrwt>0</asrwt>
<pdfrwt beam="1">  1        2 0.31962708E+00 0.12493490E+04</pdfrwt>
<pdfrwt beam="2">  1       -2 0.15065045E+00 0.12493490E+04</pdfrwt>
<totfact> 0.17346434E+00</totfact>
</mgrwt>
</event>
<event>
 4    1  0.4840632E-008  0.7397984E+03  0.7818608E-02  0.9651492E-01
          2   -1    0    0  501    0  0.00000000000E+00  0.00000000000E+00  0.11141879413E+04  0.11141879413E+04  0.25500000000E-02 0. -1.
         -2   -1    0    0    0  501 -0.00000000000E+00 -0.00000000000E+00 -0.78102192946E+03  0.78102192946E+03  0.25500000000E-02 0.  1.
    8880022    1    1    2    0    0  0.46671660861E+03  0.55325007983E+03  0.74381827953E+03  0.10490792771E+04  0.15294330000E+03 0.  0.
    8880022    1    1    2    0    0 -0.46671660861E+03 -0.55325007983E+03 -0.41065226771E+03  0.84613059368E+03  0.15294330000E+03 0.  0.
<mgrwt>
<rscale>  0 0.73979842E+03</rscale>
<asrwt>0</asrwt>
<pdfrwt beam="1">  1        2 0.17141353E+00 0.73979842E+03</pdfrwt>
<pdfrwt beam="2">  1       -2 0.12015722E+00 0.73979842E+03</pdfrwt>
<totfact> 0.11524229E+01</totfact>
</mgrwt>
</event>
<event>
 4    1  0.4840632E-008  0.2020067E+03  0.7818608E-02  0.1148057E+00
          2   -1    0    0  501    0  0.00000000000E+00  0.00000000000E+00  0.10420905363E+04  0.10420905363E+04  0.25500000000E-02 0. -1.
         -2   -1    0    0    0  501 -0.00000000000E+00 -0.00000000000E+00 -0.83552257929E+02  0.83552257968E+02  0.25500000000E-02 0.  1.
    8880022    1    1    2    0    0 -0.13188166776E+03  0.47217387385E+01  0.69015571826E+02  0.21347100805E+03  0.15294330000E+03 0.  1.
    8880022    1    1    2    0    0  0.13188166776E+03 -0.47217387385E+01  0.88952270653E+03  0.91217178621E+03  0.15294330000E+03 0.  0.
<mgrwt>
<rscale>  0 0.20200674E+03</rscale>
<asrwt>0</asrwt>
<pdfrwt beam="1">  1        2 0.16032163E+00 0.20200674E+03</pdfrwt>
<pdfrwt beam="2">  1       -2 0.12854193E-01 0.20200674E+03</pdfrwt>
<totfact> 0.10972613E+03</totfact>
</mgrwt>
</event>
<event>
 4    1  0.4840632E-008  0.5707751E+03  0.7818608E-02  0.9967965E-01
         -2   -1    0    0    0  501 -0.00000000000E+00  0.00000000000E+00  0.13126774691E+04  0.13126774691E+04  0.25500000000E-02 0.  1.
          2   -1    0    0  501    0  0.00000000000E+00 -0.00000000000E+00 -0.27940489561E+03  0.27940489562E+03  0.25500000000E-02 0. -1.
    8880022    1    1    2    0    0  0.50586404863E+03 -0.21562502983E+03  0.25053430326E+03  0.62333913667E+03  0.15294330000E+03 0. -1.
    8880022    1    1    2    0    0 -0.50586404863E+03  0.21562502983E+03  0.78273827023E+03  0.96874322804E+03  0.15294330000E+03 0.  0.
<mgrwt>
<rscale>  0 0.57077512E+03</rscale>
<asrwt>0</asrwt>
<pdfrwt beam="1">  1        2 0.42985369E-01 0.57077512E+03</pdfrwt>
<pdfrwt beam="2">  1       -2 0.20195038E+00 0.57077512E+03</pdfrwt>
<totfact> 0.15903953E+01</totfact>
</mgrwt>
</event>
<event>
 4    1  0.4840632E-008  0.3521039E+03  0.7818608E-02  0.1061755E+00
         -2   -1    0    0    0  501 -0.00000000000E+00  0.00000000000E+00  0.12075015065E+03  0.12075015068E+03  0.25500000000E-02 0.  1.
          2   -1    0    0  501    0  0.00000000000E+00 -0.00000000000E+00 -0.25893817969E+04  0.25893817969E+04  0.25500000000E-02 0. -1.
    8880022    1    1    2    0    0 -0.25375412023E+03  0.19024814644E+03 -0.18164099677E+03  0.39619517347E+03  0.15294330000E+03 0.  0.
    8880022    1    1    2    0    0  0.25375412023E+03 -0.19024814644E+03 -0.22869906494E+04  0.23139367741E+04  0.15294330000E+03 0. -1.
<mgrwt>
<rscale>  0 0.35210391E+03</rscale>
<asrwt>0</asrwt>
<pdfrwt beam="1">  1        2 0.39836639E+00 0.35210391E+03</pdfrwt>
<pdfrwt beam="2">  1       -2 0.18576948E-01 0.35210391E+03</pdfrwt>
<totfact> 0.83860703E+01</totfact>
</mgrwt>
</event>
<event>
 4    1  0.4840632E-008  0.2985645E+03  0.7818608E-02  0.1085960E+00
          2   -1    0    0  501    0  0.00000000000E+00  0.00000000000E+00  0.12574387136E+04  0.12574387136E+04  0.25500000000E-02 0. -1.
         -2   -1    0    0    0  501 -0.00000000000E+00 -0.00000000000E+00 -0.79168412943E+03  0.79168412943E+03  0.25500000000E-02 0.  1.
    8880022    1    1    2    0    0  0.25541051928E+03 -0.22684027231E+02 -0.74473674636E+03  0.80235501671E+03  0.15294330000E+03 0.  0.
    8880022    1    1    2    0    0 -0.25541051928E+03  0.22684027231E+02  0.12104913306E+04  0.12467678263E+04  0.15294330000E+03 0.  0.
<mgrwt>
<rscale>  0 0.29856448E+03</rscale>
<asrwt>0</asrwt>
<pdfrwt beam="1">  1        2 0.19345211E+00 0.29856448E+03</pdfrwt>
<pdfrwt beam="2">  1       -2 0.12179756E+00 0.29856448E+03</pdfrwt>
<totfact> 0.10016491E+01</totfact>
</mgrwt>
</event>
<event>
 4    1  0.4840632E-008  0.6127496E+03  0.7818608E-02  0.9879302E-01
         -2   -1    0    0    0  501 -0.00000000000E+00  0.00000000000E+00  0.26676454603E+03  0.26676454604E+03  0.25500000000E-02 0.  1.
          2   -1    0    0  501    0  0.00000000000E+00 -0.00000000000E+00 -0.15289475928E+04  0.15289475928E+04  0.25500000000E-02 0. -1.
    8880022    1    1    2    0    0 -0.42306794365E+03 -0.41603356406E+03 -0.88417594979E+03  0.10757458690E+04  0.15294330000E+03 0.  0.
    8880022    1    1    2    0    0  0.42306794365E+03  0.41603356406E+03 -0.37800709695E+03  0.71996626985E+03  0.15294330000E+03 0.  0.
<mgrwt>
<rscale>  0 0.61274959E+03</rscale>
<asrwt>0</asrwt>
<pdfrwt beam="1">  1        2 0.23522270E+00 0.61274959E+03</pdfrwt>
<pdfrwt beam="2">  1       -2 0.41040700E-01 0.61274959E+03</pdfrwt>
<totfact> 0.71215551E+01</totfact>
</mgrwt>
</event>
<event>
 4    1  0.4840632E-008  0.1581541E+03  0.7818608E-02  0.1190797E+00
         -2   -1    0    0    0  501 -0.00000000000E+00  0.00000000000E+00  0.34862531212E+03  0.34862531213E+03  0.25500000000E-02 0.  1.
          2   -1    0    0  501    0  0.00000000000E+00 -0.00000000000E+00 -0.22775519185E+03  0.22775519187E+03  0.25500000000E-02 0. -1.
    8880022    1    1    2    0    0  0.29629795357E+02  0.27260801480E+02 -0.17808186920E+03  0.23817195725E+03  0.15294330000E+03 0.  0.
    8880022    1    1    2    0    0 -0.29629795357E+02 -0.27260801480E+02  0.29895198947E+03  0.33820854674E+03  0.15294330000E+03 0.  0.
<mgrwt>
<rscale>  0 0.15815413E+03</rscale>
<asrwt>0</asrwt>
<pdfrwt beam="1">  1        2 0.35039260E-01 0.15815413E+03</pdfrwt>
<pdfrwt beam="2">  1       -2 0.53634663E-01 0.15815413E+03</pdfrwt>
<totfact> 0.49286381E+02</totfact>
</mgrwt>
</event>
<event>
 4    1  0.4840632E-008  0.6685724E+03  0.7818608E-02  0.9772540E-01
          2   -1    0    0  501    0  0.00000000000E+00  0.00000000000E+00  0.42081894898E+04  0.42081894898E+04  0.25500000000E-02 0. -1.
         -2   -1    0    0    0  501 -0.00000000000E+00 -0.00000000000E+00 -0.56473848973E+03  0.56473848974E+03  0.25500000000E-02 0.  1.
    8880022    1    1    2    0    0 -0.58800815559E+03 -0.27900492758E+03 -0.32862952863E+03  0.74497406717E+03  0.15294330000E+03 0.  0.
    8880022    1    1    2    0    0  0.58800815559E+03  0.27900492758E+03  0.39720805287E+04  0.40279539123E+04  0.15294330000E+03 0. -1.
<mgrwt>
<rscale>  0 0.66857235E+03</rscale>
<asrwt>0</asrwt>
<pdfrwt beam="1">  1        2 0.64741376E+00 0.66857235E+03</pdfrwt>
<pdfrwt beam="2">  1       -2 0.86882845E-01 0.66857235E+03</pdfrwt>
<totfact> 0.30248710E-01</totfact>
</mgrwt>
</event>
<event>
 4    1  0.4840632E-008  0.1146676E+04  0.7818608E-02  0.9160856E-01
         -2   -1    0    0    0  501 -0.00000000000E+00  0.00000000000E+00  0.56191532301E+03  0.56191532301E+03  0.25500000000E-02 0.  1.
          2   -1    0    0  501    0  0.00000000000E+00 -0.00000000000E+00 -0.35512226077E+04  0.35512226077E+04  0.25500000000E-02 0. -1.
    8880022    1    1    2    0    0  0.10575334012E+04 -0.41604869861E+03 -0.26957329084E+04  0.29294779366E+04  0.15294330000E+03 0.  0.
    8880022    1    1    2    0    0 -0.10575334012E+04  0.41604869861E+03 -0.29357437629E+03  0.11836599942E+04  0.15294330000E+03 0.  0.
<mgrwt>
<rscale>  0 0.11466757E+04</rscale>
<asrwt>0</asrwt>
<pdfrwt beam="1">  1        2 0.54634193E+00 0.11466757E+04</pdfrwt>
<pdfrwt beam="2">  1       -2 0.86448513E-01 0.11466757E+04</pdfrwt>
<totfact> 0.87740018E-01</totfact>
</mgrwt>
</event>
<event>
 4    1  0.4840632E-008  0.8871324E+03  0.7818608E-02  0.9441811E-01
         -2   -1    0    0    0  501 -0.00000000000E+00  0.00000000000E+00  0.30453268327E+03  0.30453268328E+03  0.25500000000E-02 0.  1.
          2   -1    0    0  501    0  0.00000000000E+00 -0.00000000000E+00 -0.30869263409E+04  0.30869263409E+04  0.25500000000E-02 0. -1.
    8880022    1    1    2    0    0  0.37303147366E+03 -0.79022770274E+03 -0.20754484987E+04  0.22570977884E+04  0.15294330000E+03 0.  0.
    8880022    1    1    2    0    0 -0.37303147366E+03  0.79022770274E+03 -0.70694515888E+03  0.11343612358E+04  0.15294330000E+03 0.  0.
<mgrwt>
<rscale>  0 0.88713243E+03</rscale>
<asrwt>0</asrwt>
<pdfrwt beam="1">  1        2 0.47491172E+00 0.88713243E+03</pdfrwt>
<pdfrwt beam="2">  1       -2 0.46851184E-01 0.88713243E+03</pdfrwt>
<totfact> 0.69075727E+00</totfact>
</mgrwt>
</event>
<event>
 4    1  0.4840632E-008  0.1480419E+04  0.7818608E-02  0.8897580E-01
         -2   -1    0    0    0  501 -0.00000000000E+00  0.00000000000E+00  0.72770945771E+03  0.72770945772E+03  0.25500000000E-02 0.  1.
          2   -1    0    0  501    0  0.00000000000E+00 -0.00000000000E+00 -0.33340437585E+04  0.33340437585E+04  0.25500000000E-02 0. -1.
    8880022    1    1    2    0    0 -0.84522949780E+03 -0.12057509736E+04 -0.67168666363E+03  0.16256699977E+04  0.15294330000E+03 0.  0.
    8880022    1    1    2    0    0  0.84522949780E+03  0.12057509736E+04 -0.19346476371E+04  0.24360832184E+04  0.15294330000E+03 0.  0.
<mgrwt>
<rscale>  0 0.14804188E+04</rscale>
<asrwt>0</asrwt>
<pdfrwt beam="1">  1        2 0.51292980E+00 0.14804188E+04</pdfrwt>
<pdfrwt beam="2">  1       -2 0.11195530E+00 0.14804188E+04</pdfrwt>
<totfact> 0.63846109E-01</totfact>
</mgrwt>
</event>
<event>
 4    1  0.4840632E-008  0.9780252E+03  0.7818608E-02  0.9332980E-01
         -2   -1    0    0    0  501 -0.00000000000E+00  0.00000000000E+00  0.80271354540E+03  0.80271354540E+03  0.25500000000E-02 0.  1.
          2   -1    0    0  501    0  0.00000000000E+00 -0.00000000000E+00 -0.13214796757E+04  0.13214796757E+04  0.25500000000E-02 0. -1.
    8880022    1    1    2    0    0 -0.46362719809E+03 -0.84746177322E+03  0.73554710780E+02  0.98078722686E+03  0.15294330000E+03 0.  1.
    8880022    1    1    2    0    0  0.46362719809E+03  0.84746177322E+03 -0.59232084108E+03  0.11434059942E+04  0.15294330000E+03 0. -1.
<mgrwt>
<rscale>  0 0.97802520E+03</rscale>
<asrwt>0</asrwt>
<pdfrwt beam="1">  1        2 0.20330457E+00 0.97802520E+03</pdfrwt>
<pdfrwt beam="2">  1       -2 0.12349439E+00 0.97802520E+03</pdfrwt>
<totfact> 0.78998750E+00</totfact>
</mgrwt>
</event>
<event>
 4    1  0.4840632E-008  0.2315079E+03  0.7818608E-02  0.1125583E+00
          2   -1    0    0  501    0  0.00000000000E+00  0.00000000000E+00  0.58172450090E+03  0.58172450091E+03  0.25500000000E-02 0. -1.
         -2   -1    0    0    0  501 -0.00000000000E+00 -0.00000000000E+00 -0.51424009010E+03  0.51424009011E+03  0.25500000000E-02 0.  1.
    8880022    1    1    2    0    0 -0.17353966155E+03  0.93934212339E+01  0.53021446957E+03  0.57855275235E+03  0.15294330000E+03 0. -1.
    8880022    1    1    2    0    0  0.17353966155E+03 -0.93934212339E+01 -0.46273005876E+03  0.51741183867E+03  0.15294330000E+03 0.  0.
<mgrwt>
<rscale>  0 0.23150789E+03</rscale>
<asrwt>0</asrwt>
<pdfrwt beam="1">  1        2 0.89496077E-01 0.23150789E+03</pdfrwt>
<pdfrwt beam="2">  1       -2 0.79113860E-01 0.23150789E+03</pdfrwt>
<totfact> 0.77863885E+01</totfact>
</mgrwt>
</event>
<event>
 4    1  0.4840632E-008  0.8654054E+03  0.7818608E-02  0.9469891E-01
         -2   -1    0    0    0  501 -0.00000000000E+00  0.00000000000E+00  0.26541387893E+03  0.26541387894E+03  0.25500000000E-02 0.  1.
          2   -1    0    0  501    0  0.00000000000E+00 -0.00000000000E+00 -0.32236255641E+04  0.32236255641E+04  0.25500000000E-02 0. -1.
    8880022    1    1    2    0    0  0.27488373718E+03  0.80620948513E+03 -0.86313538120E+03  0.12222639413E+04  0.15294330000E+03 0.  0.
    8880022    1    1    2    0    0 -0.27488373718E+03 -0.80620948513E+03 -0.20950763039E+04  0.22667755017E+04  0.15294330000E+03 0.  0.
<mgrwt>
<rscale>  0 0.86540537E+03</rscale>
<asrwt>0</asrwt>
<pdfrwt beam="1">  1        2 0.49594237E+00 0.86540537E+03</pdfrwt>
<pdfrwt beam="2">  1       -2 0.40832907E-01 0.86540537E+03</pdfrwt>
<totfact> 0.74633876E+00</totfact>
</mgrwt>
</event>
<event>
 4    1  0.4840632E-008  0.4293403E+03  0.7818608E-02  0.1034069E+00
         -2   -1    0    0    0  501 -0.00000000000E+00  0.00000000000E+00  0.75983771032E+02  0.75983771075E+02  0.25500000000E-02 0.  1.
          2   -1    0    0  501    0  0.00000000000E+00 -0.00000000000E+00 -0.27247086680E+04  0.27247086680E+04  0.25500000000E-02 0. -1.
    8880022    1    1    2    0    0 -0.13347251089E+03 -0.37832071272E+03 -0.86066702668E+03  0.96181123754E+03  0.15294330000E+03 0.  1.
    8880022    1    1    2    0    0  0.13347251089E+03  0.37832071272E+03 -0.17880578703E+04  0.18388812016E+04  0.15294330000E+03 0.  0.
<mgrwt>
<rscale>  0 0.42934034E+03</rscale>
<asrwt>0</asrwt>
<pdfrwt beam="1">  1        2 0.41918587E+00 0.42934034E+03</pdfrwt>
<pdfrwt beam="2">  1       -2 0.11689813E-01 0.42934034E+03</pdfrwt>
<totfact> 0.14956026E+02</totfact>
</mgrwt>
</event>
<event>
 4    1  0.4840632E-008  0.3491894E+03  0.7818608E-02  0.1062948E+00
          2   -1    0    0  501    0  0.00000000000E+00  0.00000000000E+00  0.46842549470E+03  0.46842549471E+03  0.25500000000E-02 0. -1.
         -2   -1    0    0    0  501 -0.00000000000E+00 -0.00000000000E+00 -0.80101650040E+03  0.80101650040E+03  0.25500000000E-02 0.  1.
    8880022    1    1    2    0    0 -0.22697069058E+03 -0.21685457385E+03  0.35519349192E+03  0.49809202995E+03  0.15294330000E+03 0.  0.
    8880022    1    1    2    0    0  0.22697069058E+03  0.21685457385E+03 -0.68778449762E+03  0.77134996517E+03  0.15294330000E+03 0.  1.
<mgrwt>
<rscale>  0 0.34918942E+03</rscale>
<asrwt>0</asrwt>
<pdfrwt beam="1">  1        2 0.72065461E-01 0.34918942E+03</pdfrwt>
<pdfrwt beam="2">  1       -2 0.12323331E+00 0.34918942E+03</pdfrwt>
<totfact> 0.34824578E+01</totfact>
</mgrwt>
</event>
<event>
 4    1  0.4840632E-008  0.2877914E+03  0.7818608E-02  0.1091508E+00
          2   -1    0    0  501    0  0.00000000000E+00  0.00000000000E+00  0.88348802946E+03  0.88348802946E+03  0.25500000000E-02 0. -1.
         -2   -1    0    0    0  501 -0.00000000000E+00 -0.00000000000E+00 -0.20400629856E+03  0.20400629858E+03  0.25500000000E-02 0.  1.
    8880022    1    1    2    0    0  0.24114398927E+03 -0.35802729600E+02  0.73948657469E+03  0.79351389790E+03  0.15294330000E+03 0. -1.
    8880022    1    1    2    0    0 -0.24114398927E+03  0.35802729600E+02 -0.60004843787E+02  0.29398043014E+03  0.15294330000E+03 0.  0.
<mgrwt>
<rscale>  0 0.28779144E+03</rscale>
<asrwt>0</asrwt>
<pdfrwt beam="1">  1        2 0.13592123E+00 0.28779144E+03</pdfrwt>
<pdfrwt beam="2">  1       -2 0.31385586E-01 0.28779144E+03</pdfrwt>
<totfact> 0.29497383E+02</totfact>
</mgrwt>
</event>
<event>
 4    1  0.4840632E-008  0.3484784E+03  0.7818608E-02  0.1063241E+00
          2   -1    0    0  501    0  0.00000000000E+00  0.00000000000E+00  0.20396514267E+03  0.20396514269E+03  0.25500000000E-02 0. -1.
         -2   -1    0    0    0  501 -0.00000000000E+00 -0.00000000000E+00 -0.16871120372E+04  0.16871120372E+04  0.25500000000E-02 0.  1.
    8880022    1    1    2    0    0  0.30330271226E+03  0.77800892787E+02 -0.15021885301E+04  0.15420789692E+04  0.15294330000E+03 0.  0.
    8880022    1    1    2    0    0 -0.30330271226E+03 -0.77800892787E+02  0.19041635571E+02  0.34899821072E+03  0.15294330000E+03 0.  0.
<mgrwt>
<rscale>  0 0.34847836E+03</rscale>
<asrwt>0</asrwt>
<pdfrwt beam="1">  1        2 0.31379254E-01 0.34847836E+03</pdfrwt>
<pdfrwt beam="2">  1       -2 0.25955569E+00 0.34847836E+03</pdfrwt>
<totfact> 0.10371633E+01</totfact>
</mgrwt>
</event>
<event>
 4    1  0.4840632E-008  0.6005179E+03  0.7818608E-02  0.9904332E-01
          2   -1    0    0  501    0  0.00000000000E+00  0.00000000000E+00  0.39789762834E+04  0.39789762834E+04  0.25500000000E-02 0. -1.
         -2   -1    0    0    0  501 -0.00000000000E+00 -0.00000000000E+00 -0.12789208053E+03  0.12789208055E+03  0.25500000000E-02 0.  1.
    8880022    1    1    2    0    0 -0.20539942900E+03  0.54317693123E+03  0.30339052014E+04  0.30927661613E+04  0.15294330000E+03 0.  0.
    8880022    1    1    2    0    0  0.20539942900E+03 -0.54317693123E+03  0.81717900144E+03  0.10141022027E+04  0.15294330000E+03 0.  1.
<mgrwt>
<rscale>  0 0.60051791E+03</rscale>
<asrwt>0</asrwt>
<pdfrwt beam="1">  1        2 0.61215008E+00 0.60051791E+03</pdfrwt>
<pdfrwt beam="2">  1       -2 0.19675709E-01 0.60051791E+03</pdfrwt>
<totfact> 0.89029138E+00</totfact>
</mgrwt>
</event>
<event>
 4    1  0.4884237E-008  0.5592701E+03  0.7818608E-02  0.9993708E-01
         -2   -1    0    0    0  501 -0.00000000000E+00  0.00000000000E+00  0.88911999516E+03  0.88911999516E+03  0.25500000000E-02 0.  1.
          2   -1    0    0  501    0  0.00000000000E+00 -0.00000000000E+00 -0.16335186323E+04  0.16335186323E+04  0.25500000000E-02 0. -1.
    8880022    1    1    2    0    0 -0.53491100328E+03 -0.57110366944E+02  0.74507839736E+03  0.93162484224E+03  0.15294330000E+03 0.  0.
    8880022    1    1    2    0    0  0.53491100328E+03  0.57110366944E+02 -0.14894770345E+04  0.15910137852E+04  0.15294330000E+03 0.  0.
<mgrwt>
<rscale>  0 0.55927009E+03</rscale>
<asrwt>0</asrwt>
<pdfrwt beam="1">  1        2 0.25131056E+00 0.55927009E+03</pdfrwt>
<pdfrwt beam="2">  1       -2 0.13678769E+00 0.55927009E+03</pdfrwt>
<totfact> 0.43400412E+00</totfact>
</mgrwt>
</event>
<event>
 4    1  0.4840632E-008  0.4978680E+03  0.7818608E-02  0.1014337E+00
          2   -1    0    0  501    0  0.00000000000E+00  0.00000000000E+00  0.98095345199E+03  0.98095345199E+03  0.25500000000E-02 0. -1.
         -2   -1    0    0    0  501 -0.00000000000E+00 -0.00000000000E+00 -0.38914405643E+03  0.38914405644E+03  0.25500000000E-02 0.  1.
    8880022    1    1    2    0    0 -0.38740341748E+03  0.27276267559E+03  0.70156914827E+03  0.86027426318E+03  0.15294330000E+03 0.  0.
    8880022    1    1    2    0    0  0.38740341748E+03 -0.27276267559E+03 -0.10975975271E+03  0.50982324525E+03  0.15294330000E+03 0.  0.
<mgrwt>
<rscale>  0 0.49786799E+03</rscale>
<asrwt>0</asrwt>
<pdfrwt beam="1">  1        2 0.15091591E+00 0.49786799E+03</pdfrwt>
<pdfrwt beam="2">  1       -2 0.59868317E-01 0.49786799E+03</pdfrwt>
<totfact> 0.70111284E+01</totfact>
</mgrwt>
</event>
<event>
 4    1  0.4840632E-008  0.6648801E+03  0.7818608E-02  0.9779252E-01
         -2   -1    0    0    0  501 -0.00000000000E+00  0.00000000000E+00  0.43235447387E+03  0.43235447387E+03  0.25500000000E-02 0.  1.
          2   -1    0    0  501    0  0.00000000000E+00 -0.00000000000E+00 -0.39037248218E+04  0.39037248218E+04  0.25500000000E-02 0. -1.
    8880022    1    1    2    0    0  0.46242799197E+03  0.45258612514E+03 -0.35982832503E+04  0.36591949730E+04  0.15294330000E+03 0.  0.
    8880022    1    1    2    0    0 -0.46242799197E+03 -0.45258612514E+03  0.12691290235E+03  0.67688432263E+03  0.15294330000E+03 0.  0.
<mgrwt>
<rscale>  0 0.66488007E+03</rscale>
<asrwt>0</asrwt>
<pdfrwt beam="1">  1        2 0.60057302E+00 0.66488007E+03</pdfrwt>
<pdfrwt beam="2">  1       -2 0.66516076E-01 0.66488007E+03</pdfrwt>
<totfact> 0.96115418E-01</totfact>
</mgrwt>
</event>
<event>
 4    1  0.4840632E-008  0.3453816E+03  0.7818608E-02  0.1064527E+00
         -2   -1    0    0    0  501 -0.00000000000E+00  0.00000000000E+00  0.66710554488E+03  0.66710554488E+03  0.25500000000E-02 0.  1.
          2   -1    0    0  501    0  0.00000000000E+00 -0.00000000000E+00 -0.17064786232E+04  0.17064786232E+04  0.25500000000E-02 0. -1.
    8880022    1    1    2    0    0 -0.19643438816E+03  0.23939581133E+03  0.60320570909E+03  0.69508675992E+03  0.15294330000E+03 0.  0.
    8880022    1    1    2    0    0  0.19643438816E+03 -0.23939581133E+03 -0.16425787874E+04  0.16784974082E+04  0.15294330000E+03 0. -1.
<mgrwt>
<rscale>  0 0.34538164E+03</rscale>
<asrwt>0</asrwt>
<pdfrwt beam="1">  1        2 0.26253517E+00 0.34538164E+03</pdfrwt>
<pdfrwt beam="2">  1       -2 0.10263162E+00 0.34538164E+03</pdfrwt>
<totfact> 0.84782170E+00</totfact>
</mgrwt>
</event>
<event>
 4    1  0.4840632E-008  0.8051764E+03  0.7818608E-02  0.9552555E-01
         -2   -1    0    0    0  501 -0.00000000000E+00  0.00000000000E+00  0.92142195841E+03  0.92142195841E+03  0.25500000000E-02 0.  1.
          2   -1    0    0  501    0  0.00000000000E+00 -0.00000000000E+00 -0.97358883861E+03  0.97358883861E+03  0.25500000000E-02 0. -1.
    8880022    1    1    2    0    0  0.68643055941E+03 -0.39208482025E+03 -0.52504810169E+03  0.96124116707E+03  0.15294330000E+03 0.  0.
    8880022    1    1    2    0    0 -0.68643055941E+03  0.39208482025E+03  0.47288122149E+03  0.93376962995E+03  0.15294330000E+03 0.  0.
<mgrwt>
<rscale>  0 0.80517642E+03</rscale>
<asrwt>0</asrwt>
<pdfrwt beam="1">  1        2 0.14978290E+00 0.80517642E+03</pdfrwt>
<pdfrwt beam="2">  1       -2 0.14175722E+00 0.80517642E+03</pdfrwt>
<totfact> 0.92101033E+00</totfact>
</mgrwt>
</event>
<event>
 4    1  0.4840632E-008  0.2778902E+03  0.7818608E-02  0.1096847E+00
         -2   -1    0    0    0  501 -0.00000000000E+00  0.00000000000E+00  0.35494251833E+03  0.35494251834E+03  0.25500000000E-02 0.  1.
          2   -1    0    0  501    0  0.00000000000E+00 -0.00000000000E+00 -0.18752434564E+04  0.18752434565E+04  0.25500000000E-02 0. -1.
    8880022    1    1    2    0    0 -0.23201481393E+03  0.67508439680E+00 -0.18085635569E+04  0.18297882725E+04  0.15294330000E+03 0.  0.
    8880022    1    1    2    0    0  0.23201481393E+03 -0.67508439680E+00  0.28826261879E+03  0.40039770233E+03  0.15294330000E+03 0.  0.
<mgrwt>
<rscale>  0 0.27789023E+03</rscale>
<asrwt>0</asrwt>
<pdfrwt beam="1">  1        2 0.28849899E+00 0.27789023E+03</pdfrwt>
<pdfrwt beam="2">  1       -2 0.54606542E-01 0.27789023E+03</pdfrwt>
<totfact> 0.28125000E+01</totfact>
</mgrwt>
</event>
<event>
 4    1  0.4840632E-008  0.4818326E+03  0.7818608E-02  0.1018633E+00
          2   -1    0    0  501    0  0.00000000000E+00  0.00000000000E+00  0.14661942323E+04  0.14661942323E+04  0.25500000000E-02 0. -1.
         -2   -1    0    0    0  501 -0.00000000000E+00 -0.00000000000E+00 -0.29257442510E+03  0.29257442511E+03  0.25500000000E-02 0.  1.
    8880022    1    1    2    0    0 -0.24214721147E+03  0.38747350897E+03  0.11824535062E+04  0.12768550973E+04  0.15294330000E+03 0. -1.
    8880022    1    1    2    0    0  0.24214721147E+03 -0.38747350897E+03 -0.88336989924E+01  0.48191356012E+03  0.15294330000E+03 0.  0.
<mgrwt>
<rscale>  0 0.48183259E+03</rscale>
<asrwt>0</asrwt>
<pdfrwt beam="1">  1        2 0.22556834E+00 0.48183259E+03</pdfrwt>
<pdfrwt beam="2">  1       -2 0.45011450E-01 0.48183259E+03</pdfrwt>
<totfact> 0.65465357E+01</totfact>
</mgrwt>
</event>
<event>
 4    1  0.4840632E-008  0.3857478E+03  0.7818608E-02  0.1048830E+00
         -2   -1    0    0    0  501 -0.00000000000E+00  0.00000000000E+00  0.21569111902E+04  0.21569111902E+04  0.25500000000E-02 0.  1.
          2   -1    0    0  501    0  0.00000000000E+00 -0.00000000000E+00 -0.12860182395E+03  0.12860182398E+03  0.25500000000E-02 0. -1.
    8880022    1    1    2    0    0  0.27067398697E+03 -0.22835340739E+03  0.17921966778E+04  0.18332403746E+04  0.15294330000E+03 0.  0.
    8880022    1    1    2    0    0 -0.27067398697E+03  0.22835340739E+03  0.23611268840E+03  0.45227263960E+03  0.15294330000E+03 0. -1.
<mgrwt>
<rscale>  0 0.38574777E+03</rscale>
<asrwt>0</asrwt>
<pdfrwt beam="1">  1        2 0.19784897E-01 0.38574777E+03</pdfrwt>
<pdfrwt beam="2">  1       -2 0.33183247E+00 0.38574777E+03</pdfrwt>
<totfact> 0.64768688E+00</totfact>
</mgrwt>
</event>
<event>
 4    1  0.4840632E-008  0.1889315E+03  0.7818608E-02  0.1159429E+00
         -2   -1    0    0    0  501 -0.00000000000E+00  0.00000000000E+00  0.35510223697E+02  0.35510223789E+02  0.25500000000E-02 0.  1.
          2   -1    0    0  501    0  0.00000000000E+00 -0.00000000000E+00 -0.15864072225E+04  0.15864072225E+04  0.25500000000E-02 0. -1.
    8880022    1    1    2    0    0 -0.77742329177E+02  0.79117532386E+02 -0.12663049403E+04  0.12803215645E+04  0.15294330000E+03 0. -1.
    8880022    1    1    2    0    0  0.77742329177E+02 -0.79117532386E+02 -0.28459205847E+03  0.34159588176E+03  0.15294330000E+03 0.  0.
<mgrwt>
<rscale>  0 0.18893149E+03</rscale>
<asrwt>0</asrwt>
<pdfrwt beam="1">  1        2 0.24406260E+00 0.18893149E+03</pdfrwt>
<pdfrwt beam="2">  1       -2 0.54631126E-02 0.18893149E+03</pdfrwt>
<totfact> 0.21019568E+03</totfact>
</mgrwt>
</event>
<event>
 4    1  0.4840632E-008  0.5007598E+03  0.7818608E-02  0.1013581E+00
         -2   -1    0    0    0  501 -0.00000000000E+00  0.00000000000E+00  0.75021403129E+03  0.75021403129E+03  0.25500000000E-02 0.  1.
          2   -1    0    0  501    0  0.00000000000E+00 -0.00000000000E+00 -0.83654582194E+03  0.83654582194E+03  0.25500000000E-02 0. -1.
    8880022    1    1    2    0    0  0.33565870019E+03 -0.33867674912E+03  0.57160792505E+03  0.75993156034E+03  0.15294330000E+03 0.  0.
    8880022    1    1    2    0    0 -0.33565870019E+03  0.33867674912E+03 -0.65793971570E+03  0.82682829289E+03  0.15294330000E+03 0.  0.
<mgrwt>
<rscale>  0 0.50075978E+03</rscale>
<asrwt>0</asrwt>
<pdfrwt beam="1">  1        2 0.12869936E+00 0.50075978E+03</pdfrwt>
<pdfrwt beam="2">  1       -2 0.11541754E+00 0.50075978E+03</pdfrwt>
<totfact> 0.19830188E+01</totfact>
</mgrwt>
</event>
<event>
 4    1  0.4840632E-008  0.6448558E+03  0.7818608E-02  0.9816480E-01
          2   -1    0    0  501    0  0.00000000000E+00  0.00000000000E+00  0.80922536408E+03  0.80922536409E+03  0.25500000000E-02 0. -1.
         -2   -1    0    0    0  501 -0.00000000000E+00 -0.00000000000E+00 -0.11594392719E+04  0.11594392719E+04  0.25500000000E-02 0.  1.
    8880022    1    1    2    0    0  0.62642934537E+03  0.58037158691E+01  0.55938688823E+03  0.85367016558E+03  0.15294330000E+03 0.  0.
    8880022    1    1    2    0    0 -0.62642934537E+03 -0.58037158691E+01 -0.90960079605E+03  0.11149944704E+04  0.15294330000E+03 0.  0.
<mgrwt>
<rscale>  0 0.64485585E+03</rscale>
<asrwt>0</asrwt>
<pdfrwt beam="1">  1        2 0.12449621E+00 0.64485585E+03</pdfrwt>
<pdfrwt beam="2">  1       -2 0.17837527E+00 0.64485585E+03</pdfrwt>
<totfact> 0.65247161E+00</totfact>
</mgrwt>
</event>
<event>
 4    1  0.4840632E-008  0.4912903E+03  0.7818608E-02  0.1016078E+00
         -2   -1    0    0    0  501 -0.00000000000E+00  0.00000000000E+00  0.41590920398E+03  0.41590920399E+03  0.25500000000E-02 0.  1.
          2   -1    0    0  501    0  0.00000000000E+00 -0.00000000000E+00 -0.22056809937E+04  0.22056809937E+04  0.25500000000E-02 0. -1.
    8880022    1    1    2    0    0  0.45959741494E+03 -0.82126214102E+02 -0.20201035472E+04  0.20789864100E+04  0.15294330000E+03 0.  0.
    8880022    1    1    2    0    0 -0.45959741494E+03  0.82126214102E+02  0.23033175745E+03  0.54260378764E+03  0.15294330000E+03 0.  0.
<mgrwt>
<rscale>  0 0.49129029E+03</rscale>
<asrwt>0</asrwt>
<pdfrwt beam="1">  1        2 0.33933553E+00 0.49129029E+03</pdfrwt>
<pdfrwt beam="2">  1       -2 0.63986032E-01 0.49129029E+03</pdfrwt>
<totfact> 0.12650748E+01</totfact>
</mgrwt>
</event>
<event>
 4    1  0.4840632E-008  0.4046736E+03  0.7818608E-02  0.1042173E+00
         -2   -1    0    0    0  501 -0.00000000000E+00  0.00000000000E+00  0.19942490799E+04  0.19942490799E+04  0.25500000000E-02 0.  1.
          2   -1    0    0  501    0  0.00000000000E+00 -0.00000000000E+00 -0.54365912235E+03  0.54365912235E+03  0.25500000000E-02 0. -1.
    8880022    1    1    2    0    0  0.35802823396E+03  0.11038502133E+03 -0.44390416348E+03  0.60067597640E+03  0.15294330000E+03 0. -1.
    8880022    1    1    2    0    0 -0.35802823396E+03 -0.11038502133E+03  0.18944941210E+04  0.19372322258E+04  0.15294330000E+03 0.  1.
<mgrwt>
<rscale>  0 0.40467360E+03</rscale>
<asrwt>0</asrwt>
<pdfrwt beam="1">  1        2 0.83639866E-01 0.40467360E+03</pdfrwt>
<pdfrwt beam="2">  1       -2 0.30680755E+00 0.40467360E+03</pdfrwt>
<totfact> 0.18159702E+00</totfact>
</mgrwt>
</event>
<event>
 4    1  0.4840632E-008  0.7134154E+03  0.7818608E-02  0.9694561E-01
          2   -1    0    0  501    0  0.00000000000E+00  0.00000000000E+00  0.27524856954E+04  0.27524856954E+04  0.25500000000E-02 0. -1.
         -2   -1    0    0    0  501 -0.00000000000E+00 -0.00000000000E+00 -0.25969542887E+03  0.25969542888E+03  0.25500000000E-02 0.  1.
    8880022    1    1    2    0    0 -0.29613687009E+03  0.63077160105E+03  0.20546123192E+04  0.21749467335E+04  0.15294330000E+03 0.  0.
    8880022    1    1    2    0    0  0.29613687009E+03 -0.63077160105E+03  0.43817794736E+03  0.83723439077E+03  0.15294330000E+03 0.  0.
<mgrwt>
<rscale>  0 0.71341538E+03</rscale>
<asrwt>0</asrwt>
<pdfrwt beam="1">  1        2 0.42345936E+00 0.71341538E+03</pdfrwt>
<pdfrwt beam="2">  1       -2 0.39953141E-01 0.71341538E+03</pdfrwt>
<totfact> 0.15524453E+01</totfact>
</mgrwt>
</event>
<event>
 4    1  0.4840632E-008  0.7304178E+03  0.7818608E-02  0.9666583E-01
         -2   -1    0    0    0  501 -0.00000000000E+00  0.00000000000E+00  0.95045591103E+03  0.95045591103E+03  0.25500000000E-02 0.  1.
          2   -1    0    0  501    0  0.00000000000E+00 -0.00000000000E+00 -0.37441300048E+04  0.37441300048E+04  0.25500000000E-02 0. -1.
    8880022    1    1    2    0    0  0.34479780784E+03  0.62548618915E+03  0.76736187186E+03  0.10594122883E+04  0.15294330000E+03 0.  0.
    8880022    1    1    2    0    0 -0.34479780784E+03 -0.62548618915E+03 -0.35610359656E+04  0.36351736276E+04  0.15294330000E+03 0.  0.
<mgrwt>
<rscale>  0 0.73041779E+03</rscale>
<asrwt>0</asrwt>
<pdfrwt beam="1">  1        2 0.57601999E+00 0.73041779E+03</pdfrwt>
<pdfrwt beam="2">  1       -2 0.14622399E+00 0.73041779E+03</pdfrwt>
<totfact> 0.19228152E-01</totfact>
</mgrwt>
</event>
<event>
 4    1  0.4840632E-008  0.2674875E+03  0.7818608E-02  0.1102726E+00
          2   -1    0    0  501    0  0.00000000000E+00  0.00000000000E+00  0.49007492198E+03  0.49007492198E+03  0.25500000000E-02 0. -1.
         -2   -1    0    0    0  501 -0.00000000000E+00 -0.00000000000E+00 -0.32995578400E+03  0.32995578401E+03  0.25500000000E-02 0.  1.
    8880022    1    1    2    0    0 -0.21748425247E+03  0.29300099553E+02 -0.22608905891E+03  0.35023679344E+03  0.15294330000E+03 0.  0.
    8880022    1    1    2    0    0  0.21748425247E+03 -0.29300099553E+02  0.38620819689E+03  0.46979391255E+03  0.15294330000E+03 0.  0.
<mgrwt>
<rscale>  0 0.26748747E+03</rscale>
<asrwt>0</asrwt>
<pdfrwt beam="1">  1        2 0.75396142E-01 0.26748747E+03</pdfrwt>
<pdfrwt beam="2">  1       -2 0.50762428E-01 0.26748747E+03</pdfrwt>
<totfact> 0.23932810E+02</totfact>
</mgrwt>
</event>
<event>
 4    1  0.5363241E-008  0.5851961E+03  0.7818608E-02  0.9936604E-01
         -2   -1    0    0    0  501 -0.00000000000E+00  0.00000000000E+00  0.14506147025E+04  0.14506147025E+04  0.25500000000E-02 0.  1.
          2   -1    0    0  501    0  0.00000000000E+00 -0.00000000000E+00 -0.16229815181E+04  0.16229815181E+04  0.25500000000E-02 0. -1.
    8880022    1    1    2    0    0  0.39983961213E+03 -0.39898762031E+03  0.13344550199E+04  0.14571289201E+04  0.15294330000E+03 0.  1.
    8880022    1    1    2    0    0 -0.39983961213E+03  0.39898762031E+03 -0.15068218355E+04  0.16164673005E+04  0.15294330000E+03 0.  0.
<mgrwt>
<rscale>  0 0.58519611E+03</rscale>
<asrwt>0</asrwt>
<pdfrwt beam="1">  1        2 0.24968947E+00 0.58519611E+03</pdfrwt>
<pdfrwt beam="2">  1       -2 0.22317149E+00 0.58519611E+03</pdfrwt>
<totfact> 0.11014929E+00</totfact>
</mgrwt>
</event>
<event>
 4    1  0.4840632E-008  0.6785952E+03  0.7818608E-02  0.9754554E-01
          2   -1    0    0  501    0  0.00000000000E+00  0.00000000000E+00  0.94816940384E+03  0.94816940384E+03  0.25500000000E-02 0. -1.
         -2   -1    0    0    0  501 -0.00000000000E+00 -0.00000000000E+00 -0.12147662262E+04  0.12147662263E+04  0.25500000000E-02 0.  1.
    8880022    1    1    2    0    0 -0.44869481284E+03  0.48556433516E+03  0.70454249781E+03  0.97819811024E+03  0.15294330000E+03 0.  0.
    8880022    1    1    2    0    0  0.44869481284E+03 -0.48556433516E+03 -0.97113932022E+03  0.11847375198E+04  0.15294330000E+03 0.  0.
<mgrwt>
<rscale>  0 0.67859518E+03</rscale>
<asrwt>0</asrwt>
<pdfrwt beam="1">  1        2 0.14587222E+00 0.67859518E+03</pdfrwt>
<pdfrwt beam="2">  1       -2 0.18688711E+00 0.67859518E+03</pdfrwt>
<totfact> 0.45721727E+00</totfact>
</mgrwt>
</event>
<event>
 4    1  0.4840632E-008  0.7634877E+03  0.7818608E-02  0.9614425E-01
          2   -1    0    0  501    0  0.00000000000E+00  0.00000000000E+00  0.14384986165E+04  0.14384986165E+04  0.25500000000E-02 0. -1.
         -2   -1    0    0    0  501 -0.00000000000E+00 -0.00000000000E+00 -0.75180185106E+03  0.75180185106E+03  0.25500000000E-02 0.  1.
    8880022    1    1    2    0    0  0.71528364643E+03  0.21884041682E+03  0.10869198331E+04  0.13282726375E+04  0.15294330000E+03 0.  0.
    8880022    1    1    2    0    0 -0.71528364643E+03 -0.21884041682E+03 -0.40022306767E+03  0.86202783006E+03  0.15294330000E+03 0.  0.
<mgrwt>
<rscale>  0 0.76348771E+03</rscale>
<asrwt>0</asrwt>
<pdfrwt beam="1">  1        2 0.22130748E+00 0.76348771E+03</pdfrwt>
<pdfrwt beam="2">  1       -2 0.11566182E+00 0.76348771E+03</pdfrwt>
<totfact> 0.81733844E+00</totfact>
</mgrwt>
</event>
<event>
 4    1  0.4840632E-008  0.1330503E+04  0.7818608E-02  0.9005719E-01
         -2   -1    0    0    0  501 -0.00000000000E+00  0.00000000000E+00  0.72390964271E+03  0.72390964272E+03  0.25500000000E-02 0.  1.
          2   -1    0    0  501    0  0.00000000000E+00 -0.00000000000E+00 -0.36157018629E+04  0.36157018629E+04  0.25500000000E-02 0. -1.
    8880022    1    1    2    0    0 -0.35551583842E+03 -0.12729713317E+04 -0.26803529883E+04  0.29924122907E+04  0.15294330000E+03 0.  0.
    8880022    1    1    2    0    0  0.35551583842E+03  0.12729713317E+04 -0.21143923180E+03  0.13471992148E+04  0.15294330000E+03 0.  0.
<mgrwt>
<rscale>  0 0.13305034E+04</rscale>
<asrwt>0</asrwt>
<pdfrwt beam="1">  1        2 0.55626181E+00 0.13305034E+04</pdfrwt>
<pdfrwt beam="2">  1       -2 0.11137072E+00 0.13305034E+04</pdfrwt>
<totfact> 0.42144421E-01</totfact>
</mgrwt>
</event>
<event>
 4    1  0.4840632E-008  0.4963847E+03  0.7818608E-02  0.1014727E+00
         -2   -1    0    0    0  501 -0.00000000000E+00  0.00000000000E+00  0.20988285659E+03  0.20988285661E+03  0.25500000000E-02 0.  1.
          2   -1    0    0  501    0  0.00000000000E+00 -0.00000000000E+00 -0.19976883116E+04  0.19976883116E+04  0.25500000000E-02 0. -1.
    8880022    1    1    2    0    0 -0.33006204988E+03 -0.33773538436E+03 -0.16026773769E+04  0.16777880004E+04  0.15294330000E+03 0.  0.
    8880022    1    1    2    0    0  0.33006204988E+03  0.33773538436E+03 -0.18512807807E+03  0.52978316784E+03  0.15294330000E+03 0.  0.
<mgrwt>
<rscale>  0 0.49638473E+03</rscale>
<asrwt>0</asrwt>
<pdfrwt beam="1">  1        2 0.30733665E+00 0.49638473E+03</pdfrwt>
<pdfrwt beam="2">  1       -2 0.32289672E-01 0.49638473E+03</pdfrwt>
<totfact> 0.63800065E+01</totfact>
</mgrwt>
</event>
<event>
 4    1  0.4840632E-008  0.1842612E+03  0.7818608E-02  0.1163742E+00
         -2   -1    0    0    0  501 -0.00000000000E+00  0.00000000000E+00  0.12138219650E+03  0.12138219653E+03  0.25500000000E-02 0.  1.
          2   -1    0    0  501    0  0.00000000000E+00 -0.00000000000E+00 -0.17784774888E+04  0.17784774888E+04  0.25500000000E-02 0. -1.
    8880022    1    1    2    0    0 -0.50360889128E+02  0.89578646723E+02 -0.17005828335E+04  0.17105362258E+04  0.15294330000E+03 0. -1.
    8880022    1    1    2    0    0  0.50360889128E+02 -0.89578646723E+02  0.43487541154E+02  0.18932345959E+03  0.15294330000E+03 0.  0.
<mgrwt>
<rscale>  0 0.18426124E+03</rscale>
<asrwt>0</asrwt>
<pdfrwt beam="1">  1        2 0.27361190E+00 0.18426124E+03</pdfrwt>
<pdfrwt beam="2">  1       -2 0.18674185E-01 0.18426124E+03</pdfrwt>
<totfact> 0.23645954E+02</totfact>
</mgrwt>
</event>
<event>
 4    1  0.6887792E-008  0.8777217E+03  0.7818608E-02  0.9453867E-01
         -2   -1    0    0    0  501 -0.00000000000E+00  0.00000000000E+00  0.70945451220E+03  0.70945451220E+03  0.25500000000E-02 0.  1.
          2   -1    0    0  501    0  0.00000000000E+00 -0.00000000000E+00 -0.27942414834E+04  0.27942414834E+04  0.25500000000E-02 0. -1.
    8880022    1    1    2    0    0 -0.85181042731E+03 -0.14636510974E+03  0.32739029983E+03  0.93679229868E+03  0.15294330000E+03 0.  0.
    8880022    1    1    2    0    0  0.85181042731E+03  0.14636510974E+03 -0.24121772711E+04  0.25669036970E+04  0.15294330000E+03 0.  0.
<mgrwt>
<rscale>  0 0.87772171E+03</rscale>
<asrwt>0</asrwt>
<pdfrwt beam="1">  1        2 0.42988330E+00 0.87772171E+03</pdfrwt>
<pdfrwt beam="2">  1       -2 0.10914685E+00 0.87772171E+03</pdfrwt>
<totfact> 0.16147672E+00</totfact>
</mgrwt>
</event>
<event>
 4    1  0.4840632E-008  0.1103151E+04  0.7818608E-02  0.9202126E-01
         -2   -1    0    0    0  501 -0.00000000000E+00  0.00000000000E+00  0.53298776162E+03  0.53298776162E+03  0.25500000000E-02 0.  1.
          2   -1    0    0  501    0  0.00000000000E+00 -0.00000000000E+00 -0.28290021655E+04  0.28290021655E+04  0.25500000000E-02 0. -1.
    8880022    1    1    2    0    0 -0.66984302961E+03  0.86305373232E+03 -0.18863336404E+04  0.21852225711E+04  0.15294330000E+03 0.  0.
    8880022    1    1    2    0    0  0.66984302961E+03 -0.86305373232E+03 -0.40968076340E+03  0.11767673560E+04  0.15294330000E+03 0.  0.
<mgrwt>
<rscale>  0 0.11031514E+04</rscale>
<asrwt>0</asrwt>
<pdfrwt beam="1">  1        2 0.43523109E+00 0.11031514E+04</pdfrwt>
<pdfrwt beam="2">  1       -2 0.81998119E-01 0.11031514E+04</pdfrwt>
<totfact> 0.29106655E+00</totfact>
</mgrwt>
</event>
<event>
 4    1  0.4840632E-008  0.5861262E+03  0.7818608E-02  0.9934615E-01
         -2   -1    0    0    0  501 -0.00000000000E+00  0.00000000000E+00  0.58849650093E+03  0.58849650093E+03  0.25500000000E-02 0.  1.
          2   -1    0    0  501    0  0.00000000000E+00 -0.00000000000E+00 -0.17274048129E+04  0.17274048129E+04  0.25500000000E-02 0. -1.
    8880022    1    1    2    0    0  0.40240108835E+03  0.39777592760E+03 -0.15116420532E+04  0.16212975280E+04  0.15294330000E+03 0.  0.
    8880022    1    1    2    0    0 -0.40240108835E+03 -0.39777592760E+03  0.37273374116E+03  0.69460378584E+03  0.15294330000E+03 0.  0.
<mgrwt>
<rscale>  0 0.58612625E+03</rscale>
<asrwt>0</asrwt>
<pdfrwt beam="1">  1        2 0.26575459E+00 0.58612625E+03</pdfrwt>
<pdfrwt beam="2">  1       -2 0.90537924E-01 0.58612625E+03</pdfrwt>
<totfact> 0.10430665E+01</totfact>
</mgrwt>
</event>
<event>
 4    1  0.4840632E-008  0.1417545E+04  0.7818608E-02  0.8941215E-01
         -2   -1    0    0    0  501 -0.00000000000E+00  0.00000000000E+00  0.92752830557E+03  0.92752830557E+03  0.25500000000E-02 0.  1.
          2   -1    0    0  501    0  0.00000000000E+00 -0.00000000000E+00 -0.27299021124E+04  0.27299021124E+04  0.25500000000E-02 0. -1.
    8880022    1    1    2    0    0  0.11529969596E+03 -0.14045457886E+04 -0.17320028966E+04  0.22381395352E+04  0.15294330000E+03 0.  0.
    8880022    1    1    2    0    0 -0.11529969596E+03  0.14045457886E+04 -0.70370910275E+02  0.14192908828E+04  0.15294330000E+03 0.  0.
<mgrwt>
<rscale>  0 0.14175453E+04</rscale>
<asrwt>0</asrwt>
<pdfrwt beam="1">  1        2 0.41998494E+00 0.14175453E+04</pdfrwt>
<pdfrwt beam="2">  1       -2 0.14269666E+00 0.14175453E+04</pdfrwt>
<totfact> 0.83217775E-01</totfact>
</mgrwt>
</event>
<event>
 4    1  0.4840632E-008  0.2815067E+03  0.7818608E-02  0.1094869E+00
         -2   -1    0    0    0  501 -0.00000000000E+00  0.00000000000E+00  0.95686505775E+02  0.95686505809E+02  0.25500000000E-02 0.  1.
          2   -1    0    0  501    0  0.00000000000E+00 -0.00000000000E+00 -0.87488354213E+03  0.87488354214E+03  0.25500000000E-02 0. -1.
    8880022    1    1    2    0    0  0.59849028493E+02  0.22863176850E+03 -0.27747995863E+03  0.39527354103E+03  0.15294330000E+03 0.  1.
    8880022    1    1    2    0    0 -0.59849028493E+02 -0.22863176850E+03 -0.50171707772E+03  0.57529650692E+03  0.15294330000E+03 0. -1.
<mgrwt>
<rscale>  0 0.28150674E+03</rscale>
<asrwt>0</asrwt>
<pdfrwt beam="1">  1        2 0.13459746E+00 0.28150674E+03</pdfrwt>
<pdfrwt beam="2">  1       -2 0.14721001E-01 0.28150674E+03</pdfrwt>
<totfact> 0.11159368E+03</totfact>
</mgrwt>
</event>
<event>
 4    1  0.4840632E-008  0.6429008E+03  0.7818608E-02  0.9820192E-01
         -2   -1    0    0    0  501 -0.00000000000E+00  0.00000000000E+00  0.15629710665E+04  0.15629710665E+04  0.25500000000E-02 0.  1.
          2   -1    0    0  501    0  0.00000000000E+00 -0.00000000000E+00 -0.47100899554E+03  0.47100899555E+03  0.25500000000E-02 0. -1.
    8880022    1    1    2    0    0  0.46799346202E+03  0.41341498473E+03  0.12194666629E+04  0.13785573709E+04  0.15294330000E+03 0.  0.
    8880022    1    1    2    0    0 -0.46799346202E+03 -0.41341498473E+03 -0.12750459190E+03  0.65542269114E+03  0.15294330000E+03 0.  0.
<mgrwt>
<rscale>  0 0.64290083E+03</rscale>
<asrwt>0</asrwt>
<pdfrwt beam="1">  1        2 0.72462923E-01 0.64290083E+03</pdfrwt>
<pdfrwt beam="2">  1       -2 0.24045709E+00 0.64290083E+03</pdfrwt>
<totfact> 0.50608695E+00</totfact>
</mgrwt>
</event>
<event>
 4    1  0.4840632E-008  0.2374429E+03  0.7818608E-02  0.1121508E+00
         -2   -1    0    0    0  501 -0.00000000000E+00  0.00000000000E+00  0.22663282839E+03  0.22663282841E+03  0.25500000000E-02 0.  1.
          2   -1    0    0  501    0  0.00000000000E+00 -0.00000000000E+00 -0.23619670219E+04  0.23619670219E+04  0.25500000000E-02 0. -1.
    8880022    1    1    2    0    0  0.30741252186E+02 -0.17900411293E+03 -0.22919115406E+04  0.23041783047E+04  0.15294330000E+03 0. -1.
    8880022    1    1    2    0    0 -0.30741252186E+02  0.17900411293E+03  0.15657734700E+03  0.28442154567E+03  0.15294330000E+03 0.  0.
<mgrwt>
<rscale>  0 0.23744294E+03</rscale>
<asrwt>0</asrwt>
<pdfrwt beam="1">  1        2 0.36337953E+00 0.23744294E+03</pdfrwt>
<pdfrwt beam="2">  1       -2 0.34866591E-01 0.23744294E+03</pdfrwt>
<totfact> 0.37876062E+01</totfact>
</mgrwt>
</event>
<event>
 4    1  0.4840632E-008  0.3908230E+03  0.7818608E-02  0.1047004E+00
          2   -1    0    0  501    0  0.00000000000E+00  0.00000000000E+00  0.11367575427E+04  0.11367575427E+04  0.25500000000E-02 0. -1.
         -2   -1    0    0    0  501 -0.00000000000E+00 -0.00000000000E+00 -0.37175897044E+03  0.37175897045E+03  0.25500000000E-02 0.  1.
    8880022    1    1    2    0    0  0.11991552807E+03 -0.33907408884E+03 -0.22023017273E+03  0.44860222201E+03  0.15294330000E+03 0.  0.
    8880022    1    1    2    0    0 -0.11991552807E+03  0.33907408884E+03  0.98522874499E+03  0.10599142911E+04  0.15294330000E+03 0. -1.
<mgrwt>
<rscale>  0 0.39082301E+03</rscale>
<asrwt>0</asrwt>
<pdfrwt beam="1">  1        2 0.17488577E+00 0.39082301E+03</pdfrwt>
<pdfrwt beam="2">  1       -2 0.57193689E-01 0.39082301E+03</pdfrwt>
<totfact> 0.62887951E+01</totfact>
</mgrwt>
</event>
<event>
 4    1  0.4840632E-008  0.6473656E+03  0.7818608E-02  0.9811735E-01
         -2   -1    0    0    0  501 -0.00000000000E+00  0.00000000000E+00  0.63528336703E+03  0.63528336704E+03  0.25500000000E-02 0.  1.
          2   -1    0    0  501    0  0.00000000000E+00 -0.00000000000E+00 -0.11160624624E+04  0.11160624624E+04  0.25500000000E-02 0. -1.
    8880022    1    1    2    0    0 -0.62000784408E+03 -0.10621146579E+03  0.31957849881E+03  0.72195060226E+03  0.15294330000E+03 0.  0.
    8880022    1    1    2    0    0  0.62000784408E+03  0.10621146579E+03 -0.80035759420E+03  0.10293952272E+04  0.15294330000E+03 0.  0.
<mgrwt>
<rscale>  0 0.64736563E+03</rscale>
<asrwt>0</asrwt>
<pdfrwt beam="1">  1        2 0.17170192E+00 0.64736563E+03</pdfrwt>
<pdfrwt beam="2">  1       -2 0.97735902E-01 0.64736563E+03</pdfrwt>
<totfact> 0.19133390E+01</totfact>
</mgrwt>
</event>
<event>
 4    1  0.5219245E-008  0.1149386E+04  0.7818608E-02  0.9158350E-01
          2   -1    0    0  501    0  0.00000000000E+00  0.00000000000E+00  0.14812381376E+04  0.14812381376E+04  0.25500000000E-02 0. -1.
         -2   -1    0    0    0  501 -0.00000000000E+00 -0.00000000000E+00 -0.17544383568E+04  0.17544383568E+04  0.25500000000E-02 0.  1.
    8880022    1    1    2    0    0  0.96960310056E+03  0.59796906038E+03  0.99778343818E+03  0.15220580187E+04  0.15294330000E+03 0.  0.
    8880022    1    1    2    0    0 -0.96960310056E+03 -0.59796906038E+03 -0.12709836575E+04  0.17136184757E+04  0.15294330000E+03 0.  0.
<mgrwt>
<rscale>  0 0.11493863E+04</rscale>
<asrwt>0</asrwt>
<pdfrwt beam="1">  1        2 0.22788279E+00 0.11493863E+04</pdfrwt>
<pdfrwt beam="2">  1       -2 0.26991359E+00 0.11493863E+04</pdfrwt>
<totfact> 0.61831137E-01</totfact>
</mgrwt>
</event>
<event>
 4    1  0.4840632E-008  0.4241545E+03  0.7818608E-02  0.1035723E+00
         -2   -1    0    0    0  501 -0.00000000000E+00  0.00000000000E+00  0.24311346958E+03  0.24311346959E+03  0.25500000000E-02 0.  1.
          2   -1    0    0  501    0  0.00000000000E+00 -0.00000000000E+00 -0.16893451706E+04  0.16893451706E+04  0.25500000000E-02 0. -1.
    8880022    1    1    2    0    0  0.13259356576E+03 -0.37273896648E+03  0.12036755567E+01  0.42415621257E+03  0.15294330000E+03 0.  0.
    8880022    1    1    2    0    0 -0.13259356576E+03  0.37273896648E+03 -0.14474353766E+04  0.15083024276E+04  0.15294330000E+03 0.  0.
<mgrwt>
<rscale>  0 0.42415450E+03</rscale>
<asrwt>0</asrwt>
<pdfrwt beam="1">  1        2 0.25989925E+00 0.42415450E+03</pdfrwt>
<pdfrwt beam="2">  1       -2 0.37402073E-01 0.42415450E+03</pdfrwt>
<totfact> 0.71688730E+01</totfact>
</mgrwt>
</event>
<event>
 4    1  0.4840632E-008  0.3807850E+03  0.7818608E-02  0.1050644E+00
         -2   -1    0    0    0  501 -0.00000000000E+00  0.00000000000E+00  0.77211507615E+03  0.77211507615E+03  0.25500000000E-02 0.  1.
          2   -1    0    0  501    0  0.00000000000E+00 -0.00000000000E+00 -0.46099493760E+03  0.46099493761E+03  0.25500000000E-02 0. -1.
    8880022    1    1    2    0    0  0.34635501546E+03  0.40543702453E+02  0.63020212892E+03  0.73630969358E+03  0.15294330000E+03 0.  1.
    8880022    1    1    2    0    0 -0.34635501546E+03 -0.40543702453E+02 -0.31908199037E+03  0.49680032019E+03  0.15294330000E+03 0.  0.
<mgrwt>
<rscale>  0 0.38078503E+03</rscale>
<asrwt>0</asrwt>
<pdfrwt beam="1">  1        2 0.70922298E-01 0.38078503E+03</pdfrwt>
<pdfrwt beam="2">  1       -2 0.11878693E+00 0.38078503E+03</pdfrwt>
<totfact> 0.38631005E+01</totfact>
</mgrwt>
</event>
<event>
 4    1  0.4840632E-008  0.7198579E+03  0.7818608E-02  0.9683862E-01
         -2   -1    0    0    0  501 -0.00000000000E+00  0.00000000000E+00  0.87691441330E+03  0.87691441330E+03  0.25500000000E-02 0.  1.
          2   -1    0    0  501    0  0.00000000000E+00 -0.00000000000E+00 -0.16859252340E+04  0.16859252340E+04  0.25500000000E-02 0. -1.
    8880022    1    1    2    0    0 -0.45228915110E+03  0.53873766818E+03 -0.14372152465E+04  0.16074150270E+04  0.15294330000E+03 0.  0.
    8880022    1    1    2    0    0  0.45228915110E+03 -0.53873766818E+03  0.62820442583E+03  0.95542462024E+03  0.15294330000E+03 0.  1.
<mgrwt>
<rscale>  0 0.71985791E+03</rscale>
<asrwt>0</asrwt>
<pdfrwt beam="1">  1        2 0.25937311E+00 0.71985791E+03</pdfrwt>
<pdfrwt beam="2">  1       -2 0.13490991E+00 0.71985791E+03</pdfrwt>
<totfact> 0.40827386E+00</totfact>
</mgrwt>
</event>
<event>
 4    1  0.4840632E-008  0.5107267E+03  0.7818608E-02  0.1011016E+00
          2   -1    0    0  501    0  0.00000000000E+00  0.00000000000E+00  0.12885002165E+04  0.12885002165E+04  0.25500000000E-02 0. -1.
         -2   -1    0    0    0  501 -0.00000000000E+00 -0.00000000000E+00 -0.30963739747E+03  0.30963739748E+03  0.25500000000E-02 0.  1.
    8880022    1    1    2    0    0 -0.37667911293E+03 -0.30913260106E+03  0.19263405436E+02  0.51108986584E+03  0.15294330000E+03 0.  0.
    8880022    1    1    2    0    0  0.37667911293E+03  0.30913260106E+03  0.95959941356E+03  0.10870477481E+04  0.15294330000E+03 0.  0.
<mgrwt>
<rscale>  0 0.51072671E+03</rscale>
<asrwt>0</asrwt>
<pdfrwt beam="1">  1        2 0.19823080E+00 0.51072671E+03</pdfrwt>
<pdfrwt beam="2">  1       -2 0.47636524E-01 0.51072671E+03</pdfrwt>
<totfact> 0.73222676E+01</totfact>
</mgrwt>
</event>
<event>
 4    1  0.5770517E-008  0.1272273E+04  0.7818608E-02  0.9051847E-01
         -2   -1    0    0    0  501 -0.00000000000E+00  0.00000000000E+00  0.14447977895E+04  0.14447977895E+04  0.25500000000E-02 0.  1.
          2   -1    0    0  501    0  0.00000000000E+00 -0.00000000000E+00 -0.25698962605E+04  0.25698962605E+04  0.25500000000E-02 0. -1.
    8880022    1    1    2    0    0 -0.41033695106E+03 -0.11945336327E+04 -0.20701305921E+04  0.24298393639E+04  0.15294330000E+03 0.  0.
    8880022    1    1    2    0    0  0.41033695106E+03  0.11945336327E+04  0.94503212113E+03  0.15848546861E+04  0.15294330000E+03 0.  0.
<mgrwt>
<rscale>  0 0.12722730E+04</rscale>
<asrwt>0</asrwt>
<pdfrwt beam="1">  1        2 0.39536866E+00 0.12722730E+04</pdfrwt>
<pdfrwt beam="2">  1       -2 0.22227658E+00 0.12722730E+04</pdfrwt>
<totfact> 0.29293608E-01</totfact>
</mgrwt>
</event>
<event>
 4    1  0.4840632E-008  0.8996217E+03  0.7818608E-02  0.9426054E-01
         -2   -1    0    0    0  501 -0.00000000000E+00  0.00000000000E+00  0.83544187530E+03  0.83544187530E+03  0.25500000000E-02 0.  1.
          2   -1    0    0  501    0  0.00000000000E+00 -0.00000000000E+00 -0.11670789541E+04  0.11670789542E+04  0.25500000000E-02 0. -1.
    8880022    1    1    2    0    0  0.78039832981E+03  0.42060201888E+03  0.24695297075E+03  0.93290140650E+03  0.15294330000E+03 0.  0.
    8880022    1    1    2    0    0 -0.78039832981E+03 -0.42060201888E+03 -0.57859004960E+03  0.10696194230E+04  0.15294330000E+03 0.  0.
<mgrwt>
<rscale>  0 0.89962173E+03</rscale>
<asrwt>0</asrwt>
<pdfrwt beam="1">  1        2 0.17955061E+00 0.89962173E+03</pdfrwt>
<pdfrwt beam="2">  1       -2 0.12852952E+00 0.89962173E+03</pdfrwt>
<totfact> 0.88800171E+00</totfact>
</mgrwt>
</event>
<event>
 4    1  0.4840632E-008  0.6101893E+03  0.7818608E-02  0.9884489E-01
          2   -1    0    0  501    0  0.00000000000E+00  0.00000000000E+00  0.90992052077E+03  0.90992052077E+03  0.25500000000E-02 0. -1.
         -2   -1    0    0    0  501 -0.00000000000E+00 -0.00000000000E+00 -0.13709647106E+04  0.13709647106E+04  0.25500000000E-02 0.  1.
    8880022    1    1    2    0    0  0.53992673761E+03 -0.23962134028E+03 -0.11857276539E+04  0.13335220250E+04  0.15294330000E+03 0.  1.
    8880022    1    1    2    0    0 -0.53992673761E+03  0.23962134028E+03  0.72468346411E+03  0.94736320642E+03  0.15294330000E+03 0.  0.
<mgrwt>
<rscale>  0 0.61018925E+03</rscale>
<asrwt>0</asrwt>
<pdfrwt beam="1">  1        2 0.13998777E+00 0.61018925E+03</pdfrwt>
<pdfrwt beam="2">  1       -2 0.21091765E+00 0.61018925E+03</pdfrwt>
<totfact> 0.34198467E+00</totfact>
</mgrwt>
</event>
<event>
 4    1  0.4840632E-008  0.4856142E+03  0.7818608E-02  0.1017604E+00
          2   -1    0    0  501    0  0.00000000000E+00  0.00000000000E+00  0.25602667661E+04  0.25602667661E+04  0.25500000000E-02 0. -1.
         -2   -1    0    0    0  501 -0.00000000000E+00 -0.00000000000E+00 -0.14723756010E+03  0.14723756013E+03  0.25500000000E-02 0.  1.
    8880022    1    1    2    0    0 -0.88528834014E+02  0.45231862716E+03  0.37814916124E+03  0.61548187308E+03  0.15294330000E+03 0.  0.
    8880022    1    1    2    0    0  0.88528834014E+02 -0.45231862716E+03  0.20348800448E+04  0.20920224532E+04  0.15294330000E+03 0.  0.
<mgrwt>
<rscale>  0 0.48561420E+03</rscale>
<asrwt>0</asrwt>
<pdfrwt beam="1">  1        2 0.39388715E+00 0.48561420E+03</pdfrwt>
<pdfrwt beam="2">  1       -2 0.22651935E-01 0.48561420E+03</pdfrwt>
<totfact> 0.59780363E+01</totfact>
</mgrwt>
</event>
<event>
 4    1  0.4840632E-008  0.6398906E+03  0.7818608E-02  0.9825936E-01
          2   -1    0    0  501    0  0.00000000000E+00  0.00000000000E+00  0.18412130401E+04  0.18412130401E+04  0.25500000000E-02 0. -1.
         -2   -1    0    0    0  501 -0.00000000000E+00 -0.00000000000E+00 -0.40765984345E+03  0.40765984346E+03  0.25500000000E-02 0.  1.
    8880022    1    1    2    0    0 -0.34850190249E+03  0.51440718426E+03 -0.41264959626E+02  0.64121975731E+03  0.15294330000E+03 0.  0.
    8880022    1    1    2    0    0  0.34850190249E+03 -0.51440718426E+03  0.14748181562E+04  0.16076531262E+04  0.15294330000E+03 0.  0.
<mgrwt>
<rscale>  0 0.63989060E+03</rscale>
<asrwt>0</asrwt>
<pdfrwt beam="1">  1        2 0.28326355E+00 0.63989060E+03</pdfrwt>
<pdfrwt beam="2">  1       -2 0.62716899E-01 0.63989060E+03</pdfrwt>
<totfact> 0.20206615E+01</totfact>
</mgrwt>
</event>
<event>
 4    1  0.4840632E-008  0.2912634E+03  0.7818608E-02  0.1089691E+00
         -2   -1    0    0    0  501 -0.00000000000E+00  0.00000000000E+00  0.20092645393E+03  0.20092645394E+03  0.25500000000E-02 0.  1.
          2   -1    0    0  501    0  0.00000000000E+00 -0.00000000000E+00 -0.64726108377E+03  0.64726108377E+03  0.25500000000E-02 0. -1.
    8880022    1    1    2    0    0  0.24351632679E+03 -0.46287378159E+02  0.26899953523E+02  0.29250296290E+03  0.15294330000E+03 0.  0.
    8880022    1    1    2    0    0 -0.24351632679E+03  0.46287378159E+02 -0.47323458336E+03  0.55568457482E+03  0.15294330000E+03 0.  0.
<mgrwt>
<rscale>  0 0.29126341E+03</rscale>
<asrwt>0</asrwt>
<pdfrwt beam="1">  1        2 0.99578627E-01 0.29126341E+03</pdfrwt>
<pdfrwt beam="2">  1       -2 0.30911762E-01 0.29126341E+03</pdfrwt>
<totfact> 0.44860221E+02</totfact>
</mgrwt>
</event>
<event>
 4    1  0.4840632E-008  0.1015442E+04  0.7818608E-02  0.9291768E-01
         -2   -1    0    0    0  501 -0.00000000000E+00  0.00000000000E+00  0.49356919930E+03  0.49356919930E+03  0.25500000000E-02 0.  1.
          2   -1    0    0  501    0  0.00000000000E+00 -0.00000000000E+00 -0.27234980184E+04  0.27234980184E+04  0.25500000000E-02 0. -1.
    8880022    1    1    2    0    0 -0.10028228277E+04 -0.45581980980E+02 -0.18912870645E+04  0.21466461642E+04  0.15294330000E+03 0.  0.
    8880022    1    1    2    0    0  0.10028228277E+04  0.45581980980E+02 -0.33864175458E+03  0.10704210535E+04  0.15294330000E+03 0.  0.
<mgrwt>
<rscale>  0 0.10154423E+04</rscale>
<asrwt>0</asrwt>
<pdfrwt beam="1">  1        2 0.41899969E+00 0.10154423E+04</pdfrwt>
<pdfrwt beam="2">  1       -2 0.75933724E-01 0.10154423E+04</pdfrwt>
<totfact> 0.40459881E+00</totfact>
</mgrwt>
</event>
<event>
 4    1  0.4840632E-008  0.6806283E+03  0.7818608E-02  0.9750946E-01
         -2   -1    0    0    0  501 -0.00000000000E+00  0.00000000000E+00  0.13424313800E+04  0.13424313800E+04  0.25500000000E-02 0.  1.
          2   -1    0    0  501    0  0.00000000000E+00 -0.00000000000E+00 -0.61170043781E+03  0.61170043781E+03  0.25500000000E-02 0. -1.
    8880022    1    1    2    0    0 -0.51156687780E+03 -0.42209308019E+03  0.10104192482E+04  0.12182782724E+04  0.15294330000E+03 0.  0.
    8880022    1    1    2    0    0  0.51156687780E+03  0.42209308019E+03 -0.27968830600E+03  0.73585354544E+03  0.15294330000E+03 0.  0.
<mgrwt>
<rscale>  0 0.68062831E+03</rscale>
<asrwt>0</asrwt>
<pdfrwt beam="1">  1        2 0.94107761E-01 0.68062831E+03</pdfrwt>
<pdfrwt beam="2">  1       -2 0.20652790E+00 0.68062831E+03</pdfrwt>
<totfact> 0.60195823E+00</totfact>
</mgrwt>
</event>
<event>
 4    1  0.4840632E-008  0.4099745E+03  0.7818608E-02  0.1040380E+00
         -2   -1    0    0    0  501 -0.00000000000E+00  0.00000000000E+00  0.25398315964E+03  0.25398315966E+03  0.25500000000E-02 0.  1.
          2   -1    0    0  501    0  0.00000000000E+00 -0.00000000000E+00 -0.92519429313E+03  0.92519429314E+03  0.25500000000E-02 0. -1.
    8880022    1    1    2    0    0  0.33423407612E+03 -0.18159024940E+03 -0.21005733630E+02  0.41051227774E+03  0.15294330000E+03 0.  0.
    8880022    1    1    2    0    0 -0.33423407612E+03  0.18159024940E+03 -0.65020539986E+03  0.76866517505E+03  0.15294330000E+03 0.  0.
<mgrwt>
<rscale>  0 0.40997450E+03</rscale>
<asrwt>0</asrwt>
<pdfrwt beam="1">  1        2 0.14233758E+00 0.40997450E+03</pdfrwt>
<pdfrwt beam="2">  1       -2 0.39074333E-01 0.40997450E+03</pdfrwt>
<totfact> 0.18111629E+02</totfact>
</mgrwt>
</event>
<event>
 4    1  0.4840632E-008  0.3521644E+03  0.7818608E-02  0.1061730E+00
         -2   -1    0    0    0  501 -0.00000000000E+00  0.00000000000E+00  0.16192414385E+03  0.16192414387E+03  0.25500000000E-02 0.  1.
          2   -1    0    0  501    0  0.00000000000E+00 -0.00000000000E+00 -0.16325862270E+04  0.16325862270E+04  0.25500000000E-02 0. -1.
    8880022    1    1    2    0    0  0.59506020183E+02 -0.31158810171E+03 -0.81590123790E+02  0.36149234138E+03  0.15294330000E+03 0.  0.
    8880022    1    1    2    0    0 -0.59506020183E+02  0.31158810171E+03 -0.13890719594E+04  0.14330180295E+04  0.15294330000E+03 0.  0.
<mgrwt>
<rscale>  0 0.35216440E+03</rscale>
<asrwt>0</asrwt>
<pdfrwt beam="1">  1        2 0.25116710E+00 0.35216440E+03</pdfrwt>
<pdfrwt beam="2">  1       -2 0.24911408E-01 0.35216440E+03</pdfrwt>
<totfact> 0.16467506E+02</totfact>
</mgrwt>
</event>
<event>
 4    1  0.4840632E-008  0.2222382E+03  0.7818608E-02  0.1132225E+00
         -2   -1    0    0    0  501 -0.00000000000E+00  0.00000000000E+00  0.11664576429E+04  0.11664576429E+04  0.25500000000E-02 0.  1.
          2   -1    0    0  501    0  0.00000000000E+00 -0.00000000000E+00 -0.13233734218E+04  0.13233734218E+04  0.25500000000E-02 0. -1.
    8880022    1    1    2    0    0 -0.95909743555E+02  0.12961281228E+03  0.11463800256E+04  0.11677229877E+04  0.15294330000E+03 0.  0.
    8880022    1    1    2    0    0  0.95909743555E+02 -0.12961281228E+03 -0.13032958045E+04  0.13221080769E+04  0.15294330000E+03 0.  0.
<mgrwt>
<rscale>  0 0.22223819E+03</rscale>
<asrwt>0</asrwt>
<pdfrwt beam="1">  1        2 0.20359591E+00 0.22223819E+03</pdfrwt>
<pdfrwt beam="2">  1       -2 0.17945502E+00 0.22223819E+03</pdfrwt>
<totfact> 0.34905899E+00</totfact>
</mgrwt>
</event>
<event>
 4    1  0.4840632E-008  0.1058948E+04  0.7818608E-02  0.9246155E-01
          2   -1    0    0  501    0  0.00000000000E+00  0.00000000000E+00  0.24117400813E+04  0.24117400813E+04  0.25500000000E-02 0. -1.
         -2   -1    0    0    0  501 -0.00000000000E+00 -0.00000000000E+00 -0.51541489484E+03  0.51541489484E+03  0.25500000000E-02 0.  1.
    8880022    1    1    2    0    0 -0.99817998406E+03  0.31877088968E+03  0.14060683879E+04  0.17602267255E+04  0.15294330000E+03 0.  0.
    8880022    1    1    2    0    0  0.99817998406E+03 -0.31877088968E+03  0.49025679864E+03  0.11669282507E+04  0.15294330000E+03 0.  0.
<mgrwt>
<rscale>  0 0.10589475E+04</rscale>
<asrwt>0</asrwt>
<pdfrwt beam="1">  1        2 0.37103695E+00 0.10589475E+04</pdfrwt>
<pdfrwt beam="2">  1       -2 0.79294596E-01 0.10589475E+04</pdfrwt>
<totfact> 0.55264438E+00</totfact>
</mgrwt>
</event>
<event>
 4    1  0.4840632E-008  0.7269984E+03  0.7818608E-02  0.9672144E-01
          2   -1    0    0  501    0  0.00000000000E+00  0.00000000000E+00  0.16363357504E+04  0.16363357504E+04  0.25500000000E-02 0. -1.
         -2   -1    0    0    0  501 -0.00000000000E+00 -0.00000000000E+00 -0.76060600299E+03  0.76060600299E+03  0.25500000000E-02 0.  1.
    8880022    1    1    2    0    0  0.70913959663E+03  0.47497458628E+02 -0.47119444573E+03  0.86634337002E+03  0.15294330000E+03 0.  0.
    8880022    1    1    2    0    0 -0.70913959663E+03 -0.47497458628E+02  0.13469241931E+04  0.15305983833E+04  0.15294330000E+03 0.  0.
<mgrwt>
<rscale>  0 0.72699837E+03</rscale>
<asrwt>0</asrwt>
<pdfrwt beam="1">  1        2 0.25174396E+00 0.72699837E+03</pdfrwt>
<pdfrwt beam="2">  1       -2 0.11701631E+00 0.72699837E+03</pdfrwt>
<totfact> 0.62023856E+00</totfact>
</mgrwt>
</event>
<event>
 4    1  0.4840632E-008  0.3466691E+03  0.7818608E-02  0.1063991E+00
         -2   -1    0    0    0  501 -0.00000000000E+00  0.00000000000E+00  0.17298901256E+03  0.17298901258E+03  0.25500000000E-02 0.  1.
          2   -1    0    0  501    0  0.00000000000E+00 -0.00000000000E+00 -0.40269263526E+04  0.40269263526E+04  0.25500000000E-02 0. -1.
    8880022    1    1    2    0    0  0.30601215815E+03 -0.56074432800E+02 -0.16721997648E+02  0.34707212676E+03  0.15294330000E+03 0.  0.
    8880022    1    1    2    0    0 -0.30601215815E+03  0.56074432800E+02 -0.38372153424E+04  0.38528432384E+04  0.15294330000E+03 0.  0.
<mgrwt>
<rscale>  0 0.34666906E+03</rscale>
<asrwt>0</asrwt>
<pdfrwt beam="1">  1        2 0.61952706E+00 0.34666906E+03</pdfrwt>
<pdfrwt beam="2">  1       -2 0.26613697E-01 0.34666906E+03</pdfrwt>
<totfact> 0.52451193E+00</totfact>
</mgrwt>
</event>
<event>
 4    1  0.4840632E-008  0.5119124E+03  0.7818608E-02  0.1010716E+00
         -2   -1    0    0    0  501 -0.00000000000E+00  0.00000000000E+00  0.12315147413E+04  0.12315147414E+04  0.25500000000E-02 0.  1.
          2   -1    0    0  501    0  0.00000000000E+00 -0.00000000000E+00 -0.35191605550E+03  0.35191605551E+03  0.25500000000E-02 0. -1.
    8880022    1    1    2    0    0  0.41546198419E+03 -0.25700976166E+03  0.93759762740E+03  0.10682432503E+04  0.15294330000E+03 0.  0.
    8880022    1    1    2    0    0 -0.41546198419E+03  0.25700976166E+03 -0.57998941557E+02  0.51518754656E+03  0.15294330000E+03 0.  0.
<mgrwt>
<rscale>  0 0.51191243E+03</rscale>
<asrwt>0</asrwt>
<pdfrwt beam="1">  1        2 0.54140931E-01 0.51191243E+03</pdfrwt>
<pdfrwt beam="2">  1       -2 0.18946381E+00 0.51191243E+03</pdfrwt>
<totfact> 0.14978959E+01</totfact>
</mgrwt>
</event>
<event>
 4    1  0.4840632E-008  0.2520561E+03  0.7818608E-02  0.1112012E+00
         -2   -1    0    0    0  501 -0.00000000000E+00  0.00000000000E+00  0.11202028910E+03  0.11202028913E+03  0.25500000000E-02 0.  1.
          2   -1    0    0  501    0  0.00000000000E+00 -0.00000000000E+00 -0.95784570896E+03  0.95784570896E+03  0.25500000000E-02 0. -1.
    8880022    1    1    2    0    0  0.48381505044E+02 -0.19442183649E+03 -0.76455458523E+03  0.80503166854E+03  0.15294330000E+03 0. -1.
    8880022    1    1    2    0    0 -0.48381505044E+02  0.19442183649E+03 -0.81270834623E+02  0.26483432956E+03  0.15294330000E+03 0.  0.
<mgrwt>
<rscale>  0 0.25205609E+03</rscale>
<asrwt>0</asrwt>
<pdfrwt beam="1">  1        2 0.14736087E+00 0.25205609E+03</pdfrwt>
<pdfrwt beam="2">  1       -2 0.17233891E-01 0.25205609E+03</pdfrwt>
<totfact> 0.75941518E+02</totfact>
</mgrwt>
</event>
<event>
 4    1  0.4840632E-008  0.5923629E+03  0.7818608E-02  0.9921378E-01
          2   -1    0    0  501    0  0.00000000000E+00  0.00000000000E+00  0.32622744496E+04  0.32622744496E+04  0.25500000000E-02 0. -1.
         -2   -1    0    0    0  501 -0.00000000000E+00 -0.00000000000E+00 -0.17437154340E+03  0.17437154342E+03  0.25500000000E-02 0.  1.
    8880022    1    1    2    0    0  0.57197812197E+03 -0.18525285255E+02  0.26075780547E+04  0.26740151687E+04  0.15294330000E+03 0.  0.
    8880022    1    1    2    0    0 -0.57197812197E+03  0.18525285255E+02  0.48032485155E+03  0.76263082434E+03  0.15294330000E+03 0.  0.
<mgrwt>
<rscale>  0 0.59236290E+03</rscale>
<asrwt>0</asrwt>
<pdfrwt beam="1">  1        2 0.50188838E+00 0.59236290E+03</pdfrwt>
<pdfrwt beam="2">  1       -2 0.26826391E-01 0.59236290E+03</pdfrwt>
<totfact> 0.16406860E+01</totfact>
</mgrwt>
</event>
<event>
 4    1  0.4840632E-008  0.3148994E+03  0.7818608E-02  0.1078021E+00
         -2   -1    0    0    0  501 -0.00000000000E+00  0.00000000000E+00  0.49603590057E+03  0.49603590057E+03  0.25500000000E-02 0.  1.
          2   -1    0    0  501    0  0.00000000000E+00 -0.00000000000E+00 -0.51281500107E+03  0.51281500108E+03  0.25500000000E-02 0. -1.
    8880022    1    1    2    0    0  0.27525606394E+03  0.20193842779E+01 -0.40241488715E+03  0.51097883817E+03  0.15294330000E+03 0. -1.
    8880022    1    1    2    0    0 -0.27525606394E+03 -0.20193842779E+01  0.38563578664E+03  0.49787206349E+03  0.15294330000E+03 0.  0.
<mgrwt>
<rscale>  0 0.31489940E+03</rscale>
<asrwt>0</asrwt>
<pdfrwt beam="1">  1        2 0.78894616E-01 0.31489940E+03</pdfrwt>
<pdfrwt beam="2">  1       -2 0.76313215E-01 0.31489940E+03</pdfrwt>
<totfact> 0.96156238E+01</totfact>
</mgrwt>
</event>
<event>
 4    1  0.4840632E-008  0.9791543E+03  0.7818608E-02  0.9331708E-01
          2   -1    0    0  501    0  0.00000000000E+00  0.00000000000E+00  0.25017625019E+04  0.25017625019E+04  0.25500000000E-02 0. -1.
         -2   -1    0    0    0  501 -0.00000000000E+00 -0.00000000000E+00 -0.39856359552E+03  0.39856359553E+03  0.25500000000E-02 0.  1.
    8880022    1    1    2    0    0  0.48696778676E+03 -0.83559188379E+03  0.76713255891E+03  0.12438791893E+04  0.15294330000E+03 0.  0.
    8880022    1    1    2    0    0 -0.48696778676E+03  0.83559188379E+03  0.13360663475E+04  0.16564469082E+04  0.15294330000E+03 0.  0.
<mgrwt>
<rscale>  0 0.97915426E+03</rscale>
<asrwt>0</asrwt>
<pdfrwt beam="1">  1        2 0.38488654E+00 0.97915426E+03</pdfrwt>
<pdfrwt beam="2">  1       -2 0.61317476E-01 0.97915426E+03</pdfrwt>
<totfact> 0.87131638E+00</totfact>
</mgrwt>
</event>
<event>
 4    1  0.4840632E-008  0.5860481E+03  0.7818608E-02  0.9934782E-01
          2   -1    0    0  501    0  0.00000000000E+00  0.00000000000E+00  0.30982883198E+04  0.30982883198E+04  0.25500000000E-02 0. -1.
         -2   -1    0    0    0  501 -0.00000000000E+00 -0.00000000000E+00 -0.49434056255E+03  0.49434056256E+03  0.25500000000E-02 0.  1.
    8880022    1    1    2    0    0  0.51614267542E+03 -0.23164077395E+03  0.28841152242E+04  0.29430550435E+04  0.15294330000E+03 0. -1.
    8880022    1    1    2    0    0 -0.51614267542E+03  0.23164077395E+03 -0.28016746698E+03  0.64957383884E+03  0.15294330000E+03 0.  0.
<mgrwt>
<rscale>  0 0.58604809E+03</rscale>
<asrwt>0</asrwt>
<pdfrwt beam="1">  1        2 0.47665974E+00 0.58604809E+03</pdfrwt>
<pdfrwt beam="2">  1       -2 0.76052394E-01 0.58604809E+03</pdfrwt>
<totfact> 0.26007819E+00</totfact>
</mgrwt>
</event>
<event>
 4    1  0.4840632E-008  0.3282656E+03  0.7818608E-02  0.1071907E+00
          2   -1    0    0  501    0  0.00000000000E+00  0.00000000000E+00  0.13673242359E+04  0.13673242359E+04  0.25500000000E-02 0. -1.
         -2   -1    0    0    0  501 -0.00000000000E+00 -0.00000000000E+00 -0.15285076226E+03  0.15285076228E+03  0.25500000000E-02 0.  1.
    8880022    1    1    2    0    0 -0.25958724516E+03 -0.13031156567E+03  0.78223719632E+02  0.33745702737E+03  0.15294330000E+03 0.  0.
    8880022    1    1    2    0    0  0.25958724516E+03  0.13031156567E+03  0.11362497540E+04  0.11827179708E+04  0.15294330000E+03 0.  0.
<mgrwt>
<rscale>  0 0.32826559E+03</rscale>
<asrwt>0</asrwt>
<pdfrwt beam="1">  1        2 0.21035758E+00 0.32826559E+03</pdfrwt>
<pdfrwt beam="2">  1       -2 0.23515501E-01 0.32826559E+03</pdfrwt>
<totfact> 0.25492473E+02</totfact>
</mgrwt>
</event>
<event>
 4    1  0.4840632E-008  0.7421032E+03  0.7818608E-02  0.9647821E-01
         -2   -1    0    0    0  501 -0.00000000000E+00  0.00000000000E+00  0.81088581624E+03  0.81088581624E+03  0.25500000000E-02 0.  1.
          2   -1    0    0  501    0  0.00000000000E+00 -0.00000000000E+00 -0.76935876435E+03  0.76935876436E+03  0.25500000000E-02 0. -1.
    8880022    1    1    2    0    0  0.26345036159E+03  0.67669740500E+03  0.29131025569E+03  0.79723195435E+03  0.15294330000E+03 0.  0.
    8880022    1    1    2    0    0 -0.26345036159E+03 -0.67669740500E+03 -0.24978320380E+03  0.78301262625E+03  0.15294330000E+03 0.  0.
<mgrwt>
<rscale>  0 0.74210318E+03</rscale>
<asrwt>0</asrwt>
<pdfrwt beam="1">  1        2 0.11836289E+00 0.74210318E+03</pdfrwt>
<pdfrwt beam="2">  1       -2 0.12475166E+00 0.74210318E+03</pdfrwt>
<totfact> 0.17747197E+01</totfact>
</mgrwt>
</event>
<event>
 4    1  0.4840632E-008  0.4442026E+03  0.7818608E-02  0.1029465E+00
         -2   -1    0    0    0  501 -0.00000000000E+00  0.00000000000E+00  0.13349586777E+04  0.13349586777E+04  0.25500000000E-02 0.  1.
          2   -1    0    0  501    0  0.00000000000E+00 -0.00000000000E+00 -0.86984767543E+03  0.86984767544E+03  0.25500000000E-02 0. -1.
    8880022    1    1    2    0    0  0.41451256955E+02  0.41497723277E+03  0.12369394092E+04  0.13142811973E+04  0.15294330000E+03 0.  1.
    8880022    1    1    2    0    0 -0.41451256955E+02 -0.41497723277E+03 -0.77182840695E+03  0.89052515586E+03  0.15294330000E+03 0.  0.
<mgrwt>
<rscale>  0 0.44420262E+03</rscale>
<asrwt>0</asrwt>
<pdfrwt beam="1">  1        2 0.13382272E+00 0.44420262E+03</pdfrwt>
<pdfrwt beam="2">  1       -2 0.20537826E+00 0.44420262E+03</pdfrwt>
<totfact> 0.40833130E+00</totfact>
</mgrwt>
</event>
<event>
 4    1  0.4840632E-008  0.7130498E+03  0.7818608E-02  0.9695172E-01
          2   -1    0    0  501    0  0.00000000000E+00  0.00000000000E+00  0.19619091698E+04  0.19619091698E+04  0.25500000000E-02 0. -1.
         -2   -1    0    0    0  501 -0.00000000000E+00 -0.00000000000E+00 -0.42430507742E+03  0.42430507743E+03  0.25500000000E-02 0.  1.
    8880022    1    1    2    0    0 -0.58493576638E+03 -0.37801910512E+03  0.24449304266E+02  0.71346879127E+03  0.15294330000E+03 0.  0.
    8880022    1    1    2    0    0  0.58493576638E+03  0.37801910512E+03  0.15131547881E+04  0.16727454560E+04  0.15294330000E+03 0.  0.
<mgrwt>
<rscale>  0 0.71304975E+03</rscale>
<asrwt>0</asrwt>
<pdfrwt beam="1">  1        2 0.30183217E+00 0.71304975E+03</pdfrwt>
<pdfrwt beam="2">  1       -2 0.65277706E-01 0.71304975E+03</pdfrwt>
<totfact> 0.15772274E+01</totfact>
</mgrwt>
</event>
<event>
 4    1  0.4840632E-008  0.3333255E+03  0.7818608E-02  0.1069675E+00
         -2   -1    0    0    0  501 -0.00000000000E+00  0.00000000000E+00  0.17231203946E+03  0.17231203948E+03  0.25500000000E-02 0.  1.
          2   -1    0    0  501    0  0.00000000000E+00 -0.00000000000E+00 -0.23375693991E+04  0.23375693991E+04  0.25500000000E-02 0. -1.
    8880022    1    1    2    0    0 -0.29614442037E+03  0.35631468766E+01 -0.21505531828E+04  0.21762318026E+04  0.15294330000E+03 0.  0.
    8880022    1    1    2    0    0  0.29614442037E+03 -0.35631468766E+01 -0.14704176825E+02  0.33364963594E+03  0.15294330000E+03 0.  0.
<mgrwt>
<rscale>  0 0.33332547E+03</rscale>
<asrwt>0</asrwt>
<pdfrwt beam="1">  1        2 0.35962604E+00 0.33332547E+03</pdfrwt>
<pdfrwt beam="2">  1       -2 0.26509546E-01 0.33332547E+03</pdfrwt>
<totfact> 0.62251360E+01</totfact>
</mgrwt>
</event>
<event>
 4    1  0.4840632E-008  0.3943966E+03  0.7818608E-02  0.1045737E+00
          2   -1    0    0  501    0  0.00000000000E+00  0.00000000000E+00  0.16870950156E+04  0.16870950156E+04  0.25500000000E-02 0. -1.
         -2   -1    0    0    0  501 -0.00000000000E+00 -0.00000000000E+00 -0.31532099080E+03  0.31532099081E+03  0.25500000000E-02 0.  1.
    8880022    1    1    2    0    0 -0.24543781950E+03  0.26817397362E+03  0.15280942200E+04  0.15781700167E+04  0.15294330000E+03 0.  0.
    8880022    1    1    2    0    0  0.24543781950E+03 -0.26817397362E+03 -0.15632019519E+03  0.42424598974E+03  0.15294330000E+03 0.  0.
<mgrwt>
<rscale>  0 0.39439657E+03</rscale>
<asrwt>0</asrwt>
<pdfrwt beam="1">  1        2 0.25955308E+00 0.39439657E+03</pdfrwt>
<pdfrwt beam="2">  1       -2 0.48510921E-01 0.39439657E+03</pdfrwt>
<totfact> 0.43500628E+01</totfact>
</mgrwt>
</event>
<event>
 4    1  0.4840632E-008  0.4208410E+03  0.7818608E-02  0.1036793E+00
          2   -1    0    0  501    0  0.00000000000E+00  0.00000000000E+00  0.72881213681E+03  0.72881213681E+03  0.25500000000E-02 0. -1.
         -2   -1    0    0    0  501 -0.00000000000E+00 -0.00000000000E+00 -0.10040659297E+04  0.10040659297E+04  0.25500000000E-02 0.  1.
    8880022    1    1    2    0    0 -0.31881672559E+03 -0.22819157970E+03 -0.89196450617E+03  0.98625951698E+03  0.15294330000E+03 0.  0.
    8880022    1    1    2    0    0  0.31881672559E+03  0.22819157970E+03  0.61671071330E+03  0.74661854951E+03  0.15294330000E+03 0.  0.
<mgrwt>
<rscale>  0 0.42084101E+03</rscale>
<asrwt>0</asrwt>
<pdfrwt beam="1">  1        2 0.11212494E+00 0.42084101E+03</pdfrwt>
<pdfrwt beam="2">  1       -2 0.15447168E+00 0.42084101E+03</pdfrwt>
<totfact> 0.11483157E+01</totfact>
</mgrwt>
</event>
<event>
 4    1  0.4840632E-008  0.8143007E+03  0.7818608E-02  0.9539545E-01
         -2   -1    0    0    0  501 -0.00000000000E+00  0.00000000000E+00  0.31845346177E+03  0.31845346178E+03  0.25500000000E-02 0.  1.
          2   -1    0    0  501    0  0.00000000000E+00 -0.00000000000E+00 -0.31243365421E+04  0.31243365421E+04  0.25500000000E-02 0. -1.
    8880022    1    1    2    0    0 -0.10385096850E+03 -0.79303783551E+03 -0.40876683084E+03  0.91113994931E+03  0.15294330000E+03 0.  0.
    8880022    1    1    2    0    0  0.10385096850E+03  0.79303783551E+03 -0.23971162494E+04  0.25316500545E+04  0.15294330000E+03 0.  0.
<mgrwt>
<rscale>  0 0.81430073E+03</rscale>
<asrwt>0</asrwt>
<pdfrwt beam="1">  1        2 0.48066714E+00 0.81430073E+03</pdfrwt>
<pdfrwt beam="2">  1       -2 0.48992842E-01 0.81430073E+03</pdfrwt>
<totfact> 0.60526015E+00</totfact>
</mgrwt>
</event>
<event>
 4    1  0.4840632E-008  0.4318482E+03  0.7818608E-02  0.1033278E+00
         -2   -1    0    0    0  501 -0.00000000000E+00  0.00000000000E+00  0.46781882068E+03  0.46781882069E+03  0.25500000000E-02 0.  1.
          2   -1    0    0  501    0  0.00000000000E+00 -0.00000000000E+00 -0.24833550721E+04  0.24833550721E+04  0.25500000000E-02 0. -1.
    8880022    1    1    2    0    0  0.16731983707E+03  0.36756674501E+03  0.34420603719E+03  0.55224151326E+03  0.15294330000E+03 0.  1.
    8880022    1    1    2    0    0 -0.16731983707E+03 -0.36756674501E+03 -0.23597422886E+04  0.23989323796E+04  0.15294330000E+03 0.  0.
<mgrwt>
<rscale>  0 0.43184823E+03</rscale>
<asrwt>0</asrwt>
<pdfrwt beam="1">  1        2 0.38205462E+00 0.43184823E+03</pdfrwt>
<pdfrwt beam="2">  1       -2 0.71972127E-01 0.43184823E+03</pdfrwt>
<totfact> 0.70264698E+00</totfact>
</mgrwt>
</event>
<event>
 4    1  0.4840632E-008  0.2415549E+03  0.7818608E-02  0.1118761E+00
          2   -1    0    0  501    0  0.00000000000E+00  0.00000000000E+00  0.12434456259E+04  0.12434456259E+04  0.25500000000E-02 0. -1.
         -2   -1    0    0    0  501 -0.00000000000E+00 -0.00000000000E+00 -0.80804875071E+02  0.80804875111E+02  0.25500000000E-02 0.  1.
    8880022    1    1    2    0    0  0.13155427864E+03 -0.13285558735E+03  0.10100581421E+04  0.10385404367E+04  0.15294330000E+03 0. -1.
    8880022    1    1    2    0    0 -0.13155427864E+03  0.13285558735E+03  0.15258260872E+03  0.28571006426E+03  0.15294330000E+03 0.  0.
<mgrwt>
<rscale>  0 0.24155494E+03</rscale>
<asrwt>0</asrwt>
<pdfrwt beam="1">  1        2 0.19129931E+00 0.24155494E+03</pdfrwt>
<pdfrwt beam="2">  1       -2 0.12431520E-01 0.24155494E+03</pdfrwt>
<totfact> 0.88487322E+02</totfact>
</mgrwt>
</event>
<event>
 4    1  0.4840632E-008  0.1020109E+04  0.7818608E-02  0.9286761E-01
          2   -1    0    0  501    0  0.00000000000E+00  0.00000000000E+00  0.21916232375E+04  0.21916232375E+04  0.25500000000E-02 0. -1.
         -2   -1    0    0    0  501 -0.00000000000E+00 -0.00000000000E+00 -0.56191796457E+03  0.56191796458E+03  0.25500000000E-02 0.  1.
    8880022    1    1    2    0    0 -0.55370049515E+03 -0.84299837097E+03  0.27280914444E+03  0.10559578467E+04  0.15294330000E+03 0.  0.
    8880022    1    1    2    0    0  0.55370049515E+03  0.84299837097E+03  0.13568961285E+04  0.16975833553E+04  0.15294330000E+03 0.  0.
<mgrwt>
<rscale>  0 0.10201089E+04</rscale>
<asrwt>0</asrwt>
<pdfrwt beam="1">  1        2 0.33717280E+00 0.10201089E+04</pdfrwt>
<pdfrwt beam="2">  1       -2 0.86448919E-01 0.10201089E+04</pdfrwt>
<totfact> 0.60631665E+00</totfact>
</mgrwt>
</event>
<event>
 4    1  0.4840632E-008  0.5737050E+03  0.7818608E-02  0.9961513E-01
         -2   -1    0    0    0  501 -0.00000000000E+00  0.00000000000E+00  0.51577586228E+03  0.51577586229E+03  0.25500000000E-02 0.  1.
          2   -1    0    0  501    0  0.00000000000E+00 -0.00000000000E+00 -0.97601135034E+03  0.97601135034E+03  0.25500000000E-02 0. -1.
    8880022    1    1    2    0    0 -0.13409168913E+03  0.53643746080E+03  0.20874116223E+03  0.61050000513E+03  0.15294330000E+03 0.  0.
    8880022    1    1    2    0    0  0.13409168913E+03 -0.53643746080E+03 -0.66897665029E+03  0.88128720749E+03  0.15294330000E+03 0.  0.
<mgrwt>
<rscale>  0 0.57370496E+03</rscale>
<asrwt>0</asrwt>
<pdfrwt beam="1">  1        2 0.15015559E+00 0.57370496E+03</pdfrwt>
<pdfrwt beam="2">  1       -2 0.79350133E-01 0.57370496E+03</pdfrwt>
<totfact> 0.38021585E+01</totfact>
</mgrwt>
</event>
<event>
 4    1  0.4840632E-008  0.5793647E+03  0.7818608E-02  0.9949167E-01
         -2   -1    0    0    0  501 -0.00000000000E+00  0.00000000000E+00  0.42660746738E+03  0.42660746739E+03  0.25500000000E-02 0.  1.
          2   -1    0    0  501    0  0.00000000000E+00 -0.00000000000E+00 -0.16227355421E+04  0.16227355421E+04  0.25500000000E-02 0. -1.
    8880022    1    1    2    0    0  0.54241835294E+03  0.13436558041E+03  0.13736690268E+03  0.59542681983E+03  0.15294330000E+03 0.  0.
    8880022    1    1    2    0    0 -0.54241835294E+03 -0.13436558041E+03 -0.13334949773E+04  0.14539161896E+04  0.15294330000E+03 0.  0.
<mgrwt>
<rscale>  0 0.57936468E+03</rscale>
<asrwt>0</asrwt>
<pdfrwt beam="1">  1        2 0.24965162E+00 0.57936468E+03</pdfrwt>
<pdfrwt beam="2">  1       -2 0.65631919E-01 0.57936468E+03</pdfrwt>
<totfact> 0.24331459E+01</totfact>
</mgrwt>
</event>
<event>
 4    1  0.4840632E-008  0.1922462E+03  0.7818608E-02  0.1156451E+00
          2   -1    0    0  501    0  0.00000000000E+00  0.00000000000E+00  0.77607281640E+03  0.77607281640E+03  0.25500000000E-02 0. -1.
         -2   -1    0    0    0  501 -0.00000000000E+00 -0.00000000000E+00 -0.69233972106E+02  0.69233972153E+02  0.25500000000E-02 0.  1.
    8880022    1    1    2    0    0  0.11375055619E+03 -0.25054809313E+02  0.11728126824E+03  0.22519653949E+03  0.15294330000E+03 0.  1.
    8880022    1    1    2    0    0 -0.11375055619E+03  0.25054809313E+02  0.58955757605E+03  0.62011024907E+03  0.15294330000E+03 0. -1.
<mgrwt>
<rscale>  0 0.19224616E+03</rscale>
<asrwt>0</asrwt>
<pdfrwt beam="1">  1        2 0.11939583E+00 0.19224616E+03</pdfrwt>
<pdfrwt beam="2">  1       -2 0.10651380E-01 0.19224616E+03</pdfrwt>
<totfact> 0.21965905E+03</totfact>
</mgrwt>
</event>
<event>
 4    1  0.4840632E-008  0.9444817E+03  0.7818608E-02  0.9371624E-01
         -2   -1    0    0    0  501 -0.00000000000E+00  0.00000000000E+00  0.71067367565E+03  0.71067367566E+03  0.25500000000E-02 0.  1.
          2   -1    0    0  501    0  0.00000000000E+00 -0.00000000000E+00 -0.19389672217E+04  0.19389672217E+04  0.25500000000E-02 0. -1.
    8880022    1    1    2    0    0 -0.88780958376E+02 -0.92777793348E+03 -0.14008706835E+04  0.16895219080E+04  0.15294330000E+03 0.  0.
    8880022    1    1    2    0    0  0.88780958376E+02  0.92777793348E+03  0.17257713750E+03  0.96011898941E+03  0.15294330000E+03 0.  0.
<mgrwt>
<rscale>  0 0.94448166E+03</rscale>
<asrwt>0</asrwt>
<pdfrwt beam="1">  1        2 0.29830265E+00 0.94448166E+03</pdfrwt>
<pdfrwt beam="2">  1       -2 0.10933441E+00 0.94448166E+03</pdfrwt>
<totfact> 0.48455415E+00</totfact>
</mgrwt>
</event>
<event>
 4    1  0.4840632E-008  0.4528903E+03  0.7818608E-02  0.1026864E+00
         -2   -1    0    0    0  501 -0.00000000000E+00  0.00000000000E+00  0.40255535943E+03  0.40255535944E+03  0.25500000000E-02 0.  1.
          2   -1    0    0  501    0  0.00000000000E+00 -0.00000000000E+00 -0.21748306256E+04  0.21748306256E+04  0.25500000000E-02 0. -1.
    8880022    1    1    2    0    0  0.25874982204E+02  0.42549787590E+03 -0.20138140600E+04  0.20641115954E+04  0.15294330000E+03 0.  0.
    8880022    1    1    2    0    0 -0.25874982204E+02 -0.42549787590E+03  0.24153879383E+03  0.51327438961E+03  0.15294330000E+03 0.  0.
<mgrwt>
<rscale>  0 0.45289028E+03</rscale>
<asrwt>0</asrwt>
<pdfrwt beam="1">  1        2 0.33458932E+00 0.45289028E+03</pdfrwt>
<pdfrwt beam="2">  1       -2 0.61931595E-01 0.45289028E+03</pdfrwt>
<totfact> 0.14224945E+01</totfact>
</mgrwt>
</event>
<event>
 4    1  0.4840632E-008  0.3695218E+03  0.7818608E-02  0.1054876E+00
         -2   -1    0    0    0  501 -0.00000000000E+00  0.00000000000E+00  0.41130998941E+03  0.41130998942E+03  0.25500000000E-02 0.  1.
          2   -1    0    0  501    0  0.00000000000E+00 -0.00000000000E+00 -0.25139569225E+04  0.25139569225E+04  0.25500000000E-02 0. -1.
    8880022    1    1    2    0    0 -0.18123813131E+03 -0.28338570930E+03  0.31131843823E+03  0.48318272266E+03  0.15294330000E+03 0.  0.
    8880022    1    1    2    0    0  0.18123813131E+03  0.28338570930E+03 -0.24139653713E+04  0.24420841892E+04  0.15294330000E+03 0.  0.
<mgrwt>
<rscale>  0 0.36952182E+03</rscale>
<asrwt>0</asrwt>
<pdfrwt beam="1">  1        2 0.38676259E+00 0.36952182E+03</pdfrwt>
<pdfrwt beam="2">  1       -2 0.63278462E-01 0.36952182E+03</pdfrwt>
<totfact> 0.90939564E+00</totfact>
</mgrwt>
</event>
<event>
 4    1  0.4840632E-008  0.8851313E+03  0.7818608E-02  0.9444361E-01
          2   -1    0    0  501    0  0.00000000000E+00  0.00000000000E+00  0.12215789445E+04  0.12215789445E+04  0.25500000000E-02 0. -1.
         -2   -1    0    0    0  501 -0.00000000000E+00 -0.00000000000E+00 -0.16109185061E+04  0.16109185061E+04  0.25500000000E-02 0.  1.
    8880022    1    1    2    0    0 -0.74295579614E+03  0.45616048071E+03 -0.12934034146E+04  0.15672746234E+04  0.15294330000E+03 0.  0.
    8880022    1    1    2    0    0  0.74295579614E+03 -0.45616048071E+03  0.90406385305E+03  0.12652228272E+04  0.15294330000E+03 0.  0.
<mgrwt>
<rscale>  0 0.88513126E+03</rscale>
<asrwt>0</asrwt>
<pdfrwt beam="1">  1        2 0.18793522E+00 0.88513126E+03</pdfrwt>
<pdfrwt beam="2">  1       -2 0.24783362E+00 0.88513126E+03</pdfrwt>
<totfact> 0.12348139E+00</totfact>
</mgrwt>
</event>
<event>
 4    1  0.4840632E-008  0.4417918E+03  0.7818608E-02  0.1030198E+00
          2   -1    0    0  501    0  0.00000000000E+00  0.00000000000E+00  0.45689403608E+03  0.45689403608E+03  0.25500000000E-02 0. -1.
         -2   -1    0    0    0  501 -0.00000000000E+00 -0.00000000000E+00 -0.46598850436E+03  0.46598850437E+03  0.25500000000E-02 0.  1.
    8880022    1    1    2    0    0 -0.36856583674E+02 -0.41283162016E+03  0.12860336787E+03  0.46012914883E+03  0.15294330000E+03 0.  0.
    8880022    1    1    2    0    0  0.36856583674E+02  0.41283162016E+03 -0.13769783616E+03  0.46275339162E+03  0.15294330000E+03 0.  0.
<mgrwt>
<rscale>  0 0.44179181E+03</rscale>
<asrwt>0</asrwt>
<pdfrwt beam="1">  1        2 0.70291390E-01 0.44179181E+03</pdfrwt>
<pdfrwt beam="2">  1       -2 0.71690539E-01 0.44179181E+03</pdfrwt>
<totfact> 0.12410322E+02</totfact>
</mgrwt>
</event>
<event>
 4    1  0.4840632E-008  0.8429873E+03  0.7818608E-02  0.9499798E-01
          2   -1    0    0  501    0  0.00000000000E+00  0.00000000000E+00  0.97321763246E+03  0.97321763247E+03  0.25500000000E-02 0. -1.
         -2   -1    0    0    0  501 -0.00000000000E+00 -0.00000000000E+00 -0.14857294871E+04  0.14857294871E+04  0.25500000000E-02 0.  1.
    8880022    1    1    2    0    0  0.17208946347E+03  0.81093839337E+03 -0.11330139669E+04  0.14122139227E+04  0.15294330000E+03 0.  0.
    8880022    1    1    2    0    0 -0.17208946347E+03 -0.81093839337E+03  0.62050211220E+03  0.10467331969E+04  0.15294330000E+03 0.  0.
<mgrwt>
<rscale>  0 0.84298726E+03</rscale>
<asrwt>0</asrwt>
<pdfrwt beam="1">  1        2 0.14972579E+00 0.84298726E+03</pdfrwt>
<pdfrwt beam="2">  1       -2 0.22857377E+00 0.84298726E+03</pdfrwt>
<totfact> 0.23218059E+00</totfact>
</mgrwt>
</event>
<event>
 4    1  0.4840632E-008  0.1057213E+04  0.7818608E-02  0.9247929E-01
          2   -1    0    0  501    0  0.00000000000E+00  0.00000000000E+00  0.27066447717E+04  0.27066447717E+04  0.25500000000E-02 0. -1.
         -2   -1    0    0    0  501 -0.00000000000E+00 -0.00000000000E+00 -0.91035887899E+03  0.91035887899E+03  0.25500000000E-02 0.  1.
    8880022    1    1    2    0    0 -0.46033626396E+03 -0.93936044783E+03 -0.43867103519E+03  0.11446097400E+04  0.15294330000E+03 0.  0.
    8880022    1    1    2    0    0  0.46033626396E+03  0.93936044783E+03  0.22349569279E+04  0.24723939107E+04  0.15294330000E+03 0.  0.
<mgrwt>
<rscale>  0 0.10572129E+04</rscale>
<asrwt>0</asrwt>
<pdfrwt beam="1">  1        2 0.41640688E+00 0.10572129E+04</pdfrwt>
<pdfrwt beam="2">  1       -2 0.14005521E+00 0.10572129E+04</pdfrwt>
<totfact> 0.94527337E-01</totfact>
</mgrwt>
</event>
<event>
 4    1  0.4840632E-008  0.3248285E+03  0.7818608E-02  0.1073448E+00
         -2   -1    0    0    0  501 -0.00000000000E+00  0.00000000000E+00  0.31924444338E+03  0.31924444339E+03  0.25500000000E-02 0.  1.
          2   -1    0    0  501    0  0.00000000000E+00 -0.00000000000E+00 -0.12627083346E+04  0.12627083346E+04  0.25500000000E-02 0. -1.
    8880022    1    1    2    0    0  0.28025384847E+03 -0.59830372125E+02 -0.11513518818E+04  0.11962962433E+04  0.15294330000E+03 0.  0.
    8880022    1    1    2    0    0 -0.28025384847E+03  0.59830372125E+02  0.20788799066E+03  0.38565653461E+03  0.15294330000E+03 0.  0.
<mgrwt>
<rscale>  0 0.32482849E+03</rscale>
<asrwt>0</asrwt>
<pdfrwt beam="1">  1        2 0.19426282E+00 0.32482849E+03</pdfrwt>
<pdfrwt beam="2">  1       -2 0.49114530E-01 0.32482849E+03</pdfrwt>
<totfact> 0.73445798E+01</totfact>
</mgrwt>
</event>
<event>
 4    1  0.4840632E-008  0.3283985E+03  0.7818608E-02  0.1071848E+00
         -2   -1    0    0    0  501 -0.00000000000E+00  0.00000000000E+00  0.12557269648E+04  0.12557269648E+04  0.25500000000E-02 0.  1.
          2   -1    0    0  501    0  0.00000000000E+00 -0.00000000000E+00 -0.13529296372E+03  0.13529296374E+03  0.25500000000E-02 0. -1.
    8880022    1    1    2    0    0  0.25281259278E+03  0.14331676130E+03  0.98053034185E+03  0.10340625249E+04  0.15294330000E+03 0.  0.
    8880022    1    1    2    0    0 -0.25281259278E+03 -0.14331676130E+03  0.13990365927E+03  0.35695740366E+03  0.15294330000E+03 0.  0.
<mgrwt>
<rscale>  0 0.32839847E+03</rscale>
<asrwt>0</asrwt>
<pdfrwt beam="1">  1        2 0.20814302E-01 0.32839847E+03</pdfrwt>
<pdfrwt beam="2">  1       -2 0.19318876E+00 0.32839847E+03</pdfrwt>
<totfact> 0.42114602E+01</totfact>
</mgrwt>
</event>
<event>
 4    1  0.4840632E-008  0.7370315E+03  0.7818608E-02  0.9655918E-01
         -2   -1    0    0    0  501 -0.00000000000E+00  0.00000000000E+00  0.67154457228E+03  0.67154457229E+03  0.25500000000E-02 0.  1.
          2   -1    0    0  501    0  0.00000000000E+00 -0.00000000000E+00 -0.21722506869E+04  0.21722506869E+04  0.25500000000E-02 0. -1.
    8880022    1    1    2    0    0  0.55064926135E+03 -0.46541297208E+03  0.37610860558E+03  0.82744980501E+03  0.15294330000E+03 0.  0.
    8880022    1    1    2    0    0 -0.55064926135E+03  0.46541297208E+03 -0.18768147202E+04  0.20163454542E+04  0.15294330000E+03 0.  0.
<mgrwt>
<rscale>  0 0.73703154E+03</rscale>
<asrwt>0</asrwt>
<pdfrwt beam="1">  1        2 0.33419241E+00 0.73703154E+03</pdfrwt>
<pdfrwt beam="2">  1       -2 0.10331455E+00 0.73703154E+03</pdfrwt>
<totfact> 0.42663482E+00</totfact>
</mgrwt>
</event>
<event>
 4    1  0.4840632E-008  0.3319209E+03  0.7818608E-02  0.1070290E+00
         -2   -1    0    0    0  501 -0.00000000000E+00  0.00000000000E+00  0.69007852637E+03  0.69007852637E+03  0.25500000000E-02 0.  1.
          2   -1    0    0  501    0  0.00000000000E+00 -0.00000000000E+00 -0.29212406431E+03  0.29212406432E+03  0.25500000000E-02 0. -1.
    8880022    1    1    2    0    0 -0.29002388158E+03  0.51633423309E+02 -0.13173610337E+03  0.35710770957E+03  0.15294330000E+03 0. -1.
    8880022    1    1    2    0    0  0.29002388158E+03 -0.51633423309E+02  0.52969056543E+03  0.62509488112E+03  0.15294330000E+03 0.  1.
<mgrwt>
<rscale>  0 0.33192095E+03</rscale>
<asrwt>0</asrwt>
<pdfrwt beam="1">  1        2 0.44942164E-01 0.33192095E+03</pdfrwt>
<pdfrwt beam="2">  1       -2 0.10616593E+00 0.33192095E+03</pdfrwt>
<totfact> 0.84058237E+01</totfact>
</mgrwt>
</event>
<event>
 4    1  0.4840632E-008  0.2338482E+03  0.7818608E-02  0.1123960E+00
         -2   -1    0    0    0  501 -0.00000000000E+00  0.00000000000E+00  0.85988141151E+03  0.85988141151E+03  0.25500000000E-02 0.  1.
          2   -1    0    0  501    0  0.00000000000E+00 -0.00000000000E+00 -0.25832477242E+04  0.25832477242E+04  0.25500000000E-02 0. -1.
    8880022    1    1    2    0    0  0.95211847985E+02 -0.14909069227E+03  0.83855809564E+03  0.87055422766E+03  0.15294330000E+03 0.  1.
    8880022    1    1    2    0    0 -0.95211847985E+02  0.14909069227E+03 -0.25619244083E+04  0.25725749081E+04  0.15294330000E+03 0.  0.
<mgrwt>
<rscale>  0 0.23384821E+03</rscale>
<asrwt>0</asrwt>
<pdfrwt beam="1">  1        2 0.39742272E+00 0.23384821E+03</pdfrwt>
<pdfrwt beam="2">  1       -2 0.13228945E+00 0.23384821E+03</pdfrwt>
<totfact> 0.16469868E+00</totfact>
</mgrwt>
</event>
<event>
 4    1  0.4840632E-008  0.3511106E+03  0.7818608E-02  0.1062160E+00
          2   -1    0    0  501    0  0.00000000000E+00  0.00000000000E+00  0.16696287485E+04  0.16696287485E+04  0.25500000000E-02 0. -1.
         -2   -1    0    0    0  501 -0.00000000000E+00 -0.00000000000E+00 -0.97036412592E+02  0.97036412625E+02  0.25500000000E-02 0.  1.
    8880022    1    1    2    0    0  0.31523874611E+03  0.22617611687E+02  0.35437457539E+03  0.49885871357E+03  0.15294330000E+03 0.  0.
    8880022    1    1    2    0    0 -0.31523874611E+03 -0.22617611687E+02  0.12182177605E+04  0.12678064476E+04  0.15294330000E+03 0. -1.
<mgrwt>
<rscale>  0 0.35111063E+03</rscale>
<asrwt>0</asrwt>
<pdfrwt beam="1">  1        2 0.25686595E+00 0.35111063E+03</pdfrwt>
<pdfrwt beam="2">  1       -2 0.14928680E-01 0.35111063E+03</pdfrwt>
<totfact> 0.37961973E+02</totfact>
</mgrwt>
</event>
<event>
 4    1  0.4840632E-008  0.2720554E+03  0.7818608E-02  0.1100109E+00
         -2   -1    0    0    0  501 -0.00000000000E+00  0.00000000000E+00  0.51806241750E+03  0.51806241750E+03  0.25500000000E-02 0.  1.
          2   -1    0    0  501    0  0.00000000000E+00 -0.00000000000E+00 -0.18552069589E+04  0.18552069589E+04  0.25500000000E-02 0. -1.
    8880022    1    1    2    0    0  0.22381849816E+03 -0.22973367538E+02 -0.18086010694E+04  0.18289483254E+04  0.15294330000E+03 0. -1.
    8880022    1    1    2    0    0 -0.22381849816E+03  0.22973367538E+02  0.47145652801E+03  0.54432105099E+03  0.15294330000E+03 0.  0.
<mgrwt>
<rscale>  0 0.27205541E+03</rscale>
<asrwt>0</asrwt>
<pdfrwt beam="1">  1        2 0.28541645E+00 0.27205541E+03</pdfrwt>
<pdfrwt beam="2">  1       -2 0.79701912E-01 0.27205541E+03</pdfrwt>
<totfact> 0.12939144E+01</totfact>
</mgrwt>
</event>
<event>
 4    1  0.4840632E-008  0.3881935E+03  0.7818608E-02  0.1047946E+00
         -2   -1    0    0    0  501 -0.00000000000E+00  0.00000000000E+00  0.31158982071E+03  0.31158982072E+03  0.25500000000E-02 0.  1.
          2   -1    0    0  501    0  0.00000000000E+00 -0.00000000000E+00 -0.23209989136E+04  0.23209989136E+04  0.25500000000E-02 0. -1.
    8880022    1    1    2    0    0  0.66363015921E+02  0.35056885646E+03 -0.21758577772E+04  0.22102152141E+04  0.15294330000E+03 0.  0.
    8880022    1    1    2    0    0 -0.66363015921E+02 -0.35056885646E+03  0.16644868437E+03  0.42237352017E+03  0.15294330000E+03 0.  0.
<mgrwt>
<rscale>  0 0.38819354E+03</rscale>
<asrwt>0</asrwt>
<pdfrwt beam="1">  1        2 0.35707674E+00 0.38819354E+03</pdfrwt>
<pdfrwt beam="2">  1       -2 0.47936897E-01 0.38819354E+03</pdfrwt>
<totfact> 0.20410167E+01</totfact>
</mgrwt>
</event>
<event>
 4    1  0.4840632E-008  0.4227750E+03  0.7818608E-02  0.1036167E+00
         -2   -1    0    0    0  501 -0.00000000000E+00  0.00000000000E+00  0.38094666679E+03  0.38094666680E+03  0.25500000000E-02 0.  1.
          2   -1    0    0  501    0  0.00000000000E+00 -0.00000000000E+00 -0.75786730021E+03  0.75786730022E+03  0.25500000000E-02 0. -1.
    8880022    1    1    2    0    0 -0.38173509051E+02 -0.39228796148E+03  0.16296082555E+03  0.45309485231E+03  0.15294330000E+03 0.  0.
    8880022    1    1    2    0    0  0.38173509051E+02  0.39228796148E+03 -0.53988145897E+03  0.68571911470E+03  0.15294330000E+03 0.  0.
<mgrwt>
<rscale>  0 0.42277502E+03</rscale>
<asrwt>0</asrwt>
<pdfrwt beam="1">  1        2 0.11659497E+00 0.42277502E+03</pdfrwt>
<pdfrwt beam="2">  1       -2 0.58607180E-01 0.42277502E+03</pdfrwt>
<totfact> 0.10469153E+02</totfact>
</mgrwt>
</event>
<event>
 4    1  0.4840632E-008  0.8250900E+03  0.7818608E-02  0.9524394E-01
          2   -1    0    0  501    0  0.00000000000E+00  0.00000000000E+00  0.40279585199E+04  0.40279585199E+04  0.25500000000E-02 0. -1.
         -2   -1    0    0    0  501 -0.00000000000E+00 -0.00000000000E+00 -0.51143068275E+03  0.51143068276E+03  0.25500000000E-02 0.  1.
    8880022    1    1    2    0    0 -0.72725512441E+03  0.35844369795E+03  0.36154384748E+04  0.37083916889E+04  0.15294330000E+03 0.  0.
    8880022    1    1    2    0    0  0.72725512441E+03 -0.35844369795E+03 -0.98910637627E+02  0.83099751373E+03  0.15294330000E+03 0.  0.
<mgrwt>
<rscale>  0 0.82509003E+03</rscale>
<asrwt>0</asrwt>
<pdfrwt beam="1">  1        2 0.61968593E+00 0.82509003E+03</pdfrwt>
<pdfrwt beam="2">  1       -2 0.78681643E-01 0.82509003E+03</pdfrwt>
<totfact> 0.50985393E-01</totfact>
</mgrwt>
</event>
<event>
 4    1  0.4840632E-008  0.7535729E+03  0.7818608E-02  0.9629762E-01
          2   -1    0    0  501    0  0.00000000000E+00  0.00000000000E+00  0.22561078307E+04  0.22561078307E+04  0.25500000000E-02 0. -1.
         -2   -1    0    0    0  501 -0.00000000000E+00 -0.00000000000E+00 -0.74713659714E+03  0.74713659714E+03  0.25500000000E-02 0.  1.
    8880022    1    1    2    0    0 -0.70594605269E+03  0.21475711085E+03 -0.46830705020E+03  0.88723367399E+03  0.15294330000E+03 0.  0.
    8880022    1    1    2    0    0  0.70594605269E+03 -0.21475711085E+03  0.19772782838E+04  0.21160107539E+04  0.15294330000E+03 0.  0.
<mgrwt>
<rscale>  0 0.75357289E+03</rscale>
<asrwt>0</asrwt>
<pdfrwt beam="1">  1        2 0.34709350E+00 0.75357289E+03</pdfrwt>
<pdfrwt beam="2">  1       -2 0.11494410E+00 0.75357289E+03</pdfrwt>
<totfact> 0.29549623E+00</totfact>
</mgrwt>
</event>
<event>
 4    1  0.4840632E-008  0.2145786E+03  0.7818608E-02  0.1137991E+00
          2   -1    0    0  501    0  0.00000000000E+00  0.00000000000E+00  0.23481512558E+04  0.23481512558E+04  0.25500000000E-02 0. -1.
         -2   -1    0    0    0  501 -0.00000000000E+00 -0.00000000000E+00 -0.15550431971E+03  0.15550431973E+03  0.25500000000E-02 0.  1.
    8880022    1    1    2    0    0  0.10579093255E+03 -0.10705421398E+03  0.22665669583E+04  0.22767015078E+04  0.15294330000E+03 0. -1.
    8880022    1    1    2    0    0 -0.10579093255E+03  0.10705421398E+03 -0.73920022237E+02  0.22695406770E+03  0.15294330000E+03 0.  0.
<mgrwt>
<rscale>  0 0.21457861E+03</rscale>
<asrwt>0</asrwt>
<pdfrwt beam="1">  1        2 0.36125401E+00 0.21457861E+03</pdfrwt>
<pdfrwt beam="2">  1       -2 0.23923743E-01 0.21457861E+03</pdfrwt>
<totfact> 0.76872892E+01</totfact>
</mgrwt>
</event>
<event>
 4    1  0.4840632E-008  0.6829308E+03  0.7818608E-02  0.9746876E-01
          2   -1    0    0  501    0  0.00000000000E+00  0.00000000000E+00  0.18066682820E+04  0.18066682821E+04  0.25500000000E-02 0. -1.
         -2   -1    0    0    0  501 -0.00000000000E+00 -0.00000000000E+00 -0.45050978345E+03  0.45050978346E+03  0.25500000000E-02 0.  1.
    8880022    1    1    2    0    0 -0.26465134078E+03 -0.61070651603E+03 -0.59381596163E+02  0.68550755494E+03  0.15294330000E+03 0.  0.
    8880022    1    1    2    0    0  0.26465134078E+03  0.61070651603E+03  0.14155400948E+04  0.15716705106E+04  0.15294330000E+03 0.  0.
<mgrwt>
<rscale>  0 0.68293077E+03</rscale>
<asrwt>0</asrwt>
<pdfrwt beam="1">  1        2 0.27794896E+00 0.68293077E+03</pdfrwt>
<pdfrwt beam="2">  1       -2 0.69309199E-01 0.68293077E+03</pdfrwt>
<totfact> 0.16904904E+01</totfact>
</mgrwt>
</event>
<event>
 4    1  0.4840632E-008  0.7295260E+03  0.7818608E-02  0.9668030E-01
         -2   -1    0    0    0  501 -0.00000000000E+00  0.00000000000E+00  0.67078884761E+03  0.67078884761E+03  0.25500000000E-02 0.  1.
          2   -1    0    0  501    0  0.00000000000E+00 -0.00000000000E+00 -0.16564909098E+04  0.16564909098E+04  0.25500000000E-02 0. -1.
    8880022    1    1    2    0    0  0.41299114758E+03  0.58159682928E+03  0.34709370157E+03  0.80788752342E+03  0.15294330000E+03 0.  1.
    8880022    1    1    2    0    0 -0.41299114758E+03 -0.58159682928E+03 -0.13327957637E+04  0.15193922340E+04  0.15294330000E+03 0.  0.
<mgrwt>
<rscale>  0 0.72952602E+03</rscale>
<asrwt>0</asrwt>
<pdfrwt beam="1">  1        2 0.25484476E+00 0.72952602E+03</pdfrwt>
<pdfrwt beam="2">  1       -2 0.10319828E+00 0.72952602E+03</pdfrwt>
<totfact> 0.81921115E+00</totfact>
</mgrwt>
</event>
<event>
 4    1  0.4840632E-008  0.5101554E+03  0.7818608E-02  0.1011162E+00
          2   -1    0    0  501    0  0.00000000000E+00  0.00000000000E+00  0.17585802074E+04  0.17585802074E+04  0.25500000000E-02 0. -1.
         -2   -1    0    0    0  501 -0.00000000000E+00 -0.00000000000E+00 -0.67260132730E+03  0.67260132731E+03  0.25500000000E-02 0.  1.
    8880022    1    1    2    0    0 -0.47124940921E+03  0.12161786501E+03 -0.53056948491E+03  0.73604520385E+03  0.15294330000E+03 0.  0.
    8880022    1    1    2    0    0  0.47124940921E+03 -0.12161786501E+03  0.16165483650E+04  0.16951363309E+04  0.15294330000E+03 0.  0.
<mgrwt>
<rscale>  0 0.51015543E+03</rscale>
<asrwt>0</asrwt>
<pdfrwt beam="1">  1        2 0.27055080E+00 0.51015543E+03</pdfrwt>
<pdfrwt beam="2">  1       -2 0.10347713E+00 0.51015543E+03</pdfrwt>
<totfact> 0.74563408E+00</totfact>
</mgrwt>
</event>
<event>
 4    1  0.4840632E-008  0.3930067E+03  0.7818608E-02  0.1046228E+00
         -2   -1    0    0    0  501 -0.00000000000E+00  0.00000000000E+00  0.55705159648E+03  0.55705159649E+03  0.25500000000E-02 0.  1.
          2   -1    0    0  501    0  0.00000000000E+00 -0.00000000000E+00 -0.56642514642E+03  0.56642514642E+03  0.25500000000E-02 0. -1.
    8880022    1    1    2    0    0  0.34908232679E+03  0.95938280992E+02  0.39666714340E+03  0.55838973872E+03  0.15294330000E+03 0.  0.
    8880022    1    1    2    0    0 -0.34908232679E+03 -0.95938280992E+02 -0.40604069334E+03  0.56508700419E+03  0.15294330000E+03 0.  0.
<mgrwt>
<rscale>  0 0.39300671E+03</rscale>
<asrwt>0</asrwt>
<pdfrwt beam="1">  1        2 0.87142330E-01 0.39300671E+03</pdfrwt>
<pdfrwt beam="2">  1       -2 0.85700246E-01 0.39300671E+03</pdfrwt>
<totfact> 0.65603481E+01</totfact>
</mgrwt>
</event>
<event>
 4    1  0.4840632E-008  0.7043922E+03  0.7818608E-02  0.9709750E-01
         -2   -1    0    0    0  501 -0.00000000000E+00  0.00000000000E+00  0.41689124756E+03  0.41689124757E+03  0.25500000000E-02 0.  1.
          2   -1    0    0  501    0  0.00000000000E+00 -0.00000000000E+00 -0.13443517049E+04  0.13443517049E+04  0.25500000000E-02 0. -1.
    8880022    1    1    2    0    0  0.20844837755E+03 -0.65522967215E+03 -0.76196611298E+03  0.10376707858E+04  0.15294330000E+03 0.  1.
    8880022    1    1    2    0    0 -0.20844837755E+03  0.65522967215E+03 -0.16549434438E+03  0.72357216669E+03  0.15294330000E+03 0.  0.
<mgrwt>
<rscale>  0 0.70439215E+03</rscale>
<asrwt>0</asrwt>
<pdfrwt beam="1">  1        2 0.20682334E+00 0.70439215E+03</pdfrwt>
<pdfrwt beam="2">  1       -2 0.64137116E-01 0.70439215E+03</pdfrwt>
<totfact> 0.35895301E+01</totfact>
</mgrwt>
</event>
<event>
 4    1  0.4840632E-008  0.3010301E+03  0.7818608E-02  0.1084727E+00
         -2   -1    0    0    0  501 -0.00000000000E+00  0.00000000000E+00  0.16161870298E+03  0.16161870300E+03  0.25500000000E-02 0.  1.
          2   -1    0    0  501    0  0.00000000000E+00 -0.00000000000E+00 -0.38271718674E+04  0.38271718674E+04  0.25500000000E-02 0. -1.
    8880022    1    1    2    0    0  0.56853845175E+02 -0.25297257134E+03 -0.36752953122E+04  0.36876028482E+04  0.15294330000E+03 0.  0.
    8880022    1    1    2    0    0 -0.56853845175E+02  0.25297257134E+03  0.97421477066E+01  0.30118772223E+03  0.15294330000E+03 0.  1.
<mgrwt>
<rscale>  0 0.30103012E+03</rscale>
<asrwt>0</asrwt>
<pdfrwt beam="1">  1        2 0.58879560E+00 0.30103012E+03</pdfrwt>
<pdfrwt beam="2">  1       -2 0.24864419E-01 0.30103012E+03</pdfrwt>
<totfact> 0.85744989E+00</totfact>
</mgrwt>
</event>
<event>
 4    1  0.4840632E-008  0.1244992E+04  0.7818608E-02  0.9074361E-01
         -2   -1    0    0    0  501 -0.00000000000E+00  0.00000000000E+00  0.11849124311E+04  0.11849124311E+04  0.25500000000E-02 0.  1.
          2   -1    0    0  501    0  0.00000000000E+00 -0.00000000000E+00 -0.14420026662E+04  0.14420026662E+04  0.25500000000E-02 0. -1.
    8880022    1    1    2    0    0 -0.11983093757E+04 -0.30111258852E+03 -0.52876412585E+03  0.13526260772E+04  0.15294330000E+03 0.  0.
    8880022    1    1    2    0    0  0.11983093757E+04  0.30111258852E+03  0.27167389071E+03  0.12742890201E+04  0.15294330000E+03 0.  0.
<mgrwt>
<rscale>  0 0.12449923E+04</rscale>
<asrwt>0</asrwt>
<pdfrwt beam="1">  1        2 0.22184656E+00 0.12449923E+04</pdfrwt>
<pdfrwt beam="2">  1       -2 0.18229422E+00 0.12449923E+04</pdfrwt>
<totfact> 0.23127954E+00</totfact>
</mgrwt>
</event>
<event>
 4    1  0.6085093E-008  0.8315875E+03  0.7818608E-02  0.9515388E-01
          2   -1    0    0  501    0  0.00000000000E+00  0.00000000000E+00  0.17690427512E+04  0.17690427512E+04  0.25500000000E-02 0. -1.
         -2   -1    0    0    0  501 -0.00000000000E+00 -0.00000000000E+00 -0.12606878469E+04  0.12606878469E+04  0.25500000000E-02 0.  1.
    8880022    1    1    2    0    0  0.14337440692E+03 -0.80472966763E+03  0.15124485890E+04  0.17259891210E+04  0.15294330000E+03 0.  0.
    8880022    1    1    2    0    0 -0.14337440692E+03  0.80472966763E+03 -0.10040936847E+04  0.13037414771E+04  0.15294330000E+03 0.  0.
<mgrwt>
<rscale>  0 0.83158746E+03</rscale>
<asrwt>0</asrwt>
<pdfrwt beam="1">  1        2 0.27216042E+00 0.83158746E+03</pdfrwt>
<pdfrwt beam="2">  1       -2 0.19395198E+00 0.83158746E+03</pdfrwt>
<totfact> 0.13380679E+00</totfact>
</mgrwt>
</event>
<event>
 4    1  0.4840632E-008  0.5845623E+03  0.7818608E-02  0.9937962E-01
         -2   -1    0    0    0  501 -0.00000000000E+00  0.00000000000E+00  0.20076410955E+04  0.20076410955E+04  0.25500000000E-02 0.  1.
          2   -1    0    0  501    0  0.00000000000E+00 -0.00000000000E+00 -0.46316115527E+03  0.46316115528E+03  0.25500000000E-02 0. -1.
    8880022    1    1    2    0    0 -0.56417681294E+03 -0.50989140346E+01  0.17547619872E+04  0.18495682631E+04  0.15294330000E+03 0.  0.
    8880022    1    1    2    0    0  0.56417681294E+03  0.50989140346E+01 -0.21028204694E+03  0.62123398769E+03  0.15294330000E+03 0.  0.
<mgrwt>
<rscale>  0 0.58456234E+03</rscale>
<asrwt>0</asrwt>
<pdfrwt beam="1">  1        2 0.71255562E-01 0.58456234E+03</pdfrwt>
<pdfrwt beam="2">  1       -2 0.30886786E+00 0.58456234E+03</pdfrwt>
<totfact> 0.20279083E+00</totfact>
</mgrwt>
</event>
<event>
 4    1  0.4840632E-008  0.6576427E+03  0.7818608E-02  0.9792543E-01
         -2   -1    0    0    0  501 -0.00000000000E+00  0.00000000000E+00  0.85847046845E+03  0.85847046845E+03  0.25500000000E-02 0.  1.
          2   -1    0    0  501    0  0.00000000000E+00 -0.00000000000E+00 -0.14157042686E+04  0.14157042686E+04  0.25500000000E-02 0. -1.
    8880022    1    1    2    0    0 -0.48756336536E+03 -0.41398586443E+03  0.63398872699E+03  0.91347451533E+03  0.15294330000E+03 0.  0.
    8880022    1    1    2    0    0  0.48756336536E+03  0.41398586443E+03 -0.11912225272E+04  0.13607002217E+04  0.15294330000E+03 0.  0.
<mgrwt>
<rscale>  0 0.65764275E+03</rscale>
<asrwt>0</asrwt>
<pdfrwt beam="1">  1        2 0.21780066E+00 0.65764275E+03</pdfrwt>
<pdfrwt beam="2">  1       -2 0.13207238E+00 0.65764275E+03</pdfrwt>
<totfact> 0.61419523E+00</totfact>
</mgrwt>
</event>
<event>
 4    1  0.4840632E-008  0.4554104E+03  0.7818608E-02  0.1026121E+00
          2   -1    0    0  501    0  0.00000000000E+00  0.00000000000E+00  0.46501966175E+03  0.46501966176E+03  0.25500000000E-02 0. -1.
         -2   -1    0    0    0  501 -0.00000000000E+00 -0.00000000000E+00 -0.85367338844E+03  0.85367338844E+03  0.25500000000E-02 0.  1.
    8880022    1    1    2    0    0 -0.39724756941E+03  0.16186842276E+03 -0.64996927758E+03  0.79363639817E+03  0.15294330000E+03 0.  0.
    8880022    1    1    2    0    0  0.39724756941E+03 -0.16186842276E+03  0.26131555089E+03  0.52505665203E+03  0.15294330000E+03 0. -1.
<mgrwt>
<rscale>  0 0.45541044E+03</rscale>
<asrwt>0</asrwt>
<pdfrwt beam="1">  1        2 0.71541486E-01 0.45541044E+03</pdfrwt>
<pdfrwt beam="2">  1       -2 0.13133437E+00 0.45541044E+03</pdfrwt>
<totfact> 0.29527409E+01</totfact>
</mgrwt>
</event>
<event>
 4    1  0.4840632E-008  0.4072029E+03  0.7818608E-02  0.1041314E+00
         -2   -1    0    0    0  501 -0.00000000000E+00  0.00000000000E+00  0.43811280518E+03  0.43811280519E+03  0.25500000000E-02 0.  1.
          2   -1    0    0  501    0  0.00000000000E+00 -0.00000000000E+00 -0.84257233406E+03  0.84257233406E+03  0.25500000000E-02 0. -1.
    8880022    1    1    2    0    0  0.37780483807E+02  0.37549328392E+03 -0.67747072920E+03  0.79043077696E+03  0.15294330000E+03 0.  0.
    8880022    1    1    2    0    0 -0.37780483807E+02 -0.37549328392E+03  0.27301120032E+03  0.49025436229E+03  0.15294330000E+03 0.  0.
<mgrwt>
<rscale>  0 0.40720293E+03</rscale>
<asrwt>0</asrwt>
<pdfrwt beam="1">  1        2 0.12962651E+00 0.40720293E+03</pdfrwt>
<pdfrwt beam="2">  1       -2 0.67401970E-01 0.40720293E+03</pdfrwt>
<totfact> 0.68016257E+01</totfact>
</mgrwt>
</event>
<event>
 4    1  0.4840632E-008  0.3323130E+03  0.7818608E-02  0.1070118E+00
         -2   -1    0    0    0  501 -0.00000000000E+00  0.00000000000E+00  0.39289129306E+02  0.39289129389E+02  0.25500000000E-02 0.  1.
          2   -1    0    0  501    0  0.00000000000E+00 -0.00000000000E+00 -0.47746182897E+04  0.47746182897E+04  0.25500000000E-02 0. -1.
    8880022    1    1    2    0    0 -0.72351055978E+02  0.28601682241E+03 -0.82399444608E+03  0.88848117492E+03  0.15294330000E+03 0.  0.
    8880022    1    1    2    0    0  0.72351055978E+02 -0.28601682241E+03 -0.39113347143E+04  0.39254262442E+04  0.15294330000E+03 0. -1.
<mgrwt>
<rscale>  0 0.33231303E+03</rscale>
<asrwt>0</asrwt>
<pdfrwt beam="1">  1        2 0.73455620E+00 0.33231303E+03</pdfrwt>
<pdfrwt beam="2">  1       -2 0.60444852E-02 0.33231303E+03</pdfrwt>
<totfact> 0.12855123E+01</totfact>
</mgrwt>
</event>
<event>
 4    1  0.4840632E-008  0.3223117E+03  0.7818608E-02  0.1074590E+00
          2   -1    0    0  501    0  0.00000000000E+00  0.00000000000E+00  0.30452985575E+03  0.30452985576E+03  0.25500000000E-02 0. -1.
         -2   -1    0    0    0  501 -0.00000000000E+00 -0.00000000000E+00 -0.10545621210E+04  0.10545621210E+04  0.25500000000E-02 0.  1.
    8880022    1    1    2    0    0 -0.16471687829E+03  0.23100119188E+03 -0.93394754099E+03  0.98799942458E+03  0.15294330000E+03 0.  0.
    8880022    1    1    2    0    0  0.16471687829E+03 -0.23100119188E+03  0.18391527572E+03  0.37109255220E+03  0.15294330000E+03 0. -1.
<mgrwt>
<rscale>  0 0.32231173E+03</rscale>
<asrwt>0</asrwt>
<pdfrwt beam="1">  1        2 0.46850748E-01 0.32231173E+03</pdfrwt>
<pdfrwt beam="2">  1       -2 0.16224032E+00 0.32231173E+03</pdfrwt>
<totfact> 0.27767225E+01</totfact>
</mgrwt>
</event>
<event>
 4    1  0.4840632E-008  0.5824499E+03  0.7818608E-02  0.9942501E-01
         -2   -1    0    0    0  501 -0.00000000000E+00  0.00000000000E+00  0.80477113916E+03  0.80477113916E+03  0.25500000000E-02 0.  1.
          2   -1    0    0  501    0  0.00000000000E+00 -0.00000000000E+00 -0.12141789593E+04  0.12141789593E+04  0.25500000000E-02 0. -1.
    8880022    1    1    2    0    0  0.18077443722E+03 -0.53214365985E+03 -0.10203285656E+04  0.11748694850E+04  0.15294330000E+03 0.  0.
    8880022    1    1    2    0    0 -0.18077443722E+03  0.53214365985E+03  0.61092074546E+03  0.84408061352E+03  0.15294330000E+03 0.  0.
<mgrwt>
<rscale>  0 0.58244993E+03</rscale>
<asrwt>0</asrwt>
<pdfrwt beam="1">  1        2 0.18679677E+00 0.58244993E+03</pdfrwt>
<pdfrwt beam="2">  1       -2 0.12381094E+00 0.58244993E+03</pdfrwt>
<totfact> 0.95359335E+00</totfact>
</mgrwt>
</event>
<event>
 4    1  0.4840632E-008  0.4984824E+03  0.7818608E-02  0.1014176E+00
         -2   -1    0    0    0  501 -0.00000000000E+00  0.00000000000E+00  0.25792097223E+03  0.25792097224E+03  0.25500000000E-02 0.  1.
          2   -1    0    0  501    0  0.00000000000E+00 -0.00000000000E+00 -0.36044397349E+04  0.36044397349E+04  0.25500000000E-02 0. -1.
    8880022    1    1    2    0    0 -0.13760633059E+03 -0.45404573439E+03 -0.20193112658E+02  0.49889121655E+03  0.15294330000E+03 0.  0.
    8880022    1    1    2    0    0  0.13760633059E+03  0.45404573439E+03 -0.33263256500E+04  0.33634694905E+04  0.15294330000E+03 0.  0.
<mgrwt>
<rscale>  0 0.49848238E+03</rscale>
<asrwt>0</asrwt>
<pdfrwt beam="1">  1        2 0.55452915E+00 0.49848238E+03</pdfrwt>
<pdfrwt beam="2">  1       -2 0.39680152E-01 0.49848238E+03</pdfrwt>
<totfact> 0.47847185E+00</totfact>
</mgrwt>
</event>
<event>
 4    1  0.4840632E-008  0.3984063E+03  0.7818608E-02  0.1044333E+00
         -2   -1    0    0    0  501 -0.00000000000E+00  0.00000000000E+00  0.20917977372E+03  0.20917977374E+03  0.25500000000E-02 0.  1.
          2   -1    0    0  501    0  0.00000000000E+00 -0.00000000000E+00 -0.28808956744E+04  0.28808956744E+04  0.25500000000E-02 0. -1.
    8880022    1    1    2    0    0  0.36691397782E+03 -0.26647013251E+02 -0.98172998509E+01  0.39852724226E+03  0.15294330000E+03 0.  0.
    8880022    1    1    2    0    0 -0.36691397782E+03  0.26647013251E+02 -0.26618986009E+04  0.26915482059E+04  0.15294330000E+03 0.  0.
<mgrwt>
<rscale>  0 0.39840630E+03</rscale>
<asrwt>0</asrwt>
<pdfrwt beam="1">  1        2 0.44321469E+00 0.39840630E+03</pdfrwt>
<pdfrwt beam="2">  1       -2 0.32181506E-01 0.39840630E+03</pdfrwt>
<totfact> 0.21183580E+01</totfact>
</mgrwt>
</event>
<event>
 4    1  0.4840632E-008  0.7298135E+03  0.7818608E-02  0.9667563E-01
          2   -1    0    0  501    0  0.00000000000E+00  0.00000000000E+00  0.11763452403E+04  0.11763452403E+04  0.25500000000E-02 0. -1.
         -2   -1    0    0    0  501 -0.00000000000E+00 -0.00000000000E+00 -0.69430648488E+03  0.69430648488E+03  0.25500000000E-02 0.  1.
    8880022    1    1    2    0    0 -0.71165241820E+03 -0.52791241335E+02  0.79267504136E+03  0.10774792127E+04  0.15294330000E+03 0.  0.
    8880022    1    1    2    0    0  0.71165241820E+03  0.52791241335E+02 -0.31063628593E+03  0.79317251254E+03  0.15294330000E+03 0.  0.
<mgrwt>
<rscale>  0 0.72981349E+03</rscale>
<asrwt>0</asrwt>
<pdfrwt beam="1">  1        2 0.18097619E+00 0.72981349E+03</pdfrwt>
<pdfrwt beam="2">  1       -2 0.10681638E+00 0.72981349E+03</pdfrwt>
<totfact> 0.14102158E+01</totfact>
</mgrwt>
</event>
<event>
 4    1  0.4840632E-008  0.7493764E+03  0.7818608E-02  0.9636329E-01
          2   -1    0    0  501    0  0.00000000000E+00  0.00000000000E+00  0.15018299233E+04  0.15018299233E+04  0.25500000000E-02 0. -1.
         -2   -1    0    0    0  501 -0.00000000000E+00 -0.00000000000E+00 -0.51204112843E+03  0.51204112844E+03  0.25500000000E-02 0.  1.
    8880022    1    1    2    0    0 -0.94060555605E+02  0.72754787117E+03  0.10178665518E+04  0.12639688538E+04  0.15294330000E+03 0.  0.
    8880022    1    1    2    0    0  0.94060555605E+02 -0.72754787117E+03 -0.28077757026E+02  0.74990219791E+03  0.15294330000E+03 0.  0.
<mgrwt>
<rscale>  0 0.74937637E+03</rscale>
<asrwt>0</asrwt>
<pdfrwt beam="1">  1        2 0.23105075E+00 0.74937637E+03</pdfrwt>
<pdfrwt beam="2">  1       -2 0.78775560E-01 0.74937637E+03</pdfrwt>
<totfact> 0.18560351E+01</totfact>
</mgrwt>
</event>
<event>
 4    1  0.4840632E-008  0.1282864E+04  0.7818608E-02  0.9043266E-01
          2   -1    0    0  501    0  0.00000000000E+00  0.00000000000E+00  0.12372537505E+04  0.12372537505E+04  0.25500000000E-02 0. -1.
         -2   -1    0    0    0  501 -0.00000000000E+00 -0.00000000000E+00 -0.16680019988E+04  0.16680019988E+04  0.25500000000E-02 0.  1.
    8880022    1    1    2    0    0 -0.10454523883E+04  0.72758294091E+03 -0.86913076163E+03  0.15495572161E+04  0.15294330000E+03 0.  0.
    8880022    1    1    2    0    0  0.10454523883E+04 -0.72758294091E+03  0.43838251325E+03  0.13556985332E+04  0.15294330000E+03 0. -1.
<mgrwt>
<rscale>  0 0.12828637E+04</rscale>
<asrwt>0</asrwt>
<pdfrwt beam="1">  1        2 0.19034673E+00 0.12828637E+04</pdfrwt>
<pdfrwt beam="2">  1       -2 0.25661569E+00 0.12828637E+04</pdfrwt>
<totfact> 0.10152562E+00</totfact>
</mgrwt>
</event>
<event>
 4    1  0.4840632E-008  0.4928690E+03  0.7818608E-02  0.1015657E+00
         -2   -1    0    0    0  501 -0.00000000000E+00  0.00000000000E+00  0.28894542398E+03  0.28894542400E+03  0.25500000000E-02 0.  1.
          2   -1    0    0  501    0  0.00000000000E+00 -0.00000000000E+00 -0.14952177397E+04  0.14952177397E+04  0.25500000000E-02 0. -1.
    8880022    1    1    2    0    0  0.43273832382E+03  0.17962659017E+03 -0.11933496798E+04  0.12911248120E+04  0.15294330000E+03 0.  0.
    8880022    1    1    2    0    0 -0.43273832382E+03 -0.17962659017E+03 -0.12922635980E+02  0.49303835179E+03  0.15294330000E+03 0.  1.
<mgrwt>
<rscale>  0 0.49286897E+03</rscale>
<asrwt>0</asrwt>
<pdfrwt beam="1">  1        2 0.23003349E+00 0.49286897E+03</pdfrwt>
<pdfrwt beam="2">  1       -2 0.44453143E-01 0.49286897E+03</pdfrwt>
<totfact> 0.64570414E+01</totfact>
</mgrwt>
</event>
<event>
 4    1  0.4840632E-008  0.1911846E+04  0.7818608E-02  0.8648982E-01
          2   -1    0    0  501    0  0.00000000000E+00  0.00000000000E+00  0.28545411396E+04  0.28545411396E+04  0.25500000000E-02 0. -1.
         -2   -1    0    0    0  501 -0.00000000000E+00 -0.00000000000E+00 -0.18656526446E+04  0.18656526446E+04  0.25500000000E-02 0.  1.
    8880022    1    1    2    0    0  0.68941148100E+03 -0.17766474463E+04 -0.82733806729E+03  0.20831812858E+04  0.15294330000E+03 0.  0.
    8880022    1    1    2    0    0 -0.68941148100E+03  0.17766474463E+04  0.18162265622E+04  0.26370124985E+04  0.15294330000E+03 0.  0.
<mgrwt>
<rscale>  0 0.19118462E+04</rscale>
<asrwt>0</asrwt>
<pdfrwt beam="1">  1        2 0.43916017E+00 0.19118462E+04</pdfrwt>
<pdfrwt beam="2">  1       -2 0.28702349E+00 0.19118462E+04</pdfrwt>
<totfact> 0.73064704E-02</totfact>
</mgrwt>
</event>
<event>
 4    1  0.4840632E-008  0.5633909E+03  0.7818608E-02  0.9984411E-01
          2   -1    0    0  501    0  0.00000000000E+00  0.00000000000E+00  0.27616157508E+04  0.27616157508E+04  0.25500000000E-02 0. -1.
         -2   -1    0    0    0  501 -0.00000000000E+00 -0.00000000000E+00 -0.18510304789E+03  0.18510304791E+03  0.25500000000E-02 0.  1.
    8880022    1    1    2    0    0  0.28364385476E+03 -0.46212963758E+03  0.21953837101E+04  0.22665213271E+04  0.15294330000E+03 0. -1.
    8880022    1    1    2    0    0 -0.28364385476E+03  0.46212963758E+03  0.38112899272E+03  0.68019747161E+03  0.15294330000E+03 0.  0.
<mgrwt>
<rscale>  0 0.56339089E+03</rscale>
<asrwt>0</asrwt>
<pdfrwt beam="1">  1        2 0.42486397E+00 0.56339089E+03</pdfrwt>
<pdfrwt beam="2">  1       -2 0.28477392E-01 0.56339089E+03</pdfrwt>
<totfact> 0.29896953E+01</totfact>
</mgrwt>
</event>
<event>
 4    1  0.4840632E-008  0.1017846E+04  0.7818608E-02  0.9289185E-01
         -2   -1    0    0    0  501 -0.00000000000E+00  0.00000000000E+00  0.13409219904E+04  0.13409219904E+04  0.25500000000E-02 0.  1.
          2   -1    0    0  501    0  0.00000000000E+00 -0.00000000000E+00 -0.13084383506E+04  0.13084383506E+04  0.25500000000E-02 0. -1.
    8880022    1    1    2    0    0 -0.35414209684E+03  0.94191409983E+03  0.86395128516E+03  0.13350738827E+04  0.15294330000E+03 0.  0.
    8880022    1    1    2    0    0  0.35414209684E+03 -0.94191409983E+03 -0.83146764537E+03  0.13142864583E+04  0.15294330000E+03 0.  0.
<mgrwt>
<rscale>  0 0.10178460E+04</rscale>
<asrwt>0</asrwt>
<pdfrwt beam="1">  1        2 0.20129821E+00 0.10178460E+04</pdfrwt>
<pdfrwt beam="2">  1       -2 0.20629569E+00 0.10178460E+04</pdfrwt>
<totfact> 0.19594081E+00</totfact>
</mgrwt>
</event>
<event>
 4    1  0.4840632E-008  0.5342578E+03  0.7818608E-02  0.1005205E+00
         -2   -1    0    0    0  501 -0.00000000000E+00  0.00000000000E+00  0.27825265447E+03  0.27825265448E+03  0.25500000000E-02 0.  1.
          2   -1    0    0  501    0  0.00000000000E+00 -0.00000000000E+00 -0.19683761428E+04  0.19683761428E+04  0.25500000000E-02 0. -1.
    8880022    1    1    2    0    0 -0.19452122325E+03 -0.47349889139E+03 -0.67731298898E+02  0.53853401778E+03  0.15294330000E+03 0.  0.
    8880022    1    1    2    0    0  0.19452122325E+03  0.47349889139E+03 -0.16223921895E+04  0.17080947795E+04  0.15294330000E+03 0.  0.
<mgrwt>
<rscale>  0 0.53425776E+03</rscale>
<asrwt>0</asrwt>
<pdfrwt beam="1">  1        2 0.30282709E+00 0.53425776E+03</pdfrwt>
<pdfrwt beam="2">  1       -2 0.42808102E-01 0.53425776E+03</pdfrwt>
<totfact> 0.38313826E+01</totfact>
</mgrwt>
</event>
<event>
 4    1  0.4840632E-008  0.3914063E+03  0.7818608E-02  0.1046797E+00
         -2   -1    0    0    0  501 -0.00000000000E+00  0.00000000000E+00  0.12312098471E+04  0.12312098471E+04  0.25500000000E-02 0.  1.
          2   -1    0    0  501    0  0.00000000000E+00 -0.00000000000E+00 -0.10545071838E+04  0.10545071838E+04  0.25500000000E-02 0. -1.
    8880022    1    1    2    0    0  0.17045139333E+03  0.31741698512E+03  0.11616665823E+04  0.12258336435E+04  0.15294330000E+03 0.  0.
    8880022    1    1    2    0    0 -0.17045139333E+03 -0.31741698512E+03 -0.98496391904E+03  0.10598833873E+04  0.15294330000E+03 0. -1.
<mgrwt>
<rscale>  0 0.39140628E+03</rscale>
<asrwt>0</asrwt>
<pdfrwt beam="1">  1        2 0.16223187E+00 0.39140628E+03</pdfrwt>
<pdfrwt beam="2">  1       -2 0.18941690E+00 0.39140628E+03</pdfrwt>
<totfact> 0.40020816E+00</totfact>
</mgrwt>
</event>
<event>
 4    1  0.4840632E-008  0.2744556E+03  0.7818608E-02  0.1098756E+00
          2   -1    0    0  501    0  0.00000000000E+00  0.00000000000E+00  0.23496697970E+03  0.23496697972E+03  0.25500000000E-02 0. -1.
         -2   -1    0    0    0  501 -0.00000000000E+00 -0.00000000000E+00 -0.12933245272E+04  0.12933245272E+04  0.25500000000E-02 0.  1.
    8880022    1    1    2    0    0 -0.87835508607E+02 -0.21028350924E+03  0.13352841872E+03  0.30521422387E+03  0.15294330000E+03 0.  0.
    8880022    1    1    2    0    0  0.87835508607E+02  0.21028350924E+03 -0.11918859662E+04  0.12230772831E+04  0.15294330000E+03 0.  1.
<mgrwt>
<rscale>  0 0.27445561E+03</rscale>
<asrwt>0</asrwt>
<pdfrwt beam="1">  1        2 0.36148767E-01 0.27445561E+03</pdfrwt>
<pdfrwt beam="2">  1       -2 0.19897300E+00 0.27445561E+03</pdfrwt>
<totfact> 0.21035917E+01</totfact>
</mgrwt>
</event>
<event>
 4    1  0.4840632E-008  0.2395295E+03  0.7818608E-02  0.1120107E+00
         -2   -1    0    0    0  501 -0.00000000000E+00  0.00000000000E+00  0.13082677164E+03  0.13082677166E+03  0.25500000000E-02 0.  1.
          2   -1    0    0  501    0  0.00000000000E+00 -0.00000000000E+00 -0.11200165913E+04  0.11200165913E+04  0.25500000000E-02 0. -1.
    8880022    1    1    2    0    0 -0.16899143240E+03  0.73652055101E+02 -0.67494645525E+01  0.23962457664E+03  0.15294330000E+03 0.  0.
    8880022    1    1    2    0    0  0.16899143240E+03 -0.73652055101E+02 -0.98244035514E+03  0.10112187864E+04  0.15294330000E+03 0.  0.
<mgrwt>
<rscale>  0 0.23952950E+03</rscale>
<asrwt>0</asrwt>
<pdfrwt beam="1">  1        2 0.17231024E+00 0.23952950E+03</pdfrwt>
<pdfrwt beam="2">  1       -2 0.20127196E-01 0.23952950E+03</pdfrwt>
<totfact> 0.46639335E+02</totfact>
</mgrwt>
</event>
<event>
 4    1  0.4840632E-008  0.4327783E+03  0.7818608E-02  0.1032986E+00
          2   -1    0    0  501    0  0.00000000000E+00  0.00000000000E+00  0.78051629065E+03  0.78051629066E+03  0.25500000000E-02 0. -1.
         -2   -1    0    0    0  501 -0.00000000000E+00 -0.00000000000E+00 -0.31472288322E+03  0.31472288323E+03  0.25500000000E-02 0.  1.
    8880022    1    1    2    0    0 -0.74201111699E+02  0.39799447334E+03 -0.33998993470E+02  0.43411172566E+03  0.15294330000E+03 0.  0.
    8880022    1    1    2    0    0  0.74201111699E+02 -0.39799447334E+03  0.49979240090E+03  0.66112744823E+03  0.15294330000E+03 0.  0.
<mgrwt>
<rscale>  0 0.43277830E+03</rscale>
<asrwt>0</asrwt>
<pdfrwt beam="1">  1        2 0.12007943E+00 0.43277830E+03</pdfrwt>
<pdfrwt beam="2">  1       -2 0.48418905E-01 0.43277830E+03</pdfrwt>
<totfact> 0.14880522E+02</totfact>
</mgrwt>
</event>
<event>
 4    1  0.4840632E-008  0.2134119E+03  0.7818608E-02  0.1138892E+00
          2   -1    0    0  501    0  0.00000000000E+00  0.00000000000E+00  0.19436159384E+04  0.19436159384E+04  0.25500000000E-02 0. -1.
         -2   -1    0    0    0  501 -0.00000000000E+00 -0.00000000000E+00 -0.83167117656E+02  0.83167117695E+02  0.25500000000E-02 0.  1.
    8880022    1    1    2    0    0 -0.14873989125E+03 -0.54257281231E+01  0.17890656062E+04  0.18017492584E+04  0.15294330000E+03 0.  0.
    8880022    1    1    2    0    0  0.14873989125E+03  0.54257281231E+01  0.71383214523E+02  0.22503379770E+03  0.15294330000E+03 0.  1.
<mgrwt>
<rscale>  0 0.21341192E+03</rscale>
<asrwt>0</asrwt>
<pdfrwt beam="1">  1        2 0.29901782E+00 0.21341192E+03</pdfrwt>
<pdfrwt beam="2">  1       -2 0.12794942E-01 0.21341192E+03</pdfrwt>
<totfact> 0.35989951E+02</totfact>
</mgrwt>
</event>
<event>
 4    1  0.4840632E-008  0.3072845E+03  0.7818608E-02  0.1081655E+00
         -2   -1    0    0    0  501 -0.00000000000E+00  0.00000000000E+00  0.28881068252E+03  0.28881068253E+03  0.25500000000E-02 0.  1.
          2   -1    0    0  501    0  0.00000000000E+00 -0.00000000000E+00 -0.14318290913E+04  0.14318290913E+04  0.25500000000E-02 0. -1.
    8880022    1    1    2    0    0  0.25173626635E+03  0.87526765723E+02 -0.13272515091E+04  0.13623583610E+04  0.15294330000E+03 0.  0.
    8880022    1    1    2    0    0 -0.25173626635E+03 -0.87526765723E+02  0.18423310028E+03  0.35828141281E+03  0.15294330000E+03 0.  1.
<mgrwt>
<rscale>  0 0.30728445E+03</rscale>
<asrwt>0</asrwt>
<pdfrwt beam="1">  1        2 0.22028139E+00 0.30728445E+03</pdfrwt>
<pdfrwt beam="2">  1       -2 0.44432413E-01 0.30728445E+03</pdfrwt>
<totfact> 0.72482416E+01</totfact>
</mgrwt>
</event>
<event>
 4    1  0.4840632E-008  0.2240902E+03  0.7818608E-02  0.1130870E+00
         -2   -1    0    0    0  501 -0.00000000000E+00  0.00000000000E+00  0.11214445945E+03  0.11214445948E+03  0.25500000000E-02 0.  1.
          2   -1    0    0  501    0  0.00000000000E+00 -0.00000000000E+00 -0.31317548712E+04  0.31317548712E+04  0.25500000000E-02 0. -1.
    8880022    1    1    2    0    0  0.16432873236E+02 -0.16295616053E+03 -0.30113298243E+04  0.30196562244E+04  0.15294330000E+03 0. -1.
    8880022    1    1    2    0    0 -0.16432873236E+02  0.16295616053E+03 -0.82805874203E+01  0.22424310629E+03  0.15294330000E+03 0.  0.
<mgrwt>
<rscale>  0 0.22409017E+03</rscale>
<asrwt>0</asrwt>
<pdfrwt beam="1">  1        2 0.48180837E+00 0.22409017E+03</pdfrwt>
<pdfrwt beam="2">  1       -2 0.17252996E-01 0.22409017E+03</pdfrwt>
<totfact> 0.48360591E+01</totfact>
</mgrwt>
</event>
<event>
 4    1  0.4840632E-008  0.7268214E+03  0.7818608E-02  0.9672432E-01
         -2   -1    0    0    0  501 -0.00000000000E+00  0.00000000000E+00  0.60057668447E+03  0.60057668448E+03  0.25500000000E-02 0.  1.
          2   -1    0    0  501    0  0.00000000000E+00 -0.00000000000E+00 -0.17387492475E+04  0.17387492475E+04  0.25500000000E-02 0. -1.
    8880022    1    1    2    0    0  0.24838032608E+03  0.66572133458E+03 -0.13912829114E+04  0.15696934332E+04  0.15294330000E+03 0.  0.
    8880022    1    1    2    0    0 -0.24838032608E+03 -0.66572133458E+03  0.25311034837E+03  0.76963249877E+03  0.15294330000E+03 0.  0.
<mgrwt>
<rscale>  0 0.72682139E+03</rscale>
<asrwt>0</asrwt>
<pdfrwt beam="1">  1        2 0.26749988E+00 0.72682139E+03</pdfrwt>
<pdfrwt beam="2">  1       -2 0.92396414E-01 0.72682139E+03</pdfrwt>
<totfact> 0.95855065E+00</totfact>
</mgrwt>
</event>
<event>
 4    1  0.4840632E-008  0.1057329E+04  0.7818608E-02  0.9247809E-01
         -2   -1    0    0    0  501 -0.00000000000E+00  0.00000000000E+00  0.14783822819E+04  0.14783822819E+04  0.25500000000E-02 0.  1.
          2   -1    0    0  501    0  0.00000000000E+00 -0.00000000000E+00 -0.11302459359E+04  0.11302459359E+04  0.25500000000E-02 0. -1.
    8880022    1    1    2    0    0  0.76038741371E+03 -0.71858536255E+03  0.92441312985E+03  0.14044519322E+04  0.15294330000E+03 0.  0.
    8880022    1    1    2    0    0 -0.76038741371E+03  0.71858536255E+03 -0.57627678390E+03  0.12041762856E+04  0.15294330000E+03 0.  0.
<mgrwt>
<rscale>  0 0.10573295E+04</rscale>
<asrwt>0</asrwt>
<pdfrwt beam="1">  1        2 0.17388399E+00 0.10573295E+04</pdfrwt>
<pdfrwt beam="2">  1       -2 0.22744343E+00 0.10573295E+04</pdfrwt>
<totfact> 0.18283539E+00</totfact>
</mgrwt>
</event>
<event>
 4    1  0.4840632E-008  0.5534707E+03  0.7818608E-02  0.1000694E+00
         -2   -1    0    0    0  501 -0.00000000000E+00  0.00000000000E+00  0.80124579125E+03  0.80124579126E+03  0.25500000000E-02 0.  1.
          2   -1    0    0  501    0  0.00000000000E+00 -0.00000000000E+00 -0.47471241278E+03  0.47471241278E+03  0.25500000000E-02 0. -1.
    8880022    1    1    2    0    0  0.47500181059E+03  0.23939798349E+03 -0.11819333122E+03  0.56595002529E+03  0.15294330000E+03 0.  0.
    8880022    1    1    2    0    0 -0.47500181059E+03 -0.23939798349E+03  0.44472670970E+03  0.71000817875E+03  0.15294330000E+03 0.  0.
<mgrwt>
<rscale>  0 0.55347066E+03</rscale>
<asrwt>0</asrwt>
<pdfrwt beam="1">  1        2 0.73032680E-01 0.55347066E+03</pdfrwt>
<pdfrwt beam="2">  1       -2 0.12326858E+00 0.55347066E+03</pdfrwt>
<totfact> 0.33427700E+01</totfact>
</mgrwt>
</event>
<event>
 4    1  0.4840632E-008  0.2698155E+03  0.7818608E-02  0.1101385E+00
          2   -1    0    0  501    0  0.00000000000E+00  0.00000000000E+00  0.14822189408E+04  0.14822189408E+04  0.25500000000E-02 0. -1.
         -2   -1    0    0    0  501 -0.00000000000E+00 -0.00000000000E+00 -0.18750924928E+03  0.18750924930E+03  0.25500000000E-02 0.  1.
    8880022    1    1    2    0    0  0.21448637002E+03 -0.58346613574E+02 -0.69881332977E+02  0.27871810841E+03  0.15294330000E+03 0.  1.
    8880022    1    1    2    0    0 -0.21448637002E+03  0.58346613574E+02  0.13645910245E+04  0.13910100817E+04  0.15294330000E+03 0.  0.
<mgrwt>
<rscale>  0 0.26981546E+03</rscale>
<asrwt>0</asrwt>
<pdfrwt beam="1">  1        2 0.22803367E+00 0.26981546E+03</pdfrwt>
<pdfrwt beam="2">  1       -2 0.28847578E-01 0.26981546E+03</pdfrwt>
<totfact> 0.15484857E+02</totfact>
</mgrwt>
</event>
<event>
 4    1  0.4840632E-008  0.6265204E+03  0.7818608E-02  0.9851863E-01
          2   -1    0    0  501    0  0.00000000000E+00  0.00000000000E+00  0.14089536396E+04  0.14089536396E+04  0.25500000000E-02 0. -1.
         -2   -1    0    0    0  501 -0.00000000000E+00 -0.00000000000E+00 -0.33420681657E+03  0.33420681658E+03  0.25500000000E-02 0.  1.
    8880022    1    1    2    0    0 -0.51493197036E+03 -0.32246113061E+03  0.89290840111E+03  0.10907855796E+04  0.15294330000E+03 0.  0.
    8880022    1    1    2    0    0  0.51493197036E+03  0.32246113061E+03  0.18183842187E+03  0.65237487654E+03  0.15294330000E+03 0.  0.
<mgrwt>
<rscale>  0 0.62652037E+03</rscale>
<asrwt>0</asrwt>
<pdfrwt beam="1">  1        2 0.21676210E+00 0.62652037E+03</pdfrwt>
<pdfrwt beam="2">  1       -2 0.51416432E-01 0.62652037E+03</pdfrwt>
<totfact> 0.52857614E+01</totfact>
</mgrwt>
</event>
<event>
 4    1  0.4840632E-008  0.4203539E+03  0.7818608E-02  0.1036951E+00
         -2   -1    0    0    0  501 -0.00000000000E+00  0.00000000000E+00  0.11088638238E+04  0.11088638238E+04  0.25500000000E-02 0.  1.
          2   -1    0    0  501    0  0.00000000000E+00 -0.00000000000E+00 -0.46832537798E+03  0.46832537799E+03  0.25500000000E-02 0. -1.
    8880022    1    1    2    0    0 -0.18779922855E+03  0.34356546695E+03 -0.32026435338E+03  0.52845689454E+03  0.15294330000E+03 0.  0.
    8880022    1    1    2    0    0  0.18779922855E+03 -0.34356546695E+03  0.96080279924E+03  0.10487323073E+04  0.15294330000E+03 0.  0.
<mgrwt>
<rscale>  0 0.42035394E+03</rscale>
<asrwt>0</asrwt>
<pdfrwt beam="1">  1        2 0.72050059E-01 0.42035394E+03</pdfrwt>
<pdfrwt beam="2">  1       -2 0.17059443E+00 0.42035394E+03</pdfrwt>
<totfact> 0.14831686E+01</totfact>
</mgrwt>
</event>
<event>
 4    1  0.4840632E-008  0.4900319E+03  0.7818608E-02  0.1016414E+00
          2   -1    0    0  501    0  0.00000000000E+00  0.00000000000E+00  0.39100067056E+03  0.39100067057E+03  0.25500000000E-02 0. -1.
         -2   -1    0    0    0  501 -0.00000000000E+00 -0.00000000000E+00 -0.19106725631E+04  0.19106725631E+04  0.25500000000E-02 0.  1.
    8880022    1    1    2    0    0 -0.39409014106E+03 -0.24785594358E+03 -0.17078425201E+04  0.17767547198E+04  0.15294330000E+03 0.  0.
    8880022    1    1    2    0    0  0.39409014106E+03  0.24785594358E+03  0.18817062756E+03  0.52491851381E+03  0.15294330000E+03 0.  0.
<mgrwt>
<rscale>  0 0.49003190E+03</rscale>
<asrwt>0</asrwt>
<pdfrwt beam="1">  1        2 0.60153950E-01 0.49003190E+03</pdfrwt>
<pdfrwt beam="2">  1       -2 0.29394962E+00 0.49003190E+03</pdfrwt>
<totfact> 0.30730495E+00</totfact>
</mgrwt>
</event>
<event>
 4    1  0.4840632E-008  0.1205050E+04  0.7818608E-02  0.9108448E-01
          2   -1    0    0  501    0  0.00000000000E+00  0.00000000000E+00  0.12036937479E+04  0.12036937479E+04  0.25500000000E-02 0. -1.
         -2   -1    0    0    0  501 -0.00000000000E+00 -0.00000000000E+00 -0.14500976859E+04  0.14500976859E+04  0.25500000000E-02 0.  1.
    8880022    1    1    2    0    0  0.62924668673E+03  0.10162690127E+04  0.42074523373E+03  0.12763903414E+04  0.15294330000E+03 0.  0.
    8880022    1    1    2    0    0 -0.62924668673E+03 -0.10162690127E+04 -0.66714917173E+03  0.13774010924E+04  0.15294330000E+03 0.  0.
<mgrwt>
<rscale>  0 0.12050501E+04</rscale>
<asrwt>0</asrwt>
<pdfrwt beam="1">  1        2 0.18518365E+00 0.12050501E+04</pdfrwt>
<pdfrwt beam="2">  1       -2 0.22309195E+00 0.12050501E+04</pdfrwt>
<totfact> 0.17286941E+00</totfact>
</mgrwt>
</event>
<event>
 4    1  0.4840632E-008  0.2700241E+03  0.7818608E-02  0.1101266E+00
          2   -1    0    0  501    0  0.00000000000E+00  0.00000000000E+00  0.18627875305E+04  0.18627875305E+04  0.25500000000E-02 0. -1.
         -2   -1    0    0    0  501 -0.00000000000E+00 -0.00000000000E+00 -0.65617074937E+02  0.65617074987E+02  0.25500000000E-02 0.  1.
    8880022    1    1    2    0    0 -0.18130675104E+03 -0.12903179319E+03  0.28612292295E+03  0.39342003213E+03  0.15294330000E+03 0.  0.
    8880022    1    1    2    0    0  0.18130675104E+03  0.12903179319E+03  0.15110475326E+04  0.15349845733E+04  0.15294330000E+03 0.  0.
<mgrwt>
<rscale>  0 0.27002406E+03</rscale>
<asrwt>0</asrwt>
<pdfrwt beam="1">  1        2 0.28658270E+00 0.27002406E+03</pdfrwt>
<pdfrwt beam="2">  1       -2 0.10094935E-01 0.27002406E+03</pdfrwt>
<totfact> 0.57456585E+02</totfact>
</mgrwt>
</event>
<event>
 4    1  0.4840632E-008  0.9063077E+03  0.7818608E-02  0.9417731E-01
          2   -1    0    0  501    0  0.00000000000E+00  0.00000000000E+00  0.82336843183E+03  0.82336843184E+03  0.25500000000E-02 0. -1.
         -2   -1    0    0    0  501 -0.00000000000E+00 -0.00000000000E+00 -0.10184052455E+04  0.10184052455E+04  0.25500000000E-02 0.  1.
    8880022    1    1    2    0    0  0.89277516867E+03  0.30893974598E+02 -0.22913680290E+03  0.93482472524E+03  0.15294330000E+03 0.  0.
    8880022    1    1    2    0    0 -0.89277516867E+03 -0.30893974598E+02  0.34099989216E+02  0.90694895212E+03  0.15294330000E+03 0.  0.
<mgrwt>
<rscale>  0 0.90630767E+03</rscale>
<asrwt>0</asrwt>
<pdfrwt beam="1">  1        2 0.12667207E+00 0.90630767E+03</pdfrwt>
<pdfrwt beam="2">  1       -2 0.15667773E+00 0.90630767E+03</pdfrwt>
<totfact> 0.88398009E+00</totfact>
</mgrwt>
</event>
<event>
 4    1  0.4840632E-008  0.1694187E+03  0.7818608E-02  0.1178455E+00
         -2   -1    0    0    0  501 -0.00000000000E+00  0.00000000000E+00  0.19986258747E+03  0.19986258749E+03  0.25500000000E-02 0.  1.
          2   -1    0    0  501    0  0.00000000000E+00 -0.00000000000E+00 -0.81192306941E+03  0.81192306941E+03  0.25500000000E-02 0. -1.
    8880022    1    1    2    0    0 -0.32749328188E+01 -0.72803204405E+02  0.15294618397E+03  0.22824377311E+03  0.15294330000E+03 0.  1.
    8880022    1    1    2    0    0  0.32749328188E+01  0.72803204405E+02 -0.76500666590E+03  0.78354188379E+03  0.15294330000E+03 0.  0.
<mgrwt>
<rscale>  0 0.16941867E+03</rscale>
<asrwt>0</asrwt>
<pdfrwt beam="1">  1        2 0.12491124E+00 0.16941867E+03</pdfrwt>
<pdfrwt beam="2">  1       -2 0.30748091E-01 0.16941867E+03</pdfrwt>
<totfact> 0.34662320E+02</totfact>
</mgrwt>
</event>
<event>
 4    1  0.4840632E-008  0.1333322E+04  0.7818608E-02  0.9003550E-01
         -2   -1    0    0    0  501 -0.00000000000E+00  0.00000000000E+00  0.11196170836E+04  0.11196170836E+04  0.25500000000E-02 0.  1.
          2   -1    0    0  501    0  0.00000000000E+00 -0.00000000000E+00 -0.27790353995E+04  0.27790353995E+04  0.25500000000E-02 0. -1.
    8880022    1    1    2    0    0 -0.56279808670E+03 -0.11990056125E+04 -0.21059512456E+04  0.24925445727E+04  0.15294330000E+03 0.  0.
    8880022    1    1    2    0    0  0.56279808670E+03  0.11990056125E+04  0.44653292974E+03  0.14061079103E+04  0.15294330000E+03 0.  0.
<mgrwt>
<rscale>  0 0.13333221E+04</rscale>
<asrwt>0</asrwt>
<pdfrwt beam="1">  1        2 0.42754391E+00 0.13333221E+04</pdfrwt>
<pdfrwt beam="2">  1       -2 0.17224878E+00 0.13333221E+04</pdfrwt>
<totfact> 0.47083021E-01</totfact>
</mgrwt>
</event>
<event>
 4    1  0.4840632E-008  0.4522747E+03  0.7818608E-02  0.1027046E+00
         -2   -1    0    0    0  501 -0.00000000000E+00  0.00000000000E+00  0.36621674990E+03  0.36621674991E+03  0.25500000000E-02 0.  1.
          2   -1    0    0  501    0  0.00000000000E+00 -0.00000000000E+00 -0.79085967314E+03  0.79085967314E+03  0.25500000000E-02 0. -1.
    8880022    1    1    2    0    0  0.26483598320E+03  0.33320055851E+03 -0.52587440470E+03  0.69361102408E+03  0.15294330000E+03 0.  0.
    8880022    1    1    2    0    0 -0.26483598320E+03 -0.33320055851E+03  0.10123148147E+03  0.46346539898E+03  0.15294330000E+03 0.  0.
<mgrwt>
<rscale>  0 0.45227465E+03</rscale>
<asrwt>0</asrwt>
<pdfrwt beam="1">  1        2 0.12167072E+00 0.45227465E+03</pdfrwt>
<pdfrwt beam="2">  1       -2 0.56341038E-01 0.45227465E+03</pdfrwt>
<totfact> 0.10723009E+02</totfact>
</mgrwt>
</event>
<event>
 4    1  0.4840632E-008  0.4298945E+03  0.7818608E-02  0.1033893E+00
          2   -1    0    0  501    0  0.00000000000E+00  0.00000000000E+00  0.50012699760E+03  0.50012699761E+03  0.25500000000E-02 0. -1.
         -2   -1    0    0    0  501 -0.00000000000E+00 -0.00000000000E+00 -0.16564660328E+04  0.16564660328E+04  0.25500000000E-02 0.  1.
    8880022    1    1    2    0    0 -0.12757124204E+03 -0.38097663761E+03  0.37227399538E+03  0.56868022724E+03  0.15294330000E+03 0. -1.
    8880022    1    1    2    0    0  0.12757124204E+03  0.38097663761E+03 -0.15286130306E+04  0.15879128031E+04  0.15294330000E+03 0.  0.
<mgrwt>
<rscale>  0 0.42989449E+03</rscale>
<asrwt>0</asrwt>
<pdfrwt beam="1">  1        2 0.76942616E-01 0.42989449E+03</pdfrwt>
<pdfrwt beam="2">  1       -2 0.25484092E+00 0.42989449E+03</pdfrwt>
<totfact> 0.40304801E+00</totfact>
</mgrwt>
</event>
<event>
 4    1  0.4840632E-008  0.2316512E+03  0.7818608E-02  0.1125483E+00
         -2   -1    0    0    0  501 -0.00000000000E+00  0.00000000000E+00  0.18321066396E+02  0.18321066574E+02  0.25500000000E-02 0.  1.
          2   -1    0    0  501    0  0.00000000000E+00 -0.00000000000E+00 -0.32569256356E+04  0.32569256356E+04  0.25500000000E-02 0. -1.
    8880022    1    1    2    0    0  0.11047079029E+03 -0.13441284887E+03 -0.21389426644E+04  0.21514502048E+04  0.15294330000E+03 0.  1.
    8880022    1    1    2    0    0 -0.11047079029E+03  0.13441284887E+03 -0.10996619048E+04  0.11237964973E+04  0.15294330000E+03 0. -1.
<mgrwt>
<rscale>  0 0.23165117E+03</rscale>
<asrwt>0</asrwt>
<pdfrwt beam="1">  1        2 0.50106502E+00 0.23165117E+03</pdfrwt>
<pdfrwt beam="2">  1       -2 0.28186282E-02 0.23165117E+03</pdfrwt>
<totfact> 0.68218460E+02</totfact>
</mgrwt>
</event>
<event>
 4    1  0.4840632E-008  0.4297471E+03  0.7818608E-02  0.1033940E+00
         -2   -1    0    0    0  501 -0.00000000000E+00  0.00000000000E+00  0.53102000742E+03  0.53102000742E+03  0.25500000000E-02 0.  1.
          2   -1    0    0  501    0  0.00000000000E+00 -0.00000000000E+00 -0.10464337855E+04  0.10464337855E+04  0.25500000000E-02 0. -1.
    8880022    1    1    2    0    0 -0.39256651081E+03  0.84749512169E+02 -0.90217164553E+03  0.99929789164E+03  0.15294330000E+03 0.  0.
    8880022    1    1    2    0    0  0.39256651081E+03 -0.84749512169E+02  0.38675786740E+03  0.57815590133E+03  0.15294330000E+03 0.  0.
<mgrwt>
<rscale>  0 0.42974713E+03</rscale>
<asrwt>0</asrwt>
<pdfrwt beam="1">  1        2 0.16098981E+00 0.42974713E+03</pdfrwt>
<pdfrwt beam="2">  1       -2 0.81695386E-01 0.42974713E+03</pdfrwt>
<totfact> 0.32850867E+01</totfact>
</mgrwt>
</event>
<event>
 4    1  0.4840632E-008  0.5492513E+03  0.7818608E-02  0.1001667E+00
         -2   -1    0    0    0  501 -0.00000000000E+00  0.00000000000E+00  0.12656014314E+04  0.12656014314E+04  0.25500000000E-02 0.  1.
          2   -1    0    0  501    0  0.00000000000E+00 -0.00000000000E+00 -0.39862127072E+03  0.39862127073E+03  0.25500000000E-02 0. -1.
    8880022    1    1    2    0    0  0.78092873554E+02 -0.52171528626E+03 -0.94112230043E+02  0.55725586733E+03  0.15294330000E+03 0. -1.
    8880022    1    1    2    0    0 -0.78092873554E+02  0.52171528626E+03  0.96109239073E+03  0.11069668348E+04  0.15294330000E+03 0.  0.
<mgrwt>
<rscale>  0 0.54925130E+03</rscale>
<asrwt>0</asrwt>
<pdfrwt beam="1">  1        2 0.61326349E-01 0.54925130E+03</pdfrwt>
<pdfrwt beam="2">  1       -2 0.19470791E+00 0.54925130E+03</pdfrwt>
<totfact> 0.11986122E+01</totfact>
</mgrwt>
</event>
<event>
 4    1  0.4840632E-008  0.7234553E+03  0.7818608E-02  0.9677940E-01
          2   -1    0    0  501    0  0.00000000000E+00  0.00000000000E+00  0.18374597043E+04  0.18374597043E+04  0.25500000000E-02 0. -1.
         -2   -1    0    0    0  501 -0.00000000000E+00 -0.00000000000E+00 -0.31251770193E+03  0.31251770194E+03  0.25500000000E-02 0.  1.
    8880022    1    1    2    0    0  0.30748098261E+03 -0.63675064750E+03  0.44257573883E+03  0.84809249459E+03  0.15294330000E+03 0.  0.
    8880022    1    1    2    0    0 -0.30748098261E+03  0.63675064750E+03  0.10823662636E+04  0.13018849117E+04  0.15294330000E+03 0.  0.
<mgrwt>
<rscale>  0 0.72345532E+03</rscale>
<asrwt>0</asrwt>
<pdfrwt beam="1">  1        2 0.28268611E+00 0.72345532E+03</pdfrwt>
<pdfrwt beam="2">  1       -2 0.48079647E-01 0.72345532E+03</pdfrwt>
<totfact> 0.34794071E+01</totfact>
</mgrwt>
</event>
<event>
 4    1  0.4840632E-008  0.9306178E+03  0.7818608E-02  0.9388097E-01
         -2   -1    0    0    0  501 -0.00000000000E+00  0.00000000000E+00  0.35795177258E+03  0.35795177259E+03  0.25500000000E-02 0.  1.
          2   -1    0    0  501    0  0.00000000000E+00 -0.00000000000E+00 -0.31396164884E+04  0.31396164884E+04  0.25500000000E-02 0. -1.
    8880022    1    1    2    0    0 -0.87501048067E+03 -0.27751471995E+03 -0.55328025792E+03  0.10826672886E+04  0.15294330000E+03 0.  0.
    8880022    1    1    2    0    0  0.87501048067E+03  0.27751471995E+03 -0.22283844579E+04  0.24149009724E+04  0.15294330000E+03 0.  0.
<mgrwt>
<rscale>  0 0.93061776E+03</rscale>
<asrwt>0</asrwt>
<pdfrwt beam="1">  1        2 0.48301790E+00 0.93061776E+03</pdfrwt>
<pdfrwt beam="2">  1       -2 0.55069506E-01 0.93061776E+03</pdfrwt>
<totfact> 0.45655822E+00</totfact>
</mgrwt>
</event>
<event>
 4    1  0.4840632E-008  0.9542927E+03  0.7818608E-02  0.9360147E-01
          2   -1    0    0  501    0  0.00000000000E+00  0.00000000000E+00  0.21899447684E+04  0.21899447684E+04  0.25500000000E-02 0. -1.
         -2   -1    0    0    0  501 -0.00000000000E+00 -0.00000000000E+00 -0.45441187226E+03  0.45441187227E+03  0.25500000000E-02 0.  1.
    8880022    1    1    2    0    0  0.88330363701E+03 -0.32719669242E+03  0.12529608454E+04  0.15749874678E+04  0.15294330000E+03 0.  0.
    8880022    1    1    2    0    0 -0.88330363701E+03  0.32719669242E+03  0.48257205077E+03  0.10693691729E+04  0.15294330000E+03 0.  0.
<mgrwt>
<rscale>  0 0.95429275E+03</rscale>
<asrwt>0</asrwt>
<pdfrwt beam="1">  1        2 0.33691459E+00 0.95429275E+03</pdfrwt>
<pdfrwt beam="2">  1       -2 0.69909517E-01 0.95429275E+03</pdfrwt>
<totfact> 0.98618440E+00</totfact>
</mgrwt>
</event>
<event>
 4    1  0.4840632E-008  0.2194209E+03  0.7818608E-02  0.1134316E+00
          2   -1    0    0  501    0  0.00000000000E+00  0.00000000000E+00  0.98979685764E+03  0.98979685764E+03  0.25500000000E-02 0. -1.
         -2   -1    0    0    0  501 -0.00000000000E+00 -0.00000000000E+00 -0.14011842983E+03  0.14011842985E+03  0.25500000000E-02 0.  1.
    8880022    1    1    2    0    0 -0.11242564945E+02 -0.15693151156E+03 -0.31642330542E+02  0.22169074108E+03  0.15294330000E+03 0.  0.
    8880022    1    1    2    0    0  0.11242564945E+02  0.15693151156E+03  0.88132075835E+03  0.90822454641E+03  0.15294330000E+03 0. -1.
<mgrwt>
<rscale>  0 0.21942094E+03</rscale>
<asrwt>0</asrwt>
<pdfrwt beam="1">  1        2 0.15227644E+00 0.21942094E+03</pdfrwt>
<pdfrwt beam="2">  1       -2 0.21556682E-01 0.21942094E+03</pdfrwt>
<totfact> 0.49669508E+02</totfact>
</mgrwt>
</event>
<event>
 4    1  0.4840632E-008  0.3719708E+03  0.7818608E-02  0.1053942E+00
         -2   -1    0    0    0  501 -0.00000000000E+00  0.00000000000E+00  0.29855993788E+03  0.29855993790E+03  0.25500000000E-02 0.  1.
          2   -1    0    0  501    0  0.00000000000E+00 -0.00000000000E+00 -0.73340253620E+03  0.73340253621E+03  0.25500000000E-02 0. -1.
    8880022    1    1    2    0    0 -0.15221073418E+03  0.30298927541E+03  0.95633814808E+02  0.38406781714E+03  0.15294330000E+03 0.  0.
    8880022    1    1    2    0    0  0.15221073418E+03 -0.30298927541E+03 -0.53047641312E+03  0.64789465696E+03  0.15294330000E+03 0.  0.
<mgrwt>
<rscale>  0 0.37197078E+03</rscale>
<asrwt>0</asrwt>
<pdfrwt beam="1">  1        2 0.11283116E+00 0.37197078E+03</pdfrwt>
<pdfrwt beam="2">  1       -2 0.45932299E-01 0.37197078E+03</pdfrwt>
<totfact> 0.17994943E+02</totfact>
</mgrwt>
</event>
<event>
 4    1  0.4840632E-008  0.1428647E+04  0.7818608E-02  0.8933339E-01
         -2   -1    0    0    0  501 -0.00000000000E+00  0.00000000000E+00  0.72373630443E+03  0.72373630443E+03  0.25500000000E-02 0.  1.
          2   -1    0    0  501    0  0.00000000000E+00 -0.00000000000E+00 -0.36858162771E+04  0.36858162771E+04  0.25500000000E-02 0. -1.
    8880022    1    1    2    0    0 -0.46723224662E+03  0.13413928912E+04 -0.41253329943E+03  0.14870158832E+04  0.15294330000E+03 0.  1.
    8880022    1    1    2    0    0  0.46723224662E+03 -0.13413928912E+04 -0.25495466733E+04  0.29225366983E+04  0.15294330000E+03 0.  0.
<mgrwt>
<rscale>  0 0.14286471E+04</rscale>
<asrwt>0</asrwt>
<pdfrwt beam="1">  1        2 0.56704865E+00 0.14286471E+04</pdfrwt>
<pdfrwt beam="2">  1       -2 0.11134405E+00 0.14286471E+04</pdfrwt>
<totfact> 0.37045262E-01</totfact>
</mgrwt>
</event>
<event>
 4    1  0.4840632E-008  0.1634964E+03  0.7818608E-02  0.1184805E+00
         -2   -1    0    0    0  501 -0.00000000000E+00  0.00000000000E+00  0.24477872057E+03  0.24477872058E+03  0.25500000000E-02 0.  1.
          2   -1    0    0  501    0  0.00000000000E+00 -0.00000000000E+00 -0.53960173284E+03  0.53960173284E+03  0.25500000000E-02 0. -1.
    8880022    1    1    2    0    0  0.20978622605E+02 -0.53845160940E+02 -0.49767476873E+03  0.52384275543E+03  0.15294330000E+03 0.  0.
    8880022    1    1    2    0    0 -0.20978622605E+02  0.53845160940E+02  0.20285175646E+03  0.26053769800E+03  0.15294330000E+03 0.  1.
<mgrwt>
<rscale>  0 0.16349635E+03</rscale>
<asrwt>0</asrwt>
<pdfrwt beam="1">  1        2 0.83015651E-01 0.16349635E+03</pdfrwt>
<pdfrwt beam="2">  1       -2 0.37658265E-01 0.16349635E+03</pdfrwt>
<totfact> 0.38668391E+02</totfact>
</mgrwt>
</event>
<event>
 4    1  0.4840632E-008  0.2449782E+03  0.7818608E-02  0.1116520E+00
         -2   -1    0    0    0  501 -0.00000000000E+00  0.00000000000E+00  0.11059323817E+04  0.11059323817E+04  0.25500000000E-02 0.  1.
          2   -1    0    0  501    0  0.00000000000E+00 -0.00000000000E+00 -0.86179313436E+03  0.86179313436E+03  0.25500000000E-02 0. -1.
    8880022    1    1    2    0    0 -0.13489916711E+03 -0.13573822197E+03 -0.83031335111E+03  0.86569888774E+03  0.15294330000E+03 0.  0.
    8880022    1    1    2    0    0  0.13489916711E+03  0.13573822197E+03  0.10744525985E+04  0.11020266284E+04  0.15294330000E+03 0.  0.
<mgrwt>
<rscale>  0 0.24497817E+03</rscale>
<asrwt>0</asrwt>
<pdfrwt beam="1">  1        2 0.13258356E+00 0.24497817E+03</pdfrwt>
<pdfrwt beam="2">  1       -2 0.17014344E+00 0.24497817E+03</pdfrwt>
<totfact> 0.75036333E+00</totfact>
</mgrwt>
</event>
<event>
 4    1  0.4840632E-008  0.1317705E+04  0.7818608E-02  0.9015642E-01
          2   -1    0    0  501    0  0.00000000000E+00  0.00000000000E+00  0.44120487130E+04  0.44120487130E+04  0.25500000000E-02 0. -1.
         -2   -1    0    0    0  501 -0.00000000000E+00 -0.00000000000E+00 -0.82822296835E+03  0.82822296836E+03  0.25500000000E-02 0.  1.
    8880022    1    1    2    0    0 -0.58367717852E+03 -0.11714417515E+04  0.36900746355E+04  0.39182900984E+04  0.15294330000E+03 0.  0.
    8880022    1    1    2    0    0  0.58367717852E+03  0.11714417515E+04 -0.10624889090E+03  0.13219815830E+04  0.15294330000E+03 0.  0.
<mgrwt>
<rscale>  0 0.13177050E+04</rscale>
<asrwt>0</asrwt>
<pdfrwt beam="1">  1        2 0.67877674E+00 0.13177050E+04</pdfrwt>
<pdfrwt beam="2">  1       -2 0.12741892E+00 0.13177050E+04</pdfrwt>
<totfact> 0.68430139E-02</totfact>
</mgrwt>
</event>
<event>
 4    1  0.4840632E-008  0.3558878E+03  0.7818608E-02  0.1060224E+00
         -2   -1    0    0    0  501 -0.00000000000E+00  0.00000000000E+00  0.29555352278E+03  0.29555352279E+03  0.25500000000E-02 0.  1.
          2   -1    0    0  501    0  0.00000000000E+00 -0.00000000000E+00 -0.90509708867E+03  0.90509708867E+03  0.25500000000E-02 0. -1.
    8880022    1    1    2    0    0  0.31865942499E+03 -0.41480999989E+02 -0.74038101471E+03  0.82147440767E+03  0.15294330000E+03 0.  0.
    8880022    1    1    2    0    0 -0.31865942499E+03  0.41480999989E+02  0.13083744882E+03  0.37917620379E+03  0.15294330000E+03 0.  0.
<mgrwt>
<rscale>  0 0.35588784E+03</rscale>
<asrwt>0</asrwt>
<pdfrwt beam="1">  1        2 0.13924571E+00 0.35588784E+03</pdfrwt>
<pdfrwt beam="2">  1       -2 0.45469773E-01 0.35588784E+03</pdfrwt>
<totfact> 0.13979824E+02</totfact>
</mgrwt>
</event>
<event>
 4    1  0.4840632E-008  0.1573895E+03  0.7818608E-02  0.1191676E+00
         -2   -1    0    0    0  501 -0.00000000000E+00  0.00000000000E+00  0.26641900053E+03  0.26641900054E+03  0.25500000000E-02 0.  1.
          2   -1    0    0  501    0  0.00000000000E+00 -0.00000000000E+00 -0.21200027525E+03  0.21200027526E+03  0.25500000000E-02 0. -1.
    8880022    1    1    2    0    0  0.36696888773E+02 -0.57564778655E+01 -0.15202538834E+03  0.21882223470E+03  0.15294330000E+03 0. -1.
    8880022    1    1    2    0    0 -0.36696888773E+02  0.57564778655E+01  0.20644411363E+03  0.25959704110E+03  0.15294330000E+03 0.  0.
<mgrwt>
<rscale>  0 0.15738949E+03</rscale>
<asrwt>0</asrwt>
<pdfrwt beam="1">  1        2 0.32615427E-01 0.15738949E+03</pdfrwt>
<pdfrwt beam="2">  1       -2 0.40987538E-01 0.15738949E+03</pdfrwt>
<totfact> 0.90153139E+02</totfact>
</mgrwt>
</event>
<event>
 4    1  0.4840632E-008  0.8325547E+03  0.7818608E-02  0.9514055E-01
         -2   -1    0    0    0  501 -0.00000000000E+00  0.00000000000E+00  0.70815788858E+03  0.70815788858E+03  0.25500000000E-02 0.  1.
          2   -1    0    0  501    0  0.00000000000E+00 -0.00000000000E+00 -0.23920017982E+04  0.23920017982E+04  0.25500000000E-02 0. -1.
    8880022    1    1    2    0    0  0.44553095361E+03 -0.68648223127E+03  0.34952548607E+03  0.90294817288E+03  0.15294330000E+03 0.  0.
    8880022    1    1    2    0    0 -0.44553095361E+03  0.68648223127E+03 -0.20333693957E+04  0.21972115139E+04  0.15294330000E+03 0.  0.
<mgrwt>
<rscale>  0 0.83255471E+03</rscale>
<asrwt>0</asrwt>
<pdfrwt beam="1">  1        2 0.36800027E+00 0.83255471E+03</pdfrwt>
<pdfrwt beam="2">  1       -2 0.10894737E+00 0.83255471E+03</pdfrwt>
<totfact> 0.27882081E+00</totfact>
</mgrwt>
</event>
<event>
 4    1  0.4840632E-008  0.3802561E+03  0.7818608E-02  0.1050839E+00
          2   -1    0    0  501    0  0.00000000000E+00  0.00000000000E+00  0.22031079906E+04  0.22031079906E+04  0.25500000000E-02 0. -1.
         -2   -1    0    0    0  501 -0.00000000000E+00 -0.00000000000E+00 -0.13339759799E+03  0.13339759801E+03  0.25500000000E-02 0.  1.
    8880022    1    1    2    0    0  0.31517889002E+03 -0.14786915254E+03  0.20219646238E+03  0.43067166310E+03  0.15294330000E+03 0.  0.
    8880022    1    1    2    0    0 -0.31517889002E+03  0.14786915254E+03  0.18675139302E+04  0.19058339255E+04  0.15294330000E+03 0.  0.
<mgrwt>
<rscale>  0 0.38025606E+03</rscale>
<asrwt>0</asrwt>
<pdfrwt beam="1">  1        2 0.33893971E+00 0.38025606E+03</pdfrwt>
<pdfrwt beam="2">  1       -2 0.20522706E-01 0.38025606E+03</pdfrwt>
<totfact> 0.11423378E+02</totfact>
</mgrwt>
</event>
<event>
 4    1  0.4840632E-008  0.1156573E+04  0.7818608E-02  0.9151741E-01
          2   -1    0    0  501    0  0.00000000000E+00  0.00000000000E+00  0.21367803145E+04  0.21367803145E+04  0.25500000000E-02 0. -1.
         -2   -1    0    0    0  501 -0.00000000000E+00 -0.00000000000E+00 -0.88899482799E+03  0.88899482800E+03  0.25500000000E-02 0.  1.
    8880022    1    1    2    0    0 -0.11230842170E+04 -0.23010916882E+03  0.14467355920E+04  0.18522159469E+04  0.15294330000E+03 0.  0.
    8880022    1    1    2    0    0  0.11230842170E+04  0.23010916882E+03 -0.19895010548E+03  0.11735591956E+04  0.15294330000E+03 0.  0.
<mgrwt>
<rscale>  0 0.11565725E+04</rscale>
<asrwt>0</asrwt>
<pdfrwt beam="1">  1        2 0.32873543E+00 0.11565725E+04</pdfrwt>
<pdfrwt beam="2">  1       -2 0.13676844E+00 0.11565725E+04</pdfrwt>
<totfact> 0.20962173E+00</totfact>
</mgrwt>
</event>
<event>
 4    1  0.4840632E-008  0.4044620E+03  0.7818608E-02  0.1042246E+00
         -2   -1    0    0    0  501 -0.00000000000E+00  0.00000000000E+00  0.18112306766E+03  0.18112306768E+03  0.25500000000E-02 0.  1.
          2   -1    0    0  501    0  0.00000000000E+00 -0.00000000000E+00 -0.26861029644E+04  0.26861029644E+04  0.25500000000E-02 0. -1.
    8880022    1    1    2    0    0 -0.36315406981E+03 -0.91197319374E+02 -0.84510913336E+02  0.41319677754E+03  0.15294330000E+03 0.  0.
    8880022    1    1    2    0    0  0.36315406981E+03  0.91197319374E+02 -0.24204689834E+04  0.24540292545E+04  0.15294330000E+03 0.  0.
<mgrwt>
<rscale>  0 0.40446197E+03</rscale>
<asrwt>0</asrwt>
<pdfrwt beam="1">  1        2 0.41324658E+00 0.40446197E+03</pdfrwt>
<pdfrwt beam="2">  1       -2 0.27865089E-01 0.40446197E+03</pdfrwt>
<totfact> 0.35704512E+01</totfact>
</mgrwt>
</event>
<event>
 4    1  0.4840632E-008  0.6149542E+03  0.7818608E-02  0.9874858E-01
         -2   -1    0    0    0  501 -0.00000000000E+00  0.00000000000E+00  0.37464224859E+03  0.37464224860E+03  0.25500000000E-02 0.  1.
          2   -1    0    0  501    0  0.00000000000E+00 -0.00000000000E+00 -0.22461081117E+04  0.22461081117E+04  0.25500000000E-02 0. -1.
    8880022    1    1    2    0    0 -0.52266504805E+03  0.28565404270E+03  0.36592640928E+02  0.61604192954E+03  0.15294330000E+03 0.  0.
    8880022    1    1    2    0    0  0.52266504805E+03 -0.28565404270E+03 -0.19080585041E+04  0.20047084308E+04  0.15294330000E+03 0.  0.
<mgrwt>
<rscale>  0 0.61495418E+03</rscale>
<asrwt>0</asrwt>
<pdfrwt beam="1">  1        2 0.34555509E+00 0.61495418E+03</pdfrwt>
<pdfrwt beam="2">  1       -2 0.57637270E-01 0.61495418E+03</pdfrwt>
<totfact> 0.14598062E+01</totfact>
</mgrwt>
</event>
<event>
 4    1  0.4840632E-008  0.1154280E+04  0.7818608E-02  0.9153844E-01
         -2   -1    0    0    0  501 -0.00000000000E+00  0.00000000000E+00  0.16502958557E+04  0.16502958557E+04  0.25500000000E-02 0.  1.
          2   -1    0    0  501    0  0.00000000000E+00 -0.00000000000E+00 -0.98516434825E+03  0.98516434825E+03  0.25500000000E-02 0. -1.
    8880022    1    1    2    0    0  0.97860082662E+03  0.59271500171E+03  0.89239879286E+03  0.14590195028E+04  0.15294330000E+03 0.  0.
    8880022    1    1    2    0    0 -0.97860082662E+03 -0.59271500171E+03 -0.22726728546E+03  0.11764407011E+04  0.15294330000E+03 0.  0.
<mgrwt>
<rscale>  0 0.11542800E+04</rscale>
<asrwt>0</asrwt>
<pdfrwt beam="1">  1        2 0.15156375E+00 0.11542800E+04</pdfrwt>
<pdfrwt beam="2">  1       -2 0.25389167E+00 0.11542800E+04</pdfrwt>
<totfact> 0.15338267E+00</totfact>
</mgrwt>
</event>
<event>
 4    1  0.4840632E-008  0.4509118E+03  0.7818608E-02  0.1027450E+00
         -2   -1    0    0    0  501 -0.00000000000E+00  0.00000000000E+00  0.84135738586E+02  0.84135738625E+02  0.25500000000E-02 0.  1.
          2   -1    0    0  501    0  0.00000000000E+00 -0.00000000000E+00 -0.25659685488E+04  0.25659685488E+04  0.25500000000E-02 0. -1.
    8880022    1    1    2    0    0 -0.11090235177E+03  0.40942703692E+03 -0.92120864798E+03  0.10256446053E+04  0.15294330000E+03 0.  0.
    8880022    1    1    2    0    0  0.11090235177E+03 -0.40942703692E+03 -0.15606241623E+04  0.16244596822E+04  0.15294330000E+03 0.  0.
<mgrwt>
<rscale>  0 0.45091184E+03</rscale>
<asrwt>0</asrwt>
<pdfrwt beam="1">  1        2 0.39476433E+00 0.45091184E+03</pdfrwt>
<pdfrwt beam="2">  1       -2 0.12943962E-01 0.45091184E+03</pdfrwt>
<totfact> 0.15508028E+02</totfact>
</mgrwt>
</event>
<event>
 4    1  0.4840632E-008  0.2921323E+03  0.7818608E-02  0.1089241E+00
         -2   -1    0    0    0  501 -0.00000000000E+00  0.00000000000E+00  0.16702056199E+03  0.16702056200E+03  0.25500000000E-02 0.  1.
          2   -1    0    0  501    0  0.00000000000E+00 -0.00000000000E+00 -0.20169139836E+04  0.20169139836E+04  0.25500000000E-02 0. -1.
    8880022    1    1    2    0    0  0.17862911675E+03 -0.17332414340E+03 -0.18685107896E+04  0.18912096245E+04  0.15294330000E+03 0.  0.
    8880022    1    1    2    0    0 -0.17862911675E+03  0.17332414340E+03  0.18617367957E+02  0.29272492111E+03  0.15294330000E+03 0.  1.
<mgrwt>
<rscale>  0 0.29213229E+03</rscale>
<asrwt>0</asrwt>
<pdfrwt beam="1">  1        2 0.31029444E+00 0.29213229E+03</pdfrwt>
<pdfrwt beam="2">  1       -2 0.25695472E-01 0.29213229E+03</pdfrwt>
<totfact> 0.98828171E+01</totfact>
</mgrwt>
</event>
<event>
 4    1  0.4840632E-008  0.6611765E+03  0.7818608E-02  0.9786030E-01
         -2   -1    0    0    0  501 -0.00000000000E+00  0.00000000000E+00  0.39926911914E+03  0.39926911915E+03  0.25500000000E-02 0.  1.
          2   -1    0    0  501    0  0.00000000000E+00 -0.00000000000E+00 -0.18483441479E+04  0.18483441479E+04  0.25500000000E-02 0. -1.
    8880022    1    1    2    0    0 -0.34359111297E+03 -0.54379022310E+03 -0.14420502861E+04  0.15863994895E+04  0.15294330000E+03 0.  0.
    8880022    1    1    2    0    0  0.34359111297E+03  0.54379022310E+03 -0.70247427159E+01  0.66121377759E+03  0.15294330000E+03 0.  0.
<mgrwt>
<rscale>  0 0.66117646E+03</rscale>
<asrwt>0</asrwt>
<pdfrwt beam="1">  1        2 0.28436063E+00 0.66117646E+03</pdfrwt>
<pdfrwt beam="2">  1       -2 0.61426019E-01 0.66117646E+03</pdfrwt>
<totfact> 0.20862656E+01</totfact>
</mgrwt>
</event>
<event>
 4    1  0.4840632E-008  0.3041252E+03  0.7818608E-02  0.1083196E+00
         -2   -1    0    0    0  501 -0.00000000000E+00  0.00000000000E+00  0.34582531317E+03  0.34582531318E+03  0.25500000000E-02 0.  1.
          2   -1    0    0  501    0  0.00000000000E+00 -0.00000000000E+00 -0.59547138191E+03  0.59547138192E+03  0.25500000000E-02 0. -1.
    8880022    1    1    2    0    0  0.26199202027E+03 -0.21462938759E+02 -0.47413621061E+03  0.56329146599E+03  0.15294330000E+03 0. -1.
    8880022    1    1    2    0    0 -0.26199202027E+03  0.21462938759E+02  0.22449014187E+03  0.37800522912E+03  0.15294330000E+03 0.  0.
<mgrwt>
<rscale>  0 0.30412519E+03</rscale>
<asrwt>0</asrwt>
<pdfrwt beam="1">  1        2 0.91610981E-01 0.30412519E+03</pdfrwt>
<pdfrwt beam="2">  1       -2 0.53203895E-01 0.30412519E+03</pdfrwt>
<totfact> 0.17358661E+02</totfact>
</mgrwt>
</event>
<event>
 4    1  0.4840632E-008  0.3588549E+03  0.7818608E-02  0.1059038E+00
         -2   -1    0    0    0  501 -0.00000000000E+00  0.00000000000E+00  0.17310573165E+03  0.17310573167E+03  0.25500000000E-02 0.  1.
          2   -1    0    0  501    0  0.00000000000E+00 -0.00000000000E+00 -0.20104698539E+04  0.20104698539E+04  0.25500000000E-02 0. -1.
    8880022    1    1    2    0    0  0.32071958441E+03 -0.50240839434E+02 -0.52118215910E+02  0.36261984945E+03  0.15294330000E+03 0.  0.
    8880022    1    1    2    0    0 -0.32071958441E+03  0.50240839434E+02 -0.17852459064E+04  0.18209557361E+04  0.15294330000E+03 0.  0.
<mgrwt>
<rscale>  0 0.35885491E+03</rscale>
<asrwt>0</asrwt>
<pdfrwt beam="1">  1        2 0.30930304E+00 0.35885491E+03</pdfrwt>
<pdfrwt beam="2">  1       -2 0.26631652E-01 0.35885491E+03</pdfrwt>
<totfact> 0.91873512E+01</totfact>
</mgrwt>
</event>
<event>
 4    1  0.4840632E-008  0.4445495E+03  0.7818608E-02  0.1029360E+00
          2   -1    0    0  501    0  0.00000000000E+00  0.00000000000E+00  0.62765921331E+03  0.62765921332E+03  0.25500000000E-02 0. -1.
         -2   -1    0    0    0  501 -0.00000000000E+00 -0.00000000000E+00 -0.74814620227E+03  0.74814620228E+03  0.25500000000E-02 0.  1.
    8880022    1    1    2    0    0  0.64987474181E+02 -0.41232174620E+03 -0.58374946144E+03  0.73374905856E+03  0.15294330000E+03 0.  1.
    8880022    1    1    2    0    0 -0.64987474181E+02  0.41232174620E+03  0.46326247248E+03  0.64205635704E+03  0.15294330000E+03 0. -1.
<mgrwt>
<rscale>  0 0.44454949E+03</rscale>
<asrwt>0</asrwt>
<pdfrwt beam="1">  1        2 0.96562956E-01 0.44454949E+03</pdfrwt>
<pdfrwt beam="2">  1       -2 0.11509942E+00 0.44454949E+03</pdfrwt>
<totfact> 0.28913956E+01</totfact>
</mgrwt>
</event>
<event>
 4    1  0.4840632E-008  0.7217024E+03  0.7818608E-02  0.9680821E-01
          2   -1    0    0  501    0  0.00000000000E+00  0.00000000000E+00  0.49672732801E+03  0.49672732802E+03  0.25500000000E-02 0. -1.
         -2   -1    0    0    0  501 -0.00000000000E+00 -0.00000000000E+00 -0.17490649851E+04  0.17490649851E+04  0.25500000000E-02 0.  1.
    8880022    1    1    2    0    0 -0.22881260489E+03  0.66716375628E+03 -0.13367906440E+04  0.15191654172E+04  0.15294330000E+03 0.  0.
    8880022    1    1    2    0    0  0.22881260489E+03 -0.66716375628E+03  0.84452986941E+02  0.72662689591E+03  0.15294330000E+03 0.  0.
<mgrwt>
<rscale>  0 0.72170239E+03</rscale>
<asrwt>0</asrwt>
<pdfrwt beam="1">  1        2 0.76419590E-01 0.72170239E+03</pdfrwt>
<pdfrwt beam="2">  1       -2 0.26908692E+00 0.72170239E+03</pdfrwt>
<totfact> 0.31618067E+00</totfact>
</mgrwt>
</event>
<event>
 4    1  0.4840632E-008  0.6236193E+03  0.7818608E-02  0.9857580E-01
          2   -1    0    0  501    0  0.00000000000E+00  0.00000000000E+00  0.46750499636E+04  0.46750499637E+04  0.25500000000E-02 0. -1.
         -2   -1    0    0    0  501 -0.00000000000E+00 -0.00000000000E+00 -0.16121022154E+03  0.16121022156E+03  0.25500000000E-02 0.  1.
    8880022    1    1    2    0    0 -0.24729883875E+03 -0.55168161672E+03  0.39391939219E+04  0.39882514626E+04  0.15294330000E+03 0.  0.
    8880022    1    1    2    0    0  0.24729883875E+03  0.55168161672E+03  0.57464582026E+03  0.84800872262E+03  0.15294330000E+03 0.  0.
<mgrwt>
<rscale>  0 0.62361925E+03</rscale>
<asrwt>0</asrwt>
<pdfrwt beam="1">  1        2 0.71923837E+00 0.62361925E+03</pdfrwt>
<pdfrwt beam="2">  1       -2 0.24801575E-01 0.62361925E+03</pdfrwt>
<totfact> 0.14120104E+00</totfact>
</mgrwt>
</event>
<event>
 4    1  0.4840632E-008  0.6768873E+03  0.7818608E-02  0.9757595E-01
          2   -1    0    0  501    0  0.00000000000E+00  0.00000000000E+00  0.71441743013E+03  0.71441743014E+03  0.25500000000E-02 0. -1.
         -2   -1    0    0    0  501 -0.00000000000E+00 -0.00000000000E+00 -0.87026802956E+03  0.87026802956E+03  0.25500000000E-02 0.  1.
    8880022    1    1    2    0    0  0.64790686349E+03 -0.12248043469E+03  0.32846819759E+03  0.75237475402E+03  0.15294330000E+03 0.  0.
    8880022    1    1    2    0    0 -0.64790686349E+03  0.12248043469E+03 -0.48431879701E+03  0.83231070568E+03  0.15294330000E+03 0.  0.
<mgrwt>
<rscale>  0 0.67688730E+03</rscale>
<asrwt>0</asrwt>
<pdfrwt beam="1">  1        2 0.10991037E+00 0.67688730E+03</pdfrwt>
<pdfrwt beam="2">  1       -2 0.13388739E+00 0.67688730E+03</pdfrwt>
<totfact> 0.16443432E+01</totfact>
</mgrwt>
</event>
<event>
 4    1  0.4840632E-008  0.3221960E+03  0.7818608E-02  0.1074643E+00
         -2   -1    0    0    0  501 -0.00000000000E+00  0.00000000000E+00  0.54394500915E+03  0.54394500916E+03  0.25500000000E-02 0.  1.
          2   -1    0    0  501    0  0.00000000000E+00 -0.00000000000E+00 -0.18806189779E+04  0.18806189779E+04  0.25500000000E-02 0. -1.
    8880022    1    1    2    0    0 -0.16235532455E+03  0.23250670025E+03 -0.18174620552E+04  0.18458002579E+04  0.15294330000E+03 0. -1.
    8880022    1    1    2    0    0  0.16235532455E+03 -0.23250670025E+03  0.48078808645E+03  0.57876372913E+03  0.15294330000E+03 0.  0.
<mgrwt>
<rscale>  0 0.32219601E+03</rscale>
<asrwt>0</asrwt>
<pdfrwt beam="1">  1        2 0.28932599E+00 0.32219601E+03</pdfrwt>
<pdfrwt beam="2">  1       -2 0.83683848E-01 0.32219601E+03</pdfrwt>
<totfact> 0.11040384E+01</totfact>
</mgrwt>
</event>
<event>
 4    1  0.4840632E-008  0.3413012E+03  0.7818608E-02  0.1066243E+00
         -2   -1    0    0    0  501 -0.00000000000E+00  0.00000000000E+00  0.11012249067E+04  0.11012249067E+04  0.25500000000E-02 0.  1.
          2   -1    0    0  501    0  0.00000000000E+00 -0.00000000000E+00 -0.42710585594E+03  0.42710585594E+03  0.25500000000E-02 0. -1.
    8880022    1    1    2    0    0  0.26103563758E+03  0.15797232239E+03  0.99987567646E+03  0.10565215947E+04  0.15294330000E+03 0.  0.
    8880022    1    1    2    0    0 -0.26103563758E+03 -0.15797232239E+03 -0.32575662570E+03  0.47180916792E+03  0.15294330000E+03 0. -1.
<mgrwt>
<rscale>  0 0.34130120E+03</rscale>
<asrwt>0</asrwt>
<pdfrwt beam="1">  1        2 0.65708593E-01 0.34130120E+03</pdfrwt>
<pdfrwt beam="2">  1       -2 0.16941922E+00 0.34130120E+03</pdfrwt>
<totfact> 0.16997291E+01</totfact>
</mgrwt>
</event>
<event>
 4    1  0.4840632E-008  0.4198597E+03  0.7818608E-02  0.1037112E+00
          2   -1    0    0  501    0  0.00000000000E+00  0.00000000000E+00  0.43306648979E+03  0.43306648980E+03  0.25500000000E-02 0. -1.
         -2   -1    0    0    0  501 -0.00000000000E+00 -0.00000000000E+00 -0.22716157222E+04  0.22716157222E+04  0.25500000000E-02 0.  1.
    8880022    1    1    2    0    0 -0.35607809037E+03  0.16155159891E+03  0.30592542179E+03  0.51949258154E+03  0.15294330000E+03 0.  0.
    8880022    1    1    2    0    0  0.35607809037E+03 -0.16155159891E+03 -0.21444746542E+04  0.21851896305E+04  0.15294330000E+03 0.  0.
<mgrwt>
<rscale>  0 0.41985971E+03</rscale>
<asrwt>0</asrwt>
<pdfrwt beam="1">  1        2 0.66625615E-01 0.41985971E+03</pdfrwt>
<pdfrwt beam="2">  1       -2 0.34947933E+00 0.41985971E+03</pdfrwt>
<totfact> 0.12947271E+00</totfact>
</mgrwt>
</event>
<event>
 4    1  0.4840632E-008  0.9556737E+03  0.7818608E-02  0.9358543E-01
          2   -1    0    0  501    0  0.00000000000E+00  0.00000000000E+00  0.89142397331E+03  0.89142397332E+03  0.25500000000E-02 0. -1.
         -2   -1    0    0    0  501 -0.00000000000E+00 -0.00000000000E+00 -0.13549182829E+04  0.13549182829E+04  0.25500000000E-02 0.  1.
    8880022    1    1    2    0    0 -0.42531855059E+03 -0.84203607276E+03  0.32286032480E+03  0.10087373591E+04  0.15294330000E+03 0.  0.
    8880022    1    1    2    0    0  0.42531855059E+03  0.84203607276E+03 -0.78635463438E+03  0.12376048971E+04  0.15294330000E+03 0.  0.
<mgrwt>
<rscale>  0 0.95567373E+03</rscale>
<asrwt>0</asrwt>
<pdfrwt beam="1">  1        2 0.13714215E+00 0.95567373E+03</pdfrwt>
<pdfrwt beam="2">  1       -2 0.20844897E+00 0.95567373E+03</pdfrwt>
<totfact> 0.34746932E+00</totfact>
</mgrwt>
</event>
<event>
 4    1  0.4840632E-008  0.5274066E+03  0.7818608E-02  0.1006863E+00
         -2   -1    0    0    0  501 -0.00000000000E+00  0.00000000000E+00  0.58627286326E+03  0.58627286327E+03  0.25500000000E-02 0.  1.
          2   -1    0    0  501    0  0.00000000000E+00 -0.00000000000E+00 -0.24995759191E+04  0.24995759191E+04  0.25500000000E-02 0. -1.
    8880022    1    1    2    0    0 -0.50470177517E+03 -0.64936788573E+01  0.43214107729E+03  0.68183840711E+03  0.15294330000E+03 0.  0.
    8880022    1    1    2    0    0  0.50470177517E+03  0.64936788573E+01 -0.23454441331E+04  0.24040103752E+04  0.15294330000E+03 0.  0.
<mgrwt>
<rscale>  0 0.52740658E+03</rscale>
<asrwt>0</asrwt>
<pdfrwt beam="1">  1        2 0.38455014E+00 0.52740658E+03</pdfrwt>
<pdfrwt beam="2">  1       -2 0.90195826E-01 0.52740658E+03</pdfrwt>
<totfact> 0.40405316E+00</totfact>
</mgrwt>
</event>
<event>
 4    1  0.4840632E-008  0.7193120E+03  0.7818608E-02  0.9684764E-01
          2   -1    0    0  501    0  0.00000000000E+00  0.00000000000E+00  0.41953977081E+03  0.41953977082E+03  0.25500000000E-02 0. -1.
         -2   -1    0    0    0  501 -0.00000000000E+00 -0.00000000000E+00 -0.13532617725E+04  0.13532617726E+04  0.25500000000E-02 0.  1.
    8880022    1    1    2    0    0  0.12377006168E+03 -0.69188082806E+03 -0.20292543182E+03  0.74738777907E+03  0.15294330000E+03 0.  0.
    8880022    1    1    2    0    0 -0.12377006168E+03  0.69188082806E+03 -0.73079656992E+03  0.10254137643E+04  0.15294330000E+03 0.  0.
<mgrwt>
<rscale>  0 0.71931201E+03</rscale>
<asrwt>0</asrwt>
<pdfrwt beam="1">  1        2 0.64544581E-01 0.71931201E+03</pdfrwt>
<pdfrwt beam="2">  1       -2 0.20819412E+00 0.71931201E+03</pdfrwt>
<totfact> 0.90692796E+00</totfact>
</mgrwt>
</event>
<event>
 4    1  0.4840632E-008  0.3762470E+03  0.7818608E-02  0.1052330E+00
         -2   -1    0    0    0  501 -0.00000000000E+00  0.00000000000E+00  0.19550427348E+04  0.19550427348E+04  0.25500000000E-02 0.  1.
          2   -1    0    0  501    0  0.00000000000E+00 -0.00000000000E+00 -0.49715212958E+03  0.49715212958E+03  0.25500000000E-02 0. -1.
    8880022    1    1    2    0    0  0.35106749365E+01  0.34374095623E+03  0.18622423017E+04  0.18998705780E+04  0.15294330000E+03 0.  0.
    8880022    1    1    2    0    0 -0.35106749365E+01 -0.34374095623E+03 -0.40435169651E+03  0.55232428637E+03  0.15294330000E+03 0.  0.
<mgrwt>
<rscale>  0 0.37624702E+03</rscale>
<asrwt>0</asrwt>
<pdfrwt beam="1">  1        2 0.76484943E-01 0.37624702E+03</pdfrwt>
<pdfrwt beam="2">  1       -2 0.30077581E+00 0.37624702E+03</pdfrwt>
<totfact> 0.22047045E+00</totfact>
</mgrwt>
</event>
<event>
 4    1  0.4840632E-008  0.5693412E+03  0.7818608E-02  0.9971138E-01
         -2   -1    0    0    0  501 -0.00000000000E+00  0.00000000000E+00  0.59890090988E+03  0.59890090989E+03  0.25500000000E-02 0.  1.
          2   -1    0    0  501    0  0.00000000000E+00 -0.00000000000E+00 -0.18507880496E+04  0.18507880496E+04  0.25500000000E-02 0. -1.
    8880022    1    1    2    0    0  0.49780687387E+03 -0.23010006082E+03 -0.16562425187E+04  0.17513676529E+04  0.15294330000E+03 0.  0.
    8880022    1    1    2    0    0 -0.49780687387E+03  0.23010006082E+03  0.40435537904E+03  0.69832130659E+03  0.15294330000E+03 0.  1.
<mgrwt>
<rscale>  0 0.56934118E+03</rscale>
<asrwt>0</asrwt>
<pdfrwt beam="1">  1        2 0.28473662E+00 0.56934118E+03</pdfrwt>
<pdfrwt beam="2">  1       -2 0.92138603E-01 0.56934118E+03</pdfrwt>
<totfact> 0.86188298E+00</totfact>
</mgrwt>
</event>
<event>
 4    1  0.4840632E-008  0.8463453E+03  0.7818608E-02  0.9495255E-01
         -2   -1    0    0    0  501 -0.00000000000E+00  0.00000000000E+00  0.97350335092E+03  0.97350335092E+03  0.25500000000E-02 0.  1.
          2   -1    0    0  501    0  0.00000000000E+00 -0.00000000000E+00 -0.85653819977E+03  0.85653819978E+03  0.25500000000E-02 0. -1.
    8880022    1    1    2    0    0 -0.37218891149E+02 -0.83157892929E+03 -0.28506439682E+03  0.89306333753E+03  0.15294330000E+03 0.  0.
    8880022    1    1    2    0    0  0.37218891149E+02  0.83157892929E+03  0.40202954797E+03  0.93697821316E+03  0.15294330000E+03 0.  0.
<mgrwt>
<rscale>  0 0.84634533E+03</rscale>
<asrwt>0</asrwt>
<pdfrwt beam="1">  1        2 0.13177511E+00 0.84634533E+03</pdfrwt>
<pdfrwt beam="2">  1       -2 0.14976975E+00 0.84634533E+03</pdfrwt>
<totfact> 0.95064634E+00</totfact>
</mgrwt>
</event>
<event>
 4    1  0.4840632E-008  0.3873556E+03  0.7818608E-02  0.1048248E+00
          2   -1    0    0  501    0  0.00000000000E+00  0.00000000000E+00  0.25214189600E+03  0.25214189601E+03  0.25500000000E-02 0. -1.
         -2   -1    0    0    0  501 -0.00000000000E+00 -0.00000000000E+00 -0.97770840711E+03  0.97770840711E+03  0.25500000000E-02 0.  1.
    8880022    1    1    2    0    0 -0.17369757025E+03  0.31061523370E+03  0.21903124933E+02  0.38797431514E+03  0.15294330000E+03 0. -1.
    8880022    1    1    2    0    0  0.17369757025E+03 -0.31061523370E+03 -0.74746963604E+03  0.84187598798E+03  0.15294330000E+03 0.  0.
<mgrwt>
<rscale>  0 0.38735555E+03</rscale>
<asrwt>0</asrwt>
<pdfrwt beam="1">  1        2 0.38791061E-01 0.38735555E+03</pdfrwt>
<pdfrwt beam="2">  1       -2 0.15041668E+00 0.38735555E+03</pdfrwt>
<totfact> 0.41311379E+01</totfact>
</mgrwt>
</event>
<event>
 4    1  0.4840632E-008  0.3741246E+03  0.7818608E-02  0.1053127E+00
          2   -1    0    0  501    0  0.00000000000E+00  0.00000000000E+00  0.41511674186E+03  0.41511674187E+03  0.25500000000E-02 0. -1.
         -2   -1    0    0    0  501 -0.00000000000E+00 -0.00000000000E+00 -0.94400755589E+03  0.94400755589E+03  0.25500000000E-02 0.  1.
    8880022    1    1    2    0    0  0.33743062044E+03  0.52135786483E+02  0.28040083535E+03  0.46754020717E+03  0.15294330000E+03 0.  0.
    8880022    1    1    2    0    0 -0.33743062044E+03 -0.52135786483E+02 -0.80929164937E+03  0.89158409059E+03  0.15294330000E+03 0.  1.
<mgrwt>
<rscale>  0 0.37412460E+03</rscale>
<asrwt>0</asrwt>
<pdfrwt beam="1">  1        2 0.63864114E-01 0.37412460E+03</pdfrwt>
<pdfrwt beam="2">  1       -2 0.14523193E+00 0.37412460E+03</pdfrwt>
<totfact> 0.26237427E+01</totfact>
</mgrwt>
</event>
<event>
 4    1  0.4840632E-008  0.5472347E+03  0.7818608E-02  0.1002136E+00
         -2   -1    0    0    0  501 -0.00000000000E+00  0.00000000000E+00  0.12146769892E+03  0.12146769895E+03  0.25500000000E-02 0.  1.
          2   -1    0    0  501    0  0.00000000000E+00 -0.00000000000E+00 -0.37610415059E+04  0.37610415059E+04  0.25500000000E-02 0. -1.
    8880022    1    1    2    0    0  0.79554527736E+02 -0.51937003511E+03 -0.29591752312E+04  0.30093494078E+04  0.15294330000E+03 0.  0.
    8880022    1    1    2    0    0 -0.79554527736E+02  0.51937003511E+03 -0.68039857581E+03  0.87315979708E+03  0.15294330000E+03 0.  0.
<mgrwt>
<rscale>  0 0.54723469E+03</rscale>
<asrwt>0</asrwt>
<pdfrwt beam="1">  1        2 0.57862168E+00 0.54723469E+03</pdfrwt>
<pdfrwt beam="2">  1       -2 0.18687341E-01 0.54723469E+03</pdfrwt>
<totfact> 0.14395238E+01</totfact>
</mgrwt>
</event>
<event>
 4    1  0.4840632E-008  0.3425199E+03  0.7818608E-02  0.1065728E+00
          2   -1    0    0  501    0  0.00000000000E+00  0.00000000000E+00  0.90482616928E+03  0.90482616928E+03  0.25500000000E-02 0. -1.
         -2   -1    0    0    0  501 -0.00000000000E+00 -0.00000000000E+00 -0.20776957063E+03  0.20776957064E+03  0.25500000000E-02 0.  1.
    8880022    1    1    2    0    0  0.20888075113E+03 -0.22427012367E+03  0.68961759873E+03  0.76999502729E+03  0.15294330000E+03 0.  0.
    8880022    1    1    2    0    0 -0.20888075113E+03  0.22427012367E+03  0.74389999220E+01  0.34260071263E+03  0.15294330000E+03 0. -1.
<mgrwt>
<rscale>  0 0.34251994E+03</rscale>
<asrwt>0</asrwt>
<pdfrwt beam="1">  1        2 0.13920403E+00 0.34251994E+03</pdfrwt>
<pdfrwt beam="2">  1       -2 0.31964549E-01 0.34251994E+03</pdfrwt>
<totfact> 0.27460599E+02</totfact>
</mgrwt>
</event>
<event>
 4    1  0.4840632E-008  0.4172243E+03  0.7818608E-02  0.1037973E+00
          2   -1    0    0  501    0  0.00000000000E+00  0.00000000000E+00  0.95974558533E+03  0.95974558534E+03  0.25500000000E-02 0. -1.
         -2   -1    0    0    0  501 -0.00000000000E+00 -0.00000000000E+00 -0.32732128374E+03  0.32732128375E+03  0.25500000000E-02 0.  1.
    8880022    1    1    2    0    0 -0.13747818857E+03 -0.36302099787E+03  0.74592363012E+03  0.85468018125E+03  0.15294330000E+03 0.  0.
    8880022    1    1    2    0    0  0.13747818857E+03  0.36302099787E+03 -0.11349932853E+03  0.43238668784E+03  0.15294330000E+03 0.  0.
<mgrwt>
<rscale>  0 0.41722434E+03</rscale>
<asrwt>0</asrwt>
<pdfrwt beam="1">  1        2 0.14765317E+00 0.41722434E+03</pdfrwt>
<pdfrwt beam="2">  1       -2 0.50357121E-01 0.41722434E+03</pdfrwt>
<totfact> 0.10430079E+02</totfact>
</mgrwt>
</event>
<event>
 4    1  0.4840632E-008  0.4284844E+03  0.7818608E-02  0.1034340E+00
         -2   -1    0    0    0  501 -0.00000000000E+00  0.00000000000E+00  0.20934122054E+03  0.20934122055E+03  0.25500000000E-02 0.  1.
          2   -1    0    0  501    0  0.00000000000E+00 -0.00000000000E+00 -0.15568916774E+04  0.15568916774E+04  0.25500000000E-02 0. -1.
    8880022    1    1    2    0    0 -0.11222033250E+03 -0.38420543291E+03 -0.12573527260E+04  0.13283579143E+04  0.15294330000E+03 0.  0.
    8880022    1    1    2    0    0  0.11222033250E+03  0.38420543291E+03 -0.90197730861E+02  0.43787498373E+03  0.15294330000E+03 0.  0.
<mgrwt>
<rscale>  0 0.42848439E+03</rscale>
<asrwt>0</asrwt>
<pdfrwt beam="1">  1        2 0.23952179E+00 0.42848439E+03</pdfrwt>
<pdfrwt beam="2">  1       -2 0.32206343E-01 0.42848439E+03</pdfrwt>
<totfact> 0.11193164E+02</totfact>
</mgrwt>
</event>
<event>
 4    1  0.4840632E-008  0.2540361E+03  0.7818608E-02  0.1110780E+00
         -2   -1    0    0    0  501 -0.00000000000E+00  0.00000000000E+00  0.90942932609E+02  0.90942932645E+02  0.25500000000E-02 0.  1.
          2   -1    0    0  501    0  0.00000000000E+00 -0.00000000000E+00 -0.14419903282E+04  0.14419903282E+04  0.25500000000E-02 0. -1.
    8880022    1    1    2    0    0  0.14251086907E+03 -0.14433751578E+03 -0.12928882946E+03  0.28504371718E+03  0.15294330000E+03 0.  0.
    8880022    1    1    2    0    0 -0.14251086907E+03  0.14433751578E+03 -0.12217585661E+04  0.12478895436E+04  0.15294330000E+03 0. -1.
<mgrwt>
<rscale>  0 0.25403606E+03</rscale>
<asrwt>0</asrwt>
<pdfrwt beam="1">  1        2 0.22184465E+00 0.25403606E+03</pdfrwt>
<pdfrwt beam="2">  1       -2 0.13991222E-01 0.25403606E+03</pdfrwt>
<totfact> 0.56690080E+02</totfact>
</mgrwt>
</event>
<event>
 4    1  0.4840632E-008  0.8826439E+03  0.7818608E-02  0.9447541E-01
         -2   -1    0    0    0  501 -0.00000000000E+00  0.00000000000E+00  0.47998181038E+03  0.47998181039E+03  0.25500000000E-02 0.  1.
          2   -1    0    0  501    0  0.00000000000E+00 -0.00000000000E+00 -0.17012755669E+04  0.17012755669E+04  0.25500000000E-02 0. -1.
    8880022    1    1    2    0    0 -0.83206853185E+03 -0.25165554869E+03 -0.37686272336E+03  0.95973210958E+03  0.15294330000E+03 0.  0.
    8880022    1    1    2    0    0  0.83206853185E+03  0.25165554869E+03 -0.84443103314E+03  0.12215252677E+04  0.15294330000E+03 0.  0.
<mgrwt>
<rscale>  0 0.88264387E+03</rscale>
<asrwt>0</asrwt>
<pdfrwt beam="1">  1        2 0.26173470E+00 0.88264387E+03</pdfrwt>
<pdfrwt beam="2">  1       -2 0.73843356E-01 0.88264387E+03</pdfrwt>
<totfact> 0.16369671E+01</totfact>
</mgrwt>
</event>
<event>
 4    1  0.4840632E-008  0.4354378E+03  0.7818608E-02  0.1032156E+00
         -2   -1    0    0    0  501 -0.00000000000E+00  0.00000000000E+00  0.12946402133E+04  0.12946402133E+04  0.25500000000E-02 0.  1.
          2   -1    0    0  501    0  0.00000000000E+00 -0.00000000000E+00 -0.39209075499E+03  0.39209075500E+03  0.25500000000E-02 0. -1.
    8880022    1    1    2    0    0 -0.39151362488E+03 -0.11371666107E+03 -0.21625197261E+03  0.48617997300E+03  0.15294330000E+03 0.  0.
    8880022    1    1    2    0    0  0.39151362488E+03  0.11371666107E+03  0.11188014310E+04  0.12005509953E+04  0.15294330000E+03 0.  0.
<mgrwt>
<rscale>  0 0.43543777E+03</rscale>
<asrwt>0</asrwt>
<pdfrwt beam="1">  1        2 0.60321656E-01 0.43543777E+03</pdfrwt>
<pdfrwt beam="2">  1       -2 0.19917541E+00 0.43543777E+03</pdfrwt>
<totfact> 0.11619279E+01</totfact>
</mgrwt>
</event>
<event>
 4    1  0.4840632E-008  0.4750806E+03  0.7818608E-02  0.1020496E+00
         -2   -1    0    0    0  501 -0.00000000000E+00  0.00000000000E+00  0.38457098344E+03  0.38457098345E+03  0.25500000000E-02 0.  1.
          2   -1    0    0  501    0  0.00000000000E+00 -0.00000000000E+00 -0.13739533958E+04  0.13739533958E+04  0.25500000000E-02 0. -1.
    8880022    1    1    2    0    0  0.37793231135E+03  0.24387920553E+03 -0.11601738929E+04  0.12536765985E+04  0.15294330000E+03 0. -1.
    8880022    1    1    2    0    0 -0.37793231135E+03 -0.24387920553E+03  0.17079148057E+03  0.50484778073E+03  0.15294330000E+03 0.  0.
<mgrwt>
<rscale>  0 0.47508057E+03</rscale>
<asrwt>0</asrwt>
<pdfrwt beam="1">  1        2 0.21137744E+00 0.47508057E+03</pdfrwt>
<pdfrwt beam="2">  1       -2 0.59164767E-01 0.47508057E+03</pdfrwt>
<totfact> 0.42267960E+01</totfact>
</mgrwt>
</event>
<event>
 4    1  0.4840632E-008  0.7059116E+03  0.7818608E-02  0.9707176E-01
         -2   -1    0    0    0  501 -0.00000000000E+00  0.00000000000E+00  0.25320164533E+03  0.25320164534E+03  0.25500000000E-02 0.  1.
          2   -1    0    0  501    0  0.00000000000E+00 -0.00000000000E+00 -0.21795827374E+04  0.21795827374E+04  0.25500000000E-02 0. -1.
    8880022    1    1    2    0    0  0.51000658737E+03  0.46347900363E+03 -0.13421434345E+04  0.15164630420E+04  0.15294330000E+03 0.  0.
    8880022    1    1    2    0    0 -0.51000658737E+03 -0.46347900363E+03 -0.58423765760E+03  0.91632134077E+03  0.15294330000E+03 0.  0.
<mgrwt>
<rscale>  0 0.70591158E+03</rscale>
<asrwt>0</asrwt>
<pdfrwt beam="1">  1        2 0.33532041E+00 0.70591158E+03</pdfrwt>
<pdfrwt beam="2">  1       -2 0.38954101E-01 0.70591158E+03</pdfrwt>
<totfact> 0.34407042E+01</totfact>
</mgrwt>
</event>
<event>
 4    1  0.4840632E-008  0.2576859E+03  0.7818608E-02  0.1108542E+00
          2   -1    0    0  501    0  0.00000000000E+00  0.00000000000E+00  0.20485604472E+04  0.20485604472E+04  0.25500000000E-02 0. -1.
         -2   -1    0    0    0  501 -0.00000000000E+00 -0.00000000000E+00 -0.37290778361E+02  0.37290778448E+02  0.25500000000E-02 0.  1.
    8880022    1    1    2    0    0  0.41277305077E+02  0.20324015254E+03  0.62848030042E+03  0.67925659110E+03  0.15294330000E+03 0.  1.
    8880022    1    1    2    0    0 -0.41277305077E+02 -0.20324015254E+03  0.13827893684E+04  0.14065946345E+04  0.15294330000E+03 0. -1.
<mgrwt>
<rscale>  0 0.25768591E+03</rscale>
<asrwt>0</asrwt>
<pdfrwt beam="1">  1        2 0.31516314E+00 0.25768591E+03</pdfrwt>
<pdfrwt beam="2">  1       -2 0.57370429E-02 0.25768591E+03</pdfrwt>
<totfact> 0.11125824E+03</totfact>
</mgrwt>
</event>
<event>
 4    1  0.4840632E-008  0.4744298E+03  0.7818608E-02  0.1020677E+00
         -2   -1    0    0    0  501 -0.00000000000E+00  0.00000000000E+00  0.54256685183E+03  0.54256685184E+03  0.25500000000E-02 0.  1.
          2   -1    0    0  501    0  0.00000000000E+00 -0.00000000000E+00 -0.34159326220E+04  0.34159326220E+04  0.25500000000E-02 0. -1.
    8880022    1    1    2    0    0 -0.18525265580E+03 -0.40911295539E+03 -0.32918582011E+04  0.33258704163E+04  0.15294330000E+03 0.  0.
    8880022    1    1    2    0    0  0.18525265580E+03  0.40911295539E+03  0.41849243091E+03  0.63262905758E+03  0.15294330000E+03 0.  0.
<mgrwt>
<rscale>  0 0.47442977E+03</rscale>
<asrwt>0</asrwt>
<pdfrwt beam="1">  1        2 0.52552808E+00 0.47442977E+03</pdfrwt>
<pdfrwt beam="2">  1       -2 0.83471825E-01 0.47442977E+03</pdfrwt>
<totfact> 0.13724776E+00</totfact>
</mgrwt>
</event>
<event>
 4    1  0.4840632E-008  0.3339887E+03  0.7818608E-02  0.1069386E+00
          2   -1    0    0  501    0  0.00000000000E+00  0.00000000000E+00  0.65313894632E+03  0.65313894633E+03  0.25500000000E-02 0. -1.
         -2   -1    0    0    0  501 -0.00000000000E+00 -0.00000000000E+00 -0.33270932910E+03  0.33270932910E+03  0.25500000000E-02 0.  1.
    8880022    1    1    2    0    0  0.25549309986E+03 -0.15126151582E+03  0.50408882524E+03  0.60469328340E+03  0.15294330000E+03 0.  0.
    8880022    1    1    2    0    0 -0.25549309986E+03  0.15126151582E+03 -0.18365920802E+03  0.38115499203E+03  0.15294330000E+03 0.  0.
<mgrwt>
<rscale>  0 0.33398866E+03</rscale>
<asrwt>0</asrwt>
<pdfrwt beam="1">  1        2 0.10048292E+00 0.33398866E+03</pdfrwt>
<pdfrwt beam="2">  1       -2 0.51186050E-01 0.33398866E+03</pdfrwt>
<totfact> 0.16771125E+02</totfact>
</mgrwt>
</event>
<event>
 4    1  0.4840632E-008  0.2512039E+03  0.7818608E-02  0.1112546E+00
         -2   -1    0    0    0  501 -0.00000000000E+00  0.00000000000E+00  0.81744200750E+02  0.81744200789E+02  0.25500000000E-02 0.  1.
          2   -1    0    0  501    0  0.00000000000E+00 -0.00000000000E+00 -0.13630012556E+04  0.13630012556E+04  0.25500000000E-02 0. -1.
    8880022    1    1    2    0    0  0.64827866661E+01  0.19917255875E+03 -0.11163157736E+04  0.11442308744E+04  0.15294330000E+03 0.  0.
    8880022    1    1    2    0    0 -0.64827866661E+01 -0.19917255875E+03 -0.16494128129E+03  0.30051458196E+03  0.15294330000E+03 0.  0.
<mgrwt>
<rscale>  0 0.25120388E+03</rscale>
<asrwt>0</asrwt>
<pdfrwt beam="1">  1        2 0.20969248E+00 0.25120388E+03</pdfrwt>
<pdfrwt beam="2">  1       -2 0.12576032E-01 0.25120388E+03</pdfrwt>
<totfact> 0.74517177E+02</totfact>
</mgrwt>
</event>
<event>
 4    1  0.4840632E-008  0.1092391E+04  0.7818608E-02  0.9212640E-01
         -2   -1    0    0    0  501 -0.00000000000E+00  0.00000000000E+00  0.11710955209E+04  0.11710955209E+04  0.25500000000E-02 0.  1.
          2   -1    0    0  501    0  0.00000000000E+00 -0.00000000000E+00 -0.11011101979E+04  0.11011101979E+04  0.25500000000E-02 0. -1.
    8880022    1    1    2    0    0  0.71342278625E+03 -0.81299036034E+03 -0.27529673245E+03  0.11265457567E+04  0.15294330000E+03 0. -1.
    8880022    1    1    2    0    0 -0.71342278625E+03  0.81299036034E+03  0.34528205553E+03  0.11456599621E+04  0.15294330000E+03 0.  0.
<mgrwt>
<rscale>  0 0.10923905E+04</rscale>
<asrwt>0</asrwt>
<pdfrwt beam="1">  1        2 0.16940157E+00 0.10923905E+04</pdfrwt>
<pdfrwt beam="2">  1       -2 0.18016854E+00 0.10923905E+04</pdfrwt>
<totfact> 0.38624992E+00</totfact>
</mgrwt>
</event>
<event>
 4    1  0.4840632E-008  0.6767150E+03  0.7818608E-02  0.9757903E-01
          2   -1    0    0  501    0  0.00000000000E+00  0.00000000000E+00  0.33569476196E+04  0.33569476196E+04  0.25500000000E-02 0. -1.
         -2   -1    0    0    0  501 -0.00000000000E+00 -0.00000000000E+00 -0.24764867906E+03  0.24764867907E+03  0.25500000000E-02 0.  1.
    8880022    1    1    2    0    0  0.62487836773E+00  0.65920496444E+03  0.34676959731E+03  0.76038962529E+03  0.15294330000E+03 0.  0.
    8880022    1    1    2    0    0 -0.62487836773E+00 -0.65920496444E+03  0.27625293432E+04  0.28442066733E+04  0.15294330000E+03 0.  0.
<mgrwt>
<rscale>  0 0.67671503E+03</rscale>
<asrwt>0</asrwt>
<pdfrwt beam="1">  1        2 0.51645343E+00 0.67671503E+03</pdfrwt>
<pdfrwt beam="2">  1       -2 0.38099800E-01 0.67671503E+03</pdfrwt>
<totfact> 0.72506485E+00</totfact>
</mgrwt>
</event>
<event>
 4    1  0.4840632E-008  0.2918124E+03  0.7818608E-02  0.1089407E+00
         -2   -1    0    0    0  501 -0.00000000000E+00  0.00000000000E+00  0.13285395284E+03  0.13285395287E+03  0.25500000000E-02 0.  1.
          2   -1    0    0  501    0  0.00000000000E+00 -0.00000000000E+00 -0.11873415372E+04  0.11873415372E+04  0.25500000000E-02 0. -1.
    8880022    1    1    2    0    0 -0.22112170522E+03 -0.11343717235E+03 -0.97502645826E+03  0.10177578533E+04  0.15294330000E+03 0.  0.
    8880022    1    1    2    0    0  0.22112170522E+03  0.11343717235E+03 -0.79461126135E+02  0.30243763683E+03  0.15294330000E+03 0.  0.
<mgrwt>
<rscale>  0 0.29181236E+03</rscale>
<asrwt>0</asrwt>
<pdfrwt beam="1">  1        2 0.18266792E+00 0.29181236E+03</pdfrwt>
<pdfrwt beam="2">  1       -2 0.20439070E-01 0.29181236E+03</pdfrwt>
<totfact> 0.41281350E+02</totfact>
</mgrwt>
</event>
<event>
 4    1  0.4840632E-008  0.6989194E+03  0.7818608E-02  0.9719082E-01
         -2   -1    0    0    0  501 -0.00000000000E+00  0.00000000000E+00  0.78249188039E+03  0.78249188039E+03  0.25500000000E-02 0.  1.
          2   -1    0    0  501    0  0.00000000000E+00 -0.00000000000E+00 -0.40673705818E+04  0.40673705818E+04  0.25500000000E-02 0. -1.
    8880022    1    1    2    0    0  0.51143638453E+03 -0.45114247362E+03 -0.38735301056E+04  0.39360797552E+04  0.15294330000E+03 0.  0.
    8880022    1    1    2    0    0 -0.51143638453E+03  0.45114247362E+03  0.58865140422E+03  0.91378270701E+03  0.15294330000E+03 0.  0.
<mgrwt>
<rscale>  0 0.69891942E+03</rscale>
<asrwt>0</asrwt>
<pdfrwt beam="1">  1        2 0.62574931E+00 0.69891942E+03</pdfrwt>
<pdfrwt beam="2">  1       -2 0.12038337E+00 0.69891942E+03</pdfrwt>
<totfact> 0.18027052E-01</totfact>
</mgrwt>
</event>
<event>
 4    1  0.4840632E-008  0.5245398E+03  0.7818608E-02  0.1007565E+00
          2   -1    0    0  501    0  0.00000000000E+00  0.00000000000E+00  0.75443753063E+03  0.75443753064E+03  0.25500000000E-02 0. -1.
         -2   -1    0    0    0  501 -0.00000000000E+00 -0.00000000000E+00 -0.19638655995E+04  0.19638655995E+04  0.25500000000E-02 0.  1.
    8880022    1    1    2    0    0 -0.64353766813E+02 -0.49760320049E+03  0.62176173539E+03  0.81346767671E+03  0.15294330000E+03 0.  0.
    8880022    1    1    2    0    0  0.64353766813E+02  0.49760320049E+03 -0.18311898042E+04  0.19048354534E+04  0.15294330000E+03 0.  1.
<mgrwt>
<rscale>  0 0.52453980E+03</rscale>
<asrwt>0</asrwt>
<pdfrwt beam="1">  1        2 0.11606731E+00 0.52453980E+03</pdfrwt>
<pdfrwt beam="2">  1       -2 0.30213317E+00 0.52453980E+03</pdfrwt>
<totfact> 0.12576704E+00</totfact>
</mgrwt>
</event>
<event>
 4    1  0.4840632E-008  0.2310093E+03  0.7818608E-02  0.1125931E+00
          2   -1    0    0  501    0  0.00000000000E+00  0.00000000000E+00  0.47524106896E+03  0.47524106897E+03  0.25500000000E-02 0. -1.
         -2   -1    0    0    0  501 -0.00000000000E+00 -0.00000000000E+00 -0.84095979889E+03  0.84095979889E+03  0.25500000000E-02 0.  1.
    8880022    1    1    2    0    0 -0.16639071607E+03 -0.47830798207E+02  0.42973026075E+03  0.48788667298E+03  0.15294330000E+03 0.  0.
    8880022    1    1    2    0    0  0.16639071607E+03  0.47830798207E+02 -0.79544899068E+03  0.82831419488E+03  0.15294330000E+03 0.  1.
<mgrwt>
<rscale>  0 0.23100933E+03</rscale>
<asrwt>0</asrwt>
<pdfrwt beam="1">  1        2 0.73114011E-01 0.23100933E+03</pdfrwt>
<pdfrwt beam="2">  1       -2 0.12937843E+00 0.23100933E+03</pdfrwt>
<totfact> 0.31075261E+01</totfact>
</mgrwt>
</event>
<event>
 4    1  0.4840632E-008  0.3681046E+03  0.7818608E-02  0.1055420E+00
         -2   -1    0    0    0  501 -0.00000000000E+00  0.00000000000E+00  0.13055677279E+04  0.13055677279E+04  0.25500000000E-02 0.  1.
          2   -1    0    0  501    0  0.00000000000E+00 -0.00000000000E+00 -0.59023146445E+03  0.59023146445E+03  0.25500000000E-02 0. -1.
    8880022    1    1    2    0    0 -0.11847129009E+03  0.31316747459E+03  0.12182016466E+04  0.12726021446E+04  0.15294330000E+03 0.  0.
    8880022    1    1    2    0    0  0.11847129009E+03 -0.31316747459E+03 -0.50286538314E+03  0.62319704773E+03  0.15294330000E+03 0.  0.
<mgrwt>
<rscale>  0 0.36810456E+03</rscale>
<asrwt>0</asrwt>
<pdfrwt beam="1">  1        2 0.90804842E-01 0.36810456E+03</pdfrwt>
<pdfrwt beam="2">  1       -2 0.20085657E+00 0.36810456E+03</pdfrwt>
<totfact> 0.72226237E+00</totfact>
</mgrwt>
</event>
<event>
 4    1  0.4840632E-008  0.3437993E+03  0.7818608E-02  0.1065189E+00
          2   -1    0    0  501    0  0.00000000000E+00  0.00000000000E+00  0.93038272811E+03  0.93038272812E+03  0.25500000000E-02 0. -1.
         -2   -1    0    0    0  501 -0.00000000000E+00 -0.00000000000E+00 -0.24370049548E+03  0.24370049549E+03  0.25500000000E-02 0.  1.
    8880022    1    1    2    0    0 -0.30768280777E+03 -0.11729514630E+02  0.74950223052E+03  0.82459174037E+03  0.15294330000E+03 0. -1.
    8880022    1    1    2    0    0  0.30768280777E+03  0.11729514630E+02 -0.62819997883E+02  0.34949148324E+03  0.15294330000E+03 0.  0.
<mgrwt>
<rscale>  0 0.34379928E+03</rscale>
<asrwt>0</asrwt>
<pdfrwt beam="1">  1        2 0.14313580E+00 0.34379928E+03</pdfrwt>
<pdfrwt beam="2">  1       -2 0.37492385E-01 0.34379928E+03</pdfrwt>
<totfact> 0.19593622E+02</totfact>
</mgrwt>
</event>
<event>
 4    1  0.4840632E-008  0.1147296E+04  0.7818608E-02  0.9160282E-01
          2   -1    0    0  501    0  0.00000000000E+00  0.00000000000E+00  0.82861505967E+03  0.82861505967E+03  0.25500000000E-02 0. -1.
         -2   -1    0    0    0  501 -0.00000000000E+00 -0.00000000000E+00 -0.26255101382E+04  0.26255101382E+04  0.25500000000E-02 0.  1.
    8880022    1    1    2    0    0  0.95508695063E+03 -0.61701234103E+03  0.18693956710E+03  0.11624256394E+04  0.15294330000E+03 0.  0.
    8880022    1    1    2    0    0 -0.95508695063E+03  0.61701234103E+03 -0.19838346456E+04  0.22916995585E+04  0.15294330000E+03 0.  0.
<mgrwt>
<rscale>  0 0.11472955E+04</rscale>
<asrwt>0</asrwt>
<pdfrwt beam="1">  1        2 0.12747924E+00 0.11472955E+04</pdfrwt>
<pdfrwt beam="2">  1       -2 0.40392463E+00 0.11472955E+04</pdfrwt>
<totfact> 0.22879311E-01</totfact>
</mgrwt>
</event>
<event>
 4    1  0.4840632E-008  0.5708240E+03  0.7818608E-02  0.9967857E-01
          2   -1    0    0  501    0  0.00000000000E+00  0.00000000000E+00  0.13144209129E+04  0.13144209129E+04  0.25500000000E-02 0. -1.
         -2   -1    0    0    0  501 -0.00000000000E+00 -0.00000000000E+00 -0.45530811122E+03  0.45530811122E+03  0.25500000000E-02 0.  1.
    8880022    1    1    2    0    0 -0.16103278496E+03  0.52584869382E+03  0.10267853395E+04  0.11747885737E+04  0.15294330000E+03 0.  0.
    8880022    1    1    2    0    0  0.16103278496E+03 -0.52584869382E+03 -0.16767253775E+03  0.59494045043E+03  0.15294330000E+03 0.  0.
<mgrwt>
<rscale>  0 0.57082402E+03</rscale>
<asrwt>0</asrwt>
<pdfrwt beam="1">  1        2 0.20221860E+00 0.57082402E+03</pdfrwt>
<pdfrwt beam="2">  1       -2 0.70047402E-01 0.57082402E+03</pdfrwt>
<totfact> 0.31393747E+01</totfact>
</mgrwt>
</event>
<event>
 4    1  0.4840632E-008  0.3240049E+03  0.7818608E-02  0.1073821E+00
         -2   -1    0    0    0  501 -0.00000000000E+00  0.00000000000E+00  0.66317962609E+03  0.66317962609E+03  0.25500000000E-02 0.  1.
          2   -1    0    0  501    0  0.00000000000E+00 -0.00000000000E+00 -0.28468625564E+03  0.28468625566E+03  0.25500000000E-02 0. -1.
    8880022    1    1    2    0    0 -0.28560512999E+03 -0.41475341987E+01 -0.12653667477E+03  0.34783713918E+03  0.15294330000E+03 0.  0.
    8880022    1    1    2    0    0  0.28560512999E+03  0.41475341987E+01  0.50503004521E+03  0.60002874256E+03  0.15294330000E+03 0.  0.
<mgrwt>
<rscale>  0 0.32400485E+03</rscale>
<asrwt>0</asrwt>
<pdfrwt beam="1">  1        2 0.43797886E-01 0.32400485E+03</pdfrwt>
<pdfrwt beam="2">  1       -2 0.10202763E+00 0.32400485E+03</pdfrwt>
<totfact> 0.95041281E+01</totfact>
</mgrwt>
</event>
<event>
 4    1  0.4840632E-008  0.3920917E+03  0.7818608E-02  0.1046553E+00
          2   -1    0    0  501    0  0.00000000000E+00  0.00000000000E+00  0.80361156455E+03  0.80361156456E+03  0.25500000000E-02 0. -1.
         -2   -1    0    0    0  501 -0.00000000000E+00 -0.00000000000E+00 -0.81157836189E+03  0.81157836190E+03  0.25500000000E-02 0.  1.
    8880022    1    1    2    0    0 -0.30722384057E+03 -0.18962521817E+03 -0.71000749156E+03  0.81107737156E+03  0.15294330000E+03 0.  0.
    8880022    1    1    2    0    0  0.30722384057E+03  0.18962521817E+03  0.70204069422E+03  0.80411255489E+03  0.15294330000E+03 0. -1.
<mgrwt>
<rscale>  0 0.39209165E+03</rscale>
<asrwt>0</asrwt>
<pdfrwt beam="1">  1        2 0.12363255E+00 0.39209165E+03</pdfrwt>
<pdfrwt beam="2">  1       -2 0.12485821E+00 0.39209165E+03</pdfrwt>
<totfact> 0.17555813E+01</totfact>
</mgrwt>
</event>
<event>
 4    1  0.4840632E-008  0.2362514E+03  0.7818608E-02  0.1122315E+00
         -2   -1    0    0    0  501 -0.00000000000E+00  0.00000000000E+00  0.39235248385E+03  0.39235248385E+03  0.25500000000E-02 0.  1.
          2   -1    0    0  501    0  0.00000000000E+00 -0.00000000000E+00 -0.63528998699E+03  0.63528998700E+03  0.25500000000E-02 0. -1.
    8880022    1    1    2    0    0  0.14929583831E+03 -0.10066699164E+03  0.33118298810E+03  0.40681312069E+03  0.15294330000E+03 0.  0.
    8880022    1    1    2    0    0 -0.14929583831E+03  0.10066699164E+03 -0.57412049125E+03  0.62082935016E+03  0.15294330000E+03 0. -1.
<mgrwt>
<rscale>  0 0.23625144E+03</rscale>
<asrwt>0</asrwt>
<pdfrwt beam="1">  1        2 0.97736921E-01 0.23625144E+03</pdfrwt>
<pdfrwt beam="2">  1       -2 0.60361920E-01 0.23625144E+03</pdfrwt>
<totfact> 0.12521135E+02</totfact>
</mgrwt>
</event>
<event>
 4    1  0.4840632E-008  0.1075472E+04  0.7818608E-02  0.9229434E-01
         -2   -1    0    0    0  501 -0.00000000000E+00  0.00000000000E+00  0.81344326568E+03  0.81344326569E+03  0.25500000000E-02 0.  1.
          2   -1    0    0  501    0  0.00000000000E+00 -0.00000000000E+00 -0.17473159240E+04  0.17473159240E+04  0.25500000000E-02 0. -1.
    8880022    1    1    2    0    0 -0.10620627448E+04 -0.72604740672E+02 -0.10194817715E+04  0.14818851027E+04  0.15294330000E+03 0.  0.
    8880022    1    1    2    0    0  0.10620627448E+04  0.72604740672E+02  0.85609113227E+02  0.10788740869E+04  0.15294330000E+03 0.  0.
<mgrwt>
<rscale>  0 0.10754722E+04</rscale>
<asrwt>0</asrwt>
<pdfrwt beam="1">  1        2 0.26881783E+00 0.10754722E+04</pdfrwt>
<pdfrwt beam="2">  1       -2 0.12514512E+00 0.10754722E+04</pdfrwt>
<totfact> 0.43566218E+00</totfact>
</mgrwt>
</event>
<event>
 4    1  0.4840632E-008  0.5141988E+03  0.7818608E-02  0.1010138E+00
          2   -1    0    0  501    0  0.00000000000E+00  0.00000000000E+00  0.29279423104E+04  0.29279423104E+04  0.25500000000E-02 0. -1.
         -2   -1    0    0    0  501 -0.00000000000E+00 -0.00000000000E+00 -0.12023150850E+03  0.12023150853E+03  0.25500000000E-02 0.  1.
    8880022    1    1    2    0    0  0.34374938466E+03 -0.35049270627E+03  0.21642638787E+04  0.22245086123E+04  0.15294330000E+03 0.  0.
    8880022    1    1    2    0    0 -0.34374938466E+03  0.35049270627E+03  0.64344692318E+03  0.82366520660E+03  0.15294330000E+03 0.  0.
<mgrwt>
<rscale>  0 0.51419882E+03</rscale>
<asrwt>0</asrwt>
<pdfrwt beam="1">  1        2 0.45045271E+00 0.51419882E+03</pdfrwt>
<pdfrwt beam="2">  1       -2 0.18497153E-01 0.51419882E+03</pdfrwt>
<totfact> 0.51809737E+01</totfact>
</mgrwt>
</event>
<event>
 4    1  0.4840632E-008  0.1801405E+03  0.7818608E-02  0.1167667E+00
          2   -1    0    0  501    0  0.00000000000E+00  0.00000000000E+00  0.34094144122E+03  0.34094144123E+03  0.25500000000E-02 0. -1.
         -2   -1    0    0    0  501 -0.00000000000E+00 -0.00000000000E+00 -0.10873828377E+03  0.10873828380E+03  0.25500000000E-02 0.  1.
    8880022    1    1    2    0    0  0.70833573150E+02  0.63573240319E+02  0.19549671421E+03  0.26583748843E+03  0.15294330000E+03 0.  0.
    8880022    1    1    2    0    0 -0.70833573150E+02 -0.63573240319E+02  0.36706443235E+02  0.18384223660E+03  0.15294330000E+03 0.  1.
<mgrwt>
<rscale>  0 0.18014051E+03</rscale>
<asrwt>0</asrwt>
<pdfrwt beam="1">  1        2 0.52452530E-01 0.18014051E+03</pdfrwt>
<pdfrwt beam="2">  1       -2 0.16728967E-01 0.18014051E+03</pdfrwt>
<totfact> 0.26651490E+03</totfact>
</mgrwt>
</event>
<event>
 4    1  0.4840632E-008  0.3361068E+03  0.7818608E-02  0.1068466E+00
         -2   -1    0    0    0  501 -0.00000000000E+00  0.00000000000E+00  0.27083699347E+03  0.27083699348E+03  0.25500000000E-02 0.  1.
          2   -1    0    0  501    0  0.00000000000E+00 -0.00000000000E+00 -0.14910495220E+04  0.14910495220E+04  0.25500000000E-02 0. -1.
    8880022    1    1    2    0    0  0.23468282006E+03 -0.18574194833E+03  0.13753387889E+03  0.36315742903E+03  0.15294330000E+03 0.  0.
    8880022    1    1    2    0    0 -0.23468282006E+03  0.18574194833E+03 -0.13577464074E+04  0.13987290864E+04  0.15294330000E+03 0.  0.
<mgrwt>
<rscale>  0 0.33610675E+03</rscale>
<asrwt>0</asrwt>
<pdfrwt beam="1">  1        2 0.22939223E+00 0.33610675E+03</pdfrwt>
<pdfrwt beam="2">  1       -2 0.41667231E-01 0.33610675E+03</pdfrwt>
<totfact> 0.75799576E+01</totfact>
</mgrwt>
</event>
<event>
 4    1  0.4840632E-008  0.7996056E+03  0.7818608E-02  0.9560588E-01
          2   -1    0    0  501    0  0.00000000000E+00  0.00000000000E+00  0.34546926269E+04  0.34546926269E+04  0.25500000000E-02 0. -1.
         -2   -1    0    0    0  501 -0.00000000000E+00 -0.00000000000E+00 -0.29293015908E+03  0.29293015909E+03  0.25500000000E-02 0.  1.
    8880022    1    1    2    0    0  0.62843782372E+03  0.47015242574E+03  0.44385872485E+03  0.91453792832E+03  0.15294330000E+03 0.  0.
    8880022    1    1    2    0    0 -0.62843782372E+03 -0.47015242574E+03  0.27179037430E+04  0.28330848577E+04  0.15294330000E+03 0.  0.
<mgrwt>
<rscale>  0 0.79960556E+03</rscale>
<asrwt>0</asrwt>
<pdfrwt beam="1">  1        2 0.53149120E+00 0.79960556E+03</pdfrwt>
<pdfrwt beam="2">  1       -2 0.45066176E-01 0.79960556E+03</pdfrwt>
<totfact> 0.43766468E+00</totfact>
</mgrwt>
</event>
<event>
 4    1  0.4840632E-008  0.3131249E+03  0.7818608E-02  0.1078858E+00
         -2   -1    0    0    0  501 -0.00000000000E+00  0.00000000000E+00  0.35208476366E+03  0.35208476366E+03  0.25500000000E-02 0.  1.
          2   -1    0    0  501    0  0.00000000000E+00 -0.00000000000E+00 -0.89685246356E+03  0.89685246356E+03  0.25500000000E-02 0. -1.
    8880022    1    1    2    0    0  0.37281690150E+02 -0.27067619105E+03 -0.79091704863E+03  0.85064502329E+03  0.15294330000E+03 0.  0.
    8880022    1    1    2    0    0 -0.37281690150E+02  0.27067619105E+03  0.24614934873E+03  0.39829220393E+03  0.15294330000E+03 0.  1.
<mgrwt>
<rscale>  0 0.31312486E+03</rscale>
<asrwt>0</asrwt>
<pdfrwt beam="1">  1        2 0.13797730E+00 0.31312486E+03</pdfrwt>
<pdfrwt beam="2">  1       -2 0.54166887E-01 0.31312486E+03</pdfrwt>
<totfact> 0.10023671E+02</totfact>
</mgrwt>
</event>
<event>
 4    1  0.4840632E-008  0.2341963E+03  0.7818608E-02  0.1123721E+00
         -2   -1    0    0    0  501 -0.00000000000E+00  0.00000000000E+00  0.12881354104E+04  0.12881354104E+04  0.25500000000E-02 0.  1.
          2   -1    0    0  501    0  0.00000000000E+00 -0.00000000000E+00 -0.70572639803E+02  0.70572639849E+02  0.25500000000E-02 0. -1.
    8880022    1    1    2    0    0  0.81740534033E+01 -0.17717070942E+03  0.10366448297E+04  0.10627701686E+04  0.15294330000E+03 0.  0.
    8880022    1    1    2    0    0 -0.81740534033E+01  0.17717070942E+03  0.18091794096E+03  0.29593788166E+03  0.15294330000E+03 0.  0.
<mgrwt>
<rscale>  0 0.23419635E+03</rscale>
<asrwt>0</asrwt>
<pdfrwt beam="1">  1        2 0.10857329E-01 0.23419635E+03</pdfrwt>
<pdfrwt beam="2">  1       -2 0.19817468E+00 0.23419635E+03</pdfrwt>
<totfact> 0.85945735E+01</totfact>
</mgrwt>
</event>
<event>
 4    1  0.4840632E-008  0.1827789E+03  0.7818608E-02  0.1165140E+00
          2   -1    0    0  501    0  0.00000000000E+00  0.00000000000E+00  0.19076931320E+04  0.19076931320E+04  0.25500000000E-02 0. -1.
         -2   -1    0    0    0  501 -0.00000000000E+00 -0.00000000000E+00 -0.15072039589E+03  0.15072039591E+03  0.25500000000E-02 0.  1.
    8880022    1    1    2    0    0  0.52086237425E+01 -0.99946668718E+02 -0.89082547351E+02  0.20333179684E+03  0.15294330000E+03 0.  0.
    8880022    1    1    2    0    0 -0.52086237425E+01  0.99946668718E+02  0.18460552834E+04  0.18550817310E+04  0.15294330000E+03 0. -1.
<mgrwt>
<rscale>  0 0.18277888E+03</rscale>
<asrwt>0</asrwt>
<pdfrwt beam="1">  1        2 0.29349123E+00 0.18277888E+03</pdfrwt>
<pdfrwt beam="2">  1       -2 0.23187755E-01 0.18277888E+03</pdfrwt>
<totfact> 0.13999050E+02</totfact>
</mgrwt>
</event>
<event>
 4    1  0.4840632E-008  0.4016251E+03  0.7818608E-02  0.1043218E+00
          2   -1    0    0  501    0  0.00000000000E+00  0.00000000000E+00  0.16280183454E+04  0.16280183454E+04  0.25500000000E-02 0. -1.
         -2   -1    0    0    0  501 -0.00000000000E+00 -0.00000000000E+00 -0.52010703969E+03  0.52010703970E+03  0.25500000000E-02 0.  1.
    8880022    1    1    2    0    0 -0.31797650052E+02  0.37000002339E+03  0.15203150423E+04  0.15724695827E+04  0.15294330000E+03 0.  0.
    8880022    1    1    2    0    0  0.31797650052E+02 -0.37000002339E+03 -0.41240373656E+03  0.57565580237E+03  0.15294330000E+03 0.  0.
<mgrwt>
<rscale>  0 0.40162515E+03</rscale>
<asrwt>0</asrwt>
<pdfrwt beam="1">  1        2 0.25046436E+00 0.40162515E+03</pdfrwt>
<pdfrwt beam="2">  1       -2 0.80016469E-01 0.40162515E+03</pdfrwt>
<totfact> 0.16241527E+01</totfact>
</mgrwt>
</event>
<event>
 4    1  0.4840632E-008  0.2196223E+03  0.7818608E-02  0.1134165E+00
          2   -1    0    0  501    0  0.00000000000E+00  0.00000000000E+00  0.42848753190E+03  0.42848753191E+03  0.25500000000E-02 0. -1.
         -2   -1    0    0    0  501 -0.00000000000E+00 -0.00000000000E+00 -0.36457396090E+03  0.36457396091E+03  0.25500000000E-02 0.  1.
    8880022    1    1    2    0    0 -0.15751179478E+03 -0.56846452082E+01  0.36163447143E+03  0.42309978094E+03  0.15294330000E+03 0.  0.
    8880022    1    1    2    0    0  0.15751179478E+03  0.56846452082E+01 -0.29772090044E+03  0.36996171188E+03  0.15294330000E+03 0.  1.
<mgrwt>
<rscale>  0 0.21962225E+03</rscale>
<asrwt>0</asrwt>
<pdfrwt beam="1">  1        2 0.65921159E-01 0.21962225E+03</pdfrwt>
<pdfrwt beam="2">  1       -2 0.56088302E-01 0.21962225E+03</pdfrwt>
<totfact> 0.22776470E+02</totfact>
</mgrwt>
</event>
<event>
 4    1  0.4840632E-008  0.4391842E+03  0.7818608E-02  0.1030997E+00
          2   -1    0    0  501    0  0.00000000000E+00  0.00000000000E+00  0.35897202568E+04  0.35897202568E+04  0.25500000000E-02 0. -1.
         -2   -1    0    0    0  501 -0.00000000000E+00 -0.00000000000E+00 -0.71472907288E+02  0.71472907333E+02  0.25500000000E-02 0.  1.
    8880022    1    1    2    0    0  0.86507128351E+02 -0.40250172218E+03  0.84709163313E+03  0.95417346827E+03  0.15294330000E+03 0.  0.
    8880022    1    1    2    0    0 -0.86507128351E+02  0.40250172218E+03  0.26711557164E+04  0.27070196959E+04  0.15294330000E+03 0.  0.
<mgrwt>
<rscale>  0 0.43918421E+03</rscale>
<asrwt>0</asrwt>
<pdfrwt beam="1">  1        2 0.55226456E+00 0.43918421E+03</pdfrwt>
<pdfrwt beam="2">  1       -2 0.10995834E-01 0.43918421E+03</pdfrwt>
<totfact> 0.47547944E+01</totfact>
</mgrwt>
</event>
<event>
 4    1  0.4840632E-008  0.7055134E+03  0.7818608E-02  0.9707850E-01
          2   -1    0    0  501    0  0.00000000000E+00  0.00000000000E+00  0.10163671016E+04  0.10163671016E+04  0.25500000000E-02 0. -1.
         -2   -1    0    0    0  501 -0.00000000000E+00 -0.00000000000E+00 -0.57497659062E+03  0.57497659062E+03  0.25500000000E-02 0.  1.
    8880022    1    1    2    0    0  0.38511408588E+03  0.57100325118E+03  0.52705943406E+03  0.88064798419E+03  0.15294330000E+03 0.  0.
    8880022    1    1    2    0    0 -0.38511408588E+03 -0.57100325118E+03 -0.85668923096E+02  0.71069570802E+03  0.15294330000E+03 0.  0.
<mgrwt>
<rscale>  0 0.70551345E+03</rscale>
<asrwt>0</asrwt>
<pdfrwt beam="1">  1        2 0.15636417E+00 0.70551345E+03</pdfrwt>
<pdfrwt beam="2">  1       -2 0.88457938E-01 0.70551345E+03</pdfrwt>
<totfact> 0.27608615E+01</totfact>
</mgrwt>
</event>
<event>
 4    1  0.4840632E-008  0.5093918E+03  0.7818608E-02  0.1011356E+00
          2   -1    0    0  501    0  0.00000000000E+00  0.00000000000E+00  0.25793054504E+04  0.25793054504E+04  0.25500000000E-02 0. -1.
         -2   -1    0    0    0  501 -0.00000000000E+00 -0.00000000000E+00 -0.24419325395E+03  0.24419325396E+03  0.25500000000E-02 0.  1.
    8880022    1    1    2    0    0  0.38158724290E+03  0.30079819418E+03  0.84984399328E+02  0.51643235638E+03  0.15294330000E+03 0.  0.
    8880022    1    1    2    0    0 -0.38158724290E+03 -0.30079819418E+03  0.22501277971E+04  0.23070663479E+04  0.15294330000E+03 0.  0.
<mgrwt>
<rscale>  0 0.50939182E+03</rscale>
<asrwt>0</asrwt>
<pdfrwt beam="1">  1        2 0.39681626E+00 0.50939182E+03</pdfrwt>
<pdfrwt beam="2">  1       -2 0.37568190E-01 0.50939182E+03</pdfrwt>
<totfact> 0.22905774E+01</totfact>
</mgrwt>
</event>
<event>
 4    1  0.4840632E-008  0.4325554E+03  0.7818608E-02  0.1033056E+00
         -2   -1    0    0    0  501 -0.00000000000E+00  0.00000000000E+00  0.97740077675E+02  0.97740077708E+02  0.25500000000E-02 0.  1.
          2   -1    0    0  501    0  0.00000000000E+00 -0.00000000000E+00 -0.28031311680E+04  0.28031311680E+04  0.25500000000E-02 0. -1.
    8880022    1    1    2    0    0 -0.40445466723E+03 -0.11356738922E+02 -0.21694385923E+04  0.22121410470E+04  0.15294330000E+03 0.  0.
    8880022    1    1    2    0    0  0.40445466723E+03  0.11356738922E+02 -0.53595249804E+03  0.68873019865E+03  0.15294330000E+03 0.  1.
<mgrwt>
<rscale>  0 0.43255544E+03</rscale>
<asrwt>0</asrwt>
<pdfrwt beam="1">  1        2 0.43125089E+00 0.43255544E+03</pdfrwt>
<pdfrwt beam="2">  1       -2 0.15036937E-01 0.43255544E+03</pdfrwt>
<totfact> 0.88794911E+01</totfact>
</mgrwt>
</event>
<event>
 4    1  0.4840632E-008  0.4222865E+03  0.7818608E-02  0.1036325E+00
          2   -1    0    0  501    0  0.00000000000E+00  0.00000000000E+00  0.15163145401E+04  0.15163145401E+04  0.25500000000E-02 0. -1.
         -2   -1    0    0    0  501 -0.00000000000E+00 -0.00000000000E+00 -0.12422459245E+03  0.12422459247E+03  0.25500000000E-02 0.  1.
    8880022    1    1    2    0    0 -0.37734401240E+03  0.11200787917E+03  0.88539869244E+03  0.98094687230E+03  0.15294330000E+03 0.  0.
    8880022    1    1    2    0    0  0.37734401240E+03 -0.11200787917E+03  0.50669125521E+03  0.65959226027E+03  0.15294330000E+03 0.  0.
<mgrwt>
<rscale>  0 0.42228654E+03</rscale>
<asrwt>0</asrwt>
<pdfrwt beam="1">  1        2 0.23327917E+00 0.42228654E+03</pdfrwt>
<pdfrwt beam="2">  1       -2 0.19111475E-01 0.42228654E+03</pdfrwt>
<totfact> 0.29950438E+02</totfact>
</mgrwt>
</event>
<event>
 4    1  0.4840632E-008  0.3457349E+03  0.7818608E-02  0.1064379E+00
          2   -1    0    0  501    0  0.00000000000E+00  0.00000000000E+00  0.17223498072E+04  0.17223498072E+04  0.25500000000E-02 0. -1.
         -2   -1    0    0    0  501 -0.00000000000E+00 -0.00000000000E+00 -0.80291434085E+03  0.80291434086E+03  0.25500000000E-02 0.  1.
    8880022    1    1    2    0    0 -0.13026054134E+03  0.28137725466E+03 -0.74711268749E+03  0.82323143094E+03  0.15294330000E+03 0.  0.
    8880022    1    1    2    0    0  0.13026054134E+03 -0.28137725466E+03  0.16665481538E+04  0.17020327171E+04  0.15294330000E+03 0. -1.
<mgrwt>
<rscale>  0 0.34573490E+03</rscale>
<asrwt>0</asrwt>
<pdfrwt beam="1">  1        2 0.26497689E+00 0.34573490E+03</pdfrwt>
<pdfrwt beam="2">  1       -2 0.12352528E+00 0.34573490E+03</pdfrwt>
<totfact> 0.53224942E+00</totfact>
</mgrwt>
</event>
<event>
 4    1  0.4840632E-008  0.3416484E+03  0.7818608E-02  0.1066096E+00
          2   -1    0    0  501    0  0.00000000000E+00  0.00000000000E+00  0.14147698231E+04  0.14147698231E+04  0.25500000000E-02 0. -1.
         -2   -1    0    0    0  501 -0.00000000000E+00 -0.00000000000E+00 -0.31969613384E+03  0.31969613385E+03  0.25500000000E-02 0.  1.
    8880022    1    1    2    0    0 -0.27889487388E+03 -0.12469820252E+03  0.12945316343E+04  0.13388561527E+04  0.15294330000E+03 0.  0.
    8880022    1    1    2    0    0  0.27889487388E+03  0.12469820252E+03 -0.19945794503E+03  0.39560980427E+03  0.15294330000E+03 0.  0.
<mgrwt>
<rscale>  0 0.34164842E+03</rscale>
<asrwt>0</asrwt>
<pdfrwt beam="1">  1        2 0.21765690E+00 0.34164842E+03</pdfrwt>
<pdfrwt beam="2">  1       -2 0.49184020E-01 0.34164842E+03</pdfrwt>
<totfact> 0.60076226E+01</totfact>
</mgrwt>
</event>
<event>
 4    1  0.4840632E-008  0.1015914E+04  0.7818608E-02  0.9291260E-01
         -2   -1    0    0    0  501 -0.00000000000E+00  0.00000000000E+00  0.17317332320E+04  0.17317332320E+04  0.25500000000E-02 0.  1.
          2   -1    0    0  501    0  0.00000000000E+00 -0.00000000000E+00 -0.13722688514E+04  0.13722688514E+04  0.25500000000E-02 0. -1.
    8880022    1    1    2    0    0 -0.50421428844E+03 -0.86859563940E+03 -0.98757048308E+03  0.14168195176E+04  0.15294330000E+03 0.  0.
    8880022    1    1    2    0    0  0.50421428844E+03  0.86859563940E+03  0.13470348637E+04  0.16871825658E+04  0.15294330000E+03 0.  0.
<mgrwt>
<rscale>  0 0.10159144E+04</rscale>
<asrwt>0</asrwt>
<pdfrwt beam="1">  1        2 0.21111829E+00 0.10159144E+04</pdfrwt>
<pdfrwt beam="2">  1       -2 0.26642050E+00 0.10159144E+04</pdfrwt>
<totfact> 0.76306075E-01</totfact>
</mgrwt>
</event>
<event>
 4    1  0.4840632E-008  0.2595147E+03  0.7818608E-02  0.1107435E+00
         -2   -1    0    0    0  501 -0.00000000000E+00  0.00000000000E+00  0.93344478290E+02  0.93344478325E+02  0.25500000000E-02 0.  1.
          2   -1    0    0  501    0  0.00000000000E+00 -0.00000000000E+00 -0.16123972921E+04  0.16123972921E+04  0.25500000000E-02 0. -1.
    8880022    1    1    2    0    0 -0.19696413624E+03  0.71842400721E+02 -0.13934859819E+04  0.14174452498E+04  0.15294330000E+03 0.  0.
    8880022    1    1    2    0    0  0.19696413624E+03 -0.71842400721E+02 -0.12556683194E+03  0.28829652063E+03  0.15294330000E+03 0.  0.
<mgrwt>
<rscale>  0 0.25951465E+03</rscale>
<asrwt>0</asrwt>
<pdfrwt beam="1">  1        2 0.24806110E+00 0.25951465E+03</pdfrwt>
<pdfrwt beam="2">  1       -2 0.14360690E-01 0.25951465E+03</pdfrwt>
<totfact> 0.44010459E+02</totfact>
</mgrwt>
</event>
<event>
 4    1  0.4840632E-008  0.1390346E+04  0.7818608E-02  0.8960837E-01
          2   -1    0    0  501    0  0.00000000000E+00  0.00000000000E+00  0.21411603916E+04  0.21411603916E+04  0.25500000000E-02 0. -1.
         -2   -1    0    0    0  501 -0.00000000000E+00 -0.00000000000E+00 -0.15841377513E+04  0.15841377513E+04  0.25500000000E-02 0.  1.
    8880022    1    1    2    0    0 -0.43706057198E+03  0.13109719790E+04 -0.94304245684E+03  0.16799970839E+04  0.15294330000E+03 0.  0.
    8880022    1    1    2    0    0  0.43706057198E+03 -0.13109719790E+04  0.15000650971E+04  0.20453010590E+04  0.15294330000E+03 0.  0.
<mgrwt>
<rscale>  0 0.13903457E+04</rscale>
<asrwt>0</asrwt>
<pdfrwt beam="1">  1        2 0.32940929E+00 0.13903457E+04</pdfrwt>
<pdfrwt beam="2">  1       -2 0.24371350E+00 0.13903457E+04</pdfrwt>
<totfact> 0.37175044E-01</totfact>
</mgrwt>
</event>
<event>
 4    1  0.4840632E-008  0.4290075E+03  0.7818608E-02  0.1034174E+00
         -2   -1    0    0    0  501 -0.00000000000E+00  0.00000000000E+00  0.43878303134E+03  0.43878303135E+03  0.25500000000E-02 0.  1.
          2   -1    0    0  501    0  0.00000000000E+00 -0.00000000000E+00 -0.74537271677E+03  0.74537271678E+03  0.25500000000E-02 0. -1.
    8880022    1    1    2    0    0 -0.80203602394E+02  0.39271255199E+03 -0.54481090917E+03  0.69344527260E+03  0.15294330000E+03 0.  0.
    8880022    1    1    2    0    0  0.80203602394E+02 -0.39271255199E+03  0.23822122374E+03  0.49071047552E+03  0.15294330000E+03 0.  0.
<mgrwt>
<rscale>  0 0.42900748E+03</rscale>
<asrwt>0</asrwt>
<pdfrwt beam="1">  1        2 0.11467273E+00 0.42900748E+03</pdfrwt>
<pdfrwt beam="2">  1       -2 0.67505082E-01 0.42900748E+03</pdfrwt>
<totfact> 0.79237059E+01</totfact>
</mgrwt>
</event>
<event>
 4    1  0.4840632E-008  0.3073097E+03  0.7818608E-02  0.1081643E+00
          2   -1    0    0  501    0  0.00000000000E+00  0.00000000000E+00  0.30187579953E+04  0.30187579953E+04  0.25500000000E-02 0. -1.
         -2   -1    0    0    0  501 -0.00000000000E+00 -0.00000000000E+00 -0.56327212924E+02  0.56327212982E+02  0.25500000000E-02 0.  1.
    8880022    1    1    2    0    0 -0.26643344523E+03  0.78002316993E+01  0.25064228361E+04  0.25251920146E+04  0.15294330000E+03 0.  0.
    8880022    1    1    2    0    0  0.26643344523E+03 -0.78002316993E+01  0.45600794626E+03  0.54989319365E+03  0.15294330000E+03 0.  0.
<mgrwt>
<rscale>  0 0.30730974E+03</rscale>
<asrwt>0</asrwt>
<pdfrwt beam="1">  1        2 0.46442441E+00 0.30730974E+03</pdfrwt>
<pdfrwt beam="2">  1       -2 0.86657231E-02 0.30730974E+03</pdfrwt>
<totfact> 0.16767270E+02</totfact>
</mgrwt>
</event>
<event>
 4    1  0.4840632E-008  0.2666359E+03  0.7818608E-02  0.1103221E+00
          2   -1    0    0  501    0  0.00000000000E+00  0.00000000000E+00  0.11943033289E+03  0.11943033292E+03  0.25500000000E-02 0. -1.
         -2   -1    0    0    0  501 -0.00000000000E+00 -0.00000000000E+00 -0.21455689488E+04  0.21455689488E+04  0.25500000000E-02 0.  1.
    8880022    1    1    2    0    0  0.19810317052E+03  0.91968249288E+02 -0.19757293347E+04  0.19936401586E+04  0.15294330000E+03 0.  0.
    8880022    1    1    2    0    0 -0.19810317052E+03 -0.91968249288E+02 -0.50409281220E+02  0.27135912311E+03  0.15294330000E+03 0. -1.
<mgrwt>
<rscale>  0 0.26663585E+03</rscale>
<asrwt>0</asrwt>
<pdfrwt beam="1">  1        2 0.18373899E-01 0.26663585E+03</pdfrwt>
<pdfrwt beam="2">  1       -2 0.33008750E+00 0.26663585E+03</pdfrwt>
<totfact> 0.74787452E+00</totfact>
</mgrwt>
</event>
<event>
 4    1  0.4840632E-008  0.1247028E+04  0.7818608E-02  0.9072660E-01
         -2   -1    0    0    0  501 -0.00000000000E+00  0.00000000000E+00  0.11183285550E+04  0.11183285550E+04  0.25500000000E-02 0.  1.
          2   -1    0    0  501    0  0.00000000000E+00 -0.00000000000E+00 -0.15759886866E+04  0.15759886866E+04  0.25500000000E-02 0. -1.
    8880022    1    1    2    0    0 -0.42721613358E+03 -0.11615396264E+04  0.23329031496E+03  0.12686622689E+04  0.15294330000E+03 0.  0.
    8880022    1    1    2    0    0  0.42721613358E+03  0.11615396264E+04 -0.69095044659E+03  0.14256549727E+04  0.15294330000E+03 0.  0.
<mgrwt>
<rscale>  0 0.12470283E+04</rscale>
<asrwt>0</asrwt>
<pdfrwt beam="1">  1        2 0.24245980E+00 0.12470283E+04</pdfrwt>
<pdfrwt beam="2">  1       -2 0.17205055E+00 0.12470283E+04</pdfrwt>
<totfact> 0.22902742E+00</totfact>
</mgrwt>
</event>
<event>
 4    1  0.4840632E-008  0.3083682E+03  0.7818608E-02  0.1081131E+00
         -2   -1    0    0    0  501 -0.00000000000E+00  0.00000000000E+00  0.47066646915E+03  0.47066646916E+03  0.25500000000E-02 0.  1.
          2   -1    0    0  501    0  0.00000000000E+00 -0.00000000000E+00 -0.13594336869E+04  0.13594336869E+04  0.25500000000E-02 0. -1.
    8880022    1    1    2    0    0  0.24394753077E+03  0.11040326231E+03  0.39993703615E+03  0.50501540966E+03  0.15294330000E+03 0.  0.
    8880022    1    1    2    0    0 -0.24394753077E+03 -0.11040326231E+03 -0.12887042539E+04  0.13250847464E+04  0.15294330000E+03 0. -1.
<mgrwt>
<rscale>  0 0.30836817E+03</rscale>
<asrwt>0</asrwt>
<pdfrwt beam="1">  1        2 0.20914364E+00 0.30836817E+03</pdfrwt>
<pdfrwt beam="2">  1       -2 0.72410226E-01 0.30836817E+03</pdfrwt>
<totfact> 0.29012495E+01</totfact>
</mgrwt>
</event>
<event>
 4    1  0.4840632E-008  0.3435505E+03  0.7818608E-02  0.1065294E+00
          2   -1    0    0  501    0  0.00000000000E+00  0.00000000000E+00  0.10371661679E+04  0.10371661679E+04  0.25500000000E-02 0. -1.
         -2   -1    0    0    0  501 -0.00000000000E+00 -0.00000000000E+00 -0.19127930133E+03  0.19127930135E+03  0.25500000000E-02 0.  1.
    8880022    1    1    2    0    0  0.30762502820E+03  0.14655634132E+01  0.32020057781E+02  0.34503948030E+03  0.15294330000E+03 0.  0.
    8880022    1    1    2    0    0 -0.30762502820E+03 -0.14655634132E+01  0.81386680879E+03  0.88340598895E+03  0.15294330000E+03 0.  0.
<mgrwt>
<rscale>  0 0.34355052E+03</rscale>
<asrwt>0</asrwt>
<pdfrwt beam="1">  1        2 0.15956403E+00 0.34355052E+03</pdfrwt>
<pdfrwt beam="2">  1       -2 0.29427585E-01 0.34355052E+03</pdfrwt>
<totfact> 0.26380597E+02</totfact>
</mgrwt>
</event>
<event>
 4    1  0.4840632E-008  0.4432881E+03  0.7818608E-02  0.1029743E+00
         -2   -1    0    0    0  501 -0.00000000000E+00  0.00000000000E+00  0.35309820140E+03  0.35309820141E+03  0.25500000000E-02 0.  1.
          2   -1    0    0  501    0  0.00000000000E+00 -0.00000000000E+00 -0.66061787787E+03  0.66061787787E+03  0.25500000000E-02 0. -1.
    8880022    1    1    2    0    0  0.35236466253E+03 -0.22125067356E+03  0.47447121332E+02  0.44582014119E+03  0.15294330000E+03 0.  0.
    8880022    1    1    2    0    0 -0.35236466253E+03  0.22125067356E+03 -0.35496679780E+03  0.56789593810E+03  0.15294330000E+03 0.  0.
<mgrwt>
<rscale>  0 0.44328813E+03</rscale>
<asrwt>0</asrwt>
<pdfrwt beam="1">  1        2 0.10163352E+00 0.44328813E+03</pdfrwt>
<pdfrwt beam="2">  1       -2 0.54322800E-01 0.44328813E+03</pdfrwt>
<totfact> 0.14504266E+02</totfact>
</mgrwt>
</event>
<event>
 4    1  0.4840632E-008  0.5584108E+03  0.7818608E-02  0.9995657E-01
         -2   -1    0    0    0  501 -0.00000000000E+00  0.00000000000E+00  0.17133406021E+03  0.17133406023E+03  0.25500000000E-02 0.  1.
          2   -1    0    0  501    0  0.00000000000E+00 -0.00000000000E+00 -0.31644371331E+04  0.31644371331E+04  0.25500000000E-02 0. -1.
    8880022    1    1    2    0    0  0.52283996429E+03 -0.12275702354E+03 -0.25837113300E+04  0.26433665665E+04  0.15294330000E+03 0.  0.
    8880022    1    1    2    0    0 -0.52283996429E+03  0.12275702354E+03 -0.40939174284E+03  0.69240462679E+03  0.15294330000E+03 0.  0.
<mgrwt>
<rscale>  0 0.55841075E+03</rscale>
<asrwt>0</asrwt>
<pdfrwt beam="1">  1        2 0.48683644E+00 0.55841075E+03</pdfrwt>
<pdfrwt beam="2">  1       -2 0.26359089E-01 0.55841075E+03</pdfrwt>
<totfact> 0.19690778E+01</totfact>
</mgrwt>
</event>
<event>
 4    1  0.4840632E-008  0.1278986E+04  0.7818608E-02  0.9046397E-01
          2   -1    0    0  501    0  0.00000000000E+00  0.00000000000E+00  0.29187308867E+04  0.29187308867E+04  0.25500000000E-02 0. -1.
         -2   -1    0    0    0  501 -0.00000000000E+00 -0.00000000000E+00 -0.12438498582E+04  0.12438498582E+04  0.25500000000E-02 0.  1.
    8880022    1    1    2    0    0 -0.39788092758E+03 -0.12058628988E+04 -0.70527467999E+03  0.14605542066E+04  0.15294330000E+03 0.  0.
    8880022    1    1    2    0    0  0.39788092758E+03  0.12058628988E+04  0.23801557085E+04  0.27020265382E+04  0.15294330000E+03 0.  0.
<mgrwt>
<rscale>  0 0.12789864E+04</rscale>
<asrwt>0</asrwt>
<pdfrwt beam="1">  1        2 0.44903552E+00 0.12789864E+04</pdfrwt>
<pdfrwt beam="2">  1       -2 0.19136152E+00 0.12789864E+04</pdfrwt>
<totfact> 0.28807281E-01</totfact>
</mgrwt>
</event>
<event>
 4    1  0.4840632E-008  0.3958904E+03  0.7818608E-02  0.1045212E+00
         -2   -1    0    0    0  501 -0.00000000000E+00  0.00000000000E+00  0.23235094689E+04  0.23235094689E+04  0.25500000000E-02 0.  1.
          2   -1    0    0  501    0  0.00000000000E+00 -0.00000000000E+00 -0.31206882873E+03  0.31206882874E+03  0.25500000000E-02 0. -1.
    8880022    1    1    2    0    0  0.17265917257E+03  0.32175513630E+03  0.21724289936E+04  0.22082067256E+04  0.15294330000E+03 0.  0.
    8880022    1    1    2    0    0 -0.17265917257E+03 -0.32175513630E+03 -0.16098835348E+03  0.42737157203E+03  0.15294330000E+03 0.  0.
<mgrwt>
<rscale>  0 0.39589040E+03</rscale>
<asrwt>0</asrwt>
<pdfrwt beam="1">  1        2 0.48010590E-01 0.39589040E+03</pdfrwt>
<pdfrwt beam="2">  1       -2 0.35746299E+00 0.39589040E+03</pdfrwt>
<totfact> 0.16725904E+00</totfact>
</mgrwt>
</event>
<event>
 4    1  0.4840632E-008  0.3038243E+03  0.7818608E-02  0.1083344E+00
          2   -1    0    0  501    0  0.00000000000E+00  0.00000000000E+00  0.34942428130E+03  0.34942428130E+03  0.25500000000E-02 0. -1.
         -2   -1    0    0    0  501 -0.00000000000E+00 -0.00000000000E+00 -0.11861836427E+04  0.11861836427E+04  0.25500000000E-02 0.  1.
    8880022    1    1    2    0    0 -0.21160468555E+02 -0.26166736060E+03 -0.10953066773E+04  0.11366643935E+04  0.15294330000E+03 0.  0.
    8880022    1    1    2    0    0  0.21160468555E+02  0.26166736060E+03  0.25854731586E+03  0.39894353057E+03  0.15294330000E+03 0.  0.
<mgrwt>
<rscale>  0 0.30382433E+03</rscale>
<asrwt>0</asrwt>
<pdfrwt beam="1">  1        2 0.53757582E-01 0.30382433E+03</pdfrwt>
<pdfrwt beam="2">  1       -2 0.18248979E+00 0.30382433E+03</pdfrwt>
<totfact> 0.17388054E+01</totfact>
</mgrwt>
</event>
<event>
 4    1  0.4840632E-008  0.5022787E+03  0.7818608E-02  0.1013186E+00
         -2   -1    0    0    0  501 -0.00000000000E+00  0.00000000000E+00  0.73884307437E+03  0.73884307437E+03  0.25500000000E-02 0.  1.
          2   -1    0    0  501    0  0.00000000000E+00 -0.00000000000E+00 -0.37823289965E+03  0.37823289966E+03  0.25500000000E-02 0. -1.
    8880022    1    1    2    0    0  0.45372157467E+03  0.15175314421E+03  0.61451162253E+01  0.50231633416E+03  0.15294330000E+03 0.  0.
    8880022    1    1    2    0    0 -0.45372157467E+03 -0.15175314421E+03  0.35446505849E+03  0.61475963986E+03  0.15294330000E+03 0.  0.
<mgrwt>
<rscale>  0 0.50227874E+03</rscale>
<asrwt>0</asrwt>
<pdfrwt beam="1">  1        2 0.58189677E-01 0.50227874E+03</pdfrwt>
<pdfrwt beam="2">  1       -2 0.11366817E+00 0.50227874E+03</pdfrwt>
<totfact> 0.52896250E+01</totfact>
</mgrwt>
</event>
<event>
 4    1  0.4840632E-008  0.2955504E+03  0.7818608E-02  0.1087486E+00
         -2   -1    0    0    0  501 -0.00000000000E+00  0.00000000000E+00  0.11126095235E+03  0.11126095238E+03  0.25500000000E-02 0.  1.
          2   -1    0    0  501    0  0.00000000000E+00 -0.00000000000E+00 -0.15052579834E+04  0.15052579834E+04  0.25500000000E-02 0. -1.
    8880022    1    1    2    0    0  0.13370316777E+03  0.21466686639E+03 -0.12560627560E+04  0.12903657236E+04  0.15294330000E+03 0.  0.
    8880022    1    1    2    0    0 -0.13370316777E+03 -0.21466686639E+03 -0.13793427510E+03  0.32615321225E+03  0.15294330000E+03 0.  0.
<mgrwt>
<rscale>  0 0.29555042E+03</rscale>
<asrwt>0</asrwt>
<pdfrwt beam="1">  1        2 0.23157814E+00 0.29555042E+03</pdfrwt>
<pdfrwt beam="2">  1       -2 0.17117071E-01 0.29555042E+03</pdfrwt>
<totfact> 0.37248488E+02</totfact>
</mgrwt>
</event>
<event>
 4    1  0.4840632E-008  0.6880471E+03  0.7818608E-02  0.9737894E-01
          2   -1    0    0  501    0  0.00000000000E+00  0.00000000000E+00  0.17409020450E+04  0.17409020450E+04  0.25500000000E-02 0. -1.
         -2   -1    0    0    0  501 -0.00000000000E+00 -0.00000000000E+00 -0.59303604766E+03  0.59303604767E+03  0.25500000000E-02 0.  1.
    8880022    1    1    2    0    0  0.33914478431E+02  0.66997532854E+03  0.14326320377E+04  0.15892902004E+04  0.15294330000E+03 0. -1.
    8880022    1    1    2    0    0 -0.33914478431E+02 -0.66997532854E+03 -0.28476604034E+03  0.74464789226E+03  0.15294330000E+03 0.  1.
<mgrwt>
<rscale>  0 0.68804708E+03</rscale>
<asrwt>0</asrwt>
<pdfrwt beam="1">  1        2 0.26783108E+00 0.68804708E+03</pdfrwt>
<pdfrwt beam="2">  1       -2 0.91236316E-01 0.68804708E+03</pdfrwt>
<totfact> 0.99025063E+00</totfact>
</mgrwt>
</event>
<event>
 4    1  0.4840632E-008  0.5471141E+03  0.7818608E-02  0.1002164E+00
          2   -1    0    0  501    0  0.00000000000E+00  0.00000000000E+00  0.76953970936E+03  0.76953970936E+03  0.25500000000E-02 0. -1.
         -2   -1    0    0    0  501 -0.00000000000E+00 -0.00000000000E+00 -0.62503385500E+03  0.62503385501E+03  0.25500000000E-02 0.  1.
    8880022    1    1    2    0    0  0.52525634037E+03 -0.69257460402E+01 -0.35626328724E+03  0.65288388853E+03  0.15294330000E+03 0.  0.
    8880022    1    1    2    0    0 -0.52525634037E+03  0.69257460402E+01  0.50076914159E+03  0.74168967584E+03  0.15294330000E+03 0. -1.
<mgrwt>
<rscale>  0 0.54711410E+03</rscale>
<asrwt>0</asrwt>
<pdfrwt beam="1">  1        2 0.11839072E+00 0.54711410E+03</pdfrwt>
<pdfrwt beam="2">  1       -2 0.96159055E-01 0.54711410E+03</pdfrwt>
<totfact> 0.33985490E+01</totfact>
</mgrwt>
</event>
<event>
 4    1  0.4840632E-008  0.1951495E+03  0.7818608E-02  0.1153897E+00
         -2   -1    0    0    0  501 -0.00000000000E+00  0.00000000000E+00  0.76320459362E+02  0.76320459404E+02  0.25500000000E-02 0.  1.
          2   -1    0    0  501    0  0.00000000000E+00 -0.00000000000E+00 -0.92003909956E+03  0.92003909956E+03  0.25500000000E-02 0. -1.
    8880022    1    1    2    0    0 -0.73430410194E+02  0.96434685586E+02 -0.75887344570E+03  0.78356380297E+03  0.15294330000E+03 0. -1.
    8880022    1    1    2    0    0  0.73430410194E+02 -0.96434685586E+02 -0.84845194498E+02  0.21279575600E+03  0.15294330000E+03 0.  0.
<mgrwt>
<rscale>  0 0.19514950E+03</rscale>
<asrwt>0</asrwt>
<pdfrwt beam="1">  1        2 0.14154447E+00 0.19514950E+03</pdfrwt>
<pdfrwt beam="2">  1       -2 0.11741610E-01 0.19514950E+03</pdfrwt>
<totfact> 0.15089091E+03</totfact>
</mgrwt>
</event>
<event>
 4    1  0.4840632E-008  0.1939393E+03  0.7818608E-02  0.1154956E+00
         -2   -1    0    0    0  501 -0.00000000000E+00  0.00000000000E+00  0.57101485130E+02  0.57101485187E+02  0.25500000000E-02 0.  1.
          2   -1    0    0  501    0  0.00000000000E+00 -0.00000000000E+00 -0.71063878128E+03  0.71063878128E+03  0.25500000000E-02 0. -1.
    8880022    1    1    2    0    0  0.11256203825E+02  0.11871863053E+03 -0.43055165311E+03  0.47221519921E+03  0.15294330000E+03 0.  0.
    8880022    1    1    2    0    0 -0.11256203825E+02 -0.11871863053E+03 -0.22298564304E+03  0.29552506725E+03  0.15294330000E+03 0. -1.
<mgrwt>
<rscale>  0 0.19393934E+03</rscale>
<asrwt>0</asrwt>
<pdfrwt beam="1">  1        2 0.10932904E+00 0.19393934E+03</pdfrwt>
<pdfrwt beam="2">  1       -2 0.87848444E-02 0.19393934E+03</pdfrwt>
<totfact> 0.33192959E+03</totfact>
</mgrwt>
</event>
<event>
 4    1  0.4840632E-008  0.1646622E+03  0.7818608E-02  0.1183531E+00
         -2   -1    0    0    0  501 -0.00000000000E+00  0.00000000000E+00  0.12636196149E+03  0.12636196151E+03  0.25500000000E-02 0.  1.
          2   -1    0    0  501    0  0.00000000000E+00 -0.00000000000E+00 -0.57333748817E+03  0.57333748818E+03  0.25500000000E-02 0. -1.
    8880022    1    1    2    0    0 -0.16898434923E+02 -0.58621137546E+02  0.53258733379E+02  0.17306108912E+03  0.15294330000E+03 0.  0.
    8880022    1    1    2    0    0  0.16898434923E+02  0.58621137546E+02 -0.50023426007E+03  0.52663836057E+03  0.15294330000E+03 0. -1.
<mgrwt>
<rscale>  0 0.16466222E+03</rscale>
<asrwt>0</asrwt>
<pdfrwt beam="1">  1        2 0.88205766E-01 0.16466222E+03</pdfrwt>
<pdfrwt beam="2">  1       -2 0.19440302E-01 0.16466222E+03</pdfrwt>
<totfact> 0.11707028E+03</totfact>
</mgrwt>
</event>
<event>
 4    1  0.4840632E-008  0.1813828E+03  0.7818608E-02  0.1166471E+00
         -2   -1    0    0    0  501 -0.00000000000E+00  0.00000000000E+00  0.82997900766E+03  0.82997900767E+03  0.25500000000E-02 0.  1.
          2   -1    0    0  501    0  0.00000000000E+00 -0.00000000000E+00 -0.58416062477E+03  0.58416062478E+03  0.25500000000E-02 0. -1.
    8880022    1    1    2    0    0 -0.92696373690E+01 -0.97067721360E+02  0.80556790143E+03  0.82573565113E+03  0.15294330000E+03 0.  0.
    8880022    1    1    2    0    0  0.92696373690E+01  0.97067721360E+02 -0.55974951854E+03  0.58840398132E+03  0.15294330000E+03 0. -1.
<mgrwt>
<rscale>  0 0.18138280E+03</rscale>
<asrwt>0</asrwt>
<pdfrwt beam="1">  1        2 0.89870865E-01 0.18138280E+03</pdfrwt>
<pdfrwt beam="2">  1       -2 0.12768908E+00 0.18138280E+03</pdfrwt>
<totfact> 0.25806299E+01</totfact>
</mgrwt>
</event>
<event>
 4    1  0.4840632E-008  0.4593687E+03  0.7818608E-02  0.1024964E+00
         -2   -1    0    0    0  501 -0.00000000000E+00  0.00000000000E+00  0.37535202317E+03  0.37535202317E+03  0.25500000000E-02 0.  1.
          2   -1    0    0  501    0  0.00000000000E+00 -0.00000000000E+00 -0.28031720826E+04  0.28031720826E+04  0.25500000000E-02 0. -1.
    8880022    1    1    2    0    0  0.13634458630E+03 -0.41114239341E+03 -0.26348957696E+04  0.26746392810E+04  0.15294330000E+03 0.  0.
    8880022    1    1    2    0    0 -0.13634458630E+03  0.41114239341E+03  0.20707571016E+03  0.50388482476E+03  0.15294330000E+03 0.  0.
<mgrwt>
<rscale>  0 0.45936866E+03</rscale>
<asrwt>0</asrwt>
<pdfrwt beam="1">  1        2 0.43125723E+00 0.45936866E+03</pdfrwt>
<pdfrwt beam="2">  1       -2 0.57746467E-01 0.45936866E+03</pdfrwt>
<totfact> 0.73243453E+00</totfact>
</mgrwt>
</event>
<event>
 4    1  0.4840632E-008  0.6334019E+03  0.7818608E-02  0.9838433E-01
          2   -1    0    0  501    0  0.00000000000E+00  0.00000000000E+00  0.14080894151E+04  0.14080894151E+04  0.25500000000E-02 0. -1.
         -2   -1    0    0    0  501 -0.00000000000E+00 -0.00000000000E+00 -0.94731242676E+03  0.94731242677E+03  0.25500000000E-02 0.  1.
    8880022    1    1    2    0    0 -0.60821043063E+03 -0.88805070852E+02  0.12151813577E+04  0.13703516533E+04  0.15294330000E+03 0. -1.
    8880022    1    1    2    0    0  0.60821043063E+03  0.88805070852E+02 -0.75440436935E+03  0.98505018859E+03  0.15294330000E+03 0.  1.
<mgrwt>
<rscale>  0 0.63340186E+03</rscale>
<asrwt>0</asrwt>
<pdfrwt beam="1">  1        2 0.21662914E+00 0.63340186E+03</pdfrwt>
<pdfrwt beam="2">  1       -2 0.14574037E+00 0.63340186E+03</pdfrwt>
<totfact> 0.48336750E+00</totfact>
</mgrwt>
</event>
<event>
 4    1  0.4840632E-008  0.2603580E+03  0.7818608E-02  0.1106928E+00
         -2   -1    0    0    0  501 -0.00000000000E+00  0.00000000000E+00  0.30217598569E+03  0.30217598570E+03  0.25500000000E-02 0.  1.
          2   -1    0    0  501    0  0.00000000000E+00 -0.00000000000E+00 -0.96972421924E+03  0.96972421924E+03  0.25500000000E-02 0. -1.
    8880022    1    1    2    0    0  0.73949360306E+02 -0.19729705423E+03  0.22378734806E+03  0.34331773281E+03  0.15294330000E+03 0.  0.
    8880022    1    1    2    0    0 -0.73949360306E+02  0.19729705423E+03 -0.89133558161E+03  0.92858247213E+03  0.15294330000E+03 0.  0.
<mgrwt>
<rscale>  0 0.26035800E+03</rscale>
<asrwt>0</asrwt>
<pdfrwt beam="1">  1        2 0.14918834E+00 0.26035800E+03</pdfrwt>
<pdfrwt beam="2">  1       -2 0.46488614E-01 0.26035800E+03</pdfrwt>
<totfact> 0.12351537E+02</totfact>
</mgrwt>
</event>
<event>
 4    1  0.4840632E-008  0.3254978E+03  0.7818608E-02  0.1073147E+00
          2   -1    0    0  501    0  0.00000000000E+00  0.00000000000E+00  0.56047176525E+03  0.56047176525E+03  0.25500000000E-02 0. -1.
         -2   -1    0    0    0  501 -0.00000000000E+00 -0.00000000000E+00 -0.21701136279E+03  0.21701136280E+03  0.25500000000E-02 0.  1.
    8880022    1    1    2    0    0  0.20410528520E+03  0.20223299864E+03  0.31130756946E+03  0.45040116452E+03  0.15294330000E+03 0.  0.
    8880022    1    1    2    0    0 -0.20410528520E+03 -0.20223299864E+03  0.32152832996E+02  0.32708196353E+03  0.15294330000E+03 0.  0.
<mgrwt>
<rscale>  0 0.32549778E+03</rscale>
<asrwt>0</asrwt>
<pdfrwt beam="1">  1        2 0.86226424E-01 0.32549778E+03</pdfrwt>
<pdfrwt beam="2">  1       -2 0.33386364E-01 0.32549778E+03</pdfrwt>
<totfact> 0.46001162E+02</totfact>
</mgrwt>
</event>
<event>
 4    1  0.4840632E-008  0.4803141E+03  0.7818608E-02  0.1019049E+00
         -2   -1    0    0    0  501 -0.00000000000E+00  0.00000000000E+00  0.19141043323E+03  0.19141043325E+03  0.25500000000E-02 0.  1.
          2   -1    0    0  501    0  0.00000000000E+00 -0.00000000000E+00 -0.23263087160E+04  0.23263087160E+04  0.25500000000E-02 0. -1.
    8880022    1    1    2    0    0  0.45064878041E+03 -0.65005369811E+02 -0.19413325474E+04  0.19998684291E+04  0.15294330000E+03 0.  0.
    8880022    1    1    2    0    0 -0.45064878041E+03  0.65005369811E+02 -0.19356573540E+03  0.51785072012E+03  0.15294330000E+03 0.  1.
<mgrwt>
<rscale>  0 0.48031414E+03</rscale>
<asrwt>0</asrwt>
<pdfrwt beam="1">  1        2 0.35789363E+00 0.48031414E+03</pdfrwt>
<pdfrwt beam="2">  1       -2 0.29447761E-01 0.48031414E+03</pdfrwt>
<totfact> 0.50341441E+01</totfact>
</mgrwt>
</event>
<event>
 4    1  0.4840632E-008  0.2876657E+03  0.7818608E-02  0.1091574E+00
         -2   -1    0    0    0  501 -0.00000000000E+00  0.00000000000E+00  0.20548403300E+03  0.20548403302E+03  0.25500000000E-02 0.  1.
          2   -1    0    0  501    0  0.00000000000E+00 -0.00000000000E+00 -0.98140018277E+03  0.98140018277E+03  0.25500000000E-02 0. -1.
    8880022    1    1    2    0    0  0.24297232073E+03 -0.18010418033E+02 -0.84365525018E+03  0.89135052475E+03  0.15294330000E+03 0.  0.
    8880022    1    1    2    0    0 -0.24297232073E+03  0.18010418033E+02  0.67739100418E+02  0.29553369104E+03  0.15294330000E+03 0.  0.
<mgrwt>
<rscale>  0 0.28766574E+03</rscale>
<asrwt>0</asrwt>
<pdfrwt beam="1">  1        2 0.15098464E+00 0.28766574E+03</pdfrwt>
<pdfrwt beam="2">  1       -2 0.31612929E-01 0.28766574E+03</pdfrwt>
<totfact> 0.25205459E+02</totfact>
</mgrwt>
</event>
<event>
 4    1  0.4840632E-008  0.1933225E+03  0.7818608E-02  0.1155498E+00
         -2   -1    0    0    0  501 -0.00000000000E+00  0.00000000000E+00  0.16255421232E+04  0.16255421232E+04  0.25500000000E-02 0.  1.
          2   -1    0    0  501    0  0.00000000000E+00 -0.00000000000E+00 -0.50742101567E+02  0.50742101631E+02  0.25500000000E-02 0. -1.
    8880022    1    1    2    0    0  0.89549360710E+02  0.77219397823E+02  0.16757370957E+03  0.25584081879E+03  0.15294330000E+03 0.  0.
    8880022    1    1    2    0    0 -0.89549360710E+02 -0.77219397823E+02  0.14072263121E+04  0.14204434061E+04  0.15294330000E+03 0.  1.
<mgrwt>
<rscale>  0 0.19332247E+03</rscale>
<asrwt>0</asrwt>
<pdfrwt beam="1">  1        2 0.78064760E-02 0.19332247E+03</pdfrwt>
<pdfrwt beam="2">  1       -2 0.25008344E+00 0.19332247E+03</pdfrwt>
<totfact> 0.63421001E+01</totfact>
</mgrwt>
</event>
<event>
 4    1  0.4840632E-008  0.1163163E+04  0.7818608E-02  0.9145726E-01
          2   -1    0    0  501    0  0.00000000000E+00  0.00000000000E+00  0.14914423983E+04  0.14914423983E+04  0.25500000000E-02 0. -1.
         -2   -1    0    0    0  501 -0.00000000000E+00 -0.00000000000E+00 -0.10724064079E+04  0.10724064079E+04  0.25500000000E-02 0.  1.
    8880022    1    1    2    0    0 -0.11013012328E+04 -0.34160128187E+03  0.71275738104E+03  0.13641739546E+04  0.15294330000E+03 0.  0.
    8880022    1    1    2    0    0  0.11013012328E+04  0.34160128187E+03 -0.29372139061E+03  0.11996748516E+04  0.15294330000E+03 0.  0.
<mgrwt>
<rscale>  0 0.11631627E+04</rscale>
<asrwt>0</asrwt>
<pdfrwt beam="1">  1        2 0.22945267E+00 0.11631627E+04</pdfrwt>
<pdfrwt beam="2">  1       -2 0.16498560E+00 0.11631627E+04</pdfrwt>
<totfact> 0.28972795E+00</totfact>
</mgrwt>
</event>
<event>
 4    1  0.4840632E-008  0.5515639E+03  0.7818608E-02  0.1001133E+00
         -2   -1    0    0    0  501 -0.00000000000E+00  0.00000000000E+00  0.44329998586E+03  0.44329998587E+03  0.25500000000E-02 0.  1.
          2   -1    0    0  501    0  0.00000000000E+00 -0.00000000000E+00 -0.79823223475E+03  0.79823223476E+03  0.25500000000E-02 0. -1.
    8880022    1    1    2    0    0  0.14759644582E+02 -0.52972937359E+03 -0.40995518622E+03  0.68723064838E+03  0.15294330000E+03 0.  0.
    8880022    1    1    2    0    0 -0.14759644582E+02  0.52972937359E+03  0.55022937332E+02  0.55430157225E+03  0.15294330000E+03 0.  0.
<mgrwt>
<rscale>  0 0.55156388E+03</rscale>
<asrwt>0</asrwt>
<pdfrwt beam="1">  1        2 0.12280496E+00 0.55156388E+03</pdfrwt>
<pdfrwt beam="2">  1       -2 0.68199998E-01 0.55156388E+03</pdfrwt>
<totfact> 0.70033876E+01</totfact>
</mgrwt>
</event>
<event>
 4    1  0.4840632E-008  0.5493254E+03  0.7818608E-02  0.1001650E+00
         -2   -1    0    0    0  501 -0.00000000000E+00  0.00000000000E+00  0.85290266047E+03  0.85290266048E+03  0.25500000000E-02 0.  1.
          2   -1    0    0  501    0  0.00000000000E+00 -0.00000000000E+00 -0.13397056977E+04  0.13397056977E+04  0.25500000000E-02 0. -1.
    8880022    1    1    2    0    0  0.46269129664E+03 -0.25354197109E+03 -0.11838687735E+04  0.13051067746E+04  0.15294330000E+03 0.  0.
    8880022    1    1    2    0    0 -0.46269129664E+03  0.25354197109E+03  0.69706573632E+03  0.88750158358E+03  0.15294330000E+03 0.  0.
<mgrwt>
<rscale>  0 0.54932542E+03</rscale>
<asrwt>0</asrwt>
<pdfrwt beam="1">  1        2 0.20610857E+00 0.54932542E+03</pdfrwt>
<pdfrwt beam="2">  1       -2 0.13121579E+00 0.54932542E+03</pdfrwt>
<totfact> 0.70244835E+00</totfact>
</mgrwt>
</event>
<event>
 4    1  0.4840632E-008  0.6367359E+03  0.7818608E-02  0.9831992E-01
          2   -1    0    0  501    0  0.00000000000E+00  0.00000000000E+00  0.12551633802E+04  0.12551633802E+04  0.25500000000E-02 0. -1.
         -2   -1    0    0    0  501 -0.00000000000E+00 -0.00000000000E+00 -0.76905409797E+03  0.76905409797E+03  0.25500000000E-02 0.  1.
    8880022    1    1    2    0    0 -0.19510885896E+03 -0.58649248279E+03 -0.52773658704E+03  0.82700571795E+03  0.15294330000E+03 0.  0.
    8880022    1    1    2    0    0  0.19510885896E+03  0.58649248279E+03  0.10138458693E+04  0.11972117603E+04  0.15294330000E+03 0. -1.
<mgrwt>
<rscale>  0 0.63673586E+03</rscale>
<asrwt>0</asrwt>
<pdfrwt beam="1">  1        2 0.19310206E+00 0.63673586E+03</pdfrwt>
<pdfrwt beam="2">  1       -2 0.11831602E+00 0.63673586E+03</pdfrwt>
<totfact> 0.10015529E+01</totfact>
</mgrwt>
</event>
<event>
 4    1  0.4840632E-008  0.7018965E+03  0.7818608E-02  0.9713994E-01
          2   -1    0    0  501    0  0.00000000000E+00  0.00000000000E+00  0.14301520867E+04  0.14301520867E+04  0.25500000000E-02 0. -1.
         -2   -1    0    0    0  501 -0.00000000000E+00 -0.00000000000E+00 -0.81696049177E+03  0.81696049178E+03  0.25500000000E-02 0.  1.
    8880022    1    1    2    0    0  0.27711538868E+03  0.62647748828E+03 -0.54785350334E+03  0.89039434864E+03  0.15294330000E+03 0.  0.
    8880022    1    1    2    0    0 -0.27711538868E+03 -0.62647748828E+03  0.11610450983E+04  0.13567182299E+04  0.15294330000E+03 0.  0.
<mgrwt>
<rscale>  0 0.70189646E+03</rscale>
<asrwt>0</asrwt>
<pdfrwt beam="1">  1        2 0.22002340E+00 0.70189646E+03</pdfrwt>
<pdfrwt beam="2">  1       -2 0.12568623E+00 0.70189646E+03</pdfrwt>
<totfact> 0.67824695E+00</totfact>
</mgrwt>
</event>
<event>
 4    1  0.4840632E-008  0.3533529E+03  0.7818608E-02  0.1061247E+00
          2   -1    0    0  501    0  0.00000000000E+00  0.00000000000E+00  0.39709511733E+03  0.39709511734E+03  0.25500000000E-02 0. -1.
         -2   -1    0    0    0  501 -0.00000000000E+00 -0.00000000000E+00 -0.10839811480E+04  0.10839811480E+04  0.25500000000E-02 0.  1.
    8880022    1    1    2    0    0  0.22358920852E+03 -0.22687993772E+03  0.28051524385E+03  0.45116193917E+03  0.15294330000E+03 0. -1.
    8880022    1    1    2    0    0 -0.22358920852E+03  0.22687993772E+03 -0.96740127450E+03  0.10299143262E+04  0.15294330000E+03 0.  0.
<mgrwt>
<rscale>  0 0.35335293E+03</rscale>
<asrwt>0</asrwt>
<pdfrwt beam="1">  1        2 0.61091557E-01 0.35335293E+03</pdfrwt>
<pdfrwt beam="2">  1       -2 0.16676633E+00 0.35335293E+03</pdfrwt>
<totfact> 0.19185813E+01</totfact>
</mgrwt>
</event>
<event>
 4    1  0.4840632E-008  0.1192165E+04  0.7818608E-02  0.9119742E-01
         -2   -1    0    0    0  501 -0.00000000000E+00  0.00000000000E+00  0.83520637082E+03  0.83520637082E+03  0.25500000000E-02 0.  1.
          2   -1    0    0  501    0  0.00000000000E+00 -0.00000000000E+00 -0.22023463383E+04  0.22023463383E+04  0.25500000000E-02 0. -1.
    8880022    1    1    2    0    0  0.95778480647E+03 -0.69319118160E+03 -0.14077114823E+04  0.18446975417E+04  0.15294330000E+03 0.  0.
    8880022    1    1    2    0    0 -0.95778480647E+03  0.69319118160E+03  0.40571514822E+02  0.11928551675E+04  0.15294330000E+03 0.  0.
<mgrwt>
<rscale>  0 0.11921650E+04</rscale>
<asrwt>0</asrwt>
<pdfrwt beam="1">  1        2 0.33882251E+00 0.11921650E+04</pdfrwt>
<pdfrwt beam="2">  1       -2 0.12849329E+00 0.11921650E+04</pdfrwt>
<totfact> 0.22513772E+00</totfact>
</mgrwt>
</event>
<event>
 4    1  0.4840632E-008  0.3236036E+03  0.7818608E-02  0.1074003E+00
          2   -1    0    0  501    0  0.00000000000E+00  0.00000000000E+00  0.21949223194E+04  0.21949223194E+04  0.25500000000E-02 0. -1.
         -2   -1    0    0    0  501 -0.00000000000E+00 -0.00000000000E+00 -0.23204056903E+03  0.23204056904E+03  0.25500000000E-02 0.  1.
    8880022    1    1    2    0    0 -0.26960315958E+03  0.92961275447E+02 -0.10011781384E+03  0.33873720205E+03  0.15294330000E+03 0.  0.
    8880022    1    1    2    0    0  0.26960315958E+03 -0.92961275447E+02  0.20629995642E+04  0.20882256864E+04  0.15294330000E+03 0. -1.
<mgrwt>
<rscale>  0 0.32360364E+03</rscale>
<asrwt>0</asrwt>
<pdfrwt beam="1">  1        2 0.33768034E+00 0.32360364E+03</pdfrwt>
<pdfrwt beam="2">  1       -2 0.35698551E-01 0.32360364E+03</pdfrwt>
<totfact> 0.43123622E+01</totfact>
</mgrwt>
</event>
<event>
 4    1  0.4840632E-008  0.4959760E+03  0.7818608E-02  0.1014835E+00
         -2   -1    0    0    0  501 -0.00000000000E+00  0.00000000000E+00  0.24365366212E+03  0.24365366214E+03  0.25500000000E-02 0.  1.
          2   -1    0    0  501    0  0.00000000000E+00 -0.00000000000E+00 -0.18939406723E+04  0.18939406723E+04  0.25500000000E-02 0. -1.
    8880022    1    1    2    0    0 -0.35643757313E+03  0.30911612088E+03 -0.94807893846E+02  0.50495614609E+03  0.15294330000E+03 0.  0.
    8880022    1    1    2    0    0  0.35643757313E+03 -0.30911612088E+03 -0.15554791164E+04  0.16326381884E+04  0.15294330000E+03 0.  0.
<mgrwt>
<rscale>  0 0.49597598E+03</rscale>
<asrwt>0</asrwt>
<pdfrwt beam="1">  1        2 0.29137548E+00 0.49597598E+03</pdfrwt>
<pdfrwt beam="2">  1       -2 0.37485180E-01 0.49597598E+03</pdfrwt>
<totfact> 0.54724158E+01</totfact>
</mgrwt>
</event>
<event>
 4    1  0.4840632E-008  0.4787687E+03  0.7818608E-02  0.1019474E+00
          2   -1    0    0  501    0  0.00000000000E+00  0.00000000000E+00  0.18214899565E+04  0.18214899565E+04  0.25500000000E-02 0. -1.
         -2   -1    0    0    0  501 -0.00000000000E+00 -0.00000000000E+00 -0.25964396442E+03  0.25964396443E+03  0.25500000000E-02 0.  1.
    8880022    1    1    2    0    0 -0.42953171560E+03 -0.14604905384E+03  0.33936800875E+02  0.47996997854E+03  0.15294330000E+03 0.  0.
    8880022    1    1    2    0    0  0.42953171560E+03  0.14604905384E+03  0.15279091912E+04  0.16011639424E+04  0.15294330000E+03 0.  0.
<mgrwt>
<rscale>  0 0.47876871E+03</rscale>
<asrwt>0</asrwt>
<pdfrwt beam="1">  1        2 0.28022922E+00 0.47876871E+03</pdfrwt>
<pdfrwt beam="2">  1       -2 0.39945226E-01 0.47876871E+03</pdfrwt>
<totfact> 0.53123170E+01</totfact>
</mgrwt>
</event>
<event>
 4    1  0.4840632E-008  0.1909158E+03  0.7818608E-02  0.1157638E+00
          2   -1    0    0  501    0  0.00000000000E+00  0.00000000000E+00  0.19816856438E+04  0.19816856438E+04  0.25500000000E-02 0. -1.
         -2   -1    0    0    0  501 -0.00000000000E+00 -0.00000000000E+00 -0.11502625839E+03  0.11502625842E+03  0.25500000000E-02 0.  1.
    8880022    1    1    2    0    0  0.64258488618E+01  0.11408726908E+03 -0.27560839368E+02  0.19289491798E+03  0.15294330000E+03 0.  1.
    8880022    1    1    2    0    0 -0.64258488618E+01 -0.11408726908E+03  0.18942202248E+04  0.19038169842E+04  0.15294330000E+03 0. -1.
<mgrwt>
<rscale>  0 0.19091582E+03</rscale>
<asrwt>0</asrwt>
<pdfrwt beam="1">  1        2 0.30487472E+00 0.19091582E+03</pdfrwt>
<pdfrwt beam="2">  1       -2 0.17696347E-01 0.19091582E+03</pdfrwt>
<totfact> 0.20270613E+02</totfact>
</mgrwt>
</event>
<event>
 4    1  0.4840632E-008  0.6696539E+03  0.7818608E-02  0.9770583E-01
          2   -1    0    0  501    0  0.00000000000E+00  0.00000000000E+00  0.23586654884E+04  0.23586654884E+04  0.25500000000E-02 0. -1.
         -2   -1    0    0    0  501 -0.00000000000E+00 -0.00000000000E+00 -0.32800250412E+03  0.32800250413E+03  0.25500000000E-02 0.  1.
    8880022    1    1    2    0    0 -0.64827949941E+03 -0.69126093820E+02  0.18862858616E+04  0.20016270210E+04  0.15294330000E+03 0.  0.
    8880022    1    1    2    0    0  0.64827949941E+03  0.69126093820E+02  0.14437712267E+03  0.68504097160E+03  0.15294330000E+03 0.  0.
<mgrwt>
<rscale>  0 0.66965392E+03</rscale>
<asrwt>0</asrwt>
<pdfrwt beam="1">  1        2 0.36287161E+00 0.66965392E+03</pdfrwt>
<pdfrwt beam="2">  1       -2 0.50461925E-01 0.66965392E+03</pdfrwt>
<totfact> 0.16476907E+01</totfact>
</mgrwt>
</event>
<event>
 4    1  0.4840632E-008  0.3111189E+03  0.7818608E-02  0.1079811E+00
         -2   -1    0    0    0  501 -0.00000000000E+00  0.00000000000E+00  0.48387643875E+03  0.48387643876E+03  0.25500000000E-02 0.  1.
          2   -1    0    0  501    0  0.00000000000E+00 -0.00000000000E+00 -0.26678403643E+03  0.26678403644E+03  0.25500000000E-02 0. -1.
    8880022    1    1    2    0    0 -0.11037402789E+03 -0.24742852277E+03 -0.79185572295E+02  0.32103786037E+03  0.15294330000E+03 0.  1.
    8880022    1    1    2    0    0  0.11037402789E+03  0.24742852277E+03  0.29627797462E+03  0.42962261483E+03  0.15294330000E+03 0.  0.
<mgrwt>
<rscale>  0 0.31111887E+03</rscale>
<asrwt>0</asrwt>
<pdfrwt beam="1">  1        2 0.41043698E-01 0.31111887E+03</pdfrwt>
<pdfrwt beam="2">  1       -2 0.74442529E-01 0.31111887E+03</pdfrwt>
<totfact> 0.20834221E+02</totfact>
</mgrwt>
</event>
<event>
 4    1  0.4840632E-008  0.2167647E+03  0.7818608E-02  0.1136318E+00
          2   -1    0    0  501    0  0.00000000000E+00  0.00000000000E+00  0.83542639116E+03  0.83542639116E+03  0.25500000000E-02 0. -1.
         -2   -1    0    0    0  501 -0.00000000000E+00 -0.00000000000E+00 -0.27796072944E+03  0.27796072945E+03  0.25500000000E-02 0.  1.
    8880022    1    1    2    0    0  0.65241184686E+02  0.13906420605E+03  0.77592542355E+03  0.80563464518E+03  0.15294330000E+03 0. -1.
    8880022    1    1    2    0    0 -0.65241184686E+02 -0.13906420605E+03 -0.21845976183E+03  0.30775247543E+03  0.15294330000E+03 0.  0.
<mgrwt>
<rscale>  0 0.21676466E+03</rscale>
<asrwt>0</asrwt>
<pdfrwt beam="1">  1        2 0.12852713E+00 0.21676466E+03</pdfrwt>
<pdfrwt beam="2">  1       -2 0.42763190E-01 0.21676466E+03</pdfrwt>
<totfact> 0.17892514E+02</totfact>
</mgrwt>
</event>
<event>
 4    1  0.4840632E-008  0.5231000E+03  0.7818608E-02  0.1007919E+00
         -2   -1    0    0    0  501 -0.00000000000E+00  0.00000000000E+00  0.30084871687E+03  0.30084871688E+03  0.25500000000E-02 0.  1.
          2   -1    0    0  501    0  0.00000000000E+00 -0.00000000000E+00 -0.24542836115E+04  0.24542836115E+04  0.25500000000E-02 0. -1.
    8880022    1    1    2    0    0  0.43464112968E+03 -0.24764704977E+03  0.16177567576E+02  0.52335011185E+03  0.15294330000E+03 0.  0.
    8880022    1    1    2    0    0 -0.43464112968E+03  0.24764704977E+03 -0.21696124622E+04  0.22317822165E+04  0.15294330000E+03 0. -1.
<mgrwt>
<rscale>  0 0.52310002E+03</rscale>
<asrwt>0</asrwt>
<pdfrwt beam="1">  1        2 0.37758208E+00 0.52310002E+03</pdfrwt>
<pdfrwt beam="2">  1       -2 0.46284420E-01 0.52310002E+03</pdfrwt>
<totfact> 0.17853660E+01</totfact>
</mgrwt>
</event>
<event>
 4    1  0.4840632E-008  0.2476896E+03  0.7818608E-02  0.1114774E+00
          2   -1    0    0  501    0  0.00000000000E+00  0.00000000000E+00  0.24900164070E+04  0.24900164070E+04  0.25500000000E-02 0. -1.
         -2   -1    0    0    0  501 -0.00000000000E+00 -0.00000000000E+00 -0.33982118170E+02  0.33982118265E+02  0.25500000000E-02 0.  1.
    8880022    1    1    2    0    0  0.26555315308E+02 -0.19301116424E+03  0.18897650240E+04  0.19059281186E+04  0.15294330000E+03 0.  0.
    8880022    1    1    2    0    0 -0.26555315308E+02  0.19301116424E+03  0.56626926476E+03  0.61807040661E+03  0.15294330000E+03 0.  0.
<mgrwt>
<rscale>  0 0.24768962E+03</rscale>
<asrwt>0</asrwt>
<pdfrwt beam="1">  1        2 0.38307936E+00 0.24768962E+03</pdfrwt>
<pdfrwt beam="2">  1       -2 0.52280194E-02 0.24768962E+03</pdfrwt>
<totfact> 0.74613536E+02</totfact>
</mgrwt>
</event>
<event>
 4    1  0.4840632E-008  0.2076061E+03  0.7818608E-02  0.1143476E+00
          2   -1    0    0  501    0  0.00000000000E+00  0.00000000000E+00  0.15927500215E+04  0.15927500215E+04  0.25500000000E-02 0. -1.
         -2   -1    0    0    0  501 -0.00000000000E+00 -0.00000000000E+00 -0.21032400889E+03  0.21032400891E+03  0.25500000000E-02 0.  1.
    8880022    1    1    2    0    0 -0.13667291654E+03  0.32080417457E+02  0.15327580639E+04  0.15467538830E+04  0.15294330000E+03 0. -1.
    8880022    1    1    2    0    0  0.13667291654E+03 -0.32080417457E+02 -0.15033205126E+03  0.25632014738E+03  0.15294330000E+03 0.  0.
<mgrwt>
<rscale>  0 0.20760610E+03</rscale>
<asrwt>0</asrwt>
<pdfrwt beam="1">  1        2 0.24503846E+00 0.20760610E+03</pdfrwt>
<pdfrwt beam="2">  1       -2 0.32357541E-01 0.20760610E+03</pdfrwt>
<totfact> 0.11156447E+02</totfact>
</mgrwt>
</event>
<event>
 4    1  0.4840632E-008  0.5272366E+03  0.7818608E-02  0.1006905E+00
          2   -1    0    0  501    0  0.00000000000E+00  0.00000000000E+00  0.13039333289E+04  0.13039333289E+04  0.25500000000E-02 0. -1.
         -2   -1    0    0    0  501 -0.00000000000E+00 -0.00000000000E+00 -0.66483173517E+03  0.66483173518E+03  0.25500000000E-02 0.  1.
    8880022    1    1    2    0    0  0.27429853766E+03 -0.42349393781E+03 -0.49179814763E+03  0.72100199316E+03  0.15294330000E+03 0.  0.
    8880022    1    1    2    0    0 -0.27429853766E+03  0.42349393781E+03  0.11308997414E+04  0.12477630709E+04  0.15294330000E+03 0. -1.
<mgrwt>
<rscale>  0 0.52723662E+03</rscale>
<asrwt>0</asrwt>
<pdfrwt beam="1">  1        2 0.20060513E+00 0.52723662E+03</pdfrwt>
<pdfrwt beam="2">  1       -2 0.10228181E+00 0.52723662E+03</pdfrwt>
<totfact> 0.13582946E+01</totfact>
</mgrwt>
</event>
<event>
 4    1  0.4840632E-008  0.4201268E+03  0.7818608E-02  0.1037025E+00
         -2   -1    0    0    0  501 -0.00000000000E+00  0.00000000000E+00  0.21450074831E+04  0.21450074831E+04  0.25500000000E-02 0.  1.
          2   -1    0    0  501    0  0.00000000000E+00 -0.00000000000E+00 -0.63206005446E+03  0.63206005446E+03  0.25500000000E-02 0. -1.
    8880022    1    1    2    0    0 -0.31434668553E+03  0.23302574824E+03  0.20514712777E+04  0.20940489236E+04  0.15294330000E+03 0.  0.
    8880022    1    1    2    0    0  0.31434668553E+03 -0.23302574824E+03 -0.53852384906E+03  0.68301861400E+03  0.15294330000E+03 0. -1.
<mgrwt>
<rscale>  0 0.42012676E+03</rscale>
<asrwt>0</asrwt>
<pdfrwt beam="1">  1        2 0.97240010E-01 0.42012676E+03</pdfrwt>
<pdfrwt beam="2">  1       -2 0.33000115E+00 0.42012676E+03</pdfrwt>
<totfact> 0.10992081E+00</totfact>
</mgrwt>
</event>
<event>
 4    1  0.4840632E-008  0.7364104E+03  0.7818608E-02  0.9656915E-01
          2   -1    0    0  501    0  0.00000000000E+00  0.00000000000E+00  0.88448261616E+03  0.88448261617E+03  0.25500000000E-02 0. -1.
         -2   -1    0    0    0  501 -0.00000000000E+00 -0.00000000000E+00 -0.82816157325E+03  0.82816157325E+03  0.25500000000E-02 0.  1.
    8880022    1    1    2    0    0 -0.70769073057E+03  0.13447125613E+03  0.46450909944E+03  0.87067160592E+03  0.15294330000E+03 0.  0.
    8880022    1    1    2    0    0  0.70769073057E+03 -0.13447125613E+03 -0.40818805653E+03  0.84197258351E+03  0.15294330000E+03 0.  0.
<mgrwt>
<rscale>  0 0.73641044E+03</rscale>
<asrwt>0</asrwt>
<pdfrwt beam="1">  1        2 0.13607425E+00 0.73641044E+03</pdfrwt>
<pdfrwt beam="2">  1       -2 0.12740947E+00 0.73641044E+03</pdfrwt>
<totfact> 0.13967318E+01</totfact>
</mgrwt>
</event>
<event>
 4    1  0.4840632E-008  0.2705242E+03  0.7818608E-02  0.1100980E+00
         -2   -1    0    0    0  501 -0.00000000000E+00  0.00000000000E+00  0.38282218174E+02  0.38282218258E+02  0.25500000000E-02 0.  1.
          2   -1    0    0  501    0  0.00000000000E+00 -0.00000000000E+00 -0.24058837877E+04  0.24058837877E+04  0.25500000000E-02 0. -1.
    8880022    1    1    2    0    0 -0.19321656802E+03 -0.11162008631E+03 -0.62991967390E+03  0.68555243010E+03  0.15294330000E+03 0.  0.
    8880022    1    1    2    0    0  0.19321656802E+03  0.11162008631E+03 -0.17376818957E+04  0.17586135759E+04  0.15294330000E+03 0.  0.
<mgrwt>
<rscale>  0 0.27052419E+03</rscale>
<asrwt>0</asrwt>
<pdfrwt beam="1">  1        2 0.37013585E+00 0.27052419E+03</pdfrwt>
<pdfrwt beam="2">  1       -2 0.58895739E-02 0.27052419E+03</pdfrwt>
<totfact> 0.68771999E+02</totfact>
</mgrwt>
</event>
<event>
 4    1  0.4840632E-008  0.7819473E+03  0.7818608E-02  0.9586522E-01
         -2   -1    0    0    0  501 -0.00000000000E+00  0.00000000000E+00  0.67193509333E+03  0.67193509334E+03  0.25500000000E-02 0.  1.
          2   -1    0    0  501    0  0.00000000000E+00 -0.00000000000E+00 -0.10101673853E+04  0.10101673854E+04  0.25500000000E-02 0. -1.
    8880022    1    1    2    0    0 -0.52551204663E+03  0.55846841341E+03  0.95765300657E+02  0.78778964562E+03  0.15294330000E+03 0.  0.
    8880022    1    1    2    0    0  0.52551204663E+03 -0.55846841341E+03 -0.43399759267E+03  0.89431283307E+03  0.15294330000E+03 0.  0.
<mgrwt>
<rscale>  0 0.78194727E+03</rscale>
<asrwt>0</asrwt>
<pdfrwt beam="1">  1        2 0.15541037E+00 0.78194727E+03</pdfrwt>
<pdfrwt beam="2">  1       -2 0.10337463E+00 0.78194727E+03</pdfrwt>
<totfact> 0.19187203E+01</totfact>
</mgrwt>
</event>
<event>
 4    1  0.4840632E-008  0.1634468E+03  0.7818608E-02  0.1184859E+00
          2   -1    0    0  501    0  0.00000000000E+00  0.00000000000E+00  0.72662926303E+03  0.72662926303E+03  0.25500000000E-02 0. -1.
         -2   -1    0    0    0  501 -0.00000000000E+00 -0.00000000000E+00 -0.44165702784E+02  0.44165702858E+02  0.25500000000E-02 0.  1.
    8880022    1    1    2    0    0 -0.56520606321E+02 -0.11341043127E+02  0.49898913103E+03  0.52507618886E+03  0.15294330000E+03 0. -1.
    8880022    1    1    2    0    0  0.56520606321E+02  0.11341043127E+02  0.18347442921E+03  0.24571877703E+03  0.15294330000E+03 0.  0.
<mgrwt>
<rscale>  0 0.16344678E+03</rscale>
<asrwt>0</asrwt>
<pdfrwt beam="1">  1        2 0.11178910E+00 0.16344678E+03</pdfrwt>
<pdfrwt beam="2">  1       -2 0.67947244E-02 0.16344678E+03</pdfrwt>
<totfact> 0.47841418E+03</totfact>
</mgrwt>
</event>
<event>
 4    1  0.4840632E-008  0.1020986E+04  0.7818608E-02  0.9285822E-01
          2   -1    0    0  501    0  0.00000000000E+00  0.00000000000E+00  0.16518819454E+04  0.16518819454E+04  0.25500000000E-02 0. -1.
         -2   -1    0    0    0  501 -0.00000000000E+00 -0.00000000000E+00 -0.95383574244E+03  0.95383574244E+03  0.25500000000E-02 0.  1.
    8880022    1    1    2    0    0 -0.16644886894E+03 -0.99564854694E+03 -0.40889219199E+03  0.10998207730E+04  0.15294330000E+03 0.  0.
    8880022    1    1    2    0    0  0.16644886894E+03  0.99564854694E+03  0.11069383950E+04  0.15058969149E+04  0.15294330000E+03 0.  0.
<mgrwt>
<rscale>  0 0.10209862E+04</rscale>
<asrwt>0</asrwt>
<pdfrwt beam="1">  1        2 0.25413568E+00 0.10209862E+04</pdfrwt>
<pdfrwt beam="2">  1       -2 0.14674396E+00 0.10209862E+04</pdfrwt>
<totfact> 0.32840002E+00</totfact>
</mgrwt>
</event>
<event>
 4    1  0.4840632E-008  0.5054172E+03  0.7818608E-02  0.1012375E+00
          2   -1    0    0  501    0  0.00000000000E+00  0.00000000000E+00  0.17937007196E+04  0.17937007196E+04  0.25500000000E-02 0. -1.
         -2   -1    0    0    0  501 -0.00000000000E+00 -0.00000000000E+00 -0.51612114616E+03  0.51612114617E+03  0.25500000000E-02 0.  1.
    8880022    1    1    2    0    0 -0.16008737170E+03  0.45434230536E+03  0.16215303171E+04  0.16984719954E+04  0.15294330000E+03 0.  0.
    8880022    1    1    2    0    0  0.16008737170E+03 -0.45434230536E+03 -0.34395074358E+03  0.61134987040E+03  0.15294330000E+03 0.  0.
<mgrwt>
<rscale>  0 0.50541720E+03</rscale>
<asrwt>0</asrwt>
<pdfrwt beam="1">  1        2 0.27595396E+00 0.50541720E+03</pdfrwt>
<pdfrwt beam="2">  1       -2 0.79403253E-01 0.50541720E+03</pdfrwt>
<totfact> 0.13140257E+01</totfact>
</mgrwt>
</event>
<event>
 4    1  0.4840632E-008  0.1544954E+03  0.7818608E-02  0.1195055E+00
          2   -1    0    0  501    0  0.00000000000E+00  0.00000000000E+00  0.13447301911E+04  0.13447301911E+04  0.25500000000E-02 0. -1.
         -2   -1    0    0    0  501 -0.00000000000E+00 -0.00000000000E+00 -0.12633113027E+03  0.12633113030E+03  0.25500000000E-02 0.  1.
    8880022    1    1    2    0    0 -0.21742635584E+02  0.21054887621E+01 -0.72704043222E+02  0.17074749252E+03  0.15294330000E+03 0.  0.
    8880022    1    1    2    0    0  0.21742635584E+02 -0.21054887621E+01  0.12911031041E+04  0.13003138289E+04  0.15294330000E+03 0. -1.
<mgrwt>
<rscale>  0 0.15449540E+03</rscale>
<asrwt>0</asrwt>
<pdfrwt beam="1">  1        2 0.20688158E+00 0.15449540E+03</pdfrwt>
<pdfrwt beam="2">  1       -2 0.19435558E-01 0.15449540E+03</pdfrwt>
<totfact> 0.37609852E+02</totfact>
</mgrwt>
</event>
<event>
 4    1  0.4840632E-008  0.6440463E+03  0.7818608E-02  0.9818015E-01
          2   -1    0    0  501    0  0.00000000000E+00  0.00000000000E+00  0.99515316031E+03  0.99515316031E+03  0.25500000000E-02 0. -1.
         -2   -1    0    0    0  501 -0.00000000000E+00 -0.00000000000E+00 -0.83155615402E+03  0.83155615403E+03  0.25500000000E-02 0.  1.
    8880022    1    1    2    0    0 -0.59291615107E+03  0.19963583922E+03  0.72683121381E+03  0.97112269918E+03  0.15294330000E+03 0.  0.
    8880022    1    1    2    0    0  0.59291615107E+03 -0.19963583922E+03 -0.56323420752E+03  0.85558661515E+03  0.15294330000E+03 0.  1.
<mgrwt>
<rscale>  0 0.64404634E+03</rscale>
<asrwt>0</asrwt>
<pdfrwt beam="1">  1        2 0.15310049E+00 0.64404634E+03</pdfrwt>
<pdfrwt beam="2">  1       -2 0.12793172E+00 0.64404634E+03</pdfrwt>
<totfact> 0.11827488E+01</totfact>
</mgrwt>
</event>
<event>
 4    1  0.4840632E-008  0.4909207E+03  0.7818608E-02  0.1016176E+00
         -2   -1    0    0    0  501 -0.00000000000E+00  0.00000000000E+00  0.51328519137E+03  0.51328519137E+03  0.25500000000E-02 0.  1.
          2   -1    0    0  501    0  0.00000000000E+00 -0.00000000000E+00 -0.10561460431E+04  0.10561460431E+04  0.25500000000E-02 0. -1.
    8880022    1    1    2    0    0  0.43765211135E+03 -0.16146875127E+03  0.31339601297E+03  0.58242616885E+03  0.15294330000E+03 0.  0.
    8880022    1    1    2    0    0 -0.43765211135E+03  0.16146875127E+03 -0.85625686473E+03  0.98700506565E+03  0.15294330000E+03 0. -1.
<mgrwt>
<rscale>  0 0.49092075E+03</rscale>
<asrwt>0</asrwt>
<pdfrwt beam="1">  1        2 0.16248401E+00 0.49092075E+03</pdfrwt>
<pdfrwt beam="2">  1       -2 0.78966953E-01 0.49092075E+03</pdfrwt>
<totfact> 0.34620304E+01</totfact>
</mgrwt>
</event>
<event>
 4    1  0.4840632E-008  0.7036587E+03  0.7818608E-02  0.9710996E-01
         -2   -1    0    0    0  501 -0.00000000000E+00  0.00000000000E+00  0.71905703078E+03  0.71905703078E+03  0.25500000000E-02 0.  1.
          2   -1    0    0  501    0  0.00000000000E+00 -0.00000000000E+00 -0.17043658478E+04  0.17043658478E+04  0.25500000000E-02 0. -1.
    8880022    1    1    2    0    0 -0.43970308104E+03  0.52764110966E+03  0.44278724451E+03  0.83138206439E+03  0.15294330000E+03 0.  0.
    8880022    1    1    2    0    0  0.43970308104E+03 -0.52764110966E+03 -0.14280960616E+04  0.15920408142E+04  0.15294330000E+03 0.  0.
<mgrwt>
<rscale>  0 0.70365872E+03</rscale>
<asrwt>0</asrwt>
<pdfrwt beam="1">  1        2 0.26221013E+00 0.70365872E+03</pdfrwt>
<pdfrwt beam="2">  1       -2 0.11062416E+00 0.70365872E+03</pdfrwt>
<totfact> 0.65513139E+00</totfact>
</mgrwt>
</event>
<event>
 4    1  0.4840632E-008  0.3409872E+03  0.7818608E-02  0.1066376E+00
          2   -1    0    0  501    0  0.00000000000E+00  0.00000000000E+00  0.18243718679E+04  0.18243718679E+04  0.25500000000E-02 0. -1.
         -2   -1    0    0    0  501 -0.00000000000E+00 -0.00000000000E+00 -0.41269631896E+03  0.41269631896E+03  0.25500000000E-02 0.  1.
    8880022    1    1    2    0    0  0.30469730141E+03  0.63385708114E+01  0.17343843437E+04  0.17675862999E+04  0.15294330000E+03 0. -1.
    8880022    1    1    2    0    0 -0.30469730141E+03 -0.63385708114E+01 -0.32270879475E+03  0.46948188696E+03  0.15294330000E+03 0.  0.
<mgrwt>
<rscale>  0 0.34098721E+03</rscale>
<asrwt>0</asrwt>
<pdfrwt beam="1">  1        2 0.28067259E+00 0.34098721E+03</pdfrwt>
<pdfrwt beam="2">  1       -2 0.63491742E-01 0.34098721E+03</pdfrwt>
<totfact> 0.21430538E+01</totfact>
</mgrwt>
</event>
<event>
 4    1  0.4840632E-008  0.4451520E+03  0.7818608E-02  0.1029178E+00
          2   -1    0    0  501    0  0.00000000000E+00  0.00000000000E+00  0.13190762150E+04  0.13190762150E+04  0.25500000000E-02 0. -1.
         -2   -1    0    0    0  501 -0.00000000000E+00 -0.00000000000E+00 -0.57745309711E+03  0.57745309712E+03  0.25500000000E-02 0.  1.
    8880022    1    1    2    0    0  0.41504398719E+03 -0.50071656747E+02  0.11864549026E+04  0.12672156766E+04  0.15294330000E+03 0.  0.
    8880022    1    1    2    0    0 -0.41504398719E+03  0.50071656747E+02 -0.44483178473E+03  0.62931363550E+03  0.15294330000E+03 0.  0.
<mgrwt>
<rscale>  0 0.44515204E+03</rscale>
<asrwt>0</asrwt>
<pdfrwt beam="1">  1        2 0.20293480E+00 0.44515204E+03</pdfrwt>
<pdfrwt beam="2">  1       -2 0.88838938E-01 0.44515204E+03</pdfrwt>
<totfact> 0.18769726E+01</totfact>
</mgrwt>
</event>
<event>
 4    1  0.4840632E-008  0.5522993E+03  0.7818608E-02  0.1000963E+00
         -2   -1    0    0    0  501 -0.00000000000E+00  0.00000000000E+00  0.25747573343E+03  0.25747573345E+03  0.25500000000E-02 0.  1.
          2   -1    0    0  501    0  0.00000000000E+00 -0.00000000000E+00 -0.15719332544E+04  0.15719332544E+04  0.25500000000E-02 0. -1.
    8880022    1    1    2    0    0 -0.20048260949E+03 -0.49137516366E+03 -0.11112159468E+04  0.12409010281E+04  0.15294330000E+03 0.  0.
    8880022    1    1    2    0    0  0.20048260949E+03  0.49137516366E+03 -0.20324157416E+03  0.58850795972E+03  0.15294330000E+03 0.  0.
<mgrwt>
<rscale>  0 0.55229927E+03</rscale>
<asrwt>0</asrwt>
<pdfrwt beam="1">  1        2 0.24183588E+00 0.55229927E+03</pdfrwt>
<pdfrwt beam="2">  1       -2 0.39611652E-01 0.55229927E+03</pdfrwt>
<totfact> 0.72827012E+01</totfact>
</mgrwt>
</event>
<event>
 4    1  0.6193352E-008  0.5365108E+03  0.7818608E-02  0.1004665E+00
         -2   -1    0    0    0  501 -0.00000000000E+00  0.00000000000E+00  0.15266944429E+04  0.15266944429E+04  0.25500000000E-02 0.  1.
          2   -1    0    0  501    0  0.00000000000E+00 -0.00000000000E+00 -0.16701120997E+04  0.16701120997E+04  0.25500000000E-02 0. -1.
    8880022    1    1    2    0    0  0.82122628703E+00  0.51424846113E+03  0.14337707322E+04  0.15308632597E+04  0.15294330000E+03 0.  0.
    8880022    1    1    2    0    0 -0.82122628703E+00 -0.51424846113E+03 -0.15771883890E+04  0.16659432829E+04  0.15294330000E+03 0. -1.
<mgrwt>
<rscale>  0 0.53651077E+03</rscale>
<asrwt>0</asrwt>
<pdfrwt beam="1">  1        2 0.25694032E+00 0.53651077E+03</pdfrwt>
<pdfrwt beam="2">  1       -2 0.23487607E+00 0.53651077E+03</pdfrwt>
<totfact> 0.89195520E-01</totfact>
</mgrwt>
</event>
<event>
 4    1  0.4840632E-008  0.1089957E+04  0.7818608E-02  0.9215036E-01
          2   -1    0    0  501    0  0.00000000000E+00  0.00000000000E+00  0.23937307672E+04  0.23937307672E+04  0.25500000000E-02 0. -1.
         -2   -1    0    0    0  501 -0.00000000000E+00 -0.00000000000E+00 -0.52429517624E+03  0.52429517624E+03  0.25500000000E-02 0.  1.
    8880022    1    1    2    0    0  0.69786770242E+03 -0.82316169454E+03  0.59756973098E+03  0.12430188019E+04  0.15294330000E+03 0.  0.
    8880022    1    1    2    0    0 -0.69786770242E+03  0.82316169454E+03  0.12718658599E+04  0.16750071415E+04  0.15294330000E+03 0.  0.
<mgrwt>
<rscale>  0 0.10899570E+04</rscale>
<asrwt>0</asrwt>
<pdfrwt beam="1">  1        2 0.36826627E+00 0.10899570E+04</pdfrwt>
<pdfrwt beam="2">  1       -2 0.80660796E-01 0.10899570E+04</pdfrwt>
<totfact> 0.54237866E+00</totfact>
</mgrwt>
</event>
<event>
 4    1  0.4840632E-008  0.1921337E+03  0.7818608E-02  0.1156551E+00
          2   -1    0    0  501    0  0.00000000000E+00  0.00000000000E+00  0.22110587844E+04  0.22110587844E+04  0.25500000000E-02 0. -1.
         -2   -1    0    0    0  501 -0.00000000000E+00 -0.00000000000E+00 -0.47190295031E+02  0.47190295100E+02  0.25500000000E-02 0.  1.
    8880022    1    1    2    0    0  0.41401400131E+02 -0.10867215174E+03  0.19896007697E+04  0.19988563201E+04  0.15294330000E+03 0.  0.
    8880022    1    1    2    0    0 -0.41401400131E+02  0.10867215174E+03  0.17426771959E+03  0.25939275935E+03  0.15294330000E+03 0.  0.
<mgrwt>
<rscale>  0 0.19213372E+03</rscale>
<asrwt>0</asrwt>
<pdfrwt beam="1">  1        2 0.34016297E+00 0.19213372E+03</pdfrwt>
<pdfrwt beam="2">  1       -2 0.72600437E-02 0.19213372E+03</pdfrwt>
<totfact> 0.64282982E+02</totfact>
</mgrwt>
</event>
<event>
 4    1  0.4840632E-008  0.7360715E+03  0.7818608E-02  0.9657459E-01
          2   -1    0    0  501    0  0.00000000000E+00  0.00000000000E+00  0.57081268153E+03  0.57081268154E+03  0.25500000000E-02 0. -1.
         -2   -1    0    0    0  501 -0.00000000000E+00 -0.00000000000E+00 -0.10029250716E+04  0.10029250716E+04  0.25500000000E-02 0.  1.
    8880022    1    1    2    0    0  0.40913320344E+03  0.59246914290E+03 -0.33894815617E+02  0.73685152846E+03  0.15294330000E+03 0.  0.
    8880022    1    1    2    0    0 -0.40913320344E+03 -0.59246914290E+03 -0.39821757445E+03  0.83688622468E+03  0.15294330000E+03 0.  0.
<mgrwt>
<rscale>  0 0.73607154E+03</rscale>
<asrwt>0</asrwt>
<pdfrwt beam="1">  1        2 0.87817336E-01 0.73607154E+03</pdfrwt>
<pdfrwt beam="2">  1       -2 0.15429617E+00 0.73607154E+03</pdfrwt>
<totfact> 0.14868362E+01</totfact>
</mgrwt>
</event>
<event>
 4    1  0.4840632E-008  0.2388934E+03  0.7818608E-02  0.1120532E+00
         -2   -1    0    0    0  501 -0.00000000000E+00  0.00000000000E+00  0.34488292299E+03  0.34488292300E+03  0.25500000000E-02 0.  1.
          2   -1    0    0  501    0  0.00000000000E+00 -0.00000000000E+00 -0.21840296948E+04  0.21840296948E+04  0.25500000000E-02 0. -1.
    8880022    1    1    2    0    0 -0.16419188609E+03 -0.81972039255E+02 -0.21351844659E+04  0.21485070973E+04  0.15294330000E+03 0. -1.
    8880022    1    1    2    0    0  0.16419188609E+03  0.81972039255E+02  0.29603769410E+03  0.38040552049E+03  0.15294330000E+03 0.  0.
<mgrwt>
<rscale>  0 0.23889337E+03</rscale>
<asrwt>0</asrwt>
<pdfrwt beam="1">  1        2 0.33600456E+00 0.23889337E+03</pdfrwt>
<pdfrwt beam="2">  1       -2 0.53058912E-01 0.23889337E+03</pdfrwt>
<totfact> 0.20842081E+01</totfact>
</mgrwt>
</event>
<event>
 4    1  0.4840632E-008  0.1554281E+03  0.7818608E-02  0.1193957E+00
          2   -1    0    0  501    0  0.00000000000E+00  0.00000000000E+00  0.30611530581E+03  0.30611530582E+03  0.25500000000E-02 0. -1.
         -2   -1    0    0    0  501 -0.00000000000E+00 -0.00000000000E+00 -0.15839490512E+03  0.15839490514E+03  0.25500000000E-02 0.  1.
    8880022    1    1    2    0    0 -0.15719026340E+02 -0.22784785567E+02 -0.90658857624E+02  0.17993586558E+03  0.15294330000E+03 0.  1.
    8880022    1    1    2    0    0  0.15719026340E+02  0.22784785567E+02  0.23837925831E+03  0.28457434539E+03  0.15294330000E+03 0.  0.
<mgrwt>
<rscale>  0 0.15542808E+03</rscale>
<asrwt>0</asrwt>
<pdfrwt beam="1">  1        2 0.47094662E-01 0.15542808E+03</pdfrwt>
<pdfrwt beam="2">  1       -2 0.24368447E-01 0.15542808E+03</pdfrwt>
<totfact> 0.15682815E+03</totfact>
</mgrwt>
</event>
<event>
 4    1  0.4840632E-008  0.4294720E+03  0.7818608E-02  0.1034027E+00
         -2   -1    0    0    0  501 -0.00000000000E+00  0.00000000000E+00  0.39419356613E+03  0.39419356614E+03  0.25500000000E-02 0.  1.
          2   -1    0    0  501    0  0.00000000000E+00 -0.00000000000E+00 -0.13537263371E+04  0.13537263371E+04  0.25500000000E-02 0. -1.
    8880022    1    1    2    0    0 -0.26921125838E+03  0.29762361754E+03  0.22719960126E+03  0.48586606301E+03  0.15294330000E+03 0.  0.
    8880022    1    1    2    0    0  0.26921125838E+03 -0.29762361754E+03 -0.11867323723E+04  0.12620538403E+04  0.15294330000E+03 0.  0.
<mgrwt>
<rscale>  0 0.42947197E+03</rscale>
<asrwt>0</asrwt>
<pdfrwt beam="1">  1        2 0.20826559E+00 0.42947197E+03</pdfrwt>
<pdfrwt beam="2">  1       -2 0.60645165E-01 0.42947197E+03</pdfrwt>
<totfact> 0.41522310E+01</totfact>
</mgrwt>
</event>
<event>
 4    1  0.4840632E-008  0.3313326E+03  0.7818608E-02  0.1070549E+00
          2   -1    0    0  501    0  0.00000000000E+00  0.00000000000E+00  0.81481911732E+03  0.81481911733E+03  0.25500000000E-02 0. -1.
         -2   -1    0    0    0  501 -0.00000000000E+00 -0.00000000000E+00 -0.63795951593E+03  0.63795951594E+03  0.25500000000E-02 0.  1.
    8880022    1    1    2    0    0 -0.89021599629E+02  0.28011564150E+03 -0.55671258396E+03  0.64785042407E+03  0.15294330000E+03 0.  0.
    8880022    1    1    2    0    0  0.89021599629E+02 -0.28011564150E+03  0.73357218535E+03  0.80492820919E+03  0.15294330000E+03 0. -1.
<mgrwt>
<rscale>  0 0.33133257E+03</rscale>
<asrwt>0</asrwt>
<pdfrwt beam="1">  1        2 0.12535679E+00 0.33133257E+03</pdfrwt>
<pdfrwt beam="2">  1       -2 0.98147618E-01 0.33133257E+03</pdfrwt>
<totfact> 0.31097368E+01</totfact>
</mgrwt>
</event>
<event>
 4    1  0.4840632E-008  0.1112132E+04  0.7818608E-02  0.9193447E-01
         -2   -1    0    0    0  501 -0.00000000000E+00  0.00000000000E+00  0.10575137251E+04  0.10575137251E+04  0.25500000000E-02 0.  1.
          2   -1    0    0  501    0  0.00000000000E+00 -0.00000000000E+00 -0.16228622662E+04  0.16228622662E+04  0.25500000000E-02 0. -1.
    8880022    1    1    2    0    0  0.10989256146E+04  0.76213924271E+02 -0.99096803017E+03  0.14895822765E+04  0.15294330000E+03 0.  0.
    8880022    1    1    2    0    0 -0.10989256146E+04 -0.76213924271E+02  0.42561948914E+03  0.11907937148E+04  0.15294330000E+03 0.  0.
<mgrwt>
<rscale>  0 0.11121321E+04</rscale>
<asrwt>0</asrwt>
<pdfrwt beam="1">  1        2 0.24967112E+00 0.11121321E+04</pdfrwt>
<pdfrwt beam="2">  1       -2 0.16269442E+00 0.11121321E+04</pdfrwt>
<totfact> 0.25547599E+00</totfact>
</mgrwt>
</event>
<event>
 4    1  0.4840632E-008  0.9067679E+03  0.7818608E-02  0.9417161E-01
          2   -1    0    0  501    0  0.00000000000E+00  0.00000000000E+00  0.15966199622E+04  0.15966199622E+04  0.25500000000E-02 0. -1.
         -2   -1    0    0    0  501 -0.00000000000E+00 -0.00000000000E+00 -0.67099171682E+03  0.67099171682E+03  0.25500000000E-02 0.  1.
    8880022    1    1    2    0    0  0.48048948093E+03  0.75363533943E+03  0.10095255266E+04  0.13569708206E+04  0.15294330000E+03 0.  0.
    8880022    1    1    2    0    0 -0.48048948093E+03 -0.75363533943E+03 -0.83897281262E+02  0.91064085837E+03  0.15294330000E+03 0.  0.
<mgrwt>
<rscale>  0 0.90676790E+03</rscale>
<asrwt>0</asrwt>
<pdfrwt beam="1">  1        2 0.24563384E+00 0.90676790E+03</pdfrwt>
<pdfrwt beam="2">  1       -2 0.10322950E+00 0.90676790E+03</pdfrwt>
<totfact> 0.86296784E+00</totfact>
</mgrwt>
</event>
<event>
 4    1  0.4840632E-008  0.3773644E+03  0.7818608E-02  0.1051912E+00
         -2   -1    0    0    0  501 -0.00000000000E+00  0.00000000000E+00  0.27832814258E+03  0.27832814259E+03  0.25500000000E-02 0.  1.
          2   -1    0    0  501    0  0.00000000000E+00 -0.00000000000E+00 -0.12672813942E+04  0.12672813942E+04  0.25500000000E-02 0. -1.
    8880022    1    1    2    0    0  0.46600377222E+02 -0.34181965241E+03  0.10227143768E+03  0.39097745448E+03  0.15294330000E+03 0.  0.
    8880022    1    1    2    0    0 -0.46600377222E+02  0.34181965241E+03 -0.10912246893E+04  0.11546320823E+04  0.15294330000E+03 0.  0.
<mgrwt>
<rscale>  0 0.37736444E+03</rscale>
<asrwt>0</asrwt>
<pdfrwt beam="1">  1        2 0.19496637E+00 0.37736444E+03</pdfrwt>
<pdfrwt beam="2">  1       -2 0.42819715E-01 0.37736444E+03</pdfrwt>
<totfact> 0.94824040E+01</totfact>
</mgrwt>
</event>
<event>
 4    1  0.4840632E-008  0.2264878E+03  0.7818608E-02  0.1129137E+00
          2   -1    0    0  501    0  0.00000000000E+00  0.00000000000E+00  0.38740982863E+03  0.38740982864E+03  0.25500000000E-02 0. -1.
         -2   -1    0    0    0  501 -0.00000000000E+00 -0.00000000000E+00 -0.24589219058E+03  0.24589219059E+03  0.25500000000E-02 0.  1.
    8880022    1    1    2    0    0 -0.14918784894E+03 -0.75153485283E+02  0.28587518854E+03  0.36472090296E+03  0.15294330000E+03 0.  0.
    8880022    1    1    2    0    0  0.14918784894E+03  0.75153485283E+02 -0.14435755048E+03  0.26858111627E+03  0.15294330000E+03 0.  1.
<mgrwt>
<rscale>  0 0.22648778E+03</rscale>
<asrwt>0</asrwt>
<pdfrwt beam="1">  1        2 0.59601512E-01 0.22648778E+03</pdfrwt>
<pdfrwt beam="2">  1       -2 0.37829568E-01 0.22648778E+03</pdfrwt>
<totfact> 0.55088023E+02</totfact>
</mgrwt>
</event>
<event>
 4    1  0.4840632E-008  0.3971001E+03  0.7818608E-02  0.1044788E+00
          2   -1    0    0  501    0  0.00000000000E+00  0.00000000000E+00  0.26924609182E+04  0.26924609182E+04  0.25500000000E-02 0. -1.
         -2   -1    0    0    0  501 -0.00000000000E+00 -0.00000000000E+00 -0.29601512414E+03  0.29601512415E+03  0.25500000000E-02 0.  1.
    8880022    1    1    2    0    0 -0.27008009162E+03 -0.24769649422E+03 -0.14005870786E+03  0.42107588841E+03  0.15294330000E+03 0.  0.
    8880022    1    1    2    0    0  0.27008009162E+03  0.24769649422E+03  0.25365045019E+04  0.25674001539E+04  0.15294330000E+03 0.  0.
<mgrwt>
<rscale>  0 0.39710007E+03</rscale>
<asrwt>0</asrwt>
<pdfrwt beam="1">  1        2 0.41422476E+00 0.39710007E+03</pdfrwt>
<pdfrwt beam="2">  1       -2 0.45540788E-01 0.39710007E+03</pdfrwt>
<totfact> 0.14004948E+01</totfact>
</mgrwt>
</event>
<event>
 4    1  0.4840632E-008  0.5582047E+03  0.7818608E-02  0.9996125E-01
         -2   -1    0    0    0  501 -0.00000000000E+00  0.00000000000E+00  0.96950710947E+03  0.96950710948E+03  0.25500000000E-02 0.  1.
          2   -1    0    0  501    0  0.00000000000E+00 -0.00000000000E+00 -0.78442926778E+03  0.78442926779E+03  0.25500000000E-02 0. -1.
    8880022    1    1    2    0    0  0.38286794902E+03  0.37631493673E+03 -0.58123565270E+03  0.80587054480E+03  0.15294330000E+03 0.  0.
    8880022    1    1    2    0    0 -0.38286794902E+03 -0.37631493673E+03  0.76631349439E+03  0.94806583247E+03  0.15294330000E+03 0.  1.
<mgrwt>
<rscale>  0 0.55820467E+03</rscale>
<asrwt>0</asrwt>
<pdfrwt beam="1">  1        2 0.12068143E+00 0.55820467E+03</pdfrwt>
<pdfrwt beam="2">  1       -2 0.14915494E+00 0.55820467E+03</pdfrwt>
<totfact> 0.11196892E+01</totfact>
</mgrwt>
</event>
<event>
 4    1  0.4840632E-008  0.8000675E+03  0.7818608E-02  0.9559919E-01
         -2   -1    0    0    0  501 -0.00000000000E+00  0.00000000000E+00  0.50388090379E+03  0.50388090380E+03  0.25500000000E-02 0.  1.
          2   -1    0    0  501    0  0.00000000000E+00 -0.00000000000E+00 -0.22402007852E+04  0.22402007852E+04  0.25500000000E-02 0. -1.
    8880022    1    1    2    0    0 -0.38613527256E+03  0.68382444435E+03  0.34605145780E+02  0.80081551466E+03  0.15294330000E+03 0.  0.
    8880022    1    1    2    0    0  0.38613527256E+03 -0.68382444435E+03 -0.17709250272E+04  0.19432661744E+04  0.15294330000E+03 0.  0.
<mgrwt>
<rscale>  0 0.80006748E+03</rscale>
<asrwt>0</asrwt>
<pdfrwt beam="1">  1        2 0.34464627E+00 0.80006748E+03</pdfrwt>
<pdfrwt beam="2">  1       -2 0.77520140E-01 0.80006748E+03</pdfrwt>
<totfact> 0.75156185E+00</totfact>
</mgrwt>
</event>
<event>
 4    1  0.4840632E-008  0.4223588E+03  0.7818608E-02  0.1036301E+00
         -2   -1    0    0    0  501 -0.00000000000E+00  0.00000000000E+00  0.74102674059E+03  0.74102674059E+03  0.25500000000E-02 0.  1.
          2   -1    0    0  501    0  0.00000000000E+00 -0.00000000000E+00 -0.13862486379E+04  0.13862486379E+04  0.25500000000E-02 0. -1.
    8880022    1    1    2    0    0  0.35734991452E+03 -0.16521594926E+03  0.64427298722E+03  0.77037303066E+03  0.15294330000E+03 0.  1.
    8880022    1    1    2    0    0 -0.35734991452E+03  0.16521594926E+03 -0.12894948846E+04  0.13569023479E+04  0.15294330000E+03 0.  0.
<mgrwt>
<rscale>  0 0.42235876E+03</rscale>
<asrwt>0</asrwt>
<pdfrwt beam="1">  1        2 0.21326902E+00 0.42235876E+03</pdfrwt>
<pdfrwt beam="2">  1       -2 0.11400411E+00 0.42235876E+03</pdfrwt>
<totfact> 0.96232652E+00</totfact>
</mgrwt>
</event>
<event>
 4    1  0.4840632E-008  0.1222419E+04  0.7818608E-02  0.9093456E-01
          2   -1    0    0  501    0  0.00000000000E+00  0.00000000000E+00  0.29898180449E+04  0.29898180449E+04  0.25500000000E-02 0. -1.
         -2   -1    0    0    0  501 -0.00000000000E+00 -0.00000000000E+00 -0.70006401717E+03  0.70006401717E+03  0.25500000000E-02 0.  1.
    8880022    1    1    2    0    0  0.81712138764E+03 -0.89623092665E+03  0.15810718908E+03  0.12326016276E+04  0.15294330000E+03 0.  0.
    8880022    1    1    2    0    0 -0.81712138764E+03  0.89623092665E+03  0.21316468386E+04  0.24572804345E+04  0.15294330000E+03 0.  0.
<mgrwt>
<rscale>  0 0.12224193E+04</rscale>
<asrwt>0</asrwt>
<pdfrwt beam="1">  1        2 0.45997201E+00 0.12224193E+04</pdfrwt>
<pdfrwt beam="2">  1       -2 0.10770216E+00 0.12224193E+04</pdfrwt>
<totfact> 0.12051076E+00</totfact>
</mgrwt>
</event>
<event>
 4    1  0.4840632E-008  0.1141667E+04  0.7818608E-02  0.9165506E-01
          2   -1    0    0  501    0  0.00000000000E+00  0.00000000000E+00  0.14161767910E+04  0.14161767910E+04  0.25500000000E-02 0. -1.
         -2   -1    0    0    0  501 -0.00000000000E+00 -0.00000000000E+00 -0.12672354080E+04  0.12672354081E+04  0.25500000000E-02 0.  1.
    8880022    1    1    2    0    0  0.96035113993E+03 -0.59811108434E+03  0.77642835439E+03  0.13806678904E+04  0.15294330000E+03 0.  0.
    8880022    1    1    2    0    0 -0.96035113993E+03  0.59811108434E+03 -0.62748697147E+03  0.13027443086E+04  0.15294330000E+03 0.  0.
<mgrwt>
<rscale>  0 0.11416667E+04</rscale>
<asrwt>0</asrwt>
<pdfrwt beam="1">  1        2 0.21787335E+00 0.11416667E+04</pdfrwt>
<pdfrwt beam="2">  1       -2 0.19495929E+00 0.11416667E+04</pdfrwt>
<totfact> 0.19861555E+00</totfact>
</mgrwt>
</event>
<event>
 4    1  0.4840632E-008  0.4818981E+03  0.7818608E-02  0.1018615E+00
          2   -1    0    0  501    0  0.00000000000E+00  0.00000000000E+00  0.89754630503E+03  0.89754630503E+03  0.25500000000E-02 0. -1.
         -2   -1    0    0    0  501 -0.00000000000E+00 -0.00000000000E+00 -0.31269089750E+03  0.31269089751E+03  0.25500000000E-02 0.  1.
    8880022    1    1    2    0    0  0.27653606762E+03  0.36381574566E+03  0.54379360588E+03  0.72659289309E+03  0.15294330000E+03 0.  0.
    8880022    1    1    2    0    0 -0.27653606762E+03 -0.36381574566E+03  0.41061801656E+02  0.48364430945E+03  0.15294330000E+03 0.  0.
<mgrwt>
<rscale>  0 0.48189807E+03</rscale>
<asrwt>0</asrwt>
<pdfrwt beam="1">  1        2 0.13808404E+00 0.48189807E+03</pdfrwt>
<pdfrwt beam="2">  1       -2 0.48106293E-01 0.48189807E+03</pdfrwt>
<totfact> 0.12461279E+02</totfact>
</mgrwt>
</event>
<event>
 4    1  0.4840632E-008  0.3430175E+03  0.7818608E-02  0.1065518E+00
          2   -1    0    0  501    0  0.00000000000E+00  0.00000000000E+00  0.14460509506E+04  0.14460509506E+04  0.25500000000E-02 0. -1.
         -2   -1    0    0    0  501 -0.00000000000E+00 -0.00000000000E+00 -0.60765987926E+03  0.60765987927E+03  0.25500000000E-02 0.  1.
    8880022    1    1    2    0    0 -0.24775565640E+02 -0.30603187819E+03 -0.53644093617E+03  0.63673375137E+03  0.15294330000E+03 0.  0.
    8880022    1    1    2    0    0  0.24775565640E+02  0.30603187819E+03  0.13748320075E+04  0.14169770785E+04  0.15294330000E+03 0.  0.
<mgrwt>
<rscale>  0 0.34301748E+03</rscale>
<asrwt>0</asrwt>
<pdfrwt beam="1">  1        2 0.22246938E+00 0.34301748E+03</pdfrwt>
<pdfrwt beam="2">  1       -2 0.93486135E-01 0.34301748E+03</pdfrwt>
<totfact> 0.14554723E+01</totfact>
</mgrwt>
</event>
<event>
 4    1  0.4840632E-008  0.2013174E+03  0.7818608E-02  0.1148632E+00
         -2   -1    0    0    0  501 -0.00000000000E+00  0.00000000000E+00  0.90340641465E+03  0.90340641465E+03  0.25500000000E-02 0.  1.
          2   -1    0    0  501    0  0.00000000000E+00 -0.00000000000E+00 -0.46244635208E+03  0.46244635208E+03  0.25500000000E-02 0. -1.
    8880022    1    1    2    0    0  0.23401798735E+02 -0.12879990469E+03  0.86943605211E+03  0.89243921998E+03  0.15294330000E+03 0.  1.
    8880022    1    1    2    0    0 -0.23401798735E+02  0.12879990469E+03 -0.42847598954E+03  0.47341354676E+03  0.15294330000E+03 0.  0.
<mgrwt>
<rscale>  0 0.20131744E+03</rscale>
<asrwt>0</asrwt>
<pdfrwt beam="1">  1        2 0.71145593E-01 0.20131744E+03</pdfrwt>
<pdfrwt beam="2">  1       -2 0.13898560E+00 0.20131744E+03</pdfrwt>
<totfact> 0.26994534E+01</totfact>
</mgrwt>
</event>
<event>
 4    1  0.4840632E-008  0.3336117E+03  0.7818608E-02  0.1069550E+00
         -2   -1    0    0    0  501 -0.00000000000E+00  0.00000000000E+00  0.37041731762E+03  0.37041731763E+03  0.25500000000E-02 0.  1.
          2   -1    0    0  501    0  0.00000000000E+00 -0.00000000000E+00 -0.48019940981E+03  0.48019940982E+03  0.25500000000E-02 0. -1.
    8880022    1    1    2    0    0 -0.14129318526E+03 -0.26065556728E+03 -0.31509326861E+03  0.45889052060E+03  0.15294330000E+03 0.  0.
    8880022    1    1    2    0    0  0.14129318526E+03  0.26065556728E+03  0.20531117642E+03  0.39172620685E+03  0.15294330000E+03 0.  0.
<mgrwt>
<rscale>  0 0.33361166E+03</rscale>
<asrwt>0</asrwt>
<pdfrwt beam="1">  1        2 0.73876832E-01 0.33361166E+03</pdfrwt>
<pdfrwt beam="2">  1       -2 0.56987280E-01 0.33361166E+03</pdfrwt>
<totfact> 0.19246949E+02</totfact>
</mgrwt>
</event>
<event>
 4    1  0.4840632E-008  0.3051189E+03  0.7818608E-02  0.1082709E+00
         -2   -1    0    0    0  501 -0.00000000000E+00  0.00000000000E+00  0.15571629957E+03  0.15571629959E+03  0.25500000000E-02 0.  1.
          2   -1    0    0  501    0  0.00000000000E+00 -0.00000000000E+00 -0.11933134290E+04  0.11933134290E+04  0.25500000000E-02 0. -1.
    8880022    1    1    2    0    0 -0.24313726120E+03 -0.10290850092E+03 -0.42328265295E+02  0.30804094274E+03  0.15294330000E+03 0.  1.
    8880022    1    1    2    0    0  0.24313726120E+03  0.10290850092E+03 -0.99526886418E+03  0.10409887859E+04  0.15294330000E+03 0. -1.
<mgrwt>
<rscale>  0 0.30511890E+03</rscale>
<asrwt>0</asrwt>
<pdfrwt beam="1">  1        2 0.18358668E+00 0.30511890E+03</pdfrwt>
<pdfrwt beam="2">  1       -2 0.23956355E-01 0.30511890E+03</pdfrwt>
<totfact> 0.30997643E+02</totfact>
</mgrwt>
</event>
<event>
 4    1  0.4840632E-008  0.6403191E+03  0.7818608E-02  0.9825116E-01
          2   -1    0    0  501    0  0.00000000000E+00  0.00000000000E+00  0.10300250927E+04  0.10300250927E+04  0.25500000000E-02 0. -1.
         -2   -1    0    0    0  501 -0.00000000000E+00 -0.00000000000E+00 -0.55141063336E+03  0.55141063337E+03  0.25500000000E-02 0.  1.
    8880022    1    1    2    0    0  0.36533241737E+02 -0.62071104616E+03 -0.17768815014E+03  0.66451607377E+03  0.15294330000E+03 0.  0.
    8880022    1    1    2    0    0 -0.36533241737E+02  0.62071104616E+03  0.65630260950E+03  0.91691965233E+03  0.15294330000E+03 0.  0.
<mgrwt>
<rscale>  0 0.64031909E+03</rscale>
<asrwt>0</asrwt>
<pdfrwt beam="1">  1        2 0.15846540E+00 0.64031909E+03</pdfrwt>
<pdfrwt beam="2">  1       -2 0.84832405E-01 0.64031909E+03</pdfrwt>
<totfact> 0.29996700E+01</totfact>
</mgrwt>
</event>
<event>
 4    1  0.4840632E-008  0.5449493E+03  0.7818608E-02  0.1002670E+00
         -2   -1    0    0    0  501 -0.00000000000E+00  0.00000000000E+00  0.48236172965E+03  0.48236172965E+03  0.25500000000E-02 0.  1.
          2   -1    0    0  501    0  0.00000000000E+00 -0.00000000000E+00 -0.90778651238E+03  0.90778651238E+03  0.25500000000E-02 0. -1.
    8880022    1    1    2    0    0  0.15523799939E+03  0.49947893683E+03 -0.60701211830E+03  0.81574101868E+03  0.15294330000E+03 0.  0.
    8880022    1    1    2    0    0 -0.15523799939E+03 -0.49947893683E+03  0.18158733556E+03  0.57440722335E+03  0.15294330000E+03 0.  0.
<mgrwt>
<rscale>  0 0.54494926E+03</rscale>
<asrwt>0</asrwt>
<pdfrwt beam="1">  1        2 0.13965946E+00 0.54494926E+03</pdfrwt>
<pdfrwt beam="2">  1       -2 0.74209497E-01 0.54494926E+03</pdfrwt>
<totfact> 0.49026171E+01</totfact>
</mgrwt>
</event>
<event>
 4    1  0.4840632E-008  0.8179232E+03  0.7818608E-02  0.9534430E-01
         -2   -1    0    0    0  501 -0.00000000000E+00  0.00000000000E+00  0.42685316896E+03  0.42685316896E+03  0.25500000000E-02 0.  1.
          2   -1    0    0  501    0  0.00000000000E+00 -0.00000000000E+00 -0.20326134195E+04  0.20326134195E+04  0.25500000000E-02 0. -1.
    8880022    1    1    2    0    0  0.79108145659E+03 -0.14070096264E+03 -0.13912708567E+04  0.16138875059E+04  0.15294330000E+03 0.  0.
    8880022    1    1    2    0    0 -0.79108145659E+03  0.14070096264E+03 -0.21448939383E+03  0.84557908260E+03  0.15294330000E+03 0.  0.
<mgrwt>
<rscale>  0 0.81792315E+03</rscale>
<asrwt>0</asrwt>
<pdfrwt beam="1">  1        2 0.31270975E+00 0.81792315E+03</pdfrwt>
<pdfrwt beam="2">  1       -2 0.65669720E-01 0.81792315E+03</pdfrwt>
<totfact> 0.14036953E+01</totfact>
</mgrwt>
</event>
<event>
 4    1  0.4840632E-008  0.3866790E+03  0.7818608E-02  0.1048492E+00
          2   -1    0    0  501    0  0.00000000000E+00  0.00000000000E+00  0.43476393510E+03  0.43476393511E+03  0.25500000000E-02 0. -1.
         -2   -1    0    0    0  501 -0.00000000000E+00 -0.00000000000E+00 -0.63383939939E+03  0.63383939940E+03  0.25500000000E-02 0.  1.
    8880022    1    1    2    0    0 -0.10087543732E+03  0.34051898036E+03  0.26182327504E+03  0.46698191636E+03  0.15294330000E+03 0.  0.
    8880022    1    1    2    0    0  0.10087543732E+03 -0.34051898036E+03 -0.46089873933E+03  0.60162141815E+03  0.15294330000E+03 0.  0.
<mgrwt>
<rscale>  0 0.38667904E+03</rscale>
<asrwt>0</asrwt>
<pdfrwt beam="1">  1        2 0.66886760E-01 0.38667904E+03</pdfrwt>
<pdfrwt beam="2">  1       -2 0.97513753E-01 0.38667904E+03</pdfrwt>
<totfact> 0.65985448E+01</totfact>
</mgrwt>
</event>
<event>
 4    1  0.4840632E-008  0.5319748E+03  0.7818608E-02  0.1005754E+00
         -2   -1    0    0    0  501 -0.00000000000E+00  0.00000000000E+00  0.13003292234E+03  0.13003292236E+03  0.25500000000E-02 0.  1.
          2   -1    0    0  501    0  0.00000000000E+00 -0.00000000000E+00 -0.27060700757E+04  0.27060700757E+04  0.25500000000E-02 0. -1.
    8880022    1    1    2    0    0  0.32217391725E+03  0.39472710979E+03 -0.19154201685E+04  0.19879214268E+04  0.15294330000E+03 0.  0.
    8880022    1    1    2    0    0 -0.32217391725E+03 -0.39472710979E+03 -0.66061698487E+03  0.84818157128E+03  0.15294330000E+03 0.  0.
<mgrwt>
<rscale>  0 0.53197479E+03</rscale>
<asrwt>0</asrwt>
<pdfrwt beam="1">  1        2 0.41631843E+00 0.53197479E+03</pdfrwt>
<pdfrwt beam="2">  1       -2 0.20005067E-01 0.53197479E+03</pdfrwt>
<totfact> 0.60825482E+01</totfact>
</mgrwt>
</event>
<event>
 4    1  0.4840632E-008  0.7943150E+03  0.7818608E-02  0.9568282E-01
         -2   -1    0    0    0  501 -0.00000000000E+00  0.00000000000E+00  0.54114525727E+03  0.54114525728E+03  0.25500000000E-02 0.  1.
          2   -1    0    0  501    0  0.00000000000E+00 -0.00000000000E+00 -0.26299446758E+04  0.26299446758E+04  0.25500000000E-02 0. -1.
    8880022    1    1    2    0    0 -0.46058451838E+03 -0.62881367092E+03  0.13858266807E+03  0.80631354957E+03  0.15294330000E+03 0.  0.
    8880022    1    1    2    0    0  0.46058451838E+03  0.62881367092E+03 -0.22273820866E+04  0.23647763835E+04  0.15294330000E+03 0.  0.
<mgrwt>
<rscale>  0 0.79431504E+03</rscale>
<asrwt>0</asrwt>
<pdfrwt beam="1">  1        2 0.40460686E+00 0.79431504E+03</pdfrwt>
<pdfrwt beam="2">  1       -2 0.83253118E-01 0.79431504E+03</pdfrwt>
<totfact> 0.38598601E+00</totfact>
</mgrwt>
</event>
<event>
 4    1  0.4840632E-008  0.5433771E+03  0.7818608E-02  0.1003039E+00
          2   -1    0    0  501    0  0.00000000000E+00  0.00000000000E+00  0.10994710286E+04  0.10994710286E+04  0.25500000000E-02 0. -1.
         -2   -1    0    0    0  501 -0.00000000000E+00 -0.00000000000E+00 -0.58628044522E+03  0.58628044523E+03  0.25500000000E-02 0.  1.
    8880022    1    1    2    0    0 -0.17998302391E+03 -0.48935989753E+03  0.87709692982E+03  0.10317740429E+04  0.15294330000E+03 0.  0.
    8880022    1    1    2    0    0  0.17998302391E+03  0.48935989753E+03 -0.36390634645E+03  0.65397743096E+03  0.15294330000E+03 0.  0.
<mgrwt>
<rscale>  0 0.54337708E+03</rscale>
<asrwt>0</asrwt>
<pdfrwt beam="1">  1        2 0.16914939E+00 0.54337708E+03</pdfrwt>
<pdfrwt beam="2">  1       -2 0.90196992E-01 0.54337708E+03</pdfrwt>
<totfact> 0.23931245E+01</totfact>
</mgrwt>
</event>
<event>
 4    1  0.4840632E-008  0.6076028E+03  0.7818608E-02  0.9889757E-01
          2   -1    0    0  501    0  0.00000000000E+00  0.00000000000E+00  0.97328498441E+03  0.97328498441E+03  0.25500000000E-02 0. -1.
         -2   -1    0    0    0  501 -0.00000000000E+00 -0.00000000000E+00 -0.62305541702E+03  0.62305541703E+03  0.25500000000E-02 0.  1.
    8880022    1    1    2    0    0 -0.38311730806E+03 -0.44610614211E+03  0.67433974659E+03  0.90769780688E+03  0.15294330000E+03 0.  0.
    8880022    1    1    2    0    0  0.38311730806E+03  0.44610614211E+03 -0.32411017921E+03  0.68864259456E+03  0.15294330000E+03 0. -1.
<mgrwt>
<rscale>  0 0.60760284E+03</rscale>
<asrwt>0</asrwt>
<pdfrwt beam="1">  1        2 0.14973615E+00 0.60760284E+03</pdfrwt>
<pdfrwt beam="2">  1       -2 0.95854680E-01 0.60760284E+03</pdfrwt>
<totfact> 0.24693043E+01</totfact>
</mgrwt>
</event>
<event>
 4    1  0.4840632E-008  0.6957263E+03  0.7818608E-02  0.9724569E-01
         -2   -1    0    0    0  501 -0.00000000000E+00  0.00000000000E+00  0.39444847787E+03  0.39444847788E+03  0.25500000000E-02 0.  1.
          2   -1    0    0  501    0  0.00000000000E+00 -0.00000000000E+00 -0.22967332761E+04  0.22967332761E+04  0.25500000000E-02 0. -1.
    8880022    1    1    2    0    0 -0.38274623543E+03 -0.56048978466E+03 -0.32870289187E+02  0.69650239653E+03  0.15294330000E+03 0.  0.
    8880022    1    1    2    0    0  0.38274623543E+03  0.56048978466E+03 -0.18694145090E+04  0.19946793574E+04  0.15294330000E+03 0.  0.
<mgrwt>
<rscale>  0 0.69572633E+03</rscale>
<asrwt>0</asrwt>
<pdfrwt beam="1">  1        2 0.35334357E+00 0.69572633E+03</pdfrwt>
<pdfrwt beam="2">  1       -2 0.60684382E-01 0.69572633E+03</pdfrwt>
<totfact> 0.12108543E+01</totfact>
</mgrwt>
</event>
<event>
 4    1  0.4840632E-008  0.4864039E+03  0.7818608E-02  0.1017390E+00
          2   -1    0    0  501    0  0.00000000000E+00  0.00000000000E+00  0.24346299182E+04  0.24346299182E+04  0.25500000000E-02 0. -1.
         -2   -1    0    0    0  501 -0.00000000000E+00 -0.00000000000E+00 -0.12207208265E+03  0.12207208267E+03  0.25500000000E-02 0.  1.
    8880022    1    1    2    0    0  0.36750394639E+03  0.27953170186E+03  0.57897670348E+03  0.75617643387E+03  0.15294330000E+03 0.  1.
    8880022    1    1    2    0    0 -0.36750394639E+03 -0.27953170186E+03  0.17335811321E+04  0.18005255670E+04  0.15294330000E+03 0.  0.
<mgrwt>
<rscale>  0 0.48640392E+03</rscale>
<asrwt>0</asrwt>
<pdfrwt beam="1">  1        2 0.37455843E+00 0.48640392E+03</pdfrwt>
<pdfrwt beam="2">  1       -2 0.18780321E-01 0.48640392E+03</pdfrwt>
<totfact> 0.97435558E+01</totfact>
</mgrwt>
</event>
<event>
 4    1  0.4840632E-008  0.3628297E+03  0.7818608E-02  0.1057469E+00
          2   -1    0    0  501    0  0.00000000000E+00  0.00000000000E+00  0.13774978133E+04  0.13774978133E+04  0.25500000000E-02 0. -1.
         -2   -1    0    0    0  501 -0.00000000000E+00 -0.00000000000E+00 -0.99876718992E+02  0.99876719025E+02  0.25500000000E-02 0.  1.
    8880022    1    1    2    0    0  0.25604487970E+03  0.20662701594E+03  0.79222946853E+03  0.87136266156E+03  0.15294330000E+03 0.  0.
    8880022    1    1    2    0    0 -0.25604487970E+03 -0.20662701594E+03  0.48539162582E+03  0.60601187081E+03  0.15294330000E+03 0.  0.
<mgrwt>
<rscale>  0 0.36282965E+03</rscale>
<asrwt>0</asrwt>
<pdfrwt beam="1">  1        2 0.21192273E+00 0.36282965E+03</pdfrwt>
<pdfrwt beam="2">  1       -2 0.15365650E-01 0.36282965E+03</pdfrwt>
<totfact> 0.52003892E+02</totfact>
</mgrwt>
</event>
<event>
 4    1  0.4840632E-008  0.4993932E+03  0.7818608E-02  0.1013937E+00
          2   -1    0    0  501    0  0.00000000000E+00  0.00000000000E+00  0.61965202482E+03  0.61965202483E+03  0.25500000000E-02 0. -1.
         -2   -1    0    0    0  501 -0.00000000000E+00 -0.00000000000E+00 -0.70955612269E+03  0.70955612270E+03  0.25500000000E-02 0.  1.
    8880022    1    1    2    0    0 -0.34599445553E+03  0.32602101543E+03 -0.48216925447E+03  0.69417628073E+03  0.15294330000E+03 0.  0.
    8880022    1    1    2    0    0  0.34599445553E+03 -0.32602101543E+03  0.39226515660E+03  0.63503186680E+03  0.15294330000E+03 0.  0.
<mgrwt>
<rscale>  0 0.49939315E+03</rscale>
<asrwt>0</asrwt>
<pdfrwt beam="1">  1        2 0.95331081E-01 0.49939315E+03</pdfrwt>
<pdfrwt beam="2">  1       -2 0.10916248E+00 0.49939315E+03</pdfrwt>
<totfact> 0.33128143E+01</totfact>
</mgrwt>
</event>
<event>
 4    1  0.4840632E-008  0.1067700E+04  0.7818608E-02  0.9237258E-01
         -2   -1    0    0    0  501 -0.00000000000E+00  0.00000000000E+00  0.10191307946E+04  0.10191307946E+04  0.25500000000E-02 0.  1.
          2   -1    0    0  501    0  0.00000000000E+00 -0.00000000000E+00 -0.18239365386E+04  0.18239365386E+04  0.25500000000E-02 0. -1.
    8880022    1    1    2    0    0 -0.88568364232E+03 -0.57633058964E+03 -0.12864088233E+04  0.16717750376E+04  0.15294330000E+03 0.  0.
    8880022    1    1    2    0    0  0.88568364232E+03  0.57633058964E+03  0.48160307924E+03  0.11712922956E+04  0.15294330000E+03 0.  0.
<mgrwt>
<rscale>  0 0.10677004E+04</rscale>
<asrwt>0</asrwt>
<pdfrwt beam="1">  1        2 0.28060562E+00 0.10677004E+04</pdfrwt>
<pdfrwt beam="2">  1       -2 0.15678935E+00 0.10677004E+04</pdfrwt>
<totfact> 0.21982122E+00</totfact>
</mgrwt>
</event>
<event>
 4    1  0.4840632E-008  0.1636195E+03  0.7818608E-02  0.1184670E+00
         -2   -1    0    0    0  501 -0.00000000000E+00  0.00000000000E+00  0.76059717719E+02  0.76059717761E+02  0.25500000000E-02 0.  1.
          2   -1    0    0  501    0  0.00000000000E+00 -0.00000000000E+00 -0.30285312057E+04  0.30285312057E+04  0.25500000000E-02 0. -1.
    8880022    1    1    2    0    0 -0.48673795107E+02  0.31788974162E+02 -0.29355415824E+04  0.29400979086E+04  0.15294330000E+03 0. -1.
    8880022    1    1    2    0    0  0.48673795107E+02 -0.31788974162E+02 -0.16929905553E+02  0.16449301482E+03  0.15294330000E+03 0.  0.
<mgrwt>
<rscale>  0 0.16361947E+03</rscale>
<asrwt>0</asrwt>
<pdfrwt beam="1">  1        2 0.46592778E+00 0.16361947E+03</pdfrwt>
<pdfrwt beam="2">  1       -2 0.11701497E-01 0.16361947E+03</pdfrwt>
<totfact> 0.10893203E+02</totfact>
</mgrwt>
</event>
<event>
 4    1  0.4840632E-008  0.2244274E+03  0.7818608E-02  0.1130625E+00
         -2   -1    0    0    0  501 -0.00000000000E+00  0.00000000000E+00  0.11311254011E+03  0.11311254014E+03  0.25500000000E-02 0.  1.
          2   -1    0    0  501    0  0.00000000000E+00 -0.00000000000E+00 -0.14619092724E+04  0.14619092724E+04  0.25500000000E-02 0. -1.
    8880022    1    1    2    0    0  0.12200887358E+03  0.10995373860E+03 -0.13311119346E+04  0.13498987463E+04  0.15294330000E+03 0. -1.
    8880022    1    1    2    0    0 -0.12200887358E+03 -0.10995373860E+03 -0.17684797697E+02  0.22512306623E+03  0.15294330000E+03 0.  0.
<mgrwt>
<rscale>  0 0.22442737E+03</rscale>
<asrwt>0</asrwt>
<pdfrwt beam="1">  1        2 0.22490910E+00 0.22442737E+03</pdfrwt>
<pdfrwt beam="2">  1       -2 0.17401930E-01 0.22442737E+03</pdfrwt>
<totfact> 0.38661385E+02</totfact>
</mgrwt>
</event>
<event>
 4    1  0.4840632E-008  0.2869689E+03  0.7818608E-02  0.1091942E+00
         -2   -1    0    0    0  501 -0.00000000000E+00  0.00000000000E+00  0.44053984264E+03  0.44053984265E+03  0.25500000000E-02 0.  1.
          2   -1    0    0  501    0  0.00000000000E+00 -0.00000000000E+00 -0.17474852863E+04  0.17474852863E+04  0.25500000000E-02 0. -1.
    8880022    1    1    2    0    0 -0.40243302100E+02  0.23945765068E+03  0.38037077480E+03  0.47647987278E+03  0.15294330000E+03 0.  1.
    8880022    1    1    2    0    0  0.40243302100E+02 -0.23945765068E+03 -0.16873162184E+04  0.17115452561E+04  0.15294330000E+03 0.  0.
<mgrwt>
<rscale>  0 0.28696889E+03</rscale>
<asrwt>0</asrwt>
<pdfrwt beam="1">  1        2 0.26884389E+00 0.28696889E+03</pdfrwt>
<pdfrwt beam="2">  1       -2 0.67775362E-01 0.28696889E+03</pdfrwt>
<totfact> 0.20851762E+01</totfact>
</mgrwt>
</event>
<event>
 4    1  0.5750546E-008  0.1153644E+04  0.7818608E-02  0.9154429E-01
         -2   -1    0    0    0  501 -0.00000000000E+00  0.00000000000E+00  0.11721696035E+04  0.11721696035E+04  0.25500000000E-02 0.  1.
          2   -1    0    0  501    0  0.00000000000E+00 -0.00000000000E+00 -0.22852237643E+04  0.22852237643E+04  0.25500000000E-02 0. -1.
    8880022    1    1    2    0    0 -0.24071764304E+03  0.11178359386E+04 -0.17827461524E+04  0.21234588920E+04  0.15294330000E+03 0.  0.
    8880022    1    1    2    0    0  0.24071764304E+03 -0.11178359386E+04  0.66969199157E+03  0.13339344758E+04  0.15294330000E+03 0.  0.
<mgrwt>
<rscale>  0 0.11536437E+04</rscale>
<asrwt>0</asrwt>
<pdfrwt beam="1">  1        2 0.35157289E+00 0.11536437E+04</pdfrwt>
<pdfrwt beam="2">  1       -2 0.18033379E+00 0.11536437E+04</pdfrwt>
<totfact> 0.81687558E-01</totfact>
</mgrwt>
</event>
<event>
 4    1  0.4840632E-008  0.6220096E+03  0.7818608E-02  0.9860767E-01
         -2   -1    0    0    0  501 -0.00000000000E+00  0.00000000000E+00  0.38962219055E+03  0.38962219056E+03  0.25500000000E-02 0.  1.
          2   -1    0    0  501    0  0.00000000000E+00 -0.00000000000E+00 -0.19430038559E+04  0.19430038559E+04  0.25500000000E-02 0. -1.
    8880022    1    1    2    0    0 -0.52934905271E+03 -0.28860670533E+03  0.38839936942E+02  0.62322102314E+03  0.15294330000E+03 0.  0.
    8880022    1    1    2    0    0  0.52934905271E+03  0.28860670533E+03 -0.15922216023E+04  0.17094050233E+04  0.15294330000E+03 0.  0.
<mgrwt>
<rscale>  0 0.62200957E+03</rscale>
<asrwt>0</asrwt>
<pdfrwt beam="1">  1        2 0.29892366E+00 0.62200957E+03</pdfrwt>
<pdfrwt beam="2">  1       -2 0.59941877E-01 0.62200957E+03</pdfrwt>
<totfact> 0.19642041E+01</totfact>
</mgrwt>
</event>
<event>
 4    1  0.4840632E-008  0.5621043E+03  0.7818608E-02  0.9987304E-01
          2   -1    0    0  501    0  0.00000000000E+00  0.00000000000E+00  0.54721939836E+03  0.54721939836E+03  0.25500000000E-02 0. -1.
         -2   -1    0    0    0  501 -0.00000000000E+00 -0.00000000000E+00 -0.75467606257E+03  0.75467606257E+03  0.25500000000E-02 0.  1.
    8880022    1    1    2    0    0  0.50970097308E+03  0.18103740234E+03 -0.41922737886E+03  0.70122241209E+03  0.15294330000E+03 0.  0.
    8880022    1    1    2    0    0 -0.50970097308E+03 -0.18103740234E+03  0.21177071466E+03  0.60067304885E+03  0.15294330000E+03 0.  0.
<mgrwt>
<rscale>  0 0.56210433E+03</rscale>
<asrwt>0</asrwt>
<pdfrwt beam="1">  1        2 0.84187600E-01 0.56210433E+03</pdfrwt>
<pdfrwt beam="2">  1       -2 0.11610401E+00 0.56210433E+03</pdfrwt>
<totfact> 0.32843997E+01</totfact>
</mgrwt>
</event>
<event>
 4    1  0.4840632E-008  0.6668505E+03  0.7818608E-02  0.9775664E-01
          2   -1    0    0  501    0  0.00000000000E+00  0.00000000000E+00  0.18864371513E+04  0.18864371513E+04  0.25500000000E-02 0. -1.
         -2   -1    0    0    0  501 -0.00000000000E+00 -0.00000000000E+00 -0.24568166141E+03  0.24568166143E+03  0.25500000000E-02 0.  1.
    8880022    1    1    2    0    0  0.11220883640E+03  0.63930201199E+03  0.60581900989E+03  0.90094739650E+03  0.15294330000E+03 0.  0.
    8880022    1    1    2    0    0 -0.11220883640E+03 -0.63930201199E+03  0.10349364800E+04  0.12311714162E+04  0.15294330000E+03 0.  0.
<mgrwt>
<rscale>  0 0.66685046E+03</rscale>
<asrwt>0</asrwt>
<pdfrwt beam="1">  1        2 0.29022111E+00 0.66685046E+03</pdfrwt>
<pdfrwt beam="2">  1       -2 0.37797178E-01 0.66685046E+03</pdfrwt>
<totfact> 0.52980131E+01</totfact>
</mgrwt>
</event>
<event>
 4    1  0.4840632E-008  0.5262280E+03  0.7818608E-02  0.1007151E+00
         -2   -1    0    0    0  501 -0.00000000000E+00  0.00000000000E+00  0.38604235844E+03  0.38604235845E+03  0.25500000000E-02 0.  1.
          2   -1    0    0  501    0  0.00000000000E+00 -0.00000000000E+00 -0.22461240113E+04  0.22461240113E+04  0.25500000000E-02 0. -1.
    8880022    1    1    2    0    0 -0.36086316335E+03  0.35114395179E+03  0.15574049165E+03  0.54879053499E+03  0.15294330000E+03 0.  0.
    8880022    1    1    2    0    0  0.36086316335E+03 -0.35114395179E+03 -0.20158221445E+04  0.20833758348E+04  0.15294330000E+03 0.  0.
<mgrwt>
<rscale>  0 0.52622804E+03</rscale>
<asrwt>0</asrwt>
<pdfrwt beam="1">  1        2 0.34555753E+00 0.52622804E+03</pdfrwt>
<pdfrwt beam="2">  1       -2 0.59391133E-01 0.52622804E+03</pdfrwt>
<totfact> 0.13961207E+01</totfact>
</mgrwt>
</event>
<event>
 4    1  0.4840632E-008  0.7424128E+03  0.7818608E-02  0.9647329E-01
         -2   -1    0    0    0  501 -0.00000000000E+00  0.00000000000E+00  0.11622106627E+04  0.11622106627E+04  0.25500000000E-02 0.  1.
          2   -1    0    0  501    0  0.00000000000E+00 -0.00000000000E+00 -0.74165146835E+03  0.74165146836E+03  0.25500000000E-02 0. -1.
    8880022    1    1    2    0    0 -0.71561819027E+03  0.12520279418E+03 -0.36131563184E+03  0.82566686547E+03  0.15294330000E+03 0.  0.
    8880022    1    1    2    0    0  0.71561819027E+03 -0.12520279418E+03  0.78187482618E+03  0.10781952656E+04  0.15294330000E+03 0.  0.
<mgrwt>
<rscale>  0 0.74241281E+03</rscale>
<asrwt>0</asrwt>
<pdfrwt beam="1">  1        2 0.11410023E+00 0.74241281E+03</pdfrwt>
<pdfrwt beam="2">  1       -2 0.17880164E+00 0.74241281E+03</pdfrwt>
<totfact> 0.71682814E+00</totfact>
</mgrwt>
</event>
<event>
 4    1  0.4840632E-008  0.4333736E+03  0.7818608E-02  0.1032800E+00
         -2   -1    0    0    0  501 -0.00000000000E+00  0.00000000000E+00  0.47751991567E+03  0.47751991568E+03  0.25500000000E-02 0.  1.
          2   -1    0    0  501    0  0.00000000000E+00 -0.00000000000E+00 -0.12443812380E+04  0.12443812380E+04  0.25500000000E-02 0. -1.
    8880022    1    1    2    0    0  0.32222204679E+03 -0.24615844654E+03 -0.10954385616E+04  0.11780485234E+04  0.15294330000E+03 0. -1.
    8880022    1    1    2    0    0 -0.32222204679E+03  0.24615844654E+03  0.32857723929E+03  0.54385263026E+03  0.15294330000E+03 0.  0.
<mgrwt>
<rscale>  0 0.43337360E+03</rscale>
<asrwt>0</asrwt>
<pdfrwt beam="1">  1        2 0.19144327E+00 0.43337360E+03</pdfrwt>
<pdfrwt beam="2">  1       -2 0.73464603E-01 0.43337360E+03</pdfrwt>
<totfact> 0.31721280E+01</totfact>
</mgrwt>
</event>
<event>
 4    1  0.4840632E-008  0.5114221E+03  0.7818608E-02  0.1010840E+00
          2   -1    0    0  501    0  0.00000000000E+00  0.00000000000E+00  0.13395424938E+04  0.13395424938E+04  0.25500000000E-02 0. -1.
         -2   -1    0    0    0  501 -0.00000000000E+00 -0.00000000000E+00 -0.27740011358E+03  0.27740011359E+03  0.25500000000E-02 0.  1.
    8880022    1    1    2    0    0 -0.29383737188E+03 -0.38964154099E+03  0.97101958256E+03  0.10974659969E+04  0.15294330000E+03 0.  0.
    8880022    1    1    2    0    0  0.29383737188E+03  0.38964154099E+03  0.91122797633E+02  0.51947661048E+03  0.15294330000E+03 0.  1.
<mgrwt>
<rscale>  0 0.51142212E+03</rscale>
<asrwt>0</asrwt>
<pdfrwt beam="1">  1        2 0.20608346E+00 0.51142212E+03</pdfrwt>
<pdfrwt beam="2">  1       -2 0.42676941E-01 0.51142212E+03</pdfrwt>
<totfact> 0.85179033E+01</totfact>
</mgrwt>
</event>
<event>
 4    1  0.4840632E-008  0.5720799E+03  0.7818608E-02  0.9965087E-01
         -2   -1    0    0    0  501 -0.00000000000E+00  0.00000000000E+00  0.30273458244E+03  0.30273458245E+03  0.25500000000E-02 0.  1.
          2   -1    0    0  501    0  0.00000000000E+00 -0.00000000000E+00 -0.12008656313E+04  0.12008656313E+04  0.25500000000E-02 0. -1.
    8880022    1    1    2    0    0 -0.41813107235E+03 -0.35923558526E+03 -0.68652340030E+03  0.89363853518E+03  0.15294330000E+03 0.  0.
    8880022    1    1    2    0    0  0.41813107235E+03  0.35923558526E+03 -0.21160764856E+03  0.60996167857E+03  0.15294330000E+03 0.  0.
<mgrwt>
<rscale>  0 0.57207994E+03</rscale>
<asrwt>0</asrwt>
<pdfrwt beam="1">  1        2 0.18474856E+00 0.57207994E+03</pdfrwt>
<pdfrwt beam="2">  1       -2 0.46574552E-01 0.57207994E+03</pdfrwt>
<totfact> 0.85444197E+01</totfact>
</mgrwt>
</event>
<event>
 4    1  0.6868529E-008  0.5702045E+03  0.7818608E-02  0.9969226E-01
         -2   -1    0    0    0  501 -0.00000000000E+00  0.00000000000E+00  0.12549809528E+04  0.12549809528E+04  0.25500000000E-02 0.  1.
          2   -1    0    0  501    0  0.00000000000E+00 -0.00000000000E+00 -0.26865964469E+04  0.26865964469E+04  0.25500000000E-02 0. -1.
    8880022    1    1    2    0    0 -0.43853379475E+01 -0.54929248497E+03 -0.25891643681E+04  0.26512082610E+04  0.15294330000E+03 0.  0.
    8880022    1    1    2    0    0  0.43853379475E+01  0.54929248497E+03  0.11575488740E+04  0.12903691386E+04  0.15294330000E+03 0.  0.
<mgrwt>
<rscale>  0 0.57020445E+03</rscale>
<asrwt>0</asrwt>
<pdfrwt beam="1">  1        2 0.41332253E+00 0.57020445E+03</pdfrwt>
<pdfrwt beam="2">  1       -2 0.19307399E+00 0.57020445E+03</pdfrwt>
<totfact> 0.44697861E-01</totfact>
</mgrwt>
</event>
<event>
 4    1  0.4840632E-008  0.1513950E+04  0.7818608E-02  0.8875229E-01
         -2   -1    0    0    0  501 -0.00000000000E+00  0.00000000000E+00  0.11999818525E+04  0.11999818525E+04  0.25500000000E-02 0.  1.
          2   -1    0    0  501    0  0.00000000000E+00 -0.00000000000E+00 -0.20700942668E+04  0.20700942668E+04  0.25500000000E-02 0. -1.
    8880022    1    1    2    0    0 -0.14711030248E+04 -0.32327694088E+03  0.19546537615E+02  0.15140758932E+04  0.15294330000E+03 0.  0.
    8880022    1    1    2    0    0  0.14711030248E+04  0.32327694088E+03 -0.88965895189E+03  0.17560002260E+04  0.15294330000E+03 0.  0.
<mgrwt>
<rscale>  0 0.15139497E+04</rscale>
<asrwt>0</asrwt>
<pdfrwt beam="1">  1        2 0.31847604E+00 0.15139497E+04</pdfrwt>
<pdfrwt beam="2">  1       -2 0.18461259E+00 0.15139497E+04</pdfrwt>
<totfact> 0.96677434E-01</totfact>
</mgrwt>
</event>
<event>
 4    1  0.4840632E-008  0.3622072E+03  0.7818608E-02  0.1057713E+00
         -2   -1    0    0    0  501 -0.00000000000E+00  0.00000000000E+00  0.61781297175E+03  0.61781297176E+03  0.25500000000E-02 0.  1.
          2   -1    0    0  501    0  0.00000000000E+00 -0.00000000000E+00 -0.26454930380E+03  0.26454930381E+03  0.25500000000E-02 0. -1.
    8880022    1    1    2    0    0 -0.31439460041E+03 -0.94648859830E+02  0.37260034133E+03  0.51963933532E+03  0.15294330000E+03 0.  0.
    8880022    1    1    2    0    0  0.31439460041E+03  0.94648859830E+02 -0.19336673370E+02  0.36272294026E+03  0.15294330000E+03 0.  0.
<mgrwt>
<rscale>  0 0.36220716E+03</rscale>
<asrwt>0</asrwt>
<pdfrwt beam="1">  1        2 0.40699893E-01 0.36220716E+03</pdfrwt>
<pdfrwt beam="2">  1       -2 0.95048150E-01 0.36220716E+03</pdfrwt>
<totfact> 0.12107808E+02</totfact>
</mgrwt>
</event>
<event>
 4    1  0.4840632E-008  0.2418825E+03  0.7818608E-02  0.1118545E+00
         -2   -1    0    0    0  501 -0.00000000000E+00  0.00000000000E+00  0.37665783818E+03  0.37665783818E+03  0.25500000000E-02 0.  1.
          2   -1    0    0  501    0  0.00000000000E+00 -0.00000000000E+00 -0.15929613871E+04  0.15929613871E+04  0.25500000000E-02 0. -1.
    8880022    1    1    2    0    0  0.17789928871E+03  0.58884141109E+02 -0.15437148454E+04  0.15625500555E+04  0.15294330000E+03 0.  0.
    8880022    1    1    2    0    0 -0.17789928871E+03 -0.58884141109E+02  0.32741129642E+03  0.40706916984E+03  0.15294330000E+03 0.  1.
<mgrwt>
<rscale>  0 0.24188252E+03</rscale>
<asrwt>0</asrwt>
<pdfrwt beam="1">  1        2 0.24507098E+00 0.24188252E+03</pdfrwt>
<pdfrwt beam="2">  1       -2 0.57947360E-01 0.24188252E+03</pdfrwt>
<totfact> 0.35523383E+01</totfact>
</mgrwt>
</event>
<event>
 4    1  0.4840632E-008  0.2358145E+03  0.7818608E-02  0.1122613E+00
         -2   -1    0    0    0  501 -0.00000000000E+00  0.00000000000E+00  0.50612645625E+02  0.50612645689E+02  0.25500000000E-02 0.  1.
          2   -1    0    0  501    0  0.00000000000E+00 -0.00000000000E+00 -0.11473333648E+04  0.11473333648E+04  0.25500000000E-02 0. -1.
    8880022    1    1    2    0    0  0.17492025950E+03 -0.40245697411E+02 -0.42505030451E+03  0.48608253180E+03  0.15294330000E+03 0. -1.
    8880022    1    1    2    0    0 -0.17492025950E+03  0.40245697411E+02 -0.67167041463E+03  0.71186347866E+03  0.15294330000E+03 0.  1.
<mgrwt>
<rscale>  0 0.23581447E+03</rscale>
<asrwt>0</asrwt>
<pdfrwt beam="1">  1        2 0.17651281E+00 0.23581447E+03</pdfrwt>
<pdfrwt beam="2">  1       -2 0.77865617E-02 0.23581447E+03</pdfrwt>
<totfact> 0.21121718E+03</totfact>
</mgrwt>
</event>
<event>
 4    1  0.4840632E-008  0.6254821E+03  0.7818608E-02  0.9853905E-01
          2   -1    0    0  501    0  0.00000000000E+00  0.00000000000E+00  0.29576057890E+04  0.29576057890E+04  0.25500000000E-02 0. -1.
         -2   -1    0    0    0  501 -0.00000000000E+00 -0.00000000000E+00 -0.29205168915E+03  0.29205168916E+03  0.25500000000E-02 0.  1.
    8880022    1    1    2    0    0 -0.50520966426E+03 -0.33555838756E+03  0.13098430965E+03  0.63904990315E+03  0.15294330000E+03 0.  0.
    8880022    1    1    2    0    0  0.50520966426E+03  0.33555838756E+03  0.25345697902E+04  0.26106075751E+04  0.15294330000E+03 0. -1.
<mgrwt>
<rscale>  0 0.62548213E+03</rscale>
<asrwt>0</asrwt>
<pdfrwt beam="1">  1        2 0.45501627E+00 0.62548213E+03</pdfrwt>
<pdfrwt beam="2">  1       -2 0.44931030E-01 0.62548213E+03</pdfrwt>
<totfact> 0.94660969E+00</totfact>
</mgrwt>
</event>
<event>
 4    1  0.4840632E-008  0.8217287E+03  0.7818608E-02  0.9529088E-01
         -2   -1    0    0    0  501 -0.00000000000E+00  0.00000000000E+00  0.52255070119E+03  0.52255070120E+03  0.25500000000E-02 0.  1.
          2   -1    0    0  501    0  0.00000000000E+00 -0.00000000000E+00 -0.31280063364E+04  0.31280063364E+04  0.25500000000E-02 0. -1.
    8880022    1    1    2    0    0 -0.53868712539E+03  0.60138387382E+03  0.95600688470E+02  0.82727113294E+03  0.15294330000E+03 0.  0.
    8880022    1    1    2    0    0  0.53868712539E+03 -0.60138387382E+03 -0.27010563237E+04  0.28232859047E+04  0.15294330000E+03 0.  0.
<mgrwt>
<rscale>  0 0.82172869E+03</rscale>
<asrwt>0</asrwt>
<pdfrwt beam="1">  1        2 0.48123173E+00 0.82172869E+03</pdfrwt>
<pdfrwt beam="2">  1       -2 0.80392417E-01 0.82172869E+03</pdfrwt>
<totfact> 0.20860738E+00</totfact>
</mgrwt>
</event>
<event>
 4    1  0.4840632E-008  0.4423300E+03  0.7818608E-02  0.1030034E+00
          2   -1    0    0  501    0  0.00000000000E+00  0.00000000000E+00  0.25568437122E+04  0.25568437122E+04  0.25500000000E-02 0. -1.
         -2   -1    0    0    0  501 -0.00000000000E+00 -0.00000000000E+00 -0.17085663486E+03  0.17085663488E+03  0.25500000000E-02 0.  1.
    8880022    1    1    2    0    0  0.37968180533E+03  0.16764814542E+03  0.22064040300E+04  0.22503054394E+04  0.15294330000E+03 0.  0.
    8880022    1    1    2    0    0 -0.37968180533E+03 -0.16764814542E+03  0.17958304731E+03  0.47739490766E+03  0.15294330000E+03 0.  0.
<mgrwt>
<rscale>  0 0.44233000E+03</rscale>
<asrwt>0</asrwt>
<pdfrwt beam="1">  1        2 0.39336053E+00 0.44233000E+03</pdfrwt>
<pdfrwt beam="2">  1       -2 0.26285639E-01 0.44233000E+03</pdfrwt>
<totfact> 0.46498435E+01</totfact>
</mgrwt>
</event>
<event>
 4    1  0.4840632E-008  0.3494240E+03  0.7818608E-02  0.1062852E+00
         -2   -1    0    0    0  501 -0.00000000000E+00  0.00000000000E+00  0.15364582197E+03  0.15364582199E+03  0.25500000000E-02 0.  1.
          2   -1    0    0  501    0  0.00000000000E+00 -0.00000000000E+00 -0.15509903673E+04  0.15509903673E+04  0.25500000000E-02 0. -1.
    8880022    1    1    2    0    0  0.26360650403E+03 -0.17093003620E+03 -0.10348835349E+03  0.36442689056E+03  0.15294330000E+03 0.  0.
    8880022    1    1    2    0    0 -0.26360650403E+03  0.17093003620E+03 -0.12938561919E+04  0.13402092988E+04  0.15294330000E+03 0.  0.
<mgrwt>
<rscale>  0 0.34942398E+03</rscale>
<asrwt>0</asrwt>
<pdfrwt beam="1">  1        2 0.23861389E+00 0.34942398E+03</pdfrwt>
<pdfrwt beam="2">  1       -2 0.23637820E-01 0.34942398E+03</pdfrwt>
<totfact> 0.19999553E+02</totfact>
</mgrwt>
</event>
<event>
 4    1  0.4840632E-008  0.1632812E+03  0.7818608E-02  0.1185041E+00
          2   -1    0    0  501    0  0.00000000000E+00  0.00000000000E+00  0.24365328488E+04  0.24365328488E+04  0.25500000000E-02 0. -1.
         -2   -1    0    0    0  501 -0.00000000000E+00 -0.00000000000E+00 -0.57743721124E+02  0.57743721180E+02  0.25500000000E-02 0.  1.
    8880022    1    1    2    0    0 -0.36617445487E+02 -0.43911890763E+02  0.66619508417E+02  0.17634881168E+03  0.15294330000E+03 0.  0.
    8880022    1    1    2    0    0  0.36617445487E+02  0.43911890763E+02  0.23121696193E+04  0.23179277583E+04  0.15294330000E+03 0.  0.
<mgrwt>
<rscale>  0 0.16328118E+03</rscale>
<asrwt>0</asrwt>
<pdfrwt beam="1">  1        2 0.37485123E+00 0.16328118E+03</pdfrwt>
<pdfrwt beam="2">  1       -2 0.88836489E-02 0.16328118E+03</pdfrwt>
<totfact> 0.35994402E+02</totfact>
</mgrwt>
</event>
<event>
 4    1  0.4840632E-008  0.7792025E+03  0.7818608E-02  0.9590618E-01
          2   -1    0    0  501    0  0.00000000000E+00  0.00000000000E+00  0.15573335061E+04  0.15573335062E+04  0.25500000000E-02 0. -1.
         -2   -1    0    0    0  501 -0.00000000000E+00 -0.00000000000E+00 -0.52669174234E+03  0.52669174235E+03  0.25500000000E-02 0.  1.
    8880022    1    1    2    0    0  0.75214818482E+03 -0.13430534188E+03  0.10464173953E+04  0.13046631116E+04  0.15294330000E+03 0.  0.
    8880022    1    1    2    0    0 -0.75214818482E+03  0.13430534188E+03 -0.15775631447E+02  0.77936213685E+03  0.15294330000E+03 0.  0.
<mgrwt>
<rscale>  0 0.77920246E+03</rscale>
<asrwt>0</asrwt>
<pdfrwt beam="1">  1        2 0.23958977E+00 0.77920246E+03</pdfrwt>
<pdfrwt beam="2">  1       -2 0.81029500E-01 0.77920246E+03</pdfrwt>
<totfact> 0.16166495E+01</totfact>
</mgrwt>
</event>
<event>
 4    1  0.4840632E-008  0.5944741E+03  0.7818608E-02  0.9916937E-01
          2   -1    0    0  501    0  0.00000000000E+00  0.00000000000E+00  0.70922884385E+03  0.70922884385E+03  0.25500000000E-02 0. -1.
         -2   -1    0    0    0  501 -0.00000000000E+00 -0.00000000000E+00 -0.98692969368E+03  0.98692969368E+03  0.25500000000E-02 0.  1.
    8880022    1    1    2    0    0 -0.43306387005E+03  0.37744340309E+03  0.45789494435E+03  0.75037808547E+03  0.15294330000E+03 0.  0.
    8880022    1    1    2    0    0  0.43306387005E+03 -0.37744340309E+03 -0.73559579418E+03  0.94578045207E+03  0.15294330000E+03 0.  0.
<mgrwt>
<rscale>  0 0.59447413E+03</rscale>
<asrwt>0</asrwt>
<pdfrwt beam="1">  1        2 0.10911213E+00 0.59447413E+03</pdfrwt>
<pdfrwt beam="2">  1       -2 0.15183534E+00 0.59447413E+03</pdfrwt>
<totfact> 0.12092195E+01</totfact>
</mgrwt>
</event>
<event>
 4    1  0.4840632E-008  0.2895280E+03  0.7818608E-02  0.1090596E+00
         -2   -1    0    0    0  501 -0.00000000000E+00  0.00000000000E+00  0.57810527273E+03  0.57810527273E+03  0.25500000000E-02 0.  1.
          2   -1    0    0  501    0  0.00000000000E+00 -0.00000000000E+00 -0.64370421634E+03  0.64370421634E+03  0.25500000000E-02 0. -1.
    8880022    1    1    2    0    0  0.21125819615E+03  0.12571712172E+03  0.50491401668E+03  0.58203491080E+03  0.15294330000E+03 0.  0.
    8880022    1    1    2    0    0 -0.21125819615E+03 -0.12571712172E+03 -0.57051296029E+03  0.63977457827E+03  0.15294330000E+03 0. -1.
<mgrwt>
<rscale>  0 0.28952802E+03</rscale>
<asrwt>0</asrwt>
<pdfrwt beam="1">  1        2 0.99031418E-01 0.28952802E+03</pdfrwt>
<pdfrwt beam="2">  1       -2 0.88939272E-01 0.28952802E+03</pdfrwt>
<totfact> 0.52669240E+01</totfact>
</mgrwt>
</event>
<event>
 4    1  0.4840632E-008  0.1360346E+04  0.7818608E-02  0.8983033E-01
         -2   -1    0    0    0  501 -0.00000000000E+00  0.00000000000E+00  0.86800841371E+03  0.86800841371E+03  0.25500000000E-02 0.  1.
          2   -1    0    0  501    0  0.00000000000E+00 -0.00000000000E+00 -0.21670158926E+04  0.21670158926E+04  0.25500000000E-02 0. -1.
    8880022    1    1    2    0    0  0.39111671906E+03 -0.12939001860E+04 -0.84257031867E+03  0.16001457353E+04  0.15294330000E+03 0.  0.
    8880022    1    1    2    0    0 -0.39111671906E+03  0.12939001860E+04 -0.45643716024E+03  0.14348785710E+04  0.15294330000E+03 0.  0.
<mgrwt>
<rscale>  0 0.13603461E+04</rscale>
<asrwt>0</asrwt>
<pdfrwt beam="1">  1        2 0.33338706E+00 0.13603461E+04</pdfrwt>
<pdfrwt beam="2">  1       -2 0.13353976E+00 0.13603461E+04</pdfrwt>
<totfact> 0.20974237E+00</totfact>
</mgrwt>
</event>
<event>
 4    1  0.4840632E-008  0.1546603E+03  0.7818608E-02  0.1194861E+00
          2   -1    0    0  501    0  0.00000000000E+00  0.00000000000E+00  0.34860460265E+04  0.34860460265E+04  0.25500000000E-02 0. -1.
         -2   -1    0    0    0  501 -0.00000000000E+00 -0.00000000000E+00 -0.83940939659E+02  0.83940939698E+02  0.25500000000E-02 0.  1.
    8880022    1    1    2    0    0  0.16827208375E+02 -0.15652489352E+02 -0.94304112357E+01  0.15494754285E+03  0.15294330000E+03 0.  1.
    8880022    1    1    2    0    0 -0.16827208375E+02  0.15652489352E+02  0.34115354981E+04  0.34150394234E+04  0.15294330000E+03 0.  0.
<mgrwt>
<rscale>  0 0.15466030E+03</rscale>
<asrwt>0</asrwt>
<pdfrwt beam="1">  1        2 0.53631466E+00 0.15466030E+03</pdfrwt>
<pdfrwt beam="2">  1       -2 0.12913993E-01 0.15466030E+03</pdfrwt>
<totfact> 0.48965246E+01</totfact>
</mgrwt>
</event>
<event>
 4    1  0.4840632E-008  0.4105829E+03  0.7818608E-02  0.1040176E+00
          2   -1    0    0  501    0  0.00000000000E+00  0.00000000000E+00  0.18037670063E+04  0.18037670063E+04  0.25500000000E-02 0. -1.
         -2   -1    0    0    0  501 -0.00000000000E+00 -0.00000000000E+00 -0.22054063290E+03  0.22054063292E+03  0.25500000000E-02 0.  1.
    8880022    1    1    2    0    0  0.33419231289E+03  0.18303603264E+03  0.23290735085E+02  0.41124299702E+03  0.15294330000E+03 0.  0.
    8880022    1    1    2    0    0 -0.33419231289E+03 -0.18303603264E+03  0.15599356383E+04  0.16130646422E+04  0.15294330000E+03 0.  0.
<mgrwt>
<rscale>  0 0.41058293E+03</rscale>
<asrwt>0</asrwt>
<pdfrwt beam="1">  1        2 0.27750261E+00 0.41058293E+03</pdfrwt>
<pdfrwt beam="2">  1       -2 0.33929329E-01 0.41058293E+03</pdfrwt>
<totfact> 0.75058014E+01</totfact>
</mgrwt>
</event>
<event>
 4    1  0.4840632E-008  0.3308504E+03  0.7818608E-02  0.1070761E+00
          2   -1    0    0  501    0  0.00000000000E+00  0.00000000000E+00  0.20750158653E+04  0.20750158653E+04  0.25500000000E-02 0. -1.
         -2   -1    0    0    0  501 -0.00000000000E+00 -0.00000000000E+00 -0.11363303530E+03  0.11363303533E+03  0.25500000000E-02 0.  1.
    8880022    1    1    2    0    0 -0.27678763736E+03  0.97256969977E+02  0.17968949346E+03  0.37649738575E+03  0.15294330000E+03 0.  0.
    8880022    1    1    2    0    0  0.27678763736E+03 -0.97256969977E+02  0.17816933365E+04  0.18121515149E+04  0.15294330000E+03 0.  0.
<mgrwt>
<rscale>  0 0.33085037E+03</rscale>
<asrwt>0</asrwt>
<pdfrwt beam="1">  1        2 0.31923320E+00 0.33085037E+03</pdfrwt>
<pdfrwt beam="2">  1       -2 0.17482006E-01 0.33085037E+03</pdfrwt>
<totfact> 0.17798917E+02</totfact>
</mgrwt>
</event>
<event>
 4    1  0.4840632E-008  0.8037707E+03  0.7818608E-02  0.9554575E-01
          2   -1    0    0  501    0  0.00000000000E+00  0.00000000000E+00  0.97815250526E+03  0.97815250526E+03  0.25500000000E-02 0. -1.
         -2   -1    0    0    0  501 -0.00000000000E+00 -0.00000000000E+00 -0.90469388594E+03  0.90469388595E+03  0.25500000000E-02 0.  1.
    8880022    1    1    2    0    0  0.65671095470E+03 -0.43747737661E+03  0.52585646170E+03  0.96050632710E+03  0.15294330000E+03 0.  0.
    8880022    1    1    2    0    0 -0.65671095470E+03  0.43747737661E+03 -0.45239784238E+03  0.92234006411E+03  0.15294330000E+03 0.  0.
<mgrwt>
<rscale>  0 0.80377073E+03</rscale>
<asrwt>0</asrwt>
<pdfrwt beam="1">  1        2 0.15048500E+00 0.80377073E+03</pdfrwt>
<pdfrwt beam="2">  1       -2 0.13918368E+00 0.80377073E+03</pdfrwt>
<totfact> 0.95952455E+00</totfact>
</mgrwt>
</event>
<event>
 4    1  0.4840632E-008  0.7771437E+03  0.7818608E-02  0.9593703E-01
         -2   -1    0    0    0  501 -0.00000000000E+00  0.00000000000E+00  0.91258008141E+03  0.91258008142E+03  0.25500000000E-02 0.  1.
          2   -1    0    0  501    0  0.00000000000E+00 -0.00000000000E+00 -0.15215476308E+04  0.15215476308E+04  0.25500000000E-02 0. -1.
    8880022    1    1    2    0    0 -0.75494008069E+03 -0.10308299580E+03 -0.12193428596E+04  0.14459423542E+04  0.15294330000E+03 0.  0.
    8880022    1    1    2    0    0  0.75494008069E+03  0.10308299580E+03  0.61037531021E+03  0.98818535801E+03  0.15294330000E+03 0.  0.
<mgrwt>
<rscale>  0 0.77714367E+03</rscale>
<asrwt>0</asrwt>
<pdfrwt beam="1">  1        2 0.23408425E+00 0.77714367E+03</pdfrwt>
<pdfrwt beam="2">  1       -2 0.14039694E+00 0.77714367E+03</pdfrwt>
<totfact> 0.44984225E+00</totfact>
</mgrwt>
</event>
<event>
 4    1  0.4840632E-008  0.6490510E+03  0.7818608E-02  0.9808561E-01
         -2   -1    0    0    0  501 -0.00000000000E+00  0.00000000000E+00  0.31842881041E+03  0.31842881042E+03  0.25500000000E-02 0.  1.
          2   -1    0    0  501    0  0.00000000000E+00 -0.00000000000E+00 -0.24687753873E+04  0.24687753873E+04  0.25500000000E-02 0. -1.
    8880022    1    1    2    0    0 -0.29321268994E+03  0.55848179509E+03 -0.20245883525E+04  0.21260821356E+04  0.15294330000E+03 0.  0.
    8880022    1    1    2    0    0  0.29321268994E+03 -0.55848179509E+03 -0.12575822431E+03  0.66112206210E+03  0.15294330000E+03 0.  0.
<mgrwt>
<rscale>  0 0.64905104E+03</rscale>
<asrwt>0</asrwt>
<pdfrwt beam="1">  1        2 0.37981158E+00 0.64905104E+03</pdfrwt>
<pdfrwt beam="2">  1       -2 0.48989049E-01 0.64905104E+03</pdfrwt>
<totfact> 0.15239969E+01</totfact>
</mgrwt>
</event>
<event>
 4    1  0.4840632E-008  0.7390449E+03  0.7818608E-02  0.9652696E-01
         -2   -1    0    0    0  501 -0.00000000000E+00  0.00000000000E+00  0.16126527983E+04  0.16126527983E+04  0.25500000000E-02 0.  1.
          2   -1    0    0  501    0  0.00000000000E+00 -0.00000000000E+00 -0.72647342369E+03  0.72647342369E+03  0.25500000000E-02 0. -1.
    8880022    1    1    2    0    0  0.20388701419E+03 -0.69370439441E+03 -0.41140451138E+03  0.84583747043E+03  0.15294330000E+03 0.  0.
    8880022    1    1    2    0    0 -0.20388701419E+03  0.69370439441E+03  0.12975838860E+04  0.14932887516E+04  0.15294330000E+03 0.  0.
<mgrwt>
<rscale>  0 0.73904489E+03</rscale>
<asrwt>0</asrwt>
<pdfrwt beam="1">  1        2 0.11176514E+00 0.73904489E+03</pdfrwt>
<pdfrwt beam="2">  1       -2 0.24810043E+00 0.73904489E+03</pdfrwt>
<totfact> 0.26630231E+00</totfact>
</mgrwt>
</event>
<event>
 4    1  0.4840632E-008  0.6116980E+03  0.7818608E-02  0.9881429E-01
         -2   -1    0    0    0  501 -0.00000000000E+00  0.00000000000E+00  0.92898261397E+03  0.92898261397E+03  0.25500000000E-02 0.  1.
          2   -1    0    0  501    0  0.00000000000E+00 -0.00000000000E+00 -0.12477494531E+04  0.12477494531E+04  0.25500000000E-02 0. -1.
    8880022    1    1    2    0    0 -0.35765875267E+03 -0.47208365498E+03 -0.10550206181E+04  0.12195256940E+04  0.15294330000E+03 0.  0.
    8880022    1    1    2    0    0  0.35765875267E+03  0.47208365498E+03  0.73625377896E+03  0.95720637310E+03  0.15294330000E+03 0.  1.
<mgrwt>
<rscale>  0 0.61169798E+03</rscale>
<asrwt>0</asrwt>
<pdfrwt beam="1">  1        2 0.19196146E+00 0.61169798E+03</pdfrwt>
<pdfrwt beam="2">  1       -2 0.14292040E+00 0.61169798E+03</pdfrwt>
<totfact> 0.63008631E+00</totfact>
</mgrwt>
</event>
<event>
 4    1  0.4840632E-008  0.2314795E+03  0.7818608E-02  0.1125603E+00
         -2   -1    0    0    0  501 -0.00000000000E+00  0.00000000000E+00  0.78510779889E+02  0.78510779930E+02  0.25500000000E-02 0.  1.
          2   -1    0    0  501    0  0.00000000000E+00 -0.00000000000E+00 -0.28727791847E+04  0.28727791847E+04  0.25500000000E-02 0. -1.
    8880022    1    1    2    0    0 -0.56031332901E+02 -0.16447365669E+03 -0.10864261614E+03  0.25570679511E+03  0.15294330000E+03 0.  0.
    8880022    1    1    2    0    0  0.56031332901E+02  0.16447365669E+03 -0.26856257887E+04  0.26955831695E+04  0.15294330000E+03 0. -1.
<mgrwt>
<rscale>  0 0.23147947E+03</rscale>
<asrwt>0</asrwt>
<pdfrwt beam="1">  1        2 0.44196595E+00 0.23147947E+03</pdfrwt>
<pdfrwt beam="2">  1       -2 0.12078584E-01 0.23147947E+03</pdfrwt>
<totfact> 0.12323478E+02</totfact>
</mgrwt>
</event>
<event>
 4    1  0.4840632E-008  0.6774493E+03  0.7818608E-02  0.9756593E-01
         -2   -1    0    0    0  501 -0.00000000000E+00  0.00000000000E+00  0.14874826989E+04  0.14874826989E+04  0.25500000000E-02 0.  1.
          2   -1    0    0  501    0  0.00000000000E+00 -0.00000000000E+00 -0.49869025655E+03  0.49869025656E+03  0.25500000000E-02 0. -1.
    8880022    1    1    2    0    0  0.45689601303E+03  0.47622674532E+03  0.11076328013E+04  0.12983789721E+04  0.15294330000E+03 0.  0.
    8880022    1    1    2    0    0 -0.45689601303E+03 -0.47622674532E+03 -0.11884035891E+03  0.68779398340E+03  0.15294330000E+03 0.  0.
<mgrwt>
<rscale>  0 0.67744928E+03</rscale>
<asrwt>0</asrwt>
<pdfrwt beam="1">  1        2 0.76721579E-01 0.67744928E+03</pdfrwt>
<pdfrwt beam="2">  1       -2 0.22884349E+00 0.67744928E+03</pdfrwt>
<totfact> 0.55543713E+00</totfact>
</mgrwt>
</event>
<event>
 4    1  0.4840632E-008  0.6356499E+03  0.7818608E-02  0.9834085E-01
          2   -1    0    0  501    0  0.00000000000E+00  0.00000000000E+00  0.32440133396E+04  0.32440133396E+04  0.25500000000E-02 0. -1.
         -2   -1    0    0    0  501 -0.00000000000E+00 -0.00000000000E+00 -0.21015342725E+03  0.21015342727E+03  0.25500000000E-02 0.  1.
    8880022    1    1    2    0    0 -0.54313286133E+03  0.29268720911E+03  0.26191890357E+04  0.26952183520E+04  0.15294330000E+03 0.  0.
    8880022    1    1    2    0    0  0.54313286133E+03 -0.29268720911E+03  0.41467087670E+03  0.75894841487E+03  0.15294330000E+03 0.  0.
<mgrwt>
<rscale>  0 0.63564987E+03</rscale>
<asrwt>0</asrwt>
<pdfrwt beam="1">  1        2 0.49907900E+00 0.63564987E+03</pdfrwt>
<pdfrwt beam="2">  1       -2 0.32331295E-01 0.63564987E+03</pdfrwt>
<totfact> 0.11831644E+01</totfact>
</mgrwt>
</event>
<event>
 4    1  0.4840632E-008  0.1463391E+04  0.7818608E-02  0.8909169E-01
         -2   -1    0    0    0  501 -0.00000000000E+00  0.00000000000E+00  0.76954449873E+03  0.76954449874E+03  0.25500000000E-02 0.  1.
          2   -1    0    0  501    0  0.00000000000E+00 -0.00000000000E+00 -0.33127726724E+04  0.33127726724E+04  0.25500000000E-02 0. -1.
    8880022    1    1    2    0    0 -0.10668934717E+04 -0.98987832363E+03 -0.20879988512E+04  0.25497552100E+04  0.15294330000E+03 0.  0.
    8880022    1    1    2    0    0  0.10668934717E+04  0.98987832363E+03 -0.45522932244E+03  0.15325619611E+04  0.15294330000E+03 0.  0.
<mgrwt>
<rscale>  0 0.14633907E+04</rscale>
<asrwt>0</asrwt>
<pdfrwt beam="1">  1        2 0.50965733E+00 0.14633907E+04</pdfrwt>
<pdfrwt beam="2">  1       -2 0.11839146E+00 0.14633907E+04</pdfrwt>
<totfact> 0.57581035E-01</totfact>
</mgrwt>
</event>
<event>
 4    1  0.4840632E-008  0.9352302E+03  0.7818608E-02  0.9382583E-01
          2   -1    0    0  501    0  0.00000000000E+00  0.00000000000E+00  0.11907173048E+04  0.11907173048E+04  0.25500000000E-02 0. -1.
         -2   -1    0    0    0  501 -0.00000000000E+00 -0.00000000000E+00 -0.13224299886E+04  0.13224299886E+04  0.25500000000E-02 0.  1.
    8880022    1    1    2    0    0 -0.20480409501E+03 -0.89962163572E+03  0.77194601767E+03  0.12126648803E+04  0.15294330000E+03 0.  0.
    8880022    1    1    2    0    0  0.20480409501E+03  0.89962163572E+03 -0.90365870147E+03  0.13004824130E+04  0.15294330000E+03 0.  0.
<mgrwt>
<rscale>  0 0.93523016E+03</rscale>
<asrwt>0</asrwt>
<pdfrwt beam="1">  1        2 0.18318728E+00 0.93523016E+03</pdfrwt>
<pdfrwt beam="2">  1       -2 0.20345077E+00 0.93523016E+03</pdfrwt>
<totfact> 0.24234303E+00</totfact>
</mgrwt>
</event>
<event>
 4    1  0.4840632E-008  0.7000592E+03  0.7818608E-02  0.9717131E-01
         -2   -1    0    0    0  501 -0.00000000000E+00  0.00000000000E+00  0.13590423128E+04  0.13590423128E+04  0.25500000000E-02 0.  1.
          2   -1    0    0  501    0  0.00000000000E+00 -0.00000000000E+00 -0.12335807830E+04  0.12335807830E+04  0.25500000000E-02 0. -1.
    8880022    1    1    2    0    0 -0.47368056272E+03  0.49225805361E+03 -0.10277692851E+04  0.12435403585E+04  0.15294330000E+03 0.  0.
    8880022    1    1    2    0    0  0.47368056272E+03 -0.49225805361E+03  0.11532308148E+04  0.13490827373E+04  0.15294330000E+03 0.  0.
<mgrwt>
<rscale>  0 0.70005923E+03</rscale>
<asrwt>0</asrwt>
<pdfrwt beam="1">  1        2 0.18978166E+00 0.70005923E+03</pdfrwt>
<pdfrwt beam="2">  1       -2 0.20908343E+00 0.70005923E+03</pdfrwt>
<totfact> 0.21794404E+00</totfact>
</mgrwt>
</event>
<event>
 4    1  0.4840632E-008  0.2505308E+03  0.7818608E-02  0.1112970E+00
         -2   -1    0    0    0  501 -0.00000000000E+00  0.00000000000E+00  0.13515743717E+03  0.13515743719E+03  0.25500000000E-02 0.  1.
          2   -1    0    0  501    0  0.00000000000E+00 -0.00000000000E+00 -0.11123643317E+04  0.11123643317E+04  0.25500000000E-02 0. -1.
    8880022    1    1    2    0    0  0.19319760900E+03  0.45262912413E+02 -0.12530323688E+02  0.25084399413E+03  0.15294330000E+03 0.  1.
    8880022    1    1    2    0    0 -0.19319760900E+03 -0.45262912413E+02 -0.96467657083E+03  0.99667777475E+03  0.15294330000E+03 0.  0.
<mgrwt>
<rscale>  0 0.25053084E+03</rscale>
<asrwt>0</asrwt>
<pdfrwt beam="1">  1        2 0.17113297E+00 0.25053084E+03</pdfrwt>
<pdfrwt beam="2">  1       -2 0.20793453E-01 0.25053084E+03</pdfrwt>
<totfact> 0.44498924E+02</totfact>
</mgrwt>
</event>
<event>
 4    1  0.4840632E-008  0.4892562E+03  0.7818608E-02  0.1016622E+00
          2   -1    0    0  501    0  0.00000000000E+00  0.00000000000E+00  0.14253360938E+04  0.14253360938E+04  0.25500000000E-02 0. -1.
         -2   -1    0    0    0  501 -0.00000000000E+00 -0.00000000000E+00 -0.40623281607E+03  0.40623281608E+03  0.25500000000E-02 0.  1.
    8880022    1    1    2    0    0 -0.46124686118E+03 -0.56844304450E+02 -0.19184038688E+03  0.52552291001E+03  0.15294330000E+03 0.  0.
    8880022    1    1    2    0    0  0.46124686118E+03  0.56844304450E+02  0.12109436646E+04  0.13060459998E+04  0.15294330000E+03 0.  0.
<mgrwt>
<rscale>  0 0.48925616E+03</rscale>
<asrwt>0</asrwt>
<pdfrwt beam="1">  1        2 0.21928247E+00 0.48925616E+03</pdfrwt>
<pdfrwt beam="2">  1       -2 0.62497357E-01 0.48925616E+03</pdfrwt>
<totfact> 0.35180764E+01</totfact>
</mgrwt>
</event>
<event>
 4    1  0.4840632E-008  0.4801421E+03  0.7818608E-02  0.1019096E+00
          2   -1    0    0  501    0  0.00000000000E+00  0.00000000000E+00  0.38264328498E+03  0.38264328499E+03  0.25500000000E-02 0. -1.
         -2   -1    0    0    0  501 -0.00000000000E+00 -0.00000000000E+00 -0.91424357532E+03  0.91424357532E+03  0.25500000000E-02 0.  1.
    8880022    1    1    2    0    0  0.39530015634E+03  0.22557173931E+03 -0.64446151480E+03  0.80365858438E+03  0.15294330000E+03 0.  0.
    8880022    1    1    2    0    0 -0.39530015634E+03 -0.22557173931E+03  0.11286122446E+03  0.49322827594E+03  0.15294330000E+03 0.  0.
<mgrwt>
<rscale>  0 0.48014214E+03</rscale>
<asrwt>0</asrwt>
<pdfrwt beam="1">  1        2 0.58868198E-01 0.48014214E+03</pdfrwt>
<pdfrwt beam="2">  1       -2 0.14065286E+00 0.48014214E+03</pdfrwt>
<totfact> 0.30761414E+01</totfact>
</mgrwt>
</event>
<event>
 4    1  0.4840632E-008  0.6986849E+03  0.7818608E-02  0.9719484E-01
          2   -1    0    0  501    0  0.00000000000E+00  0.00000000000E+00  0.59457028802E+03  0.59457028803E+03  0.25500000000E-02 0. -1.
         -2   -1    0    0    0  501 -0.00000000000E+00 -0.00000000000E+00 -0.11694293822E+04  0.11694293822E+04  0.25500000000E-02 0.  1.
    8880022    1    1    2    0    0 -0.55692485815E+03 -0.39319672896E+03  0.19398542069E+03  0.72511444734E+03  0.15294330000E+03 0.  0.
    8880022    1    1    2    0    0  0.55692485815E+03  0.39319672896E+03 -0.76884451486E+03  0.10388852229E+04  0.15294330000E+03 0.  0.
<mgrwt>
<rscale>  0 0.69868492E+03</rscale>
<asrwt>0</asrwt>
<pdfrwt beam="1">  1        2 0.91472352E-01 0.69868492E+03</pdfrwt>
<pdfrwt beam="2">  1       -2 0.17991221E+00 0.69868492E+03</pdfrwt>
<totfact> 0.93169905E+00</totfact>
</mgrwt>
</event>
<event>
 4    1  0.4840632E-008  0.1063394E+04  0.7818608E-02  0.9241624E-01
          2   -1    0    0  501    0  0.00000000000E+00  0.00000000000E+00  0.15293849676E+04  0.15293849676E+04  0.25500000000E-02 0. -1.
         -2   -1    0    0    0  501 -0.00000000000E+00 -0.00000000000E+00 -0.10470917187E+04  0.10470917187E+04  0.25500000000E-02 0.  1.
    8880022    1    1    2    0    0 -0.10078326001E+03 -0.10475010187E+04  0.93949313089E+03  0.14189625244E+04  0.15294330000E+03 0.  0.
    8880022    1    1    2    0    0  0.10078326001E+03  0.10475010187E+04 -0.45719988193E+03  0.11575141618E+04  0.15294330000E+03 0.  0.
<mgrwt>
<rscale>  0 0.10633942E+04</rscale>
<asrwt>0</asrwt>
<pdfrwt beam="1">  1        2 0.23528999E+00 0.10633942E+04</pdfrwt>
<pdfrwt beam="2">  1       -2 0.16109103E+00 0.10633942E+04</pdfrwt>
<totfact> 0.29770627E+00</totfact>
</mgrwt>
</event>
<event>
 4    1  0.4840632E-008  0.7427074E+03  0.7818608E-02  0.9646861E-01
          2   -1    0    0  501    0  0.00000000000E+00  0.00000000000E+00  0.80269057728E+03  0.80269057729E+03  0.25500000000E-02 0. -1.
         -2   -1    0    0    0  501 -0.00000000000E+00 -0.00000000000E+00 -0.23266447152E+04  0.23266447152E+04  0.25500000000E-02 0.  1.
    8880022    1    1    2    0    0  0.69498053785E+02 -0.72345880962E+03 -0.20753999502E+04  0.22042910958E+04  0.15294330000E+03 0.  0.
    8880022    1    1    2    0    0 -0.69498053785E+02  0.72345880962E+03  0.55144581237E+03  0.92504419661E+03  0.15294330000E+03 0.  0.
<mgrwt>
<rscale>  0 0.74270740E+03</rscale>
<asrwt>0</asrwt>
<pdfrwt beam="1">  1        2 0.12349086E+00 0.74270740E+03</pdfrwt>
<pdfrwt beam="2">  1       -2 0.35794534E+00 0.74270740E+03</pdfrwt>
<totfact> 0.50377666E-01</totfact>
</mgrwt>
</event>
<event>
 4    1  0.4840632E-008  0.7383115E+03  0.7818608E-02  0.9653868E-01
         -2   -1    0    0    0  501 -0.00000000000E+00  0.00000000000E+00  0.30094366797E+03  0.30094366798E+03  0.25500000000E-02 0.  1.
          2   -1    0    0  501    0  0.00000000000E+00 -0.00000000000E+00 -0.24077255840E+04  0.24077255840E+04  0.25500000000E-02 0. -1.
    8880022    1    1    2    0    0  0.45050323524E+02  0.72089021064E+03 -0.17274454974E+04  0.18786090138E+04  0.15294330000E+03 0.  0.
    8880022    1    1    2    0    0 -0.45050323524E+02 -0.72089021064E+03 -0.37933641868E+03  0.83006023818E+03  0.15294330000E+03 0.  0.
<mgrwt>
<rscale>  0 0.73831151E+03</rscale>
<asrwt>0</asrwt>
<pdfrwt beam="1">  1        2 0.37041931E+00 0.73831151E+03</pdfrwt>
<pdfrwt beam="2">  1       -2 0.46299027E-01 0.73831151E+03</pdfrwt>
<totfact> 0.18202050E+01</totfact>
</mgrwt>
</event>
<event>
 4    1  0.4840632E-008  0.2127148E+03  0.7818608E-02  0.1139434E+00
         -2   -1    0    0    0  501 -0.00000000000E+00  0.00000000000E+00  0.56074887710E+02  0.56074887768E+02  0.25500000000E-02 0.  1.
          2   -1    0    0  501    0  0.00000000000E+00 -0.00000000000E+00 -0.12308750780E+04  0.12308750780E+04  0.25500000000E-02 0. -1.
    8880022    1    1    2    0    0 -0.69363795318E+02  0.13055502128E+03 -0.20975160184E+03  0.29873623344E+03  0.15294330000E+03 0.  1.
    8880022    1    1    2    0    0  0.69363795318E+02 -0.13055502128E+03 -0.96504858841E+03  0.98821373229E+03  0.15294330000E+03 0. -1.
<mgrwt>
<rscale>  0 0.21271484E+03</rscale>
<asrwt>0</asrwt>
<pdfrwt beam="1">  1        2 0.18936538E+00 0.21271484E+03</pdfrwt>
<pdfrwt beam="2">  1       -2 0.86269068E-02 0.21271484E+03</pdfrwt>
<totfact> 0.16128470E+03</totfact>
</mgrwt>
</event>
<event>
 4    1  0.4840632E-008  0.3410978E+03  0.7818608E-02  0.1066329E+00
          2   -1    0    0  501    0  0.00000000000E+00  0.00000000000E+00  0.21837939344E+03  0.21837939346E+03  0.25500000000E-02 0. -1.
         -2   -1    0    0    0  501 -0.00000000000E+00 -0.00000000000E+00 -0.72481615065E+03  0.72481615066E+03  0.25500000000E-02 0.  1.
    8880022    1    1    2    0    0 -0.30474094063E+03 -0.94355315628E+01 -0.10472625690E+02  0.34125855162E+03  0.15294330000E+03 0.  0.
    8880022    1    1    2    0    0  0.30474094063E+03  0.94355315628E+01 -0.49596413152E+03  0.60193699249E+03  0.15294330000E+03 0.  0.
<mgrwt>
<rscale>  0 0.34109782E+03</rscale>
<asrwt>0</asrwt>
<pdfrwt beam="1">  1        2 0.33596830E-01 0.34109782E+03</pdfrwt>
<pdfrwt beam="2">  1       -2 0.11151018E+00 0.34109782E+03</pdfrwt>
<totfact> 0.10270625E+02</totfact>
</mgrwt>
</event>
<event>
 4    1  0.4840632E-008  0.6993623E+03  0.7818608E-02  0.9718323E-01
         -2   -1    0    0    0  501 -0.00000000000E+00  0.00000000000E+00  0.42999185789E+03  0.42999185790E+03  0.25500000000E-02 0.  1.
          2   -1    0    0  501    0  0.00000000000E+00 -0.00000000000E+00 -0.16208815099E+04  0.16208815099E+04  0.25500000000E-02 0. -1.
    8880022    1    1    2    0    0 -0.56975212183E+03 -0.37563084862E+03 -0.11554430687E+04  0.13506133247E+04  0.15294330000E+03 0.  0.
    8880022    1    1    2    0    0  0.56975212183E+03  0.37563084862E+03 -0.35446583331E+02  0.70026004316E+03  0.15294330000E+03 0.  0.
<mgrwt>
<rscale>  0 0.69936233E+03</rscale>
<asrwt>0</asrwt>
<pdfrwt beam="1">  1        2 0.24936638E+00 0.69936233E+03</pdfrwt>
<pdfrwt beam="2">  1       -2 0.66152594E-01 0.69936233E+03</pdfrwt>
<totfact> 0.23561970E+01</totfact>
</mgrwt>
</event>
<event>
 4    1  0.4840632E-008  0.1747774E+03  0.7818608E-02  0.1172955E+00
          2   -1    0    0  501    0  0.00000000000E+00  0.00000000000E+00  0.98064762422E+03  0.98064762422E+03  0.25500000000E-02 0. -1.
         -2   -1    0    0    0  501 -0.00000000000E+00 -0.00000000000E+00 -0.53556551233E+03  0.53556551234E+03  0.25500000000E-02 0.  1.
    8880022    1    1    2    0    0 -0.59046984077E+02 -0.60571894386E+02 -0.51318846719E+03  0.54213426067E+03  0.15294330000E+03 0.  1.
    8880022    1    1    2    0    0  0.59046984077E+02  0.60571894386E+02  0.95827057908E+03  0.97407887589E+03  0.15294330000E+03 0.  0.
<mgrwt>
<rscale>  0 0.17477744E+03</rscale>
<asrwt>0</asrwt>
<pdfrwt beam="1">  1        2 0.15086887E+00 0.17477744E+03</pdfrwt>
<pdfrwt beam="2">  1       -2 0.82394694E-01 0.17477744E+03</pdfrwt>
<totfact> 0.37708032E+01</totfact>
</mgrwt>
</event>
<event>
 4    1  0.4840632E-008  0.3703202E+03  0.7818608E-02  0.1054571E+00
         -2   -1    0    0    0  501 -0.00000000000E+00  0.00000000000E+00  0.20835531232E+03  0.20835531233E+03  0.25500000000E-02 0.  1.
          2   -1    0    0  501    0  0.00000000000E+00 -0.00000000000E+00 -0.76544463438E+03  0.76544463438E+03  0.25500000000E-02 0. -1.
    8880022    1    1    2    0    0  0.27646168318E+03  0.19316924742E+03 -0.96283597187E+02  0.38263246663E+03  0.15294330000E+03 0.  0.
    8880022    1    1    2    0    0 -0.27646168318E+03 -0.19316924742E+03 -0.46080572488E+03  0.59116748009E+03  0.15294330000E+03 0.  0.
<mgrwt>
<rscale>  0 0.37032023E+03</rscale>
<asrwt>0</asrwt>
<pdfrwt beam="1">  1        2 0.11776071E+00 0.37032023E+03</pdfrwt>
<pdfrwt beam="2">  1       -2 0.32054664E-01 0.37032023E+03</pdfrwt>
<totfact> 0.33952351E+02</totfact>
</mgrwt>
</event>
<event>
 4    1  0.4964176E-008  0.1164335E+04  0.7818608E-02  0.9144660E-01
          2   -1    0    0  501    0  0.00000000000E+00  0.00000000000E+00  0.23748445570E+04  0.23748445570E+04  0.25500000000E-02 0. -1.
         -2   -1    0    0    0  501 -0.00000000000E+00 -0.00000000000E+00 -0.15783760768E+04  0.15783760768E+04  0.25500000000E-02 0.  1.
    8880022    1    1    2    0    0 -0.82029470822E+03 -0.81203517088E+03  0.19774603244E+04  0.22947822369E+04  0.15294330000E+03 0.  0.
    8880022    1    1    2    0    0  0.82029470822E+03  0.81203517088E+03 -0.11809918443E+04  0.16584383969E+04  0.15294330000E+03 0.  0.
<mgrwt>
<rscale>  0 0.11643351E+04</rscale>
<asrwt>0</asrwt>
<pdfrwt beam="1">  1        2 0.36536070E+00 0.11643351E+04</pdfrwt>
<pdfrwt beam="2">  1       -2 0.24282709E+00 0.11643351E+04</pdfrwt>
<totfact> 0.28682888E-01</totfact>
</mgrwt>
</event>
<event>
 4    1  0.4840632E-008  0.8510226E+03  0.7818608E-02  0.9488966E-01
          2   -1    0    0  501    0  0.00000000000E+00  0.00000000000E+00  0.53654815876E+03  0.53654815877E+03  0.25500000000E-02 0. -1.
         -2   -1    0    0    0  501 -0.00000000000E+00 -0.00000000000E+00 -0.23585841501E+04  0.23585841501E+04  0.25500000000E-02 0.  1.
    8880022    1    1    2    0    0 -0.66293902301E+03  0.51123342552E+03 -0.18577109931E+04  0.20433623150E+04  0.15294330000E+03 0.  1.
    8880022    1    1    2    0    0  0.66293902301E+03 -0.51123342552E+03  0.35675001785E+02  0.85176999382E+03  0.15294330000E+03 0.  0.
<mgrwt>
<rscale>  0 0.85102257E+03</rscale>
<asrwt>0</asrwt>
<pdfrwt beam="1">  1        2 0.82545872E-01 0.85102257E+03</pdfrwt>
<pdfrwt beam="2">  1       -2 0.36285909E+00 0.85102257E+03</pdfrwt>
<totfact> 0.75940659E-01</totfact>
</mgrwt>
</event>
<event>
 4    1  0.4840632E-008  0.4534312E+03  0.7818608E-02  0.1026704E+00
          2   -1    0    0  501    0  0.00000000000E+00  0.00000000000E+00  0.50683579364E+03  0.50683579365E+03  0.25500000000E-02 0. -1.
         -2   -1    0    0    0  501 -0.00000000000E+00 -0.00000000000E+00 -0.17377144958E+04  0.17377144958E+04  0.25500000000E-02 0.  1.
    8880022    1    1    2    0    0  0.42024623902E+03 -0.74841844699E+02 -0.15980289049E+04  0.16611129514E+04  0.15294330000E+03 0.  0.
    8880022    1    1    2    0    0 -0.42024623902E+03  0.74841844699E+02  0.36715020275E+03  0.58343733812E+03  0.15294330000E+03 0. -1.
<mgrwt>
<rscale>  0 0.45343120E+03</rscale>
<asrwt>0</asrwt>
<pdfrwt beam="1">  1        2 0.77974738E-01 0.45343120E+03</pdfrwt>
<pdfrwt beam="2">  1       -2 0.26734069E+00 0.45343120E+03</pdfrwt>
<totfact> 0.33270885E+00</totfact>
</mgrwt>
</event>
<event>
 4    1  0.4840632E-008  0.2382228E+03  0.7818608E-02  0.1120982E+00
         -2   -1    0    0    0  501 -0.00000000000E+00  0.00000000000E+00  0.13961601287E+02  0.13961601520E+02  0.25500000000E-02 0.  1.
          2   -1    0    0  501    0  0.00000000000E+00 -0.00000000000E+00 -0.40952189255E+04  0.40952189255E+04  0.25500000000E-02 0. -1.
    8880022    1    1    2    0    0 -0.17567879459E+03  0.49954268305E+02 -0.22179118504E+04  0.22306687556E+04  0.15294330000E+03 0.  0.
    8880022    1    1    2    0    0  0.17567879459E+03 -0.49954268305E+02 -0.18633454737E+04  0.18785117714E+04  0.15294330000E+03 0. -1.
<mgrwt>
<rscale>  0 0.23822284E+03</rscale>
<asrwt>0</asrwt>
<pdfrwt beam="1">  1        2 0.63003272E+00 0.23822284E+03</pdfrwt>
<pdfrwt beam="2">  1       -2 0.21479419E-02 0.23822284E+03</pdfrwt>
<totfact> 0.26564221E+02</totfact>
</mgrwt>
</event>
<event>
 4    1  0.4840632E-008  0.3371079E+03  0.7818608E-02  0.1068034E+00
         -2   -1    0    0    0  501 -0.00000000000E+00  0.00000000000E+00  0.14527979269E+03  0.14527979271E+03  0.25500000000E-02 0.  1.
          2   -1    0    0  501    0  0.00000000000E+00 -0.00000000000E+00 -0.11980250069E+04  0.11980250069E+04  0.25500000000E-02 0. -1.
    8880022    1    1    2    0    0 -0.22794063139E+03  0.19568635429E+03 -0.13068451181E+03  0.36155245171E+03  0.15294330000E+03 0.  0.
    8880022    1    1    2    0    0  0.22794063139E+03 -0.19568635429E+03 -0.92206070243E+03  0.98175234793E+03  0.15294330000E+03 0.  0.
<mgrwt>
<rscale>  0 0.33710790E+03</rscale>
<asrwt>0</asrwt>
<pdfrwt beam="1">  1        2 0.18431153E+00 0.33710790E+03</pdfrwt>
<pdfrwt beam="2">  1       -2 0.22350738E-01 0.33710790E+03</pdfrwt>
<totfact> 0.34667299E+02</totfact>
</mgrwt>
</event>
<event>
 4    1  0.4840632E-008  0.6476185E+03  0.7818608E-02  0.9811258E-01
          2   -1    0    0  501    0  0.00000000000E+00  0.00000000000E+00  0.23795561448E+04  0.23795561448E+04  0.25500000000E-02 0. -1.
         -2   -1    0    0    0  501 -0.00000000000E+00 -0.00000000000E+00 -0.25052369730E+03  0.25052369731E+03  0.25500000000E-02 0.  1.
    8880022    1    1    2    0    0  0.17656454887E+03  0.60402241456E+03  0.17805212648E+04  0.18946413235E+04  0.15294330000E+03 0.  0.
    8880022    1    1    2    0    0 -0.17656454887E+03 -0.60402241456E+03  0.34851118271E+03  0.73543851864E+03  0.15294330000E+03 0.  0.
<mgrwt>
<rscale>  0 0.64761854E+03</rscale>
<asrwt>0</asrwt>
<pdfrwt beam="1">  1        2 0.36608557E+00 0.64761854E+03</pdfrwt>
<pdfrwt beam="2">  1       -2 0.38542107E-01 0.64761854E+03</pdfrwt>
<totfact> 0.27474466E+01</totfact>
</mgrwt>
</event>
<event>
 4    1  0.4840632E-008  0.2786190E+03  0.7818608E-02  0.1096446E+00
         -2   -1    0    0    0  501 -0.00000000000E+00  0.00000000000E+00  0.16011749932E+03  0.16011749934E+03  0.25500000000E-02 0.  1.
          2   -1    0    0  501    0  0.00000000000E+00 -0.00000000000E+00 -0.25316975217E+04  0.25316975217E+04  0.25500000000E-02 0. -1.
    8880022    1    1    2    0    0 -0.10691603213E+03  0.20689582434E+03  0.24403909724E+02  0.27968575917E+03  0.15294330000E+03 0.  0.
    8880022    1    1    2    0    0  0.10691603213E+03 -0.20689582434E+03 -0.23959839321E+04  0.24121292618E+04  0.15294330000E+03 0. -1.
<mgrwt>
<rscale>  0 0.27861905E+03</rscale>
<asrwt>0</asrwt>
<pdfrwt beam="1">  1        2 0.38949190E+00 0.27861905E+03</pdfrwt>
<pdfrwt beam="2">  1       -2 0.24633463E-01 0.27861905E+03</pdfrwt>
<totfact> 0.56575870E+01</totfact>
</mgrwt>
</event>
<event>
 4    1  0.4840632E-008  0.3276396E+03  0.7818608E-02  0.1072186E+00
         -2   -1    0    0    0  501 -0.00000000000E+00  0.00000000000E+00  0.69229429757E+03  0.69229429758E+03  0.25500000000E-02 0.  1.
          2   -1    0    0  501    0  0.00000000000E+00 -0.00000000000E+00 -0.28362609473E+03  0.28362609474E+03  0.25500000000E-02 0. -1.
    8880022    1    1    2    0    0 -0.13131003651E+03 -0.25829001038E+03 -0.12419449496E+03  0.35038832849E+03  0.15294330000E+03 0. -1.
    8880022    1    1    2    0    0  0.13131003651E+03  0.25829001038E+03  0.53286269780E+03  0.62553206383E+03  0.15294330000E+03 0.  1.
<mgrwt>
<rscale>  0 0.32763960E+03</rscale>
<asrwt>0</asrwt>
<pdfrwt beam="1">  1        2 0.43634784E-01 0.32763960E+03</pdfrwt>
<pdfrwt beam="2">  1       -2 0.10650681E+00 0.32763960E+03</pdfrwt>
<totfact> 0.86179875E+01</totfact>
</mgrwt>
</event>
<event>
 4    1  0.4840632E-008  0.8046608E+03  0.7818608E-02  0.9553295E-01
         -2   -1    0    0    0  501 -0.00000000000E+00  0.00000000000E+00  0.49302784973E+03  0.49302784974E+03  0.25500000000E-02 0.  1.
          2   -1    0    0  501    0  0.00000000000E+00 -0.00000000000E+00 -0.31971512951E+04  0.31971512951E+04  0.25500000000E-02 0. -1.
    8880022    1    1    2    0    0  0.50916188350E+03 -0.60402119382E+03 -0.27683854634E+04  0.28829563217E+04  0.15294330000E+03 0.  0.
    8880022    1    1    2    0    0 -0.50916188350E+03  0.60402119382E+03  0.64262017997E+02  0.80722282312E+03  0.15294330000E+03 0.  0.
<mgrwt>
<rscale>  0 0.80466085E+03</rscale>
<asrwt>0</asrwt>
<pdfrwt beam="1">  1        2 0.49186942E+00 0.80466085E+03</pdfrwt>
<pdfrwt beam="2">  1       -2 0.75850440E-01 0.80466085E+03</pdfrwt>
<totfact> 0.21556390E+00</totfact>
</mgrwt>
</event>
<event>
 4    1  0.4840632E-008  0.5199564E+03  0.7818608E-02  0.1008697E+00
         -2   -1    0    0    0  501 -0.00000000000E+00  0.00000000000E+00  0.52304419865E+03  0.52304419865E+03  0.25500000000E-02 0.  1.
          2   -1    0    0  501    0  0.00000000000E+00 -0.00000000000E+00 -0.12357033209E+04  0.12357033209E+04  0.25500000000E-02 0. -1.
    8880022    1    1    2    0    0  0.42833771728E+03 -0.25197179676E+03 -0.10270251067E+04  0.11511451730E+04  0.15294330000E+03 0.  0.
    8880022    1    1    2    0    0 -0.42833771728E+03  0.25197179676E+03  0.31436598445E+03  0.60760234660E+03  0.15294330000E+03 0.  0.
<mgrwt>
<rscale>  0 0.51995638E+03</rscale>
<asrwt>0</asrwt>
<pdfrwt beam="1">  1        2 0.19010820E+00 0.51995638E+03</pdfrwt>
<pdfrwt beam="2">  1       -2 0.80468338E-01 0.51995638E+03</pdfrwt>
<totfact> 0.25845859E+01</totfact>
</mgrwt>
</event>
<event>
 4    1  0.4840632E-008  0.3119497E+03  0.7818608E-02  0.1079415E+00
          2   -1    0    0  501    0  0.00000000000E+00  0.00000000000E+00  0.11084037962E+04  0.11084037962E+04  0.25500000000E-02 0. -1.
         -2   -1    0    0    0  501 -0.00000000000E+00 -0.00000000000E+00 -0.10577051424E+04  0.10577051424E+04  0.25500000000E-02 0.  1.
    8880022    1    1    2    0    0 -0.23284180372E+03 -0.14037674720E+03  0.10624804929E+04  0.11073289428E+04  0.15294330000E+03 0.  0.
    8880022    1    1    2    0    0  0.23284180372E+03  0.14037674720E+03 -0.10117818390E+04  0.10587799958E+04  0.15294330000E+03 0.  1.
<mgrwt>
<rscale>  0 0.31194966E+03</rscale>
<asrwt>0</asrwt>
<pdfrwt beam="1">  1        2 0.17052366E+00 0.31194966E+03</pdfrwt>
<pdfrwt beam="2">  1       -2 0.16272387E+00 0.31194966E+03</pdfrwt>
<totfact> 0.57986086E+00</totfact>
</mgrwt>
</event>
<event>
 4    1  0.4840632E-008  0.3984429E+03  0.7818608E-02  0.1044320E+00
          2   -1    0    0  501    0  0.00000000000E+00  0.00000000000E+00  0.76492897262E+03  0.76492897262E+03  0.25500000000E-02 0. -1.
         -2   -1    0    0    0  501 -0.00000000000E+00 -0.00000000000E+00 -0.78852316012E+03  0.78852316012E+03  0.25500000000E-02 0.  1.
    8880022    1    1    2    0    0 -0.33981848592E+03  0.14102645971E+03 -0.67851294975E+03  0.78685229980E+03  0.15294330000E+03 0.  0.
    8880022    1    1    2    0    0  0.33981848592E+03 -0.14102645971E+03  0.65491876225E+03  0.76659983294E+03  0.15294330000E+03 0.  0.
<mgrwt>
<rscale>  0 0.39844287E+03</rscale>
<asrwt>0</asrwt>
<pdfrwt beam="1">  1        2 0.11768138E+00 0.39844287E+03</pdfrwt>
<pdfrwt beam="2">  1       -2 0.12131126E+00 0.39844287E+03</pdfrwt>
<totfact> 0.20063287E+01</totfact>
</mgrwt>
</event>
<event>
 4    1  0.4840632E-008  0.3738209E+03  0.7818608E-02  0.1053241E+00
          2   -1    0    0  501    0  0.00000000000E+00  0.00000000000E+00  0.13218538200E+04  0.13218538200E+04  0.25500000000E-02 0. -1.
         -2   -1    0    0    0  501 -0.00000000000E+00 -0.00000000000E+00 -0.25643889836E+03  0.25643889838E+03  0.25500000000E-02 0.  1.
    8880022    1    1    2    0    0  0.33221625577E+03  0.77348578780E+02  0.11377057365E+04  0.11975460071E+04  0.15294330000E+03 0. -1.
    8880022    1    1    2    0    0 -0.33221625577E+03 -0.77348578780E+02 -0.72290814845E+02  0.38074671130E+03  0.15294330000E+03 0.  0.
<mgrwt>
<rscale>  0 0.37382094E+03</rscale>
<asrwt>0</asrwt>
<pdfrwt beam="1">  1        2 0.20336212E+00 0.37382094E+03</pdfrwt>
<pdfrwt beam="2">  1       -2 0.39452139E-01 0.37382094E+03</pdfrwt>
<totfact> 0.10360860E+02</totfact>
</mgrwt>
</event>
<event>
 4    1  0.4840632E-008  0.3729279E+03  0.7818608E-02  0.1053579E+00
          2   -1    0    0  501    0  0.00000000000E+00  0.00000000000E+00  0.99712586196E+03  0.99712586197E+03  0.25500000000E-02 0. -1.
         -2   -1    0    0    0  501 -0.00000000000E+00 -0.00000000000E+00 -0.11968314350E+04  0.11968314350E+04  0.25500000000E-02 0.  1.
    8880022    1    1    2    0    0  0.27241414278E+03 -0.20365184681E+03  0.93122675129E+03  0.10031243468E+04  0.15294330000E+03 0.  0.
    8880022    1    1    2    0    0 -0.27241414278E+03  0.20365184681E+03 -0.11309323244E+04  0.11908329502E+04  0.15294330000E+03 0.  0.
<mgrwt>
<rscale>  0 0.37292787E+03</rscale>
<asrwt>0</asrwt>
<pdfrwt beam="1">  1        2 0.15340398E+00 0.37292787E+03</pdfrwt>
<pdfrwt beam="2">  1       -2 0.18412791E+00 0.37292787E+03</pdfrwt>
<totfact> 0.47309663E+00</totfact>
</mgrwt>
</event>
<event>
 4    1  0.4840632E-008  0.7444198E+03  0.7818608E-02  0.9644146E-01
          2   -1    0    0  501    0  0.00000000000E+00  0.00000000000E+00  0.17431683270E+04  0.17431683270E+04  0.25500000000E-02 0. -1.
         -2   -1    0    0    0  501 -0.00000000000E+00 -0.00000000000E+00 -0.69577835423E+03  0.69577835423E+03  0.25500000000E-02 0.  1.
    8880022    1    1    2    0    0  0.67240172495E+03  0.28043742514E+03 -0.37499588944E+03  0.83353632149E+03  0.15294330000E+03 0.  0.
    8880022    1    1    2    0    0 -0.67240172495E+03 -0.28043742514E+03  0.14223858622E+04  0.16054103598E+04  0.15294330000E+03 0.  0.
<mgrwt>
<rscale>  0 0.74441983E+03</rscale>
<asrwt>0</asrwt>
<pdfrwt beam="1">  1        2 0.26817974E+00 0.74441983E+03</pdfrwt>
<pdfrwt beam="2">  1       -2 0.10704283E+00 0.74441983E+03</pdfrwt>
<totfact> 0.67124575E+00</totfact>
</mgrwt>
</event>
<event>
 4    1  0.4840632E-008  0.4648378E+03  0.7818608E-02  0.1023387E+00
          2   -1    0    0  501    0  0.00000000000E+00  0.00000000000E+00  0.17136986851E+04  0.17136986851E+04  0.25500000000E-02 0. -1.
         -2   -1    0    0    0  501 -0.00000000000E+00 -0.00000000000E+00 -0.18560277170E+03  0.18560277172E+03  0.25500000000E-02 0.  1.
    8880022    1    1    2    0    0  0.34889048858E+03  0.26637938317E+03  0.13018094232E+04  0.13823103762E+04  0.15294330000E+03 0.  0.
    8880022    1    1    2    0    0 -0.34889048858E+03 -0.26637938317E+03  0.22628649022E+03  0.51699108065E+03  0.15294330000E+03 0.  1.
<mgrwt>
<rscale>  0 0.46483782E+03</rscale>
<asrwt>0</asrwt>
<pdfrwt beam="1">  1        2 0.26364596E+00 0.46483782E+03</pdfrwt>
<pdfrwt beam="2">  1       -2 0.28554272E-01 0.46483782E+03</pdfrwt>
<totfact> 0.11434294E+02</totfact>
</mgrwt>
</event>
<event>
 4    1  0.4840632E-008  0.3627874E+03  0.7818608E-02  0.1057486E+00
          2   -1    0    0  501    0  0.00000000000E+00  0.00000000000E+00  0.15797618948E+04  0.15797618948E+04  0.25500000000E-02 0. -1.
         -2   -1    0    0    0  501 -0.00000000000E+00 -0.00000000000E+00 -0.46616206291E+03  0.46616206292E+03  0.25500000000E-02 0.  1.
    8880022    1    1    2    0    0  0.12702749447E+03 -0.30345854485E+03  0.14838534519E+04  0.15275587689E+04  0.15294330000E+03 0. -1.
    8880022    1    1    2    0    0 -0.12702749447E+03  0.30345854485E+03 -0.37025362002E+03  0.51836518879E+03  0.15294330000E+03 0.  0.
<mgrwt>
<rscale>  0 0.36278744E+03</rscale>
<asrwt>0</asrwt>
<pdfrwt beam="1">  1        2 0.24304029E+00 0.36278744E+03</pdfrwt>
<pdfrwt beam="2">  1       -2 0.71717240E-01 0.36278744E+03</pdfrwt>
<totfact> 0.22157206E+01</totfact>
</mgrwt>
</event>
<event>
 4    1  0.4840632E-008  0.4699979E+03  0.7818608E-02  0.1021921E+00
         -2   -1    0    0    0  501 -0.00000000000E+00  0.00000000000E+00  0.41367736232E+03  0.41367736233E+03  0.25500000000E-02 0.  1.
          2   -1    0    0  501    0  0.00000000000E+00 -0.00000000000E+00 -0.16401926064E+04  0.16401926064E+04  0.25500000000E-02 0. -1.
    8880022    1    1    2    0    0 -0.42774966045E+03 -0.12056764986E+03  0.23010358043E+03  0.52330262846E+03  0.15294330000E+03 0.  0.
    8880022    1    1    2    0    0  0.42774966045E+03  0.12056764986E+03 -0.14566188245E+04  0.15305673403E+04  0.15294330000E+03 0.  0.
<mgrwt>
<rscale>  0 0.46999785E+03</rscale>
<asrwt>0</asrwt>
<pdfrwt beam="1">  1        2 0.25233732E+00 0.46999785E+03</pdfrwt>
<pdfrwt beam="2">  1       -2 0.63642672E-01 0.46999785E+03</pdfrwt>
<totfact> 0.25923681E+01</totfact>
</mgrwt>
</event>
<event>
 4    1  0.4840632E-008  0.2306775E+03  0.7818608E-02  0.1126164E+00
          2   -1    0    0  501    0  0.00000000000E+00  0.00000000000E+00  0.28075189578E+04  0.28075189578E+04  0.25500000000E-02 0. -1.
         -2   -1    0    0    0  501 -0.00000000000E+00 -0.00000000000E+00 -0.16265702747E+03  0.16265702749E+03  0.25500000000E-02 0.  1.
    8880022    1    1    2    0    0 -0.12796221968E+03 -0.11595741058E+03 -0.73453894536E+02  0.24209002121E+03  0.15294330000E+03 0.  0.
    8880022    1    1    2    0    0  0.12796221968E+03  0.11595741058E+03  0.27183158248E+04  0.27280859641E+04  0.15294330000E+03 0.  0.
<mgrwt>
<rscale>  0 0.23067749E+03</rscale>
<asrwt>0</asrwt>
<pdfrwt beam="1">  1        2 0.43192600E+00 0.23067749E+03</pdfrwt>
<pdfrwt beam="2">  1       -2 0.25024158E-01 0.23067749E+03</pdfrwt>
<totfact> 0.39372233E+01</totfact>
</mgrwt>
</event>
<event>
 4    1  0.4840632E-008  0.1086276E+04  0.7818608E-02  0.9218673E-01
         -2   -1    0    0    0  501 -0.00000000000E+00  0.00000000000E+00  0.20399319213E+04  0.20399319213E+04  0.25500000000E-02 0.  1.
          2   -1    0    0  501    0  0.00000000000E+00 -0.00000000000E+00 -0.10011531931E+04  0.10011531931E+04  0.25500000000E-02 0. -1.
    8880022    1    1    2    0    0  0.81059579044E+03 -0.70677956126E+03  0.15074124761E+04  0.18580330756E+04  0.15294330000E+03 0.  0.
    8880022    1    1    2    0    0 -0.81059579044E+03  0.70677956126E+03 -0.46863374794E+03  0.11830520388E+04  0.15294330000E+03 0.  0.
<mgrwt>
<rscale>  0 0.10862755E+04</rscale>
<asrwt>0</asrwt>
<pdfrwt beam="1">  1        2 0.15402357E+00 0.10862755E+04</pdfrwt>
<pdfrwt beam="2">  1       -2 0.31383568E+00 0.10862755E+04</pdfrwt>
<totfact> 0.65311408E-01</totfact>
</mgrwt>
</event>
<event>
 4    1  0.4840632E-008  0.5558272E+03  0.7818608E-02  0.1000154E+00
          2   -1    0    0  501    0  0.00000000000E+00  0.00000000000E+00  0.41217931230E+03  0.41217931231E+03  0.25500000000E-02 0. -1.
         -2   -1    0    0    0  501 -0.00000000000E+00 -0.00000000000E+00 -0.10204570973E+04  0.10204570973E+04  0.25500000000E-02 0.  1.
    8880022    1    1    2    0    0 -0.22053646476E+03  0.48674001025E+03  0.64948218486E+02  0.55960887588E+03  0.15294330000E+03 0.  0.
    8880022    1    1    2    0    0  0.22053646476E+03 -0.48674001025E+03 -0.67322600345E+03  0.87302753370E+03  0.15294330000E+03 0.  0.
<mgrwt>
<rscale>  0 0.55582715E+03</rscale>
<asrwt>0</asrwt>
<pdfrwt beam="1">  1        2 0.63412202E-01 0.55582715E+03</pdfrwt>
<pdfrwt beam="2">  1       -2 0.15699340E+00 0.55582715E+03</pdfrwt>
<totfact> 0.21050458E+01</totfact>
</mgrwt>
</event>
<event>
 4    1  0.4840632E-008  0.3754822E+03  0.7818608E-02  0.1052616E+00
         -2   -1    0    0    0  501 -0.00000000000E+00  0.00000000000E+00  0.13933025601E+03  0.13933025603E+03  0.25500000000E-02 0.  1.
          2   -1    0    0  501    0  0.00000000000E+00 -0.00000000000E+00 -0.29593308825E+04  0.29593308825E+04  0.25500000000E-02 0. -1.
    8880022    1    1    2    0    0  0.26494766649E+03 -0.21771074582E+03 -0.15316182373E+03  0.40551871977E+03  0.15294330000E+03 0.  1.
    8880022    1    1    2    0    0 -0.26494766649E+03  0.21771074582E+03 -0.26668388028E+04  0.26931424188E+04  0.15294330000E+03 0.  0.
<mgrwt>
<rscale>  0 0.37548221E+03</rscale>
<asrwt>0</asrwt>
<pdfrwt beam="1">  1        2 0.45528163E+00 0.37548221E+03</pdfrwt>
<pdfrwt beam="2">  1       -2 0.21435426E-01 0.37548221E+03</pdfrwt>
<totfact> 0.39824417E+01</totfact>
</mgrwt>
</event>
<event>
 4    1  0.4840632E-008  0.6089513E+03  0.7818608E-02  0.9887007E-01
          2   -1    0    0  501    0  0.00000000000E+00  0.00000000000E+00  0.34816551436E+04  0.34816551436E+04  0.25500000000E-02 0. -1.
         -2   -1    0    0    0  501 -0.00000000000E+00 -0.00000000000E+00 -0.23845312730E+03  0.23845312732E+03  0.25500000000E-02 0.  1.
    8880022    1    1    2    0    0  0.22991213739E+03 -0.54274343961E+03  0.23796484311E+03  0.65379580278E+03  0.15294330000E+03 0.  0.
    8880022    1    1    2    0    0 -0.22991213739E+03  0.54274343961E+03  0.30052371732E+04  0.30663124682E+04  0.15294330000E+03 0.  0.
<mgrwt>
<rscale>  0 0.60895130E+03</rscale>
<asrwt>0</asrwt>
<pdfrwt beam="1">  1        2 0.53563925E+00 0.60895130E+03</pdfrwt>
<pdfrwt beam="2">  1       -2 0.36685097E-01 0.60895130E+03</pdfrwt>
<totfact> 0.65424490E+00</totfact>
</mgrwt>
</event>
<event>
 4    1  0.4840632E-008  0.6864447E+03  0.7818608E-02  0.9740698E-01
         -2   -1    0    0    0  501 -0.00000000000E+00  0.00000000000E+00  0.40976057123E+03  0.40976057124E+03  0.25500000000E-02 0.  1.
          2   -1    0    0  501    0  0.00000000000E+00 -0.00000000000E+00 -0.27781736021E+04  0.27781736021E+04  0.25500000000E-02 0. -1.
    8880022    1    1    2    0    0 -0.54995354976E+03 -0.38126865797E+03 -0.24044766227E+04  0.25005427768E+04  0.15294330000E+03 0.  0.
    8880022    1    1    2    0    0  0.54995354976E+03  0.38126865797E+03  0.36063591775E+02  0.68739139660E+03  0.15294330000E+03 0.  0.
<mgrwt>
<rscale>  0 0.68644472E+03</rscale>
<asrwt>0</asrwt>
<pdfrwt beam="1">  1        2 0.42741131E+00 0.68644472E+03</pdfrwt>
<pdfrwt beam="2">  1       -2 0.63040090E-01 0.68644472E+03</pdfrwt>
<totfact> 0.59538848E+00</totfact>
</mgrwt>
</event>
<event>
 4    1  0.4840632E-008  0.2079577E+03  0.7818608E-02  0.1143194E+00
         -2   -1    0    0    0  501 -0.00000000000E+00  0.00000000000E+00  0.36805270983E+02  0.36805271072E+02  0.25500000000E-02 0.  1.
          2   -1    0    0  501    0  0.00000000000E+00 -0.00000000000E+00 -0.26574225497E+04  0.26574225497E+04  0.25500000000E-02 0. -1.
    8880022    1    1    2    0    0 -0.14090417676E+03  0.88472681907E+00 -0.23164502408E+04  0.23257661406E+04  0.15294330000E+03 0.  0.
    8880022    1    1    2    0    0  0.14090417676E+03 -0.88472681907E+00 -0.30416703795E+03  0.36846168018E+03  0.15294330000E+03 0.  1.
<mgrwt>
<rscale>  0 0.20795774E+03</rscale>
<asrwt>0</asrwt>
<pdfrwt beam="1">  1        2 0.40883409E+00 0.20795774E+03</pdfrwt>
<pdfrwt beam="2">  1       -2 0.56623515E-02 0.20795774E+03</pdfrwt>
<totfact> 0.53930567E+02</totfact>
</mgrwt>
</event>
<event>
 4    1  0.4840632E-008  0.1928540E+03  0.7818608E-02  0.1155912E+00
          2   -1    0    0  501    0  0.00000000000E+00  0.00000000000E+00  0.27218753768E+04  0.27218753768E+04  0.25500000000E-02 0. -1.
         -2   -1    0    0    0  501 -0.00000000000E+00 -0.00000000000E+00 -0.56768323868E+03  0.56768323869E+03  0.25500000000E-02 0.  1.
    8880022    1    1    2    0    0 -0.10315630104E+03 -0.56211954421E+02 -0.54776743303E+03  0.58072525343E+03  0.15294330000E+03 0.  0.
    8880022    1    1    2    0    0  0.10315630104E+03  0.56211954421E+02  0.27019595712E+04  0.27088333621E+04  0.15294330000E+03 0. -1.
<mgrwt>
<rscale>  0 0.19285398E+03</rscale>
<asrwt>0</asrwt>
<pdfrwt beam="1">  1        2 0.41875005E+00 0.19285398E+03</pdfrwt>
<pdfrwt beam="2">  1       -2 0.87335884E-01 0.19285398E+03</pdfrwt>
<totfact> 0.37970561E+00</totfact>
</mgrwt>
</event>
<event>
 4    1  0.4840632E-008  0.6140755E+03  0.7818608E-02  0.9876627E-01
         -2   -1    0    0    0  501 -0.00000000000E+00  0.00000000000E+00  0.60366528635E+03  0.60366528636E+03  0.25500000000E-02 0.  1.
          2   -1    0    0  501    0  0.00000000000E+00 -0.00000000000E+00 -0.12727492080E+04  0.12727492080E+04  0.25500000000E-02 0. -1.
    8880022    1    1    2    0    0  0.20471798321E+03  0.55837947406E+03 -0.10040302623E+04  0.11769305461E+04  0.15294330000E+03 0.  0.
    8880022    1    1    2    0    0 -0.20471798321E+03 -0.55837947406E+03  0.33494634068E+03  0.69948394824E+03  0.15294330000E+03 0.  0.
<mgrwt>
<rscale>  0 0.61407552E+03</rscale>
<asrwt>0</asrwt>
<pdfrwt beam="1">  1        2 0.19580757E+00 0.61407552E+03</pdfrwt>
<pdfrwt beam="2">  1       -2 0.92871582E-01 0.61407552E+03</pdfrwt>
<totfact> 0.17500623E+01</totfact>
</mgrwt>
</event>
<event>
 4    1  0.4840632E-008  0.5265561E+03  0.7818608E-02  0.1007071E+00
          2   -1    0    0  501    0  0.00000000000E+00  0.00000000000E+00  0.13248192432E+04  0.13248192432E+04  0.25500000000E-02 0. -1.
         -2   -1    0    0    0  501 -0.00000000000E+00 -0.00000000000E+00 -0.99314693325E+03  0.99314693325E+03  0.25500000000E-02 0.  1.
    8880022    1    1    2    0    0 -0.49343236474E+03 -0.10195182209E+03 -0.86381677236E+03  0.10116524808E+04  0.15294330000E+03 0.  0.
    8880022    1    1    2    0    0  0.49343236474E+03  0.10195182209E+03  0.11954890824E+04  0.13063136957E+04  0.15294330000E+03 0.  0.
<mgrwt>
<rscale>  0 0.52655610E+03</rscale>
<asrwt>0</asrwt>
<pdfrwt beam="1">  1        2 0.20381835E+00 0.52655610E+03</pdfrwt>
<pdfrwt beam="2">  1       -2 0.15279184E+00 0.52655610E+03</pdfrwt>
<totfact> 0.48566995E+00</totfact>
</mgrwt>
</event>
<event>
 4    1  0.4840632E-008  0.6250018E+03  0.7818608E-02  0.9854851E-01
         -2   -1    0    0    0  501 -0.00000000000E+00  0.00000000000E+00  0.80713381054E+03  0.80713381054E+03  0.25500000000E-02 0.  1.
          2   -1    0    0  501    0  0.00000000000E+00 -0.00000000000E+00 -0.83494547820E+03  0.83494547821E+03  0.25500000000E-02 0. -1.
    8880022    1    1    2    0    0  0.28421028844E+03  0.53521971146E+03 -0.54622785161E+03  0.83005550807E+03  0.15294330000E+03 0.  0.
    8880022    1    1    2    0    0 -0.28421028844E+03 -0.53521971146E+03  0.51841618395E+03  0.81202378068E+03  0.15294330000E+03 0.  0.
<mgrwt>
<rscale>  0 0.62500182E+03</rscale>
<asrwt>0</asrwt>
<pdfrwt beam="1">  1        2 0.12845315E+00 0.62500182E+03</pdfrwt>
<pdfrwt beam="2">  1       -2 0.12417443E+00 0.62500182E+03</pdfrwt>
<totfact> 0.16324592E+01</totfact>
</mgrwt>
</event>
<event>
 4    1  0.4840632E-008  0.8176626E+03  0.7818608E-02  0.9534797E-01
         -2   -1    0    0    0  501 -0.00000000000E+00  0.00000000000E+00  0.50822538873E+03  0.50822538873E+03  0.25500000000E-02 0.  1.
          2   -1    0    0  501    0  0.00000000000E+00 -0.00000000000E+00 -0.25810351211E+04  0.25810351211E+04  0.25500000000E-02 0. -1.
    8880022    1    1    2    0    0 -0.62148492298E+03 -0.50885848663E+03  0.45188794618E+02  0.81891034252E+03  0.15294330000E+03 0.  0.
    8880022    1    1    2    0    0  0.62148492298E+03  0.50885848663E+03 -0.21179985270E+04  0.22703501674E+04  0.15294330000E+03 0.  0.
<mgrwt>
<rscale>  0 0.81766260E+03</rscale>
<asrwt>0</asrwt>
<pdfrwt beam="1">  1        2 0.39708232E+00 0.81766260E+03</pdfrwt>
<pdfrwt beam="2">  1       -2 0.78188523E-01 0.81766260E+03</pdfrwt>
<totfact> 0.47255579E+00</totfact>
</mgrwt>
</event>
<event>
 4    1  0.4840632E-008  0.9328869E+03  0.7818608E-02  0.9385380E-01
          2   -1    0    0  501    0  0.00000000000E+00  0.00000000000E+00  0.45680727818E+03  0.45680727819E+03  0.25500000000E-02 0. -1.
         -2   -1    0    0    0  501 -0.00000000000E+00 -0.00000000000E+00 -0.24260107930E+04  0.24260107930E+04  0.25500000000E-02 0.  1.
    8880022    1    1    2    0    0  0.54214048518E+03  0.74361952873E+03 -0.16524986110E+04  0.18976379058E+04  0.15294330000E+03 0.  0.
    8880022    1    1    2    0    0 -0.54214048518E+03 -0.74361952873E+03 -0.31670490384E+03  0.98518016541E+03  0.15294330000E+03 0.  0.
<mgrwt>
<rscale>  0 0.93288690E+03</rscale>
<asrwt>0</asrwt>
<pdfrwt beam="1">  1        2 0.70278044E-01 0.93288690E+03</pdfrwt>
<pdfrwt beam="2">  1       -2 0.37323242E+00 0.93288690E+03</pdfrwt>
<totfact> 0.77769148E-01</totfact>
</mgrwt>
</event>
<event>
 4    1  0.4840632E-008  0.7456713E+03  0.7818608E-02  0.9642166E-01
         -2   -1    0    0    0  501 -0.00000000000E+00  0.00000000000E+00  0.93655420293E+03  0.93655420294E+03  0.25500000000E-02 0.  1.
          2   -1    0    0  501    0  0.00000000000E+00 -0.00000000000E+00 -0.12049619318E+04  0.12049619318E+04  0.25500000000E-02 0. -1.
    8880022    1    1    2    0    0  0.72867948727E+03  0.40746360349E+02  0.62843834529E+03  0.97517201965E+03  0.15294330000E+03 0.  0.
    8880022    1    1    2    0    0 -0.72867948727E+03 -0.40746360349E+02 -0.89684607412E+03  0.11663441151E+04  0.15294330000E+03 0.  0.
<mgrwt>
<rscale>  0 0.74567132E+03</rscale>
<asrwt>0</asrwt>
<pdfrwt beam="1">  1        2 0.18537876E+00 0.74567132E+03</pdfrwt>
<pdfrwt beam="2">  1       -2 0.14408526E+00 0.74567132E+03</pdfrwt>
<totfact> 0.64027706E+00</totfact>
</mgrwt>
</event>
<event>
 4    1  0.4840632E-008  0.3921576E+03  0.7818608E-02  0.1046530E+00
          2   -1    0    0  501    0  0.00000000000E+00  0.00000000000E+00  0.22542388651E+04  0.22542388651E+04  0.25500000000E-02 0. -1.
         -2   -1    0    0    0  501 -0.00000000000E+00 -0.00000000000E+00 -0.13072644998E+03  0.13072645000E+03  0.25500000000E-02 0.  1.
    8880022    1    1    2    0    0 -0.31380324836E+03 -0.17867131092E+03  0.23718621705E+03  0.45830652472E+03  0.15294330000E+03 0.  0.
    8880022    1    1    2    0    0  0.31380324836E+03  0.17867131092E+03  0.18863261981E+04  0.19266587904E+04  0.15294330000E+03 0.  0.
<mgrwt>
<rscale>  0 0.39215758E+03</rscale>
<asrwt>0</asrwt>
<pdfrwt beam="1">  1        2 0.34680598E+00 0.39215758E+03</pdfrwt>
<pdfrwt beam="2">  1       -2 0.20111761E-01 0.39215758E+03</pdfrwt>
<totfact> 0.11073469E+02</totfact>
</mgrwt>
</event>
<event>
 4    1  0.4840632E-008  0.1712474E+03  0.7818608E-02  0.1176553E+00
          2   -1    0    0  501    0  0.00000000000E+00  0.00000000000E+00  0.72091823455E+03  0.72091823456E+03  0.25500000000E-02 0. -1.
         -2   -1    0    0    0  501 -0.00000000000E+00 -0.00000000000E+00 -0.30177725005E+03  0.30177725006E+03  0.25500000000E-02 0.  1.
    8880022    1    1    2    0    0 -0.62405595321E+02  0.45161527734E+02  0.68520758800E+03  0.70628260178E+03  0.15294330000E+03 0. -1.
    8880022    1    1    2    0    0  0.62405595321E+02 -0.45161527734E+02 -0.26606660349E+03  0.31641288283E+03  0.15294330000E+03 0.  0.
<mgrwt>
<rscale>  0 0.17124741E+03</rscale>
<asrwt>0</asrwt>
<pdfrwt beam="1">  1        2 0.11091050E+00 0.17124741E+03</pdfrwt>
<pdfrwt beam="2">  1       -2 0.46427270E-01 0.17124741E+03</pdfrwt>
<totfact> 0.18478061E+02</totfact>
</mgrwt>
</event>
<event>
 4    1  0.4840632E-008  0.2761271E+03  0.7818608E-02  0.1097823E+00
          2   -1    0    0  501    0  0.00000000000E+00  0.00000000000E+00  0.62177399827E+03  0.62177399827E+03  0.25500000000E-02 0. -1.
         -2   -1    0    0    0  501 -0.00000000000E+00 -0.00000000000E+00 -0.15153851627E+03  0.15153851629E+03  0.25500000000E-02 0.  1.
    8880022    1    1    2    0    0  0.13946247551E+03  0.18276961584E+03  0.40400633538E+03  0.48935394817E+03  0.15294330000E+03 0.  0.
    8880022    1    1    2    0    0 -0.13946247551E+03 -0.18276961584E+03  0.66229146622E+02  0.28395856639E+03  0.15294330000E+03 0.  0.
<mgrwt>
<rscale>  0 0.27612709E+03</rscale>
<asrwt>0</asrwt>
<pdfrwt beam="1">  1        2 0.95657539E-01 0.27612709E+03</pdfrwt>
<pdfrwt beam="2">  1       -2 0.23313618E-01 0.27612709E+03</pdfrwt>
<totfact> 0.78074597E+02</totfact>
</mgrwt>
</event>
<event>
 4    1  0.4840632E-008  0.3646973E+03  0.7818608E-02  0.1056739E+00
          2   -1    0    0  501    0  0.00000000000E+00  0.00000000000E+00  0.13316927825E+04  0.13316927825E+04  0.25500000000E-02 0. -1.
         -2   -1    0    0    0  501 -0.00000000000E+00 -0.00000000000E+00 -0.13817724870E+03  0.13817724872E+03  0.25500000000E-02 0.  1.
    8880022    1    1    2    0    0 -0.16318338265E+03  0.28806884277E+03  0.20982347180E+03  0.42074935161E+03  0.15294330000E+03 0.  0.
    8880022    1    1    2    0    0  0.16318338265E+03 -0.28806884277E+03  0.98369206196E+03  0.10491206796E+04  0.15294330000E+03 0.  0.
<mgrwt>
<rscale>  0 0.36469731E+03</rscale>
<asrwt>0</asrwt>
<pdfrwt beam="1">  1        2 0.20487582E+00 0.36469731E+03</pdfrwt>
<pdfrwt beam="2">  1       -2 0.21258037E-01 0.36469731E+03</pdfrwt>
<totfact> 0.31688162E+02</totfact>
</mgrwt>
</event>
<event>
 4    1  0.4840632E-008  0.1092837E+04  0.7818608E-02  0.9212202E-01
          2   -1    0    0  501    0  0.00000000000E+00  0.00000000000E+00  0.12261972043E+04  0.12261972043E+04  0.25500000000E-02 0. -1.
         -2   -1    0    0    0  501 -0.00000000000E+00 -0.00000000000E+00 -0.12598466380E+04  0.12598466380E+04  0.25500000000E-02 0.  1.
    8880022    1    1    2    0    0  0.51458872302E+03  0.95189242938E+03 -0.60893302765E+03  0.12510363049E+04  0.15294330000E+03 0.  0.
    8880022    1    1    2    0    0 -0.51458872302E+03 -0.95189242938E+03  0.57528359401E+03  0.12350075374E+04  0.15294330000E+03 0.  0.
<mgrwt>
<rscale>  0 0.10928369E+04</rscale>
<asrwt>0</asrwt>
<pdfrwt beam="1">  1        2 0.18864572E+00 0.10928369E+04</pdfrwt>
<pdfrwt beam="2">  1       -2 0.19382256E+00 0.10928369E+04</pdfrwt>
<totfact> 0.26211564E+00</totfact>
</mgrwt>
</event>
<event>
 4    1  0.4840632E-008  0.4372018E+03  0.7818608E-02  0.1031609E+00
          2   -1    0    0  501    0  0.00000000000E+00  0.00000000000E+00  0.21451988950E+04  0.21451988950E+04  0.25500000000E-02 0. -1.
         -2   -1    0    0    0  501 -0.00000000000E+00 -0.00000000000E+00 -0.41592125444E+03  0.41592125445E+03  0.25500000000E-02 0.  1.
    8880022    1    1    2    0    0 -0.31276165623E+03 -0.26445022211E+03 -0.27049484799E+03  0.51411369305E+03  0.15294330000E+03 0.  0.
    8880022    1    1    2    0    0  0.31276165623E+03  0.26445022211E+03  0.19997724885E+04  0.20470064564E+04  0.15294330000E+03 0.  0.
<mgrwt>
<rscale>  0 0.43720181E+03</rscale>
<asrwt>0</asrwt>
<pdfrwt beam="1">  1        2 0.33003060E+00 0.43720181E+03</pdfrwt>
<pdfrwt beam="2">  1       -2 0.63987885E-01 0.43720181E+03</pdfrwt>
<totfact> 0.13829596E+01</totfact>
</mgrwt>
</event>
<event>
 4    1  0.6810520E-008  0.9072767E+03  0.7818608E-02  0.9416531E-01
          2   -1    0    0  501    0  0.00000000000E+00  0.00000000000E+00  0.24353403244E+04  0.24353403244E+04  0.25500000000E-02 0. -1.
         -2   -1    0    0    0  501 -0.00000000000E+00 -0.00000000000E+00 -0.14142355479E+04  0.14142355479E+04  0.25500000000E-02 0.  1.
    8880022    1    1    2    0    0  0.74810282672E+03 -0.49000160864E+03  0.21896470438E+04  0.23701698769E+04  0.15294330000E+03 0.  0.
    8880022    1    1    2    0    0 -0.74810282672E+03  0.49000160864E+03 -0.11685422673E+04  0.14794059954E+04  0.15294330000E+03 0.  0.
<mgrwt>
<rscale>  0 0.90727673E+03</rscale>
<asrwt>0</asrwt>
<pdfrwt beam="1">  1        2 0.37466774E+00 0.90727673E+03</pdfrwt>
<pdfrwt beam="2">  1       -2 0.21757470E+00 0.90727673E+03</pdfrwt>
<totfact> 0.39789807E-01</totfact>
</mgrwt>
</event>
<event>
 4    1  0.4840632E-008  0.9370637E+03  0.7818608E-02  0.9380400E-01
         -2   -1    0    0    0  501 -0.00000000000E+00  0.00000000000E+00  0.11465555876E+04  0.11465555876E+04  0.25500000000E-02 0.  1.
          2   -1    0    0  501    0  0.00000000000E+00 -0.00000000000E+00 -0.16225959814E+04  0.16225959815E+04  0.25500000000E-02 0. -1.
    8880022    1    1    2    0    0  0.71540626418E+03  0.58556854481E+03  0.76807218188E+03  0.12116200614E+04  0.15294330000E+03 0.  0.
    8880022    1    1    2    0    0 -0.71540626418E+03 -0.58556854481E+03 -0.12441125757E+04  0.15575315077E+04  0.15294330000E+03 0.  0.
<mgrwt>
<rscale>  0 0.93706366E+03</rscale>
<asrwt>0</asrwt>
<pdfrwt beam="1">  1        2 0.24963015E+00 0.93706366E+03</pdfrwt>
<pdfrwt beam="2">  1       -2 0.17639317E+00 0.93706366E+03</pdfrwt>
<totfact> 0.20851666E+00</totfact>
</mgrwt>
</event>
<event>
 4    1  0.4840632E-008  0.7318881E+03  0.7818608E-02  0.9664201E-01
          2   -1    0    0  501    0  0.00000000000E+00  0.00000000000E+00  0.94375692111E+03  0.94375692111E+03  0.25500000000E-02 0. -1.
         -2   -1    0    0    0  501 -0.00000000000E+00 -0.00000000000E+00 -0.88788243635E+03  0.88788243635E+03  0.25500000000E-02 0.  1.
    8880022    1    1    2    0    0 -0.71537050437E+03 -0.22661799844E+02  0.57799776985E+03  0.93259937307E+03  0.15294330000E+03 0.  0.
    8880022    1    1    2    0    0  0.71537050437E+03  0.22661799844E+02 -0.52212328509E+03  0.89903998439E+03  0.15294330000E+03 0.  0.
<mgrwt>
<rscale>  0 0.73188808E+03</rscale>
<asrwt>0</asrwt>
<pdfrwt beam="1">  1        2 0.14519337E+00 0.73188808E+03</pdfrwt>
<pdfrwt beam="2">  1       -2 0.13659730E+00 0.73188808E+03</pdfrwt>
<totfact> 0.10692332E+01</totfact>
</mgrwt>
</event>
<event>
 4    1  0.4840632E-008  0.2599965E+03  0.7818608E-02  0.1107145E+00
         -2   -1    0    0    0  501 -0.00000000000E+00  0.00000000000E+00  0.27190148494E+03  0.27190148495E+03  0.25500000000E-02 0.  1.
          2   -1    0    0  501    0  0.00000000000E+00 -0.00000000000E+00 -0.19794001513E+04  0.19794001513E+04  0.25500000000E-02 0. -1.
    8880022    1    1    2    0    0 -0.31164719337E+02 -0.20793094217E+03 -0.19063381640E+04  0.19239863214E+04  0.15294330000E+03 0. -1.
    8880022    1    1    2    0    0  0.31164719337E+02  0.20793094217E+03  0.19883949769E+03  0.32731531480E+03  0.15294330000E+03 0.  0.
<mgrwt>
<rscale>  0 0.25999648E+03</rscale>
<asrwt>0</asrwt>
<pdfrwt beam="1">  1        2 0.30452309E+00 0.25999648E+03</pdfrwt>
<pdfrwt beam="2">  1       -2 0.41830999E-01 0.25999648E+03</pdfrwt>
<totfact> 0.42360916E+01</totfact>
</mgrwt>
</event>
<event>
 4    1  0.4840632E-008  0.2171303E+03  0.7818608E-02  0.1136041E+00
          2   -1    0    0  501    0  0.00000000000E+00  0.00000000000E+00  0.15653317300E+04  0.15653317300E+04  0.25500000000E-02 0. -1.
         -2   -1    0    0    0  501 -0.00000000000E+00 -0.00000000000E+00 -0.12907990149E+03  0.12907990152E+03  0.25500000000E-02 0.  1.
    8880022    1    1    2    0    0  0.10748842177E+03 -0.11045425549E+03  0.14599353895E+04  0.14759935291E+04  0.15294330000E+03 0.  0.
    8880022    1    1    2    0    0 -0.10748842177E+03  0.11045425549E+03 -0.23683561048E+02  0.21841810238E+03  0.15294330000E+03 0.  1.
<mgrwt>
<rscale>  0 0.21713028E+03</rscale>
<asrwt>0</asrwt>
<pdfrwt beam="1">  1        2 0.24082029E+00 0.21713028E+03</pdfrwt>
<pdfrwt beam="2">  1       -2 0.19858445E-01 0.21713028E+03</pdfrwt>
<totfact> 0.27279659E+02</totfact>
</mgrwt>
</event>
<event>
 4    1  0.4840632E-008  0.3134008E+03  0.7818608E-02  0.1078727E+00
         -2   -1    0    0    0  501 -0.00000000000E+00  0.00000000000E+00  0.20058050296E+03  0.20058050298E+03  0.25500000000E-02 0.  1.
          2   -1    0    0  501    0  0.00000000000E+00 -0.00000000000E+00 -0.20035885406E+04  0.20035885406E+04  0.25500000000E-02 0. -1.
    8880022    1    1    2    0    0  0.25133912536E+03 -0.10796794946E+03 -0.18594931396E+04  0.18857186490E+04  0.15294330000E+03 0.  0.
    8880022    1    1    2    0    0 -0.25133912536E+03  0.10796794946E+03  0.56485101944E+02  0.31845039457E+03  0.15294330000E+03 0.  0.
<mgrwt>
<rscale>  0 0.31340084E+03</rscale>
<asrwt>0</asrwt>
<pdfrwt beam="1">  1        2 0.30824438E+00 0.31340084E+03</pdfrwt>
<pdfrwt beam="2">  1       -2 0.30858540E-01 0.31340084E+03</pdfrwt>
<totfact> 0.71703957E+01</totfact>
</mgrwt>
</event>
<event>
 4    1  0.4840632E-008  0.2755686E+03  0.7818608E-02  0.1098134E+00
          2   -1    0    0  501    0  0.00000000000E+00  0.00000000000E+00  0.47494692553E+03  0.47494692553E+03  0.25500000000E-02 0. -1.
         -2   -1    0    0    0  501 -0.00000000000E+00 -0.00000000000E+00 -0.16032889195E+03  0.16032889197E+03  0.25500000000E-02 0.  1.
    8880022    1    1    2    0    0  0.33911084291E+02 -0.22670788129E+03  0.14064279898E+03  0.30938402512E+03  0.15294330000E+03 0.  1.
    8880022    1    1    2    0    0 -0.33911084291E+02  0.22670788129E+03  0.17397523460E+03  0.32589179239E+03  0.15294330000E+03 0. -1.
<mgrwt>
<rscale>  0 0.27556864E+03</rscale>
<asrwt>0</asrwt>
<pdfrwt beam="1">  1        2 0.73068756E-01 0.27556864E+03</pdfrwt>
<pdfrwt beam="2">  1       -2 0.24665984E-01 0.27556864E+03</pdfrwt>
<totfact> 0.96231085E+02</totfact>
</mgrwt>
</event>
<event>
 4    1  0.4840632E-008  0.7440396E+03  0.7818608E-02  0.9644748E-01
          2   -1    0    0  501    0  0.00000000000E+00  0.00000000000E+00  0.31532394115E+04  0.31532394115E+04  0.25500000000E-02 0. -1.
         -2   -1    0    0    0  501 -0.00000000000E+00 -0.00000000000E+00 -0.27015249666E+03  0.27015249667E+03  0.25500000000E-02 0.  1.
    8880022    1    1    2    0    0  0.65095595561E+03  0.32628145222E+03  0.24543852312E+04  0.25646835591E+04  0.15294330000E+03 0.  0.
    8880022    1    1    2    0    0 -0.65095595561E+03 -0.32628145222E+03  0.42870168367E+03  0.85870834909E+03  0.15294330000E+03 0.  0.
<mgrwt>
<rscale>  0 0.74403958E+03</rscale>
<asrwt>0</asrwt>
<pdfrwt beam="1">  1        2 0.48511376E+00 0.74403958E+03</pdfrwt>
<pdfrwt beam="2">  1       -2 0.41561922E-01 0.74403958E+03</pdfrwt>
<totfact> 0.81645790E+00</totfact>
</mgrwt>
</event>
<event>
 4    1  0.4840632E-008  0.2868293E+03  0.7818608E-02  0.1092016E+00
          2   -1    0    0  501    0  0.00000000000E+00  0.00000000000E+00  0.27937597427E+04  0.27937597427E+04  0.25500000000E-02 0. -1.
         -2   -1    0    0    0  501 -0.00000000000E+00 -0.00000000000E+00 -0.41042282622E+03  0.41042282623E+03  0.25500000000E-02 0.  1.
    8880022    1    1    2    0    0 -0.23756436052E+03 -0.49422181308E+02  0.27352144134E+04  0.27502125223E+04  0.15294330000E+03 0. -1.
    8880022    1    1    2    0    0  0.23756436052E+03  0.49422181308E+02 -0.35187749692E+03  0.45397004664E+03  0.15294330000E+03 0.  0.
<mgrwt>
<rscale>  0 0.28682927E+03</rscale>
<asrwt>0</asrwt>
<pdfrwt beam="1">  1        2 0.42980919E+00 0.28682927E+03</pdfrwt>
<pdfrwt beam="2">  1       -2 0.63141973E-01 0.28682927E+03</pdfrwt>
<totfact> 0.65837946E+00</totfact>
</mgrwt>
</event>
<event>
 4    1  0.4840632E-008  0.5078766E+03  0.7818608E-02  0.1011743E+00
         -2   -1    0    0    0  501 -0.00000000000E+00  0.00000000000E+00  0.14104118058E+04  0.14104118058E+04  0.25500000000E-02 0.  1.
          2   -1    0    0  501    0  0.00000000000E+00 -0.00000000000E+00 -0.51727769228E+03  0.51727769229E+03  0.25500000000E-02 0. -1.
    8880022    1    1    2    0    0 -0.15930407200E+03  0.45735021342E+03 -0.32838649661E+03  0.60479446859E+03  0.15294330000E+03 0.  0.
    8880022    1    1    2    0    0  0.15930407200E+03 -0.45735021342E+03  0.12215206101E+04  0.13228950294E+04  0.15294330000E+03 0.  0.
<mgrwt>
<rscale>  0 0.50787662E+03</rscale>
<asrwt>0</asrwt>
<pdfrwt beam="1">  1        2 0.79581184E-01 0.50787662E+03</pdfrwt>
<pdfrwt beam="2">  1       -2 0.21698643E+00 0.50787662E+03</pdfrwt>
<totfact> 0.64741352E+00</totfact>
</mgrwt>
</event>
<event>
 4    1  0.4840632E-008  0.5507538E+03  0.7818608E-02  0.1001320E+00
         -2   -1    0    0    0  501 -0.00000000000E+00  0.00000000000E+00  0.57654761453E+03  0.57654761453E+03  0.25500000000E-02 0.  1.
          2   -1    0    0  501    0  0.00000000000E+00 -0.00000000000E+00 -0.12861490252E+04  0.12861490252E+04  0.25500000000E-02 0. -1.
    8880022    1    1    2    0    0 -0.95682559635E+02  0.52036803881E+03 -0.10707517503E+04  0.12040926093E+04  0.15294330000E+03 0.  0.
    8880022    1    1    2    0    0  0.95682559635E+02 -0.52036803881E+03  0.36115033964E+03  0.65860403041E+03  0.15294330000E+03 0.  0.
<mgrwt>
<rscale>  0 0.55075376E+03</rscale>
<asrwt>0</asrwt>
<pdfrwt beam="1">  1        2 0.19786908E+00 0.55075376E+03</pdfrwt>
<pdfrwt beam="2">  1       -2 0.88699633E-01 0.55075376E+03</pdfrwt>
<totfact> 0.19297724E+01</totfact>
</mgrwt>
</event>
<event>
 4    1  0.4840632E-008  0.3248339E+03  0.7818608E-02  0.1073446E+00
          2   -1    0    0  501    0  0.00000000000E+00  0.00000000000E+00  0.67319243274E+03  0.67319243275E+03  0.25500000000E-02 0. -1.
         -2   -1    0    0    0  501 -0.00000000000E+00 -0.00000000000E+00 -0.42756781342E+03  0.42756781343E+03  0.25500000000E-02 0.  1.
    8880022    1    1    2    0    0  0.19371892960E+03  0.21118336931E+03  0.56084425675E+03  0.64812296094E+03  0.15294330000E+03 0.  0.
    8880022    1    1    2    0    0 -0.19371892960E+03 -0.21118336931E+03 -0.31521963742E+03  0.45263728524E+03  0.15294330000E+03 0.  0.
<mgrwt>
<rscale>  0 0.32483395E+03</rscale>
<asrwt>0</asrwt>
<pdfrwt beam="1">  1        2 0.10356807E+00 0.32483395E+03</pdfrwt>
<pdfrwt beam="2">  1       -2 0.65779664E-01 0.32483395E+03</pdfrwt>
<totfact> 0.96265728E+01</totfact>
</mgrwt>
</event>
<event>
 4    1  0.4840632E-008  0.3562823E+03  0.7818608E-02  0.1060066E+00
         -2   -1    0    0    0  501 -0.00000000000E+00  0.00000000000E+00  0.11157484223E+03  0.11157484226E+03  0.25500000000E-02 0.  1.
          2   -1    0    0  501    0  0.00000000000E+00 -0.00000000000E+00 -0.13498165471E+04  0.13498165471E+04  0.25500000000E-02 0. -1.
    8880022    1    1    2    0    0  0.20847489852E+03 -0.24511964309E+03 -0.90878939423E+03  0.97613279774E+03  0.15294330000E+03 0.  0.
    8880022    1    1    2    0    0 -0.20847489852E+03  0.24511964309E+03 -0.32945231065E+03  0.48525859163E+03  0.15294330000E+03 0.  0.
<mgrwt>
<rscale>  0 0.35628230E+03</rscale>
<asrwt>0</asrwt>
<pdfrwt beam="1">  1        2 0.20766407E+00 0.35628230E+03</pdfrwt>
<pdfrwt beam="2">  1       -2 0.17165361E-01 0.35628230E+03</pdfrwt>
<totfact> 0.44738369E+02</totfact>
</mgrwt>
</event>
<event>
 4    1  0.4840632E-008  0.4099487E+03  0.7818608E-02  0.1040388E+00
          2   -1    0    0  501    0  0.00000000000E+00  0.00000000000E+00  0.24379203056E+04  0.24379203056E+04  0.25500000000E-02 0. -1.
         -2   -1    0    0    0  501 -0.00000000000E+00 -0.00000000000E+00 -0.26889932849E+03  0.26889932850E+03  0.25500000000E-02 0.  1.
    8880022    1    1    2    0    0  0.30408970790E+03  0.22846390077E+03 -0.82596751435E+02  0.41818677737E+03  0.15294330000E+03 0.  0.
    8880022    1    1    2    0    0 -0.30408970790E+03 -0.22846390077E+03  0.22516177286E+04  0.22886328568E+04  0.15294330000E+03 0. -1.
<mgrwt>
<rscale>  0 0.40994873E+03</rscale>
<asrwt>0</asrwt>
<pdfrwt beam="1">  1        2 0.37506465E+00 0.40994873E+03</pdfrwt>
<pdfrwt beam="2">  1       -2 0.41369129E-01 0.40994873E+03</pdfrwt>
<totfact> 0.23392783E+01</totfact>
</mgrwt>
</event>
<event>
 4    1  0.4840632E-008  0.8466158E+03  0.7818608E-02  0.9494890E-01
         -2   -1    0    0    0  501 -0.00000000000E+00  0.00000000000E+00  0.45073204030E+03  0.45073204030E+03  0.25500000000E-02 0.  1.
          2   -1    0    0  501    0  0.00000000000E+00 -0.00000000000E+00 -0.25666738651E+04  0.25666738651E+04  0.25500000000E-02 0. -1.
    8880022    1    1    2    0    0 -0.24895193495E+03  0.79460025100E+03 -0.12740606631E+03  0.85614869243E+03  0.15294330000E+03 0.  0.
    8880022    1    1    2    0    0  0.24895193495E+03 -0.79460025100E+03 -0.19885357585E+04  0.21612572130E+04  0.15294330000E+03 0.  0.
<mgrwt>
<rscale>  0 0.84661578E+03</rscale>
<asrwt>0</asrwt>
<pdfrwt beam="1">  1        2 0.39487289E+00 0.84661578E+03</pdfrwt>
<pdfrwt beam="2">  1       -2 0.69343393E-01 0.84661578E+03</pdfrwt>
<totfact> 0.62506324E+00</totfact>
</mgrwt>
</event>
<event>
 4    1  0.4840632E-008  0.5244472E+03  0.7818608E-02  0.1007588E+00
          2   -1    0    0  501    0  0.00000000000E+00  0.00000000000E+00  0.12375599033E+04  0.12375599033E+04  0.25500000000E-02 0. -1.
         -2   -1    0    0    0  501 -0.00000000000E+00 -0.00000000000E+00 -0.36479905073E+03  0.36479905074E+03  0.25500000000E-02 0.  1.
    8880022    1    1    2    0    0 -0.29756613266E+03 -0.40386585818E+03 -0.64447547448E+02  0.52839225401E+03  0.15294330000E+03 0.  0.
    8880022    1    1    2    0    0  0.29756613266E+03  0.40386585818E+03  0.93720840006E+03  0.10739667001E+04  0.15294330000E+03 0.  0.
<mgrwt>
<rscale>  0 0.52444722E+03</rscale>
<asrwt>0</asrwt>
<pdfrwt beam="1">  1        2 0.19039383E+00 0.52444722E+03</pdfrwt>
<pdfrwt beam="2">  1       -2 0.56122931E-01 0.52444722E+03</pdfrwt>
<totfact> 0.55976046E+01</totfact>
</mgrwt>
</event>
<event>
 4    1  0.4840632E-008  0.1191457E+04  0.7818608E-02  0.9120367E-01
          2   -1    0    0  501    0  0.00000000000E+00  0.00000000000E+00  0.10506301646E+04  0.10506301646E+04  0.25500000000E-02 0. -1.
         -2   -1    0    0    0  501 -0.00000000000E+00 -0.00000000000E+00 -0.14392977268E+04  0.14392977268E+04  0.25500000000E-02 0.  1.
    8880022    1    1    2    0    0  0.85547066750E+03  0.81507516446E+03 -0.50241333579E+03  0.12930539044E+04  0.15294330000E+03 0.  0.
    8880022    1    1    2    0    0 -0.85547066750E+03 -0.81507516446E+03  0.11374577364E+03  0.11968739870E+04  0.15294330000E+03 0.  0.
<mgrwt>
<rscale>  0 0.11914568E+04</rscale>
<asrwt>0</asrwt>
<pdfrwt beam="1">  1        2 0.16163541E+00 0.11914568E+04</pdfrwt>
<pdfrwt beam="2">  1       -2 0.22143042E+00 0.11914568E+04</pdfrwt>
<totfact> 0.22032759E+00</totfact>
</mgrwt>
</event>
<event>
 4    1  0.4840632E-008  0.4869996E+03  0.7818608E-02  0.1017229E+00
          2   -1    0    0  501    0  0.00000000000E+00  0.00000000000E+00  0.10650173187E+04  0.10650173187E+04  0.25500000000E-02 0. -1.
         -2   -1    0    0    0  501 -0.00000000000E+00 -0.00000000000E+00 -0.61346577681E+03  0.61346577682E+03  0.25500000000E-02 0.  1.
    8880022    1    1    2    0    0  0.36755419458E+03  0.28050113199E+03 -0.44404045944E+03  0.65904518330E+03  0.15294330000E+03 0.  0.
    8880022    1    1    2    0    0 -0.36755419458E+03 -0.28050113199E+03  0.89559200131E+03  0.10194379122E+04  0.15294330000E+03 0.  0.
<mgrwt>
<rscale>  0 0.48699961E+03</rscale>
<asrwt>0</asrwt>
<pdfrwt beam="1">  1        2 0.16384882E+00 0.48699961E+03</pdfrwt>
<pdfrwt beam="2">  1       -2 0.94379351E-01 0.48699961E+03</pdfrwt>
<totfact> 0.22816595E+01</totfact>
</mgrwt>
</event>
<event>
 4    1  0.4840632E-008  0.7360246E+03  0.7818608E-02  0.9657534E-01
          2   -1    0    0  501    0  0.00000000000E+00  0.00000000000E+00  0.21065589342E+04  0.21065589342E+04  0.25500000000E-02 0. -1.
         -2   -1    0    0    0  501 -0.00000000000E+00 -0.00000000000E+00 -0.44225765836E+03  0.44225765837E+03  0.25500000000E-02 0.  1.
    8880022    1    1    2    0    0 -0.62090515833E+03 -0.36444120165E+03  0.76973662240E+01  0.73606488000E+03  0.15294330000E+03 0.  0.
    8880022    1    1    2    0    0  0.62090515833E+03  0.36444120165E+03  0.16566039096E+04  0.18127517126E+04  0.15294330000E+03 0.  0.
<mgrwt>
<rscale>  0 0.73602463E+03</rscale>
<asrwt>0</asrwt>
<pdfrwt beam="1">  1        2 0.32408598E+00 0.73602463E+03</pdfrwt>
<pdfrwt beam="2">  1       -2 0.68039642E-01 0.73602463E+03</pdfrwt>
<totfact> 0.11982947E+01</totfact>
</mgrwt>
</event>
<event>
 4    1  0.4840632E-008  0.4899867E+03  0.7818608E-02  0.1016426E+00
          2   -1    0    0  501    0  0.00000000000E+00  0.00000000000E+00  0.21854119745E+04  0.21854119746E+04  0.25500000000E-02 0. -1.
         -2   -1    0    0    0  501 -0.00000000000E+00 -0.00000000000E+00 -0.51674889899E+03  0.51674889900E+03  0.25500000000E-02 0.  1.
    8880022    1    1    2    0    0  0.24674792082E+03  0.39472880001E+03  0.20332231418E+04  0.20914309358E+04  0.15294330000E+03 0.  0.
    8880022    1    1    2    0    0 -0.24674792082E+03 -0.39472880001E+03 -0.36456006620E+03  0.61072993776E+03  0.15294330000E+03 0.  0.
<mgrwt>
<rscale>  0 0.48998675E+03</rscale>
<asrwt>0</asrwt>
<pdfrwt beam="1">  1        2 0.33621723E+00 0.48998675E+03</pdfrwt>
<pdfrwt beam="2">  1       -2 0.79499830E-01 0.48998675E+03</pdfrwt>
<totfact> 0.80882910E+00</totfact>
</mgrwt>
</event>
<event>
 4    1  0.4840632E-008  0.1691196E+03  0.7818608E-02  0.1178769E+00
         -2   -1    0    0    0  501 -0.00000000000E+00  0.00000000000E+00  0.18830516323E+03  0.18830516324E+03  0.25500000000E-02 0.  1.
          2   -1    0    0  501    0  0.00000000000E+00 -0.00000000000E+00 -0.56375035278E+03  0.56375035279E+03  0.25500000000E-02 0. -1.
    8880022    1    1    2    0    0 -0.72110914621E+02  0.31287765988E+01 -0.50912725643E+03  0.53648111757E+03  0.15294330000E+03 0.  0.
    8880022    1    1    2    0    0  0.72110914621E+02 -0.31287765988E+01  0.13368206688E+03  0.21557439846E+03  0.15294330000E+03 0.  0.
<mgrwt>
<rscale>  0 0.16911956E+03</rscale>
<asrwt>0</asrwt>
<pdfrwt beam="1">  1        2 0.86730823E-01 0.16911956E+03</pdfrwt>
<pdfrwt beam="2">  1       -2 0.28970025E-01 0.16911956E+03</pdfrwt>
<totfact> 0.59564424E+02</totfact>
</mgrwt>
</event>
<event>
 4    1  0.4840632E-008  0.7356127E+03  0.7818608E-02  0.9658196E-01
         -2   -1    0    0    0  501 -0.00000000000E+00  0.00000000000E+00  0.67018931869E+03  0.67018931869E+03  0.25500000000E-02 0.  1.
          2   -1    0    0  501    0  0.00000000000E+00 -0.00000000000E+00 -0.10407797950E+04  0.10407797950E+04  0.25500000000E-02 0. -1.
    8880022    1    1    2    0    0 -0.62239850616E+03 -0.36104634970E+03 -0.59037758816E+03  0.94322410736E+03  0.15294330000E+03 0.  0.
    8880022    1    1    2    0    0  0.62239850616E+03  0.36104634970E+03  0.21978711190E+03  0.76774500628E+03  0.15294330000E+03 0.  0.
<mgrwt>
<rscale>  0 0.73561268E+03</rscale>
<asrwt>0</asrwt>
<pdfrwt beam="1">  1        2 0.16011997E+00 0.73561268E+03</pdfrwt>
<pdfrwt beam="2">  1       -2 0.10310605E+00 0.73561268E+03</pdfrwt>
<totfact> 0.18557352E+01</totfact>
</mgrwt>
</event>
<event>
 4    1  0.4840632E-008  0.3765815E+03  0.7818608E-02  0.1052205E+00
         -2   -1    0    0    0  501 -0.00000000000E+00  0.00000000000E+00  0.41351474956E+03  0.41351474957E+03  0.25500000000E-02 0.  1.
          2   -1    0    0  501    0  0.00000000000E+00 -0.00000000000E+00 -0.10592903731E+04  0.10592903731E+04  0.25500000000E-02 0. -1.
    8880022    1    1    2    0    0 -0.33307117406E+03  0.86518962560E+02 -0.92846351135E+03  0.10019271844E+04  0.15294330000E+03 0.  0.
    8880022    1    1    2    0    0  0.33307117406E+03 -0.86518962560E+02  0.28268788779E+03  0.47087793831E+03  0.15294330000E+03 0.  0.
<mgrwt>
<rscale>  0 0.37658145E+03</rscale>
<asrwt>0</asrwt>
<pdfrwt beam="1">  1        2 0.16296775E+00 0.37658145E+03</pdfrwt>
<pdfrwt beam="2">  1       -2 0.63617654E-01 0.37658145E+03</pdfrwt>
<totfact> 0.56130499E+01</totfact>
</mgrwt>
</event>
<event>
 4    1  0.4840632E-008  0.1088361E+04  0.7818608E-02  0.9216611E-01
          2   -1    0    0  501    0  0.00000000000E+00  0.00000000000E+00  0.29046861514E+04  0.29046861514E+04  0.25500000000E-02 0. -1.
         -2   -1    0    0    0  501 -0.00000000000E+00 -0.00000000000E+00 -0.59747365885E+03  0.59747365886E+03  0.25500000000E-02 0.  1.
    8880022    1    1    2    0    0 -0.10140738997E+04  0.36440613969E+03  0.16698436211E+03  0.11010963350E+04  0.15294330000E+03 0.  0.
    8880022    1    1    2    0    0  0.10140738997E+04 -0.36440613969E+03  0.21402281304E+04  0.24010634752E+04  0.15294330000E+03 0.  0.
<mgrwt>
<rscale>  0 0.10883609E+04</rscale>
<asrwt>0</asrwt>
<pdfrwt beam="1">  1        2 0.44687479E+00 0.10883609E+04</pdfrwt>
<pdfrwt beam="2">  1       -2 0.91919024E-01 0.10883609E+04</pdfrwt>
<totfact> 0.20183479E+00</totfact>
</mgrwt>
</event>
<event>
 4    1  0.4840632E-008  0.4940790E+03  0.7818608E-02  0.1015336E+00
         -2   -1    0    0    0  501 -0.00000000000E+00  0.00000000000E+00  0.26957853568E+03  0.26957853569E+03  0.25500000000E-02 0.  1.
          2   -1    0    0  501    0  0.00000000000E+00 -0.00000000000E+00 -0.12617102518E+04  0.12617102518E+04  0.25500000000E-02 0. -1.
    8880022    1    1    2    0    0  0.41694449299E+03 -0.21651723089E+03 -0.89270229845E+02  0.50207892652E+03  0.15294330000E+03 0.  0.
    8880022    1    1    2    0    0 -0.41694449299E+03  0.21651723089E+03 -0.90286148624E+03  0.10292098609E+04  0.15294330000E+03 0.  0.
<mgrwt>
<rscale>  0 0.49407902E+03</rscale>
<asrwt>0</asrwt>
<pdfrwt beam="1">  1        2 0.19410927E+00 0.49407902E+03</pdfrwt>
<pdfrwt beam="2">  1       -2 0.41473622E-01 0.49407902E+03</pdfrwt>
<totfact> 0.99965678E+01</totfact>
</mgrwt>
</event>
<event>
 4    1  0.4840632E-008  0.4986544E+03  0.7818608E-02  0.1014131E+00
          2   -1    0    0  501    0  0.00000000000E+00  0.00000000000E+00  0.38726478736E+03  0.38726478736E+03  0.25500000000E-02 0. -1.
         -2   -1    0    0    0  501 -0.00000000000E+00 -0.00000000000E+00 -0.76169194869E+03  0.76169194870E+03  0.25500000000E-02 0.  1.
    8880022    1    1    2    0    0 -0.36580282909E+03  0.30241166381E+03 -0.41486252628E+03  0.64866562488E+03  0.15294330000E+03 0.  0.
    8880022    1    1    2    0    0  0.36580282909E+03 -0.30241166381E+03  0.40435364943E+02  0.50029111118E+03  0.15294330000E+03 0. -1.
<mgrwt>
<rscale>  0 0.49865437E+03</rscale>
<asrwt>0</asrwt>
<pdfrwt beam="1">  1        2 0.59579198E-01 0.49865437E+03</pdfrwt>
<pdfrwt beam="2">  1       -2 0.11718338E+00 0.49865437E+03</pdfrwt>
<totfact> 0.47871840E+01</totfact>
</mgrwt>
</event>
<event>
 4    1  0.4840632E-008  0.5662794E+03  0.7818608E-02  0.9977946E-01
          2   -1    0    0  501    0  0.00000000000E+00  0.00000000000E+00  0.11815822373E+04  0.11815822373E+04  0.25500000000E-02 0. -1.
         -2   -1    0    0    0  501 -0.00000000000E+00 -0.00000000000E+00 -0.11540346305E+04  0.11540346305E+04  0.25500000000E-02 0.  1.
    8880022    1    1    2    0    0  0.54381867115E+03  0.39267362767E+02 -0.10075290884E+04  0.11557626010E+04  0.15294330000E+03 0.  0.
    8880022    1    1    2    0    0 -0.54381867115E+03 -0.39267362767E+02  0.10350766953E+04  0.11798542668E+04  0.15294330000E+03 0. -1.
<mgrwt>
<rscale>  0 0.56627937E+03</rscale>
<asrwt>0</asrwt>
<pdfrwt beam="1">  1        2 0.18178188E+00 0.56627937E+03</pdfrwt>
<pdfrwt beam="2">  1       -2 0.17754379E+00 0.56627937E+03</pdfrwt>
<totfact> 0.38715777E+00</totfact>
</mgrwt>
</event>
<event>
 4    1  0.4840632E-008  0.8255943E+03  0.7818608E-02  0.9523692E-01
          2   -1    0    0  501    0  0.00000000000E+00  0.00000000000E+00  0.12796200487E+04  0.12796200487E+04  0.25500000000E-02 0. -1.
         -2   -1    0    0    0  501 -0.00000000000E+00 -0.00000000000E+00 -0.60344924435E+03  0.60344924436E+03  0.25500000000E-02 0.  1.
    8880022    1    1    2    0    0 -0.33504199215E+02 -0.81061201442E+03  0.15614210294E+02  0.82574198505E+03  0.15294330000E+03 0.  0.
    8880022    1    1    2    0    0  0.33504199215E+02  0.81061201442E+03  0.66055659403E+03  0.10573273080E+04  0.15294330000E+03 0.  0.
<mgrwt>
<rscale>  0 0.82559434E+03</rscale>
<asrwt>0</asrwt>
<pdfrwt beam="1">  1        2 0.19686462E+00 0.82559434E+03</pdfrwt>
<pdfrwt beam="2">  1       -2 0.92838346E-01 0.82559434E+03</pdfrwt>
<totfact> 0.16907813E+01</totfact>
</mgrwt>
</event>
<event>
 4    1  0.4840632E-008  0.6350444E+03  0.7818608E-02  0.9835254E-01
         -2   -1    0    0    0  501 -0.00000000000E+00  0.00000000000E+00  0.28592637983E+03  0.28592637984E+03  0.25500000000E-02 0.  1.
          2   -1    0    0  501    0  0.00000000000E+00 -0.00000000000E+00 -0.38363480377E+04  0.38363480377E+04  0.25500000000E-02 0. -1.
    8880022    1    1    2    0    0  0.52445780996E+03  0.32378043623E+03 -0.13618705392E+03  0.64948312679E+03  0.15294330000E+03 0.  0.
    8880022    1    1    2    0    0 -0.52445780996E+03 -0.32378043623E+03 -0.34142346040E+04  0.34727912908E+04  0.15294330000E+03 0.  0.
<mgrwt>
<rscale>  0 0.63504442E+03</rscale>
<asrwt>0</asrwt>
<pdfrwt beam="1">  1        2 0.59020735E+00 0.63504442E+03</pdfrwt>
<pdfrwt beam="2">  1       -2 0.43988677E-01 0.63504442E+03</pdfrwt>
<totfact> 0.25584661E+00</totfact>
</mgrwt>
</event>
<event>
 4    1  0.4840632E-008  0.1699487E+04  0.7818608E-02  0.8761657E-01
          2   -1    0    0  501    0  0.00000000000E+00  0.00000000000E+00  0.20888864300E+04  0.20888864300E+04  0.25500000000E-02 0. -1.
         -2   -1    0    0    0  501 -0.00000000000E+00 -0.00000000000E+00 -0.15482899816E+04  0.15482899816E+04  0.25500000000E-02 0.  1.
    8880022    1    1    2    0    0  0.61067857553E+03  0.15785865258E+04 -0.32448032596E+03  0.17301857926E+04  0.15294330000E+03 0.  0.
    8880022    1    1    2    0    0 -0.61067857553E+03 -0.15785865258E+04  0.86507677442E+03  0.19069906189E+04  0.15294330000E+03 0.  0.
<mgrwt>
<rscale>  0 0.16994868E+04</rscale>
<asrwt>0</asrwt>
<pdfrwt beam="1">  1        2 0.32136714E+00 0.16994868E+04</pdfrwt>
<pdfrwt beam="2">  1       -2 0.23819846E+00 0.16994868E+04</pdfrwt>
<totfact> 0.41618306E-01</totfact>
</mgrwt>
</event>
<event>
 4    1  0.4840632E-008  0.2308640E+03  0.7818608E-02  0.1126033E+00
          2   -1    0    0  501    0  0.00000000000E+00  0.00000000000E+00  0.18803990084E+04  0.18803990084E+04  0.25500000000E-02 0. -1.
         -2   -1    0    0    0  501 -0.00000000000E+00 -0.00000000000E+00 -0.42045877189E+02  0.42045877266E+02  0.25500000000E-02 0.  1.
    8880022    1    1    2    0    0 -0.12020473326E+03  0.12432756699E+03  0.37045629455E+03  0.43650434248E+03  0.15294330000E+03 0.  1.
    8880022    1    1    2    0    0  0.12020473326E+03 -0.12432756699E+03  0.14678968367E+04  0.14859405432E+04  0.15294330000E+03 0.  0.
<mgrwt>
<rscale>  0 0.23086397E+03</rscale>
<asrwt>0</asrwt>
<pdfrwt beam="1">  1        2 0.28929207E+00 0.23086397E+03</pdfrwt>
<pdfrwt beam="2">  1       -2 0.64685984E-02 0.23086397E+03</pdfrwt>
<totfact> 0.11365610E+03</totfact>
</mgrwt>
</event>
<event>
 4    1  0.4840632E-008  0.4986633E+03  0.7818608E-02  0.1014128E+00
          2   -1    0    0  501    0  0.00000000000E+00  0.00000000000E+00  0.12281288427E+04  0.12281288427E+04  0.25500000000E-02 0. -1.
         -2   -1    0    0    0  501 -0.00000000000E+00 -0.00000000000E+00 -0.69784681701E+03  0.69784681702E+03  0.25500000000E-02 0.  1.
    8880022    1    1    2    0    0  0.44590489313E+03  0.16261076779E+03  0.10764877645E+04  0.11863772569E+04  0.15294330000E+03 0.  0.
    8880022    1    1    2    0    0 -0.44590489313E+03 -0.16261076779E+03 -0.54620573875E+03  0.73959840290E+03  0.15294330000E+03 0.  0.
<mgrwt>
<rscale>  0 0.49866330E+03</rscale>
<asrwt>0</asrwt>
<pdfrwt beam="1">  1        2 0.18894290E+00 0.49866330E+03</pdfrwt>
<pdfrwt beam="2">  1       -2 0.10736105E+00 0.49866330E+03</pdfrwt>
<totfact> 0.13444068E+01</totfact>
</mgrwt>
</event>
<event>
 4    1  0.4840632E-008  0.4726578E+03  0.7818608E-02  0.1021173E+00
          2   -1    0    0  501    0  0.00000000000E+00  0.00000000000E+00  0.11288252083E+04  0.11288252083E+04  0.25500000000E-02 0. -1.
         -2   -1    0    0    0  501 -0.00000000000E+00 -0.00000000000E+00 -0.40657824948E+03  0.40657824949E+03  0.25500000000E-02 0.  1.
    8880022    1    1    2    0    0 -0.16598910421E+02  0.44692077600E+03 -0.18885923475E+03  0.50899230585E+03  0.15294330000E+03 0.  0.
    8880022    1    1    2    0    0  0.16598910421E+02 -0.44692077600E+03  0.91110619357E+03  0.10264111519E+04  0.15294330000E+03 0.  0.
<mgrwt>
<rscale>  0 0.47265776E+03</rscale>
<asrwt>0</asrwt>
<pdfrwt beam="1">  1        2 0.17366542E+00 0.47265776E+03</pdfrwt>
<pdfrwt beam="2">  1       -2 0.62550500E-01 0.47265776E+03</pdfrwt>
<totfact> 0.52039409E+01</totfact>
</mgrwt>
</event>
<event>
 4    1  0.4840632E-008  0.6754987E+03  0.7818608E-02  0.9760075E-01
          2   -1    0    0  501    0  0.00000000000E+00  0.00000000000E+00  0.17867279518E+04  0.17867279518E+04  0.25500000000E-02 0. -1.
         -2   -1    0    0    0  501 -0.00000000000E+00 -0.00000000000E+00 -0.53504288620E+03  0.53504288620E+03  0.25500000000E-02 0.  1.
    8880022    1    1    2    0    0 -0.28875105123E+03 -0.59121030084E+03  0.14651301205E+04  0.16133520113E+04  0.15294330000E+03 0.  0.
    8880022    1    1    2    0    0  0.28875105123E+03  0.59121030084E+03 -0.21344505496E+03  0.70841882662E+03  0.15294330000E+03 0.  0.
<mgrwt>
<rscale>  0 0.67549866E+03</rscale>
<asrwt>0</asrwt>
<pdfrwt beam="1">  1        2 0.27488122E+00 0.67549866E+03</pdfrwt>
<pdfrwt beam="2">  1       -2 0.82314291E-01 0.67549866E+03</pdfrwt>
<totfact> 0.11851435E+01</totfact>
</mgrwt>
</event>
<event>
 4    1  0.4840632E-008  0.6972109E+03  0.7818608E-02  0.9722014E-01
          2   -1    0    0  501    0  0.00000000000E+00  0.00000000000E+00  0.15670930475E+04  0.15670930475E+04  0.25500000000E-02 0. -1.
         -2   -1    0    0    0  501 -0.00000000000E+00 -0.00000000000E+00 -0.38271405089E+03  0.38271405090E+03  0.25500000000E-02 0.  1.
    8880022    1    1    2    0    0  0.65957438017E+03  0.16635217620E+03  0.16781125322E+03  0.71712180222E+03  0.15294330000E+03 0.  0.
    8880022    1    1    2    0    0 -0.65957438017E+03 -0.16635217620E+03  0.10165677434E+04  0.12326852962E+04  0.15294330000E+03 0.  0.
<mgrwt>
<rscale>  0 0.69721092E+03</rscale>
<asrwt>0</asrwt>
<pdfrwt beam="1">  1        2 0.24109124E+00 0.69721092E+03</pdfrwt>
<pdfrwt beam="2">  1       -2 0.58879085E-01 0.69721092E+03</pdfrwt>
<totfact> 0.32325057E+01</totfact>
</mgrwt>
</event>
<event>
 4    1  0.4840632E-008  0.3159941E+03  0.7818608E-02  0.1077508E+00
         -2   -1    0    0    0  501 -0.00000000000E+00  0.00000000000E+00  0.31226361309E+03  0.31226361310E+03  0.25500000000E-02 0.  1.
          2   -1    0    0  501    0  0.00000000000E+00 -0.00000000000E+00 -0.54113932403E+03  0.54113932404E+03  0.25500000000E-02 0. -1.
    8880022    1    1    2    0    0  0.21297194195E+03  0.17636206457E+03  0.15847821900E+03  0.35350760217E+03  0.15294330000E+03 0.  0.
    8880022    1    1    2    0    0 -0.21297194195E+03 -0.17636206457E+03 -0.38735392993E+03  0.49989533497E+03  0.15294330000E+03 0.  0.
<mgrwt>
<rscale>  0 0.31599411E+03</rscale>
<asrwt>0</asrwt>
<pdfrwt beam="1">  1        2 0.83252204E-01 0.31599411E+03</pdfrwt>
<pdfrwt beam="2">  1       -2 0.48040556E-01 0.31599411E+03</pdfrwt>
<totfact> 0.23789273E+02</totfact>
</mgrwt>
</event>
<event>
 4    1  0.4840632E-008  0.6537011E+03  0.7818608E-02  0.9799859E-01
          2   -1    0    0  501    0  0.00000000000E+00  0.00000000000E+00  0.74007914038E+03  0.74007914038E+03  0.25500000000E-02 0. -1.
         -2   -1    0    0    0  501 -0.00000000000E+00 -0.00000000000E+00 -0.20914932995E+04  0.20914932995E+04  0.25500000000E-02 0.  1.
    8880022    1    1    2    0    0  0.57873234227E+03  0.26268297031E+03 -0.18803132885E+04  0.19907041927E+04  0.15294330000E+03 0.  0.
    8880022    1    1    2    0    0 -0.57873234227E+03 -0.26268297031E+03  0.52889912944E+03  0.84086824712E+03  0.15294330000E+03 0.  0.
<mgrwt>
<rscale>  0 0.65370109E+03</rscale>
<asrwt>0</asrwt>
<pdfrwt beam="1">  1        2 0.11385833E+00 0.65370109E+03</pdfrwt>
<pdfrwt beam="2">  1       -2 0.32176820E+00 0.65370109E+03</pdfrwt>
<totfact> 0.95273124E-01</totfact>
</mgrwt>
</event>
<event>
 4    1  0.4840632E-008  0.5775054E+03  0.7818608E-02  0.9953206E-01
          2   -1    0    0  501    0  0.00000000000E+00  0.00000000000E+00  0.35029169226E+03  0.35029169227E+03  0.25500000000E-02 0. -1.
         -2   -1    0    0    0  501 -0.00000000000E+00 -0.00000000000E+00 -0.19726646915E+04  0.19726646915E+04  0.25500000000E-02 0.  1.
    8880022    1    1    2    0    0 -0.39339829783E+03 -0.39415558703E+03 -0.16466064208E+04  0.17449427513E+04  0.15294330000E+03 0.  1.
    8880022    1    1    2    0    0  0.39339829783E+03  0.39415558703E+03  0.24233421542E+02  0.57801363242E+03  0.15294330000E+03 0.  0.
<mgrwt>
<rscale>  0 0.57750541E+03</rscale>
<asrwt>0</asrwt>
<pdfrwt beam="1">  1        2 0.53891031E-01 0.57750541E+03</pdfrwt>
<pdfrwt beam="2">  1       -2 0.30348687E+00 0.57750541E+03</pdfrwt>
<totfact> 0.29918105E+00</totfact>
</mgrwt>
</event>
<event>
 4    1  0.4840632E-008  0.6605168E+03  0.7818608E-02  0.9787243E-01
          2   -1    0    0  501    0  0.00000000000E+00  0.00000000000E+00  0.38002479653E+04  0.38002479653E+04  0.25500000000E-02 0. -1.
         -2   -1    0    0    0  501 -0.00000000000E+00 -0.00000000000E+00 -0.93441437952E+03  0.93441437952E+03  0.25500000000E-02 0.  1.
    8880022    1    1    2    0    0  0.48970056320E+03  0.41603389379E+03 -0.78422294960E+03  0.10253234271E+04  0.15294330000E+03 0.  0.
    8880022    1    1    2    0    0 -0.48970056320E+03 -0.41603389379E+03  0.36500565354E+04  0.37093389178E+04  0.15294330000E+03 0.  0.
<mgrwt>
<rscale>  0 0.66051684E+03</rscale>
<asrwt>0</asrwt>
<pdfrwt beam="1">  1        2 0.58465354E+00 0.66051684E+03</pdfrwt>
<pdfrwt beam="2">  1       -2 0.14375606E+00 0.66051684E+03</pdfrwt>
<totfact> 0.18681367E-01</totfact>
</mgrwt>
</event>
<event>
 4    1  0.4840632E-008  0.3721243E+03  0.7818608E-02  0.1053884E+00
         -2   -1    0    0    0  501 -0.00000000000E+00  0.00000000000E+00  0.30476270611E+03  0.30476270612E+03  0.25500000000E-02 0.  1.
          2   -1    0    0  501    0  0.00000000000E+00 -0.00000000000E+00 -0.24129047779E+04  0.24129047779E+04  0.25500000000E-02 0. -1.
    8880022    1    1    2    0    0  0.28079784727E+03  0.19036121748E+03 -0.22782963306E+04  0.23084866573E+04  0.15294330000E+03 0. -1.
    8880022    1    1    2    0    0 -0.28079784727E+03 -0.19036121748E+03  0.17015425877E+03  0.40918082671E+03  0.15294330000E+03 0.  0.
<mgrwt>
<rscale>  0 0.37212428E+03</rscale>
<asrwt>0</asrwt>
<pdfrwt beam="1">  1        2 0.37121611E+00 0.37212428E+03</pdfrwt>
<pdfrwt beam="2">  1       -2 0.46886572E-01 0.37212428E+03</pdfrwt>
<totfact> 0.19095589E+01</totfact>
</mgrwt>
</event>
<event>
 4    1  0.4840632E-008  0.1471030E+04  0.7818608E-02  0.8903950E-01
          2   -1    0    0  501    0  0.00000000000E+00  0.00000000000E+00  0.33878510624E+04  0.33878510624E+04  0.25500000000E-02 0. -1.
         -2   -1    0    0    0  501 -0.00000000000E+00 -0.00000000000E+00 -0.11585999540E+04  0.11585999540E+04  0.25500000000E-02 0.  1.
    8880022    1    1    2    0    0 -0.75620757872E+03 -0.12524725949E+04 -0.40810217843E+03  0.15265898415E+04  0.15294330000E+03 0.  0.
    8880022    1    1    2    0    0  0.75620757872E+03  0.12524725949E+04  0.26373532868E+04  0.30198611749E+04  0.15294330000E+03 0.  0.
<mgrwt>
<rscale>  0 0.14710300E+04</rscale>
<asrwt>0</asrwt>
<pdfrwt beam="1">  1        2 0.52120785E+00 0.14710300E+04</pdfrwt>
<pdfrwt beam="2">  1       -2 0.17824615E+00 0.14710300E+04</pdfrwt>
<totfact> 0.17250433E-01</totfact>
</mgrwt>
</event>
<event>
 4    1  0.4840632E-008  0.3405159E+03  0.7818608E-02  0.1066576E+00
          2   -1    0    0  501    0  0.00000000000E+00  0.00000000000E+00  0.30749599881E+04  0.30749599881E+04  0.25500000000E-02 0. -1.
         -2   -1    0    0    0  501 -0.00000000000E+00 -0.00000000000E+00 -0.61738863606E+03  0.61738863607E+03  0.25500000000E-02 0.  1.
    8880022    1    1    2    0    0  0.11859650987E+03 -0.28016829183E+03 -0.56012117800E+03  0.65550498927E+03  0.15294330000E+03 0.  0.
    8880022    1    1    2    0    0 -0.11859650987E+03  0.28016829183E+03  0.30176925301E+04  0.30368436349E+04  0.15294330000E+03 0.  0.
<mgrwt>
<rscale>  0 0.34051587E+03</rscale>
<asrwt>0</asrwt>
<pdfrwt beam="1">  1        2 0.47307078E+00 0.34051587E+03</pdfrwt>
<pdfrwt beam="2">  1       -2 0.94982865E-01 0.34051587E+03</pdfrwt>
<totfact> 0.17792966E+00</totfact>
</mgrwt>
</event>
<event>
 4    1  0.4840632E-008  0.3901410E+03  0.7818608E-02  0.1047248E+00
          2   -1    0    0  501    0  0.00000000000E+00  0.00000000000E+00  0.36272563936E+04  0.36272563936E+04  0.25500000000E-02 0. -1.
         -2   -1    0    0    0  501 -0.00000000000E+00 -0.00000000000E+00 -0.30304592314E+03  0.30304592315E+03  0.25500000000E-02 0.  1.
    8880022    1    1    2    0    0 -0.25018204605E+03  0.25734658276E+03 -0.16192110967E+03  0.42240788179E+03  0.15294330000E+03 0.  0.
    8880022    1    1    2    0    0  0.25018204605E+03 -0.25734658276E+03  0.34861315802E+04  0.35078944350E+04  0.15294330000E+03 0.  1.
<mgrwt>
<rscale>  0 0.39014097E+03</rscale>
<asrwt>0</asrwt>
<pdfrwt beam="1">  1        2 0.55803946E+00 0.39014097E+03</pdfrwt>
<pdfrwt beam="2">  1       -2 0.46622448E-01 0.39014097E+03</pdfrwt>
<totfact> 0.35042906E+00</totfact>
</mgrwt>
</event>
<event>
 4    1  0.4840632E-008  0.1147700E+04  0.7818608E-02  0.9159908E-01
          2   -1    0    0  501    0  0.00000000000E+00  0.00000000000E+00  0.24521044347E+04  0.24521044347E+04  0.25500000000E-02 0. -1.
         -2   -1    0    0    0  501 -0.00000000000E+00 -0.00000000000E+00 -0.10604222022E+04  0.10604222023E+04  0.25500000000E-02 0.  1.
    8880022    1    1    2    0    0  0.79524694333E+03  0.81326838767E+03  0.19295217015E+04  0.22450543024E+04  0.15294330000E+03 0.  0.
    8880022    1    1    2    0    0 -0.79524694333E+03 -0.81326838767E+03 -0.53783946906E+03  0.12674723345E+04  0.15294330000E+03 0.  0.
<mgrwt>
<rscale>  0 0.11476998E+04</rscale>
<asrwt>0</asrwt>
<pdfrwt beam="1">  1        2 0.37724683E+00 0.11476998E+04</pdfrwt>
<pdfrwt beam="2">  1       -2 0.16314188E+00 0.11476998E+04</pdfrwt>
<totfact> 0.87131817E-01</totfact>
</mgrwt>
</event>
<event>
 4    1  0.4840632E-008  0.4079087E+03  0.7818608E-02  0.1041075E+00
          2   -1    0    0  501    0  0.00000000000E+00  0.00000000000E+00  0.13601144225E+04  0.13601144225E+04  0.25500000000E-02 0. -1.
         -2   -1    0    0    0  501 -0.00000000000E+00 -0.00000000000E+00 -0.12549079228E+03  0.12549079230E+03  0.25500000000E-02 0.  1.
    8880022    1    1    2    0    0 -0.15213497869E+03 -0.34619764674E+03  0.73510654717E+03  0.84069682469E+03  0.15294330000E+03 0.  0.
    8880022    1    1    2    0    0  0.15213497869E+03  0.34619764674E+03  0.49951708301E+03  0.64490839007E+03  0.15294330000E+03 0.  0.
<mgrwt>
<rscale>  0 0.40790871E+03</rscale>
<asrwt>0</asrwt>
<pdfrwt beam="1">  1        2 0.20924839E+00 0.40790871E+03</pdfrwt>
<pdfrwt beam="2">  1       -2 0.19306275E-01 0.40790871E+03</pdfrwt>
<totfact> 0.35929569E+02</totfact>
</mgrwt>
</event>
<event>
 4    1  0.4840632E-008  0.9165512E+03  0.7818608E-02  0.9405125E-01
          2   -1    0    0  501    0  0.00000000000E+00  0.00000000000E+00  0.43730934242E+04  0.43730934242E+04  0.25500000000E-02 0. -1.
         -2   -1    0    0    0  501 -0.00000000000E+00 -0.00000000000E+00 -0.42997115825E+03  0.42997115826E+03  0.25500000000E-02 0.  1.
    8880022    1    1    2    0    0 -0.90326981557E+03 -0.27894763847E+02  0.18531735179E+03  0.93509820418E+03  0.15294330000E+03 0.  0.
    8880022    1    1    2    0    0  0.90326981557E+03  0.27894763847E+02  0.37578049142E+04  0.38679663783E+04  0.15294330000E+03 0.  0.
<mgrwt>
<rscale>  0 0.91655122E+03</rscale>
<asrwt>0</asrwt>
<pdfrwt beam="1">  1        2 0.67278362E+00 0.91655122E+03</pdfrwt>
<pdfrwt beam="2">  1       -2 0.66149407E-01 0.91655122E+03</pdfrwt>
<totfact> 0.37227068E-01</totfact>
</mgrwt>
</event>
<event>
 4    1  0.4840632E-008  0.4304757E+03  0.7818608E-02  0.1033710E+00
          2   -1    0    0  501    0  0.00000000000E+00  0.00000000000E+00  0.82194195283E+03  0.82194195284E+03  0.25500000000E-02 0. -1.
         -2   -1    0    0    0  501 -0.00000000000E+00 -0.00000000000E+00 -0.43937754585E+03  0.43937754586E+03  0.25500000000E-02 0.  1.
    8880022    1    1    2    0    0 -0.29507376219E+03  0.27358565476E+03 -0.24877231230E+03  0.49718905057E+03  0.15294330000E+03 0.  0.
    8880022    1    1    2    0    0  0.29507376219E+03 -0.27358565476E+03  0.63133671929E+03  0.76413044813E+03  0.15294330000E+03 0.  0.
<mgrwt>
<rscale>  0 0.43047565E+03</rscale>
<asrwt>0</asrwt>
<pdfrwt beam="1">  1        2 0.12645261E+00 0.43047565E+03</pdfrwt>
<pdfrwt beam="2">  1       -2 0.67596545E-01 0.43047565E+03</pdfrwt>
<totfact> 0.69631490E+01</totfact>
</mgrwt>
</event>
<event>
 4    1  0.4840632E-008  0.4389709E+03  0.7818608E-02  0.1031063E+00
         -2   -1    0    0    0  501 -0.00000000000E+00  0.00000000000E+00  0.24617786956E+03  0.24617786957E+03  0.25500000000E-02 0.  1.
          2   -1    0    0  501    0  0.00000000000E+00 -0.00000000000E+00 -0.25381563583E+04  0.25381563583E+04  0.25500000000E-02 0. -1.
    8880022    1    1    2    0    0  0.24816044588E+03  0.32820751576E+03 -0.23037562417E+04  0.23452053758E+04  0.15294330000E+03 0.  0.
    8880022    1    1    2    0    0 -0.24816044588E+03 -0.32820751576E+03  0.11777752945E+02  0.43912885214E+03  0.15294330000E+03 0.  0.
<mgrwt>
<rscale>  0 0.43897088E+03</rscale>
<asrwt>0</asrwt>
<pdfrwt beam="1">  1        2 0.39048558E+00 0.43897088E+03</pdfrwt>
<pdfrwt beam="2">  1       -2 0.37873520E-01 0.43897088E+03</pdfrwt>
<totfact> 0.24204981E+01</totfact>
</mgrwt>
</event>
<event>
 4    1  0.4840632E-008  0.6155340E+03  0.7818608E-02  0.9873692E-01
          2   -1    0    0  501    0  0.00000000000E+00  0.00000000000E+00  0.32591817781E+04  0.32591817781E+04  0.25500000000E-02 0. -1.
         -2   -1    0    0    0  501 -0.00000000000E+00 -0.00000000000E+00 -0.21570842678E+03  0.21570842679E+03  0.25500000000E-02 0.  1.
    8880022    1    1    2    0    0  0.57331559377E+03 -0.16370613267E+03  0.27015052622E+04  0.27707422837E+04  0.15294330000E+03 0.  0.
    8880022    1    1    2    0    0 -0.57331559377E+03  0.16370613267E+03  0.34196808911E+03  0.70414792119E+03  0.15294330000E+03 0.  0.
<mgrwt>
<rscale>  0 0.61553401E+03</rscale>
<asrwt>0</asrwt>
<pdfrwt beam="1">  1        2 0.50141255E+00 0.61553401E+03</pdfrwt>
<pdfrwt beam="2">  1       -2 0.33185914E-01 0.61553401E+03</pdfrwt>
<totfact> 0.11065781E+01</totfact>
</mgrwt>
</event>
<event>
 4    1  0.4840632E-008  0.3501821E+03  0.7818608E-02  0.1062540E+00
          2   -1    0    0  501    0  0.00000000000E+00  0.00000000000E+00  0.27903749670E+04  0.27903749670E+04  0.25500000000E-02 0. -1.
         -2   -1    0    0    0  501 -0.00000000000E+00 -0.00000000000E+00 -0.26148241932E+03  0.26148241933E+03  0.25500000000E-02 0.  1.
    8880022    1    1    2    0    0 -0.11076212436E+03 -0.29490265978E+03  0.26562512523E+04  0.26792346286E+04  0.15294330000E+03 0.  0.
    8880022    1    1    2    0    0  0.11076212436E+03  0.29490265978E+03 -0.12735870457E+03  0.37262275774E+03  0.15294330000E+03 0.  0.
<mgrwt>
<rscale>  0 0.35018207E+03</rscale>
<asrwt>0</asrwt>
<pdfrwt beam="1">  1        2 0.42928844E+00 0.35018207E+03</pdfrwt>
<pdfrwt beam="2">  1       -2 0.40228066E-01 0.35018207E+03</pdfrwt>
<totfact> 0.15939321E+01</totfact>
</mgrwt>
</event>
<event>
 4    1  0.4840632E-008  0.3588869E+03  0.7818608E-02  0.1059025E+00
          2   -1    0    0  501    0  0.00000000000E+00  0.00000000000E+00  0.18379531627E+04  0.18379531627E+04  0.25500000000E-02 0. -1.
         -2   -1    0    0    0  501 -0.00000000000E+00 -0.00000000000E+00 -0.21989198057E+03  0.21989198059E+03  0.25500000000E-02 0.  1.
    8880022    1    1    2    0    0 -0.10113289173E+03  0.30851303590E+03  0.16583174153E+04  0.16967075346E+04  0.15294330000E+03 0. -1.
    8880022    1    1    2    0    0  0.10113289173E+03 -0.30851303590E+03 -0.40256233129E+02  0.36113760872E+03  0.15294330000E+03 0.  1.
<mgrwt>
<rscale>  0 0.35888690E+03</rscale>
<asrwt>0</asrwt>
<pdfrwt beam="1">  1        2 0.28276201E+00 0.35888690E+03</pdfrwt>
<pdfrwt beam="2">  1       -2 0.33829537E-01 0.35888690E+03</pdfrwt>
<totfact> 0.73174687E+01</totfact>
</mgrwt>
</event>
<event>
 4    1  0.4840632E-008  0.4410144E+03  0.7818608E-02  0.1030436E+00
          2   -1    0    0  501    0  0.00000000000E+00  0.00000000000E+00  0.10846920763E+04  0.10846920763E+04  0.25500000000E-02 0. -1.
         -2   -1    0    0    0  501 -0.00000000000E+00 -0.00000000000E+00 -0.27604274585E+03  0.27604274586E+03  0.25500000000E-02 0.  1.
    8880022    1    1    2    0    0 -0.22861393768E+03 -0.34472841610E+03  0.15638576164E+01  0.44101713349E+03  0.15294330000E+03 0.  1.
    8880022    1    1    2    0    0  0.22861393768E+03  0.34472841610E+03  0.80708547281E+03  0.91971768864E+03  0.15294330000E+03 0.  0.
<mgrwt>
<rscale>  0 0.44101436E+03</rscale>
<asrwt>0</asrwt>
<pdfrwt beam="1">  1        2 0.16687570E+00 0.44101436E+03</pdfrwt>
<pdfrwt beam="2">  1       -2 0.42468116E-01 0.44101436E+03</pdfrwt>
<totfact> 0.12206895E+02</totfact>
</mgrwt>
</event>
<event>
 4    1  0.4840632E-008  0.3740161E+03  0.7818608E-02  0.1053168E+00
          2   -1    0    0  501    0  0.00000000000E+00  0.00000000000E+00  0.74617760504E+03  0.74617760504E+03  0.25500000000E-02 0. -1.
         -2   -1    0    0    0  501 -0.00000000000E+00 -0.00000000000E+00 -0.57826085576E+03  0.57826085576E+03  0.25500000000E-02 0.  1.
    8880022    1    1    2    0    0 -0.34056601347E+03 -0.22609758520E+02 -0.46043206257E+03  0.59319958528E+03  0.15294330000E+03 0.  1.
    8880022    1    1    2    0    0  0.34056601347E+03  0.22609758520E+02  0.62834881185E+03  0.73123887553E+03  0.15294330000E+03 0.  0.
<mgrwt>
<rscale>  0 0.37401613E+03</rscale>
<asrwt>0</asrwt>
<pdfrwt beam="1">  1        2 0.11479655E+00 0.37401613E+03</pdfrwt>
<pdfrwt beam="2">  1       -2 0.88963209E-01 0.37401613E+03</pdfrwt>
<totfact> 0.43297226E+01</totfact>
</mgrwt>
</event>
<event>
 4    1  0.4840632E-008  0.2211697E+03  0.7818608E-02  0.1133014E+00
          2   -1    0    0  501    0  0.00000000000E+00  0.00000000000E+00  0.26245243099E+04  0.26245243099E+04  0.25500000000E-02 0. -1.
         -2   -1    0    0    0  501 -0.00000000000E+00 -0.00000000000E+00 -0.72644993135E+02  0.72644993180E+02  0.25500000000E-02 0.  1.
    8880022    1    1    2    0    0 -0.24399103614E+01 -0.15974485159E+03  0.24387266224E+04  0.24487350944E+04  0.15294330000E+03 0.  0.
    8880022    1    1    2    0    0  0.24399103614E+01  0.15974485159E+03  0.11315269433E+03  0.24843420864E+03  0.15294330000E+03 0.  1.
<mgrwt>
<rscale>  0 0.22116967E+03</rscale>
<asrwt>0</asrwt>
<pdfrwt beam="1">  1        2 0.40377301E+00 0.22116967E+03</pdfrwt>
<pdfrwt beam="2">  1       -2 0.11176152E-01 0.22116967E+03</pdfrwt>
<totfact> 0.19358272E+02</totfact>
</mgrwt>
</event>
<event>
 4    1  0.4840632E-008  0.2323026E+03  0.7818608E-02  0.1125029E+00
          2   -1    0    0  501    0  0.00000000000E+00  0.00000000000E+00  0.12117139789E+04  0.12117139789E+04  0.25500000000E-02 0. -1.
         -2   -1    0    0    0  501 -0.00000000000E+00 -0.00000000000E+00 -0.16715290239E+03  0.16715290241E+03  0.25500000000E-02 0.  1.
    8880022    1    1    2    0    0  0.17316975231E+03 -0.24188579001E+02 -0.68207527454E+02  0.24210900496E+03  0.15294330000E+03 0.  0.
    8880022    1    1    2    0    0 -0.17316975231E+03  0.24188579001E+02  0.11127686040E+04  0.11367578764E+04  0.15294330000E+03 0.  0.
<mgrwt>
<rscale>  0 0.23230261E+03</rscale>
<asrwt>0</asrwt>
<pdfrwt beam="1">  1        2 0.18641754E+00 0.23230261E+03</pdfrwt>
<pdfrwt beam="2">  1       -2 0.25715831E-01 0.23230261E+03</pdfrwt>
<totfact> 0.26987290E+02</totfact>
</mgrwt>
</event>
<event>
 4    1  0.4840632E-008  0.2973449E+03  0.7818608E-02  0.1086575E+00
         -2   -1    0    0    0  501 -0.00000000000E+00  0.00000000000E+00  0.49306210062E+02  0.49306210127E+02  0.25500000000E-02 0.  1.
          2   -1    0    0  501    0  0.00000000000E+00 -0.00000000000E+00 -0.31455839606E+04  0.31455839606E+04  0.25500000000E-02 0. -1.
    8880022    1    1    2    0    0 -0.36949627709E+02 -0.25230351304E+03 -0.50069320292E+03  0.58232952368E+03  0.15294330000E+03 0.  0.
    8880022    1    1    2    0    0  0.36949627709E+02  0.25230351304E+03 -0.25955845476E+04  0.26125606470E+04  0.15294330000E+03 0. -1.
<mgrwt>
<rscale>  0 0.29734490E+03</rscale>
<asrwt>0</asrwt>
<pdfrwt beam="1">  1        2 0.48393584E+00 0.29734490E+03</pdfrwt>
<pdfrwt beam="2">  1       -2 0.75855733E-02 0.29734490E+03</pdfrwt>
<totfact> 0.17381948E+02</totfact>
</mgrwt>
</event>
<event>
 4    1  0.4840632E-008  0.5994689E+03  0.7818608E-02  0.9906509E-01
          2   -1    0    0  501    0  0.00000000000E+00  0.00000000000E+00  0.19575216582E+04  0.19575216582E+04  0.25500000000E-02 0. -1.
         -2   -1    0    0    0  501 -0.00000000000E+00 -0.00000000000E+00 -0.30904938767E+03  0.30904938768E+03  0.25500000000E-02 0.  1.
    8880022    1    1    2    0    0 -0.56827551502E+03 -0.11416749955E+03  0.15463294242E+04  0.16584624265E+04  0.15294330000E+03 0.  0.
    8880022    1    1    2    0    0  0.56827551502E+03  0.11416749955E+03  0.10214284635E+03  0.60810861941E+03  0.15294330000E+03 0.  0.
<mgrwt>
<rscale>  0 0.59946887E+03</rscale>
<asrwt>0</asrwt>
<pdfrwt beam="1">  1        2 0.30115718E+00 0.59946887E+03</pdfrwt>
<pdfrwt beam="2">  1       -2 0.47546060E-01 0.59946887E+03</pdfrwt>
<totfact> 0.31177366E+01</totfact>
</mgrwt>
</event>
<event>
 4    1  0.4840632E-008  0.5592884E+03  0.7818608E-02  0.9993666E-01
         -2   -1    0    0    0  501 -0.00000000000E+00  0.00000000000E+00  0.74617354071E+03  0.74617354071E+03  0.25500000000E-02 0.  1.
          2   -1    0    0  501    0  0.00000000000E+00 -0.00000000000E+00 -0.58179016821E+03  0.58179016822E+03  0.25500000000E-02 0. -1.
    8880022    1    1    2    0    0  0.53712889398E+03  0.30073164571E+02 -0.26880793730E+03  0.62053300005E+03  0.15294330000E+03 0.  0.
    8880022    1    1    2    0    0 -0.53712889398E+03 -0.30073164571E+02  0.43319130980E+03  0.70743070889E+03  0.15294330000E+03 0.  0.
<mgrwt>
<rscale>  0 0.55928838E+03</rscale>
<asrwt>0</asrwt>
<pdfrwt beam="1">  1        2 0.89506180E-01 0.55928838E+03</pdfrwt>
<pdfrwt beam="2">  1       -2 0.11479593E+00 0.55928838E+03</pdfrwt>
<totfact> 0.31417776E+01</totfact>
</mgrwt>
</event>
<event>
 4    1  0.4840632E-008  0.3665652E+03  0.7818608E-02  0.1056014E+00
         -2   -1    0    0    0  501 -0.00000000000E+00  0.00000000000E+00  0.19033934121E+03  0.19033934123E+03  0.25500000000E-02 0.  1.
          2   -1    0    0  501    0  0.00000000000E+00 -0.00000000000E+00 -0.13448511585E+04  0.13448511585E+04  0.25500000000E-02 0. -1.
    8880022    1    1    2    0    0  0.25790872732E+03  0.21085894388E+03 -0.48187288100E+02  0.36971891159E+03  0.15294330000E+03 0.  0.
    8880022    1    1    2    0    0 -0.25790872732E+03 -0.21085894388E+03 -0.11063245292E+04  0.11654715881E+04  0.15294330000E+03 0.  0.
<mgrwt>
<rscale>  0 0.36656522E+03</rscale>
<asrwt>0</asrwt>
<pdfrwt beam="1">  1        2 0.20690017E+00 0.36656522E+03</pdfrwt>
<pdfrwt beam="2">  1       -2 0.29282976E-01 0.36656522E+03</pdfrwt>
<totfact> 0.17602505E+02</totfact>
</mgrwt>
</event>
<event>
 4    1  0.4840632E-008  0.1605696E+03  0.7818608E-02  0.1188055E+00
         -2   -1    0    0    0  501 -0.00000000000E+00  0.00000000000E+00  0.84138802503E+02  0.84138802542E+02  0.25500000000E-02 0.  1.
          2   -1    0    0  501    0  0.00000000000E+00 -0.00000000000E+00 -0.13458676724E+04  0.13458676724E+04  0.25500000000E-02 0. -1.
    8880022    1    1    2    0    0  0.32816325081E+02  0.36249417721E+02 -0.12592210981E+04  0.12694173302E+04  0.15294330000E+03 0. -1.
    8880022    1    1    2    0    0 -0.32816325081E+02 -0.36249417721E+02 -0.25077718740E+01  0.16058914475E+03  0.15294330000E+03 0.  0.
<mgrwt>
<rscale>  0 0.16056956E+03</rscale>
<asrwt>0</asrwt>
<pdfrwt beam="1">  1        2 0.20705655E+00 0.16056956E+03</pdfrwt>
<pdfrwt beam="2">  1       -2 0.12944432E-01 0.16056956E+03</pdfrwt>
<totfact> 0.73385580E+02</totfact>
</mgrwt>
</event>
<event>
 4    1  0.4840632E-008  0.6629233E+03  0.7818608E-02  0.9782827E-01
          2   -1    0    0  501    0  0.00000000000E+00  0.00000000000E+00  0.21483653460E+04  0.21483653460E+04  0.25500000000E-02 0. -1.
         -2   -1    0    0    0  501 -0.00000000000E+00 -0.00000000000E+00 -0.30330166387E+03  0.30330166388E+03  0.25500000000E-02 0.  1.
    8880022    1    1    2    0    0  0.35529709454E+03  0.53836749709E+03  0.22309783661E+03  0.69945685001E+03  0.15294330000E+03 0.  0.
    8880022    1    1    2    0    0 -0.35529709454E+03 -0.53836749709E+03  0.16219658455E+04  0.17522101598E+04  0.15294330000E+03 0.  0.
<mgrwt>
<rscale>  0 0.66292325E+03</rscale>
<asrwt>0</asrwt>
<pdfrwt beam="1">  1        2 0.33051774E+00 0.66292325E+03</pdfrwt>
<pdfrwt beam="2">  1       -2 0.46661795E-01 0.66292325E+03</pdfrwt>
<totfact> 0.25235764E+01</totfact>
</mgrwt>
</event>
<event>
 4    1  0.4840632E-008  0.4773038E+03  0.7818608E-02  0.1019879E+00
          2   -1    0    0  501    0  0.00000000000E+00  0.00000000000E+00  0.18691860722E+04  0.18691860722E+04  0.25500000000E-02 0. -1.
         -2   -1    0    0    0  501 -0.00000000000E+00 -0.00000000000E+00 -0.14942094040E+03  0.14942094042E+03  0.25500000000E-02 0.  1.
    8880022    1    1    2    0    0  0.42541706593E+03 -0.15312592759E+03  0.42657631625E+03  0.64014548056E+03  0.15294330000E+03 0.  0.
    8880022    1    1    2    0    0 -0.42541706593E+03  0.15312592759E+03  0.12931888155E+04  0.13784615321E+04  0.15294330000E+03 0.  0.
<mgrwt>
<rscale>  0 0.47730376E+03</rscale>
<asrwt>0</asrwt>
<pdfrwt beam="1">  1        2 0.28756709E+00 0.47730376E+03</pdfrwt>
<pdfrwt beam="2">  1       -2 0.22987837E-01 0.47730376E+03</pdfrwt>
<totfact> 0.13903646E+02</totfact>
</mgrwt>
</event>
<event>
 4    1  0.4840632E-008  0.3414735E+03  0.7818608E-02  0.1066170E+00
         -2   -1    0    0    0  501 -0.00000000000E+00  0.00000000000E+00  0.25647167662E+03  0.25647167663E+03  0.25500000000E-02 0.  1.
          2   -1    0    0  501    0  0.00000000000E+00 -0.00000000000E+00 -0.10758392640E+04  0.10758392641E+04  0.25500000000E-02 0. -1.
    8880022    1    1    2    0    0 -0.50064576675E+02 -0.30117444036E+03  0.96507666071E+02  0.35484910595E+03  0.15294330000E+03 0.  0.
    8880022    1    1    2    0    0  0.50064576675E+02  0.30117444036E+03 -0.91587525350E+03  0.97746183473E+03  0.15294330000E+03 0.  0.
<mgrwt>
<rscale>  0 0.34147351E+03</rscale>
<asrwt>0</asrwt>
<pdfrwt beam="1">  1        2 0.16551373E+00 0.34147351E+03</pdfrwt>
<pdfrwt beam="2">  1       -2 0.39457182E-01 0.34147351E+03</pdfrwt>
<totfact> 0.14441540E+02</totfact>
</mgrwt>
</event>
<event>
 4    1  0.4840632E-008  0.2399340E+03  0.7818608E-02  0.1119837E+00
          2   -1    0    0  501    0  0.00000000000E+00  0.00000000000E+00  0.75493591751E+03  0.75493591751E+03  0.25500000000E-02 0. -1.
         -2   -1    0    0    0  501 -0.00000000000E+00 -0.00000000000E+00 -0.18336833465E+03  0.18336833467E+03  0.25500000000E-02 0.  1.
    8880022    1    1    2    0    0  0.42977142083E+02  0.17980439163E+03 -0.72784178933E+02  0.25073061981E+03  0.15294330000E+03 0.  0.
    8880022    1    1    2    0    0 -0.42977142083E+02 -0.17980439163E+03  0.64435176179E+03  0.68757363237E+03  0.15294330000E+03 0.  0.
<mgrwt>
<rscale>  0 0.23993396E+03</rscale>
<asrwt>0</asrwt>
<pdfrwt beam="1">  1        2 0.11614399E+00 0.23993396E+03</pdfrwt>
<pdfrwt beam="2">  1       -2 0.28210513E-01 0.23993396E+03</pdfrwt>
<totfact> 0.44060935E+02</totfact>
</mgrwt>
</event>
<event>
 4    1  0.4840632E-008  0.1729818E+03  0.7818608E-02  0.1174774E+00
          2   -1    0    0  501    0  0.00000000000E+00  0.00000000000E+00  0.14388068876E+04  0.14388068876E+04  0.25500000000E-02 0. -1.
         -2   -1    0    0    0  501 -0.00000000000E+00 -0.00000000000E+00 -0.10902959756E+03  0.10902959759E+03  0.25500000000E-02 0.  1.
    8880022    1    1    2    0    0 -0.79090567532E+02  0.16605248445E+02 -0.31317237334E+02  0.17579384095E+03  0.15294330000E+03 0.  0.
    8880022    1    1    2    0    0  0.79090567532E+02 -0.16605248445E+02  0.13610945274E+04  0.13720426443E+04  0.15294330000E+03 0. -1.
<mgrwt>
<rscale>  0 0.17298181E+03</rscale>
<asrwt>0</asrwt>
<pdfrwt beam="1">  1        2 0.22135491E+00 0.17298181E+03</pdfrwt>
<pdfrwt beam="2">  1       -2 0.16773784E-01 0.17298181E+03</pdfrwt>
<totfact> 0.42716087E+02</totfact>
</mgrwt>
</event>
<event>
 4    1  0.4840632E-008  0.4202743E+03  0.7818608E-02  0.1036977E+00
          2   -1    0    0  501    0  0.00000000000E+00  0.00000000000E+00  0.24505041934E+03  0.24505041935E+03  0.25500000000E-02 0. -1.
         -2   -1    0    0    0  501 -0.00000000000E+00 -0.00000000000E+00 -0.92842956722E+03  0.92842956723E+03  0.25500000000E-02 0.  1.
    8880022    1    1    2    0    0 -0.28902506556E+03  0.26401393918E+03 -0.64214698563E+02  0.42515177188E+03  0.15294330000E+03 0.  0.
    8880022    1    1    2    0    0  0.28902506556E+03 -0.26401393918E+03 -0.61916444932E+03  0.74832821470E+03  0.15294330000E+03 0.  0.
<mgrwt>
<rscale>  0 0.42027432E+03</rscale>
<asrwt>0</asrwt>
<pdfrwt beam="1">  1        2 0.37700065E-01 0.42027432E+03</pdfrwt>
<pdfrwt beam="2">  1       -2 0.14283532E+00 0.42027432E+03</pdfrwt>
<totfact> 0.48583659E+01</totfact>
</mgrwt>
</event>
<event>
 4    1  0.4840632E-008  0.1389713E+04  0.7818608E-02  0.8961299E-01
          2   -1    0    0  501    0  0.00000000000E+00  0.00000000000E+00  0.21979442807E+04  0.21979442807E+04  0.25500000000E-02 0. -1.
         -2   -1    0    0    0  501 -0.00000000000E+00 -0.00000000000E+00 -0.13713830348E+04  0.13713830348E+04  0.25500000000E-02 0.  1.
    8880022    1    1    2    0    0 -0.15305305031E+03  0.13727654738E+04 -0.65643208453E+03  0.15369466539E+04  0.15294330000E+03 0.  0.
    8880022    1    1    2    0    0  0.15305305031E+03 -0.13727654738E+04  0.14829933305E+04  0.20323806616E+04  0.15294330000E+03 0.  0.
<mgrwt>
<rscale>  0 0.13897129E+04</rscale>
<asrwt>0</asrwt>
<pdfrwt beam="1">  1        2 0.33814527E+00 0.13897129E+04</pdfrwt>
<pdfrwt beam="2">  1       -2 0.21098201E+00 0.13897129E+04</pdfrwt>
<totfact> 0.55515671E-01</totfact>
</mgrwt>
</event>
<event>
 4    1  0.4840632E-008  0.7002556E+03  0.7818608E-02  0.9716795E-01
         -2   -1    0    0    0  501 -0.00000000000E+00  0.00000000000E+00  0.59685942817E+03  0.59685942818E+03  0.25500000000E-02 0.  1.
          2   -1    0    0  501    0  0.00000000000E+00 -0.00000000000E+00 -0.22762376313E+04  0.22762376313E+04  0.25500000000E-02 0. -1.
    8880022    1    1    2    0    0  0.22365498797E+03  0.64571252299E+03 -0.19880922471E+04  0.21078113417E+04  0.15294330000E+03 0.  0.
    8880022    1    1    2    0    0 -0.22365498797E+03 -0.64571252299E+03  0.30871404396E+03  0.76528571785E+03  0.15294330000E+03 0.  0.
<mgrwt>
<rscale>  0 0.70025557E+03</rscale>
<asrwt>0</asrwt>
<pdfrwt beam="1">  1        2 0.35019040E+00 0.70025557E+03</pdfrwt>
<pdfrwt beam="2">  1       -2 0.91824528E-01 0.70025557E+03</pdfrwt>
<totfact> 0.49664850E+00</totfact>
</mgrwt>
</event>
<event>
 4    1  0.4840632E-008  0.2763403E+03  0.7818608E-02  0.1097705E+00
         -2   -1    0    0    0  501 -0.00000000000E+00  0.00000000000E+00  0.38645166526E+03  0.38645166527E+03  0.25500000000E-02 0.  1.
          2   -1    0    0  501    0  0.00000000000E+00 -0.00000000000E+00 -0.80586230296E+03  0.80586230297E+03  0.25500000000E-02 0. -1.
    8880022    1    1    2    0    0  0.21575451770E+03  0.80139250159E+02  0.30822893775E+03  0.41396744123E+03  0.15294330000E+03 0.  1.
    8880022    1    1    2    0    0 -0.21575451770E+03 -0.80139250159E+02 -0.72763957545E+03  0.77834652700E+03  0.15294330000E+03 0.  0.
<mgrwt>
<rscale>  0 0.27634031E+03</rscale>
<asrwt>0</asrwt>
<pdfrwt beam="1">  1        2 0.12397882E+00 0.27634031E+03</pdfrwt>
<pdfrwt beam="2">  1       -2 0.59454103E-01 0.27634031E+03</pdfrwt>
<totfact> 0.95851693E+01</totfact>
</mgrwt>
</event>
<event>
 4    1  0.4840632E-008  0.3090977E+03  0.7818608E-02  0.1080779E+00
         -2   -1    0    0    0  501 -0.00000000000E+00  0.00000000000E+00  0.16760894563E+03  0.16760894565E+03  0.25500000000E-02 0.  1.
          2   -1    0    0  501    0  0.00000000000E+00 -0.00000000000E+00 -0.29452491981E+04  0.29452491981E+04  0.25500000000E-02 0. -1.
    8880022    1    1    2    0    0 -0.23367586646E+03 -0.13245884723E+03 -0.27865413178E+04  0.28036322736E+04  0.15294330000E+03 0.  0.
    8880022    1    1    2    0    0  0.23367586646E+03  0.13245884723E+03  0.89010653430E+01  0.30922587013E+03  0.15294330000E+03 0.  1.
<mgrwt>
<rscale>  0 0.30909774E+03</rscale>
<asrwt>0</asrwt>
<pdfrwt beam="1">  1        2 0.45311522E+00 0.30909774E+03</pdfrwt>
<pdfrwt beam="2">  1       -2 0.25785994E-01 0.30909774E+03</pdfrwt>
<totfact> 0.29994666E+01</totfact>
</mgrwt>
</event>
<event>
 4    1  0.4840632E-008  0.5683326E+03  0.7818608E-02  0.9973375E-01
          2   -1    0    0  501    0  0.00000000000E+00  0.00000000000E+00  0.32468913415E+03  0.32468913416E+03  0.25500000000E-02 0. -1.
         -2   -1    0    0    0  501 -0.00000000000E+00 -0.00000000000E+00 -0.15391510309E+04  0.15391510309E+04  0.25500000000E-02 0.  1.
    8880022    1    1    2    0    0  0.41643392086E+03  0.35523671305E+03 -0.11614431197E+04  0.12930398703E+04  0.15294330000E+03 0.  0.
    8880022    1    1    2    0    0 -0.41643392086E+03 -0.35523671305E+03 -0.53018776981E+02  0.57080029474E+03  0.15294330000E+03 0.  0.
<mgrwt>
<rscale>  0 0.56833264E+03</rscale>
<asrwt>0</asrwt>
<pdfrwt beam="1">  1        2 0.49952175E-01 0.56833264E+03</pdfrwt>
<pdfrwt beam="2">  1       -2 0.23679246E+00 0.56833264E+03</pdfrwt>
<totfact> 0.81722620E+00</totfact>
</mgrwt>
</event>
<event>
 4    1  0.4840632E-008  0.6007874E+03  0.7818608E-02  0.9903774E-01
          2   -1    0    0  501    0  0.00000000000E+00  0.00000000000E+00  0.20096223228E+04  0.20096223228E+04  0.25500000000E-02 0. -1.
         -2   -1    0    0    0  501 -0.00000000000E+00 -0.00000000000E+00 -0.21123518235E+03  0.21123518237E+03  0.25500000000E-02 0.  1.
    8880022    1    1    2    0    0 -0.30874476915E+03  0.49216923064E+03  0.46952517241E+03  0.76249552433E+03  0.15294330000E+03 0.  0.
    8880022    1    1    2    0    0  0.30874476915E+03 -0.49216923064E+03  0.13288619680E+04  0.14583619808E+04  0.15294330000E+03 0.  0.
<mgrwt>
<rscale>  0 0.60078743E+03</rscale>
<asrwt>0</asrwt>
<pdfrwt beam="1">  1        2 0.30917267E+00 0.60078743E+03</pdfrwt>
<pdfrwt beam="2">  1       -2 0.32497720E-01 0.60078743E+03</pdfrwt>
<totfact> 0.61080727E+01</totfact>
</mgrwt>
</event>
<event>
 4    1  0.4840632E-008  0.3074555E+03  0.7818608E-02  0.1081572E+00
         -2   -1    0    0    0  501 -0.00000000000E+00  0.00000000000E+00  0.39172149123E+03  0.39172149123E+03  0.25500000000E-02 0.  1.
          2   -1    0    0  501    0  0.00000000000E+00 -0.00000000000E+00 -0.90655399882E+03  0.90655399882E+03  0.25500000000E-02 0. -1.
    8880022    1    1    2    0    0  0.17780556113E+03 -0.19880250058E+03 -0.81348482115E+03  0.86964731878E+03  0.15294330000E+03 0.  0.
    8880022    1    1    2    0    0 -0.17780556113E+03  0.19880250058E+03  0.29865231356E+03  0.42862817128E+03  0.15294330000E+03 0.  1.
<mgrwt>
<rscale>  0 0.30745553E+03</rscale>
<asrwt>0</asrwt>
<pdfrwt beam="1">  1        2 0.13946985E+00 0.30745553E+03</pdfrwt>
<pdfrwt beam="2">  1       -2 0.60264845E-01 0.30745553E+03</pdfrwt>
<totfact> 0.79353159E+01</totfact>
</mgrwt>
</event>
<event>
 4    1  0.4840632E-008  0.5786316E+03  0.7818608E-02  0.9950758E-01
         -2   -1    0    0    0  501 -0.00000000000E+00  0.00000000000E+00  0.45316200745E+03  0.45316200746E+03  0.25500000000E-02 0.  1.
          2   -1    0    0  501    0  0.00000000000E+00 -0.00000000000E+00 -0.38150711887E+04  0.38150711887E+04  0.25500000000E-02 0. -1.
    8880022    1    1    2    0    0 -0.32332819299E+03 -0.45484261162E+03  0.23540167187E+03  0.62468273697E+03  0.15294330000E+03 0.  0.
    8880022    1    1    2    0    0  0.32332819299E+03  0.45484261162E+03 -0.35973108531E+04  0.36435504592E+04  0.15294330000E+03 0. -1.
<mgrwt>
<rscale>  0 0.57863164E+03</rscale>
<asrwt>0</asrwt>
<pdfrwt beam="1">  1        2 0.58693401E+00 0.57863164E+03</pdfrwt>
<pdfrwt beam="2">  1       -2 0.69717234E-01 0.57863164E+03</pdfrwt>
<totfact> 0.10386715E+00</totfact>
</mgrwt>
</event>
<event>
 4    1  0.4840632E-008  0.1005025E+04  0.7818608E-02  0.9303051E-01
         -2   -1    0    0    0  501 -0.00000000000E+00  0.00000000000E+00  0.59325288298E+03  0.59325288298E+03  0.25500000000E-02 0.  1.
          2   -1    0    0  501    0  0.00000000000E+00 -0.00000000000E+00 -0.38969020400E+04  0.38969020400E+04  0.25500000000E-02 0. -1.
    8880022    1    1    2    0    0 -0.99204068792E+03 -0.50384692661E+02  0.32862904007E+02  0.10055620156E+04  0.15294330000E+03 0.  0.
    8880022    1    1    2    0    0  0.99204068792E+03  0.50384692661E+02 -0.33365120610E+04  0.34845929074E+04  0.15294330000E+03 0.  0.
<mgrwt>
<rscale>  0 0.10050249E+04</rscale>
<asrwt>0</asrwt>
<pdfrwt beam="1">  1        2 0.59952337E+00 0.10050249E+04</pdfrwt>
<pdfrwt beam="2">  1       -2 0.91269677E-01 0.10050249E+04</pdfrwt>
<totfact> 0.44275828E-01</totfact>
</mgrwt>
</event>
<event>
 4    1  0.4840632E-008  0.2201507E+03  0.7818608E-02  0.1133771E+00
         -2   -1    0    0    0  501 -0.00000000000E+00  0.00000000000E+00  0.27537042219E+02  0.27537042337E+02  0.25500000000E-02 0.  1.
          2   -1    0    0  501    0  0.00000000000E+00 -0.00000000000E+00 -0.31648845059E+04  0.31648845059E+04  0.25500000000E-02 0. -1.
    8880022    1    1    2    0    0 -0.23201536361E+02  0.15664091591E+03 -0.26321435800E+04  0.26413341641E+04  0.15294330000E+03 0. -1.
    8880022    1    1    2    0    0  0.23201536361E+02 -0.15664091591E+03 -0.50520388369E+03  0.55108738412E+03  0.15294330000E+03 0.  0.
<mgrwt>
<rscale>  0 0.22015072E+03</rscale>
<asrwt>0</asrwt>
<pdfrwt beam="1">  1        2 0.48690502E+00 0.22015072E+03</pdfrwt>
<pdfrwt beam="2">  1       -2 0.42364706E-02 0.22015072E+03</pdfrwt>
<totfact> 0.42393249E+02</totfact>
</mgrwt>
</event>
<event>
 4    1  0.4840632E-008  0.4677409E+03  0.7818608E-02  0.1022560E+00
          2   -1    0    0  501    0  0.00000000000E+00  0.00000000000E+00  0.75743085980E+03  0.75743085980E+03  0.25500000000E-02 0. -1.
         -2   -1    0    0    0  501 -0.00000000000E+00 -0.00000000000E+00 -0.40929728762E+03  0.40929728763E+03  0.25500000000E-02 0.  1.
    8880022    1    1    2    0    0  0.16162071773E+03  0.41142271663E+03 -0.14239722960E+03  0.48893612279E+03  0.15294330000E+03 0.  0.
    8880022    1    1    2    0    0 -0.16162071773E+03 -0.41142271663E+03  0.49053080177E+03  0.67779202464E+03  0.15294330000E+03 0. -1.
<mgrwt>
<rscale>  0 0.46774091E+03</rscale>
<asrwt>0</asrwt>
<pdfrwt beam="1">  1        2 0.11652782E+00 0.46774091E+03</pdfrwt>
<pdfrwt beam="2">  1       -2 0.62968814E-01 0.46774091E+03</pdfrwt>
<totfact> 0.89669274E+01</totfact>
</mgrwt>
</event>
<event>
 4    1  0.4840632E-008  0.6168020E+03  0.7818608E-02  0.9871148E-01
         -2   -1    0    0    0  501 -0.00000000000E+00  0.00000000000E+00  0.49942125994E+03  0.49942125994E+03  0.25500000000E-02 0.  1.
          2   -1    0    0  501    0  0.00000000000E+00 -0.00000000000E+00 -0.97745892811E+03  0.97745892811E+03  0.25500000000E-02 0. -1.
    8880022    1    1    2    0    0 -0.16706796465E+03  0.57370842188E+03 -0.58589844310E+03  0.85071834163E+03  0.15294330000E+03 0.  0.
    8880022    1    1    2    0    0  0.16706796465E+03 -0.57370842188E+03  0.10786077492E+03  0.62616184643E+03  0.15294330000E+03 0.  0.
<mgrwt>
<rscale>  0 0.61680200E+03</rscale>
<asrwt>0</asrwt>
<pdfrwt beam="1">  1        2 0.15037830E+00 0.61680200E+03</pdfrwt>
<pdfrwt beam="2">  1       -2 0.76834040E-01 0.61680200E+03</pdfrwt>
<totfact> 0.40564842E+01</totfact>
</mgrwt>
</event>
<event>
 4    1  0.4840632E-008  0.6687193E+03  0.7818608E-02  0.9772274E-01
          2   -1    0    0  501    0  0.00000000000E+00  0.00000000000E+00  0.98858406034E+03  0.98858406034E+03  0.25500000000E-02 0. -1.
         -2   -1    0    0    0  501 -0.00000000000E+00 -0.00000000000E+00 -0.67231436514E+03  0.67231436514E+03  0.25500000000E-02 0.  1.
    8880022    1    1    2    0    0  0.56192650936E+03 -0.32868290866E+03 -0.31687601009E+03  0.73999723996E+03  0.15294330000E+03 0.  0.
    8880022    1    1    2    0    0 -0.56192650936E+03  0.32868290866E+03  0.63314570529E+03  0.92090118553E+03  0.15294330000E+03 0.  0.
<mgrwt>
<rscale>  0 0.66871931E+03</rscale>
<asrwt>0</asrwt>
<pdfrwt beam="1">  1        2 0.15208985E+00 0.66871931E+03</pdfrwt>
<pdfrwt beam="2">  1       -2 0.10343298E+00 0.66871931E+03</pdfrwt>
<totfact> 0.20023746E+01</totfact>
</mgrwt>
</event>
<event>
 4    1  0.4840632E-008  0.6837440E+03  0.7818608E-02  0.9745443E-01
          2   -1    0    0  501    0  0.00000000000E+00  0.00000000000E+00  0.63783501926E+03  0.63783501926E+03  0.25500000000E-02 0. -1.
         -2   -1    0    0    0  501 -0.00000000000E+00 -0.00000000000E+00 -0.14388673553E+04  0.14388673553E+04  0.25500000000E-02 0.  1.
    8880022    1    1    2    0    0 -0.56211977708E+03 -0.35796032254E+03 -0.11278077172E+04  0.13188844287E+04  0.15294330000E+03 0.  0.
    8880022    1    1    2    0    0  0.56211977708E+03  0.35796032254E+03  0.32677538116E+03  0.75781794585E+03  0.15294330000E+03 0.  0.
<mgrwt>
<rscale>  0 0.68374402E+03</rscale>
<asrwt>0</asrwt>
<pdfrwt beam="1">  1        2 0.98128465E-01 0.68374402E+03</pdfrwt>
<pdfrwt beam="2">  1       -2 0.22136421E+00 0.68374402E+03</pdfrwt>
<totfact> 0.46092528E+00</totfact>
</mgrwt>
</event>
<event>
 4    1  0.4840632E-008  0.1361558E+04  0.7818608E-02  0.8982125E-01
          2   -1    0    0  501    0  0.00000000000E+00  0.00000000000E+00  0.38118871673E+04  0.38118871673E+04  0.25500000000E-02 0. -1.
         -2   -1    0    0    0  501 -0.00000000000E+00 -0.00000000000E+00 -0.66758204398E+03  0.66758204399E+03  0.25500000000E-02 0.  1.
    8880022    1    1    2    0    0  0.11770413391E+04  0.66709954855E+03  0.27391884716E+04  0.30589202765E+04  0.15294330000E+03 0.  0.
    8880022    1    1    2    0    0 -0.11770413391E+04 -0.66709954855E+03  0.40511665170E+03  0.14205489348E+04  0.15294330000E+03 0.  0.
<mgrwt>
<rscale>  0 0.13615578E+04</rscale>
<asrwt>0</asrwt>
<pdfrwt beam="1">  1        2 0.58644419E+00 0.13615578E+04</pdfrwt>
<pdfrwt beam="2">  1       -2 0.10270493E+00 0.13615578E+04</pdfrwt>
<totfact> 0.36683318E-01</totfact>
</mgrwt>
</event>
<event>
 4    1  0.4840632E-008  0.1197897E+04  0.7818608E-02  0.9114699E-01
         -2   -1    0    0    0  501 -0.00000000000E+00  0.00000000000E+00  0.90578743762E+03  0.90578743763E+03  0.25500000000E-02 0.  1.
          2   -1    0    0  501    0  0.00000000000E+00 -0.00000000000E+00 -0.26953415851E+04  0.26953415851E+04  0.25500000000E-02 0. -1.
    8880022    1    1    2    0    0  0.11818002423E+04 -0.12212320757E+03 -0.20508481105E+04  0.23750653708E+04  0.15294330000E+03 0.  0.
    8880022    1    1    2    0    0 -0.11818002423E+04  0.12212320757E+03  0.26129396299E+03  0.12260636519E+04  0.15294330000E+03 0.  0.
<mgrwt>
<rscale>  0 0.11978971E+04</rscale>
<asrwt>0</asrwt>
<pdfrwt beam="1">  1        2 0.41466793E+00 0.11978971E+04</pdfrwt>
<pdfrwt beam="2">  1       -2 0.13935191E+00 0.11978971E+04</pdfrwt>
<totfact> 0.95347736E-01</totfact>
</mgrwt>
</event>
<event>
 4    1  0.4840632E-008  0.3977256E+03  0.7818608E-02  0.1044570E+00
         -2   -1    0    0    0  501 -0.00000000000E+00  0.00000000000E+00  0.25716445786E+03  0.25716445788E+03  0.25500000000E-02 0.  1.
          2   -1    0    0  501    0  0.00000000000E+00 -0.00000000000E+00 -0.27033134450E+04  0.27033134450E+04  0.25500000000E-02 0. -1.
    8880022    1    1    2    0    0 -0.74075031122E+02 -0.35959266233E+03  0.77902264830E+02  0.40528312193E+03  0.15294330000E+03 0.  0.
    8880022    1    1    2    0    0  0.74075031122E+02  0.35959266233E+03 -0.25240512520E+04  0.25551947810E+04  0.15294330000E+03 0.  0.
<mgrwt>
<rscale>  0 0.39772559E+03</rscale>
<asrwt>0</asrwt>
<pdfrwt beam="1">  1        2 0.41589436E+00 0.39772559E+03</pdfrwt>
<pdfrwt beam="2">  1       -2 0.39563765E-01 0.39772559E+03</pdfrwt>
<totfact> 0.18167099E+01</totfact>
</mgrwt>
</event>
<event>
 4    1  0.4840632E-008  0.4407346E+03  0.7818608E-02  0.1030522E+00
         -2   -1    0    0    0  501 -0.00000000000E+00  0.00000000000E+00  0.32271669664E+03  0.32271669665E+03  0.25500000000E-02 0.  1.
          2   -1    0    0  501    0  0.00000000000E+00 -0.00000000000E+00 -0.76439923394E+03  0.76439923394E+03  0.25500000000E-02 0. -1.
    8880022    1    1    2    0    0 -0.31947810419E+03 -0.26227668551E+03 -0.47144971194E+03  0.64537725613E+03  0.15294330000E+03 0.  0.
    8880022    1    1    2    0    0  0.31947810419E+03  0.26227668551E+03  0.29767174642E+02  0.44173867446E+03  0.15294330000E+03 0.  0.
<mgrwt>
<rscale>  0 0.44073458E+03</rscale>
<asrwt>0</asrwt>
<pdfrwt beam="1">  1        2 0.11759988E+00 0.44073458E+03</pdfrwt>
<pdfrwt beam="2">  1       -2 0.49648723E-01 0.44073458E+03</pdfrwt>
<totfact> 0.14521824E+02</totfact>
</mgrwt>
</event>
<event>
 4    1  0.4840632E-008  0.3640154E+03  0.7818608E-02  0.1057005E+00
          2   -1    0    0  501    0  0.00000000000E+00  0.00000000000E+00  0.99287106941E+03  0.99287106942E+03  0.25500000000E-02 0. -1.
         -2   -1    0    0    0  501 -0.00000000000E+00 -0.00000000000E+00 -0.17525647038E+03  0.17525647040E+03  0.25500000000E-02 0.  1.
    8880022    1    1    2    0    0 -0.21944128264E+03 -0.24690304498E+03  0.12357414891E+03  0.38441879954E+03  0.15294330000E+03 0.  0.
    8880022    1    1    2    0    0  0.21944128264E+03  0.24690304498E+03  0.69404045013E+03  0.78370874027E+03  0.15294330000E+03 0.  0.
<mgrwt>
<rscale>  0 0.36401544E+03</rscale>
<asrwt>0</asrwt>
<pdfrwt beam="1">  1        2 0.15274940E+00 0.36401544E+03</pdfrwt>
<pdfrwt beam="2">  1       -2 0.26962534E-01 0.36401544E+03</pdfrwt>
<totfact> 0.32857281E+02</totfact>
</mgrwt>
</event>
<event>
 4    1  0.4840632E-008  0.3540582E+03  0.7818608E-02  0.1060962E+00
         -2   -1    0    0    0  501 -0.00000000000E+00  0.00000000000E+00  0.49652427072E+03  0.49652427073E+03  0.25500000000E-02 0.  1.
          2   -1    0    0  501    0  0.00000000000E+00 -0.00000000000E+00 -0.10793553305E+04  0.10793553305E+04  0.25500000000E-02 0. -1.
    8880022    1    1    2    0    0  0.25414085724E+03  0.19333391358E+03  0.39824217879E+03  0.53287340282E+03  0.15294330000E+03 0.  0.
    8880022    1    1    2    0    0 -0.25414085724E+03 -0.19333391358E+03 -0.98107323853E+03  0.10430061984E+04  0.15294330000E+03 0.  0.
<mgrwt>
<rscale>  0 0.35405823E+03</rscale>
<asrwt>0</asrwt>
<pdfrwt beam="1">  1        2 0.16605467E+00 0.35405823E+03</pdfrwt>
<pdfrwt beam="2">  1       -2 0.76388350E-01 0.35405823E+03</pdfrwt>
<totfact> 0.36940216E+01</totfact>
</mgrwt>
</event>
<event>
 4    1  0.4840632E-008  0.7380324E+03  0.7818608E-02  0.9654315E-01
         -2   -1    0    0    0  501 -0.00000000000E+00  0.00000000000E+00  0.13957545699E+04  0.13957545699E+04  0.25500000000E-02 0.  1.
          2   -1    0    0  501    0  0.00000000000E+00 -0.00000000000E+00 -0.52455170659E+03  0.52455170660E+03  0.25500000000E-02 0. -1.
    8880022    1    1    2    0    0  0.64299143486E+03  0.32842380561E+03 -0.50233486492E+02  0.73973997971E+03  0.15294330000E+03 0.  0.
    8880022    1    1    2    0    0 -0.64299143486E+03 -0.32842380561E+03  0.92143634982E+03  0.11805662968E+04  0.15294330000E+03 0.  0.
<mgrwt>
<rscale>  0 0.73803241E+03</rscale>
<asrwt>0</asrwt>
<pdfrwt beam="1">  1        2 0.80700265E-01 0.73803241E+03</pdfrwt>
<pdfrwt beam="2">  1       -2 0.21473147E+00 0.73803241E+03</pdfrwt>
<totfact> 0.63626056E+00</totfact>
</mgrwt>
</event>
<event>
 4    1  0.4840632E-008  0.2694804E+03  0.7818608E-02  0.1101577E+00
          2   -1    0    0  501    0  0.00000000000E+00  0.00000000000E+00  0.39728609441E+04  0.39728609441E+04  0.25500000000E-02 0. -1.
         -2   -1    0    0    0  501 -0.00000000000E+00 -0.00000000000E+00 -0.87577182920E+02  0.87577182957E+02  0.25500000000E-02 0.  1.
    8880022    1    1    2    0    0  0.22186578686E+03  0.18953035470E+01  0.37486035925E+04  0.37582773403E+04  0.15294330000E+03 0.  0.
    8880022    1    1    2    0    0 -0.22186578686E+03 -0.18953035470E+01  0.13668016867E+03  0.30216078680E+03  0.15294330000E+03 0.  0.
<mgrwt>
<rscale>  0 0.26948038E+03</rscale>
<asrwt>0</asrwt>
<pdfrwt beam="1">  1        2 0.61120943E+00 0.26948038E+03</pdfrwt>
<pdfrwt beam="2">  1       -2 0.13473412E-01 0.26948038E+03</pdfrwt>
<totfact> 0.19292675E+01</totfact>
</mgrwt>
</event>
<event>
 4    1  0.4840632E-008  0.4396461E+03  0.7818608E-02  0.1030855E+00
          2   -1    0    0  501    0  0.00000000000E+00  0.00000000000E+00  0.63845576030E+03  0.63845576031E+03  0.25500000000E-02 0. -1.
         -2   -1    0    0    0  501 -0.00000000000E+00 -0.00000000000E+00 -0.35044775551E+03  0.35044775552E+03  0.25500000000E-02 0.  1.
    8880022    1    1    2    0    0  0.79657090516E+02  0.40441537054E+03  0.32643063388E+03  0.54758164300E+03  0.15294330000E+03 0.  0.
    8880022    1    1    2    0    0 -0.79657090516E+02 -0.40441537054E+03 -0.38422629090E+02  0.44132187283E+03  0.15294330000E+03 0.  0.
<mgrwt>
<rscale>  0 0.43964610E+03</rscale>
<asrwt>0</asrwt>
<pdfrwt beam="1">  1        2 0.98223962E-01 0.43964610E+03</pdfrwt>
<pdfrwt beam="2">  1       -2 0.53915040E-01 0.43964610E+03</pdfrwt>
<totfact> 0.15357526E+02</totfact>
</mgrwt>
</event>
<event>
 4    1  0.4840632E-008  0.4646945E+03  0.7818608E-02  0.1023428E+00
          2   -1    0    0  501    0  0.00000000000E+00  0.00000000000E+00  0.14376916796E+04  0.14376916796E+04  0.25500000000E-02 0. -1.
         -2   -1    0    0    0  501 -0.00000000000E+00 -0.00000000000E+00 -0.16320843053E+03  0.16320843055E+03  0.25500000000E-02 0.  1.
    8880022    1    1    2    0    0 -0.41462063610E+03  0.14366312891E+03  0.41125718321E+03  0.62054289960E+03  0.15294330000E+03 0. -1.
    8880022    1    1    2    0    0  0.41462063610E+03 -0.14366312891E+03  0.86322606585E+03  0.98035721054E+03  0.15294330000E+03 0. -1.
<mgrwt>
<rscale>  0 0.46469454E+03</rscale>
<asrwt>0</asrwt>
<pdfrwt beam="1">  1        2 0.22118333E+00 0.46469454E+03</pdfrwt>
<pdfrwt beam="2">  1       -2 0.25108990E-01 0.46469454E+03</pdfrwt>
<totfact> 0.20383828E+02</totfact>
</mgrwt>
</event>
<event>
 4    1  0.4840632E-008  0.1007741E+04  0.7818608E-02  0.9300095E-01
          2   -1    0    0  501    0  0.00000000000E+00  0.00000000000E+00  0.10373944065E+04  0.10373944065E+04  0.25500000000E-02 0. -1.
         -2   -1    0    0    0  501 -0.00000000000E+00 -0.00000000000E+00 -0.19277483599E+04  0.19277483599E+04  0.25500000000E-02 0.  1.
    8880022    1    1    2    0    0 -0.53689893962E+03 -0.83898163071E+03 -0.14852904052E+04  0.17948899378E+04  0.15294330000E+03 0.  0.
    8880022    1    1    2    0    0  0.53689893962E+03  0.83898163071E+03  0.59493645179E+03  0.11702528285E+04  0.15294330000E+03 0.  0.
<mgrwt>
<rscale>  0 0.10077412E+04</rscale>
<asrwt>0</asrwt>
<pdfrwt beam="1">  1        2 0.15959914E+00 0.10077412E+04</pdfrwt>
<pdfrwt beam="2">  1       -2 0.29657667E+00 0.10077412E+04</pdfrwt>
<totfact> 0.79696675E-01</totfact>
</mgrwt>
</event>
<event>
 4    1  0.4840632E-008  0.6971859E+03  0.7818608E-02  0.9722057E-01
         -2   -1    0    0    0  501 -0.00000000000E+00  0.00000000000E+00  0.20289254515E+03  0.20289254516E+03  0.25500000000E-02 0.  1.
          2   -1    0    0  501    0  0.00000000000E+00 -0.00000000000E+00 -0.32156135250E+04  0.32156135250E+04  0.25500000000E-02 0. -1.
    8880022    1    1    2    0    0 -0.43809248842E+03  0.52033780616E+03 -0.23694592513E+04  0.24698998477E+04  0.15294330000E+03 0.  0.
    8880022    1    1    2    0    0  0.43809248842E+03 -0.52033780616E+03 -0.64326172859E+03  0.94860622252E+03  0.15294330000E+03 0.  0.
<mgrwt>
<rscale>  0 0.69718585E+03</rscale>
<asrwt>0</asrwt>
<pdfrwt beam="1">  1        2 0.49470974E+00 0.69718585E+03</pdfrwt>
<pdfrwt beam="2">  1       -2 0.31214240E-01 0.69718585E+03</pdfrwt>
<totfact> 0.13008500E+01</totfact>
</mgrwt>
</event>
<event>
 4    1  0.4840632E-008  0.5438124E+03  0.7818608E-02  0.1002936E+00
         -2   -1    0    0    0  501 -0.00000000000E+00  0.00000000000E+00  0.15202233359E+04  0.15202233359E+04  0.25500000000E-02 0.  1.
          2   -1    0    0  501    0  0.00000000000E+00 -0.00000000000E+00 -0.22118990065E+03  0.22118990067E+03  0.25500000000E-02 0. -1.
    8880022    1    1    2    0    0  0.50655469194E+03 -0.12546942451E+03  0.34724101032E+03  0.64521950115E+03  0.15294330000E+03 0.  0.
    8880022    1    1    2    0    0 -0.50655469194E+03  0.12546942451E+03  0.95179242496E+03  0.10961937355E+04  0.15294330000E+03 0.  0.
<mgrwt>
<rscale>  0 0.54381236E+03</rscale>
<asrwt>0</asrwt>
<pdfrwt beam="1">  1        2 0.34029216E-01 0.54381236E+03</pdfrwt>
<pdfrwt beam="2">  1       -2 0.23388051E+00 0.54381236E+03</pdfrwt>
<totfact> 0.13064083E+01</totfact>
</mgrwt>
</event>
<event>
 4    1  0.6566252E-008  0.4407259E+03  0.7818608E-02  0.1030524E+00
         -2   -1    0    0    0  501 -0.00000000000E+00  0.00000000000E+00  0.10825109203E+04  0.10825109203E+04  0.25500000000E-02 0.  1.
          2   -1    0    0  501    0  0.00000000000E+00 -0.00000000000E+00 -0.15678801794E+04  0.15678801794E+04  0.25500000000E-02 0. -1.
    8880022    1    1    2    0    0 -0.19546351608E+03 -0.36420001376E+03  0.10043773974E+04  0.10968196048E+04  0.15294330000E+03 0.  0.
    8880022    1    1    2    0    0  0.19546351608E+03  0.36420001376E+03 -0.14897466565E+04  0.15535714949E+04  0.15294330000E+03 0.  0.
<mgrwt>
<rscale>  0 0.44072587E+03</rscale>
<asrwt>0</asrwt>
<pdfrwt beam="1">  1        2 0.24121234E+00 0.44072587E+03</pdfrwt>
<pdfrwt beam="2">  1       -2 0.16654014E+00 0.44072587E+03</pdfrwt>
<totfact> 0.28896211E+00</totfact>
</mgrwt>
</event>
<event>
 4    1  0.4840632E-008  0.2174808E+03  0.7818608E-02  0.1135775E+00
         -2   -1    0    0    0  501 -0.00000000000E+00  0.00000000000E+00  0.86619416964E+03  0.86619416964E+03  0.25500000000E-02 0.  1.
          2   -1    0    0  501    0  0.00000000000E+00 -0.00000000000E+00 -0.16027775937E+04  0.16027775937E+04  0.25500000000E-02 0. -1.
    8880022    1    1    2    0    0  0.15400416033E+03 -0.13746325620E+02  0.84498339409E+03  0.87252210985E+03  0.15294330000E+03 0.  0.
    8880022    1    1    2    0    0 -0.15400416033E+03  0.13746325620E+02 -0.15815668182E+04  0.15964496535E+04  0.15294330000E+03 0.  0.
<mgrwt>
<rscale>  0 0.21748079E+03</rscale>
<asrwt>0</asrwt>
<pdfrwt beam="1">  1        2 0.24658117E+00 0.21748079E+03</pdfrwt>
<pdfrwt beam="2">  1       -2 0.13326064E+00 0.21748079E+03</pdfrwt>
<totfact> 0.54007752E+00</totfact>
</mgrwt>
</event>
<event>
 4    1  0.4840632E-008  0.2987871E+03  0.7818608E-02  0.1085849E+00
         -2   -1    0    0    0  501 -0.00000000000E+00  0.00000000000E+00  0.11232995841E+03  0.11232995844E+03  0.25500000000E-02 0.  1.
          2   -1    0    0  501    0  0.00000000000E+00 -0.00000000000E+00 -0.11880217258E+04  0.11880217258E+04  0.25500000000E-02 0. -1.
    8880022    1    1    2    0    0 -0.70191616252E+02 -0.24689108519E+03 -0.16376328299E+03  0.34072296196E+03  0.15294330000E+03 0.  0.
    8880022    1    1    2    0    0  0.70191616252E+02  0.24689108519E+03 -0.91192848441E+03  0.95962872228E+03  0.15294330000E+03 0.  0.
<mgrwt>
<rscale>  0 0.29878709E+03</rscale>
<asrwt>0</asrwt>
<pdfrwt beam="1">  1        2 0.18277256E+00 0.29878709E+03</pdfrwt>
<pdfrwt beam="2">  1       -2 0.17281533E-01 0.29878709E+03</pdfrwt>
<totfact> 0.54882664E+02</totfact>
</mgrwt>
</event>
<event>
 4    1  0.4840632E-008  0.1001471E+04  0.7818608E-02  0.9306933E-01
         -2   -1    0    0    0  501 -0.00000000000E+00  0.00000000000E+00  0.57374992420E+03  0.57374992420E+03  0.25500000000E-02 0.  1.
          2   -1    0    0  501    0  0.00000000000E+00 -0.00000000000E+00 -0.21475700298E+04  0.21475700298E+04  0.25500000000E-02 0. -1.
    8880022    1    1    2    0    0  0.38242343108E+03  0.91285483341E+03 -0.20003522542E+03  0.10212528443E+04  0.15294330000E+03 0.  0.
    8880022    1    1    2    0    0 -0.38242343108E+03 -0.91285483341E+03 -0.13737848802E+04  0.17000671097E+04  0.15294330000E+03 0.  0.
<mgrwt>
<rscale>  0 0.10014706E+04</rscale>
<asrwt>0</asrwt>
<pdfrwt beam="1">  1        2 0.33039539E+00 0.10014706E+04</pdfrwt>
<pdfrwt beam="2">  1       -2 0.88269220E-01 0.10014706E+04</pdfrwt>
<totfact> 0.61280606E+00</totfact>
</mgrwt>
</event>
<event>
 4    1  0.4840632E-008  0.4078210E+03  0.7818608E-02  0.1041105E+00
         -2   -1    0    0    0  501 -0.00000000000E+00  0.00000000000E+00  0.26482132892E+03  0.26482132893E+03  0.25500000000E-02 0.  1.
          2   -1    0    0  501    0  0.00000000000E+00 -0.00000000000E+00 -0.14591363792E+04  0.14591363792E+04  0.25500000000E-02 0. -1.
    8880022    1    1    2    0    0 -0.23836561503E+03 -0.29344194667E+03  0.53383591763E+02  0.41130013783E+03  0.15294330000E+03 0.  0.
    8880022    1    1    2    0    0  0.23836561503E+03  0.29344194667E+03 -0.12476986420E+04  0.13126575703E+04  0.15294330000E+03 0.  0.
<mgrwt>
<rscale>  0 0.40782103E+03</rscale>
<asrwt>0</asrwt>
<pdfrwt beam="1">  1        2 0.22448252E+00 0.40782103E+03</pdfrwt>
<pdfrwt beam="2">  1       -2 0.40741744E-01 0.40782103E+03</pdfrwt>
<totfact> 0.81269525E+01</totfact>
</mgrwt>
</event>
<event>
 4    1  0.4840632E-008  0.1026565E+04  0.7818608E-02  0.9279879E-01
          2   -1    0    0  501    0  0.00000000000E+00  0.00000000000E+00  0.11356113611E+04  0.11356113611E+04  0.25500000000E-02 0. -1.
         -2   -1    0    0    0  501 -0.00000000000E+00 -0.00000000000E+00 -0.15091328978E+04  0.15091328978E+04  0.25500000000E-02 0.  1.
    8880022    1    1    2    0    0  0.10079193477E+04 -0.12059623491E+03  0.63383871147E+03  0.12064775292E+04  0.15294330000E+03 0.  0.
    8880022    1    1    2    0    0 -0.10079193477E+04  0.12059623491E+03 -0.10073602481E+04  0.14382667297E+04  0.15294330000E+03 0.  0.
<mgrwt>
<rscale>  0 0.10265654E+04</rscale>
<asrwt>0</asrwt>
<pdfrwt beam="1">  1        2 0.17470944E+00 0.10265654E+04</pdfrwt>
<pdfrwt beam="2">  1       -2 0.23217429E+00 0.10265654E+04</pdfrwt>
<totfact> 0.17019610E+00</totfact>
</mgrwt>
</event>
<event>
 4    1  0.4840632E-008  0.8743741E+03  0.7818608E-02  0.9458194E-01
         -2   -1    0    0    0  501 -0.00000000000E+00  0.00000000000E+00  0.10795055656E+04  0.10795055656E+04  0.25500000000E-02 0.  1.
          2   -1    0    0  501    0  0.00000000000E+00 -0.00000000000E+00 -0.20920623377E+04  0.20920623377E+04  0.25500000000E-02 0. -1.
    8880022    1    1    2    0    0  0.78143441500E+03 -0.36124598695E+03  0.78345407994E+03  0.11740231499E+04  0.15294330000E+03 0.  0.
    8880022    1    1    2    0    0 -0.78143441500E+03  0.36124598695E+03 -0.17960108520E+04  0.19975447534E+04  0.15294330000E+03 0.  0.
<mgrwt>
<rscale>  0 0.87437410E+03</rscale>
<asrwt>0</asrwt>
<pdfrwt beam="1">  1        2 0.32185574E+00 0.87437410E+03</pdfrwt>
<pdfrwt beam="2">  1       -2 0.16607778E+00 0.87437410E+03</pdfrwt>
<totfact> 0.13748802E+00</totfact>
</mgrwt>
</event>
<event>
 4    1  0.4840632E-008  0.7844113E+03  0.7818608E-02  0.9582859E-01
         -2   -1    0    0    0  501 -0.00000000000E+00  0.00000000000E+00  0.59567585744E+03  0.59567585745E+03  0.25500000000E-02 0.  1.
          2   -1    0    0  501    0  0.00000000000E+00 -0.00000000000E+00 -0.22446639172E+04  0.22446639172E+04  0.25500000000E-02 0. -1.
    8880022    1    1    2    0    0 -0.41966998272E+03  0.64481508596E+03  0.21894093951E+03  0.81439313448E+03  0.15294330000E+03 0.  0.
    8880022    1    1    2    0    0  0.41966998272E+03 -0.64481508596E+03 -0.18679289993E+04  0.20259466402E+04  0.15294330000E+03 0.  0.
<mgrwt>
<rscale>  0 0.78441127E+03</rscale>
<asrwt>0</asrwt>
<pdfrwt beam="1">  1        2 0.34533291E+00 0.78441127E+03</pdfrwt>
<pdfrwt beam="2">  1       -2 0.91642441E-01 0.78441127E+03</pdfrwt>
<totfact> 0.51185863E+00</totfact>
</mgrwt>
</event>
<event>
 4    1  0.4840632E-008  0.4734922E+03  0.7818608E-02  0.1020939E+00
          2   -1    0    0  501    0  0.00000000000E+00  0.00000000000E+00  0.11916197257E+04  0.11916197257E+04  0.25500000000E-02 0. -1.
         -2   -1    0    0    0  501 -0.00000000000E+00 -0.00000000000E+00 -0.54118207817E+03  0.54118207818E+03  0.25500000000E-02 0.  1.
    8880022    1    1    2    0    0  0.36846625971E+03 -0.25502129832E+03  0.10249940898E+04  0.11290738613E+04  0.15294330000E+03 0.  0.
    8880022    1    1    2    0    0 -0.36846625971E+03  0.25502129832E+03 -0.37455644230E+03  0.60372794256E+03  0.15294330000E+03 0.  1.
<mgrwt>
<rscale>  0 0.47349224E+03</rscale>
<asrwt>0</asrwt>
<pdfrwt beam="1">  1        2 0.18332611E+00 0.47349224E+03</pdfrwt>
<pdfrwt beam="2">  1       -2 0.83258781E-01 0.47349224E+03</pdfrwt>
<totfact> 0.25590102E+01</totfact>
</mgrwt>
</event>
<event>
 4    1  0.4840632E-008  0.4724989E+03  0.7818608E-02  0.1021217E+00
          2   -1    0    0  501    0  0.00000000000E+00  0.00000000000E+00  0.12475164999E+04  0.12475164999E+04  0.25500000000E-02 0. -1.
         -2   -1    0    0    0  501 -0.00000000000E+00 -0.00000000000E+00 -0.24383875116E+03  0.24383875118E+03  0.25500000000E-02 0.  1.
    8880022    1    1    2    0    0  0.40566947270E+03  0.18787178065E+03  0.88647669947E+03  0.10045377637E+04  0.15294330000E+03 0.  0.
    8880022    1    1    2    0    0 -0.40566947270E+03 -0.18787178065E+03  0.11720104931E+03  0.48681748738E+03  0.15294330000E+03 0.  0.
<mgrwt>
<rscale>  0 0.47249887E+03</rscale>
<asrwt>0</asrwt>
<pdfrwt beam="1">  1        2 0.19192562E+00 0.47249887E+03</pdfrwt>
<pdfrwt beam="2">  1       -2 0.37513654E-01 0.47249887E+03</pdfrwt>
<totfact> 0.12398121E+02</totfact>
</mgrwt>
</event>
<event>
 4    1  0.4840632E-008  0.1260416E+04  0.7818608E-02  0.9061558E-01
         -2   -1    0    0    0  501 -0.00000000000E+00  0.00000000000E+00  0.18329161753E+04  0.18329161753E+04  0.25500000000E-02 0.  1.
          2   -1    0    0  501    0  0.00000000000E+00 -0.00000000000E+00 -0.26184011903E+04  0.26184011903E+04  0.25500000000E-02 0. -1.
    8880022    1    1    2    0    0  0.37388662417E+03 -0.11939286575E+04 -0.22131408019E+04  0.25468884367E+04  0.15294330000E+03 0.  0.
    8880022    1    1    2    0    0 -0.37388662417E+03  0.11939286575E+04  0.14276557868E+04  0.19044289290E+04  0.15294330000E+03 0.  0.
<mgrwt>
<rscale>  0 0.12604160E+04</rscale>
<asrwt>0</asrwt>
<pdfrwt beam="1">  1        2 0.40283095E+00 0.12604160E+04</pdfrwt>
<pdfrwt beam="2">  1       -2 0.28198710E+00 0.12604160E+04</pdfrwt>
<totfact> 0.11809444E-01</totfact>
</mgrwt>
</event>
<event>
 4    1  0.4840632E-008  0.8745088E+03  0.7818608E-02  0.9458020E-01
          2   -1    0    0  501    0  0.00000000000E+00  0.00000000000E+00  0.13732555616E+04  0.13732555616E+04  0.25500000000E-02 0. -1.
         -2   -1    0    0    0  501 -0.00000000000E+00 -0.00000000000E+00 -0.70641250486E+03  0.70641250486E+03  0.25500000000E-02 0.  1.
    8880022    1    1    2    0    0 -0.69483355621E+03 -0.50850791857E+03 -0.14495957369E+03  0.88644170993E+03  0.15294330000E+03 0.  0.
    8880022    1    1    2    0    0  0.69483355621E+03  0.50850791857E+03  0.81180263039E+03  0.11932263565E+04  0.15294330000E+03 0. -1.
<mgrwt>
<rscale>  0 0.87450879E+03</rscale>
<asrwt>0</asrwt>
<pdfrwt beam="1">  1        2 0.21127008E+00 0.87450879E+03</pdfrwt>
<pdfrwt beam="2">  1       -2 0.10867885E+00 0.87450879E+03</pdfrwt>
<totfact> 0.10214671E+01</totfact>
</mgrwt>
</event>
<event>
 4    1  0.4840632E-008  0.1840745E+03  0.7818608E-02  0.1163917E+00
         -2   -1    0    0    0  501 -0.00000000000E+00  0.00000000000E+00  0.92959489286E+03  0.92959489286E+03  0.25500000000E-02 0.  1.
          2   -1    0    0  501    0  0.00000000000E+00 -0.00000000000E+00 -0.21608553944E+04  0.21608553944E+04  0.25500000000E-02 0. -1.
    8880022    1    1    2    0    0  0.89803198893E+02 -0.49266218511E+02 -0.21477674088E+04  0.21556410346E+04  0.15294330000E+03 0.  0.
    8880022    1    1    2    0    0 -0.89803198893E+02  0.49266218511E+02  0.91650690724E+03  0.93480925266E+03  0.15294330000E+03 0.  1.
<mgrwt>
<rscale>  0 0.18407452E+03</rscale>
<asrwt>0</asrwt>
<pdfrwt beam="1">  1        2 0.33243929E+00 0.18407452E+03</pdfrwt>
<pdfrwt beam="2">  1       -2 0.14301460E+00 0.18407452E+03</pdfrwt>
<totfact> 0.23699009E+00</totfact>
</mgrwt>
</event>
<event>
 4    1  0.4840632E-008  0.1166987E+04  0.7818608E-02  0.9142254E-01
          2   -1    0    0  501    0  0.00000000000E+00  0.00000000000E+00  0.18170442623E+04  0.18170442623E+04  0.25500000000E-02 0. -1.
         -2   -1    0    0    0  501 -0.00000000000E+00 -0.00000000000E+00 -0.15716248037E+04  0.15716248037E+04  0.25500000000E-02 0.  1.
    8880022    1    1    2    0    0 -0.61299851403E+03 -0.98117261644E+03 -0.11027412608E+04  0.16055830165E+04  0.15294330000E+03 0.  0.
    8880022    1    1    2    0    0  0.61299851403E+03  0.98117261644E+03  0.13481607194E+04  0.17830860495E+04  0.15294330000E+03 0.  0.
<mgrwt>
<rscale>  0 0.11669869E+04</rscale>
<asrwt>0</asrwt>
<pdfrwt beam="1">  1        2 0.27954527E+00 0.11669869E+04</pdfrwt>
<pdfrwt beam="2">  1       -2 0.24178843E+00 0.11669869E+04</pdfrwt>
<totfact> 0.59500601E-01</totfact>
</mgrwt>
</event>
<event>
 4    1  0.4840632E-008  0.3217920E+03  0.7818608E-02  0.1074828E+00
          2   -1    0    0  501    0  0.00000000000E+00  0.00000000000E+00  0.19173759466E+04  0.19173759467E+04  0.25500000000E-02 0. -1.
         -2   -1    0    0    0  501 -0.00000000000E+00 -0.00000000000E+00 -0.89413438073E+02  0.89413438109E+02  0.25500000000E-02 0.  1.
    8880022    1    1    2    0    0  0.12845244459E+03  0.25230621937E+03  0.28256366749E+03  0.42824331641E+03  0.15294330000E+03 0.  0.
    8880022    1    1    2    0    0 -0.12845244459E+03 -0.25230621937E+03  0.15453988411E+04  0.15785460683E+04  0.15294330000E+03 0.  0.
<mgrwt>
<rscale>  0 0.32179203E+03</rscale>
<asrwt>0</asrwt>
<pdfrwt beam="1">  1        2 0.29498092E+00 0.32179203E+03</pdfrwt>
<pdfrwt beam="2">  1       -2 0.13755913E-01 0.32179203E+03</pdfrwt>
<totfact> 0.32269921E+02</totfact>
</mgrwt>
</event>
<event>
 4    1  0.4840632E-008  0.4344536E+03  0.7818608E-02  0.1032462E+00
         -2   -1    0    0    0  501 -0.00000000000E+00  0.00000000000E+00  0.25014173549E+03  0.25014173550E+03  0.25500000000E-02 0.  1.
          2   -1    0    0  501    0  0.00000000000E+00 -0.00000000000E+00 -0.20461817014E+04  0.20461817014E+04  0.25500000000E-02 0. -1.
    8880022    1    1    2    0    0  0.21795768778E+03  0.34329683664E+03 -0.18102337670E+04  0.18616380464E+04  0.15294330000E+03 0.  0.
    8880022    1    1    2    0    0 -0.21795768778E+03 -0.34329683664E+03  0.14193801067E+02  0.43468539049E+03  0.15294330000E+03 0.  0.
<mgrwt>
<rscale>  0 0.43445359E+03</rscale>
<asrwt>0</asrwt>
<pdfrwt beam="1">  1        2 0.31479717E+00 0.43445359E+03</pdfrwt>
<pdfrwt beam="2">  1       -2 0.38483345E-01 0.43445359E+03</pdfrwt>
<totfact> 0.43638160E+01</totfact>
</mgrwt>
</event>
<event>
 4    1  0.5869162E-008  0.7605349E+03  0.7818608E-02  0.9618966E-01
          2   -1    0    0  501    0  0.00000000000E+00  0.00000000000E+00  0.14950285353E+04  0.14950285353E+04  0.25500000000E-02 0. -1.
         -2   -1    0    0    0  501 -0.00000000000E+00 -0.00000000000E+00 -0.24778638333E+04  0.24778638333E+04  0.25500000000E-02 0.  1.
    8880022    1    1    2    0    0 -0.60896190978E+03  0.42917013865E+03 -0.23162050255E+04  0.24378718154E+04  0.15294330000E+03 0.  0.
    8880022    1    1    2    0    0  0.60896190978E+03 -0.42917013865E+03  0.13333697274E+04  0.15350205531E+04  0.15294330000E+03 0.  0.
<mgrwt>
<rscale>  0 0.76053486E+03</rscale>
<asrwt>0</asrwt>
<pdfrwt beam="1">  1        2 0.23000439E+00 0.76053486E+03</pdfrwt>
<pdfrwt beam="2">  1       -2 0.38120982E+00 0.76053486E+03</pdfrwt>
<totfact> 0.13459050E-01</totfact>
</mgrwt>
</event>
<event>
 4    1  0.4840632E-008  0.2704958E+03  0.7818608E-02  0.1100996E+00
         -2   -1    0    0    0  501 -0.00000000000E+00  0.00000000000E+00  0.65576282097E+02  0.65576282147E+02  0.25500000000E-02 0.  1.
          2   -1    0    0  501    0  0.00000000000E+00 -0.00000000000E+00 -0.26705597128E+04  0.26705597128E+04  0.25500000000E-02 0. -1.
    8880022    1    1    2    0    0 -0.20615197166E+03  0.85309522035E+02 -0.23463522128E+04  0.23618926117E+04  0.15294330000E+03 0. -1.
    8880022    1    1    2    0    0  0.20615197166E+03 -0.85309522035E+02 -0.25863121789E+03  0.37424338317E+03  0.15294330000E+03 0.  0.
<mgrwt>
<rscale>  0 0.27049585E+03</rscale>
<asrwt>0</asrwt>
<pdfrwt beam="1">  1        2 0.41085526E+00 0.27049585E+03</pdfrwt>
<pdfrwt beam="2">  1       -2 0.10088661E-01 0.27049585E+03</pdfrwt>
<totfact> 0.21156680E+02</totfact>
</mgrwt>
</event>
<event>
 4    1  0.4840632E-008  0.3472988E+03  0.7818608E-02  0.1063729E+00
         -2   -1    0    0    0  501 -0.00000000000E+00  0.00000000000E+00  0.16497485152E+03  0.16497485154E+03  0.25500000000E-02 0.  1.
          2   -1    0    0  501    0  0.00000000000E+00 -0.00000000000E+00 -0.20024971263E+04  0.20024971263E+04  0.25500000000E-02 0. -1.
    8880022    1    1    2    0    0 -0.15409610645E+03  0.27107043996E+03 -0.55236550460E+02  0.35166393469E+03  0.15294330000E+03 0.  0.
    8880022    1    1    2    0    0  0.15409610645E+03 -0.27107043996E+03 -0.17822857243E+04  0.18158080431E+04  0.15294330000E+03 0.  0.
<mgrwt>
<rscale>  0 0.34729879E+03</rscale>
<asrwt>0</asrwt>
<pdfrwt beam="1">  1        2 0.30807646E+00 0.34729879E+03</pdfrwt>
<pdfrwt beam="2">  1       -2 0.25380748E-01 0.34729879E+03</pdfrwt>
<totfact> 0.10138982E+02</totfact>
</mgrwt>
</event>
<event>
 4    1  0.4840632E-008  0.5918283E+03  0.7818608E-02  0.9922506E-01
          2   -1    0    0  501    0  0.00000000000E+00  0.00000000000E+00  0.13060372743E+04  0.13060372743E+04  0.25500000000E-02 0. -1.
         -2   -1    0    0    0  501 -0.00000000000E+00 -0.00000000000E+00 -0.36452924888E+03  0.36452924889E+03  0.25500000000E-02 0.  1.
    8880022    1    1    2    0    0 -0.21070674668E+03 -0.53148070389E+03  0.90017034267E+03  0.10772963244E+04  0.15294330000E+03 0.  0.
    8880022    1    1    2    0    0  0.21070674668E+03  0.53148070389E+03  0.41337682707E+02  0.59327019876E+03  0.15294330000E+03 0.  0.
<mgrwt>
<rscale>  0 0.59182829E+03</rscale>
<asrwt>0</asrwt>
<pdfrwt beam="1">  1        2 0.20092881E+00 0.59182829E+03</pdfrwt>
<pdfrwt beam="2">  1       -2 0.56081422E-01 0.59182829E+03</pdfrwt>
<totfact> 0.50760849E+01</totfact>
</mgrwt>
</event>
<event>
 4    1  0.4840632E-008  0.5999983E+03  0.7818608E-02  0.9905409E-01
          2   -1    0    0  501    0  0.00000000000E+00  0.00000000000E+00  0.21395780721E+04  0.21395780721E+04  0.25500000000E-02 0. -1.
         -2   -1    0    0    0  501 -0.00000000000E+00 -0.00000000000E+00 -0.35796729022E+03  0.35796729022E+03  0.25500000000E-02 0.  1.
    8880022    1    1    2    0    0  0.14906660136E+02  0.57998633576E+03  0.17998970724E+04  0.18972684265E+04  0.15294330000E+03 0.  0.
    8880022    1    1    2    0    0 -0.14906660136E+02 -0.57998633576E+03 -0.18286290504E+02  0.60027693577E+03  0.15294330000E+03 0.  0.
<mgrwt>
<rscale>  0 0.59999834E+03</rscale>
<asrwt>0</asrwt>
<pdfrwt beam="1">  1        2 0.32916586E+00 0.59999834E+03</pdfrwt>
<pdfrwt beam="2">  1       -2 0.55071891E-01 0.59999834E+03</pdfrwt>
<totfact> 0.18403092E+01</totfact>
</mgrwt>
</event>
<event>
 4    1  0.4840632E-008  0.8643039E+03  0.7818608E-02  0.9471337E-01
          2   -1    0    0  501    0  0.00000000000E+00  0.00000000000E+00  0.22492919545E+04  0.22492919545E+04  0.25500000000E-02 0. -1.
         -2   -1    0    0    0  501 -0.00000000000E+00 -0.00000000000E+00 -0.43621481948E+03  0.43621481948E+03  0.25500000000E-02 0.  1.
    8880022    1    1    2    0    0 -0.82937508366E+03 -0.18912045701E+03  0.15624923378E+04  0.17856101298E+04  0.15294330000E+03 0.  0.
    8880022    1    1    2    0    0  0.82937508366E+03  0.18912045701E+03  0.25058479714E+03  0.89989664419E+03  0.15294330000E+03 0.  0.
<mgrwt>
<rscale>  0 0.86430390E+03</rscale>
<asrwt>0</asrwt>
<pdfrwt beam="1">  1        2 0.34604492E+00 0.86430390E+03</pdfrwt>
<pdfrwt beam="2">  1       -2 0.67109972E-01 0.86430390E+03</pdfrwt>
<totfact> 0.10108533E+01</totfact>
</mgrwt>
</event>
<event>
 4    1  0.4840632E-008  0.1158851E+04  0.7818608E-02  0.9149656E-01
          2   -1    0    0  501    0  0.00000000000E+00  0.00000000000E+00  0.16554581738E+04  0.16554581738E+04  0.25500000000E-02 0. -1.
         -2   -1    0    0    0  501 -0.00000000000E+00 -0.00000000000E+00 -0.87446254190E+03  0.87446254191E+03  0.25500000000E-02 0.  1.
    8880022    1    1    2    0    0  0.73830772964E+03  0.88002640879E+03  0.50309043543E+02  0.11599428592E+04  0.15294330000E+03 0.  0.
    8880022    1    1    2    0    0 -0.73830772964E+03 -0.88002640879E+03  0.73068658835E+03  0.13699778565E+04  0.15294330000E+03 0.  0.
<mgrwt>
<rscale>  0 0.11588513E+04</rscale>
<asrwt>0</asrwt>
<pdfrwt beam="1">  1        2 0.25468587E+00 0.11588513E+04</pdfrwt>
<pdfrwt beam="2">  1       -2 0.13453270E+00 0.11588513E+04</pdfrwt>
<totfact> 0.40397342E+00</totfact>
</mgrwt>
</event>
<event>
 4    1  0.4840632E-008  0.9163006E+03  0.7818608E-02  0.9405431E-01
         -2   -1    0    0    0  501 -0.00000000000E+00  0.00000000000E+00  0.63892898451E+03  0.63892898451E+03  0.25500000000E-02 0.  1.
          2   -1    0    0  501    0  0.00000000000E+00 -0.00000000000E+00 -0.15762008984E+04  0.15762008984E+04  0.25500000000E-02 0. -1.
    8880022    1    1    2    0    0 -0.87071186021E+03 -0.24098965271E+03 -0.92029461210E+03  0.12986720072E+04  0.15294330000E+03 0.  0.
    8880022    1    1    2    0    0  0.87071186021E+03  0.24098965271E+03 -0.16977301833E+02  0.91645787575E+03  0.15294330000E+03 0.  0.
<mgrwt>
<rscale>  0 0.91630061E+03</rscale>
<asrwt>0</asrwt>
<pdfrwt beam="1">  1        2 0.24249245E+00 0.91630061E+03</pdfrwt>
<pdfrwt beam="2">  1       -2 0.98296767E-01 0.91630061E+03</pdfrwt>
<totfact> 0.99433605E+00</totfact>
</mgrwt>
</event>
<event>
 4    1  0.4840632E-008  0.5719967E+03  0.7818608E-02  0.9965270E-01
         -2   -1    0    0    0  501 -0.00000000000E+00  0.00000000000E+00  0.16842409977E+04  0.16842409977E+04  0.25500000000E-02 0.  1.
          2   -1    0    0  501    0  0.00000000000E+00 -0.00000000000E+00 -0.25755220906E+03  0.25755220908E+03  0.25500000000E-02 0. -1.
    8880022    1    1    2    0    0  0.31370437534E+03  0.45318662506E+03  0.23204381131E+03  0.61727184904E+03  0.15294330000E+03 0.  0.
    8880022    1    1    2    0    0 -0.31370437534E+03 -0.45318662506E+03  0.11946449774E+04  0.13245213578E+04  0.15294330000E+03 0.  0.
<mgrwt>
<rscale>  0 0.57199668E+03</rscale>
<asrwt>0</asrwt>
<pdfrwt beam="1">  1        2 0.39623417E-01 0.57199668E+03</pdfrwt>
<pdfrwt beam="2">  1       -2 0.25911400E+00 0.57199668E+03</pdfrwt>
<totfact> 0.77406183E+00</totfact>
</mgrwt>
</event>
<event>
 4    1  0.4840632E-008  0.1730121E+04  0.7818608E-02  0.8744370E-01
         -2   -1    0    0    0  501 -0.00000000000E+00  0.00000000000E+00  0.18062835308E+04  0.18062835308E+04  0.25500000000E-02 0.  1.
          2   -1    0    0  501    0  0.00000000000E+00 -0.00000000000E+00 -0.16764204666E+04  0.16764204666E+04  0.25500000000E-02 0. -1.
    8880022    1    1    2    0    0 -0.54517358820E+03  0.16348428877E+04  0.25153789364E+03  0.17483101766E+04  0.15294330000E+03 0.  0.
    8880022    1    1    2    0    0  0.54517358820E+03 -0.16348428877E+04 -0.12167482939E+03  0.17343938208E+04  0.15294330000E+03 0.  0.
<mgrwt>
<rscale>  0 0.17301206E+04</rscale>
<asrwt>0</asrwt>
<pdfrwt beam="1">  1        2 0.25791084E+00 0.17301206E+04</pdfrwt>
<pdfrwt beam="2">  1       -2 0.27788977E+00 0.17301206E+04</pdfrwt>
<totfact> 0.40247158E-01</totfact>
</mgrwt>
</event>
<event>
 4    1  0.4840632E-008  0.2715172E+03  0.7818608E-02  0.1100414E+00
          2   -1    0    0  501    0  0.00000000000E+00  0.00000000000E+00  0.19667030289E+04  0.19667030289E+04  0.25500000000E-02 0. -1.
         -2   -1    0    0    0  501 -0.00000000000E+00 -0.00000000000E+00 -0.99143644162E+02  0.99143644194E+02  0.25500000000E-02 0.  1.
    8880022    1    1    2    0    0  0.18992692593E+03  0.11940559466E+03  0.17483585455E+04  0.17693160232E+04  0.15294330000E+03 0.  0.
    8880022    1    1    2    0    0 -0.18992692593E+03 -0.11940559466E+03  0.11920083917E+03  0.29653064985E+03  0.15294330000E+03 0.  0.
<mgrwt>
<rscale>  0 0.27151719E+03</rscale>
<asrwt>0</asrwt>
<pdfrwt beam="1">  1        2 0.30256969E+00 0.27151719E+03</pdfrwt>
<pdfrwt beam="2">  1       -2 0.15252869E-01 0.27151719E+03</pdfrwt>
<totfact> 0.25868971E+02</totfact>
</mgrwt>
</event>
<event>
 4    1  0.4840632E-008  0.8659327E+03  0.7818608E-02  0.9469199E-01
         -2   -1    0    0    0  501 -0.00000000000E+00  0.00000000000E+00  0.39503138503E+03  0.39503138504E+03  0.25500000000E-02 0.  1.
          2   -1    0    0  501    0  0.00000000000E+00 -0.00000000000E+00 -0.41565113734E+04  0.41565113734E+04  0.25500000000E-02 0. -1.
    8880022    1    1    2    0    0  0.80527169731E+03 -0.27925834320E+03 -0.20325635417E+03  0.88946755268E+03  0.15294330000E+03 0.  0.
    8880022    1    1    2    0    0 -0.80527169731E+03  0.27925834320E+03 -0.35582236342E+04  0.36620752058E+04  0.15294330000E+03 0.  0.
<mgrwt>
<rscale>  0 0.86593267E+03</rscale>
<asrwt>0</asrwt>
<pdfrwt beam="1">  1        2 0.63946326E+00 0.86593267E+03</pdfrwt>
<pdfrwt beam="2">  1       -2 0.60774062E-01 0.86593267E+03</pdfrwt>
<totfact> 0.69668910E-01</totfact>
</mgrwt>
</event>
<event>
 4    1  0.4936801E-008  0.8067202E+03  0.7818608E-02  0.9550341E-01
          2   -1    0    0  501    0  0.00000000000E+00  0.00000000000E+00  0.17070243981E+04  0.17070243981E+04  0.25500000000E-02 0. -1.
         -2   -1    0    0    0  501 -0.00000000000E+00 -0.00000000000E+00 -0.98387582157E+03  0.98387582157E+03  0.25500000000E-02 0.  1.
    8880022    1    1    2    0    0 -0.72966498469E+03  0.30821231385E+03 -0.69141147713E+03  0.10624722603E+04  0.15294330000E+03 0.  0.
    8880022    1    1    2    0    0  0.72966498469E+03 -0.30821231385E+03  0.14145600537E+04  0.16284279593E+04  0.15294330000E+03 0.  0.
<mgrwt>
<rscale>  0 0.80672020E+03</rscale>
<asrwt>0</asrwt>
<pdfrwt beam="1">  1        2 0.26261913E+00 0.80672020E+03</pdfrwt>
<pdfrwt beam="2">  1       -2 0.15136551E+00 0.80672020E+03</pdfrwt>
<totfact> 0.29040634E+00</totfact>
</mgrwt>
</event>
<event>
 4    1  0.4840632E-008  0.1004733E+04  0.7818608E-02  0.9303369E-01
          2   -1    0    0  501    0  0.00000000000E+00  0.00000000000E+00  0.44254637086E+04  0.44254637086E+04  0.25500000000E-02 0. -1.
         -2   -1    0    0    0  501 -0.00000000000E+00 -0.00000000000E+00 -0.59491165626E+03  0.59491165627E+03  0.25500000000E-02 0.  1.
    8880022    1    1    2    0    0 -0.87945971100E+03  0.46113719714E+03  0.38863191713E+04  0.40140958200E+04  0.15294330000E+03 0.  0.
    8880022    1    1    2    0    0  0.87945971100E+03 -0.46113719714E+03 -0.55767118970E+02  0.10062795449E+04  0.15294330000E+03 0.  0.
<mgrwt>
<rscale>  0 0.10047331E+04</rscale>
<asrwt>0</asrwt>
<pdfrwt beam="1">  1        2 0.68084058E+00 0.10047331E+04</pdfrwt>
<pdfrwt beam="2">  1       -2 0.91524868E-01 0.10047331E+04</pdfrwt>
<totfact> 0.15776017E-01</totfact>
</mgrwt>
</event>
<event>
 4    1  0.4840632E-008  0.2028856E+03  0.7818608E-02  0.1147327E+00
         -2   -1    0    0    0  501 -0.00000000000E+00  0.00000000000E+00  0.57088312666E+02  0.57088312723E+02  0.25500000000E-02 0.  1.
          2   -1    0    0  501    0  0.00000000000E+00 -0.00000000000E+00 -0.22394084565E+04  0.22394084565E+04  0.25500000000E-02 0. -1.
    8880022    1    1    2    0    0 -0.23655476541E+02  0.13119196314E+03 -0.20366540184E+04  0.20467345105E+04  0.15294330000E+03 0.  0.
    8880022    1    1    2    0    0  0.23655476541E+02 -0.13119196314E+03 -0.14566612539E+03  0.24976225869E+03  0.15294330000E+03 0.  1.
<mgrwt>
<rscale>  0 0.20288560E+03</rscale>
<asrwt>0</asrwt>
<pdfrwt beam="1">  1        2 0.34452431E+00 0.20288560E+03</pdfrwt>
<pdfrwt beam="2">  1       -2 0.87828190E-02 0.20288560E+03</pdfrwt>
<totfact> 0.46044076E+02</totfact>
</mgrwt>
</event>
<event>
 4    1  0.4840632E-008  0.4724599E+03  0.7818608E-02  0.1021228E+00
          2   -1    0    0  501    0  0.00000000000E+00  0.00000000000E+00  0.57982290300E+03  0.57982290301E+03  0.25500000000E-02 0. -1.
         -2   -1    0    0    0  501 -0.00000000000E+00 -0.00000000000E+00 -0.72776994407E+03  0.72776994407E+03  0.25500000000E-02 0.  1.
    8880022    1    1    2    0    0  0.26887113772E+03  0.35712039311E+03 -0.52267923417E+03  0.70456504222E+03  0.15294330000E+03 0.  0.
    8880022    1    1    2    0    0 -0.26887113772E+03 -0.35712039311E+03  0.37473219310E+03  0.60302780486E+03  0.15294330000E+03 0.  0.
<mgrwt>
<rscale>  0 0.47245986E+03</rscale>
<asrwt>0</asrwt>
<pdfrwt beam="1">  1        2 0.89203523E-01 0.47245986E+03</pdfrwt>
<pdfrwt beam="2">  1       -2 0.11196461E+00 0.47245986E+03</pdfrwt>
<totfact> 0.33844643E+01</totfact>
</mgrwt>
</event>
<event>
 4    1  0.4840632E-008  0.2318265E+03  0.7818608E-02  0.1125361E+00
         -2   -1    0    0    0  501 -0.00000000000E+00  0.00000000000E+00  0.61759840039E+02  0.61759840091E+02  0.25500000000E-02 0.  1.
          2   -1    0    0  501    0  0.00000000000E+00 -0.00000000000E+00 -0.23348219856E+04  0.23348219856E+04  0.25500000000E-02 0. -1.
    8880022    1    1    2    0    0 -0.15996506220E+03  0.69014788022E+02 -0.18746181094E+03  0.29813662248E+03  0.15294330000E+03 0.  0.
    8880022    1    1    2    0    0  0.15996506220E+03 -0.69014788022E+02 -0.20856003346E+04  0.20984452032E+04  0.15294330000E+03 0.  0.
<mgrwt>
<rscale>  0 0.23182648E+03</rscale>
<asrwt>0</asrwt>
<pdfrwt beam="1">  1        2 0.35920331E+00 0.23182648E+03</pdfrwt>
<pdfrwt beam="2">  1       -2 0.95015157E-02 0.23182648E+03</pdfrwt>
<totfact> 0.35914055E+02</totfact>
</mgrwt>
</event>
<event>
 4    1  0.4840632E-008  0.5857610E+03  0.7818608E-02  0.9935396E-01
          2   -1    0    0  501    0  0.00000000000E+00  0.00000000000E+00  0.17167599982E+04  0.17167599982E+04  0.25500000000E-02 0. -1.
         -2   -1    0    0    0  501 -0.00000000000E+00 -0.00000000000E+00 -0.24377649646E+03  0.24377649647E+03  0.25500000000E-02 0.  1.
    8880022    1    1    2    0    0 -0.55016627346E+03  0.13054249823E+03  0.32043693044E+03  0.66767937792E+03  0.15294330000E+03 0.  0.
    8880022    1    1    2    0    0  0.55016627346E+03 -0.13054249823E+03  0.11525465713E+04  0.12928571168E+04  0.15294330000E+03 0.  0.
<mgrwt>
<rscale>  0 0.58576098E+03</rscale>
<asrwt>0</asrwt>
<pdfrwt beam="1">  1        2 0.26411693E+00 0.58576098E+03</pdfrwt>
<pdfrwt beam="2">  1       -2 0.37504075E-01 0.58576098E+03</pdfrwt>
<totfact> 0.67188046E+01</totfact>
</mgrwt>
</event>
<event>
 4    1  0.4840632E-008  0.3280874E+03  0.7818608E-02  0.1071986E+00
         -2   -1    0    0    0  501 -0.00000000000E+00  0.00000000000E+00  0.15498471788E+03  0.15498471790E+03  0.25500000000E-02 0.  1.
          2   -1    0    0  501    0  0.00000000000E+00 -0.00000000000E+00 -0.26233930365E+04  0.26233930365E+04  0.25500000000E-02 0. -1.
    8880022    1    1    2    0    0  0.22697226650E+03 -0.18092337723E+03 -0.24253925739E+04  0.24474824757E+04  0.15294330000E+03 0.  0.
    8880022    1    1    2    0    0 -0.22697226650E+03  0.18092337723E+03 -0.43015744734E+02  0.33089527875E+03  0.15294330000E+03 0.  0.
<mgrwt>
<rscale>  0 0.32808738E+03</rscale>
<asrwt>0</asrwt>
<pdfrwt beam="1">  1        2 0.40359890E+00 0.32808738E+03</pdfrwt>
<pdfrwt beam="2">  1       -2 0.23843805E-01 0.32808738E+03</pdfrwt>
<totfact> 0.52392775E+01</totfact>
</mgrwt>
</event>
<event>
 4    1  0.4840632E-008  0.9986757E+03  0.7818608E-02  0.9309999E-01
         -2   -1    0    0    0  501 -0.00000000000E+00  0.00000000000E+00  0.40644652966E+03  0.40644652967E+03  0.25500000000E-02 0.  1.
          2   -1    0    0  501    0  0.00000000000E+00 -0.00000000000E+00 -0.39805932921E+04  0.39805932921E+04  0.25500000000E-02 0. -1.
    8880022    1    1    2    0    0  0.96727725489E+03  0.19579612882E+03 -0.31455516658E+04  0.33002800407E+04  0.15294330000E+03 0.  0.
    8880022    1    1    2    0    0 -0.96727725489E+03 -0.19579612882E+03 -0.42859509668E+03  0.10867597811E+04  0.15294330000E+03 0.  0.
<mgrwt>
<rscale>  0 0.99867566E+03</rscale>
<asrwt>0</asrwt>
<pdfrwt beam="1">  1        2 0.61239894E+00 0.99867566E+03</pdfrwt>
<pdfrwt beam="2">  1       -2 0.62530238E-01 0.99867566E+03</pdfrwt>
<totfact> 0.88663867E-01</totfact>
</mgrwt>
</event>
<event>
 4    1  0.4840632E-008  0.7308767E+03  0.7818608E-02  0.9665839E-01
          2   -1    0    0  501    0  0.00000000000E+00  0.00000000000E+00  0.81253136888E+03  0.81253136889E+03  0.25500000000E-02 0. -1.
         -2   -1    0    0    0  501 -0.00000000000E+00 -0.00000000000E+00 -0.10157303956E+04  0.10157303956E+04  0.25500000000E-02 0.  1.
    8880022    1    1    2    0    0 -0.69376525952E+03 -0.17169389864E+03 -0.64452990640E+03  0.97447395214E+03  0.15294330000E+03 0.  0.
    8880022    1    1    2    0    0  0.69376525952E+03  0.17169389864E+03  0.44133087968E+03  0.85378781235E+03  0.15294330000E+03 0.  0.
<mgrwt>
<rscale>  0 0.73087665E+03</rscale>
<asrwt>0</asrwt>
<pdfrwt beam="1">  1        2 0.12500483E+00 0.73087665E+03</pdfrwt>
<pdfrwt beam="2">  1       -2 0.15626621E+00 0.73087665E+03</pdfrwt>
<totfact> 0.92333153E+00</totfact>
</mgrwt>
</event>
<event>
 4    1  0.4840632E-008  0.1666244E+03  0.7818608E-02  0.1181414E+00
          2   -1    0    0  501    0  0.00000000000E+00  0.00000000000E+00  0.77195887532E+03  0.77195887533E+03  0.25500000000E-02 0. -1.
         -2   -1    0    0    0  501 -0.00000000000E+00 -0.00000000000E+00 -0.37151459931E+03  0.37151459932E+03  0.25500000000E-02 0.  1.
    8880022    1    1    2    0    0 -0.63841719784E+02  0.17212879754E+02 -0.34313621874E+03  0.38145270485E+03  0.15294330000E+03 0.  0.
    8880022    1    1    2    0    0  0.63841719784E+02 -0.17212879754E+02  0.74358049475E+03  0.76202076980E+03  0.15294330000E+03 0. -1.
<mgrwt>
<rscale>  0 0.16662443E+03</rscale>
<asrwt>0</asrwt>
<pdfrwt beam="1">  1        2 0.11876290E+00 0.16662443E+03</pdfrwt>
<pdfrwt beam="2">  1       -2 0.57156093E-01 0.16662443E+03</pdfrwt>
<totfact> 0.11228700E+02</totfact>
</mgrwt>
</event>
<event>
 4    1  0.4840632E-008  0.8654978E+03  0.7818608E-02  0.9469769E-01
         -2   -1    0    0    0  501 -0.00000000000E+00  0.00000000000E+00  0.66569642274E+03  0.66569642274E+03  0.25500000000E-02 0.  1.
          2   -1    0    0  501    0  0.00000000000E+00 -0.00000000000E+00 -0.44789332818E+04  0.44789332818E+04  0.25500000000E-02 0. -1.
    8880022    1    1    2    0    0 -0.60333437143E+03 -0.60140044291E+03 -0.41324726759E+04  0.42221341673E+04  0.15294330000E+03 0.  0.
    8880022    1    1    2    0    0  0.60333437143E+03  0.60140044291E+03  0.31923581684E+03  0.92249553725E+03  0.15294330000E+03 0.  0.
<mgrwt>
<rscale>  0 0.86549784E+03</rscale>
<asrwt>0</asrwt>
<pdfrwt beam="1">  1        2 0.68906664E+00 0.86549784E+03</pdfrwt>
<pdfrwt beam="2">  1       -2 0.10241484E+00 0.86549784E+03</pdfrwt>
<totfact> 0.11144801E-01</totfact>
</mgrwt>
</event>
<event>
 4    1  0.4840632E-008  0.2270277E+03  0.7818608E-02  0.1128749E+00
          2   -1    0    0  501    0  0.00000000000E+00  0.00000000000E+00  0.74730930631E+03  0.74730930632E+03  0.25500000000E-02 0. -1.
         -2   -1    0    0    0  501 -0.00000000000E+00 -0.00000000000E+00 -0.18904183221E+03  0.18904183223E+03  0.25500000000E-02 0.  1.
    8880022    1    1    2    0    0  0.77872640594E+02  0.14861284387E+03  0.65225602382E+03  0.69063702416E+03  0.15294330000E+03 0.  0.
    8880022    1    1    2    0    0 -0.77872640594E+02 -0.14861284387E+03 -0.93988549715E+02  0.24571411439E+03  0.15294330000E+03 0.  1.
<mgrwt>
<rscale>  0 0.22702770E+03</rscale>
<asrwt>0</asrwt>
<pdfrwt beam="1">  1        2 0.11497066E+00 0.22702770E+03</pdfrwt>
<pdfrwt beam="2">  1       -2 0.29083359E-01 0.22702770E+03</pdfrwt>
<totfact> 0.42275637E+02</totfact>
</mgrwt>
</event>
<event>
 4    1  0.4840632E-008  0.8192705E+03  0.7818608E-02  0.9532535E-01
          2   -1    0    0  501    0  0.00000000000E+00  0.00000000000E+00  0.11786973651E+04  0.11786973651E+04  0.25500000000E-02 0. -1.
         -2   -1    0    0    0  501 -0.00000000000E+00 -0.00000000000E+00 -0.12168574584E+04  0.12168574584E+04  0.25500000000E-02 0.  1.
    8880022    1    1    2    0    0 -0.54843002686E+03 -0.58909847933E+03  0.85458819750E+03  0.11838602760E+04  0.15294330000E+03 0.  0.
    8880022    1    1    2    0    0  0.54843002686E+03  0.58909847933E+03 -0.89274829078E+03  0.12116945475E+04  0.15294330000E+03 0.  0.
<mgrwt>
<rscale>  0 0.81927051E+03</rscale>
<asrwt>0</asrwt>
<pdfrwt beam="1">  1        2 0.18133806E+00 0.81927051E+03</pdfrwt>
<pdfrwt beam="2">  1       -2 0.18720884E+00 0.81927051E+03</pdfrwt>
<totfact> 0.32032288E+00</totfact>
</mgrwt>
</event>
<event>
 4    1  0.4840632E-008  0.1074741E+04  0.7818608E-02  0.9230167E-01
         -2   -1    0    0    0  501 -0.00000000000E+00  0.00000000000E+00  0.11224818074E+04  0.11224818074E+04  0.25500000000E-02 0.  1.
          2   -1    0    0  501    0  0.00000000000E+00 -0.00000000000E+00 -0.27574793612E+04  0.27574793612E+04  0.25500000000E-02 0. -1.
    8880022    1    1    2    0    0  0.71498300044E+02  0.10613971319E+04 -0.23534222220E+04  0.25872115659E+04  0.15294330000E+03 0.  0.
    8880022    1    1    2    0    0 -0.71498300044E+02 -0.10613971319E+04  0.71842466816E+03  0.12927496027E+04  0.15294330000E+03 0.  0.
<mgrwt>
<rscale>  0 0.10747407E+04</rscale>
<asrwt>0</asrwt>
<pdfrwt beam="1">  1        2 0.42422759E+00 0.10747407E+04</pdfrwt>
<pdfrwt beam="2">  1       -2 0.17268951E+00 0.10747407E+04</pdfrwt>
<totfact> 0.49961513E-01</totfact>
</mgrwt>
</event>
<event>
 4    1  0.4840632E-008  0.7349769E+03  0.7818608E-02  0.9659219E-01
         -2   -1    0    0    0  501 -0.00000000000E+00  0.00000000000E+00  0.40726742222E+03  0.40726742223E+03  0.25500000000E-02 0.  1.
          2   -1    0    0  501    0  0.00000000000E+00 -0.00000000000E+00 -0.19913346923E+04  0.19913346923E+04  0.25500000000E-02 0. -1.
    8880022    1    1    2    0    0 -0.61146217876E+03  0.37803888600E+03 -0.14850641647E+04  0.16569872122E+04  0.15294330000E+03 0. -1.
    8880022    1    1    2    0    0  0.61146217876E+03 -0.37803888600E+03 -0.99003105421E+02  0.74161490228E+03  0.15294330000E+03 0.  0.
<mgrwt>
<rscale>  0 0.73497690E+03</rscale>
<asrwt>0</asrwt>
<pdfrwt beam="1">  1        2 0.30635918E+00 0.73497690E+03</pdfrwt>
<pdfrwt beam="2">  1       -2 0.62656528E-01 0.73497690E+03</pdfrwt>
<totfact> 0.16540393E+01</totfact>
</mgrwt>
</event>
<event>
 4    1  0.4840632E-008  0.2695737E+03  0.7818608E-02  0.1101524E+00
          2   -1    0    0  501    0  0.00000000000E+00  0.00000000000E+00  0.30081334814E+04  0.30081334814E+04  0.25500000000E-02 0. -1.
         -2   -1    0    0    0  501 -0.00000000000E+00 -0.00000000000E+00 -0.30467224973E+03  0.30467224974E+03  0.25500000000E-02 0.  1.
    8880022    1    1    2    0    0  0.22024055082E+03 -0.27792688084E+02 -0.23764708837E+03  0.35936906567E+03  0.15294330000E+03 0.  0.
    8880022    1    1    2    0    0 -0.22024055082E+03  0.27792688084E+02  0.29411083201E+04  0.29534366655E+04  0.15294330000E+03 0.  0.
<mgrwt>
<rscale>  0 0.26957371E+03</rscale>
<asrwt>0</asrwt>
<pdfrwt beam="1">  1        2 0.46278975E+00 0.26957371E+03</pdfrwt>
<pdfrwt beam="2">  1       -2 0.46872655E-01 0.26957371E+03</pdfrwt>
<totfact> 0.91481259E+00</totfact>
</mgrwt>
</event>
<event>
 4    1  0.4840632E-008  0.2156832E+03  0.7818608E-02  0.1137143E+00
         -2   -1    0    0    0  501 -0.00000000000E+00  0.00000000000E+00  0.24616775431E+03  0.24616775432E+03  0.25500000000E-02 0.  1.
          2   -1    0    0  501    0  0.00000000000E+00 -0.00000000000E+00 -0.89351595270E+03  0.89351595270E+03  0.25500000000E-02 0. -1.
    8880022    1    1    2    0    0 -0.68863984139E+02  0.13559261192E+03 -0.82968127696E+03  0.85725741704E+03  0.15294330000E+03 0. -1.
    8880022    1    1    2    0    0  0.68863984139E+02 -0.13559261192E+03  0.18233307857E+03  0.28242628998E+03  0.15294330000E+03 0.  0.
<mgrwt>
<rscale>  0 0.21568323E+03</rscale>
<asrwt>0</asrwt>
<pdfrwt beam="1">  1        2 0.13746399E+00 0.21568323E+03</pdfrwt>
<pdfrwt beam="2">  1       -2 0.37871962E-01 0.21568323E+03</pdfrwt>
<totfact> 0.20672818E+02</totfact>
</mgrwt>
</event>
<event>
 4    1  0.4840632E-008  0.5693443E+03  0.7818608E-02  0.9971131E-01
         -2   -1    0    0    0  501 -0.00000000000E+00  0.00000000000E+00  0.24827315347E+03  0.24827315348E+03  0.25500000000E-02 0.  1.
          2   -1    0    0  501    0  0.00000000000E+00 -0.00000000000E+00 -0.19205558686E+04  0.19205558686E+04  0.25500000000E-02 0. -1.
    8880022    1    1    2    0    0 -0.53309130535E+03 -0.12874361332E+03 -0.14497524217E+04  0.15575413301E+04  0.15294330000E+03 0.  0.
    8880022    1    1    2    0    0  0.53309130535E+03  0.12874361332E+03 -0.22253029339E+03  0.61128769192E+03  0.15294330000E+03 0.  0.
<mgrwt>
<rscale>  0 0.56934428E+03</rscale>
<asrwt>0</asrwt>
<pdfrwt beam="1">  1        2 0.29547012E+00 0.56934428E+03</pdfrwt>
<pdfrwt beam="2">  1       -2 0.38195871E-01 0.56934428E+03</pdfrwt>
<totfact> 0.50454758E+01</totfact>
</mgrwt>
</event>
<event>
 4    1  0.4840632E-008  0.6019878E+03  0.7818608E-02  0.9901291E-01
         -2   -1    0    0    0  501 -0.00000000000E+00  0.00000000000E+00  0.54412787722E+03  0.54412787722E+03  0.25500000000E-02 0.  1.
          2   -1    0    0  501    0  0.00000000000E+00 -0.00000000000E+00 -0.15149469652E+04  0.15149469652E+04  0.25500000000E-02 0. -1.
    8880022    1    1    2    0    0  0.23334753552E+03 -0.53342904717E+03  0.28528742614E+03  0.66616678784E+03  0.15294330000E+03 0.  0.
    8880022    1    1    2    0    0 -0.23334753552E+03  0.53342904717E+03 -0.12561065141E+04  0.13929080546E+04  0.15294330000E+03 0.  0.
<mgrwt>
<rscale>  0 0.60198777E+03</rscale>
<asrwt>0</asrwt>
<pdfrwt beam="1">  1        2 0.23306876E+00 0.60198777E+03</pdfrwt>
<pdfrwt beam="2">  1       -2 0.83711982E-01 0.60198777E+03</pdfrwt>
<totfact> 0.16249534E+01</totfact>
</mgrwt>
</event>
<event>
 4    1  0.4840632E-008  0.4740123E+03  0.7818608E-02  0.1020794E+00
          2   -1    0    0  501    0  0.00000000000E+00  0.00000000000E+00  0.11029071717E+04  0.11029071717E+04  0.25500000000E-02 0. -1.
         -2   -1    0    0    0  501 -0.00000000000E+00 -0.00000000000E+00 -0.23142992952E+03  0.23142992953E+03  0.25500000000E-02 0.  1.
    8880022    1    1    2    0    0 -0.20522152121E+03 -0.39897381786E+03  0.20489415444E+03  0.51640027851E+03  0.15294330000E+03 0.  1.
    8880022    1    1    2    0    0  0.20522152121E+03  0.39897381786E+03  0.66658308779E+03  0.81793682277E+03  0.15294330000E+03 0.  0.
<mgrwt>
<rscale>  0 0.47401227E+03</rscale>
<asrwt>0</asrwt>
<pdfrwt beam="1">  1        2 0.16967802E+00 0.47401227E+03</pdfrwt>
<pdfrwt beam="2">  1       -2 0.35604605E-01 0.47401227E+03</pdfrwt>
<totfact> 0.16649084E+02</totfact>
</mgrwt>
</event>
<event>
 4    1  0.4840632E-008  0.5699922E+03  0.7818608E-02  0.9969696E-01
         -2   -1    0    0    0  501 -0.00000000000E+00  0.00000000000E+00  0.16566257175E+04  0.16566257175E+04  0.25500000000E-02 0.  1.
          2   -1    0    0  501    0  0.00000000000E+00 -0.00000000000E+00 -0.75657533122E+03  0.75657533122E+03  0.25500000000E-02 0. -1.
    8880022    1    1    2    0    0  0.30225358682E+03 -0.45841266490E+03 -0.58848177764E+03  0.81926909970E+03  0.15294330000E+03 0.  0.
    8880022    1    1    2    0    0 -0.30225358682E+03  0.45841266490E+03  0.14885321639E+04  0.15939319490E+04  0.15294330000E+03 0.  0.
<mgrwt>
<rscale>  0 0.56999215E+03</rscale>
<asrwt>0</asrwt>
<pdfrwt beam="1">  1        2 0.11639621E+00 0.56999215E+03</pdfrwt>
<pdfrwt beam="2">  1       -2 0.25486549E+00 0.56999215E+03</pdfrwt>
<totfact> 0.23718167E+00</totfact>
</mgrwt>
</event>
<event>
 4    1  0.4840632E-008  0.5957450E+03  0.7818608E-02  0.9914273E-01
          2   -1    0    0  501    0  0.00000000000E+00  0.00000000000E+00  0.27878612675E+04  0.27878612675E+04  0.25500000000E-02 0. -1.
         -2   -1    0    0    0  501 -0.00000000000E+00 -0.00000000000E+00 -0.36569242010E+03  0.36569242011E+03  0.25500000000E-02 0.  1.
    8880022    1    1    2    0    0  0.37621859602E+03  0.43586696949E+03 -0.61987097329E+02  0.59896118433E+03  0.15294330000E+03 0.  1.
    8880022    1    1    2    0    0 -0.37621859602E+03 -0.43586696949E+03  0.24841559447E+04  0.25545925033E+04  0.15294330000E+03 0.  0.
<mgrwt>
<rscale>  0 0.59574500E+03</rscale>
<asrwt>0</asrwt>
<pdfrwt beam="1">  1        2 0.42890172E+00 0.59574500E+03</pdfrwt>
<pdfrwt beam="2">  1       -2 0.56260374E-01 0.59574500E+03</pdfrwt>
<totfact> 0.76127291E+00</totfact>
</mgrwt>
</event>
<event>
 4    1  0.4840632E-008  0.3558270E+03  0.7818608E-02  0.1060249E+00
          2   -1    0    0  501    0  0.00000000000E+00  0.00000000000E+00  0.10753600134E+04  0.10753600134E+04  0.25500000000E-02 0. -1.
         -2   -1    0    0    0  501 -0.00000000000E+00 -0.00000000000E+00 -0.26730634637E+03  0.26730634638E+03  0.25500000000E-02 0.  1.
    8880022    1    1    2    0    0 -0.20137165828E+03 -0.25034101076E+03  0.90619654226E+03  0.97355276829E+03  0.15294330000E+03 0.  0.
    8880022    1    1    2    0    0  0.20137165828E+03  0.25034101076E+03 -0.98142875254E+02  0.36911359147E+03  0.15294330000E+03 0.  0.
<mgrwt>
<rscale>  0 0.35582695E+03</rscale>
<asrwt>0</asrwt>
<pdfrwt beam="1">  1        2 0.16544000E+00 0.35582695E+03</pdfrwt>
<pdfrwt beam="2">  1       -2 0.41124053E-01 0.35582695E+03</pdfrwt>
<totfact> 0.13314730E+02</totfact>
</mgrwt>
</event>
<event>
 4    1  0.4840632E-008  0.9336006E+03  0.7818608E-02  0.9384527E-01
          2   -1    0    0  501    0  0.00000000000E+00  0.00000000000E+00  0.12828066082E+04  0.12828066082E+04  0.25500000000E-02 0. -1.
         -2   -1    0    0    0  501 -0.00000000000E+00 -0.00000000000E+00 -0.85966803047E+03  0.85966803048E+03  0.25500000000E-02 0.  1.
    8880022    1    1    2    0    0 -0.57944785482E+02 -0.91916310830E+03  0.70203961434E+03  0.11681051712E+04  0.15294330000E+03 0.  0.
    8880022    1    1    2    0    0  0.57944785482E+02  0.91916310830E+03 -0.27890103666E+03  0.97436946745E+03  0.15294330000E+03 0.  0.
<mgrwt>
<rscale>  0 0.93360059E+03</rscale>
<asrwt>0</asrwt>
<pdfrwt beam="1">  1        2 0.19735486E+00 0.93360059E+03</pdfrwt>
<pdfrwt beam="2">  1       -2 0.13225662E+00 0.93360059E+03</pdfrwt>
<totfact> 0.70276636E+00</totfact>
</mgrwt>
</event>
<event>
 4    1  0.4840632E-008  0.6196092E+03  0.7818608E-02  0.9865538E-01
         -2   -1    0    0    0  501 -0.00000000000E+00  0.00000000000E+00  0.93808077374E+03  0.93808077374E+03  0.25500000000E-02 0.  1.
          2   -1    0    0  501    0  0.00000000000E+00 -0.00000000000E+00 -0.16520922093E+04  0.16520922093E+04  0.25500000000E-02 0. -1.
    8880022    1    1    2    0    0  0.40470003244E+03  0.44355583899E+03 -0.14802869751E+04  0.16047320898E+04  0.15294330000E+03 0.  0.
    8880022    1    1    2    0    0 -0.40470003244E+03 -0.44355583899E+03  0.76627553951E+03  0.98544089322E+03  0.15294330000E+03 0.  0.
<mgrwt>
<rscale>  0 0.61960919E+03</rscale>
<asrwt>0</asrwt>
<pdfrwt beam="1">  1        2 0.25416803E+00 0.61960919E+03</pdfrwt>
<pdfrwt beam="2">  1       -2 0.14432012E+00 0.61960919E+03</pdfrwt>
<totfact> 0.36457260E+00</totfact>
</mgrwt>
</event>
<event>
 4    1  0.4840632E-008  0.3398612E+03  0.7818608E-02  0.1066855E+00
         -2   -1    0    0    0  501 -0.00000000000E+00  0.00000000000E+00  0.88220158341E+03  0.88220158342E+03  0.25500000000E-02 0.  1.
          2   -1    0    0  501    0  0.00000000000E+00 -0.00000000000E+00 -0.61874191606E+03  0.61874191606E+03  0.25500000000E-02 0. -1.
    8880022    1    1    2    0    0 -0.23902860156E+03  0.18702763040E+03 -0.53462612153E+03  0.63350670851E+03  0.15294330000E+03 0.  0.
    8880022    1    1    2    0    0  0.23902860156E+03 -0.18702763040E+03  0.79808578888E+03  0.86743679097E+03  0.15294330000E+03 0.  1.
<mgrwt>
<rscale>  0 0.33986124E+03</rscale>
<asrwt>0</asrwt>
<pdfrwt beam="1">  1        2 0.95191063E-01 0.33986124E+03</pdfrwt>
<pdfrwt beam="2">  1       -2 0.13572332E+00 0.33986124E+03</pdfrwt>
<totfact> 0.19903499E+01</totfact>
</mgrwt>
</event>
<event>
 4    1  0.4840632E-008  0.6961130E+03  0.7818608E-02  0.9723903E-01
          2   -1    0    0  501    0  0.00000000000E+00  0.00000000000E+00  0.47784578723E+03  0.47784578724E+03  0.25500000000E-02 0. -1.
         -2   -1    0    0    0  501 -0.00000000000E+00 -0.00000000000E+00 -0.20073694004E+04  0.20073694004E+04  0.25500000000E-02 0.  1.
    8880022    1    1    2    0    0 -0.28711227401E+03  0.61542523070E+03  0.10933291311E+03  0.70464672807E+03  0.15294330000E+03 0. -1.
    8880022    1    1    2    0    0  0.28711227401E+03 -0.61542523070E+03 -0.16388565263E+04  0.17805684596E+04  0.15294330000E+03 0.  0.
<mgrwt>
<rscale>  0 0.69611301E+03</rscale>
<asrwt>0</asrwt>
<pdfrwt beam="1">  1        2 0.73514738E-01 0.69611301E+03</pdfrwt>
<pdfrwt beam="2">  1       -2 0.30882606E+00 0.69611301E+03</pdfrwt>
<totfact> 0.19174687E+00</totfact>
</mgrwt>
</event>
<event>
 4    1  0.4840632E-008  0.7306000E+03  0.7818608E-02  0.9666287E-01
          2   -1    0    0  501    0  0.00000000000E+00  0.00000000000E+00  0.15280761252E+04  0.15280761252E+04  0.25500000000E-02 0. -1.
         -2   -1    0    0    0  501 -0.00000000000E+00 -0.00000000000E+00 -0.73750968611E+03  0.73750968611E+03  0.25500000000E-02 0.  1.
    8880022    1    1    2    0    0 -0.34304205901E+03 -0.62666330616E+03  0.12171335469E+04  0.14195740479E+04  0.15294330000E+03 0.  0.
    8880022    1    1    2    0    0  0.34304205901E+03  0.62666330616E+03 -0.42656710771E+03  0.84601176348E+03  0.15294330000E+03 0.  0.
<mgrwt>
<rscale>  0 0.73060003E+03</rscale>
<asrwt>0</asrwt>
<pdfrwt beam="1">  1        2 0.23508863E+00 0.73060003E+03</pdfrwt>
<pdfrwt beam="2">  1       -2 0.11346303E+00 0.73060003E+03</pdfrwt>
<totfact> 0.76689404E+00</totfact>
</mgrwt>
</event>
<event>
 4    1  0.4840632E-008  0.8641585E+03  0.7818608E-02  0.9471528E-01
         -2   -1    0    0    0  501 -0.00000000000E+00  0.00000000000E+00  0.39610806379E+03  0.39610806380E+03  0.25500000000E-02 0.  1.
          2   -1    0    0  501    0  0.00000000000E+00 -0.00000000000E+00 -0.24595090952E+04  0.24595090952E+04  0.25500000000E-02 0. -1.
    8880022    1    1    2    0    0 -0.28831847294E+02  0.85002767643E+03 -0.34178996114E+03  0.92929562394E+03  0.15294330000E+03 0.  0.
    8880022    1    1    2    0    0  0.28831847294E+02 -0.85002767643E+03 -0.17216110702E+04  0.19263215350E+04  0.15294330000E+03 0.  0.
<mgrwt>
<rscale>  0 0.86415854E+03</rscale>
<asrwt>0</asrwt>
<pdfrwt beam="1">  1        2 0.37838601E+00 0.86415854E+03</pdfrwt>
<pdfrwt beam="2">  1       -2 0.60939704E-01 0.86415854E+03</pdfrwt>
<totfact> 0.94762212E+00</totfact>
</mgrwt>
</event>
<event>
 4    1  0.4840632E-008  0.4015874E+03  0.7818608E-02  0.1043231E+00
         -2   -1    0    0    0  501 -0.00000000000E+00  0.00000000000E+00  0.15401903021E+04  0.15401903021E+04  0.25500000000E-02 0.  1.
          2   -1    0    0  501    0  0.00000000000E+00 -0.00000000000E+00 -0.29180463244E+03  0.29180463245E+03  0.25500000000E-02 0. -1.
    8880022    1    1    2    0    0 -0.20514645297E+03 -0.30950889755E+03 -0.10927231841E+03  0.41618855993E+03  0.15294330000E+03 0.  0.
    8880022    1    1    2    0    0  0.20514645297E+03  0.30950889755E+03  0.13576579880E+04  0.14158063746E+04  0.15294330000E+03 0.  0.
<mgrwt>
<rscale>  0 0.40158745E+03</rscale>
<asrwt>0</asrwt>
<pdfrwt beam="1">  1        2 0.44893019E-01 0.40158745E+03</pdfrwt>
<pdfrwt beam="2">  1       -2 0.23695236E+00 0.40158745E+03</pdfrwt>
<totfact> 0.94333215E+00</totfact>
</mgrwt>
</event>
<event>
 4    1  0.4840632E-008  0.6054419E+03  0.7818608E-02  0.9894180E-01
         -2   -1    0    0    0  501 -0.00000000000E+00  0.00000000000E+00  0.33853658029E+03  0.33853658030E+03  0.25500000000E-02 0.  1.
          2   -1    0    0  501    0  0.00000000000E+00 -0.00000000000E+00 -0.15457268475E+04  0.15457268475E+04  0.25500000000E-02 0. -1.
    8880022    1    1    2    0    0 -0.39260425715E+01  0.58579249893E+03 -0.87996436857E+02  0.61180331114E+03  0.15294330000E+03 0.  0.
    8880022    1    1    2    0    0  0.39260425715E+01 -0.58579249893E+03 -0.11191938304E+04  0.12724601167E+04  0.15294330000E+03 0.  0.
<mgrwt>
<rscale>  0 0.60544192E+03</rscale>
<asrwt>0</asrwt>
<pdfrwt beam="1">  1        2 0.23780413E+00 0.60544192E+03</pdfrwt>
<pdfrwt beam="2">  1       -2 0.52082551E-01 0.60544192E+03</pdfrwt>
<totfact> 0.43345017E+01</totfact>
</mgrwt>
</event>
<event>
 4    1  0.4840632E-008  0.6706081E+03  0.7818608E-02  0.9768860E-01
          2   -1    0    0  501    0  0.00000000000E+00  0.00000000000E+00  0.89432442699E+03  0.89432442699E+03  0.25500000000E-02 0. -1.
         -2   -1    0    0    0  501 -0.00000000000E+00 -0.00000000000E+00 -0.92522939013E+03  0.92522939013E+03  0.25500000000E-02 0.  1.
    8880022    1    1    2    0    0  0.14957509637E+03 -0.63557130393E+03 -0.63014671771E+03  0.92021743664E+03  0.15294330000E+03 0.  0.
    8880022    1    1    2    0    0 -0.14957509637E+03  0.63557130393E+03  0.59924175457E+03  0.89933638049E+03  0.15294330000E+03 0.  0.
<mgrwt>
<rscale>  0 0.67060812E+03</rscale>
<asrwt>0</asrwt>
<pdfrwt beam="1">  1        2 0.13758837E+00 0.67060812E+03</pdfrwt>
<pdfrwt beam="2">  1       -2 0.14234298E+00 0.67060812E+03</pdfrwt>
<totfact> 0.10445421E+01</totfact>
</mgrwt>
</event>
<event>
 4    1  0.6536140E-008  0.5183239E+03  0.7818608E-02  0.1009104E+00
         -2   -1    0    0    0  501 -0.00000000000E+00  0.00000000000E+00  0.64205578465E+03  0.64205578465E+03  0.25500000000E-02 0.  1.
          2   -1    0    0  501    0  0.00000000000E+00 -0.00000000000E+00 -0.25267117035E+04  0.25267117035E+04  0.25500000000E-02 0. -1.
    8880022    1    1    2    0    0  0.58742016409E+02  0.49174928854E+03 -0.23895866691E+04  0.24451552281E+04  0.15294330000E+03 0.  0.
    8880022    1    1    2    0    0 -0.58742016409E+02 -0.49174928854E+03  0.50493075028E+03  0.72361226003E+03  0.15294330000E+03 0.  0.
<mgrwt>
<rscale>  0 0.51832388E+03</rscale>
<asrwt>0</asrwt>
<pdfrwt beam="1">  1        2 0.38872487E+00 0.51832388E+03</pdfrwt>
<pdfrwt beam="2">  1       -2 0.98777814E-01 0.51832388E+03</pdfrwt>
<totfact> 0.31671171E+00</totfact>
</mgrwt>
</event>
<event>
 4    1  0.4840632E-008  0.5959154E+03  0.7818608E-02  0.9913917E-01
         -2   -1    0    0    0  501 -0.00000000000E+00  0.00000000000E+00  0.14989197384E+04  0.14989197384E+04  0.25500000000E-02 0.  1.
          2   -1    0    0  501    0  0.00000000000E+00 -0.00000000000E+00 -0.34443229656E+03  0.34443229657E+03  0.25500000000E-02 0. -1.
    8880022    1    1    2    0    0 -0.70885254502E+02 -0.57157566178E+03  0.62290843786E+02  0.59916213055E+03  0.15294330000E+03 0.  0.
    8880022    1    1    2    0    0  0.70885254502E+02  0.57157566178E+03  0.10921965980E+04  0.12441899044E+04  0.15294330000E+03 0.  0.
<mgrwt>
<rscale>  0 0.59591535E+03</rscale>
<asrwt>0</asrwt>
<pdfrwt beam="1">  1        2 0.52989584E-01 0.59591535E+03</pdfrwt>
<pdfrwt beam="2">  1       -2 0.23060303E+00 0.59591535E+03</pdfrwt>
<totfact> 0.83184240E+00</totfact>
</mgrwt>
</event>
<event>
 4    1  0.4840632E-008  0.5861128E+03  0.7818608E-02  0.9934644E-01
         -2   -1    0    0    0  501 -0.00000000000E+00  0.00000000000E+00  0.98331578761E+03  0.98331578761E+03  0.25500000000E-02 0.  1.
          2   -1    0    0  501    0  0.00000000000E+00 -0.00000000000E+00 -0.66368171900E+03  0.66368171901E+03  0.25500000000E-02 0. -1.
    8880022    1    1    2    0    0  0.46288472398E+03 -0.32538324344E+03 -0.40690792644E+03  0.71351400576E+03  0.15294330000E+03 0.  0.
    8880022    1    1    2    0    0 -0.46288472398E+03  0.32538324344E+03  0.72654199504E+03  0.93348350086E+03  0.15294330000E+03 0.  0.
<mgrwt>
<rscale>  0 0.58611277E+03</rscale>
<asrwt>0</asrwt>
<pdfrwt beam="1">  1        2 0.10210488E+00 0.58611277E+03</pdfrwt>
<pdfrwt beam="2">  1       -2 0.15127935E+00 0.58611277E+03</pdfrwt>
<totfact> 0.13276703E+01</totfact>
</mgrwt>
</event>
<event>
 4    1  0.4840632E-008  0.1944193E+03  0.7818608E-02  0.1154535E+00
          2   -1    0    0  501    0  0.00000000000E+00  0.00000000000E+00  0.13448480364E+04  0.13448480364E+04  0.25500000000E-02 0. -1.
         -2   -1    0    0    0  501 -0.00000000000E+00 -0.00000000000E+00 -0.43762777685E+03  0.43762777686E+03  0.25500000000E-02 0.  1.
    8880022    1    1    2    0    0  0.11165507256E+03  0.44049667216E+02  0.13157534762E+04  0.13300398835E+04  0.15294330000E+03 0. -1.
    8880022    1    1    2    0    0 -0.11165507256E+03 -0.44049667216E+02 -0.40853321668E+03  0.45243592979E+03  0.15294330000E+03 0.  0.
<mgrwt>
<rscale>  0 0.19441934E+03</rscale>
<asrwt>0</asrwt>
<pdfrwt beam="1">  1        2 0.20689970E+00 0.19441934E+03</pdfrwt>
<pdfrwt beam="2">  1       -2 0.67327349E-01 0.19441934E+03</pdfrwt>
<totfact> 0.35902389E+01</totfact>
</mgrwt>
</event>
<event>
 4    1  0.4840632E-008  0.5504454E+03  0.7818608E-02  0.1001391E+00
          2   -1    0    0  501    0  0.00000000000E+00  0.00000000000E+00  0.11494181117E+04  0.11494181117E+04  0.25500000000E-02 0. -1.
         -2   -1    0    0    0  501 -0.00000000000E+00 -0.00000000000E+00 -0.83370978826E+03  0.83370978826E+03  0.25500000000E-02 0.  1.
    8880022    1    1    2    0    0  0.44798877071E+03 -0.28089953522E+03  0.97781169238E+03  0.11220988577E+04  0.15294330000E+03 0.  0.
    8880022    1    1    2    0    0 -0.44798877071E+03  0.28089953522E+03 -0.66210336892E+03  0.86102904233E+03  0.15294330000E+03 0.  0.
<mgrwt>
<rscale>  0 0.55044540E+03</rscale>
<asrwt>0</asrwt>
<pdfrwt beam="1">  1        2 0.17683355E+00 0.55044540E+03</pdfrwt>
<pdfrwt beam="2">  1       -2 0.12826305E+00 0.55044540E+03</pdfrwt>
<totfact> 0.95839104E+00</totfact>
</mgrwt>
</event>
<event>
 4    1  0.4840632E-008  0.7782856E+03  0.7818608E-02  0.9591991E-01
          2   -1    0    0  501    0  0.00000000000E+00  0.00000000000E+00  0.22849874275E+04  0.22849874275E+04  0.25500000000E-02 0. -1.
         -2   -1    0    0    0  501 -0.00000000000E+00 -0.00000000000E+00 -0.49843133102E+03  0.49843133102E+03  0.25500000000E-02 0.  1.
    8880022    1    1    2    0    0 -0.15674802653E+02  0.76294895843E+03  0.18455067218E+04  0.20029037735E+04  0.15294330000E+03 0. -1.
    8880022    1    1    2    0    0  0.15674802653E+02 -0.76294895843E+03 -0.58950625334E+02  0.78051498503E+03  0.15294330000E+03 0.  0.
<mgrwt>
<rscale>  0 0.77828559E+03</rscale>
<asrwt>0</asrwt>
<pdfrwt beam="1">  1        2 0.35153653E+00 0.77828559E+03</pdfrwt>
<pdfrwt beam="2">  1       -2 0.76681743E-01 0.77828559E+03</pdfrwt>
<totfact> 0.72969812E+00</totfact>
</mgrwt>
</event>
<event>
 4    1  0.5480875E-008  0.6978125E+03  0.7818608E-02  0.9720980E-01
          2   -1    0    0  501    0  0.00000000000E+00  0.00000000000E+00  0.25335871135E+04  0.25335871135E+04  0.25500000000E-02 0. -1.
         -2   -1    0    0    0  501 -0.00000000000E+00 -0.00000000000E+00 -0.79267405334E+03  0.79267405334E+03  0.25500000000E-02 0.  1.
    8880022    1    1    2    0    0 -0.11788230158E+03 -0.67056271214E+03 -0.57707501254E+03  0.90551521856E+03  0.15294330000E+03 0.  0.
    8880022    1    1    2    0    0  0.11788230158E+03  0.67056271214E+03  0.23179880727E+04  0.24207459482E+04  0.15294330000E+03 0.  0.
<mgrwt>
<rscale>  0 0.69781247E+03</rscale>
<asrwt>0</asrwt>
<pdfrwt beam="1">  1        2 0.38978263E+00 0.69781247E+03</pdfrwt>
<pdfrwt beam="2">  1       -2 0.12194985E+00 0.69781247E+03</pdfrwt>
<totfact> 0.18054381E+00</totfact>
</mgrwt>
</event>
<event>
 4    1  0.4840632E-008  0.1684693E+03  0.7818608E-02  0.1179454E+00
         -2   -1    0    0    0  501 -0.00000000000E+00  0.00000000000E+00  0.28633224798E+02  0.28633224911E+02  0.25500000000E-02 0.  1.
          2   -1    0    0  501    0  0.00000000000E+00 -0.00000000000E+00 -0.42975537471E+04  0.42975537471E+04  0.25500000000E-02 0. -1.
    8880022    1    1    2    0    0  0.23395539398E+02 -0.66655113218E+02 -0.23715249228E+03  0.29090069266E+03  0.15294330000E+03 0.  1.
    8880022    1    1    2    0    0 -0.23395539398E+02  0.66655113218E+02 -0.40317680300E+04  0.40352862794E+04  0.15294330000E+03 0.  0.
<mgrwt>
<rscale>  0 0.16846931E+03</rscale>
<asrwt>0</asrwt>
<pdfrwt beam="1">  1        2 0.66116160E+00 0.16846931E+03</pdfrwt>
<pdfrwt beam="2">  1       -2 0.44051149E-02 0.16846931E+03</pdfrwt>
<totfact> 0.65033417E+01</totfact>
</mgrwt>
</event>
<event>
 4    1  0.4840632E-008  0.8338713E+03  0.7818608E-02  0.9512244E-01
         -2   -1    0    0    0  501 -0.00000000000E+00  0.00000000000E+00  0.67387177435E+03  0.67387177435E+03  0.25500000000E-02 0.  1.
          2   -1    0    0  501    0  0.00000000000E+00 -0.00000000000E+00 -0.33937130851E+04  0.33937130851E+04  0.25500000000E-02 0. -1.
    8880022    1    1    2    0    0  0.46842446554E+03  0.67270221955E+03  0.33674197268E+03  0.89929781790E+03  0.15294330000E+03 0.  0.
    8880022    1    1    2    0    0 -0.46842446554E+03 -0.67270221955E+03 -0.30565832834E+04  0.31682870416E+04  0.15294330000E+03 0.  0.
<mgrwt>
<rscale>  0 0.83387134E+03</rscale>
<asrwt>0</asrwt>
<pdfrwt beam="1">  1        2 0.52210969E+00 0.83387134E+03</pdfrwt>
<pdfrwt beam="2">  1       -2 0.10367258E+00 0.83387134E+03</pdfrwt>
<totfact> 0.77621105E-01</totfact>
</mgrwt>
</event>
<event>
 4    1  0.4840632E-008  0.6303308E+03  0.7818608E-02  0.9844404E-01
          2   -1    0    0  501    0  0.00000000000E+00  0.00000000000E+00  0.18246828391E+04  0.18246828391E+04  0.25500000000E-02 0. -1.
         -2   -1    0    0    0  501 -0.00000000000E+00 -0.00000000000E+00 -0.43006270509E+03  0.43006270510E+03  0.25500000000E-02 0.  1.
    8880022    1    1    2    0    0 -0.21496829533E+03  0.57246299598E+03  0.14894355889E+04  0.16173234915E+04  0.15294330000E+03 0.  0.
    8880022    1    1    2    0    0  0.21496829533E+03 -0.57246299598E+03 -0.94815454867E+02  0.63742205269E+03  0.15294330000E+03 0.  0.
<mgrwt>
<rscale>  0 0.63033079E+03</rscale>
<asrwt>0</asrwt>
<pdfrwt beam="1">  1        2 0.28072044E+00 0.63033079E+03</pdfrwt>
<pdfrwt beam="2">  1       -2 0.66163493E-01 0.63033079E+03</pdfrwt>
<totfact> 0.18425585E+01</totfact>
</mgrwt>
</event>
<event>
 4    1  0.4840632E-008  0.4733235E+03  0.7818608E-02  0.1020986E+00
         -2   -1    0    0    0  501 -0.00000000000E+00  0.00000000000E+00  0.12386161189E+03  0.12386161192E+03  0.25500000000E-02 0.  1.
          2   -1    0    0  501    0  0.00000000000E+00 -0.00000000000E+00 -0.23400723033E+04  0.23400723033E+04  0.25500000000E-02 0. -1.
    8880022    1    1    2    0    0 -0.23550194761E+03 -0.38102803284E+03 -0.52107328235E+03  0.70395493303E+03  0.15294330000E+03 0.  0.
    8880022    1    1    2    0    0  0.23550194761E+03  0.38102803284E+03 -0.16951374090E+04  0.17599789822E+04  0.15294330000E+03 0.  0.
<mgrwt>
<rscale>  0 0.47332355E+03</rscale>
<asrwt>0</asrwt>
<pdfrwt beam="1">  1        2 0.36001109E+00 0.47332355E+03</pdfrwt>
<pdfrwt beam="2">  1       -2 0.19055634E-01 0.47332355E+03</pdfrwt>
<totfact> 0.10741513E+02</totfact>
</mgrwt>
</event>
<event>
 4    1  0.4840632E-008  0.4617668E+03  0.7818608E-02  0.1024270E+00
          2   -1    0    0  501    0  0.00000000000E+00  0.00000000000E+00  0.21277476014E+04  0.21277476014E+04  0.25500000000E-02 0. -1.
         -2   -1    0    0    0  501 -0.00000000000E+00 -0.00000000000E+00 -0.37965484856E+03  0.37965484857E+03  0.25500000000E-02 0.  1.
    8880022    1    1    2    0    0  0.29109752417E+03 -0.32418995444E+03 -0.20153948971E+03  0.50383202962E+03  0.15294330000E+03 0.  0.
    8880022    1    1    2    0    0 -0.29109752417E+03  0.32418995444E+03  0.19496322425E+04  0.20035704204E+04  0.15294330000E+03 0.  0.
<mgrwt>
<rscale>  0 0.46176677E+03</rscale>
<asrwt>0</asrwt>
<pdfrwt beam="1">  1        2 0.32734579E+00 0.46176677E+03</pdfrwt>
<pdfrwt beam="2">  1       -2 0.58408438E-01 0.46176677E+03</pdfrwt>
<totfact> 0.17017017E+01</totfact>
</mgrwt>
</event>
<event>
 4    1  0.4840632E-008  0.6404027E+03  0.7818608E-02  0.9824956E-01
         -2   -1    0    0    0  501 -0.00000000000E+00  0.00000000000E+00  0.89944784427E+03  0.89944784427E+03  0.25500000000E-02 0.  1.
          2   -1    0    0  501    0  0.00000000000E+00 -0.00000000000E+00 -0.80825870050E+03  0.80825870051E+03  0.25500000000E-02 0. -1.
    8880022    1    1    2    0    0  0.39975229796E+03  0.47636335452E+03 -0.51812260939E+03  0.82375156244E+03  0.15294330000E+03 0.  0.
    8880022    1    1    2    0    0 -0.39975229796E+03 -0.47636335452E+03  0.60931175315E+03  0.88395498234E+03  0.15294330000E+03 0.  0.
<mgrwt>
<rscale>  0 0.64040268E+03</rscale>
<asrwt>0</asrwt>
<pdfrwt beam="1">  1        2 0.12434749E+00 0.64040268E+03</pdfrwt>
<pdfrwt beam="2">  1       -2 0.13837659E+00 0.64040268E+03</pdfrwt>
<totfact> 0.12937687E+01</totfact>
</mgrwt>
</event>
<event>
 4    1  0.4840632E-008  0.5928597E+03  0.7818608E-02  0.9920332E-01
          2   -1    0    0  501    0  0.00000000000E+00  0.00000000000E+00  0.55735876609E+03  0.55735876610E+03  0.25500000000E-02 0. -1.
         -2   -1    0    0    0  501 -0.00000000000E+00 -0.00000000000E+00 -0.75436592621E+03  0.75436592621E+03  0.25500000000E-02 0.  1.
    8880022    1    1    2    0    0 -0.56735689881E+03 -0.78721589737E+02  0.16713059635E+03  0.61596690542E+03  0.15294330000E+03 0. -1.
    8880022    1    1    2    0    0  0.56735689881E+03  0.78721589737E+02 -0.36413775647E+03  0.69575778689E+03  0.15294330000E+03 0.  0.
<mgrwt>
<rscale>  0 0.59285967E+03</rscale>
<asrwt>0</asrwt>
<pdfrwt beam="1">  1        2 0.85747502E-01 0.59285967E+03</pdfrwt>
<pdfrwt beam="2">  1       -2 0.11605630E+00 0.59285967E+03</pdfrwt>
<totfact> 0.32075722E+01</totfact>
</mgrwt>
</event>
<event>
 4    1  0.4840632E-008  0.8778681E+03  0.7818608E-02  0.9453678E-01
          2   -1    0    0  501    0  0.00000000000E+00  0.00000000000E+00  0.16256462508E+04  0.16256462508E+04  0.25500000000E-02 0. -1.
         -2   -1    0    0    0  501 -0.00000000000E+00 -0.00000000000E+00 -0.56962944367E+03  0.56962944367E+03  0.25500000000E-02 0.  1.
    8880022    1    1    2    0    0  0.72888792886E+02  0.86136401810E+03  0.97760646426E+03  0.13139127824E+04  0.15294330000E+03 0.  0.
    8880022    1    1    2    0    0 -0.72888792886E+02 -0.86136401810E+03  0.78410342836E+02  0.88136291202E+03  0.15294330000E+03 0.  0.
<mgrwt>
<rscale>  0 0.87786810E+03</rscale>
<asrwt>0</asrwt>
<pdfrwt beam="1">  1        2 0.25009943E+00 0.87786810E+03</pdfrwt>
<pdfrwt beam="2">  1       -2 0.87635298E-01 0.87786810E+03</pdfrwt>
<totfact> 0.12251887E+01</totfact>
</mgrwt>
</event>
<event>
 4    1  0.4840632E-008  0.2847174E+03  0.7818608E-02  0.1093140E+00
         -2   -1    0    0    0  501 -0.00000000000E+00  0.00000000000E+00  0.20031857304E+03  0.20031857305E+03  0.25500000000E-02 0.  1.
          2   -1    0    0  501    0  0.00000000000E+00 -0.00000000000E+00 -0.49828035256E+03  0.49828035257E+03  0.25500000000E-02 0. -1.
    8880022    1    1    2    0    0 -0.22362249711E+03 -0.87551733865E+02 -0.30037558652E+03  0.41387132458E+03  0.15294330000E+03 0.  0.
    8880022    1    1    2    0    0  0.22362249711E+03  0.87551733865E+02  0.24138069977E+01  0.28472760104E+03  0.15294330000E+03 0.  0.
<mgrwt>
<rscale>  0 0.28471737E+03</rscale>
<asrwt>0</asrwt>
<pdfrwt beam="1">  1        2 0.76658515E-01 0.28471737E+03</pdfrwt>
<pdfrwt beam="2">  1       -2 0.30818242E-01 0.28471737E+03</pdfrwt>
<totfact> 0.61074372E+02</totfact>
</mgrwt>
</event>
<event>
 4    1  0.4840632E-008  0.7426970E+03  0.7818608E-02  0.9646878E-01
          2   -1    0    0  501    0  0.00000000000E+00  0.00000000000E+00  0.13876379123E+04  0.13876379123E+04  0.25500000000E-02 0. -1.
         -2   -1    0    0    0  501 -0.00000000000E+00 -0.00000000000E+00 -0.92353852348E+03  0.92353852349E+03  0.25500000000E-02 0.  1.
    8880022    1    1    2    0    0 -0.72668251835E+03 -0.11817667433E+02 -0.64007902384E+03  0.98045905041E+03  0.15294330000E+03 0.  0.
    8880022    1    1    2    0    0  0.72668251835E+03  0.11817667433E+02  0.11041784126E+04  0.13307173853E+04  0.15294330000E+03 0.  0.
<mgrwt>
<rscale>  0 0.74269697E+03</rscale>
<asrwt>0</asrwt>
<pdfrwt beam="1">  1        2 0.21348276E+00 0.74269697E+03</pdfrwt>
<pdfrwt beam="2">  1       -2 0.14208285E+00 0.74269697E+03</pdfrwt>
<totfact> 0.52106793E+00</totfact>
</mgrwt>
</event>
<event>
 4    1  0.4840632E-008  0.9225892E+03  0.7818608E-02  0.9397776E-01
         -2   -1    0    0    0  501 -0.00000000000E+00  0.00000000000E+00  0.66681671913E+03  0.66681671914E+03  0.25500000000E-02 0.  1.
          2   -1    0    0  501    0  0.00000000000E+00 -0.00000000000E+00 -0.14750179336E+04  0.14750179337E+04  0.25500000000E-02 0. -1.
    8880022    1    1    2    0    0  0.83478876878E+03  0.36181053029E+03 -0.79700889350E+03  0.12191775825E+04  0.15294330000E+03 0.  0.
    8880022    1    1    2    0    0 -0.83478876878E+03 -0.36181053029E+03 -0.11192321018E+02  0.92265707030E+03  0.15294330000E+03 0.  0.
<mgrwt>
<rscale>  0 0.92258918E+03</rscale>
<asrwt>0</asrwt>
<pdfrwt beam="1">  1        2 0.22692584E+00 0.92258918E+03</pdfrwt>
<pdfrwt beam="2">  1       -2 0.10258719E+00 0.92258918E+03</pdfrwt>
<totfact> 0.10224379E+01</totfact>
</mgrwt>
</event>
<event>
 4    1  0.4840632E-008  0.1000420E+04  0.7818608E-02  0.9308085E-01
         -2   -1    0    0    0  501 -0.00000000000E+00  0.00000000000E+00  0.15769127654E+04  0.15769127654E+04  0.25500000000E-02 0.  1.
          2   -1    0    0  501    0  0.00000000000E+00 -0.00000000000E+00 -0.76504427176E+03  0.76504427177E+03  0.25500000000E-02 0. -1.
    8880022    1    1    2    0    0 -0.95717728616E+03  0.24750610091E+03 -0.77436549394E+02  0.10034120287E+04  0.15294330000E+03 0.  0.
    8880022    1    1    2    0    0  0.95717728616E+03 -0.24750610091E+03  0.88930504303E+03  0.13385450085E+04  0.15294330000E+03 0.  0.
<mgrwt>
<rscale>  0 0.10004196E+04</rscale>
<asrwt>0</asrwt>
<pdfrwt beam="1">  1        2 0.11769912E+00 0.10004196E+04</pdfrwt>
<pdfrwt beam="2">  1       -2 0.24260196E+00 0.10004196E+04</pdfrwt>
<totfact> 0.25998801E+00</totfact>
</mgrwt>
</event>
<event>
 4    1  0.4840632E-008  0.4840603E+03  0.7818608E-02  0.1018025E+00
         -2   -1    0    0    0  501 -0.00000000000E+00  0.00000000000E+00  0.91033626193E+03  0.91033626193E+03  0.25500000000E-02 0.  1.
          2   -1    0    0  501    0  0.00000000000E+00 -0.00000000000E+00 -0.56140611857E+03  0.56140611858E+03  0.25500000000E-02 0. -1.
    8880022    1    1    2    0    0  0.25293385409E+03 -0.38333685407E+03 -0.36704841111E+03  0.60748569312E+03  0.15294330000E+03 0.  0.
    8880022    1    1    2    0    0 -0.25293385409E+03  0.38333685407E+03  0.71597855446E+03  0.86425668739E+03  0.15294330000E+03 0.  0.
<mgrwt>
<rscale>  0 0.48406026E+03</rscale>
<asrwt>0</asrwt>
<pdfrwt beam="1">  1        2 0.86370173E-01 0.48406026E+03</pdfrwt>
<pdfrwt beam="2">  1       -2 0.14005173E+00 0.48406026E+03</pdfrwt>
<totfact> 0.20117662E+01</totfact>
</mgrwt>
</event>
<event>
 4    1  0.4840632E-008  0.1024897E+04  0.7818608E-02  0.9281652E-01
          2   -1    0    0  501    0  0.00000000000E+00  0.00000000000E+00  0.15843203796E+04  0.15843203796E+04  0.25500000000E-02 0. -1.
         -2   -1    0    0    0  501 -0.00000000000E+00 -0.00000000000E+00 -0.70956339780E+03  0.70956339781E+03  0.25500000000E-02 0.  1.
    8880022    1    1    2    0    0  0.80779773062E+03  0.61195196458E+03  0.73117039236E+03  0.12589774328E+04  0.15294330000E+03 0.  0.
    8880022    1    1    2    0    0 -0.80779773062E+03 -0.61195196458E+03  0.14358658948E+03  0.10349063447E+04  0.15294330000E+03 0.  0.
<mgrwt>
<rscale>  0 0.10248971E+04</rscale>
<asrwt>0</asrwt>
<pdfrwt beam="1">  1        2 0.24374159E+00 0.10248971E+04</pdfrwt>
<pdfrwt beam="2">  1       -2 0.10916360E+00 0.10248971E+04</pdfrwt>
<totfact> 0.75613383E+00</totfact>
</mgrwt>
</event>
<event>
 4    1  0.4840632E-008  0.4470106E+03  0.7818608E-02  0.1028617E+00
          2   -1    0    0  501    0  0.00000000000E+00  0.00000000000E+00  0.53361361875E+03  0.53361361876E+03  0.25500000000E-02 0. -1.
         -2   -1    0    0    0  501 -0.00000000000E+00 -0.00000000000E+00 -0.43896583379E+03  0.43896583379E+03  0.25500000000E-02 0.  1.
    8880022    1    1    2    0    0  0.59011434967E+02 -0.41586592185E+03  0.23373410196E+03  0.50443046879E+03  0.15294330000E+03 0.  0.
    8880022    1    1    2    0    0 -0.59011434967E+02  0.41586592185E+03 -0.13908631699E+03  0.46814898376E+03  0.15294330000E+03 0.  0.
<mgrwt>
<rscale>  0 0.44701059E+03</rscale>
<asrwt>0</asrwt>
<pdfrwt beam="1">  1        2 0.82094402E-01 0.44701059E+03</pdfrwt>
<pdfrwt beam="2">  1       -2 0.67533206E-01 0.44701059E+03</pdfrwt>
<totfact> 0.11824357E+02</totfact>
</mgrwt>
</event>
<event>
 4    1  0.4840632E-008  0.4220646E+03  0.7818608E-02  0.1036396E+00
          2   -1    0    0  501    0  0.00000000000E+00  0.00000000000E+00  0.10481039257E+04  0.10481039257E+04  0.25500000000E-02 0. -1.
         -2   -1    0    0    0  501 -0.00000000000E+00 -0.00000000000E+00 -0.41018216337E+03  0.41018216337E+03  0.25500000000E-02 0.  1.
    8880022    1    1    2    0    0  0.39782910205E+02  0.39136199363E+03  0.87695352538E+03  0.97323482711E+03  0.15294330000E+03 0.  0.
    8880022    1    1    2    0    0 -0.39782910205E+02 -0.39136199363E+03 -0.23903176303E+03  0.48505126199E+03  0.15294330000E+03 0.  0.
<mgrwt>
<rscale>  0 0.42206462E+03</rscale>
<asrwt>0</asrwt>
<pdfrwt beam="1">  1        2 0.16124676E+00 0.42206462E+03</pdfrwt>
<pdfrwt beam="2">  1       -2 0.63104948E-01 0.42206462E+03</pdfrwt>
<totfact> 0.57573783E+01</totfact>
</mgrwt>
</event>
<event>
 4    1  0.5742942E-008  0.9322091E+03  0.7818608E-02  0.9386191E-01
         -2   -1    0    0    0  501 -0.00000000000E+00  0.00000000000E+00  0.15559419750E+04  0.15559419750E+04  0.25500000000E-02 0.  1.
          2   -1    0    0  501    0  0.00000000000E+00 -0.00000000000E+00 -0.16132125739E+04  0.16132125739E+04  0.25500000000E-02 0. -1.
    8880022    1    1    2    0    0 -0.74754608354E+03 -0.53553438668E+03 -0.13098797619E+04  0.16077309694E+04  0.15294330000E+03 0.  0.
    8880022    1    1    2    0    0  0.74754608354E+03  0.53553438668E+03  0.12526091630E+04  0.15614235795E+04  0.15294330000E+03 0.  0.
<mgrwt>
<rscale>  0 0.93220914E+03</rscale>
<asrwt>0</asrwt>
<pdfrwt beam="1">  1        2 0.24818655E+00 0.93220914E+03</pdfrwt>
<pdfrwt beam="2">  1       -2 0.23937569E+00 0.93220914E+03</pdfrwt>
<totfact> 0.82633913E-01</totfact>
</mgrwt>
</event>
<event>
 4    1  0.4840632E-008  0.4462430E+03  0.7818608E-02  0.1028848E+00
          2   -1    0    0  501    0  0.00000000000E+00  0.00000000000E+00  0.11760535235E+04  0.11760535235E+04  0.25500000000E-02 0. -1.
         -2   -1    0    0    0  501 -0.00000000000E+00 -0.00000000000E+00 -0.91376851216E+03  0.91376851216E+03  0.25500000000E-02 0.  1.
    8880022    1    1    2    0    0 -0.35555361235E+03  0.22208739875E+03 -0.81200080899E+03  0.92654096011E+03  0.15294330000E+03 0.  0.
    8880022    1    1    2    0    0  0.35555361235E+03 -0.22208739875E+03  0.10742858203E+04  0.11632810755E+04  0.15294330000E+03 0.  0.
<mgrwt>
<rscale>  0 0.44624302E+03</rscale>
<asrwt>0</asrwt>
<pdfrwt beam="1">  1        2 0.18093131E+00 0.44624302E+03</pdfrwt>
<pdfrwt beam="2">  1       -2 0.14057977E+00 0.44624302E+03</pdfrwt>
<totfact> 0.74786264E+00</totfact>
</mgrwt>
</event>
<event>
 4    1  0.4840632E-008  0.5833216E+03  0.7818608E-02  0.9940626E-01
          2   -1    0    0  501    0  0.00000000000E+00  0.00000000000E+00  0.30471920687E+03  0.30471920688E+03  0.25500000000E-02 0. -1.
         -2   -1    0    0    0  501 -0.00000000000E+00 -0.00000000000E+00 -0.13907258821E+04  0.13907258821E+04  0.25500000000E-02 0.  1.
    8880022    1    1    2    0    0 -0.37602434779E+03  0.41890108973E+03 -0.91933432243E+03  0.10887789870E+04  0.15294330000E+03 0.  0.
    8880022    1    1    2    0    0  0.37602434779E+03 -0.41890108973E+03 -0.16667235280E+03  0.60666610200E+03  0.15294330000E+03 0. -1.
<mgrwt>
<rscale>  0 0.58332160E+03</rscale>
<asrwt>0</asrwt>
<pdfrwt beam="1">  1        2 0.46879879E-01 0.58332160E+03</pdfrwt>
<pdfrwt beam="2">  1       -2 0.21395782E+00 0.58332160E+03</pdfrwt>
<totfact> 0.12103922E+01</totfact>
</mgrwt>
</event>
<event>
 4    1  0.4840632E-008  0.1822760E+03  0.7818608E-02  0.1165618E+00
         -2   -1    0    0    0  501 -0.00000000000E+00  0.00000000000E+00  0.87967901468E+02  0.87967901505E+02  0.25500000000E-02 0.  1.
          2   -1    0    0  501    0  0.00000000000E+00 -0.00000000000E+00 -0.21902740542E+04  0.21902740542E+04  0.25500000000E-02 0. -1.
    8880022    1    1    2    0    0  0.84984171213E+02  0.51093812018E+02 -0.14890593057E+02  0.18288321344E+03  0.15294330000E+03 0.  1.
    8880022    1    1    2    0    0 -0.84984171213E+02 -0.51093812018E+02 -0.20874155596E+04  0.20953587422E+04  0.15294330000E+03 0.  0.
<mgrwt>
<rscale>  0 0.18227600E+03</rscale>
<asrwt>0</asrwt>
<pdfrwt beam="1">  1        2 0.33696520E+00 0.18227600E+03</pdfrwt>
<pdfrwt beam="2">  1       -2 0.13533525E-01 0.18227600E+03</pdfrwt>
<totfact> 0.24657244E+02</totfact>
</mgrwt>
</event>
<event>
 4    1  0.4840632E-008  0.2074317E+03  0.7818608E-02  0.1143616E+00
         -2   -1    0    0    0  501 -0.00000000000E+00  0.00000000000E+00  0.10917490387E+03  0.10917490390E+03  0.25500000000E-02 0.  1.
          2   -1    0    0  501    0  0.00000000000E+00 -0.00000000000E+00 -0.23370179340E+04  0.23370179340E+04  0.25500000000E-02 0. -1.
    8880022    1    1    2    0    0 -0.73671572975E+02  0.11920040732E+03  0.12836970811E+01  0.20743562535E+03  0.15294330000E+03 0.  1.
    8880022    1    1    2    0    0  0.73671572975E+02 -0.11920040732E+03 -0.22291267272E+04  0.22387572126E+04  0.15294330000E+03 0.  0.
<mgrwt>
<rscale>  0 0.20743165E+03</rscale>
<asrwt>0</asrwt>
<pdfrwt beam="1">  1        2 0.35954118E+00 0.20743165E+03</pdfrwt>
<pdfrwt beam="2">  1       -2 0.16796141E-01 0.20743165E+03</pdfrwt>
<totfact> 0.14310890E+02</totfact>
</mgrwt>
</event>
<event>
 4    1  0.4840632E-008  0.9981707E+03  0.7818608E-02  0.9310553E-01
         -2   -1    0    0    0  501 -0.00000000000E+00  0.00000000000E+00  0.12750056702E+04  0.12750056702E+04  0.25500000000E-02 0.  1.
          2   -1    0    0  501    0  0.00000000000E+00 -0.00000000000E+00 -0.17274239572E+04  0.17274239572E+04  0.25500000000E-02 0. -1.
    8880022    1    1    2    0    0  0.90544662751E+02  0.98221934419E+03  0.88471515501E+03  0.13338162297E+04  0.15294330000E+03 0.  0.
    8880022    1    1    2    0    0 -0.90544662751E+02 -0.98221934419E+03 -0.13371334421E+04  0.16686133977E+04  0.15294330000E+03 0.  0.
<mgrwt>
<rscale>  0 0.99817074E+03</rscale>
<asrwt>0</asrwt>
<pdfrwt beam="1">  1        2 0.26575753E+00 0.99817074E+03</pdfrwt>
<pdfrwt beam="2">  1       -2 0.19615472E+00 0.99817074E+03</pdfrwt>
<totfact> 0.13291254E+00</totfact>
</mgrwt>
</event>
<event>
 4    1  0.4840632E-008  0.5551628E+03  0.7818608E-02  0.1000306E+00
          2   -1    0    0  501    0  0.00000000000E+00  0.00000000000E+00  0.10785330787E+04  0.10785330787E+04  0.25500000000E-02 0. -1.
         -2   -1    0    0    0  501 -0.00000000000E+00 -0.00000000000E+00 -0.11309583701E+04  0.11309583701E+04  0.25500000000E-02 0.  1.
    8880022    1    1    2    0    0 -0.52840317989E+03 -0.74860577287E+02 -0.98124344262E+03  0.11274060374E+04  0.15294330000E+03 0.  0.
    8880022    1    1    2    0    0  0.52840317989E+03  0.74860577287E+02  0.92881815116E+03  0.10820854114E+04  0.15294330000E+03 0.  0.
<mgrwt>
<rscale>  0 0.55516275E+03</rscale>
<asrwt>0</asrwt>
<pdfrwt beam="1">  1        2 0.16592817E+00 0.55516275E+03</pdfrwt>
<pdfrwt beam="2">  1       -2 0.17399360E+00 0.55516275E+03</pdfrwt>
<totfact> 0.47333249E+00</totfact>
</mgrwt>
</event>
<event>
 4    1  0.4840632E-008  0.1470076E+04  0.7818608E-02  0.8904600E-01
          2   -1    0    0  501    0  0.00000000000E+00  0.00000000000E+00  0.22027182907E+04  0.22027182907E+04  0.25500000000E-02 0. -1.
         -2   -1    0    0    0  501 -0.00000000000E+00 -0.00000000000E+00 -0.13421622638E+04  0.13421622638E+04  0.25500000000E-02 0.  1.
    8880022    1    1    2    0    0 -0.13298526128E+04 -0.60763778170E+03 -0.48900707327E+03  0.15492744161E+04  0.15294330000E+03 0.  0.
    8880022    1    1    2    0    0  0.13298526128E+04  0.60763778170E+03  0.13495631001E+04  0.19956061384E+04  0.15294330000E+03 0.  0.
<mgrwt>
<rscale>  0 0.14700759E+04</rscale>
<asrwt>0</asrwt>
<pdfrwt beam="1">  1        2 0.33887973E+00 0.14700759E+04</pdfrwt>
<pdfrwt beam="2">  1       -2 0.20648650E+00 0.14700759E+04</pdfrwt>
<totfact> 0.58467661E-01</totfact>
</mgrwt>
</event>
<event>
 4    1  0.4840632E-008  0.2636613E+03  0.7818608E-02  0.1104963E+00
          2   -1    0    0  501    0  0.00000000000E+00  0.00000000000E+00  0.11595332346E+04  0.11595332346E+04  0.25500000000E-02 0. -1.
         -2   -1    0    0    0  501 -0.00000000000E+00 -0.00000000000E+00 -0.53840334189E+03  0.53840334190E+03  0.25500000000E-02 0.  1.
    8880022    1    1    2    0    0  0.21431695865E+03 -0.13924147700E+02  0.11108710122E+04  0.11417318859E+04  0.15294330000E+03 0.  0.
    8880022    1    1    2    0    0 -0.21431695865E+03  0.13924147700E+02 -0.48974111949E+03  0.55620469055E+03  0.15294330000E+03 0.  1.
<mgrwt>
<rscale>  0 0.26366132E+03</rscale>
<asrwt>0</asrwt>
<pdfrwt beam="1">  1        2 0.17838973E+00 0.26366132E+03</pdfrwt>
<pdfrwt beam="2">  1       -2 0.82831284E-01 0.26366132E+03</pdfrwt>
<totfact> 0.28326810E+01</totfact>
</mgrwt>
</event>
<event>
 4    1  0.4840632E-008  0.5154965E+03  0.7818608E-02  0.1009811E+00
         -2   -1    0    0    0  501 -0.00000000000E+00  0.00000000000E+00  0.82116575474E+03  0.82116575474E+03  0.25500000000E-02 0.  1.
          2   -1    0    0  501    0  0.00000000000E+00 -0.00000000000E+00 -0.10980456712E+04  0.10980456712E+04  0.25500000000E-02 0. -1.
    8880022    1    1    2    0    0 -0.38700641869E+03 -0.30425493661E+03 -0.94432956973E+03  0.10758694269E+04  0.15294330000E+03 0.  0.
    8880022    1    1    2    0    0  0.38700641869E+03  0.30425493661E+03  0.66744965328E+03  0.84334199898E+03  0.15294330000E+03 0.  0.
<mgrwt>
<rscale>  0 0.51549654E+03</rscale>
<asrwt>0</asrwt>
<pdfrwt beam="1">  1        2 0.16893010E+00 0.51549654E+03</pdfrwt>
<pdfrwt beam="2">  1       -2 0.12633319E+00 0.51549654E+03</pdfrwt>
<totfact> 0.10751967E+01</totfact>
</mgrwt>
</event>
<event>
 4    1  0.4840632E-008  0.5225279E+03  0.7818608E-02  0.1008061E+00
          2   -1    0    0  501    0  0.00000000000E+00  0.00000000000E+00  0.12341087105E+04  0.12341087105E+04  0.25500000000E-02 0. -1.
         -2   -1    0    0    0  501 -0.00000000000E+00 -0.00000000000E+00 -0.24815333264E+03  0.24815333265E+03  0.25500000000E-02 0.  1.
    8880022    1    1    2    0    0  0.39594761348E+03 -0.30474453847E+03  0.73704572511E+03  0.90347761471E+03  0.15294330000E+03 0.  1.
    8880022    1    1    2    0    0 -0.39594761348E+03  0.30474453847E+03  0.24890965272E+03  0.57878442842E+03  0.15294330000E+03 0. -1.
<mgrwt>
<rscale>  0 0.52252789E+03</rscale>
<asrwt>0</asrwt>
<pdfrwt beam="1">  1        2 0.18986288E+00 0.52252789E+03</pdfrwt>
<pdfrwt beam="2">  1       -2 0.38177436E-01 0.52252789E+03</pdfrwt>
<totfact> 0.12132209E+02</totfact>
</mgrwt>
</event>
<event>
 4    1  0.4840632E-008  0.5706367E+03  0.7818608E-02  0.9968271E-01
         -2   -1    0    0    0  501 -0.00000000000E+00  0.00000000000E+00  0.11800320151E+03  0.11800320154E+03  0.25500000000E-02 0.  1.
          2   -1    0    0  501    0  0.00000000000E+00 -0.00000000000E+00 -0.33061191016E+04  0.33061191016E+04  0.25500000000E-02 0. -1.
    8880022    1    1    2    0    0 -0.62450997483E+02 -0.54620003809E+03 -0.89788931119E+03  0.10638756867E+04  0.15294330000E+03 0.  0.
    8880022    1    1    2    0    0  0.62450997483E+02  0.54620003809E+03 -0.22902265889E+04  0.23602466164E+04  0.15294330000E+03 0.  0.
<mgrwt>
<rscale>  0 0.57063672E+03</rscale>
<asrwt>0</asrwt>
<pdfrwt beam="1">  1        2 0.50863364E+00 0.57063672E+03</pdfrwt>
<pdfrwt beam="2">  1       -2 0.18154341E-01 0.57063672E+03</pdfrwt>
<totfact> 0.30793925E+01</totfact>
</mgrwt>
</event>
<event>
 4    1  0.4840632E-008  0.7835692E+03  0.7818608E-02  0.9584109E-01
          2   -1    0    0  501    0  0.00000000000E+00  0.00000000000E+00  0.46783196494E+04  0.46783196495E+04  0.25500000000E-02 0. -1.
         -2   -1    0    0    0  501 -0.00000000000E+00 -0.00000000000E+00 -0.32673867320E+03  0.32673867321E+03  0.25500000000E-02 0.  1.
    8880022    1    1    2    0    0 -0.67963259243E+02  0.76548682520E+03  0.24003168677E+03  0.81950957763E+03  0.15294330000E+03 0.  0.
    8880022    1    1    2    0    0  0.67963259243E+02 -0.76548682520E+03  0.41115492895E+04  0.41855487450E+04  0.15294330000E+03 0.  0.
<mgrwt>
<rscale>  0 0.78356923E+03</rscale>
<asrwt>0</asrwt>
<pdfrwt beam="1">  1        2 0.71974149E+00 0.78356923E+03</pdfrwt>
<pdfrwt beam="2">  1       -2 0.50267488E-01 0.78356923E+03</pdfrwt>
<totfact> 0.34672983E-01</totfact>
</mgrwt>
</event>
<event>
 4    1  0.4840632E-008  0.4824813E+03  0.7818608E-02  0.1018455E+00
         -2   -1    0    0    0  501 -0.00000000000E+00  0.00000000000E+00  0.35621109908E+03  0.35621109909E+03  0.25500000000E-02 0.  1.
          2   -1    0    0  501    0  0.00000000000E+00 -0.00000000000E+00 -0.32215668503E+04  0.32215668503E+04  0.25500000000E-02 0. -1.
    8880022    1    1    2    0    0  0.32273687732E+03  0.32440330855E+03  0.16449510867E+03  0.50975179487E+03  0.15294330000E+03 0.  0.
    8880022    1    1    2    0    0 -0.32273687732E+03 -0.32440330855E+03 -0.30298508599E+04  0.30680261545E+04  0.15294330000E+03 0. -1.
<mgrwt>
<rscale>  0 0.48248135E+03</rscale>
<asrwt>0</asrwt>
<pdfrwt beam="1">  1        2 0.49562565E+00 0.48248135E+03</pdfrwt>
<pdfrwt beam="2">  1       -2 0.54801710E-01 0.48248135E+03</pdfrwt>
<totfact> 0.45215465E+00</totfact>
</mgrwt>
</event>
<event>
 4    1  0.4840632E-008  0.1583367E+04  0.7818608E-02  0.8830832E-01
         -2   -1    0    0    0  501 -0.00000000000E+00  0.00000000000E+00  0.18616923578E+04  0.18616923578E+04  0.25500000000E-02 0.  1.
          2   -1    0    0  501    0  0.00000000000E+00 -0.00000000000E+00 -0.15267765860E+04  0.15267765860E+04  0.25500000000E-02 0. -1.
    8880022    1    1    2    0    0 -0.10229629727E+04 -0.11988349207E+04 -0.41447560176E+03  0.16367162516E+04  0.15294330000E+03 0.  0.
    8880022    1    1    2    0    0  0.10229629727E+04  0.11988349207E+04  0.74939137357E+03  0.17517526922E+04  0.15294330000E+03 0.  0.
<mgrwt>
<rscale>  0 0.15833667E+04</rscale>
<asrwt>0</asrwt>
<pdfrwt beam="1">  1        2 0.23488871E+00 0.15833667E+04</pdfrwt>
<pdfrwt beam="2">  1       -2 0.28641421E+00 0.15833667E+04</pdfrwt>
<totfact> 0.43990756E-01</totfact>
</mgrwt>
</event>
<event>
 4    1  0.4840632E-008  0.4123316E+03  0.7818608E-02  0.1039591E+00
         -2   -1    0    0    0  501 -0.00000000000E+00  0.00000000000E+00  0.24241814656E+03  0.24241814658E+03  0.25500000000E-02 0.  1.
          2   -1    0    0  501    0  0.00000000000E+00 -0.00000000000E+00 -0.14590700872E+04  0.14590700872E+04  0.25500000000E-02 0. -1.
    8880022    1    1    2    0    0 -0.15013924782E+03 -0.35225544051E+03 -0.12214077099E+04  0.12891292161E+04  0.15294330000E+03 0.  0.
    8880022    1    1    2    0    0  0.15013924782E+03  0.35225544051E+03  0.47557692121E+01  0.41235901768E+03  0.15294330000E+03 0.  0.
<mgrwt>
<rscale>  0 0.41233159E+03</rscale>
<asrwt>0</asrwt>
<pdfrwt beam="1">  1        2 0.22447232E+00 0.41233159E+03</pdfrwt>
<pdfrwt beam="2">  1       -2 0.37295100E-01 0.41233159E+03</pdfrwt>
<totfact> 0.96254849E+01</totfact>
</mgrwt>
</event>
<event>
 4    1  0.4840632E-008  0.1094652E+04  0.7818608E-02  0.9210420E-01
         -2   -1    0    0    0  501 -0.00000000000E+00  0.00000000000E+00  0.10955017021E+04  0.10955017021E+04  0.25500000000E-02 0.  1.
          2   -1    0    0  501    0  0.00000000000E+00 -0.00000000000E+00 -0.18493401378E+04  0.18493401378E+04  0.25500000000E-02 0. -1.
    8880022    1    1    2    0    0 -0.68455752108E+03  0.84038791133E+03  0.56421515442E+03  0.12315036478E+04  0.15294330000E+03 0.  0.
    8880022    1    1    2    0    0  0.68455752108E+03 -0.84038791133E+03 -0.13180535901E+04  0.17133381921E+04  0.15294330000E+03 0.  0.
<mgrwt>
<rscale>  0 0.10946518E+04</rscale>
<asrwt>0</asrwt>
<pdfrwt beam="1">  1        2 0.28451387E+00 0.10946518E+04</pdfrwt>
<pdfrwt beam="2">  1       -2 0.16853872E+00 0.10946518E+04</pdfrwt>
<totfact> 0.17396112E+00</totfact>
</mgrwt>
</event>
<event>
 4    1  0.4840632E-008  0.9499502E+03  0.7818608E-02  0.9365209E-01
          2   -1    0    0  501    0  0.00000000000E+00  0.00000000000E+00  0.24642689497E+04  0.24642689497E+04  0.25500000000E-02 0. -1.
         -2   -1    0    0    0  501 -0.00000000000E+00 -0.00000000000E+00 -0.65466023435E+03  0.65466023435E+03  0.25500000000E-02 0.  1.
    8880022    1    1    2    0    0 -0.36836887299E+03 -0.86215897297E+03 -0.13037008804E+03  0.95885438630E+03  0.15294330000E+03 0.  0.
    8880022    1    1    2    0    0  0.36836887299E+03  0.86215897297E+03  0.19399788034E+04  0.21600747978E+04  0.15294330000E+03 0.  0.
<mgrwt>
<rscale>  0 0.94995020E+03</rscale>
<asrwt>0</asrwt>
<pdfrwt beam="1">  1        2 0.37911831E+00 0.94995020E+03</pdfrwt>
<pdfrwt beam="2">  1       -2 0.10071696E+00 0.94995020E+03</pdfrwt>
<totfact> 0.30096903E+00</totfact>
</mgrwt>
</event>
<event>
 4    1  0.4840632E-008  0.5003841E+03  0.7818608E-02  0.1013679E+00
          2   -1    0    0  501    0  0.00000000000E+00  0.00000000000E+00  0.12550237787E+04  0.12550237787E+04  0.25500000000E-02 0. -1.
         -2   -1    0    0    0  501 -0.00000000000E+00 -0.00000000000E+00 -0.12223460199E+04  0.12223460199E+04  0.25500000000E-02 0.  1.
    8880022    1    1    2    0    0 -0.38858676924E+03  0.27566819751E+03 -0.11167597141E+04  0.12237387566E+04  0.15294330000E+03 0.  0.
    8880022    1    1    2    0    0  0.38858676924E+03 -0.27566819751E+03  0.11494374729E+04  0.12536310420E+04  0.15294330000E+03 0.  0.
<mgrwt>
<rscale>  0 0.50038414E+03</rscale>
<asrwt>0</asrwt>
<pdfrwt beam="1">  1        2 0.19308058E+00 0.50038414E+03</pdfrwt>
<pdfrwt beam="2">  1       -2 0.18805323E+00 0.50038414E+03</pdfrwt>
<totfact> 0.30233028E+00</totfact>
</mgrwt>
</event>
<event>
 4    1  0.4840632E-008  0.5145956E+03  0.7818608E-02  0.1010038E+00
         -2   -1    0    0    0  501 -0.00000000000E+00  0.00000000000E+00  0.33332102995E+03  0.33332102996E+03  0.25500000000E-02 0.  1.
          2   -1    0    0  501    0  0.00000000000E+00 -0.00000000000E+00 -0.23068876751E+04  0.23068876751E+04  0.25500000000E-02 0. -1.
    8880022    1    1    2    0    0 -0.47846272831E+03  0.11176025725E+03  0.82106767599E+02  0.52110470328E+03  0.15294330000E+03 0.  1.
    8880022    1    1    2    0    0  0.47846272831E+03 -0.11176025725E+03 -0.20556734128E+04  0.21191040018E+04  0.15294330000E+03 0.  0.
<mgrwt>
<rscale>  0 0.51459556E+03</rscale>
<asrwt>0</asrwt>
<pdfrwt beam="1">  1        2 0.35490579E+00 0.51459556E+03</pdfrwt>
<pdfrwt beam="2">  1       -2 0.51280160E-01 0.51459556E+03</pdfrwt>
<totfact> 0.17556980E+01</totfact>
</mgrwt>
</event>
<event>
 4    1  0.4840632E-008  0.4343509E+03  0.7818608E-02  0.1032494E+00
          2   -1    0    0  501    0  0.00000000000E+00  0.00000000000E+00  0.12253566075E+04  0.12253566075E+04  0.25500000000E-02 0. -1.
         -2   -1    0    0    0  501 -0.00000000000E+00 -0.00000000000E+00 -0.33911691068E+03  0.33911691069E+03  0.25500000000E-02 0.  1.
    8880022    1    1    2    0    0 -0.23579635487E+02  0.40584854177E+03 -0.13488153466E+03  0.45481174069E+03  0.15294330000E+03 0.  0.
    8880022    1    1    2    0    0  0.23579635487E+02 -0.40584854177E+03  0.10211212315E+04  0.11096617775E+04  0.15294330000E+03 0.  0.
<mgrwt>
<rscale>  0 0.43435088E+03</rscale>
<asrwt>0</asrwt>
<pdfrwt beam="1">  1        2 0.18851640E+00 0.43435088E+03</pdfrwt>
<pdfrwt beam="2">  1       -2 0.52171831E-01 0.43435088E+03</pdfrwt>
<totfact> 0.66961629E+01</totfact>
</mgrwt>
</event>
<event>
 4    1  0.4840632E-008  0.4783392E+03  0.7818608E-02  0.1019593E+00
          2   -1    0    0  501    0  0.00000000000E+00  0.00000000000E+00  0.98398238462E+03  0.98398238463E+03  0.25500000000E-02 0. -1.
         -2   -1    0    0    0  501 -0.00000000000E+00 -0.00000000000E+00 -0.35657491777E+03  0.35657491778E+03  0.25500000000E-02 0.  1.
    8880022    1    1    2    0    0  0.42710726080E+03 -0.15164463112E+03 -0.81630348828E+02  0.48525444175E+03  0.15294330000E+03 0.  0.
    8880022    1    1    2    0    0 -0.42710726080E+03  0.15164463112E+03  0.70903781567E+03  0.85530286066E+03  0.15294330000E+03 0.  0.
<mgrwt>
<rscale>  0 0.47833917E+03</rscale>
<asrwt>0</asrwt>
<pdfrwt beam="1">  1        2 0.15138190E+00 0.47833917E+03</pdfrwt>
<pdfrwt beam="2">  1       -2 0.54857681E-01 0.47833917E+03</pdfrwt>
<totfact> 0.83906511E+01</totfact>
</mgrwt>
</event>
<event>
 4    1  0.4840632E-008  0.3623673E+03  0.7818608E-02  0.1057650E+00
          2   -1    0    0  501    0  0.00000000000E+00  0.00000000000E+00  0.76112882916E+03  0.76112882916E+03  0.25500000000E-02 0. -1.
         -2   -1    0    0    0  501 -0.00000000000E+00 -0.00000000000E+00 -0.32239713105E+03  0.32239713106E+03  0.25500000000E-02 0.  1.
    8880022    1    1    2    0    0 -0.61370474343E+01 -0.32845205944E+03 -0.15002079344E+03  0.39219422507E+03  0.15294330000E+03 0.  0.
    8880022    1    1    2    0    0  0.61370474343E+01  0.32845205944E+03  0.58875249155E+03  0.69133173515E+03  0.15294330000E+03 0.  0.
<mgrwt>
<rscale>  0 0.36236732E+03</rscale>
<asrwt>0</asrwt>
<pdfrwt beam="1">  1        2 0.11709674E+00 0.36236732E+03</pdfrwt>
<pdfrwt beam="2">  1       -2 0.49599559E-01 0.36236732E+03</pdfrwt>
<totfact> 0.14748393E+02</totfact>
</mgrwt>
</event>
<event>
 4    1  0.4840632E-008  0.3600115E+03  0.7818608E-02  0.1058579E+00
         -2   -1    0    0    0  501 -0.00000000000E+00  0.00000000000E+00  0.38650736794E+03  0.38650736795E+03  0.25500000000E-02 0.  1.
          2   -1    0    0  501    0  0.00000000000E+00 -0.00000000000E+00 -0.16706696703E+04  0.16706696703E+04  0.25500000000E-02 0. -1.
    8880022    1    1    2    0    0  0.23410864742E+03 -0.22673723977E+03  0.27750395584E+03  0.45455113378E+03  0.15294330000E+03 0.  1.
    8880022    1    1    2    0    0 -0.23410864742E+03  0.22673723977E+03 -0.15616662582E+04  0.16026259045E+04  0.15294330000E+03 0.  0.
<mgrwt>
<rscale>  0 0.36001151E+03</rscale>
<asrwt>0</asrwt>
<pdfrwt beam="1">  1        2 0.25702610E+00 0.36001151E+03</pdfrwt>
<pdfrwt beam="2">  1       -2 0.59462673E-01 0.36001151E+03</pdfrwt>
<totfact> 0.29526347E+01</totfact>
</mgrwt>
</event>
<event>
 4    1  0.4840632E-008  0.2729405E+03  0.7818608E-02  0.1099608E+00
         -2   -1    0    0    0  501 -0.00000000000E+00  0.00000000000E+00  0.49774241047E+02  0.49774241112E+02  0.25500000000E-02 0.  1.
          2   -1    0    0  501    0  0.00000000000E+00 -0.00000000000E+00 -0.24857612870E+04  0.24857612870E+04  0.25500000000E-02 0. -1.
    8880022    1    1    2    0    0  0.35109328933E+02  0.22332088171E+03 -0.41829900075E+03  0.49947030765E+03  0.15294330000E+03 0.  0.
    8880022    1    1    2    0    0 -0.35109328933E+02 -0.22332088171E+03 -0.20176880452E+04  0.20360652205E+04  0.15294330000E+03 0. -1.
<mgrwt>
<rscale>  0 0.27294053E+03</rscale>
<asrwt>0</asrwt>
<pdfrwt beam="1">  1        2 0.38242472E+00 0.27294053E+03</pdfrwt>
<pdfrwt beam="2">  1       -2 0.76575775E-02 0.27294053E+03</pdfrwt>
<totfact> 0.41378392E+02</totfact>
</mgrwt>
</event>
<event>
 4    1  0.4840632E-008  0.7070160E+03  0.7818608E-02  0.9705309E-01
         -2   -1    0    0    0  501 -0.00000000000E+00  0.00000000000E+00  0.47622440903E+03  0.47622440904E+03  0.25500000000E-02 0.  1.
          2   -1    0    0  501    0  0.00000000000E+00 -0.00000000000E+00 -0.25222046877E+04  0.25222046877E+04  0.25500000000E-02 0. -1.
    8880022    1    1    2    0    0 -0.57293560589E+03 -0.38499974896E+03  0.12254521853E+03  0.71755766235E+03  0.15294330000E+03 0.  0.
    8880022    1    1    2    0    0  0.57293560589E+03  0.38499974896E+03 -0.21685254972E+04  0.22808714344E+04  0.15294330000E+03 0.  0.
<mgrwt>
<rscale>  0 0.70701603E+03</rscale>
<asrwt>0</asrwt>
<pdfrwt beam="1">  1        2 0.38803148E+00 0.70701603E+03</pdfrwt>
<pdfrwt beam="2">  1       -2 0.73265295E-01 0.70701603E+03</pdfrwt>
<totfact> 0.60154930E+00</totfact>
</mgrwt>
</event>
<event>
 4    1  0.4840632E-008  0.7946993E+03  0.7818608E-02  0.9567722E-01
          2   -1    0    0  501    0  0.00000000000E+00  0.00000000000E+00  0.10467905158E+04  0.10467905158E+04  0.25500000000E-02 0. -1.
         -2   -1    0    0    0  501 -0.00000000000E+00 -0.00000000000E+00 -0.80921242747E+03  0.80921242748E+03  0.25500000000E-02 0.  1.
    8880022    1    1    2    0    0  0.74588468647E+03  0.22762097615E+03 -0.34931277315E+03  0.86808198967E+03  0.15294330000E+03 0.  0.
    8880022    1    1    2    0    0 -0.74588468647E+03 -0.22762097615E+03  0.58689086151E+03  0.98792095364E+03  0.15294330000E+03 0.  0.
<mgrwt>
<rscale>  0 0.79469927E+03</rscale>
<asrwt>0</asrwt>
<pdfrwt beam="1">  1        2 0.16104469E+00 0.79469927E+03</pdfrwt>
<pdfrwt beam="2">  1       -2 0.12449422E+00 0.79469927E+03</pdfrwt>
<totfact> 0.11534540E+01</totfact>
</mgrwt>
</event>
<event>
 4    1  0.4840632E-008  0.6130248E+03  0.7818608E-02  0.9878746E-01
          2   -1    0    0  501    0  0.00000000000E+00  0.00000000000E+00  0.36254694746E+04  0.36254694746E+04  0.25500000000E-02 0. -1.
         -2   -1    0    0    0  501 -0.00000000000E+00 -0.00000000000E+00 -0.13811280120E+03  0.13811280122E+03  0.25500000000E-02 0.  1.
    8880022    1    1    2    0    0  0.12315728781E+03 -0.58072372770E+03  0.80374763881E+03  0.10108460246E+04  0.15294330000E+03 0.  0.
    8880022    1    1    2    0    0 -0.12315728781E+03  0.58072372770E+03  0.26836090346E+04  0.27527362513E+04  0.15294330000E+03 0.  0.
<mgrwt>
<rscale>  0 0.61302481E+03</rscale>
<asrwt>0</asrwt>
<pdfrwt beam="1">  1        2 0.55776447E+00 0.61302481E+03</pdfrwt>
<pdfrwt beam="2">  1       -2 0.21248126E-01 0.61302481E+03</pdfrwt>
<totfact> 0.14146974E+01</totfact>
</mgrwt>
</event>
<event>
 4    1  0.4840632E-008  0.6963936E+03  0.7818608E-02  0.9723420E-01
          2   -1    0    0  501    0  0.00000000000E+00  0.00000000000E+00  0.16560623344E+04  0.16560623344E+04  0.25500000000E-02 0. -1.
         -2   -1    0    0    0  501 -0.00000000000E+00 -0.00000000000E+00 -0.46584609600E+03  0.46584609601E+03  0.25500000000E-02 0.  1.
    8880022    1    1    2    0    0  0.50433757916E+03  0.45520985194E+03 -0.51444718466E+02  0.69829121083E+03  0.15294330000E+03 0.  0.
    8880022    1    1    2    0    0 -0.50433757916E+03 -0.45520985194E+03  0.12416609568E+04  0.14236172195E+04  0.15294330000E+03 0.  0.
<mgrwt>
<rscale>  0 0.69639361E+03</rscale>
<asrwt>0</asrwt>
<pdfrwt beam="1">  1        2 0.25477882E+00 0.69639361E+03</pdfrwt>
<pdfrwt beam="2">  1       -2 0.71668632E-01 0.69639361E+03</pdfrwt>
<totfact> 0.18946305E+01</totfact>
</mgrwt>
</event>
<event>
 4    1  0.4840632E-008  0.1264918E+04  0.7818608E-02  0.9057858E-01
         -2   -1    0    0    0  501 -0.00000000000E+00  0.00000000000E+00  0.11718122071E+04  0.11718122071E+04  0.25500000000E-02 0.  1.
          2   -1    0    0  501    0  0.00000000000E+00 -0.00000000000E+00 -0.18424535693E+04  0.18424535693E+04  0.25500000000E-02 0. -1.
    8880022    1    1    2    0    0 -0.11703464713E+04 -0.45487866395E+03 -0.11022003784E+04  0.16777552828E+04  0.15294330000E+03 0.  0.
    8880022    1    1    2    0    0  0.11703464713E+04  0.45487866395E+03  0.43155901624E+03  0.13365104935E+04  0.15294330000E+03 0.  0.
<mgrwt>
<rscale>  0 0.12649178E+04</rscale>
<asrwt>0</asrwt>
<pdfrwt beam="1">  1        2 0.28345440E+00 0.12649178E+04</pdfrwt>
<pdfrwt beam="2">  1       -2 0.18027880E+00 0.12649178E+04</pdfrwt>
<totfact> 0.14220741E+00</totfact>
</mgrwt>
</event>
<event>
 4    1  0.4840632E-008  0.3869920E+03  0.7818608E-02  0.1048379E+00
         -2   -1    0    0    0  501 -0.00000000000E+00  0.00000000000E+00  0.12211305807E+03  0.12211305809E+03  0.25500000000E-02 0.  1.
          2   -1    0    0  501    0  0.00000000000E+00 -0.00000000000E+00 -0.24995205189E+04  0.24995205189E+04  0.25500000000E-02 0. -1.
    8880022    1    1    2    0    0  0.17617750189E+03  0.30875978633E+03 -0.25320378075E+03  0.46246613436E+03  0.15294330000E+03 0.  0.
    8880022    1    1    2    0    0 -0.17617750189E+03 -0.30875978633E+03 -0.21242036801E+04  0.21591674427E+04  0.15294330000E+03 0.  0.
<mgrwt>
<rscale>  0 0.38699195E+03</rscale>
<asrwt>0</asrwt>
<pdfrwt beam="1">  1        2 0.38454158E+00 0.38699195E+03</pdfrwt>
<pdfrwt beam="2">  1       -2 0.18786626E-01 0.38699195E+03</pdfrwt>
<totfact> 0.91504124E+01</totfact>
</mgrwt>
</event>
<event>
 4    1  0.4840632E-008  0.4925187E+03  0.7818608E-02  0.1015750E+00
         -2   -1    0    0    0  501 -0.00000000000E+00  0.00000000000E+00  0.11014523472E+04  0.11014523472E+04  0.25500000000E-02 0.  1.
          2   -1    0    0  501    0  0.00000000000E+00 -0.00000000000E+00 -0.29548074056E+03  0.29548074057E+03  0.25500000000E-02 0. -1.
    8880022    1    1    2    0    0 -0.19521086936E+03  0.42552996142E+03  0.75546346840E+03  0.90183132385E+03  0.15294330000E+03 0.  0.
    8880022    1    1    2    0    0  0.19521086936E+03 -0.42552996142E+03  0.50508138219E+02  0.49510176390E+03  0.15294330000E+03 0.  0.
<mgrwt>
<rscale>  0 0.49251871E+03</rscale>
<asrwt>0</asrwt>
<pdfrwt beam="1">  1        2 0.45458575E-01 0.49251871E+03</pdfrwt>
<pdfrwt beam="2">  1       -2 0.16945421E+00 0.49251871E+03</pdfrwt>
<totfact> 0.24923342E+01</totfact>
</mgrwt>
</event>
<event>
 4    1  0.4840632E-008  0.7861432E+03  0.7818608E-02  0.9580294E-01
          2   -1    0    0  501    0  0.00000000000E+00  0.00000000000E+00  0.26892882155E+04  0.26892882155E+04  0.25500000000E-02 0. -1.
         -2   -1    0    0    0  501 -0.00000000000E+00 -0.00000000000E+00 -0.27500327997E+03  0.27500327998E+03  0.25500000000E-02 0.  1.
    8880022    1    1    2    0    0  0.31810155979E+03 -0.70245341317E+03  0.60629181317E+03  0.99277933890E+03  0.15294330000E+03 0.  1.
    8880022    1    1    2    0    0 -0.31810155979E+03  0.70245341317E+03  0.18079931224E+04  0.19715121566E+04  0.15294330000E+03 0.  0.
<mgrwt>
<rscale>  0 0.78614315E+03</rscale>
<asrwt>0</asrwt>
<pdfrwt beam="1">  1        2 0.41373664E+00 0.78614315E+03</pdfrwt>
<pdfrwt beam="2">  1       -2 0.42308197E-01 0.78614315E+03</pdfrwt>
<totfact> 0.14928167E+01</totfact>
</mgrwt>
</event>
<event>
 4    1  0.4840632E-008  0.5432534E+03  0.7818608E-02  0.1003068E+00
         -2   -1    0    0    0  501 -0.00000000000E+00  0.00000000000E+00  0.22130463367E+03  0.22130463369E+03  0.25500000000E-02 0.  1.
          2   -1    0    0  501    0  0.00000000000E+00 -0.00000000000E+00 -0.17407446769E+04  0.17407446769E+04  0.25500000000E-02 0. -1.
    8880022    1    1    2    0    0  0.50278768017E+03  0.13761243926E+03 -0.12341859292E+04  0.13484580807E+04  0.15294330000E+03 0.  0.
    8880022    1    1    2    0    0 -0.50278768017E+03 -0.13761243926E+03 -0.28525411410E+03  0.61359122988E+03  0.15294330000E+03 0.  1.
<mgrwt>
<rscale>  0 0.54325343E+03</rscale>
<asrwt>0</asrwt>
<pdfrwt beam="1">  1        2 0.26780686E+00 0.54325343E+03</pdfrwt>
<pdfrwt beam="2">  1       -2 0.34046868E-01 0.54325343E+03</pdfrwt>
<totfact> 0.78850528E+01</totfact>
</mgrwt>
</event>
<event>
 4    1  0.4840632E-008  0.7776041E+03  0.7818608E-02  0.9593012E-01
          2   -1    0    0  501    0  0.00000000000E+00  0.00000000000E+00  0.11069347768E+04  0.11069347768E+04  0.25500000000E-02 0. -1.
         -2   -1    0    0    0  501 -0.00000000000E+00 -0.00000000000E+00 -0.81641568756E+03  0.81641568756E+03  0.25500000000E-02 0.  1.
    8880022    1    1    2    0    0 -0.52761623345E+03 -0.55036135318E+03 -0.40794303427E+03  0.87811484505E+03  0.15294330000E+03 0.  0.
    8880022    1    1    2    0    0  0.52761623345E+03  0.55036135318E+03  0.69846212349E+03  0.10452356193E+04  0.15294330000E+03 0.  0.
<mgrwt>
<rscale>  0 0.77760412E+03</rscale>
<asrwt>0</asrwt>
<pdfrwt beam="1">  1        2 0.17029766E+00 0.77760412E+03</pdfrwt>
<pdfrwt beam="2">  1       -2 0.12560241E+00 0.77760412E+03</pdfrwt>
<totfact> 0.10375160E+01</totfact>
</mgrwt>
</event>
<event>
 4    1  0.4840632E-008  0.6117257E+03  0.7818608E-02  0.9881373E-01
          2   -1    0    0  501    0  0.00000000000E+00  0.00000000000E+00  0.20479578131E+04  0.20479578131E+04  0.25500000000E-02 0. -1.
         -2   -1    0    0    0  501 -0.00000000000E+00 -0.00000000000E+00 -0.23045209457E+03  0.23045209459E+03  0.25500000000E-02 0.  1.
    8880022    1    1    2    0    0 -0.42934411963E+03  0.40801996520E+03  0.39030553457E+03  0.72563539631E+03  0.15294330000E+03 0.  0.
    8880022    1    1    2    0    0  0.42934411963E+03 -0.40801996520E+03  0.14272001839E+04  0.15527745113E+04  0.15294330000E+03 0.  0.
<mgrwt>
<rscale>  0 0.61172569E+03</rscale>
<asrwt>0</asrwt>
<pdfrwt beam="1">  1        2 0.31507042E+00 0.61172569E+03</pdfrwt>
<pdfrwt beam="2">  1       -2 0.35454170E-01 0.61172569E+03</pdfrwt>
<totfact> 0.49319073E+01</totfact>
</mgrwt>
</event>
<event>
 4    1  0.4840632E-008  0.1933835E+03  0.7818608E-02  0.1155445E+00
         -2   -1    0    0    0  501 -0.00000000000E+00  0.00000000000E+00  0.65135298378E+02  0.65135298428E+02  0.25500000000E-02 0.  1.
          2   -1    0    0  501    0  0.00000000000E+00 -0.00000000000E+00 -0.23739873402E+04  0.23739873402E+04  0.25500000000E-02 0. -1.
    8880022    1    1    2    0    0 -0.98369755018E+02  0.65794557301E+02 -0.92531141070E+02  0.21438096360E+03  0.15294330000E+03 0.  0.
    8880022    1    1    2    0    0  0.98369755018E+02 -0.65794557301E+02 -0.22163209007E+04  0.22247416750E+04  0.15294330000E+03 0. -1.
<mgrwt>
<rscale>  0 0.19338352E+03</rscale>
<asrwt>0</asrwt>
<pdfrwt beam="1">  1        2 0.36522875E+00 0.19338352E+03</pdfrwt>
<pdfrwt beam="2">  1       -2 0.10020817E-01 0.19338352E+03</pdfrwt>
<totfact> 0.31815036E+02</totfact>
</mgrwt>
</event>
<event>
 4    1  0.4840632E-008  0.9072003E+03  0.7818608E-02  0.9416625E-01
          2   -1    0    0  501    0  0.00000000000E+00  0.00000000000E+00  0.19755706065E+04  0.19755706065E+04  0.25500000000E-02 0. -1.
         -2   -1    0    0    0  501 -0.00000000000E+00 -0.00000000000E+00 -0.70183509507E+03  0.70183509508E+03  0.25500000000E-02 0.  1.
    8880022    1    1    2    0    0 -0.87037291655E+03 -0.20511375452E+03 -0.21657055302E+03  0.93269240567E+03  0.15294330000E+03 0.  0.
    8880022    1    1    2    0    0  0.87037291655E+03  0.20511375452E+03  0.14903060644E+04  0.17447132959E+04  0.15294330000E+03 0.  0.
<mgrwt>
<rscale>  0 0.90720026E+03</rscale>
<asrwt>0</asrwt>
<pdfrwt beam="1">  1        2 0.30393393E+00 0.90720026E+03</pdfrwt>
<pdfrwt beam="2">  1       -2 0.10797463E+00 0.90720026E+03</pdfrwt>
<totfact> 0.47922902E+00</totfact>
</mgrwt>
</event>
<event>
 4    1  0.4840632E-008  0.5074108E+03  0.7818608E-02  0.1011862E+00
         -2   -1    0    0    0  501 -0.00000000000E+00  0.00000000000E+00  0.11649017597E+04  0.11649017597E+04  0.25500000000E-02 0.  1.
          2   -1    0    0  501    0  0.00000000000E+00 -0.00000000000E+00 -0.38881437230E+03  0.38881437231E+03  0.25500000000E-02 0. -1.
    8880022    1    1    2    0    0  0.44747254331E+03  0.18396306062E+03  0.89838434461E+03  0.10317752509E+04  0.15294330000E+03 0.  0.
    8880022    1    1    2    0    0 -0.44747254331E+03 -0.18396306062E+03 -0.12229695717E+03  0.52194088117E+03  0.15294330000E+03 0.  0.
<mgrwt>
<rscale>  0 0.50741082E+03</rscale>
<asrwt>0</asrwt>
<pdfrwt beam="1">  1        2 0.59817596E-01 0.50741082E+03</pdfrwt>
<pdfrwt beam="2">  1       -2 0.17921566E+00 0.50741082E+03</pdfrwt>
<totfact> 0.15722331E+01</totfact>
</mgrwt>
</event>
<event>
 4    1  0.4840632E-008  0.9282297E+03  0.7818608E-02  0.9390965E-01
          2   -1    0    0  501    0  0.00000000000E+00  0.00000000000E+00  0.12633756060E+04  0.12633756060E+04  0.25500000000E-02 0. -1.
         -2   -1    0    0    0  501 -0.00000000000E+00 -0.00000000000E+00 -0.13958787340E+04  0.13958787340E+04  0.25500000000E-02 0.  1.
    8880022    1    1    2    0    0  0.81901152274E+03  0.40919290747E+03  0.88461833423E+03  0.12822480104E+04  0.15294330000E+03 0.  0.
    8880022    1    1    2    0    0 -0.81901152274E+03 -0.40919290747E+03 -0.10171214623E+04  0.13770063297E+04  0.15294330000E+03 0.  0.
<mgrwt>
<rscale>  0 0.92822969E+03</rscale>
<asrwt>0</asrwt>
<pdfrwt beam="1">  1        2 0.19436548E+00 0.92822969E+03</pdfrwt>
<pdfrwt beam="2">  1       -2 0.21475057E+00 0.92822969E+03</pdfrwt>
<totfact> 0.18594320E+00</totfact>
</mgrwt>
</event>
<event>
 4    1  0.4840632E-008  0.3127974E+03  0.7818608E-02  0.1079013E+00
         -2   -1    0    0    0  501 -0.00000000000E+00  0.00000000000E+00  0.31126262651E+03  0.31126262652E+03  0.25500000000E-02 0.  1.
          2   -1    0    0  501    0  0.00000000000E+00 -0.00000000000E+00 -0.29774587737E+04  0.29774587737E+04  0.25500000000E-02 0. -1.
    8880022    1    1    2    0    0  0.25583084895E+03 -0.94874332351E+02 -0.28882380982E+04  0.29051267661E+04  0.15294330000E+03 0.  0.
    8880022    1    1    2    0    0 -0.25583084895E+03  0.94874332351E+02  0.22204195108E+03  0.38359463405E+03  0.15294330000E+03 0.  0.
<mgrwt>
<rscale>  0 0.31279740E+03</rscale>
<asrwt>0</asrwt>
<pdfrwt beam="1">  1        2 0.45807056E+00 0.31279740E+03</pdfrwt>
<pdfrwt beam="2">  1       -2 0.47886560E-01 0.31279740E+03</pdfrwt>
<totfact> 0.89467935E+00</totfact>
</mgrwt>
</event>
<event>
 4    1  0.4840632E-008  0.6619199E+03  0.7818608E-02  0.9784666E-01
         -2   -1    0    0    0  501 -0.00000000000E+00  0.00000000000E+00  0.80458447072E+03  0.80458447073E+03  0.25500000000E-02 0.  1.
          2   -1    0    0  501    0  0.00000000000E+00 -0.00000000000E+00 -0.88850065333E+03  0.88850065334E+03  0.25500000000E-02 0. -1.
    8880022    1    1    2    0    0  0.62727059524E+03  0.14586968278E+03  0.48474610777E+03  0.82043696042E+03  0.15294330000E+03 0.  0.
    8880022    1    1    2    0    0 -0.62727059524E+03 -0.14586968278E+03 -0.56866229038E+03  0.87264816365E+03  0.15294330000E+03 0. -1.
<mgrwt>
<rscale>  0 0.66191995E+03</rscale>
<asrwt>0</asrwt>
<pdfrwt beam="1">  1        2 0.13669241E+00 0.66191995E+03</pdfrwt>
<pdfrwt beam="2">  1       -2 0.12378223E+00 0.66191995E+03</pdfrwt>
<totfact> 0.15051608E+01</totfact>
</mgrwt>
</event>
<event>
 4    1  0.4840632E-008  0.2156250E+03  0.7818608E-02  0.1137187E+00
         -2   -1    0    0    0  501 -0.00000000000E+00  0.00000000000E+00  0.13908404011E+03  0.13908404013E+03  0.25500000000E-02 0.  1.
          2   -1    0    0  501    0  0.00000000000E+00 -0.00000000000E+00 -0.12718581551E+04  0.12718581551E+04  0.25500000000E-02 0. -1.
    8880022    1    1    2    0    0 -0.95734778252E+02 -0.11805643753E+03  0.39318805551E+02  0.21918050026E+03  0.15294330000E+03 0.  0.
    8880022    1    1    2    0    0  0.95734778252E+02  0.11805643753E+03 -0.11720929205E+04  0.11917616950E+04  0.15294330000E+03 0. -1.
<mgrwt>
<rscale>  0 0.21562496E+03</rscale>
<asrwt>0</asrwt>
<pdfrwt beam="1">  1        2 0.19567048E+00 0.21562496E+03</pdfrwt>
<pdfrwt beam="2">  1       -2 0.21397545E-01 0.21562496E+03</pdfrwt>
<totfact> 0.34547667E+02</totfact>
</mgrwt>
</event>
<event>
 4    1  0.4840632E-008  0.5292621E+03  0.7818608E-02  0.1006411E+00
         -2   -1    0    0    0  501 -0.00000000000E+00  0.00000000000E+00  0.58016715398E+03  0.58016715398E+03  0.25500000000E-02 0.  1.
          2   -1    0    0  501    0  0.00000000000E+00 -0.00000000000E+00 -0.62381502975E+03  0.62381502975E+03  0.25500000000E-02 0. -1.
    8880022    1    1    2    0    0  0.48311344921E+03  0.15273554251E+03 -0.30801658968E+03  0.61236641260E+03  0.15294330000E+03 0.  0.
    8880022    1    1    2    0    0 -0.48311344921E+03 -0.15273554251E+03  0.26436871390E+03  0.59161577114E+03  0.15294330000E+03 0.  0.
<mgrwt>
<rscale>  0 0.52926213E+03</rscale>
<asrwt>0</asrwt>
<pdfrwt beam="1">  1        2 0.95971542E-01 0.52926213E+03</pdfrwt>
<pdfrwt beam="2">  1       -2 0.89256486E-01 0.52926213E+03</pdfrwt>
<totfact> 0.52550015E+01</totfact>
</mgrwt>
</event>
<event>
 4    1  0.4840632E-008  0.5473363E+03  0.7818608E-02  0.1002112E+00
          2   -1    0    0  501    0  0.00000000000E+00  0.00000000000E+00  0.86012411486E+03  0.86012411487E+03  0.25500000000E-02 0. -1.
         -2   -1    0    0    0  501 -0.00000000000E+00 -0.00000000000E+00 -0.15890663240E+04  0.15890663240E+04  0.25500000000E-02 0.  1.
    8880022    1    1    2    0    0  0.39533272373E+03  0.34626212699E+03 -0.14465710909E+04  0.15466560695E+04  0.15294330000E+03 0.  0.
    8880022    1    1    2    0    0 -0.39533272373E+03 -0.34626212699E+03  0.71762888178E+03  0.90253436944E+03  0.15294330000E+03 0.  0.
<mgrwt>
<rscale>  0 0.54733635E+03</rscale>
<asrwt>0</asrwt>
<pdfrwt beam="1">  1        2 0.13232679E+00 0.54733635E+03</pdfrwt>
<pdfrwt beam="2">  1       -2 0.24447174E+00 0.54733635E+03</pdfrwt>
<totfact> 0.23243973E+00</totfact>
</mgrwt>
</event>
<event>
 4    1  0.4840632E-008  0.1223960E+04  0.7818608E-02  0.9092139E-01
          2   -1    0    0  501    0  0.00000000000E+00  0.00000000000E+00  0.26932488006E+04  0.26932488006E+04  0.25500000000E-02 0. -1.
         -2   -1    0    0    0  501 -0.00000000000E+00 -0.00000000000E+00 -0.10118379409E+04  0.10118379409E+04  0.25500000000E-02 0.  1.
    8880022    1    1    2    0    0 -0.96532767272E+03  0.73676913375E+03 -0.40239551748E+03  0.12884099028E+04  0.15294330000E+03 0.  0.
    8880022    1    1    2    0    0  0.96532767272E+03 -0.73676913375E+03  0.20838063772E+04  0.24166768387E+04  0.15294330000E+03 0.  0.
<mgrwt>
<rscale>  0 0.12239599E+04</rscale>
<asrwt>0</asrwt>
<pdfrwt beam="1">  1        2 0.41434596E+00 0.12239599E+04</pdfrwt>
<pdfrwt beam="2">  1       -2 0.15566738E+00 0.12239599E+04</pdfrwt>
<totfact> 0.71030505E-01</totfact>
</mgrwt>
</event>
<event>
 4    1  0.4840632E-008  0.2508531E+03  0.7818608E-02  0.1112767E+00
         -2   -1    0    0    0  501 -0.00000000000E+00  0.00000000000E+00  0.29834750745E+03  0.29834750746E+03  0.25500000000E-02 0.  1.
          2   -1    0    0  501    0  0.00000000000E+00 -0.00000000000E+00 -0.16375978764E+04  0.16375978764E+04  0.25500000000E-02 0. -1.
    8880022    1    1    2    0    0  0.39222203036E+02 -0.19492884590E+03 -0.15731134591E+04  0.15929887772E+04  0.15294330000E+03 0.  0.
    8880022    1    1    2    0    0 -0.39222203036E+02  0.19492884590E+03  0.23386309007E+03  0.34295660671E+03  0.15294330000E+03 0.  1.
<mgrwt>
<rscale>  0 0.25085312E+03</rscale>
<asrwt>0</asrwt>
<pdfrwt beam="1">  1        2 0.25193813E+00 0.25085312E+03</pdfrwt>
<pdfrwt beam="2">  1       -2 0.45899618E-01 0.25085312E+03</pdfrwt>
<totfact> 0.53613256E+01</totfact>
</mgrwt>
</event>
<event>
 4    1  0.4840632E-008  0.2571941E+03  0.7818608E-02  0.1108841E+00
          2   -1    0    0  501    0  0.00000000000E+00  0.00000000000E+00  0.69580103388E+03  0.69580103389E+03  0.25500000000E-02 0. -1.
         -2   -1    0    0    0  501 -0.00000000000E+00 -0.00000000000E+00 -0.42133095790E+03  0.42133095790E+03  0.25500000000E-02 0.  1.
    8880022    1    1    2    0    0  0.17455009539E+03  0.11085759361E+03 -0.35429077145E+03  0.43780217635E+03  0.15294330000E+03 0.  1.
    8880022    1    1    2    0    0 -0.17455009539E+03 -0.11085759361E+03  0.62876084744E+03  0.67932981544E+03  0.15294330000E+03 0.  0.
<mgrwt>
<rscale>  0 0.25719408E+03</rscale>
<asrwt>0</asrwt>
<pdfrwt beam="1">  1        2 0.10704631E+00 0.25719408E+03</pdfrwt>
<pdfrwt beam="2">  1       -2 0.64820148E-01 0.25719408E+03</pdfrwt>
<totfact> 0.96393744E+01</totfact>
</mgrwt>
</event>
<event>
 4    1  0.4840632E-008  0.3844311E+03  0.7818608E-02  0.1049308E+00
         -2   -1    0    0    0  501 -0.00000000000E+00  0.00000000000E+00  0.51741294563E+03  0.51741294564E+03  0.25500000000E-02 0.  1.
          2   -1    0    0  501    0  0.00000000000E+00 -0.00000000000E+00 -0.82017441596E+03  0.82017441596E+03  0.25500000000E-02 0. -1.
    8880022    1    1    2    0    0  0.18208154854E+03 -0.30206281680E+03 -0.69130398216E+03  0.79100473095E+03  0.15294330000E+03 0.  0.
    8880022    1    1    2    0    0 -0.18208154854E+03  0.30206281680E+03  0.38854251184E+03  0.54658263065E+03  0.15294330000E+03 0.  0.
<mgrwt>
<rscale>  0 0.38443112E+03</rscale>
<asrwt>0</asrwt>
<pdfrwt beam="1">  1        2 0.12618068E+00 0.38443112E+03</pdfrwt>
<pdfrwt beam="2">  1       -2 0.79601992E-01 0.38443112E+03</pdfrwt>
<totfact> 0.49165039E+01</totfact>
</mgrwt>
</event>
<event>
 4    1  0.7162860E-008  0.6544449E+03  0.7818608E-02  0.9798474E-01
          2   -1    0    0  501    0  0.00000000000E+00  0.00000000000E+00  0.19931149820E+04  0.19931149820E+04  0.25500000000E-02 0. -1.
         -2   -1    0    0    0  501 -0.00000000000E+00 -0.00000000000E+00 -0.10371267870E+04  0.10371267870E+04  0.25500000000E-02 0.  1.
    8880022    1    1    2    0    0 -0.63472202186E+03 -0.45104426866E+02 -0.87106235865E+03  0.10895172050E+04  0.15294330000E+03 0.  1.
    8880022    1    1    2    0    0  0.63472202186E+03  0.45104426866E+02  0.18270505536E+04  0.19407245639E+04  0.15294330000E+03 0.  0.
<mgrwt>
<rscale>  0 0.65444488E+03</rscale>
<asrwt>0</asrwt>
<pdfrwt beam="1">  1        2 0.30663307E+00 0.65444488E+03</pdfrwt>
<pdfrwt beam="2">  1       -2 0.15955797E+00 0.65444488E+03</pdfrwt>
<totfact> 0.18114829E+00</totfact>
</mgrwt>
</event>
<event>
 4    1  0.1064074E-007  0.6317126E+03  0.7818608E-02  0.9841712E-01
          2   -1    0    0  501    0  0.00000000000E+00  0.00000000000E+00  0.27750119917E+04  0.27750119917E+04  0.25500000000E-02 0. -1.
         -2   -1    0    0    0  501 -0.00000000000E+00 -0.00000000000E+00 -0.12635481348E+04  0.12635481348E+04  0.25500000000E-02 0.  1.
    8880022    1    1    2    0    0 -0.22644663736E+03 -0.56955343539E+03 -0.11451706018E+04  0.13078518859E+04  0.15294330000E+03 0.  0.
    8880022    1    1    2    0    0  0.22644663736E+03  0.56955343539E+03  0.26566344586E+04  0.27307082406E+04  0.15294330000E+03 0.  0.
<mgrwt>
<rscale>  0 0.63171263E+03</rscale>
<asrwt>0</asrwt>
<pdfrwt beam="1">  1        2 0.42692492E+00 0.63171263E+03</pdfrwt>
<pdfrwt beam="2">  1       -2 0.19439202E+00 0.63171263E+03</pdfrwt>
<totfact> 0.38195979E-01</totfact>
</mgrwt>
</event>
<event>
 4    1  0.4840632E-008  0.7306512E+03  0.7818608E-02  0.9666204E-01
          2   -1    0    0  501    0  0.00000000000E+00  0.00000000000E+00  0.31961609921E+04  0.31961609921E+04  0.25500000000E-02 0. -1.
         -2   -1    0    0    0  501 -0.00000000000E+00 -0.00000000000E+00 -0.35308354885E+03  0.35308354886E+03  0.25500000000E-02 0.  1.
    8880022    1    1    2    0    0  0.46407236078E+03 -0.54322779602E+03  0.27097510512E+04  0.28065284618E+04  0.15294330000E+03 0.  0.
    8880022    1    1    2    0    0 -0.46407236078E+03  0.54322779602E+03  0.13332639205E+03  0.74271607916E+03  0.15294330000E+03 0.  0.
<mgrwt>
<rscale>  0 0.73065125E+03</rscale>
<asrwt>0</asrwt>
<pdfrwt beam="1">  1        2 0.49171706E+00 0.73065125E+03</pdfrwt>
<pdfrwt beam="2">  1       -2 0.54320547E-01 0.73065125E+03</pdfrwt>
<totfact> 0.44832644E+00</totfact>
</mgrwt>
</event>
<event>
 4    1  0.4840632E-008  0.1881893E+03  0.7818608E-02  0.1160105E+00
         -2   -1    0    0    0  501 -0.00000000000E+00  0.00000000000E+00  0.83064416843E+03  0.83064416843E+03  0.25500000000E-02 0.  1.
          2   -1    0    0  501    0  0.00000000000E+00 -0.00000000000E+00 -0.11363502112E+03  0.11363502115E+03  0.25500000000E-02 0. -1.
    8880022    1    1    2    0    0  0.68954394372E+02  0.85257500703E+02  0.73170405128E+03  0.75551705580E+03  0.15294330000E+03 0.  0.
    8880022    1    1    2    0    0 -0.68954394372E+02 -0.85257500703E+02 -0.14694903973E+02  0.18876213377E+03  0.15294330000E+03 0. -1.
<mgrwt>
<rscale>  0 0.18818927E+03</rscale>
<asrwt>0</asrwt>
<pdfrwt beam="1">  1        2 0.17482311E-01 0.18818927E+03</pdfrwt>
<pdfrwt beam="2">  1       -2 0.12779141E+00 0.18818927E+03</pdfrwt>
<totfact> 0.15559408E+02</totfact>
</mgrwt>
</event>
<event>
 4    1  0.4840632E-008  0.7531296E+03  0.7818608E-02  0.9630453E-01
          2   -1    0    0  501    0  0.00000000000E+00  0.00000000000E+00  0.18208353450E+04  0.18208353450E+04  0.25500000000E-02 0. -1.
         -2   -1    0    0    0  501 -0.00000000000E+00 -0.00000000000E+00 -0.68203703219E+03  0.68203703220E+03  0.25500000000E-02 0.  1.
    8880022    1    1    2    0    0  0.10297004893E+03 -0.73021211121E+03  0.14917922332E+04  0.16711218622E+04  0.15294330000E+03 0.  0.
    8880022    1    1    2    0    0 -0.10297004893E+03  0.73021211121E+03 -0.35299392039E+03  0.83175051499E+03  0.15294330000E+03 0.  0.
<mgrwt>
<rscale>  0 0.75312961E+03</rscale>
<asrwt>0</asrwt>
<pdfrwt beam="1">  1        2 0.28012852E+00 0.75312961E+03</pdfrwt>
<pdfrwt beam="2">  1       -2 0.10492877E+00 0.75312961E+03</pdfrwt>
<totfact> 0.63790615E+00</totfact>
</mgrwt>
</event>
<event>
 4    1  0.4840632E-008  0.3783350E+03  0.7818608E-02  0.1051551E+00
         -2   -1    0    0    0  501 -0.00000000000E+00  0.00000000000E+00  0.45564471579E+03  0.45564471579E+03  0.25500000000E-02 0.  1.
          2   -1    0    0  501    0  0.00000000000E+00 -0.00000000000E+00 -0.86868626314E+03  0.86868626315E+03  0.25500000000E-02 0. -1.
    8880022    1    1    2    0    0 -0.30937451044E+03  0.15502626260E+03 -0.73557838569E+03  0.82717165347E+03  0.15294330000E+03 0.  0.
    8880022    1    1    2    0    0  0.30937451044E+03 -0.15502626260E+03  0.32253683833E+03  0.49715932547E+03  0.15294330000E+03 0.  0.
<mgrwt>
<rscale>  0 0.37833501E+03</rscale>
<asrwt>0</asrwt>
<pdfrwt beam="1">  1        2 0.13364404E+00 0.37833501E+03</pdfrwt>
<pdfrwt beam="2">  1       -2 0.70099187E-01 0.37833501E+03</pdfrwt>
<totfact> 0.60266014E+01</totfact>
</mgrwt>
</event>
<event>
 4    1  0.4840632E-008  0.8639929E+03  0.7818608E-02  0.9471746E-01
         -2   -1    0    0    0  501 -0.00000000000E+00  0.00000000000E+00  0.60370623256E+03  0.60370623256E+03  0.25500000000E-02 0.  1.
          2   -1    0    0  501    0  0.00000000000E+00 -0.00000000000E+00 -0.15870760112E+04  0.15870760112E+04  0.25500000000E-02 0. -1.
    8880022    1    1    2    0    0 -0.83944145519E+03  0.13575739540E+03  0.23141147902E+02  0.86430272060E+03  0.15294330000E+03 0.  0.
    8880022    1    1    2    0    0  0.83944145519E+03 -0.13575739540E+03 -0.10065109265E+04  0.13264795232E+04  0.15294330000E+03 0.  0.
<mgrwt>
<rscale>  0 0.86399287E+03</rscale>
<asrwt>0</asrwt>
<pdfrwt beam="1">  1        2 0.24416554E+00 0.86399287E+03</pdfrwt>
<pdfrwt beam="2">  1       -2 0.92877883E-01 0.86399287E+03</pdfrwt>
<totfact> 0.11268563E+01</totfact>
</mgrwt>
</event>
<event>
 4    1  0.4840632E-008  0.4321054E+03  0.7818608E-02  0.1033197E+00
          2   -1    0    0  501    0  0.00000000000E+00  0.00000000000E+00  0.66423057051E+03  0.66423057051E+03  0.25500000000E-02 0. -1.
         -2   -1    0    0    0  501 -0.00000000000E+00 -0.00000000000E+00 -0.41608502742E+03  0.41608502743E+03  0.25500000000E-02 0.  1.
    8880022    1    1    2    0    0  0.18932189657E+03 -0.35704429646E+03  0.43173400025E+03  0.61082674315E+03  0.15294330000E+03 0. -1.
    8880022    1    1    2    0    0 -0.18932189657E+03  0.35704429646E+03 -0.18358845717E+03  0.46948885479E+03  0.15294330000E+03 0.  0.
<mgrwt>
<rscale>  0 0.43210538E+03</rscale>
<asrwt>0</asrwt>
<pdfrwt beam="1">  1        2 0.10218932E+00 0.43210538E+03</pdfrwt>
<pdfrwt beam="2">  1       -2 0.64013082E-01 0.43210538E+03</pdfrwt>
<totfact> 0.10238425E+02</totfact>
</mgrwt>
</event>
<event>
 4    1  0.4840632E-008  0.9367484E+03  0.7818608E-02  0.9380775E-01
         -2   -1    0    0    0  501 -0.00000000000E+00  0.00000000000E+00  0.54636985700E+03  0.54636985700E+03  0.25500000000E-02 0.  1.
          2   -1    0    0  501    0  0.00000000000E+00 -0.00000000000E+00 -0.23067745028E+04  0.23067745028E+04  0.25500000000E-02 0. -1.
    8880022    1    1    2    0    0 -0.80601357808E+03  0.45215920910E+03 -0.93944955900E+02  0.94144736772E+03  0.15294330000E+03 0.  1.
    8880022    1    1    2    0    0  0.80601357808E+03 -0.45215920910E+03 -0.16664596899E+04  0.19116969921E+04  0.15294330000E+03 0.  0.
<mgrwt>
<rscale>  0 0.93674836E+03</rscale>
<asrwt>0</asrwt>
<pdfrwt beam="1">  1        2 0.35488838E+00 0.93674836E+03</pdfrwt>
<pdfrwt beam="2">  1       -2 0.84056902E-01 0.93674836E+03</pdfrwt>
<totfact> 0.56360386E+00</totfact>
</mgrwt>
</event>
<event>
 4    1  0.4840632E-008  0.5911226E+03  0.7818608E-02  0.9923997E-01
         -2   -1    0    0    0  501 -0.00000000000E+00  0.00000000000E+00  0.20673775695E+04  0.20673775695E+04  0.25500000000E-02 0.  1.
          2   -1    0    0  501    0  0.00000000000E+00 -0.00000000000E+00 -0.18953262280E+03  0.18953262281E+03  0.25500000000E-02 0. -1.
    8880022    1    1    2    0    0 -0.23449828259E+03 -0.52061963141E+03  0.56767418667E+03  0.81956078504E+03  0.15294330000E+03 0.  1.
    8880022    1    1    2    0    0  0.23449828259E+03  0.52061963141E+03  0.13101707600E+04  0.14373494073E+04  0.15294330000E+03 0. -1.
<mgrwt>
<rscale>  0 0.59112257E+03</rscale>
<asrwt>0</asrwt>
<pdfrwt beam="1">  1        2 0.29158864E-01 0.59112257E+03</pdfrwt>
<pdfrwt beam="2">  1       -2 0.31805810E+00 0.59112257E+03</pdfrwt>
<totfact> 0.48293144E+00</totfact>
</mgrwt>
</event>
<event>
 4    1  0.4840632E-008  0.9638602E+03  0.7818608E-02  0.9349095E-01
         -2   -1    0    0    0  501 -0.00000000000E+00  0.00000000000E+00  0.13383592993E+04  0.13383592993E+04  0.25500000000E-02 0.  1.
          2   -1    0    0  501    0  0.00000000000E+00 -0.00000000000E+00 -0.82557806063E+03  0.82557806064E+03  0.25500000000E-02 0. -1.
    8880022    1    1    2    0    0 -0.92013781089E+03 -0.24286057096E+03 -0.17530162244E+03  0.97967196541E+03  0.15294330000E+03 0. -1.
    8880022    1    1    2    0    0  0.92013781089E+03  0.24286057096E+03  0.68808286114E+03  0.11842653946E+04  0.15294330000E+03 0.  1.
<mgrwt>
<rscale>  0 0.96386021E+03</rscale>
<asrwt>0</asrwt>
<pdfrwt beam="1">  1        2 0.12701201E+00 0.96386021E+03</pdfrwt>
<pdfrwt beam="2">  1       -2 0.20590143E+00 0.96386021E+03</pdfrwt>
<totfact> 0.40065047E+00</totfact>
</mgrwt>
</event>
<event>
 4    1  0.4840632E-008  0.5647371E+03  0.7818608E-02  0.9981393E-01
         -2   -1    0    0    0  501 -0.00000000000E+00  0.00000000000E+00  0.60266032788E+03  0.60266032789E+03  0.25500000000E-02 0.  1.
          2   -1    0    0  501    0  0.00000000000E+00 -0.00000000000E+00 -0.13086313890E+04  0.13086313890E+04  0.25500000000E-02 0. -1.
    8880022    1    1    2    0    0 -0.91232871405E+02 -0.53592252769E+03 -0.10905112481E+04  0.12280646675E+04  0.15294330000E+03 0.  0.
    8880022    1    1    2    0    0  0.91232871405E+02  0.53592252769E+03  0.38454018697E+03  0.68322704932E+03  0.15294330000E+03 0.  0.
<mgrwt>
<rscale>  0 0.56473715E+03</rscale>
<asrwt>0</asrwt>
<pdfrwt beam="1">  1        2 0.20132791E+00 0.56473715E+03</pdfrwt>
<pdfrwt beam="2">  1       -2 0.92716974E-01 0.56473715E+03</pdfrwt>
<totfact> 0.16881916E+01</totfact>
</mgrwt>
</event>
<event>
 4    1  0.4840632E-008  0.1563782E+03  0.7818608E-02  0.1192847E+00
         -2   -1    0    0    0  501 -0.00000000000E+00  0.00000000000E+00  0.36083263124E+03  0.36083263125E+03  0.25500000000E-02 0.  1.
          2   -1    0    0  501    0  0.00000000000E+00 -0.00000000000E+00 -0.37888483325E+03  0.37888483326E+03  0.25500000000E-02 0. -1.
    8880022    1    1    2    0    0 -0.71164734048E+01 -0.31809604299E+02 -0.34417794867E+03  0.37803784002E+03  0.15294330000E+03 0. -1.
    8880022    1    1    2    0    0  0.71164734048E+01  0.31809604299E+02  0.32612574666E+03  0.36167962449E+03  0.15294330000E+03 0.  0.
<mgrwt>
<rscale>  0 0.15637822E+03</rscale>
<asrwt>0</asrwt>
<pdfrwt beam="1">  1        2 0.58289974E-01 0.15637822E+03</pdfrwt>
<pdfrwt beam="2">  1       -2 0.55512712E-01 0.15637822E+03</pdfrwt>
<totfact> 0.26700614E+02</totfact>
</mgrwt>
</event>
<event>
 4    1  0.4840632E-008  0.4526898E+03  0.7818608E-02  0.1026923E+00
          2   -1    0    0  501    0  0.00000000000E+00  0.00000000000E+00  0.14635618773E+04  0.14635618773E+04  0.25500000000E-02 0. -1.
         -2   -1    0    0    0  501 -0.00000000000E+00 -0.00000000000E+00 -0.58841189851E+03  0.58841189852E+03  0.25500000000E-02 0.  1.
    8880022    1    1    2    0    0  0.42119532595E+03 -0.64271740518E+02 -0.45805770787E+03  0.64400689126E+03  0.15294330000E+03 0.  0.
    8880022    1    1    2    0    0 -0.42119532595E+03  0.64271740518E+02  0.13332076866E+04  0.14079668845E+04  0.15294330000E+03 0.  0.
<mgrwt>
<rscale>  0 0.45268975E+03</rscale>
<asrwt>0</asrwt>
<pdfrwt beam="1">  1        2 0.22516336E+00 0.45268975E+03</pdfrwt>
<pdfrwt beam="2">  1       -2 0.90524908E-01 0.45268975E+03</pdfrwt>
<totfact> 0.14918931E+01</totfact>
</mgrwt>
</event>
<event>
 4    1  0.4840632E-008  0.5775541E+03  0.7818608E-02  0.9953101E-01
          2   -1    0    0  501    0  0.00000000000E+00  0.00000000000E+00  0.15042265696E+04  0.15042265696E+04  0.25500000000E-02 0. -1.
         -2   -1    0    0    0  501 -0.00000000000E+00 -0.00000000000E+00 -0.35523214716E+03  0.35523214717E+03  0.25500000000E-02 0.  1.
    8880022    1    1    2    0    0  0.41914986001E+03 -0.36672936374E+03  0.11444055860E+04  0.12818864340E+04  0.15294330000E+03 0.  0.
    8880022    1    1    2    0    0 -0.41914986001E+03  0.36672936374E+03  0.45888364108E+01  0.57757228276E+03  0.15294330000E+03 0.  0.
<mgrwt>
<rscale>  0 0.57755405E+03</rscale>
<asrwt>0</asrwt>
<pdfrwt beam="1">  1        2 0.23141947E+00 0.57755405E+03</pdfrwt>
<pdfrwt beam="2">  1       -2 0.54651099E-01 0.57755405E+03</pdfrwt>
<totfact> 0.41544864E+01</totfact>
</mgrwt>
</event>
<event>
 4    1  0.4840632E-008  0.6746418E+03  0.7818608E-02  0.9761609E-01
          2   -1    0    0  501    0  0.00000000000E+00  0.00000000000E+00  0.81678126708E+03  0.81678126708E+03  0.25500000000E-02 0. -1.
         -2   -1    0    0    0  501 -0.00000000000E+00 -0.00000000000E+00 -0.10810957754E+04  0.10810957754E+04  0.25500000000E-02 0.  1.
    8880022    1    1    2    0    0  0.57644521991E+03 -0.31537405640E+03  0.52840339561E+03  0.85694322362E+03  0.15294330000E+03 0.  0.
    8880022    1    1    2    0    0 -0.57644521991E+03  0.31537405640E+03 -0.79271790392E+03  0.10409338188E+04  0.15294330000E+03 0.  0.
<mgrwt>
<rscale>  0 0.67464179E+03</rscale>
<asrwt>0</asrwt>
<pdfrwt beam="1">  1        2 0.12565866E+00 0.67464179E+03</pdfrwt>
<pdfrwt beam="2">  1       -2 0.16632243E+00 0.67464179E+03</pdfrwt>
<totfact> 0.77962581E+00</totfact>
</mgrwt>
</event>
<event>
 4    1  0.4840632E-008  0.1163234E+04  0.7818608E-02  0.9145661E-01
         -2   -1    0    0    0  501 -0.00000000000E+00  0.00000000000E+00  0.15420546415E+04  0.15420546415E+04  0.25500000000E-02 0.  1.
          2   -1    0    0  501    0  0.00000000000E+00 -0.00000000000E+00 -0.10995229761E+04  0.10995229761E+04  0.25500000000E-02 0. -1.
    8880022    1    1    2    0    0  0.11459966394E+04  0.12811171249E+03  0.81481376887E+03  0.14202232358E+04  0.15294330000E+03 0.  1.
    8880022    1    1    2    0    0 -0.11459966394E+04 -0.12811171249E+03 -0.37228210347E+03  0.12213543818E+04  0.15294330000E+03 0.  0.
<mgrwt>
<rscale>  0 0.11632337E+04</rscale>
<asrwt>0</asrwt>
<pdfrwt beam="1">  1        2 0.16915738E+00 0.11632337E+04</pdfrwt>
<pdfrwt beam="2">  1       -2 0.23723918E+00 0.11632337E+04</pdfrwt>
<totfact> 0.16403976E+00</totfact>
</mgrwt>
</event>
<event>
 4    1  0.4840632E-008  0.3920431E+03  0.7818608E-02  0.1046570E+00
         -2   -1    0    0    0  501 -0.00000000000E+00  0.00000000000E+00  0.86426826612E+03  0.86426826613E+03  0.25500000000E-02 0.  1.
          2   -1    0    0  501    0  0.00000000000E+00 -0.00000000000E+00 -0.16104178979E+04  0.16104178979E+04  0.25500000000E-02 0. -1.
    8880022    1    1    2    0    0  0.28991493402E+03 -0.21507092131E+03  0.79395137507E+03  0.88546971103E+03  0.15294330000E+03 0.  0.
    8880022    1    1    2    0    0 -0.28991493402E+03  0.21507092131E+03 -0.15401010069E+04  0.15892164530E+04  0.15294330000E+03 0.  0.
<mgrwt>
<rscale>  0 0.39204314E+03</rscale>
<asrwt>0</asrwt>
<pdfrwt beam="1">  1        2 0.24775660E+00 0.39204314E+03</pdfrwt>
<pdfrwt beam="2">  1       -2 0.13296435E+00 0.39204314E+03</pdfrwt>
<totfact> 0.50085695E+00</totfact>
</mgrwt>
</event>
<event>
 4    1  0.4840632E-008  0.4312216E+03  0.7818608E-02  0.1033475E+00
         -2   -1    0    0    0  501 -0.00000000000E+00  0.00000000000E+00  0.18065585290E+03  0.18065585292E+03  0.25500000000E-02 0.  1.
          2   -1    0    0  501    0  0.00000000000E+00 -0.00000000000E+00 -0.15046128750E+04  0.15046128750E+04  0.25500000000E-02 0. -1.
    8880022    1    1    2    0    0  0.66222996714E+02  0.39771216747E+03 -0.11355754517E+04  0.12146949053E+04  0.15294330000E+03 0.  0.
    8880022    1    1    2    0    0 -0.66222996714E+02 -0.39771216747E+03 -0.18838157038E+03  0.47057382261E+03  0.15294330000E+03 0.  0.
<mgrwt>
<rscale>  0 0.43122164E+03</rscale>
<asrwt>0</asrwt>
<pdfrwt beam="1">  1        2 0.23147890E+00 0.43122164E+03</pdfrwt>
<pdfrwt beam="2">  1       -2 0.27793209E-01 0.43122164E+03</pdfrwt>
<totfact> 0.15662818E+02</totfact>
</mgrwt>
</event>
<event>
 4    1  0.4840632E-008  0.5819945E+03  0.7818608E-02  0.9943482E-01
          2   -1    0    0  501    0  0.00000000000E+00  0.00000000000E+00  0.20176927762E+04  0.20176927762E+04  0.25500000000E-02 0. -1.
         -2   -1    0    0    0  501 -0.00000000000E+00 -0.00000000000E+00 -0.34910109780E+03  0.34910109781E+03  0.25500000000E-02 0.  1.
    8880022    1    1    2    0    0  0.56152827312E+03  0.34607728059E+01  0.16869378234E+04  0.17845102554E+04  0.15294330000E+03 0.  0.
    8880022    1    1    2    0    0 -0.56152827312E+03 -0.34607728059E+01 -0.18346145034E+02  0.58228361862E+03  0.15294330000E+03 0.  0.
<mgrwt>
<rscale>  0 0.58199453E+03</rscale>
<asrwt>0</asrwt>
<pdfrwt beam="1">  1        2 0.31041427E+00 0.58199453E+03</pdfrwt>
<pdfrwt beam="2">  1       -2 0.53707862E-01 0.58199453E+03</pdfrwt>
<totfact> 0.22646028E+01</totfact>
</mgrwt>
</event>
<event>
 4    1  0.4840632E-008  0.2605720E+03  0.7818608E-02  0.1106800E+00
         -2   -1    0    0    0  501 -0.00000000000E+00  0.00000000000E+00  0.66856080900E+03  0.66856080900E+03  0.25500000000E-02 0.  1.
          2   -1    0    0  501    0  0.00000000000E+00 -0.00000000000E+00 -0.50292863248E+03  0.50292863248E+03  0.25500000000E-02 0. -1.
    8880022    1    1    2    0    0  0.64596989696E+02  0.20083159271E+03  0.60608864070E+03  0.65972812060E+03  0.15294330000E+03 0.  1.
    8880022    1    1    2    0    0 -0.64596989696E+02 -0.20083159271E+03 -0.44045646417E+03  0.51176132089E+03  0.15294330000E+03 0.  0.
<mgrwt>
<rscale>  0 0.26057197E+03</rscale>
<asrwt>0</asrwt>
<pdfrwt beam="1">  1        2 0.77373636E-01 0.26057197E+03</pdfrwt>
<pdfrwt beam="2">  1       -2 0.10285551E+00 0.26057197E+03</pdfrwt>
<totfact> 0.50363589E+01</totfact>
</mgrwt>
</event>
<event>
 4    1  0.4840632E-008  0.4293817E+03  0.7818608E-02  0.1034055E+00
         -2   -1    0    0    0  501 -0.00000000000E+00  0.00000000000E+00  0.17790670863E+03  0.17790670864E+03  0.25500000000E-02 0.  1.
          2   -1    0    0  501    0  0.00000000000E+00 -0.00000000000E+00 -0.21079279556E+04  0.21079279556E+04  0.25500000000E-02 0. -1.
    8880022    1    1    2    0    0 -0.11531302202E+03 -0.38429143558E+03 -0.17799109212E+04  0.18309701092E+04  0.15294330000E+03 0.  0.
    8880022    1    1    2    0    0  0.11531302202E+03  0.38429143558E+03 -0.15011032581E+03  0.45486455504E+03  0.15294330000E+03 0.  0.
<mgrwt>
<rscale>  0 0.42938171E+03</rscale>
<asrwt>0</asrwt>
<pdfrwt beam="1">  1        2 0.32429659E+00 0.42938171E+03</pdfrwt>
<pdfrwt beam="2">  1       -2 0.27370264E-01 0.42938171E+03</pdfrwt>
<totfact> 0.76384648E+01</totfact>
</mgrwt>
</event>
<event>
 4    1  0.4840632E-008  0.2518971E+03  0.7818608E-02  0.1112112E+00
          2   -1    0    0  501    0  0.00000000000E+00  0.00000000000E+00  0.16882415739E+04  0.16882415739E+04  0.25500000000E-02 0. -1.
         -2   -1    0    0    0  501 -0.00000000000E+00 -0.00000000000E+00 -0.14879224900E+03  0.14879224903E+03  0.25500000000E-02 0.  1.
    8880022    1    1    2    0    0  0.12886890612E+01 -0.20014707943E+03  0.15638042007E+04  0.15839620404E+04  0.15294330000E+03 0. -1.
    8880022    1    1    2    0    0 -0.12886890612E+01  0.20014707943E+03 -0.24354875848E+02  0.25307178254E+03  0.15294330000E+03 0.  0.
<mgrwt>
<rscale>  0 0.25189714E+03</rscale>
<asrwt>0</asrwt>
<pdfrwt beam="1">  1        2 0.25972947E+00 0.25189714E+03</pdfrwt>
<pdfrwt beam="2">  1       -2 0.22891115E-01 0.25189714E+03</pdfrwt>
<totfact> 0.18234619E+02</totfact>
</mgrwt>
</event>
<event>
 4    1  0.4840632E-008  0.1758623E+03  0.7818608E-02  0.1171869E+00
          2   -1    0    0  501    0  0.00000000000E+00  0.00000000000E+00  0.73759497973E+02  0.73759498017E+02  0.25500000000E-02 0. -1.
         -2   -1    0    0    0  501 -0.00000000000E+00 -0.00000000000E+00 -0.96694419685E+03  0.96694419685E+03  0.25500000000E-02 0.  1.
    8880022    1    1    2    0    0  0.86793222747E+02 -0.16788790595E+01 -0.83819415462E+03  0.85644437999E+03  0.15294330000E+03 0.  0.
    8880022    1    1    2    0    0 -0.86793222747E+02  0.16788790595E+01 -0.54990544254E+02  0.18425931489E+03  0.15294330000E+03 0.  0.
<mgrwt>
<rscale>  0 0.17586226E+03</rscale>
<asrwt>0</asrwt>
<pdfrwt beam="1">  1        2 0.11347616E-01 0.17586226E+03</pdfrwt>
<pdfrwt beam="2">  1       -2 0.14876064E+00 0.17586226E+03</pdfrwt>
<totfact> 0.17774637E+02</totfact>
</mgrwt>
</event>
<event>
 4    1  0.4840632E-008  0.2917088E+03  0.7818608E-02  0.1089460E+00
          2   -1    0    0  501    0  0.00000000000E+00  0.00000000000E+00  0.13433511065E+04  0.13433511065E+04  0.25500000000E-02 0. -1.
         -2   -1    0    0    0  501 -0.00000000000E+00 -0.00000000000E+00 -0.17967049825E+03  0.17967049827E+03  0.25500000000E-02 0.  1.
    8880022    1    1    2    0    0 -0.14015195592E+03  0.20508480584E+03  0.11945798937E+04  0.12296809033E+04  0.15294330000E+03 0.  0.
    8880022    1    1    2    0    0  0.14015195592E+03 -0.20508480584E+03 -0.30899285426E+02  0.29334070156E+03  0.15294330000E+03 0.  1.
<mgrwt>
<rscale>  0 0.29170876E+03</rscale>
<asrwt>0</asrwt>
<pdfrwt beam="1">  1        2 0.20666941E+00 0.29170876E+03</pdfrwt>
<pdfrwt beam="2">  1       -2 0.27641615E-01 0.29170876E+03</pdfrwt>
<totfact> 0.19819992E+02</totfact>
</mgrwt>
</event>
<event>
 4    1  0.4840632E-008  0.7650040E+03  0.7818608E-02  0.9612101E-01
         -2   -1    0    0    0  501 -0.00000000000E+00  0.00000000000E+00  0.88482316515E+03  0.88482316516E+03  0.25500000000E-02 0.  1.
          2   -1    0    0  501    0  0.00000000000E+00 -0.00000000000E+00 -0.13532787469E+04  0.13532787469E+04  0.25500000000E-02 0. -1.
    8880022    1    1    2    0    0 -0.69187246076E+03  0.28836072413E+03  0.56591597758E+03  0.95157341066E+03  0.15294330000E+03 0.  0.
    8880022    1    1    2    0    0  0.69187246076E+03 -0.28836072413E+03 -0.10343715594E+04  0.12865285014E+04  0.15294330000E+03 0.  0.
<mgrwt>
<rscale>  0 0.76500396E+03</rscale>
<asrwt>0</asrwt>
<pdfrwt beam="1">  1        2 0.20819673E+00 0.76500396E+03</pdfrwt>
<pdfrwt beam="2">  1       -2 0.13612664E+00 0.76500396E+03</pdfrwt>
<totfact> 0.60694785E+00</totfact>
</mgrwt>
</event>
<event>
 4    1  0.4840632E-008  0.2182465E+03  0.7818608E-02  0.1135197E+00
         -2   -1    0    0    0  501 -0.00000000000E+00  0.00000000000E+00  0.83541692024E+03  0.83541692024E+03  0.25500000000E-02 0.  1.
          2   -1    0    0  501    0  0.00000000000E+00 -0.00000000000E+00 -0.15244043234E+04  0.15244043234E+04  0.25500000000E-02 0. -1.
    8880022    1    1    2    0    0 -0.14797941754E+03  0.48393780610E+02 -0.15021287387E+04  0.15179006116E+04  0.15294330000E+03 0. -1.
    8880022    1    1    2    0    0  0.14797941754E+03 -0.48393780610E+02  0.81314133556E+03  0.84192063203E+03  0.15294330000E+03 0.  0.
<mgrwt>
<rscale>  0 0.21824646E+03</rscale>
<asrwt>0</asrwt>
<pdfrwt beam="1">  1        2 0.23452374E+00 0.21824646E+03</pdfrwt>
<pdfrwt beam="2">  1       -2 0.12852568E+00 0.21824646E+03</pdfrwt>
<totfact> 0.64949088E+00</totfact>
</mgrwt>
</event>
<event>
 4    1  0.4840632E-008  0.7199808E+03  0.7818608E-02  0.9683660E-01
         -2   -1    0    0    0  501 -0.00000000000E+00  0.00000000000E+00  0.18697928827E+04  0.18697928827E+04  0.25500000000E-02 0.  1.
          2   -1    0    0  501    0  0.00000000000E+00 -0.00000000000E+00 -0.47287240177E+03  0.47287240177E+03  0.25500000000E-02 0. -1.
    8880022    1    1    2    0    0 -0.28240207424E+03 -0.64438328385E+03 -0.54954278204E+02  0.72207504717E+03  0.15294330000E+03 0.  0.
    8880022    1    1    2    0    0  0.28240207424E+03  0.64438328385E+03  0.14518747591E+04  0.16205902373E+04  0.15294330000E+03 0.  0.
<mgrwt>
<rscale>  0 0.71998083E+03</rscale>
<asrwt>0</asrwt>
<pdfrwt beam="1">  1        2 0.72749600E-01 0.71998083E+03</pdfrwt>
<pdfrwt beam="2">  1       -2 0.28766045E+00 0.71998083E+03</pdfrwt>
<totfact> 0.25905818E+00</totfact>
</mgrwt>
</event>
<event>
 4    1  0.4840632E-008  0.3417081E+03  0.7818608E-02  0.1066071E+00
         -2   -1    0    0    0  501 -0.00000000000E+00  0.00000000000E+00  0.12466988539E+03  0.12466988541E+03  0.25500000000E-02 0.  1.
          2   -1    0    0  501    0  0.00000000000E+00 -0.00000000000E+00 -0.30790803626E+04  0.30790803626E+04  0.25500000000E-02 0. -1.
    8880022    1    1    2    0    0  0.19234148323E+03 -0.23743947367E+03 -0.14098600739E+03  0.36965045262E+03  0.15294330000E+03 0.  0.
    8880022    1    1    2    0    0 -0.19234148323E+03  0.23743947367E+03 -0.28134244698E+04  0.28340997954E+04  0.15294330000E+03 0.  0.
<mgrwt>
<rscale>  0 0.34170807E+03</rscale>
<asrwt>0</asrwt>
<pdfrwt beam="1">  1        2 0.47370461E+00 0.34170807E+03</pdfrwt>
<pdfrwt beam="2">  1       -2 0.19179985E-01 0.34170807E+03</pdfrwt>
<totfact> 0.41357004E+01</totfact>
</mgrwt>
</event>
<event>
 4    1  0.6762964E-008  0.6239816E+03  0.7818608E-02  0.9856864E-01
         -2   -1    0    0    0  501 -0.00000000000E+00  0.00000000000E+00  0.11430107391E+04  0.11430107391E+04  0.25500000000E-02 0.  1.
          2   -1    0    0  501    0  0.00000000000E+00 -0.00000000000E+00 -0.19113916482E+04  0.19113916482E+04  0.25500000000E-02 0. -1.
    8880022    1    1    2    0    0  0.16664558256E+03 -0.58154157207E+03 -0.17686345962E+04  0.18754789623E+04  0.15294330000E+03 0.  0.
    8880022    1    1    2    0    0 -0.16664558256E+03  0.58154157207E+03  0.10002536871E+04  0.11789234249E+04  0.15294330000E+03 0.  1.
<mgrwt>
<rscale>  0 0.62398157E+03</rscale>
<asrwt>0</asrwt>
<pdfrwt beam="1">  1        2 0.29406025E+00 0.62398157E+03</pdfrwt>
<pdfrwt beam="2">  1       -2 0.17584781E+00 0.62398157E+03</pdfrwt>
<totfact> 0.15462847E+00</totfact>
</mgrwt>
</event>
<event>
 4    1  0.4840632E-008  0.4011648E+03  0.7818608E-02  0.1043377E+00
         -2   -1    0    0    0  501 -0.00000000000E+00  0.00000000000E+00  0.15768720892E+04  0.15768720892E+04  0.25500000000E-02 0.  1.
          2   -1    0    0  501    0  0.00000000000E+00 -0.00000000000E+00 -0.35057445810E+03  0.35057445811E+03  0.25500000000E-02 0. -1.
    8880022    1    1    2    0    0  0.31947740831E+03  0.18835002221E+03  0.14245569426E+04  0.14799647567E+04  0.15294330000E+03 0.  0.
    8880022    1    1    2    0    0 -0.31947740831E+03 -0.18835002221E+03 -0.19825931154E+03  0.44748179059E+03  0.15294330000E+03 0.  0.
<mgrwt>
<rscale>  0 0.40116480E+03</rscale>
<asrwt>0</asrwt>
<pdfrwt beam="1">  1        2 0.53934533E-01 0.40116480E+03</pdfrwt>
<pdfrwt beam="2">  1       -2 0.24259570E+00 0.40116480E+03</pdfrwt>
<totfact> 0.71363709E+00</totfact>
</mgrwt>
</event>
<event>
 4    1  0.4840632E-008  0.5133189E+03  0.7818608E-02  0.1010360E+00
         -2   -1    0    0    0  501 -0.00000000000E+00  0.00000000000E+00  0.39715872555E+03  0.39715872556E+03  0.25500000000E-02 0.  1.
          2   -1    0    0  501    0  0.00000000000E+00 -0.00000000000E+00 -0.95506912523E+03  0.95506912523E+03  0.25500000000E-02 0. -1.
    8880022    1    1    2    0    0 -0.46057928121E+03 -0.16724652286E+03  0.94645697242E+02  0.52197139262E+03  0.15294330000E+03 0.  0.
    8880022    1    1    2    0    0  0.46057928121E+03  0.16724652286E+03 -0.65255609692E+03  0.83025645817E+03  0.15294330000E+03 0.  0.
<mgrwt>
<rscale>  0 0.51331893E+03</rscale>
<asrwt>0</asrwt>
<pdfrwt beam="1">  1        2 0.14693371E+00 0.51331893E+03</pdfrwt>
<pdfrwt beam="2">  1       -2 0.61101343E-01 0.51331893E+03</pdfrwt>
<totfact> 0.69652004E+01</totfact>
</mgrwt>
</event>
<event>
 4    1  0.4840632E-008  0.2064979E+03  0.7818608E-02  0.1144370E+00
         -2   -1    0    0    0  501 -0.00000000000E+00  0.00000000000E+00  0.26642119106E+03  0.26642119107E+03  0.25500000000E-02 0.  1.
          2   -1    0    0  501    0  0.00000000000E+00 -0.00000000000E+00 -0.84576605618E+03  0.84576605619E+03  0.25500000000E-02 0. -1.
    8880022    1    1    2    0    0 -0.13621984189E+03  0.26341712271E+02  0.21104665791E+03  0.29526611041E+03  0.15294330000E+03 0.  0.
    8880022    1    1    2    0    0  0.13621984189E+03 -0.26341712271E+02 -0.79039152303E+03  0.81692113684E+03  0.15294330000E+03 0. -1.
<mgrwt>
<rscale>  0 0.20649790E+03</rscale>
<asrwt>0</asrwt>
<pdfrwt beam="1">  1        2 0.13011785E+00 0.20649790E+03</pdfrwt>
<pdfrwt beam="2">  1       -2 0.40987876E-01 0.20649790E+03</pdfrwt>
<totfact> 0.19142492E+02</totfact>
</mgrwt>
</event>
<event>
 4    1  0.4840632E-008  0.7834941E+03  0.7818608E-02  0.9584221E-01
         -2   -1    0    0    0  501 -0.00000000000E+00  0.00000000000E+00  0.93875665403E+03  0.93875665404E+03  0.25500000000E-02 0.  1.
          2   -1    0    0  501    0  0.00000000000E+00 -0.00000000000E+00 -0.22845062452E+04  0.22845062452E+04  0.25500000000E-02 0. -1.
    8880022    1    1    2    0    0  0.64942692664E+03  0.41075047530E+03 -0.20344533305E+04  0.21801062573E+04  0.15294330000E+03 0.  0.
    8880022    1    1    2    0    0 -0.64942692664E+03 -0.41075047530E+03  0.68870373936E+03  0.10431566419E+04  0.15294330000E+03 0.  0.
<mgrwt>
<rscale>  0 0.78349406E+03</rscale>
<asrwt>0</asrwt>
<pdfrwt beam="1">  1        2 0.35146250E+00 0.78349406E+03</pdfrwt>
<pdfrwt beam="2">  1       -2 0.14442410E+00 0.78349406E+03</pdfrwt>
<totfact> 0.15911531E+00</totfact>
</mgrwt>
</event>
<event>
 4    1  0.4840632E-008  0.3192918E+03  0.7818608E-02  0.1075976E+00
         -2   -1    0    0    0  501 -0.00000000000E+00  0.00000000000E+00  0.82032751844E+03  0.82032751844E+03  0.25500000000E-02 0.  1.
          2   -1    0    0  501    0  0.00000000000E+00 -0.00000000000E+00 -0.73600035592E+03  0.73600035593E+03  0.25500000000E-02 0. -1.
    8880022    1    1    2    0    0  0.86794326324E+02  0.26650013882E+03  0.75159412664E+03  0.81660330840E+03  0.15294330000E+03 0.  0.
    8880022    1    1    2    0    0 -0.86794326324E+02 -0.26650013882E+03 -0.66726696412E+03  0.73972456597E+03  0.15294330000E+03 0.  0.
<mgrwt>
<rscale>  0 0.31929177E+03</rscale>
<asrwt>0</asrwt>
<pdfrwt beam="1">  1        2 0.11323082E+00 0.31929177E+03</pdfrwt>
<pdfrwt beam="2">  1       -2 0.12620423E+00 0.31929177E+03</pdfrwt>
<totfact> 0.19413164E+01</totfact>
</mgrwt>
</event>
<event>
 4    1  0.4840632E-008  0.6438507E+03  0.7818608E-02  0.9818387E-01
         -2   -1    0    0    0  501 -0.00000000000E+00  0.00000000000E+00  0.22425420027E+03  0.22425420028E+03  0.25500000000E-02 0.  1.
          2   -1    0    0  501    0  0.00000000000E+00 -0.00000000000E+00 -0.23448952346E+04  0.23448952346E+04  0.25500000000E-02 0. -1.
    8880022    1    1    2    0    0  0.47019949803E+03  0.41238881506E+03 -0.16513269426E+04  0.17724063945E+04  0.15294330000E+03 0.  0.
    8880022    1    1    2    0    0 -0.47019949803E+03 -0.41238881506E+03 -0.46931409169E+03  0.79674304039E+03  0.15294330000E+03 0.  0.
<mgrwt>
<rscale>  0 0.64385072E+03</rscale>
<asrwt>0</asrwt>
<pdfrwt beam="1">  1        2 0.36075310E+00 0.64385072E+03</pdfrwt>
<pdfrwt beam="2">  1       -2 0.34500648E-01 0.64385072E+03</pdfrwt>
<totfact> 0.35524477E+01</totfact>
</mgrwt>
</event>
<event>
 4    1  0.4840632E-008  0.1283939E+04  0.7818608E-02  0.9042399E-01
         -2   -1    0    0    0  501 -0.00000000000E+00  0.00000000000E+00  0.36178409179E+04  0.36178409179E+04  0.25500000000E-02 0.  1.
          2   -1    0    0  501    0  0.00000000000E+00 -0.00000000000E+00 -0.10453223741E+04  0.10453223741E+04  0.25500000000E-02 0. -1.
    8880022    1    1    2    0    0 -0.11889580713E+04 -0.45987661078E+03 -0.46490875234E+03  0.13655180678E+04  0.15294330000E+03 0.  0.
    8880022    1    1    2    0    0  0.11889580713E+04  0.45987661078E+03  0.30374272961E+04  0.32976452242E+04  0.15294330000E+03 0.  0.
<mgrwt>
<rscale>  0 0.12839390E+04</rscale>
<asrwt>0</asrwt>
<pdfrwt beam="1">  1        2 0.16081883E+00 0.12839390E+04</pdfrwt>
<pdfrwt beam="2">  1       -2 0.55659091E+00 0.12839390E+04</pdfrwt>
<totfact> 0.17685518E-02</totfact>
</mgrwt>
</event>
<event>
 4    1  0.4840632E-008  0.2482313E+03  0.7818608E-02  0.1114428E+00
         -2   -1    0    0    0  501 -0.00000000000E+00  0.00000000000E+00  0.70142489121E+02  0.70142489167E+02  0.25500000000E-02 0.  1.
          2   -1    0    0  501    0  0.00000000000E+00 -0.00000000000E+00 -0.16777738928E+04  0.16777738928E+04  0.25500000000E-02 0. -1.
    8880022    1    1    2    0    0  0.50441866510E+02  0.18889873861E+03 -0.20059364995E+03  0.31914977794E+03  0.15294330000E+03 0.  0.
    8880022    1    1    2    0    0 -0.50441866510E+02 -0.18889873861E+03 -0.14070377537E+04  0.14287666040E+04  0.15294330000E+03 0. -1.
<mgrwt>
<rscale>  0 0.24823128E+03</rscale>
<asrwt>0</asrwt>
<pdfrwt beam="1">  1        2 0.25811903E+00 0.24823128E+03</pdfrwt>
<pdfrwt beam="2">  1       -2 0.10791153E-01 0.24823128E+03</pdfrwt>
<totfact> 0.64799123E+02</totfact>
</mgrwt>
</event>
<event>
 4    1  0.4840632E-008  0.5003558E+03  0.7818608E-02  0.1013686E+00
          2   -1    0    0  501    0  0.00000000000E+00  0.00000000000E+00  0.12899628424E+04  0.12899628424E+04  0.25500000000E-02 0. -1.
         -2   -1    0    0    0  501 -0.00000000000E+00 -0.00000000000E+00 -0.23140231773E+03  0.23140231775E+03  0.25500000000E-02 0.  1.
    8880022    1    1    2    0    0  0.32249289665E+03  0.35066027272E+03  0.83477525961E+03  0.97324492412E+03  0.15294330000E+03 0.  0.
    8880022    1    1    2    0    0 -0.32249289665E+03 -0.35066027272E+03  0.22378526503E+03  0.54812023600E+03  0.15294330000E+03 0.  0.
<mgrwt>
<rscale>  0 0.50035582E+03</rscale>
<asrwt>0</asrwt>
<pdfrwt beam="1">  1        2 0.19845583E+00 0.50035582E+03</pdfrwt>
<pdfrwt beam="2">  1       -2 0.35600355E-01 0.50035582E+03</pdfrwt>
<totfact> 0.12910260E+02</totfact>
</mgrwt>
</event>
<event>
 4    1  0.4840632E-008  0.6302450E+03  0.7818608E-02  0.9844571E-01
         -2   -1    0    0    0  501 -0.00000000000E+00  0.00000000000E+00  0.33118225584E+03  0.33118225585E+03  0.25500000000E-02 0.  1.
          2   -1    0    0  501    0  0.00000000000E+00 -0.00000000000E+00 -0.27485573366E+04  0.27485573366E+04  0.25500000000E-02 0. -1.
    8880022    1    1    2    0    0 -0.48256685631E+02  0.60949846315E+03 -0.52617544194E+02  0.63243762006E+03  0.15294330000E+03 0.  0.
    8880022    1    1    2    0    0  0.48256685631E+02 -0.60949846315E+03 -0.23647575365E+04  0.24473019724E+04  0.15294330000E+03 0.  0.
<mgrwt>
<rscale>  0 0.63024498E+03</rscale>
<asrwt>0</asrwt>
<pdfrwt beam="1">  1        2 0.42285496E+00 0.63024498E+03</pdfrwt>
<pdfrwt beam="2">  1       -2 0.50951118E-01 0.63024498E+03</pdfrwt>
<totfact> 0.97689299E+00</totfact>
</mgrwt>
</event>
<event>
 4    1  0.4840632E-008  0.1716794E+03  0.7818608E-02  0.1176108E+00
         -2   -1    0    0    0  501 -0.00000000000E+00  0.00000000000E+00  0.39758804943E+02  0.39758805025E+02  0.25500000000E-02 0.  1.
          2   -1    0    0  501    0  0.00000000000E+00 -0.00000000000E+00 -0.35758488054E+04  0.35758488054E+04  0.25500000000E-02 0. -1.
    8880022    1    1    2    0    0 -0.45334628873E+02 -0.63458037514E+02 -0.15850219145E+03  0.23365947190E+03  0.15294330000E+03 0.  1.
    8880022    1    1    2    0    0  0.45334628873E+02  0.63458037514E+02 -0.33775878090E+04  0.33819481386E+04  0.15294330000E+03 0.  0.
<mgrwt>
<rscale>  0 0.17167936E+03</rscale>
<asrwt>0</asrwt>
<pdfrwt beam="1">  1        2 0.55013033E+00 0.17167936E+03</pdfrwt>
<pdfrwt beam="2">  1       -2 0.61167421E-02 0.17167936E+03</pdfrwt>
<totfact> 0.13606720E+02</totfact>
</mgrwt>
</event>
<event>
 4    1  0.4840632E-008  0.7652214E+03  0.7818608E-02  0.9611768E-01
         -2   -1    0    0    0  501 -0.00000000000E+00  0.00000000000E+00  0.69978300477E+03  0.69978300478E+03  0.25500000000E-02 0.  1.
          2   -1    0    0  501    0  0.00000000000E+00 -0.00000000000E+00 -0.16002550192E+04  0.16002550192E+04  0.25500000000E-02 0. -1.
    8880022    1    1    2    0    0 -0.56976608744E+03 -0.48737945108E+03  0.34410704160E+03  0.83903124664E+03  0.15294330000E+03 0.  1.
    8880022    1    1    2    0    0  0.56976608744E+03  0.48737945108E+03 -0.12445790560E+04  0.14610067773E+04  0.15294330000E+03 0.  0.
<mgrwt>
<rscale>  0 0.76522139E+03</rscale>
<asrwt>0</asrwt>
<pdfrwt beam="1">  1        2 0.24619308E+00 0.76522139E+03</pdfrwt>
<pdfrwt beam="2">  1       -2 0.10765892E+00 0.76522139E+03</pdfrwt>
<totfact> 0.79057500E+00</totfact>
</mgrwt>
</event>
<event>
 4    1  0.4840632E-008  0.3254532E+03  0.7818608E-02  0.1073167E+00
         -2   -1    0    0    0  501 -0.00000000000E+00  0.00000000000E+00  0.48712178250E+03  0.48712178251E+03  0.25500000000E-02 0.  1.
          2   -1    0    0  501    0  0.00000000000E+00 -0.00000000000E+00 -0.10133951373E+04  0.10133951373E+04  0.25500000000E-02 0. -1.
    8880022    1    1    2    0    0  0.20450407935E+03  0.20175774741E+03  0.40177779898E+03  0.51705431038E+03  0.15294330000E+03 0.  0.
    8880022    1    1    2    0    0 -0.20450407935E+03 -0.20175774741E+03 -0.92805115375E+03  0.98346260941E+03  0.15294330000E+03 0.  0.
<mgrwt>
<rscale>  0 0.32545316E+03</rscale>
<asrwt>0</asrwt>
<pdfrwt beam="1">  1        2 0.15590694E+00 0.32545316E+03</pdfrwt>
<pdfrwt beam="2">  1       -2 0.74941813E-01 0.32545316E+03</pdfrwt>
<totfact> 0.42499456E+01</totfact>
</mgrwt>
</event>
<event>
 4    1  0.4840632E-008  0.3989641E+03  0.7818608E-02  0.1044139E+00
         -2   -1    0    0    0  501 -0.00000000000E+00  0.00000000000E+00  0.40523772478E+03  0.40523772479E+03  0.25500000000E-02 0.  1.
          2   -1    0    0  501    0  0.00000000000E+00 -0.00000000000E+00 -0.57632156632E+03  0.57632156632E+03  0.25500000000E-02 0. -1.
    8880022    1    1    2    0    0 -0.69968109602E+02 -0.36178050443E+03  0.19141512706E+03  0.44250658033E+03  0.15294330000E+03 0.  0.
    8880022    1    1    2    0    0  0.69968109602E+02  0.36178050443E+03 -0.36249896860E+03  0.53905271078E+03  0.15294330000E+03 0.  0.
<mgrwt>
<rscale>  0 0.39896406E+03</rscale>
<asrwt>0</asrwt>
<pdfrwt beam="1">  1        2 0.88664857E-01 0.39896406E+03</pdfrwt>
<pdfrwt beam="2">  1       -2 0.62344265E-01 0.39896406E+03</pdfrwt>
<totfact> 0.12870329E+02</totfact>
</mgrwt>
</event>
<event>
 4    1  0.4840632E-008  0.6622856E+03  0.7818608E-02  0.9783995E-01
         -2   -1    0    0    0  501 -0.00000000000E+00  0.00000000000E+00  0.13137250819E+04  0.13137250819E+04  0.25500000000E-02 0.  1.
          2   -1    0    0  501    0  0.00000000000E+00 -0.00000000000E+00 -0.66128565959E+03  0.66128565959E+03  0.25500000000E-02 0. -1.
    8880022    1    1    2    0    0  0.39354165532E+03 -0.51025043931E+03  0.10210683196E+04  0.12170467171E+04  0.15294330000E+03 0.  0.
    8880022    1    1    2    0    0 -0.39354165532E+03  0.51025043931E+03 -0.36862889732E+03  0.75796402437E+03  0.15294330000E+03 0.  0.
<mgrwt>
<rscale>  0 0.66228559E+03</rscale>
<asrwt>0</asrwt>
<pdfrwt beam="1">  1        2 0.10173626E+00 0.66228559E+03</pdfrwt>
<pdfrwt beam="2">  1       -2 0.20211155E+00 0.66228559E+03</pdfrwt>
<totfact> 0.58567700E+00</totfact>
</mgrwt>
</event>
<event>
 4    1  0.4840632E-008  0.4556701E+03  0.7818608E-02  0.1026045E+00
         -2   -1    0    0    0  501 -0.00000000000E+00  0.00000000000E+00  0.72781480720E+03  0.72781480720E+03  0.25500000000E-02 0.  1.
          2   -1    0    0  501    0  0.00000000000E+00 -0.00000000000E+00 -0.80972357164E+03  0.80972357164E+03  0.25500000000E-02 0. -1.
    8880022    1    1    2    0    0 -0.36179180007E+03 -0.23097671198E+03 -0.65964649029E+03  0.80172856581E+03  0.15294330000E+03 0.  0.
    8880022    1    1    2    0    0  0.36179180007E+03  0.23097671198E+03  0.57773772584E+03  0.73580981303E+03  0.15294330000E+03 0.  1.
<mgrwt>
<rscale>  0 0.45567006E+03</rscale>
<asrwt>0</asrwt>
<pdfrwt beam="1">  1        2 0.12457286E+00 0.45567006E+03</pdfrwt>
<pdfrwt beam="2">  1       -2 0.11197151E+00 0.45567006E+03</pdfrwt>
<totfact> 0.22432309E+01</totfact>
</mgrwt>
</event>
<event>
 4    1  0.4840632E-008  0.1326996E+04  0.7818608E-02  0.9008427E-01
         -2   -1    0    0    0  501 -0.00000000000E+00  0.00000000000E+00  0.98775652024E+03  0.98775652025E+03  0.25500000000E-02 0.  1.
          2   -1    0    0  501    0  0.00000000000E+00 -0.00000000000E+00 -0.19801449448E+04  0.19801449448E+04  0.25500000000E-02 0. -1.
    8880022    1    1    2    0    0  0.76538149923E+03 -0.10731810385E+04 -0.96473183013E+03  0.16406174258E+04  0.15294330000E+03 0.  0.
    8880022    1    1    2    0    0 -0.76538149923E+03  0.10731810385E+04 -0.27656594436E+02  0.13272840393E+04  0.15294330000E+03 0.  0.
<mgrwt>
<rscale>  0 0.13269959E+04</rscale>
<asrwt>0</asrwt>
<pdfrwt beam="1">  1        2 0.30463768E+00 0.13269959E+04</pdfrwt>
<pdfrwt beam="2">  1       -2 0.15196254E+00 0.13269959E+04</pdfrwt>
<totfact> 0.19042899E+00</totfact>
</mgrwt>
</event>
<event>
 4    1  0.4840632E-008  0.2411727E+03  0.7818608E-02  0.1119014E+00
          2   -1    0    0  501    0  0.00000000000E+00  0.00000000000E+00  0.27111808241E+04  0.27111808241E+04  0.25500000000E-02 0. -1.
         -2   -1    0    0    0  501 -0.00000000000E+00 -0.00000000000E+00 -0.96080236959E+02  0.96080236993E+02  0.25500000000E-02 0.  1.
    8880022    1    1    2    0    0 -0.13253022276E+03  0.13118057272E+03  0.70512220576E+02  0.25126923582E+03  0.15294330000E+03 0.  0.
    8880022    1    1    2    0    0  0.13253022276E+03 -0.13118057272E+03  0.25445883666E+04  0.25559918253E+04  0.15294330000E+03 0.  0.
<mgrwt>
<rscale>  0 0.24117267E+03</rscale>
<asrwt>0</asrwt>
<pdfrwt beam="1">  1        2 0.41710476E+00 0.24117267E+03</pdfrwt>
<pdfrwt beam="2">  1       -2 0.14781574E-01 0.24117267E+03</pdfrwt>
<totfact> 0.10905399E+02</totfact>
</mgrwt>
</event>
<event>
 4    1  0.4840632E-008  0.7792900E+03  0.7818608E-02  0.9590487E-01
          2   -1    0    0  501    0  0.00000000000E+00  0.00000000000E+00  0.75804599805E+03  0.75804599805E+03  0.25500000000E-02 0. -1.
         -2   -1    0    0    0  501 -0.00000000000E+00 -0.00000000000E+00 -0.80843813819E+03  0.80843813820E+03  0.25500000000E-02 0.  1.
    8880022    1    1    2    0    0  0.67379090541E+03  0.36042618141E+03  0.49276510517E+02  0.78084636387E+03  0.15294330000E+03 0.  0.
    8880022    1    1    2    0    0 -0.67379090541E+03 -0.36042618141E+03 -0.99668650658E+02  0.78563777238E+03  0.15294330000E+03 0.  0.
<mgrwt>
<rscale>  0 0.77928998E+03</rscale>
<asrwt>0</asrwt>
<pdfrwt beam="1">  1        2 0.11662246E+00 0.77928998E+03</pdfrwt>
<pdfrwt beam="2">  1       -2 0.12437510E+00 0.77928998E+03</pdfrwt>
<totfact> 0.18164901E+01</totfact>
</mgrwt>
</event>
<event>
 4    1  0.4840632E-008  0.7615044E+03  0.7818608E-02  0.9617473E-01
         -2   -1    0    0    0  501 -0.00000000000E+00  0.00000000000E+00  0.78978461780E+03  0.78978461780E+03  0.25500000000E-02 0.  1.
          2   -1    0    0  501    0  0.00000000000E+00 -0.00000000000E+00 -0.13353635852E+04  0.13353635852E+04  0.25500000000E-02 0. -1.
    8880022    1    1    2    0    0  0.72916397613E+02 -0.74241536353E+03 -0.98571220828E+03  0.12455992869E+04  0.15294330000E+03 0.  0.
    8880022    1    1    2    0    0 -0.72916397613E+02  0.74241536353E+03  0.44013324087E+03  0.87954891608E+03  0.15294330000E+03 0.  1.
<mgrwt>
<rscale>  0 0.76150445E+03</rscale>
<asrwt>0</asrwt>
<pdfrwt beam="1">  1        2 0.20544055E+00 0.76150445E+03</pdfrwt>
<pdfrwt beam="2">  1       -2 0.12150533E+00 0.76150445E+03</pdfrwt>
<totfact> 0.82825606E+00</totfact>
</mgrwt>
</event>
<event>
 4    1  0.4840632E-008  0.1257710E+04  0.7818608E-02  0.9063791E-01
          2   -1    0    0  501    0  0.00000000000E+00  0.00000000000E+00  0.26664371702E+04  0.26664371702E+04  0.25500000000E-02 0. -1.
         -2   -1    0    0    0  501 -0.00000000000E+00 -0.00000000000E+00 -0.64266443340E+03  0.64266443340E+03  0.25500000000E-02 0.  1.
    8880022    1    1    2    0    0 -0.56373347654E+03  0.11138430097E+04  0.14707304859E+04  0.19351696303E+04  0.15294330000E+03 0.  0.
    8880022    1    1    2    0    0  0.56373347654E+03 -0.11138430097E+04  0.55304225089E+03  0.13739319733E+04  0.15294330000E+03 0.  0.
<mgrwt>
<rscale>  0 0.12577096E+04</rscale>
<asrwt>0</asrwt>
<pdfrwt beam="1">  1        2 0.41022110E+00 0.12577096E+04</pdfrwt>
<pdfrwt beam="2">  1       -2 0.98871451E-01 0.12577096E+04</pdfrwt>
<totfact> 0.23094093E+00</totfact>
</mgrwt>
</event>
<event>
 4    1  0.4840632E-008  0.5096877E+03  0.7818608E-02  0.1011281E+00
         -2   -1    0    0    0  501 -0.00000000000E+00  0.00000000000E+00  0.26785595232E+03  0.26785595233E+03  0.25500000000E-02 0.  1.
          2   -1    0    0  501    0  0.00000000000E+00 -0.00000000000E+00 -0.12042892068E+04  0.12042892068E+04  0.25500000000E-02 0. -1.
    8880022    1    1    2    0    0  0.41257665664E+03  0.25723604852E+03 -0.14345449440E+03  0.52949100771E+03  0.15294330000E+03 0.  0.
    8880022    1    1    2    0    0 -0.41257665664E+03 -0.25723604852E+03 -0.79297876012E+03  0.94265415147E+03  0.15294330000E+03 0.  0.
<mgrwt>
<rscale>  0 0.50968768E+03</rscale>
<asrwt>0</asrwt>
<pdfrwt beam="1">  1        2 0.18527526E+00 0.50968768E+03</pdfrwt>
<pdfrwt beam="2">  1       -2 0.41208609E-01 0.50968768E+03</pdfrwt>
<totfact> 0.10906011E+02</totfact>
</mgrwt>
</event>
<event>
 4    1  0.4840632E-008  0.6149104E+03  0.7818608E-02  0.9874946E-01
          2   -1    0    0  501    0  0.00000000000E+00  0.00000000000E+00  0.26002045699E+04  0.26002045699E+04  0.25500000000E-02 0. -1.
         -2   -1    0    0    0  501 -0.00000000000E+00 -0.00000000000E+00 -0.17456048441E+03  0.17456048443E+03  0.25500000000E-02 0.  1.
    8880022    1    1    2    0    0  0.50568182726E+03 -0.31465699606E+03  0.64594146186E+03  0.89182686704E+03  0.15294330000E+03 0.  0.
    8880022    1    1    2    0    0 -0.50568182726E+03  0.31465699606E+03  0.17797026236E+04  0.18829381873E+04  0.15294330000E+03 0.  0.
<mgrwt>
<rscale>  0 0.61491039E+03</rscale>
<asrwt>0</asrwt>
<pdfrwt beam="1">  1        2 0.40003145E+00 0.61491039E+03</pdfrwt>
<pdfrwt beam="2">  1       -2 0.26855460E-01 0.61491039E+03</pdfrwt>
<totfact> 0.40824619E+01</totfact>
</mgrwt>
</event>
<event>
 4    1  0.4840632E-008  0.1182892E+04  0.7818608E-02  0.9127964E-01
          2   -1    0    0  501    0  0.00000000000E+00  0.00000000000E+00  0.20021143419E+04  0.20021143419E+04  0.25500000000E-02 0. -1.
         -2   -1    0    0    0  501 -0.00000000000E+00 -0.00000000000E+00 -0.80174083396E+03  0.80174083396E+03  0.25500000000E-02 0.  1.
    8880022    1    1    2    0    0  0.37121800600E+03 -0.11126720138E+04  0.98031478669E+02  0.11869471943E+04  0.15294330000E+03 0.  0.
    8880022    1    1    2    0    0 -0.37121800600E+03  0.11126720138E+04  0.11023420292E+04  0.16169079815E+04  0.15294330000E+03 0.  0.
<mgrwt>
<rscale>  0 0.11828920E+04</rscale>
<asrwt>0</asrwt>
<pdfrwt beam="1">  1        2 0.30801759E+00 0.11828920E+04</pdfrwt>
<pdfrwt beam="2">  1       -2 0.12334474E+00 0.11828920E+04</pdfrwt>
<totfact> 0.32299046E+00</totfact>
</mgrwt>
</event>
<event>
 4    1  0.4840632E-008  0.1066538E+04  0.7818608E-02  0.9238434E-01
         -2   -1    0    0    0  501 -0.00000000000E+00  0.00000000000E+00  0.76945775404E+03  0.76945775405E+03  0.25500000000E-02 0.  1.
          2   -1    0    0  501    0  0.00000000000E+00 -0.00000000000E+00 -0.34586105928E+04  0.34586105928E+04  0.25500000000E-02 0. -1.
    8880022    1    1    2    0    0 -0.23038247027E+02 -0.10552635761E+04 -0.29442294643E+04  0.31314518625E+04  0.15294330000E+03 0.  0.
    8880022    1    1    2    0    0  0.23038247027E+02  0.10552635761E+04  0.25507662555E+03  0.10966164843E+04  0.15294330000E+03 0.  0.
<mgrwt>
<rscale>  0 0.10665382E+04</rscale>
<asrwt>0</asrwt>
<pdfrwt beam="1">  1        2 0.53209393E+00 0.10665382E+04</pdfrwt>
<pdfrwt beam="2">  1       -2 0.11837812E+00 0.10665382E+04</pdfrwt>
<totfact> 0.48610273E-01</totfact>
</mgrwt>
</event>
<event>
 4    1  0.4840632E-008  0.2877308E+03  0.7818608E-02  0.1091540E+00
          2   -1    0    0  501    0  0.00000000000E+00  0.00000000000E+00  0.71990540767E+03  0.71990540767E+03  0.25500000000E-02 0. -1.
         -2   -1    0    0    0  501 -0.00000000000E+00 -0.00000000000E+00 -0.36326253391E+03  0.36326253392E+03  0.25500000000E-02 0.  1.
    8880022    1    1    2    0    0  0.15187789963E+03 -0.19060552566E+03 -0.26940343291E+03  0.39416649463E+03  0.15294330000E+03 0.  1.
    8880022    1    1    2    0    0 -0.15187789963E+03  0.19060552566E+03  0.62604630667E+03  0.68900144696E+03  0.15294330000E+03 0.  0.
<mgrwt>
<rscale>  0 0.28773080E+03</rscale>
<asrwt>0</asrwt>
<pdfrwt beam="1">  1        2 0.11075468E+00 0.28773080E+03</pdfrwt>
<pdfrwt beam="2">  1       -2 0.55886544E-01 0.28773080E+03</pdfrwt>
<totfact> 0.12527539E+02</totfact>
</mgrwt>
</event>
<event>
 4    1  0.4840632E-008  0.4533446E+03  0.7818608E-02  0.1026729E+00
         -2   -1    0    0    0  501 -0.00000000000E+00  0.00000000000E+00  0.15360150522E+03  0.15360150524E+03  0.25500000000E-02 0.  1.
          2   -1    0    0  501    0  0.00000000000E+00 -0.00000000000E+00 -0.23755672348E+04  0.23755672348E+04  0.25500000000E-02 0. -1.
    8880022    1    1    2    0    0  0.42583239282E+03  0.28221547102E+02 -0.27524739395E+03  0.53036069178E+03  0.15294330000E+03 0.  1.
    8880022    1    1    2    0    0 -0.42583239282E+03 -0.28221547102E+02 -0.19467183357E+04  0.19988080483E+04  0.15294330000E+03 0.  0.
<mgrwt>
<rscale>  0 0.45334461E+03</rscale>
<asrwt>0</asrwt>
<pdfrwt beam="1">  1        2 0.36547186E+00 0.45334461E+03</pdfrwt>
<pdfrwt beam="2">  1       -2 0.23631003E-01 0.45334461E+03</pdfrwt>
<totfact> 0.70754287E+01</totfact>
</mgrwt>
</event>
<event>
 4    1  0.4840632E-008  0.3559360E+03  0.7818608E-02  0.1060205E+00
          2   -1    0    0  501    0  0.00000000000E+00  0.00000000000E+00  0.10153287646E+04  0.10153287646E+04  0.25500000000E-02 0. -1.
         -2   -1    0    0    0  501 -0.00000000000E+00 -0.00000000000E+00 -0.28001389782E+03  0.28001389783E+03  0.25500000000E-02 0.  1.
    8880022    1    1    2    0    0  0.16663809019E+02  0.32096901803E+03  0.84989528820E+03  0.92141871426E+03  0.15294330000E+03 0.  0.
    8880022    1    1    2    0    0 -0.16663809019E+02 -0.32096901803E+03 -0.11458042138E+03  0.37392394821E+03  0.15294330000E+03 0.  0.
<mgrwt>
<rscale>  0 0.35593601E+03</rscale>
<asrwt>0</asrwt>
<pdfrwt beam="1">  1        2 0.15620443E+00 0.35593601E+03</pdfrwt>
<pdfrwt beam="2">  1       -2 0.43079061E-01 0.35593601E+03</pdfrwt>
<totfact> 0.13232639E+02</totfact>
</mgrwt>
</event>
<event>
 4    1  0.4840632E-008  0.1754062E+03  0.7818608E-02  0.1172324E+00
         -2   -1    0    0    0  501 -0.00000000000E+00  0.00000000000E+00  0.49975796574E+03  0.49975796575E+03  0.25500000000E-02 0.  1.
          2   -1    0    0  501    0  0.00000000000E+00 -0.00000000000E+00 -0.18832028476E+04  0.18832028476E+04  0.25500000000E-02 0. -1.
    8880022    1    1    2    0    0  0.83606539973E+02  0.19637827409E+02 -0.18635654502E+04  0.18718022166E+04  0.15294330000E+03 0.  0.
    8880022    1    1    2    0    0 -0.83606539973E+02 -0.19637827409E+02  0.48012056839E+03  0.51115859672E+03  0.15294330000E+03 0.  1.
<mgrwt>
<rscale>  0 0.17540625E+03</rscale>
<asrwt>0</asrwt>
<pdfrwt beam="1">  1        2 0.28972351E+00 0.17540625E+03</pdfrwt>
<pdfrwt beam="2">  1       -2 0.76885842E-01 0.17540625E+03</pdfrwt>
<totfact> 0.14234976E+01</totfact>
</mgrwt>
</event>
<event>
 4    1  0.4840632E-008  0.8313262E+03  0.7818608E-02  0.9515749E-01
         -2   -1    0    0    0  501 -0.00000000000E+00  0.00000000000E+00  0.33186607612E+03  0.33186607613E+03  0.25500000000E-02 0.  1.
          2   -1    0    0  501    0  0.00000000000E+00 -0.00000000000E+00 -0.22299835076E+04  0.22299835076E+04  0.25500000000E-02 0. -1.
    8880022    1    1    2    0    0  0.42437246504E+02  0.81603346303E+03 -0.12785012424E+04  0.15250142991E+04  0.15294330000E+03 0.  0.
    8880022    1    1    2    0    0 -0.42437246504E+02 -0.81603346303E+03 -0.61961618915E+03  0.10368352847E+04  0.15294330000E+03 0.  0.
<mgrwt>
<rscale>  0 0.83132616E+03</rscale>
<asrwt>0</asrwt>
<pdfrwt beam="1">  1        2 0.34307438E+00 0.83132616E+03</pdfrwt>
<pdfrwt beam="2">  1       -2 0.51056321E-01 0.83132616E+03</pdfrwt>
<totfact> 0.18509143E+01</totfact>
</mgrwt>
</event>
<event>
 4    1  0.4840632E-008  0.6043696E+03  0.7818608E-02  0.9896382E-01
          2   -1    0    0  501    0  0.00000000000E+00  0.00000000000E+00  0.10407776981E+04  0.10407776982E+04  0.25500000000E-02 0. -1.
         -2   -1    0    0    0  501 -0.00000000000E+00 -0.00000000000E+00 -0.56095002627E+03  0.56095002627E+03  0.25500000000E-02 0.  1.
    8880022    1    1    2    0    0  0.99409247423E+02 -0.57618462837E+03  0.72992350723E+03  0.94765547741E+03  0.15294330000E+03 0. -1.
    8880022    1    1    2    0    0 -0.99409247423E+02  0.57618462837E+03 -0.25009583535E+03  0.65407224701E+03  0.15294330000E+03 0.  0.
<mgrwt>
<rscale>  0 0.60436957E+03</rscale>
<asrwt>0</asrwt>
<pdfrwt beam="1">  1        2 0.16011964E+00 0.60436957E+03</pdfrwt>
<pdfrwt beam="2">  1       -2 0.86300005E-01 0.60436957E+03</pdfrwt>
<totfact> 0.28528549E+01</totfact>
</mgrwt>
</event>
<event>
 4    1  0.4840632E-008  0.5950706E+03  0.7818608E-02  0.9915686E-01
         -2   -1    0    0    0  501 -0.00000000000E+00  0.00000000000E+00  0.37426179622E+03  0.37426179623E+03  0.25500000000E-02 0.  1.
          2   -1    0    0  501    0  0.00000000000E+00 -0.00000000000E+00 -0.21165968666E+04  0.21165968666E+04  0.25500000000E-02 0. -1.
    8880022    1    1    2    0    0  0.47664941305E+03  0.32174939372E+03 -0.17973046249E+04  0.18932545796E+04  0.15294330000E+03 0.  0.
    8880022    1    1    2    0    0 -0.47664941305E+03 -0.32174939372E+03  0.54969554592E+02  0.59760408321E+03  0.15294330000E+03 0.  0.
<mgrwt>
<rscale>  0 0.59507057E+03</rscale>
<asrwt>0</asrwt>
<pdfrwt beam="1">  1        2 0.32563028E+00 0.59507057E+03</pdfrwt>
<pdfrwt beam="2">  1       -2 0.57578739E-01 0.59507057E+03</pdfrwt>
<totfact> 0.17283227E+01</totfact>
</mgrwt>
</event>
<event>
 4    1  0.4840632E-008  0.3952691E+03  0.7818608E-02  0.1045430E+00
          2   -1    0    0  501    0  0.00000000000E+00  0.00000000000E+00  0.52339480442E+03  0.52339480443E+03  0.25500000000E-02 0. -1.
         -2   -1    0    0    0  501 -0.00000000000E+00 -0.00000000000E+00 -0.34514855087E+03  0.34514855088E+03  0.25500000000E-02 0.  1.
    8880022    1    1    2    0    0 -0.70093302625E+02  0.35767717590E+03  0.24876212026E+03  0.46703348780E+03  0.15294330000E+03 0.  1.
    8880022    1    1    2    0    0  0.70093302625E+02 -0.35767717590E+03 -0.70515866717E+02  0.40150986751E+03  0.15294330000E+03 0. -1.
<mgrwt>
<rscale>  0 0.39526913E+03</rscale>
<asrwt>0</asrwt>
<pdfrwt beam="1">  1        2 0.80522277E-01 0.39526913E+03</pdfrwt>
<pdfrwt beam="2">  1       -2 0.53099778E-01 0.39526913E+03</pdfrwt>
<totfact> 0.20082214E+02</totfact>
</mgrwt>
</event>
<event>
 4    1  0.4840632E-008  0.1301427E+04  0.7818608E-02  0.9028434E-01
          2   -1    0    0  501    0  0.00000000000E+00  0.00000000000E+00  0.24469320627E+04  0.24469320627E+04  0.25500000000E-02 0. -1.
         -2   -1    0    0    0  501 -0.00000000000E+00 -0.00000000000E+00 -0.79305528074E+03  0.79305528074E+03  0.25500000000E-02 0.  1.
    8880022    1    1    2    0    0 -0.73889646306E+03 -0.10603550206E+04  0.24916386499E+03  0.13250641635E+04  0.15294330000E+03 0.  0.
    8880022    1    1    2    0    0  0.73889646306E+03  0.10603550206E+04  0.14047129170E+04  0.19149231799E+04  0.15294330000E+03 0.  0.
<mgrwt>
<rscale>  0 0.13014271E+04</rscale>
<asrwt>0</asrwt>
<pdfrwt beam="1">  1        2 0.37645109E+00 0.13014271E+04</pdfrwt>
<pdfrwt beam="2">  1       -2 0.12200850E+00 0.13014271E+04</pdfrwt>
<totfact> 0.18435834E+00</totfact>
</mgrwt>
</event>
<event>
 4    1  0.4840632E-008  0.2586825E+03  0.7818608E-02  0.1107937E+00
         -2   -1    0    0    0  501 -0.00000000000E+00  0.00000000000E+00  0.63532361892E+03  0.63532361892E+03  0.25500000000E-02 0.  1.
          2   -1    0    0  501    0  0.00000000000E+00 -0.00000000000E+00 -0.50787828252E+03  0.50787828253E+03  0.25500000000E-02 0. -1.
    8880022    1    1    2    0    0  0.88217516872E+02  0.18905727436E+03 -0.44516720537E+03  0.51486937860E+03  0.15294330000E+03 0. -1.
    8880022    1    1    2    0    0 -0.88217516872E+02 -0.18905727436E+03  0.57261254176E+03  0.62833252285E+03  0.15294330000E+03 0.  0.
<mgrwt>
<rscale>  0 0.25868250E+03</rscale>
<asrwt>0</asrwt>
<pdfrwt beam="1">  1        2 0.78135121E-01 0.25868250E+03</pdfrwt>
<pdfrwt beam="2">  1       -2 0.97742095E-01 0.25868250E+03</pdfrwt>
<totfact> 0.56121395E+01</totfact>
</mgrwt>
</event>
<event>
 4    1  0.4840632E-008  0.6166621E+03  0.7818608E-02  0.9871428E-01
         -2   -1    0    0    0  501 -0.00000000000E+00  0.00000000000E+00  0.66222247327E+03  0.66222247328E+03  0.25500000000E-02 0.  1.
          2   -1    0    0  501    0  0.00000000000E+00 -0.00000000000E+00 -0.72353569285E+03  0.72353569286E+03  0.25500000000E-02 0. -1.
    8880022    1    1    2    0    0 -0.47762752135E+03  0.35882091731E+03  0.28408673615E+03  0.67895318434E+03  0.15294330000E+03 0.  0.
    8880022    1    1    2    0    0  0.47762752135E+03 -0.35882091731E+03 -0.34539995573E+03  0.70680498179E+03  0.15294330000E+03 0.  0.
<mgrwt>
<rscale>  0 0.61666211E+03</rscale>
<asrwt>0</asrwt>
<pdfrwt beam="1">  1        2 0.11131318E+00 0.61666211E+03</pdfrwt>
<pdfrwt beam="2">  1       -2 0.10188038E+00 0.61666211E+03</pdfrwt>
<totfact> 0.31852881E+01</totfact>
</mgrwt>
</event>
<event>
 4    1  0.4840632E-008  0.6453407E+03  0.7818608E-02  0.9815561E-01
         -2   -1    0    0    0  501 -0.00000000000E+00  0.00000000000E+00  0.27999005646E+03  0.27999005648E+03  0.25500000000E-02 0.  1.
          2   -1    0    0  501    0  0.00000000000E+00 -0.00000000000E+00 -0.16885278406E+04  0.16885278406E+04  0.25500000000E-02 0. -1.
    8880022    1    1    2    0    0 -0.39116948381E+03  0.48995863387E+03 -0.36459470533E+03  0.74121115759E+03  0.15294330000E+03 0.  0.
    8880022    1    1    2    0    0  0.39116948381E+03 -0.48995863387E+03 -0.10439430788E+04  0.12273067395E+04  0.15294330000E+03 0.  0.
<mgrwt>
<rscale>  0 0.64534075E+03</rscale>
<asrwt>0</asrwt>
<pdfrwt beam="1">  1        2 0.25977351E+00 0.64534075E+03</pdfrwt>
<pdfrwt beam="2">  1       -2 0.43075394E-01 0.64534075E+03</pdfrwt>
<totfact> 0.52744457E+01</totfact>
</mgrwt>
</event>
<event>
 4    1  0.4840632E-008  0.4048852E+03  0.7818608E-02  0.1042101E+00
          2   -1    0    0  501    0  0.00000000000E+00  0.00000000000E+00  0.14340240996E+04  0.14340240996E+04  0.25500000000E-02 0. -1.
         -2   -1    0    0    0  501 -0.00000000000E+00 -0.00000000000E+00 -0.12042033701E+03  0.12042033703E+03  0.25500000000E-02 0.  1.
    8880022    1    1    2    0    0  0.16444930024E+03 -0.33689281034E+03  0.48181227422E+03  0.62934494406E+03  0.15294330000E+03 0.  0.
    8880022    1    1    2    0    0 -0.16444930024E+03  0.33689281034E+03  0.83179148836E+03  0.92509949256E+03  0.15294330000E+03 0.  0.
<mgrwt>
<rscale>  0 0.40488516E+03</rscale>
<asrwt>0</asrwt>
<pdfrwt beam="1">  1        2 0.22061910E+00 0.40488516E+03</pdfrwt>
<pdfrwt beam="2">  1       -2 0.18526205E-01 0.40488516E+03</pdfrwt>
<totfact> 0.35113763E+02</totfact>
</mgrwt>
</event>
<event>
 4    1  0.4840632E-008  0.1880739E+03  0.7818608E-02  0.1160210E+00
         -2   -1    0    0    0  501 -0.00000000000E+00  0.00000000000E+00  0.12060985798E+03  0.12060985801E+03  0.25500000000E-02 0.  1.
          2   -1    0    0  501    0  0.00000000000E+00 -0.00000000000E+00 -0.10420411544E+04  0.10420411544E+04  0.25500000000E-02 0. -1.
    8880022    1    1    2    0    0 -0.10201399914E+03 -0.39664655903E+02 -0.95349238220E+03  0.97186393949E+03  0.15294330000E+03 0.  0.
    8880022    1    1    2    0    0  0.10201399914E+03  0.39664655903E+02  0.32061085803E+02  0.19078707290E+03  0.15294330000E+03 0.  1.
<mgrwt>
<rscale>  0 0.18807391E+03</rscale>
<asrwt>0</asrwt>
<pdfrwt beam="1">  1        2 0.16031402E+00 0.18807391E+03</pdfrwt>
<pdfrwt beam="2">  1       -2 0.18555363E-01 0.18807391E+03</pdfrwt>
<totfact> 0.59855925E+02</totfact>
</mgrwt>
</event>
<event>
 4    1  0.4840632E-008  0.4022764E+03  0.7818608E-02  0.1042994E+00
         -2   -1    0    0    0  501 -0.00000000000E+00  0.00000000000E+00  0.25058520377E+03  0.25058520379E+03  0.25500000000E-02 0.  1.
          2   -1    0    0  501    0  0.00000000000E+00 -0.00000000000E+00 -0.75559762498E+03  0.75559762498E+03  0.25500000000E-02 0. -1.
    8880022    1    1    2    0    0 -0.11378682675E+03 -0.35424168260E+03 -0.60722733911E+02  0.40683352254E+03  0.15294330000E+03 0.  0.
    8880022    1    1    2    0    0  0.11378682675E+03  0.35424168260E+03 -0.44428968729E+03  0.59934930623E+03  0.15294330000E+03 0.  0.
<mgrwt>
<rscale>  0 0.40227635E+03</rscale>
<asrwt>0</asrwt>
<pdfrwt beam="1">  1        2 0.11624579E+00 0.40227635E+03</pdfrwt>
<pdfrwt beam="2">  1       -2 0.38551570E-01 0.40227635E+03</pdfrwt>
<totfact> 0.24314357E+02</totfact>
</mgrwt>
</event>
<event>
 4    1  0.4840632E-008  0.7801164E+03  0.7818608E-02  0.9589252E-01
          2   -1    0    0  501    0  0.00000000000E+00  0.00000000000E+00  0.10089169944E+04  0.10089169944E+04  0.25500000000E-02 0. -1.
         -2   -1    0    0    0  501 -0.00000000000E+00 -0.00000000000E+00 -0.10046770727E+04  0.10046770727E+04  0.25500000000E-02 0.  1.
    8880022    1    1    2    0    0  0.69452340287E+03  0.32066672803E+03  0.63856006635E+03  0.10081371528E+04  0.15294330000E+03 0.  0.
    8880022    1    1    2    0    0 -0.69452340287E+03 -0.32066672803E+03 -0.63432014467E+03  0.10054569143E+04  0.15294330000E+03 0.  0.
<mgrwt>
<rscale>  0 0.78011638E+03</rscale>
<asrwt>0</asrwt>
<pdfrwt beam="1">  1        2 0.15521800E+00 0.78011638E+03</pdfrwt>
<pdfrwt beam="2">  1       -2 0.15456570E+00 0.78011638E+03</pdfrwt>
<totfact> 0.69793152E+00</totfact>
</mgrwt>
</event>
<event>
 4    1  0.4840632E-008  0.1359763E+04  0.7818608E-02  0.8983470E-01
         -2   -1    0    0    0  501 -0.00000000000E+00  0.00000000000E+00  0.11805927159E+04  0.11805927159E+04  0.25500000000E-02 0.  1.
          2   -1    0    0  501    0  0.00000000000E+00 -0.00000000000E+00 -0.24586883675E+04  0.24586883675E+04  0.25500000000E-02 0. -1.
    8880022    1    1    2    0    0 -0.12150841661E+04 -0.59087672202E+03 -0.17354079784E+04  0.22046762429E+04  0.15294330000E+03 0. -1.
    8880022    1    1    2    0    0  0.12150841661E+04  0.59087672202E+03  0.45731232672E+03  0.14346048406E+04  0.15294330000E+03 0.  0.
<mgrwt>
<rscale>  0 0.13597634E+04</rscale>
<asrwt>0</asrwt>
<pdfrwt beam="1">  1        2 0.37825975E+00 0.13597634E+04</pdfrwt>
<pdfrwt beam="2">  1       -2 0.18162965E+00 0.13597634E+04</pdfrwt>
<totfact> 0.62134804E-01</totfact>
</mgrwt>
</event>
<event>
 4    1  0.4840632E-008  0.9149351E+03  0.7818608E-02  0.9407102E-01
          2   -1    0    0  501    0  0.00000000000E+00  0.00000000000E+00  0.38956005509E+04  0.38956005509E+04  0.25500000000E-02 0. -1.
         -2   -1    0    0    0  501 -0.00000000000E+00 -0.00000000000E+00 -0.34616673869E+03  0.34616673870E+03  0.25500000000E-02 0.  1.
    8880022    1    1    2    0    0  0.87398268133E+03 -0.22331315723E+03  0.46861721918E+03  0.10279631533E+04  0.15294330000E+03 0.  0.
    8880022    1    1    2    0    0 -0.87398268133E+03  0.22331315723E+03  0.30808165931E+04  0.32138041363E+04  0.15294330000E+03 0.  0.
<mgrwt>
<rscale>  0 0.91493505E+03</rscale>
<asrwt>0</asrwt>
<pdfrwt beam="1">  1        2 0.59932311E+00 0.91493505E+03</pdfrwt>
<pdfrwt beam="2">  1       -2 0.53256426E-01 0.91493505E+03</pdfrwt>
<totfact> 0.14700682E+00</totfact>
</mgrwt>
</event>
<event>
 4    1  0.4840632E-008  0.3572226E+03  0.7818608E-02  0.1059689E+00
          2   -1    0    0  501    0  0.00000000000E+00  0.00000000000E+00  0.15950059068E+04  0.15950059068E+04  0.25500000000E-02 0. -1.
         -2   -1    0    0    0  501 -0.00000000000E+00 -0.00000000000E+00 -0.21173941559E+03  0.21173941561E+03  0.25500000000E-02 0.  1.
    8880022    1    1    2    0    0 -0.28977137211E+03 -0.14229859588E+03 -0.20918132283E+02  0.35783454243E+03  0.15294330000E+03 0.  0.
    8880022    1    1    2    0    0  0.28977137211E+03  0.14229859588E+03  0.14041846235E+04  0.14489107800E+04  0.15294330000E+03 0.  0.
<mgrwt>
<rscale>  0 0.35722261E+03</rscale>
<asrwt>0</asrwt>
<pdfrwt beam="1">  1        2 0.24538553E+00 0.35722261E+03</pdfrwt>
<pdfrwt beam="2">  1       -2 0.32575294E-01 0.35722261E+03</pdfrwt>
<totfact> 0.10583196E+02</totfact>
</mgrwt>
</event>
<event>
 4    1  0.5675568E-008  0.1127103E+04  0.7818608E-02  0.9179171E-01
         -2   -1    0    0    0  501 -0.00000000000E+00  0.00000000000E+00  0.13409383646E+04  0.13409383646E+04  0.25500000000E-02 0.  1.
          2   -1    0    0  501    0  0.00000000000E+00 -0.00000000000E+00 -0.20261789716E+04  0.20261789716E+04  0.25500000000E-02 0. -1.
    8880022    1    1    2    0    0 -0.10960587294E+04  0.21359760223E+03  0.88584330653E+03  0.14335545649E+04  0.15294330000E+03 0.  0.
    8880022    1    1    2    0    0  0.10960587294E+04 -0.21359760223E+03 -0.15710839135E+04  0.19335627712E+04  0.15294330000E+03 0.  0.
<mgrwt>
<rscale>  0 0.11271026E+04</rscale>
<asrwt>0</asrwt>
<pdfrwt beam="1">  1        2 0.31171984E+00 0.11271026E+04</pdfrwt>
<pdfrwt beam="2">  1       -2 0.20629821E+00 0.11271026E+04</pdfrwt>
<totfact> 0.76683162E-01</totfact>
</mgrwt>
</event>
<event>
 4    1  0.4840632E-008  0.5367894E+03  0.7818608E-02  0.1004599E+00
          2   -1    0    0  501    0  0.00000000000E+00  0.00000000000E+00  0.63636586420E+03  0.63636586421E+03  0.25500000000E-02 0. -1.
         -2   -1    0    0    0  501 -0.00000000000E+00 -0.00000000000E+00 -0.57657233612E+03  0.57657233613E+03  0.25500000000E-02 0.  1.
    8880022    1    1    2    0    0  0.31377064546E+03 -0.40779794067E+03 -0.25110146606E+03  0.59261688943E+03  0.15294330000E+03 0.  0.
    8880022    1    1    2    0    0 -0.31377064546E+03  0.40779794067E+03  0.31089499414E+03  0.62032131091E+03  0.15294330000E+03 0.  0.
<mgrwt>
<rscale>  0 0.53678937E+03</rscale>
<asrwt>0</asrwt>
<pdfrwt beam="1">  1        2 0.97902440E-01 0.53678937E+03</pdfrwt>
<pdfrwt beam="2">  1       -2 0.88703437E-01 0.53678937E+03</pdfrwt>
<totfact> 0.51994442E+01</totfact>
</mgrwt>
</event>
<event>
 4    1  0.4840632E-008  0.4383698E+03  0.7818608E-02  0.1031248E+00
          2   -1    0    0  501    0  0.00000000000E+00  0.00000000000E+00  0.18193397130E+04  0.18193397130E+04  0.25500000000E-02 0. -1.
         -2   -1    0    0    0  501 -0.00000000000E+00 -0.00000000000E+00 -0.29851839566E+03  0.29851839567E+03  0.25500000000E-02 0.  1.
    8880022    1    1    2    0    0 -0.95042972620E+02  0.39967892435E+03  0.16116267118E+04  0.16701822416E+04  0.15294330000E+03 0.  0.
    8880022    1    1    2    0    0  0.95042972620E+02 -0.39967892435E+03 -0.90805394452E+02  0.44767586700E+03  0.15294330000E+03 0.  0.
<mgrwt>
<rscale>  0 0.43836978E+03</rscale>
<asrwt>0</asrwt>
<pdfrwt beam="1">  1        2 0.27989842E+00 0.43836978E+03</pdfrwt>
<pdfrwt beam="2">  1       -2 0.45925907E-01 0.43836978E+03</pdfrwt>
<totfact> 0.40838912E+01</totfact>
</mgrwt>
</event>
<event>
 4    1  0.4840632E-008  0.1296958E+04  0.7818608E-02  0.9031981E-01
          2   -1    0    0  501    0  0.00000000000E+00  0.00000000000E+00  0.24771706282E+04  0.24771706282E+04  0.25500000000E-02 0. -1.
         -2   -1    0    0    0  501 -0.00000000000E+00 -0.00000000000E+00 -0.74696990247E+03  0.74696990248E+03  0.25500000000E-02 0.  1.
    8880022    1    1    2    0    0 -0.10126173622E+04 -0.79581004543E+03  0.13512402828E+04  0.18729520831E+04  0.15294330000E+03 0.  0.
    8880022    1    1    2    0    0  0.10126173622E+04  0.79581004543E+03  0.37896044293E+03  0.13511884476E+04  0.15294330000E+03 0.  0.
<mgrwt>
<rscale>  0 0.12969577E+04</rscale>
<asrwt>0</asrwt>
<pdfrwt beam="1">  1        2 0.38110317E+00 0.12969577E+04</pdfrwt>
<pdfrwt beam="2">  1       -2 0.11491845E+00 0.12969577E+04</pdfrwt>
<totfact> 0.20568715E+00</totfact>
</mgrwt>
</event>
<event>
 4    1  0.4840632E-008  0.4618237E+03  0.7818608E-02  0.1024254E+00
          2   -1    0    0  501    0  0.00000000000E+00  0.00000000000E+00  0.11570982259E+04  0.11570982259E+04  0.25500000000E-02 0. -1.
         -2   -1    0    0    0  501 -0.00000000000E+00 -0.00000000000E+00 -0.33324574355E+03  0.33324574356E+03  0.25500000000E-02 0.  1.
    8880022    1    1    2    0    0 -0.12884135850E+03  0.41628037249E+03 -0.86215705423E+02  0.46980234679E+03  0.15294330000E+03 0.  0.
    8880022    1    1    2    0    0  0.12884135850E+03 -0.41628037249E+03  0.91006818772E+03  0.10205416226E+04  0.15294330000E+03 0.  0.
<mgrwt>
<rscale>  0 0.46182366E+03</rscale>
<asrwt>0</asrwt>
<pdfrwt beam="1">  1        2 0.17801512E+00 0.46182366E+03</pdfrwt>
<pdfrwt beam="2">  1       -2 0.51268575E-01 0.46182366E+03</pdfrwt>
<totfact> 0.75731840E+01</totfact>
</mgrwt>
</event>
<event>
 4    1  0.4840632E-008  0.1542581E+04  0.7818608E-02  0.8856621E-01
         -2   -1    0    0    0  501 -0.00000000000E+00  0.00000000000E+00  0.18616851256E+04  0.18616851256E+04  0.25500000000E-02 0.  1.
          2   -1    0    0  501    0  0.00000000000E+00 -0.00000000000E+00 -0.13049216326E+04  0.13049216326E+04  0.25500000000E-02 0. -1.
    8880022    1    1    2    0    0  0.55492026698E+03  0.14311629920E+04  0.51696789026E+02  0.15434468644E+04  0.15294330000E+03 0.  0.
    8880022    1    1    2    0    0 -0.55492026698E+03 -0.14311629920E+04  0.50506670403E+03  0.16231598938E+04  0.15294330000E+03 0.  0.
<mgrwt>
<rscale>  0 0.15425808E+04</rscale>
<asrwt>0</asrwt>
<pdfrwt beam="1">  1        2 0.20075717E+00 0.15425808E+04</pdfrwt>
<pdfrwt beam="2">  1       -2 0.28641310E+00 0.15425808E+04</pdfrwt>
<totfact> 0.59337171E-01</totfact>
</mgrwt>
</event>
<event>
 4    1  0.4840632E-008  0.6696812E+03  0.7818608E-02  0.9770534E-01
          2   -1    0    0  501    0  0.00000000000E+00  0.00000000000E+00  0.23244244573E+04  0.23244244573E+04  0.25500000000E-02 0. -1.
         -2   -1    0    0    0  501 -0.00000000000E+00 -0.00000000000E+00 -0.28459346499E+03  0.28459346500E+03  0.25500000000E-02 0.  1.
    8880022    1    1    2    0    0 -0.15310253966E+03  0.63375145436E+03  0.17602203324E+04  0.18833078784E+04  0.15294330000E+03 0.  0.
    8880022    1    1    2    0    0  0.15310253966E+03 -0.63375145436E+03  0.27961065992E+03  0.72571004383E+03  0.15294330000E+03 0.  0.
<mgrwt>
<rscale>  0 0.66968123E+03</rscale>
<asrwt>0</asrwt>
<pdfrwt beam="1">  1        2 0.35760377E+00 0.66968123E+03</pdfrwt>
<pdfrwt beam="2">  1       -2 0.43783609E-01 0.66968123E+03</pdfrwt>
<totfact> 0.22891202E+01</totfact>
</mgrwt>
</event>
<event>
 4    1  0.4840632E-008  0.1740673E+03  0.7818608E-02  0.1173671E+00
         -2   -1    0    0    0  501 -0.00000000000E+00  0.00000000000E+00  0.79736025403E+02  0.79736025444E+02  0.25500000000E-02 0.  1.
          2   -1    0    0  501    0  0.00000000000E+00 -0.00000000000E+00 -0.18392419839E+04  0.18392419839E+04  0.25500000000E-02 0. -1.
    8880022    1    1    2    0    0 -0.56984031551E+02 -0.60502910988E+02 -0.25110058634E+02  0.17586912790E+03  0.15294330000E+03 0.  0.
    8880022    1    1    2    0    0  0.56984031551E+02  0.60502910988E+02 -0.17343958999E+04  0.17431088815E+04  0.15294330000E+03 0. -1.
<mgrwt>
<rscale>  0 0.17406733E+03</rscale>
<asrwt>0</asrwt>
<pdfrwt beam="1">  1        2 0.28296027E+00 0.17406733E+03</pdfrwt>
<pdfrwt beam="2">  1       -2 0.12267082E-01 0.17406733E+03</pdfrwt>
<totfact> 0.44073838E+02</totfact>
</mgrwt>
</event>
<event>
 4    1  0.7763761E-008  0.7999200E+03  0.7818608E-02  0.9560133E-01
         -2   -1    0    0    0  501 -0.00000000000E+00  0.00000000000E+00  0.88071342952E+03  0.88071342952E+03  0.25500000000E-02 0.  1.
          2   -1    0    0  501    0  0.00000000000E+00 -0.00000000000E+00 -0.21477979659E+04  0.21477979659E+04  0.25500000000E-02 0. -1.
    8880022    1    1    2    0    0 -0.12181164683E+03  0.77565600583E+03  0.59825498291E+03  0.99888988096E+03  0.15294330000E+03 0.  0.
    8880022    1    1    2    0    0  0.12181164683E+03 -0.77565600583E+03 -0.18653395193E+04  0.20296215144E+04  0.15294330000E+03 0.  0.
<mgrwt>
<rscale>  0 0.79991998E+03</rscale>
<asrwt>0</asrwt>
<pdfrwt beam="1">  1        2 0.33043045E+00 0.79991998E+03</pdfrwt>
<pdfrwt beam="2">  1       -2 0.13549437E+00 0.79991998E+03</pdfrwt>
<totfact> 0.22277276E+00</totfact>
</mgrwt>
</event>
<event>
 4    1  0.4840632E-008  0.7113047E+03  0.7818608E-02  0.9698093E-01
         -2   -1    0    0    0  501 -0.00000000000E+00  0.00000000000E+00  0.43329071685E+03  0.43329071686E+03  0.25500000000E-02 0.  1.
          2   -1    0    0  501    0  0.00000000000E+00 -0.00000000000E+00 -0.36094375550E+04  0.36094375550E+04  0.25500000000E-02 0. -1.
    8880022    1    1    2    0    0  0.32829780801E+03  0.61219545732E+03 -0.32506211191E+04  0.33275354306E+04  0.15294330000E+03 0.  0.
    8880022    1    1    2    0    0 -0.32829780801E+03 -0.61219545732E+03  0.74474280946E+02  0.71519284130E+03  0.15294330000E+03 0.  0.
<mgrwt>
<rscale>  0 0.71130470E+03</rscale>
<asrwt>0</asrwt>
<pdfrwt beam="1">  1        2 0.55529807E+00 0.71130470E+03</pdfrwt>
<pdfrwt beam="2">  1       -2 0.66660112E-01 0.71130470E+03</pdfrwt>
<totfact> 0.15497298E+00</totfact>
</mgrwt>
</event>
<event>
 4    1  0.4840632E-008  0.4643284E+03  0.7818608E-02  0.1023533E+00
         -2   -1    0    0    0  501 -0.00000000000E+00  0.00000000000E+00  0.10403915086E+04  0.10403915086E+04  0.25500000000E-02 0.  1.
          2   -1    0    0  501    0  0.00000000000E+00 -0.00000000000E+00 -0.25883967199E+03  0.25883967200E+03  0.25500000000E-02 0. -1.
    8880022    1    1    2    0    0  0.29458204617E+03  0.32470078446E+03  0.10070476756E+03  0.47512344141E+03  0.15294330000E+03 0.  0.
    8880022    1    1    2    0    0 -0.29458204617E+03 -0.32470078446E+03  0.68084706910E+03  0.82410773924E+03  0.15294330000E+03 0.  0.
<mgrwt>
<rscale>  0 0.46432837E+03</rscale>
<asrwt>0</asrwt>
<pdfrwt beam="1">  1        2 0.39821489E-01 0.46432837E+03</pdfrwt>
<pdfrwt beam="2">  1       -2 0.16006023E+00 0.46432837E+03</pdfrwt>
<totfact> 0.33761563E+01</totfact>
</mgrwt>
</event>
<event>
 4    1  0.4840632E-008  0.2469032E+03  0.7818608E-02  0.1115278E+00
          2   -1    0    0  501    0  0.00000000000E+00  0.00000000000E+00  0.12008682697E+04  0.12008682697E+04  0.25500000000E-02 0. -1.
         -2   -1    0    0    0  501 -0.00000000000E+00 -0.00000000000E+00 -0.31305460740E+03  0.31305460741E+03  0.25500000000E-02 0.  1.
    8880022    1    1    2    0    0 -0.19357699464E+03 -0.98728909269E+01 -0.24896812899E+03  0.35063700475E+03  0.15294330000E+03 0.  1.
    8880022    1    1    2    0    0  0.19357699464E+03  0.98728909269E+01  0.11367817913E+04  0.11632858724E+04  0.15294330000E+03 0.  0.
<mgrwt>
<rscale>  0 0.24690318E+03</rscale>
<asrwt>0</asrwt>
<pdfrwt beam="1">  1        2 0.18474896E+00 0.24690318E+03</pdfrwt>
<pdfrwt beam="2">  1       -2 0.48162247E-01 0.24690318E+03</pdfrwt>
<totfact> 0.84267717E+01</totfact>
</mgrwt>
</event>
<event>
 4    1  0.4840632E-008  0.5393729E+03  0.7818608E-02  0.1003984E+00
         -2   -1    0    0    0  501 -0.00000000000E+00  0.00000000000E+00  0.18468722179E+03  0.18468722181E+03  0.25500000000E-02 0.  1.
          2   -1    0    0  501    0  0.00000000000E+00 -0.00000000000E+00 -0.18266433425E+04  0.18266433425E+04  0.25500000000E-02 0. -1.
    8880022    1    1    2    0    0  0.16726056026E+03  0.48944391799E+03 -0.11940812390E+04  0.13102492519E+04  0.15294330000E+03 0.  0.
    8880022    1    1    2    0    0 -0.16726056026E+03 -0.48944391799E+03 -0.44787488170E+03  0.70108131236E+03  0.15294330000E+03 0.  0.
<mgrwt>
<rscale>  0 0.53937287E+03</rscale>
<asrwt>0</asrwt>
<pdfrwt beam="1">  1        2 0.28102204E+00 0.53937287E+03</pdfrwt>
<pdfrwt beam="2">  1       -2 0.28413420E-01 0.53937287E+03</pdfrwt>
<totfact> 0.99219174E+01</totfact>
</mgrwt>
</event>
<event>
 4    1  0.4840632E-008  0.9402753E+03  0.7818608E-02  0.9376590E-01
         -2   -1    0    0    0  501 -0.00000000000E+00  0.00000000000E+00  0.13914633370E+04  0.13914633370E+04  0.25500000000E-02 0.  1.
          2   -1    0    0  501    0  0.00000000000E+00 -0.00000000000E+00 -0.72329474534E+03  0.72329474535E+03  0.25500000000E-02 0. -1.
    8880022    1    1    2    0    0 -0.58905354874E+03 -0.71675787309E+03 -0.34542452193E+02  0.94090954185E+03  0.15294330000E+03 0.  0.
    8880022    1    1    2    0    0  0.58905354874E+03  0.71675787309E+03  0.70271104389E+03  0.11738485405E+04  0.15294330000E+03 0.  0.
<mgrwt>
<rscale>  0 0.94027527E+03</rscale>
<asrwt>0</asrwt>
<pdfrwt beam="1">  1        2 0.11127611E+00 0.94027527E+03</pdfrwt>
<pdfrwt beam="2">  1       -2 0.21407128E+00 0.94027527E+03</pdfrwt>
<totfact> 0.42388997E+00</totfact>
</mgrwt>
</event>
<event>
 4    1  0.4840632E-008  0.1555589E+03  0.7818608E-02  0.1193804E+00
         -2   -1    0    0    0  501 -0.00000000000E+00  0.00000000000E+00  0.27061980651E+03  0.27061980652E+03  0.25500000000E-02 0.  1.
          2   -1    0    0  501    0  0.00000000000E+00 -0.00000000000E+00 -0.56731903189E+03  0.56731903190E+03  0.25500000000E-02 0. -1.
    8880022    1    1    2    0    0 -0.22145310852E+02  0.17790324510E+02 -0.53288575004E+03  0.55512681979E+03  0.15294330000E+03 0. -1.
    8880022    1    1    2    0    0  0.22145310852E+02 -0.17790324510E+02  0.23618652466E+03  0.28281201863E+03  0.15294330000E+03 0.  0.
<mgrwt>
<rscale>  0 0.15555887E+03</rscale>
<asrwt>0</asrwt>
<pdfrwt beam="1">  1        2 0.87279851E-01 0.15555887E+03</pdfrwt>
<pdfrwt beam="2">  1       -2 0.41633817E-01 0.15555887E+03</pdfrwt>
<totfact> 0.30239973E+02</totfact>
</mgrwt>
</event>
<event>
 4    1  0.4840632E-008  0.2992255E+03  0.7818608E-02  0.1085628E+00
          2   -1    0    0  501    0  0.00000000000E+00  0.00000000000E+00  0.60155134070E+03  0.60155134071E+03  0.25500000000E-02 0. -1.
         -2   -1    0    0    0  501 -0.00000000000E+00 -0.00000000000E+00 -0.72806688191E+03  0.72806688192E+03  0.25500000000E-02 0.  1.
    8880022    1    1    2    0    0  0.20212847790E+03  0.15902311521E+03  0.52971539601E+03  0.60838665875E+03  0.15294330000E+03 0. -1.
    8880022    1    1    2    0    0 -0.20212847790E+03 -0.15902311521E+03 -0.65623093722E+03  0.72123156388E+03  0.15294330000E+03 0.  0.
<mgrwt>
<rscale>  0 0.29922554E+03</rscale>
<asrwt>0</asrwt>
<pdfrwt beam="1">  1        2 0.92546361E-01 0.29922554E+03</pdfrwt>
<pdfrwt beam="2">  1       -2 0.11201029E+00 0.29922554E+03</pdfrwt>
<totfact> 0.33256161E+01</totfact>
</mgrwt>
</event>
<event>
 4    1  0.4840632E-008  0.4842715E+03  0.7818608E-02  0.1017968E+00
          2   -1    0    0  501    0  0.00000000000E+00  0.00000000000E+00  0.22050622943E+04  0.22050622943E+04  0.25500000000E-02 0. -1.
         -2   -1    0    0    0  501 -0.00000000000E+00 -0.00000000000E+00 -0.41926781312E+03  0.41926781313E+03  0.25500000000E-02 0.  1.
    8880022    1    1    2    0    0 -0.40712770366E+03 -0.21301245584E+03 -0.24068890181E+03  0.54078653266E+03  0.15294330000E+03 0.  0.
    8880022    1    1    2    0    0  0.40712770366E+03  0.21301245584E+03  0.20264833830E+04  0.20835435747E+04  0.15294330000E+03 0.  0.
<mgrwt>
<rscale>  0 0.48427154E+03</rscale>
<asrwt>0</asrwt>
<pdfrwt beam="1">  1        2 0.33924035E+00 0.48427154E+03</pdfrwt>
<pdfrwt beam="2">  1       -2 0.64502741E-01 0.48427154E+03</pdfrwt>
<totfact> 0.12467042E+01</totfact>
</mgrwt>
</event>
<event>
 4    1  0.4840632E-008  0.2131140E+03  0.7818608E-02  0.1139123E+00
          2   -1    0    0  501    0  0.00000000000E+00  0.00000000000E+00  0.17782075613E+04  0.17782075613E+04  0.25500000000E-02 0. -1.
         -2   -1    0    0    0  501 -0.00000000000E+00 -0.00000000000E+00 -0.94598138811E+02  0.94598138845E+02  0.25500000000E-02 0.  1.
    8880022    1    1    2    0    0 -0.85970138392E+01  0.14816212949E+03  0.41740118105E+02  0.21716310860E+03  0.15294330000E+03 0.  0.
    8880022    1    1    2    0    0  0.85970138392E+01 -0.14816212949E+03  0.16418693043E+04  0.16556425915E+04  0.15294330000E+03 0. -1.
<mgrwt>
<rscale>  0 0.21311400E+03</rscale>
<asrwt>0</asrwt>
<pdfrwt beam="1">  1        2 0.27357040E+00 0.21311400E+03</pdfrwt>
<pdfrwt beam="2">  1       -2 0.14553559E-01 0.21311400E+03</pdfrwt>
<totfact> 0.35554534E+02</totfact>
</mgrwt>
</event>
<event>
 4    1  0.4840632E-008  0.2928683E+03  0.7818608E-02  0.1088861E+00
          2   -1    0    0  501    0  0.00000000000E+00  0.00000000000E+00  0.40120187913E+04  0.40120187913E+04  0.25500000000E-02 0. -1.
         -2   -1    0    0    0  501 -0.00000000000E+00 -0.00000000000E+00 -0.66600807814E+02  0.66600807862E+02  0.25500000000E-02 0.  1.
    8880022    1    1    2    0    0 -0.17727773789E+03 -0.17593405208E+03  0.29228549332E+03  0.41376641919E+03  0.15294330000E+03 0.  0.
    8880022    1    1    2    0    0  0.17727773789E+03  0.17593405208E+03  0.36531324902E+04  0.36648531800E+04  0.15294330000E+03 0.  0.
<mgrwt>
<rscale>  0 0.29286830E+03</rscale>
<asrwt>0</asrwt>
<pdfrwt beam="1">  1        2 0.61723391E+00 0.29286830E+03</pdfrwt>
<pdfrwt beam="2">  1       -2 0.10246274E-01 0.29286830E+03</pdfrwt>
<totfact> 0.27720069E+01</totfact>
</mgrwt>
</event>
<event>
 4    1  0.4840632E-008  0.2961055E+03  0.7818608E-02  0.1087204E+00
          2   -1    0    0  501    0  0.00000000000E+00  0.00000000000E+00  0.98845767418E+03  0.98845767418E+03  0.25500000000E-02 0. -1.
         -2   -1    0    0    0  501 -0.00000000000E+00 -0.00000000000E+00 -0.32950606655E+03  0.32950606656E+03  0.25500000000E-02 0.  1.
    8880022    1    1    2    0    0  0.58693582098E+02  0.24666147095E+03 -0.23386783607E+03  0.37732298578E+03  0.15294330000E+03 0.  0.
    8880022    1    1    2    0    0 -0.58693582098E+02 -0.24666147095E+03  0.89281944370E+03  0.94064075497E+03  0.15294330000E+03 0.  0.
<mgrwt>
<rscale>  0 0.29610551E+03</rscale>
<asrwt>0</asrwt>
<pdfrwt beam="1">  1        2 0.15207041E+00 0.29610551E+03</pdfrwt>
<pdfrwt beam="2">  1       -2 0.50693241E-01 0.29610551E+03</pdfrwt>
<totfact> 0.10053403E+02</totfact>
</mgrwt>
</event>
<event>
 4    1  0.4840632E-008  0.4312514E+03  0.7818608E-02  0.1033465E+00
          2   -1    0    0  501    0  0.00000000000E+00  0.00000000000E+00  0.18163088885E+04  0.18163088885E+04  0.25500000000E-02 0. -1.
         -2   -1    0    0    0  501 -0.00000000000E+00 -0.00000000000E+00 -0.11360293388E+03  0.11360293391E+03  0.25500000000E-02 0.  1.
    8880022    1    1    2    0    0  0.39704997168E+03  0.70266693749E+02  0.11544695541E+04  0.12323869898E+04  0.15294330000E+03 0.  0.
    8880022    1    1    2    0    0 -0.39704997168E+03 -0.70266693749E+02  0.54823640055E+03  0.69752483265E+03  0.15294330000E+03 0.  0.
<mgrwt>
<rscale>  0 0.43125137E+03</rscale>
<asrwt>0</asrwt>
<pdfrwt beam="1">  1        2 0.27943211E+00 0.43125137E+03</pdfrwt>
<pdfrwt beam="2">  1       -2 0.17477376E-01 0.43125137E+03</pdfrwt>
<totfact> 0.24038139E+02</totfact>
</mgrwt>
</event>
<event>
 4    1  0.4840632E-008  0.1657665E+03  0.7818608E-02  0.1182336E+00
          2   -1    0    0  501    0  0.00000000000E+00  0.00000000000E+00  0.15425177595E+04  0.15425177595E+04  0.25500000000E-02 0. -1.
         -2   -1    0    0    0  501 -0.00000000000E+00 -0.00000000000E+00 -0.62257681333E+03  0.62257681333E+03  0.25500000000E-02 0.  1.
    8880022    1    1    2    0    0  0.54914951806E+02  0.32729373831E+02 -0.60697670575E+03  0.62920524329E+03  0.15294330000E+03 0.  0.
    8880022    1    1    2    0    0 -0.54914951806E+02 -0.32729373831E+02  0.15269176520E+04  0.15358893296E+04  0.15294330000E+03 0. -1.
<mgrwt>
<rscale>  0 0.16576645E+03</rscale>
<asrwt>0</asrwt>
<pdfrwt beam="1">  1        2 0.23731042E+00 0.16576645E+03</pdfrwt>
<pdfrwt beam="2">  1       -2 0.95781049E-01 0.16576645E+03</pdfrwt>
<totfact> 0.13172070E+01</totfact>
</mgrwt>
</event>
<event>
 4    1  0.4840632E-008  0.4421604E+03  0.7818608E-02  0.1030086E+00
         -2   -1    0    0    0  501 -0.00000000000E+00  0.00000000000E+00  0.34602844691E+03  0.34602844692E+03  0.25500000000E-02 0.  1.
          2   -1    0    0  501    0  0.00000000000E+00 -0.00000000000E+00 -0.78761882036E+03  0.78761882037E+03  0.25500000000E-02 0. -1.
    8880022    1    1    2    0    0  0.10847464463E+03  0.40043404125E+03  0.80555058569E+02  0.44943847232E+03  0.15294330000E+03 0.  1.
    8880022    1    1    2    0    0 -0.10847464463E+03 -0.40043404125E+03 -0.52214543202E+03  0.68420879497E+03  0.15294330000E+03 0.  0.
<mgrwt>
<rscale>  0 0.44216040E+03</rscale>
<asrwt>0</asrwt>
<pdfrwt beam="1">  1        2 0.12117213E+00 0.44216040E+03</pdfrwt>
<pdfrwt beam="2">  1       -2 0.53235146E-01 0.44216040E+03</pdfrwt>
<totfact> 0.12126655E+02</totfact>
</mgrwt>
</event>
<event>
 4    1  0.4840632E-008  0.3744082E+03  0.7818608E-02  0.1053020E+00
         -2   -1    0    0    0  501 -0.00000000000E+00  0.00000000000E+00  0.17211620677E+03  0.17211620679E+03  0.25500000000E-02 0.  1.
          2   -1    0    0  501    0  0.00000000000E+00 -0.00000000000E+00 -0.35618887942E+04  0.35618887942E+04  0.25500000000E-02 0. -1.
    8880022    1    1    2    0    0  0.28689794081E+03  0.18568643902E+03 -0.33346000878E+04  0.33555534984E+04  0.15294330000E+03 0.  0.
    8880022    1    1    2    0    0 -0.28689794081E+03 -0.18568643902E+03 -0.55172499632E+02  0.37845150259E+03  0.15294330000E+03 0.  0.
<mgrwt>
<rscale>  0 0.37440825E+03</rscale>
<asrwt>0</asrwt>
<pdfrwt beam="1">  1        2 0.54798284E+00 0.37440825E+03</pdfrwt>
<pdfrwt beam="2">  1       -2 0.26479419E-01 0.37440825E+03</pdfrwt>
<totfact> 0.11376570E+01</totfact>
</mgrwt>
</event>
<event>
 4    1  0.4840632E-008  0.2353723E+03  0.7818608E-02  0.1122915E+00
         -2   -1    0    0    0  501 -0.00000000000E+00  0.00000000000E+00  0.12836332250E+04  0.12836332250E+04  0.25500000000E-02 0.  1.
          2   -1    0    0  501    0  0.00000000000E+00 -0.00000000000E+00 -0.77835702198E+03  0.77835702198E+03  0.25500000000E-02 0. -1.
    8880022    1    1    2    0    0  0.12317205895E+03 -0.12975794722E+03 -0.74936576287E+03  0.78546112606E+03  0.15294330000E+03 0.  0.
    8880022    1    1    2    0    0 -0.12317205895E+03  0.12975794722E+03  0.12546419659E+04  0.12765291209E+04  0.15294330000E+03 0.  1.
<mgrwt>
<rscale>  0 0.23537233E+03</rscale>
<asrwt>0</asrwt>
<pdfrwt beam="1">  1        2 0.11974723E+00 0.23537233E+03</pdfrwt>
<pdfrwt beam="2">  1       -2 0.19748204E+00 0.23537233E+03</pdfrwt>
<totfact> 0.56620512E+00</totfact>
</mgrwt>
</event>
<event>
 4    1  0.4840632E-008  0.6352861E+03  0.7818608E-02  0.9834787E-01
          2   -1    0    0  501    0  0.00000000000E+00  0.00000000000E+00  0.26251897835E+03  0.26251897836E+03  0.25500000000E-02 0. -1.
         -2   -1    0    0    0  501 -0.00000000000E+00 -0.00000000000E+00 -0.18286280404E+04  0.18286280404E+04  0.25500000000E-02 0.  1.
    8880022    1    1    2    0    0 -0.61569065387E+03  0.33494063703E+02 -0.12003385386E+04  0.13580872924E+04  0.15294330000E+03 0.  0.
    8880022    1    1    2    0    0  0.61569065387E+03 -0.33494063703E+02 -0.36577052349E+03  0.73305972638E+03  0.15294330000E+03 0.  0.
<mgrwt>
<rscale>  0 0.63528615E+03</rscale>
<asrwt>0</asrwt>
<pdfrwt beam="1">  1        2 0.40387536E-01 0.63528615E+03</pdfrwt>
<pdfrwt beam="2">  1       -2 0.28132738E+00 0.63528615E+03</pdfrwt>
<totfact> 0.55320901E+00</totfact>
</mgrwt>
</event>
<event>
 4    1  0.4840632E-008  0.4050256E+03  0.7818608E-02  0.1042053E+00
          2   -1    0    0  501    0  0.00000000000E+00  0.00000000000E+00  0.59956401573E+03  0.59956401573E+03  0.25500000000E-02 0. -1.
         -2   -1    0    0    0  501 -0.00000000000E+00 -0.00000000000E+00 -0.16959809039E+04  0.16959809039E+04  0.25500000000E-02 0.  1.
    8880022    1    1    2    0    0 -0.32469024761E+03 -0.18769752707E+03  0.50291080607E+03  0.64572831008E+03  0.15294330000E+03 0.  0.
    8880022    1    1    2    0    0  0.32469024761E+03  0.18769752707E+03 -0.15993276942E+04  0.16498166095E+04  0.15294330000E+03 0.  1.
<mgrwt>
<rscale>  0 0.40502564E+03</rscale>
<asrwt>0</asrwt>
<pdfrwt beam="1">  1        2 0.92240619E-01 0.40502564E+03</pdfrwt>
<pdfrwt beam="2">  1       -2 0.26092014E+00 0.40502564E+03</pdfrwt>
<totfact> 0.30239640E+00</totfact>
</mgrwt>
</event>
<event>
 4    1  0.4840632E-008  0.5578459E+03  0.7818608E-02  0.9996941E-01
         -2   -1    0    0    0  501 -0.00000000000E+00  0.00000000000E+00  0.37137278989E+03  0.37137278990E+03  0.25500000000E-02 0.  1.
          2   -1    0    0  501    0  0.00000000000E+00 -0.00000000000E+00 -0.18548090400E+04  0.18548090400E+04  0.25500000000E-02 0. -1.
    8880022    1    1    2    0    0 -0.40129438769E+03 -0.35603818799E+03  0.82441429293E+02  0.56390479620E+03  0.15294330000E+03 0.  1.
    8880022    1    1    2    0    0  0.40129438769E+03  0.35603818799E+03 -0.15658776794E+04  0.16622770337E+04  0.15294330000E+03 0.  0.
<mgrwt>
<rscale>  0 0.55784588E+03</rscale>
<asrwt>0</asrwt>
<pdfrwt beam="1">  1        2 0.28535523E+00 0.55784588E+03</pdfrwt>
<pdfrwt beam="2">  1       -2 0.57134277E-01 0.55784588E+03</pdfrwt>
<totfact> 0.24505965E+01</totfact>
</mgrwt>
</event>
<event>
 4    1  0.4840632E-008  0.1369256E+04  0.7818608E-02  0.8976378E-01
          2   -1    0    0  501    0  0.00000000000E+00  0.00000000000E+00  0.26395305386E+04  0.26395305386E+04  0.25500000000E-02 0. -1.
         -2   -1    0    0    0  501 -0.00000000000E+00 -0.00000000000E+00 -0.94185180091E+03  0.94185180091E+03  0.25500000000E-02 0.  1.
    8880022    1    1    2    0    0  0.11271193424E+04 -0.76228047934E+03 -0.39037097352E+02  0.13698120635E+04  0.15294330000E+03 0.  0.
    8880022    1    1    2    0    0 -0.11271193424E+04  0.76228047934E+03  0.17367158350E+04  0.22115702760E+04  0.15294330000E+03 0.  0.
<mgrwt>
<rscale>  0 0.13692557E+04</rscale>
<asrwt>0</asrwt>
<pdfrwt beam="1">  1        2 0.40608161E+00 0.13692557E+04</pdfrwt>
<pdfrwt beam="2">  1       -2 0.14490028E+00 0.13692557E+04</pdfrwt>
<totfact> 0.90876792E-01</totfact>
</mgrwt>
</event>
<event>
 4    1  0.4840632E-008  0.1879287E+03  0.7818608E-02  0.1160343E+00
         -2   -1    0    0    0  501 -0.00000000000E+00  0.00000000000E+00  0.10814489447E+03  0.10814489450E+03  0.25500000000E-02 0.  1.
          2   -1    0    0  501    0  0.00000000000E+00 -0.00000000000E+00 -0.16635246954E+04  0.16635246954E+04  0.25500000000E-02 0. -1.
    8880022    1    1    2    0    0  0.16594051341E+02 -0.10793599020E+03  0.16448104772E+02  0.18864711417E+03  0.15294330000E+03 0.  0.
    8880022    1    1    2    0    0 -0.16594051341E+02  0.10793599020E+03 -0.15718279057E+04  0.15830224757E+04  0.15294330000E+03 0. -1.
<mgrwt>
<rscale>  0 0.18792869E+03</rscale>
<asrwt>0</asrwt>
<pdfrwt beam="1">  1        2 0.25592686E+00 0.18792869E+03</pdfrwt>
<pdfrwt beam="2">  1       -2 0.16637677E-01 0.18792869E+03</pdfrwt>
<totfact> 0.32887883E+02</totfact>
</mgrwt>
</event>
<event>
 4    1  0.4840632E-008  0.2465258E+03  0.7818608E-02  0.1115520E+00
          2   -1    0    0  501    0  0.00000000000E+00  0.00000000000E+00  0.86782824709E+03  0.86782824710E+03  0.25500000000E-02 0. -1.
         -2   -1    0    0    0  501 -0.00000000000E+00 -0.00000000000E+00 -0.12833271772E+03  0.12833271774E+03  0.25500000000E-02 0.  1.
    8880022    1    1    2    0    0 -0.15683884558E+03  0.11307040400E+03  0.70546297581E+03  0.74729713167E+03  0.15294330000E+03 0.  0.
    8880022    1    1    2    0    0  0.15683884558E+03 -0.11307040400E+03  0.34032553568E+02  0.24886383318E+03  0.15294330000E+03 0.  1.
<mgrwt>
<rscale>  0 0.24652585E+03</rscale>
<asrwt>0</asrwt>
<pdfrwt beam="1">  1        2 0.13351204E+00 0.24652585E+03</pdfrwt>
<pdfrwt beam="2">  1       -2 0.19743495E-01 0.24652585E+03</pdfrwt>
<totfact> 0.68902378E+02</totfact>
</mgrwt>
</event>
<event>
 4    1  0.4840632E-008  0.4792820E+03  0.7818608E-02  0.1019333E+00
          2   -1    0    0  501    0  0.00000000000E+00  0.00000000000E+00  0.11246783406E+04  0.11246783406E+04  0.25500000000E-02 0. -1.
         -2   -1    0    0    0  501 -0.00000000000E+00 -0.00000000000E+00 -0.21167504313E+03  0.21167504315E+03  0.25500000000E-02 0.  1.
    8880022    1    1    2    0    0 -0.42175264235E+03  0.16865443092E+03  0.58167662003E+03  0.75369685663E+03  0.15294330000E+03 0.  0.
    8880022    1    1    2    0    0  0.42175264235E+03 -0.16865443092E+03  0.33132667744E+03  0.58265652712E+03  0.15294330000E+03 0.  0.
<mgrwt>
<rscale>  0 0.47928203E+03</rscale>
<asrwt>0</asrwt>
<pdfrwt beam="1">  1        2 0.17302744E+00 0.47928203E+03</pdfrwt>
<pdfrwt beam="2">  1       -2 0.32565392E-01 0.47928203E+03</pdfrwt>
<totfact> 0.19099406E+02</totfact>
</mgrwt>
</event>
<event>
 4    1  0.4840632E-008  0.4127553E+03  0.7818608E-02  0.1039450E+00
         -2   -1    0    0    0  501 -0.00000000000E+00  0.00000000000E+00  0.58830001738E+03  0.58830001739E+03  0.25500000000E-02 0.  1.
          2   -1    0    0  501    0  0.00000000000E+00 -0.00000000000E+00 -0.13050315435E+04  0.13050315435E+04  0.25500000000E-02 0. -1.
    8880022    1    1    2    0    0 -0.14441747824E+03 -0.35513225341E+03 -0.11934171664E+04  0.12627792806E+04  0.15294330000E+03 0.  0.
    8880022    1    1    2    0    0  0.14441747824E+03  0.35513225341E+03  0.47668564032E+03  0.63055228026E+03  0.15294330000E+03 0.  0.
<mgrwt>
<rscale>  0 0.41275535E+03</rscale>
<asrwt>0</asrwt>
<pdfrwt beam="1">  1        2 0.20077408E+00 0.41275535E+03</pdfrwt>
<pdfrwt beam="2">  1       -2 0.90507695E-01 0.41275535E+03</pdfrwt>
<totfact> 0.18443344E+01</totfact>
</mgrwt>
</event>
<event>
 4    1  0.4840632E-008  0.1765180E+04  0.7818608E-02  0.8725038E-01
          2   -1    0    0  501    0  0.00000000000E+00  0.00000000000E+00  0.24950728914E+04  0.24950728914E+04  0.25500000000E-02 0. -1.
         -2   -1    0    0    0  501 -0.00000000000E+00 -0.00000000000E+00 -0.13555588157E+04  0.13555588157E+04  0.25500000000E-02 0.  1.
    8880022    1    1    2    0    0  0.15327036826E+04  0.86214247408E+03  0.11100540569E+04  0.20852054782E+04  0.15294330000E+03 0.  0.
    8880022    1    1    2    0    0 -0.15327036826E+04 -0.86214247408E+03  0.29460018822E+02  0.17654262289E+04  0.15294330000E+03 0.  0.
<mgrwt>
<rscale>  0 0.17651804E+04</rscale>
<asrwt>0</asrwt>
<pdfrwt beam="1">  1        2 0.38385737E+00 0.17651804E+04</pdfrwt>
<pdfrwt beam="2">  1       -2 0.20854751E+00 0.17651804E+04</pdfrwt>
<totfact> 0.37458530E-01</totfact>
</mgrwt>
</event>
<event>
 4    1  0.4840632E-008  0.3489530E+03  0.7818608E-02  0.1063046E+00
         -2   -1    0    0    0  501 -0.00000000000E+00  0.00000000000E+00  0.24535866794E+03  0.24535866796E+03  0.25500000000E-02 0.  1.
          2   -1    0    0  501    0  0.00000000000E+00 -0.00000000000E+00 -0.89242720425E+03  0.89242720425E+03  0.25500000000E-02 0. -1.
    8880022    1    1    2    0    0  0.24422213680E+03  0.19680476230E+03 -0.70256010882E+03  0.78444816660E+03  0.15294330000E+03 0.  1.
    8880022    1    1    2    0    0 -0.24422213680E+03 -0.19680476230E+03  0.55491572513E+02  0.35333770561E+03  0.15294330000E+03 0.  1.
<mgrwt>
<rscale>  0 0.34895303E+03</rscale>
<asrwt>0</asrwt>
<pdfrwt beam="1">  1        2 0.13729649E+00 0.34895303E+03</pdfrwt>
<pdfrwt beam="2">  1       -2 0.37747488E-01 0.34895303E+03</pdfrwt>
<totfact> 0.20461633E+02</totfact>
</mgrwt>
</event>
<event>
 4    1  0.4840632E-008  0.2104338E+03  0.7818608E-02  0.1141223E+00
         -2   -1    0    0    0  501 -0.00000000000E+00  0.00000000000E+00  0.21779404995E+03  0.21779404996E+03  0.25500000000E-02 0.  1.
          2   -1    0    0  501    0  0.00000000000E+00 -0.00000000000E+00 -0.11632625325E+04  0.11632625326E+04  0.25500000000E-02 0. -1.
    8880022    1    1    2    0    0  0.28523080640E+02  0.14169393404E+03 -0.11000189493E+04  0.11199661061E+04  0.15294330000E+03 0.  0.
    8880022    1    1    2    0    0 -0.28523080640E+02 -0.14169393404E+03  0.15455046671E+03  0.26109047636E+03  0.15294330000E+03 0.  0.
<mgrwt>
<rscale>  0 0.21043381E+03</rscale>
<asrwt>0</asrwt>
<pdfrwt beam="1">  1        2 0.17896346E+00 0.21043381E+03</pdfrwt>
<pdfrwt beam="2">  1       -2 0.33506778E-01 0.21043381E+03</pdfrwt>
<totfact> 0.17885593E+02</totfact>
</mgrwt>
</event>
<event>
 4    1  0.4840632E-008  0.4625611E+03  0.7818608E-02  0.1024041E+00
          2   -1    0    0  501    0  0.00000000000E+00  0.00000000000E+00  0.21023460189E+03  0.21023460190E+03  0.25500000000E-02 0. -1.
         -2   -1    0    0    0  501 -0.00000000000E+00 -0.00000000000E+00 -0.12097264223E+04  0.12097264223E+04  0.25500000000E-02 0.  1.
    8880022    1    1    2    0    0 -0.37420689540E+03  0.22481180883E+03 -0.78258890266E+03  0.90906996075E+03  0.15294330000E+03 0.  0.
    8880022    1    1    2    0    0  0.37420689540E+03 -0.22481180883E+03 -0.21690291773E+03  0.51089106343E+03  0.15294330000E+03 0.  0.
<mgrwt>
<rscale>  0 0.46256113E+03</rscale>
<asrwt>0</asrwt>
<pdfrwt beam="1">  1        2 0.32343786E-01 0.46256113E+03</pdfrwt>
<pdfrwt beam="2">  1       -2 0.18611175E+00 0.46256113E+03</pdfrwt>
<totfact> 0.28017084E+01</totfact>
</mgrwt>
</event>
<event>
 4    1  0.4840632E-008  0.2399520E+03  0.7818608E-02  0.1119825E+00
         -2   -1    0    0    0  501 -0.00000000000E+00  0.00000000000E+00  0.10600241421E+03  0.10600241424E+03  0.25500000000E-02 0.  1.
          2   -1    0    0  501    0  0.00000000000E+00 -0.00000000000E+00 -0.22327821428E+04  0.22327821428E+04  0.25500000000E-02 0. -1.
    8880022    1    1    2    0    0 -0.17995340333E+03 -0.42451165818E+02 -0.20806475541E+04  0.20944381649E+04  0.15294330000E+03 0. -1.
    8880022    1    1    2    0    0  0.17995340333E+03  0.42451165818E+02 -0.46132174479E+02  0.24434639221E+03  0.15294330000E+03 0.  0.
<mgrwt>
<rscale>  0 0.23995204E+03</rscale>
<asrwt>0</asrwt>
<pdfrwt beam="1">  1        2 0.34350491E+00 0.23995204E+03</pdfrwt>
<pdfrwt beam="2">  1       -2 0.16308065E-01 0.23995204E+03</pdfrwt>
<totfact> 0.16887168E+02</totfact>
</mgrwt>
</event>
<event>
 4    1  0.4840632E-008  0.3085880E+03  0.7818608E-02  0.1081025E+00
          2   -1    0    0  501    0  0.00000000000E+00  0.00000000000E+00  0.18425531580E+04  0.18425531580E+04  0.25500000000E-02 0. -1.
         -2   -1    0    0    0  501 -0.00000000000E+00 -0.00000000000E+00 -0.14997874994E+03  0.14997874996E+03  0.25500000000E-02 0.  1.
    8880022    1    1    2    0    0  0.15977284744E+03  0.21519189500E+03  0.16528353947E+04  0.16813956731E+04  0.15294330000E+03 0.  0.
    8880022    1    1    2    0    0 -0.15977284744E+03 -0.21519189500E+03  0.39739013350E+02  0.31113623487E+03  0.15294330000E+03 0.  0.
<mgrwt>
<rscale>  0 0.30858802E+03</rscale>
<asrwt>0</asrwt>
<pdfrwt beam="1">  1        2 0.28346970E+00 0.30858802E+03</pdfrwt>
<pdfrwt beam="2">  1       -2 0.23073655E-01 0.30858802E+03</pdfrwt>
<totfact> 0.14715597E+02</totfact>
</mgrwt>
</event>
<event>
 4    1  0.4840632E-008  0.7919673E+03  0.7818608E-02  0.9571717E-01
          2   -1    0    0  501    0  0.00000000000E+00  0.00000000000E+00  0.93620067175E+03  0.93620067176E+03  0.25500000000E-02 0. -1.
         -2   -1    0    0    0  501 -0.00000000000E+00 -0.00000000000E+00 -0.75806092425E+03  0.75806092426E+03  0.25500000000E-02 0.  1.
    8880022    1    1    2    0    0  0.65760925338E+03  0.41396940662E+03  0.37787250867E+03  0.87749637354E+03  0.15294330000E+03 0.  0.
    8880022    1    1    2    0    0 -0.65760925338E+03 -0.41396940662E+03 -0.19973276116E+03  0.81676522248E+03  0.15294330000E+03 0.  0.
<mgrwt>
<rscale>  0 0.79196733E+03</rscale>
<asrwt>0</asrwt>
<pdfrwt beam="1">  1        2 0.14403087E+00 0.79196733E+03</pdfrwt>
<pdfrwt beam="2">  1       -2 0.11662476E+00 0.79196733E+03</pdfrwt>
<totfact> 0.15981238E+01</totfact>
</mgrwt>
</event>
<event>
 4    1  0.4840632E-008  0.3374600E+03  0.7818608E-02  0.1067883E+00
          2   -1    0    0  501    0  0.00000000000E+00  0.00000000000E+00  0.16778912499E+04  0.16778912499E+04  0.25500000000E-02 0. -1.
         -2   -1    0    0    0  501 -0.00000000000E+00 -0.00000000000E+00 -0.13133226465E+03  0.13133226468E+03  0.25500000000E-02 0.  1.
    8880022    1    1    2    0    0  0.29811412272E+03  0.40193802349E+02  0.14021087988E+04  0.14421471175E+04  0.15294330000E+03 0.  0.
    8880022    1    1    2    0    0 -0.29811412272E+03 -0.40193802349E+02  0.14445018650E+03  0.36707639710E+03  0.15294330000E+03 0.  0.
<mgrwt>
<rscale>  0 0.33745996E+03</rscale>
<asrwt>0</asrwt>
<pdfrwt beam="1">  1        2 0.25813712E+00 0.33745996E+03</pdfrwt>
<pdfrwt beam="2">  1       -2 0.20204964E-01 0.33745996E+03</pdfrwt>
<totfact> 0.22540071E+02</totfact>
</mgrwt>
</event>
<event>
 4    1  0.4840632E-008  0.2338740E+03  0.7818608E-02  0.1123942E+00
          2   -1    0    0  501    0  0.00000000000E+00  0.00000000000E+00  0.16090378735E+04  0.16090378735E+04  0.25500000000E-02 0. -1.
         -2   -1    0    0    0  501 -0.00000000000E+00 -0.00000000000E+00 -0.90322785915E+02  0.90322785951E+02  0.25500000000E-02 0.  1.
    8880022    1    1    2    0    0 -0.12724413101E+03 -0.12294025232E+03  0.14303591337E+04  0.14493530553E+04  0.15294330000E+03 0.  0.
    8880022    1    1    2    0    0  0.12724413101E+03  0.12294025232E+03  0.88355953826E+02  0.25000760410E+03  0.15294330000E+03 0.  0.
<mgrwt>
<rscale>  0 0.23387396E+03</rscale>
<asrwt>0</asrwt>
<pdfrwt beam="1">  1        2 0.24754428E+00 0.23387396E+03</pdfrwt>
<pdfrwt beam="2">  1       -2 0.13895814E-01 0.23387396E+03</pdfrwt>
<totfact> 0.46847232E+02</totfact>
</mgrwt>
</event>
<event>
 4    1  0.4840632E-008  0.4569146E+03  0.7818608E-02  0.1025680E+00
         -2   -1    0    0    0  501 -0.00000000000E+00  0.00000000000E+00  0.88330682636E+03  0.88330682636E+03  0.25500000000E-02 0.  1.
          2   -1    0    0  501    0  0.00000000000E+00 -0.00000000000E+00 -0.11641267448E+04  0.11641267448E+04  0.25500000000E-02 0. -1.
    8880022    1    1    2    0    0  0.23609991954E+03 -0.36005023550E+03  0.77349504124E+03  0.89836828524E+03  0.15294330000E+03 0.  0.
    8880022    1    1    2    0    0 -0.23609991954E+03  0.36005023550E+03 -0.10543149597E+04  0.11490652859E+04  0.15294330000E+03 0.  0.
<mgrwt>
<rscale>  0 0.45691465E+03</rscale>
<asrwt>0</asrwt>
<pdfrwt beam="1">  1        2 0.17909642E+00 0.45691465E+03</pdfrwt>
<pdfrwt beam="2">  1       -2 0.13589336E+00 0.45691465E+03</pdfrwt>
<totfact> 0.82688049E+00</totfact>
</mgrwt>
</event>
<event>
 4    1  0.4840632E-008  0.5336856E+03  0.7818608E-02  0.1005342E+00
          2   -1    0    0  501    0  0.00000000000E+00  0.00000000000E+00  0.35078596246E+03  0.35078596247E+03  0.25500000000E-02 0. -1.
         -2   -1    0    0    0  501 -0.00000000000E+00 -0.00000000000E+00 -0.13806732819E+04  0.13806732819E+04  0.25500000000E-02 0.  1.
    8880022    1    1    2    0    0 -0.21579235768E+03 -0.46353240825E+03 -0.10705762721E+04  0.11962248294E+04  0.15294330000E+03 0.  0.
    8880022    1    1    2    0    0  0.21579235768E+03  0.46353240825E+03  0.40688952598E+02  0.53523441501E+03  0.15294330000E+03 0.  0.
<mgrwt>
<rscale>  0 0.53368557E+03</rscale>
<asrwt>0</asrwt>
<pdfrwt beam="1">  1        2 0.53967072E-01 0.53368557E+03</pdfrwt>
<pdfrwt beam="2">  1       -2 0.21241127E+00 0.53368557E+03</pdfrwt>
<totfact> 0.10663909E+01</totfact>
</mgrwt>
</event>
<event>
 4    1  0.4840632E-008  0.5095970E+03  0.7818608E-02  0.1011304E+00
         -2   -1    0    0    0  501 -0.00000000000E+00  0.00000000000E+00  0.75500580676E+03  0.75500580676E+03  0.25500000000E-02 0.  1.
          2   -1    0    0  501    0  0.00000000000E+00 -0.00000000000E+00 -0.32358523672E+04  0.32358523672E+04  0.25500000000E-02 0. -1.
    8880022    1    1    2    0    0  0.22535268656E+03  0.43071292743E+03  0.64597450798E+03  0.82278318965E+03  0.15294330000E+03 0.  0.
    8880022    1    1    2    0    0 -0.22535268656E+03 -0.43071292743E+03 -0.31268210685E+04  0.31680749843E+04  0.15294330000E+03 0.  0.
<mgrwt>
<rscale>  0 0.50959701E+03</rscale>
<asrwt>0</asrwt>
<pdfrwt beam="1">  1        2 0.49782343E+00 0.50959701E+03</pdfrwt>
<pdfrwt beam="2">  1       -2 0.11615474E+00 0.50959701E+03</pdfrwt>
<totfact> 0.81652365E-01</totfact>
</mgrwt>
</event>
<event>
 4    1  0.4840632E-008  0.3846266E+03  0.7818608E-02  0.1049237E+00
         -2   -1    0    0    0  501 -0.00000000000E+00  0.00000000000E+00  0.71599068137E+03  0.71599068138E+03  0.25500000000E-02 0.  1.
          2   -1    0    0  501    0  0.00000000000E+00 -0.00000000000E+00 -0.86810446852E+03  0.86810446853E+03  0.25500000000E-02 0. -1.
    8880022    1    1    2    0    0 -0.34219315861E+03  0.86312307777E+02  0.61533656747E+03  0.72565605941E+03  0.15294330000E+03 0.  0.
    8880022    1    1    2    0    0  0.34219315861E+03 -0.86312307777E+02 -0.76745035462E+03  0.85843909050E+03  0.15294330000E+03 0.  0.
<mgrwt>
<rscale>  0 0.38462661E+03</rscale>
<asrwt>0</asrwt>
<pdfrwt beam="1">  1        2 0.13355453E+00 0.38462661E+03</pdfrwt>
<pdfrwt beam="2">  1       -2 0.11015241E+00 0.38462661E+03</pdfrwt>
<totfact> 0.21543859E+01</totfact>
</mgrwt>
</event>
<event>
 4    1  0.4840632E-008  0.3946940E+03  0.7818608E-02  0.1045633E+00
          2   -1    0    0  501    0  0.00000000000E+00  0.00000000000E+00  0.63012516795E+03  0.63012516795E+03  0.25500000000E-02 0. -1.
         -2   -1    0    0    0  501 -0.00000000000E+00 -0.00000000000E+00 -0.14989095164E+04  0.14989095164E+04  0.25500000000E-02 0.  1.
    8880022    1    1    2    0    0  0.33652477846E+03 -0.13835734417E+03  0.53838259187E+03  0.66756209407E+03  0.15294330000E+03 0.  0.
    8880022    1    1    2    0    0 -0.33652477846E+03  0.13835734417E+03 -0.14071669403E+04  0.14614725903E+04  0.15294330000E+03 0.  1.
<mgrwt>
<rscale>  0 0.39469398E+03</rscale>
<asrwt>0</asrwt>
<pdfrwt beam="1">  1        2 0.96942334E-01 0.39469398E+03</pdfrwt>
<pdfrwt beam="2">  1       -2 0.23060146E+00 0.39469398E+03</pdfrwt>
<totfact> 0.43397561E+00</totfact>
</mgrwt>
</event>
<event>
 4    1  0.4840632E-008  0.5393447E+03  0.7818608E-02  0.1003991E+00
          2   -1    0    0  501    0  0.00000000000E+00  0.00000000000E+00  0.30842623927E+04  0.30842623927E+04  0.25500000000E-02 0. -1.
         -2   -1    0    0    0  501 -0.00000000000E+00 -0.00000000000E+00 -0.11232895357E+03  0.11232895360E+03  0.25500000000E-02 0.  1.
    8880022    1    1    2    0    0 -0.49255684674E+03  0.15776192565E+03  0.21260165145E+04  0.21933624747E+04  0.15294330000E+03 0.  0.
    8880022    1    1    2    0    0  0.49255684674E+03 -0.15776192565E+03  0.84591692467E+03  0.10032288716E+04  0.15294330000E+03 0.  0.
<mgrwt>
<rscale>  0 0.53934472E+03</rscale>
<asrwt>0</asrwt>
<pdfrwt beam="1">  1        2 0.47450192E+00 0.53934472E+03</pdfrwt>
<pdfrwt beam="2">  1       -2 0.17281377E-01 0.53934472E+03</pdfrwt>
<totfact> 0.46556651E+01</totfact>
</mgrwt>
</event>
<event>
 4    1  0.4840632E-008  0.7981305E+03  0.7818608E-02  0.9562727E-01
          2   -1    0    0  501    0  0.00000000000E+00  0.00000000000E+00  0.14961495135E+04  0.14961495135E+04  0.25500000000E-02 0. -1.
         -2   -1    0    0    0  501 -0.00000000000E+00 -0.00000000000E+00 -0.78536467957E+03  0.78536467957E+03  0.25500000000E-02 0.  1.
    8880022    1    1    2    0    0  0.78029720383E+03 -0.68970817872E+02  0.11273002123E+04  0.13812378947E+04  0.15294330000E+03 0.  0.
    8880022    1    1    2    0    0 -0.78029720383E+03  0.68970817872E+02 -0.41651537836E+03  0.90027629840E+03  0.15294330000E+03 0.  0.
<mgrwt>
<rscale>  0 0.79813054E+03</rscale>
<asrwt>0</asrwt>
<pdfrwt beam="1">  1        2 0.23017684E+00 0.79813054E+03</pdfrwt>
<pdfrwt beam="2">  1       -2 0.12082534E+00 0.79813054E+03</pdfrwt>
<totfact> 0.67809596E+00</totfact>
</mgrwt>
</event>
<event>
 4    1  0.4840632E-008  0.7380432E+03  0.7818608E-02  0.9654298E-01
         -2   -1    0    0    0  501 -0.00000000000E+00  0.00000000000E+00  0.21549779481E+03  0.21549779482E+03  0.25500000000E-02 0.  1.
          2   -1    0    0  501    0  0.00000000000E+00 -0.00000000000E+00 -0.32118452802E+04  0.32118452802E+04  0.25500000000E-02 0. -1.
    8880022    1    1    2    0    0  0.51076288650E+03  0.51033069325E+03 -0.70725248033E+03  0.10222102849E+04  0.15294330000E+03 0.  0.
    8880022    1    1    2    0    0 -0.51076288650E+03 -0.51033069325E+03 -0.22890950050E+04  0.24051327900E+04  0.15294330000E+03 0.  0.
<mgrwt>
<rscale>  0 0.73804322E+03</rscale>
<asrwt>0</asrwt>
<pdfrwt beam="1">  1        2 0.49413001E+00 0.73804322E+03</pdfrwt>
<pdfrwt beam="2">  1       -2 0.33153509E-01 0.73804322E+03</pdfrwt>
<totfact> 0.11591820E+01</totfact>
</mgrwt>
</event>
<event>
 4    1  0.4840632E-008  0.5348531E+03  0.7818608E-02  0.1005062E+00
         -2   -1    0    0    0  501 -0.00000000000E+00  0.00000000000E+00  0.26774372721E+03  0.26774372722E+03  0.25500000000E-02 0.  1.
          2   -1    0    0  501    0  0.00000000000E+00 -0.00000000000E+00 -0.23909468027E+04  0.23909468027E+04  0.25500000000E-02 0. -1.
    8880022    1    1    2    0    0  0.51235564762E+03 -0.12955333170E+02 -0.20502729587E+04  0.21188881538E+04  0.15294330000E+03 0.  0.
    8880022    1    1    2    0    0 -0.51235564762E+03  0.12955333170E+02 -0.72930116814E+02  0.53980237611E+03  0.15294330000E+03 0.  0.
<mgrwt>
<rscale>  0 0.53485307E+03</rscale>
<asrwt>0</asrwt>
<pdfrwt beam="1">  1        2 0.36783796E+00 0.53485307E+03</pdfrwt>
<pdfrwt beam="2">  1       -2 0.41191344E-01 0.53485307E+03</pdfrwt>
<totfact> 0.24303345E+01</totfact>
</mgrwt>
</event>
<event>
 4    1  0.4840632E-008  0.4477330E+03  0.7818608E-02  0.1028400E+00
         -2   -1    0    0    0  501 -0.00000000000E+00  0.00000000000E+00  0.33430907224E+03  0.33430907225E+03  0.25500000000E-02 0.  1.
          2   -1    0    0  501    0  0.00000000000E+00 -0.00000000000E+00 -0.99186411762E+03  0.99186411762E+03  0.25500000000E-02 0. -1.
    8880022    1    1    2    0    0 -0.91928276194E+02 -0.41063653558E+03  0.88199138673E+02  0.45633749943E+03  0.15294330000E+03 0.  0.
    8880022    1    1    2    0    0  0.91928276194E+02  0.41063653558E+03 -0.74575418405E+03  0.86983569044E+03  0.15294330000E+03 0.  0.
<mgrwt>
<rscale>  0 0.44773298E+03</rscale>
<asrwt>0</asrwt>
<pdfrwt beam="1">  1        2 0.15259448E+00 0.44773298E+03</pdfrwt>
<pdfrwt beam="2">  1       -2 0.51432165E-01 0.44773298E+03</pdfrwt>
<totfact> 0.94996904E+01</totfact>
</mgrwt>
</event>
<event>
 4    1  0.4840632E-008  0.3456110E+03  0.7818608E-02  0.1064431E+00
         -2   -1    0    0    0  501 -0.00000000000E+00  0.00000000000E+00  0.22705086943E+03  0.22705086945E+03  0.25500000000E-02 0.  1.
          2   -1    0    0  501    0  0.00000000000E+00 -0.00000000000E+00 -0.13638683996E+04  0.13638683996E+04  0.25500000000E-02 0. -1.
    8880022    1    1    2    0    0  0.27134983992E+03 -0.14974838715E+03 -0.11918550349E+04  0.12409534206E+04  0.15294330000E+03 0.  0.
    8880022    1    1    2    0    0 -0.27134983992E+03  0.14974838715E+03  0.55037504727E+02  0.34996584836E+03  0.15294330000E+03 0.  0.
<mgrwt>
<rscale>  0 0.34561101E+03</rscale>
<asrwt>0</asrwt>
<pdfrwt beam="1">  1        2 0.20982590E+00 0.34561101E+03</pdfrwt>
<pdfrwt beam="2">  1       -2 0.34930904E-01 0.34561101E+03</pdfrwt>
<totfact> 0.12434030E+02</totfact>
</mgrwt>
</event>
<event>
 4    1  0.4840632E-008  0.5358094E+03  0.7818608E-02  0.1004833E+00
         -2   -1    0    0    0  501 -0.00000000000E+00  0.00000000000E+00  0.67351562596E+03  0.67351562596E+03  0.25500000000E-02 0.  1.
          2   -1    0    0  501    0  0.00000000000E+00 -0.00000000000E+00 -0.11957353246E+04  0.11957353246E+04  0.25500000000E-02 0. -1.
    8880022    1    1    2    0    0 -0.44011375094E+03 -0.26457493904E+03  0.48864260617E+03  0.72516429981E+03  0.15294330000E+03 0.  0.
    8880022    1    1    2    0    0  0.44011375094E+03  0.26457493904E+03 -0.10108623048E+04  0.11440866508E+04  0.15294330000E+03 0.  0.
<mgrwt>
<rscale>  0 0.53580936E+03</rscale>
<asrwt>0</asrwt>
<pdfrwt beam="1">  1        2 0.18395928E+00 0.53580936E+03</pdfrwt>
<pdfrwt beam="2">  1       -2 0.10361779E+00 0.53580936E+03</pdfrwt>
<totfact> 0.15183824E+01</totfact>
</mgrwt>
</event>
<event>
 4    1  0.4840632E-008  0.7699485E+03  0.7818608E-02  0.9604564E-01
          2   -1    0    0  501    0  0.00000000000E+00  0.00000000000E+00  0.37436493370E+04  0.37436493370E+04  0.25500000000E-02 0. -1.
         -2   -1    0    0    0  501 -0.00000000000E+00 -0.00000000000E+00 -0.16236629430E+03  0.16236629432E+03  0.25500000000E-02 0.  1.
    8880022    1    1    2    0    0  0.65367183437E+03  0.37701753468E+03  0.14836202854E+04  0.16715112602E+04  0.15294330000E+03 0.  0.
    8880022    1    1    2    0    0 -0.65367183437E+03 -0.37701753468E+03  0.20976627573E+04  0.22345043712E+04  0.15294330000E+03 0.  0.
<mgrwt>
<rscale>  0 0.76994853E+03</rscale>
<asrwt>0</asrwt>
<pdfrwt beam="1">  1        2 0.57594601E+00 0.76994853E+03</pdfrwt>
<pdfrwt beam="2">  1       -2 0.24979432E-01 0.76994853E+03</pdfrwt>
<totfact> 0.84450001E+00</totfact>
</mgrwt>
</event>
<event>
 4    1  0.4840632E-008  0.6081631E+03  0.7818608E-02  0.9888614E-01
         -2   -1    0    0    0  501 -0.00000000000E+00  0.00000000000E+00  0.69908119902E+03  0.69908119903E+03  0.25500000000E-02 0.  1.
          2   -1    0    0  501    0  0.00000000000E+00 -0.00000000000E+00 -0.68074564281E+03  0.68074564282E+03  0.25500000000E-02 0. -1.
    8880022    1    1    2    0    0 -0.37964690730E+03  0.44982096110E+03 -0.31648983756E+03  0.68558598408E+03  0.15294330000E+03 0.  0.
    8880022    1    1    2    0    0  0.37964690730E+03 -0.44982096110E+03  0.33482539377E+03  0.69424085777E+03  0.15294330000E+03 0.  0.
<mgrwt>
<rscale>  0 0.60816307E+03</rscale>
<asrwt>0</asrwt>
<pdfrwt beam="1">  1        2 0.10473010E+00 0.60816307E+03</pdfrwt>
<pdfrwt beam="2">  1       -2 0.10755095E+00 0.60816307E+03</pdfrwt>
<totfact> 0.30236487E+01</totfact>
</mgrwt>
</event>
<event>
 4    1  0.4840632E-008  0.3118034E+03  0.7818608E-02  0.1079485E+00
         -2   -1    0    0    0  501 -0.00000000000E+00  0.00000000000E+00  0.28463803569E+03  0.28463803571E+03  0.25500000000E-02 0.  1.
          2   -1    0    0  501    0  0.00000000000E+00 -0.00000000000E+00 -0.67164852010E+03  0.67164852011E+03  0.25500000000E-02 0. -1.
    8880022    1    1    2    0    0  0.25125537439E+03  0.10344300827E+03  0.14169266502E+03  0.34248822382E+03  0.15294330000E+03 0.  0.
    8880022    1    1    2    0    0 -0.25125537439E+03 -0.10344300827E+03 -0.52870314943E+03  0.61379833199E+03  0.15294330000E+03 0.  0.
<mgrwt>
<rscale>  0 0.31180342E+03</rscale>
<asrwt>0</asrwt>
<pdfrwt beam="1">  1        2 0.10333054E+00 0.31180342E+03</pdfrwt>
<pdfrwt beam="2">  1       -2 0.43790467E-01 0.31180342E+03</pdfrwt>
<totfact> 0.22158021E+02</totfact>
</mgrwt>
</event>
<event>
 4    1  0.4840632E-008  0.7466196E+03  0.7818608E-02  0.9640669E-01
         -2   -1    0    0    0  501 -0.00000000000E+00  0.00000000000E+00  0.12724761036E+04  0.12724761036E+04  0.25500000000E-02 0.  1.
          2   -1    0    0  501    0  0.00000000000E+00 -0.00000000000E+00 -0.10097006468E+04  0.10097006468E+04  0.25500000000E-02 0. -1.
    8880022    1    1    2    0    0 -0.63310504621E+03  0.36500297690E+03  0.98996336585E+03  0.12399468906E+04  0.15294330000E+03 0.  0.
    8880022    1    1    2    0    0  0.63310504621E+03 -0.36500297690E+03 -0.72718790906E+03  0.10422298599E+04  0.15294330000E+03 0.  0.
<mgrwt>
<rscale>  0 0.74661960E+03</rscale>
<asrwt>0</asrwt>
<pdfrwt beam="1">  1        2 0.15533856E+00 0.74661960E+03</pdfrwt>
<pdfrwt beam="2">  1       -2 0.19576555E+00 0.74661960E+03</pdfrwt>
<totfact> 0.36071184E+00</totfact>
</mgrwt>
</event>
<event>
 4    1  0.4840632E-008  0.2086279E+03  0.7818608E-02  0.1142657E+00
         -2   -1    0    0    0  501 -0.00000000000E+00  0.00000000000E+00  0.68781727486E+02  0.68781727533E+02  0.25500000000E-02 0.  1.
          2   -1    0    0  501    0  0.00000000000E+00 -0.00000000000E+00 -0.22001491042E+04  0.22001491042E+04  0.25500000000E-02 0. -1.
    8880022    1    1    2    0    0 -0.11443363370E+03 -0.83898104675E+02 -0.20232018449E+04  0.20339300152E+04  0.15294330000E+03 0.  0.
    8880022    1    1    2    0    0  0.11443363370E+03  0.83898104675E+02 -0.10816553183E+03  0.23500081655E+03  0.15294330000E+03 0.  1.
<mgrwt>
<rscale>  0 0.20862790E+03</rscale>
<asrwt>0</asrwt>
<pdfrwt beam="1">  1        2 0.33848442E+00 0.20862790E+03</pdfrwt>
<pdfrwt beam="2">  1       -2 0.10581806E-01 0.20862790E+03</pdfrwt>
<totfact> 0.35906582E+02</totfact>
</mgrwt>
</event>
<event>
 4    1  0.4840632E-008  0.3334623E+03  0.7818608E-02  0.1069615E+00
         -2   -1    0    0    0  501 -0.00000000000E+00  0.00000000000E+00  0.13105937368E+04  0.13105937368E+04  0.25500000000E-02 0.  1.
          2   -1    0    0  501    0  0.00000000000E+00 -0.00000000000E+00 -0.22178410063E+03  0.22178410064E+03  0.25500000000E-02 0. -1.
    8880022    1    1    2    0    0  0.25807382083E+03 -0.14561368666E+03  0.11464577501E+04  0.11939692076E+04  0.15294330000E+03 0.  0.
    8880022    1    1    2    0    0 -0.25807382083E+03  0.14561368666E+03 -0.57648113947E+02  0.33840862991E+03  0.15294330000E+03 0.  0.
<mgrwt>
<rscale>  0 0.33346229E+03</rscale>
<asrwt>0</asrwt>
<pdfrwt beam="1">  1        2 0.34120632E-01 0.33346229E+03</pdfrwt>
<pdfrwt beam="2">  1       -2 0.20162980E+00 0.33346229E+03</pdfrwt>
<totfact> 0.21312418E+01</totfact>
</mgrwt>
</event>
<event>
 4    1  0.4840632E-008  0.5338269E+03  0.7818608E-02  0.1005308E+00
         -2   -1    0    0    0  501 -0.00000000000E+00  0.00000000000E+00  0.13960096830E+03  0.13960096832E+03  0.25500000000E-02 0.  1.
          2   -1    0    0  501    0  0.00000000000E+00 -0.00000000000E+00 -0.23490146866E+04  0.23490146866E+04  0.25500000000E-02 0. -1.
    8880022    1    1    2    0    0 -0.93673211105E+02 -0.50279700261E+03 -0.65436697469E+03  0.84449232495E+03  0.15294330000E+03 0.  0.
    8880022    1    1    2    0    0  0.93673211105E+02  0.50279700261E+03 -0.15550467436E+04  0.16441233299E+04  0.15294330000E+03 0.  0.
<mgrwt>
<rscale>  0 0.53382689E+03</rscale>
<asrwt>0</asrwt>
<pdfrwt beam="1">  1        2 0.36138685E+00 0.53382689E+03</pdfrwt>
<pdfrwt beam="2">  1       -2 0.21477074E-01 0.53382689E+03</pdfrwt>
<totfact> 0.85340850E+01</totfact>
</mgrwt>
</event>
<event>
 4    1  0.4840632E-008  0.8670153E+03  0.7818608E-02  0.9467780E-01
         -2   -1    0    0    0  501 -0.00000000000E+00  0.00000000000E+00  0.59237260886E+03  0.59237260887E+03  0.25500000000E-02 0.  1.
          2   -1    0    0  501    0  0.00000000000E+00 -0.00000000000E+00 -0.12959420323E+04  0.12959420323E+04  0.25500000000E-02 0. -1.
    8880022    1    1    2    0    0  0.14648344717E+03 -0.84075354469E+03 -0.48794120865E+03  0.99488803356E+03  0.15294330000E+03 0.  0.
    8880022    1    1    2    0    0 -0.14648344717E+03  0.84075354469E+03 -0.21562821483E+03  0.89342660765E+03  0.15294330000E+03 0.  0.
<mgrwt>
<rscale>  0 0.86701533E+03</rscale>
<asrwt>0</asrwt>
<pdfrwt beam="1">  1        2 0.19937570E+00 0.86701533E+03</pdfrwt>
<pdfrwt beam="2">  1       -2 0.91134248E-01 0.86701533E+03</pdfrwt>
<totfact> 0.17195692E+01</totfact>
</mgrwt>
</event>
<event>
 4    1  0.4840632E-008  0.4926190E+03  0.7818608E-02  0.1015724E+00
          2   -1    0    0  501    0  0.00000000000E+00  0.00000000000E+00  0.87096151175E+03  0.87096151175E+03  0.25500000000E-02 0. -1.
         -2   -1    0    0    0  501 -0.00000000000E+00 -0.00000000000E+00 -0.43309529551E+03  0.43309529552E+03  0.25500000000E-02 0.  1.
    8880022    1    1    2    0    0  0.46075893291E+03 -0.83564243680E+02  0.60833172021E+03  0.78277768997E+03  0.15294330000E+03 0.  0.
    8880022    1    1    2    0    0 -0.46075893291E+03  0.83564243680E+02 -0.17046550397E+03  0.52127911730E+03  0.15294330000E+03 0.  1.
<mgrwt>
<rscale>  0 0.49261895E+03</rscale>
<asrwt>0</asrwt>
<pdfrwt beam="1">  1        2 0.13399408E+00 0.49261895E+03</pdfrwt>
<pdfrwt beam="2">  1       -2 0.66630046E-01 0.49261895E+03</pdfrwt>
<totfact> 0.65976030E+01</totfact>
</mgrwt>
</event>
<event>
 4    1  0.4840632E-008  0.6654850E+03  0.7818608E-02  0.9778149E-01
          2   -1    0    0  501    0  0.00000000000E+00  0.00000000000E+00  0.91702461128E+03  0.91702461128E+03  0.25500000000E-02 0. -1.
         -2   -1    0    0    0  501 -0.00000000000E+00 -0.00000000000E+00 -0.49742208313E+03  0.49742208314E+03  0.25500000000E-02 0.  1.
    8880022    1    1    2    0    0 -0.63240921430E+03  0.13977561040E+03  0.33046310790E+03  0.74301827319E+03  0.15294330000E+03 0.  0.
    8880022    1    1    2    0    0  0.63240921430E+03 -0.13977561040E+03  0.89139420246E+02  0.67142842124E+03  0.15294330000E+03 0.  0.
<mgrwt>
<rscale>  0 0.66548500E+03</rscale>
<asrwt>0</asrwt>
<pdfrwt beam="1">  1        2 0.14108071E+00 0.66548500E+03</pdfrwt>
<pdfrwt beam="2">  1       -2 0.76526474E-01 0.66548500E+03</pdfrwt>
<totfact> 0.44590199E+01</totfact>
</mgrwt>
</event>
<event>
 4    1  0.4840632E-008  0.7830659E+03  0.7818608E-02  0.9584857E-01
         -2   -1    0    0    0  501 -0.00000000000E+00  0.00000000000E+00  0.76660101600E+03  0.76660101600E+03  0.25500000000E-02 0.  1.
          2   -1    0    0  501    0  0.00000000000E+00 -0.00000000000E+00 -0.18190343574E+04  0.18190343574E+04  0.25500000000E-02 0. -1.
    8880022    1    1    2    0    0  0.48282787219E+03  0.59722507197E+03  0.44147249630E+03  0.89893835092E+03  0.15294330000E+03 0.  1.
    8880022    1    1    2    0    0 -0.48282787219E+03 -0.59722507197E+03 -0.14939058377E+04  0.16866970225E+04  0.15294330000E+03 0.  0.
<mgrwt>
<rscale>  0 0.78306589E+03</rscale>
<asrwt>0</asrwt>
<pdfrwt beam="1">  1        2 0.27985144E+00 0.78306589E+03</pdfrwt>
<pdfrwt beam="2">  1       -2 0.11793862E+00 0.78306589E+03</pdfrwt>
<totfact> 0.47920563E+00</totfact>
</mgrwt>
</event>
<event>
 4    1  0.4840632E-008  0.2244652E+03  0.7818608E-02  0.1130597E+00
          2   -1    0    0  501    0  0.00000000000E+00  0.00000000000E+00  0.16351582197E+04  0.16351582197E+04  0.25500000000E-02 0. -1.
         -2   -1    0    0    0  501 -0.00000000000E+00 -0.00000000000E+00 -0.21798667218E+03  0.21798667220E+03  0.25500000000E-02 0.  1.
    8880022    1    1    2    0    0  0.42429512831E+02  0.15872207930E+03  0.15671770015E+04  0.15831703537E+04  0.15294330000E+03 0. -1.
    8880022    1    1    2    0    0 -0.42429512831E+02 -0.15872207930E+03 -0.15000545396E+03  0.26997453815E+03  0.15294330000E+03 0.  0.
<mgrwt>
<rscale>  0 0.22446518E+03</rscale>
<asrwt>0</asrwt>
<pdfrwt beam="1">  1        2 0.25156281E+00 0.22446518E+03</pdfrwt>
<pdfrwt beam="2">  1       -2 0.33536410E-01 0.22446518E+03</pdfrwt>
<totfact> 0.98671801E+01</totfact>
</mgrwt>
</event>
<event>
 4    1  0.4840632E-008  0.2414963E+03  0.7818608E-02  0.1118800E+00
         -2   -1    0    0    0  501 -0.00000000000E+00  0.00000000000E+00  0.15819245233E+03  0.15819245235E+03  0.25500000000E-02 0.  1.
          2   -1    0    0  501    0  0.00000000000E+00 -0.00000000000E+00 -0.16021435002E+04  0.16021435002E+04  0.25500000000E-02 0. -1.
    8880022    1    1    2    0    0  0.16291552689E+03 -0.91582451703E+02  0.50314014482E+02  0.24668191549E+03  0.15294330000E+03 0.  1.
    8880022    1    1    2    0    0 -0.16291552689E+03  0.91582451703E+02 -0.14942650623E+04  0.15136540370E+04  0.15294330000E+03 0.  0.
<mgrwt>
<rscale>  0 0.24149631E+03</rscale>
<asrwt>0</asrwt>
<pdfrwt beam="1">  1        2 0.24648360E+00 0.24149631E+03</pdfrwt>
<pdfrwt beam="2">  1       -2 0.24337301E-01 0.24149631E+03</pdfrwt>
<totfact> 0.18227757E+02</totfact>
</mgrwt>
</event>
<event>
 4    1  0.4840632E-008  0.4000323E+03  0.7818608E-02  0.1043769E+00
         -2   -1    0    0    0  501 -0.00000000000E+00  0.00000000000E+00  0.21689089211E+03  0.21689089213E+03  0.25500000000E-02 0.  1.
          2   -1    0    0  501    0  0.00000000000E+00 -0.00000000000E+00 -0.24357108779E+04  0.24357108779E+04  0.25500000000E-02 0. -1.
    8880022    1    1    2    0    0  0.16666365214E+03 -0.32993544283E+03 -0.20611858695E+01  0.40003758684E+03  0.15294330000E+03 0.  0.
    8880022    1    1    2    0    0 -0.16666365214E+03  0.32993544283E+03 -0.22167587999E+04  0.22525641832E+04  0.15294330000E+03 0.  0.
<mgrwt>
<rscale>  0 0.40003228E+03</rscale>
<asrwt>0</asrwt>
<pdfrwt beam="1">  1        2 0.37472473E+00 0.40003228E+03</pdfrwt>
<pdfrwt beam="2">  1       -2 0.33367831E-01 0.40003228E+03</pdfrwt>
<totfact> 0.35430393E+01</totfact>
</mgrwt>
</event>
<event>
 4    1  0.4840632E-008  0.4005684E+03  0.7818608E-02  0.1043583E+00
         -2   -1    0    0    0  501 -0.00000000000E+00  0.00000000000E+00  0.32739831009E+03  0.32739831010E+03  0.25500000000E-02 0.  1.
          2   -1    0    0  501    0  0.00000000000E+00 -0.00000000000E+00 -0.82284162427E+03  0.82284162427E+03  0.25500000000E-02 0. -1.
    8880022    1    1    2    0    0 -0.81330766340E+02  0.36117677800E+03 -0.61345088278E+03  0.73265066513E+03  0.15294330000E+03 0.  0.
    8880022    1    1    2    0    0  0.81330766340E+02 -0.36117677800E+03  0.11800756860E+03  0.41758926923E+03  0.15294330000E+03 0.  0.
<mgrwt>
<rscale>  0 0.40056836E+03</rscale>
<asrwt>0</asrwt>
<pdfrwt beam="1">  1        2 0.12659102E+00 0.40056836E+03</pdfrwt>
<pdfrwt beam="2">  1       -2 0.50368971E-01 0.40056836E+03</pdfrwt>
<totfact> 0.12875107E+02</totfact>
</mgrwt>
</event>
<event>
 4    1  0.4840632E-008  0.2350263E+03  0.7818608E-02  0.1123151E+00
          2   -1    0    0  501    0  0.00000000000E+00  0.00000000000E+00  0.12496138230E+04  0.12496138230E+04  0.25500000000E-02 0. -1.
         -2   -1    0    0    0  501 -0.00000000000E+00 -0.00000000000E+00 -0.45164674767E+02  0.45164674839E+02  0.25500000000E-02 0.  1.
    8880022    1    1    2    0    0 -0.23979859534E+01  0.17843757116E+03  0.69666444422E+03  0.73524058511E+03  0.15294330000E+03 0. -1.
    8880022    1    1    2    0    0  0.23979859534E+01 -0.17843757116E+03  0.50778470399E+03  0.55953791271E+03  0.15294330000E+03 0.  1.
<mgrwt>
<rscale>  0 0.23502632E+03</rscale>
<asrwt>0</asrwt>
<pdfrwt beam="1">  1        2 0.19224825E+00 0.23502632E+03</pdfrwt>
<pdfrwt beam="2">  1       -2 0.69484127E-02 0.23502632E+03</pdfrwt>
<totfact> 0.22062325E+03</totfact>
</mgrwt>
</event>
<event>
 4    1  0.4840632E-008  0.3519864E+03  0.7818608E-02  0.1061803E+00
          2   -1    0    0  501    0  0.00000000000E+00  0.00000000000E+00  0.22178934328E+04  0.22178934328E+04  0.25500000000E-02 0. -1.
         -2   -1    0    0    0  501 -0.00000000000E+00 -0.00000000000E+00 -0.16117396303E+03  0.16117396305E+03  0.25500000000E-02 0.  1.
    8880022    1    1    2    0    0 -0.28250852734E+03  0.14384621670E+03  0.19899046224E+04  0.20207956011E+04  0.15294330000E+03 0.  0.
    8880022    1    1    2    0    0  0.28250852734E+03 -0.14384621670E+03  0.66814847352E+02  0.35827179476E+03  0.15294330000E+03 0.  0.
<mgrwt>
<rscale>  0 0.35198644E+03</rscale>
<asrwt>0</asrwt>
<pdfrwt beam="1">  1        2 0.34121434E+00 0.35198644E+03</pdfrwt>
<pdfrwt beam="2">  1       -2 0.24795997E-01 0.35198644E+03</pdfrwt>
<totfact> 0.80991585E+01</totfact>
</mgrwt>
</event>
<event>
 4    1  0.4840632E-008  0.5200915E+03  0.7818608E-02  0.1008664E+00
          2   -1    0    0  501    0  0.00000000000E+00  0.00000000000E+00  0.58328656548E+03  0.58328656549E+03  0.25500000000E-02 0. -1.
         -2   -1    0    0    0  501 -0.00000000000E+00 -0.00000000000E+00 -0.99044776334E+03  0.99044776334E+03  0.25500000000E-02 0.  1.
    8880022    1    1    2    0    0 -0.83032645173E+02 -0.49011126545E+03 -0.77739205255E+03  0.93532536001E+03  0.15294330000E+03 0.  0.
    8880022    1    1    2    0    0  0.83032645173E+02  0.49011126545E+03  0.37023085470E+03  0.63840896882E+03  0.15294330000E+03 0.  0.
<mgrwt>
<rscale>  0 0.52009146E+03</rscale>
<asrwt>0</asrwt>
<pdfrwt beam="1">  1        2 0.89736395E-01 0.52009146E+03</pdfrwt>
<pdfrwt beam="2">  1       -2 0.15237658E+00 0.52009146E+03</pdfrwt>
<totfact> 0.15361540E+01</totfact>
</mgrwt>
</event>
<event>
 4    1  0.4840632E-008  0.3825563E+03  0.7818608E-02  0.1049993E+00
          2   -1    0    0  501    0  0.00000000000E+00  0.00000000000E+00  0.15380549299E+03  0.15380549301E+03  0.25500000000E-02 0. -1.
         -2   -1    0    0    0  501 -0.00000000000E+00 -0.00000000000E+00 -0.10179639319E+04  0.10179639319E+04  0.25500000000E-02 0.  1.
    8880022    1    1    2    0    0  0.30568305089E+03 -0.17180081298E+03 -0.28239799859E+03  0.47549756000E+03  0.15294330000E+03 0.  0.
    8880022    1    1    2    0    0 -0.30568305089E+03  0.17180081298E+03 -0.58176044033E+03  0.69627186493E+03  0.15294330000E+03 0.  0.
<mgrwt>
<rscale>  0 0.38255627E+03</rscale>
<asrwt>0</asrwt>
<pdfrwt beam="1">  1        2 0.23662384E-01 0.38255627E+03</pdfrwt>
<pdfrwt beam="2">  1       -2 0.15660983E+00 0.38255627E+03</pdfrwt>
<totfact> 0.64525208E+01</totfact>
</mgrwt>
</event>
<event>
 4    1  0.4840632E-008  0.3830803E+03  0.7818608E-02  0.1049801E+00
         -2   -1    0    0    0  501 -0.00000000000E+00  0.00000000000E+00  0.89164450174E+02  0.89164450210E+02  0.25500000000E-02 0.  1.
          2   -1    0    0  501    0  0.00000000000E+00 -0.00000000000E+00 -0.19142413250E+04  0.19142413250E+04  0.25500000000E-02 0. -1.
    8880022    1    1    2    0    0 -0.15492946700E+03  0.31520748094E+03 -0.53745168196E+03  0.66000368124E+03  0.15294330000E+03 0.  0.
    8880022    1    1    2    0    0  0.15492946700E+03 -0.31520748094E+03 -0.12876251929E+04  0.13434020940E+04  0.15294330000E+03 0.  0.
<mgrwt>
<rscale>  0 0.38308034E+03</rscale>
<asrwt>0</asrwt>
<pdfrwt beam="1">  1        2 0.29449863E+00 0.38308034E+03</pdfrwt>
<pdfrwt beam="2">  1       -2 0.13717609E-01 0.38308034E+03</pdfrwt>
<totfact> 0.32228400E+02</totfact>
</mgrwt>
</event>
<event>
 4    1  0.4840632E-008  0.2132869E+03  0.7818608E-02  0.1138989E+00
          2   -1    0    0  501    0  0.00000000000E+00  0.00000000000E+00  0.92720171194E+03  0.92720171194E+03  0.25500000000E-02 0. -1.
         -2   -1    0    0    0  501 -0.00000000000E+00 -0.00000000000E+00 -0.12238797453E+03  0.12238797455E+03  0.25500000000E-02 0.  1.
    8880022    1    1    2    0    0  0.14523420488E+03 -0.31728025147E+02 -0.37989632397E+01  0.21332071391E+03  0.15294330000E+03 0.  0.
    8880022    1    1    2    0    0 -0.14523420488E+03  0.31728025147E+02  0.80861270065E+03  0.83626897259E+03  0.15294330000E+03 0. -1.
<mgrwt>
<rscale>  0 0.21328688E+03</rscale>
<asrwt>0</asrwt>
<pdfrwt beam="1">  1        2 0.14264642E+00 0.21328688E+03</pdfrwt>
<pdfrwt beam="2">  1       -2 0.18828918E-01 0.21328688E+03</pdfrwt>
<totfact> 0.68519982E+02</totfact>
</mgrwt>
</event>
<event>
 4    1  0.4840632E-008  0.8555925E+03  0.7818608E-02  0.9482862E-01
         -2   -1    0    0    0  501 -0.00000000000E+00  0.00000000000E+00  0.55187520802E+03  0.55187520802E+03  0.25500000000E-02 0.  1.
          2   -1    0    0  501    0  0.00000000000E+00 -0.00000000000E+00 -0.14000635357E+04  0.14000635357E+04  0.25500000000E-02 0. -1.
    8880022    1    1    2    0    0 -0.80546976414E+03 -0.24467385096E+03 -0.64787444647E+03  0.10732100380E+04  0.15294330000E+03 0.  0.
    8880022    1    1    2    0    0  0.80546976414E+03  0.24467385096E+03 -0.20031388125E+03  0.87872870575E+03  0.15294330000E+03 0.  0.
<mgrwt>
<rscale>  0 0.85559248E+03</rscale>
<asrwt>0</asrwt>
<pdfrwt beam="1">  1        2 0.21539439E+00 0.85559248E+03</pdfrwt>
<pdfrwt beam="2">  1       -2 0.84903879E-01 0.85559248E+03</pdfrwt>
<totfact> 0.17657821E+01</totfact>
</mgrwt>
</event>
<event>
 4    1  0.4840632E-008  0.4846826E+03  0.7818608E-02  0.1017856E+00
          2   -1    0    0  501    0  0.00000000000E+00  0.00000000000E+00  0.19358614767E+04  0.19358614767E+04  0.25500000000E-02 0. -1.
         -2   -1    0    0    0  501 -0.00000000000E+00 -0.00000000000E+00 -0.34550872957E+03  0.34550872958E+03  0.25500000000E-02 0.  1.
    8880022    1    1    2    0    0  0.11776886154E+03  0.44458532166E+03  0.17139612708E+04  0.17811739117E+04  0.15294330000E+03 0. -1.
    8880022    1    1    2    0    0 -0.11776886154E+03 -0.44458532166E+03 -0.12360852364E+03  0.50019629459E+03  0.15294330000E+03 0.  0.
<mgrwt>
<rscale>  0 0.48468264E+03</rscale>
<asrwt>0</asrwt>
<pdfrwt beam="1">  1        2 0.29782484E+00 0.48468264E+03</pdfrwt>
<pdfrwt beam="2">  1       -2 0.53155189E-01 0.48468264E+03</pdfrwt>
<totfact> 0.26089168E+01</totfact>
</mgrwt>
</event>
<event>
 4    1  0.4840632E-008  0.2616766E+03  0.7818608E-02  0.1106140E+00
         -2   -1    0    0    0  501 -0.00000000000E+00  0.00000000000E+00  0.68793185280E+03  0.68793185280E+03  0.25500000000E-02 0.  1.
          2   -1    0    0  501    0  0.00000000000E+00 -0.00000000000E+00 -0.37762585150E+03  0.37762585151E+03  0.25500000000E-02 0. -1.
    8880022    1    1    2    0    0 -0.21041043257E+03 -0.28468368642E+02 -0.30204880078E+03  0.39963499498E+03  0.15294330000E+03 0.  0.
    8880022    1    1    2    0    0  0.21041043257E+03  0.28468368642E+02  0.61235480208E+03  0.66592270932E+03  0.15294330000E+03 0.  0.
<mgrwt>
<rscale>  0 0.26167662E+03</rscale>
<asrwt>0</asrwt>
<pdfrwt beam="1">  1        2 0.58096285E-01 0.26167662E+03</pdfrwt>
<pdfrwt beam="2">  1       -2 0.10583567E+00 0.26167662E+03</pdfrwt>
<totfact> 0.64587944E+01</totfact>
</mgrwt>
</event>
<event>
 4    1  0.4840632E-008  0.1169162E+04  0.7818608E-02  0.9140286E-01
          2   -1    0    0  501    0  0.00000000000E+00  0.00000000000E+00  0.19163985724E+04  0.19163985724E+04  0.25500000000E-02 0. -1.
         -2   -1    0    0    0  501 -0.00000000000E+00 -0.00000000000E+00 -0.14006629831E+04  0.14006629831E+04  0.25500000000E-02 0.  1.
    8880022    1    1    2    0    0  0.57356487767E+03 -0.10072593101E+04 -0.90399356020E+03  0.14778849740E+04  0.15294330000E+03 0.  0.
    8880022    1    1    2    0    0 -0.57356487767E+03  0.10072593101E+04  0.14197291495E+04  0.18391765814E+04  0.15294330000E+03 0.  0.
<mgrwt>
<rscale>  0 0.11691619E+04</rscale>
<asrwt>0</asrwt>
<pdfrwt beam="1">  1        2 0.29483055E+00 0.11691619E+04</pdfrwt>
<pdfrwt beam="2">  1       -2 0.21548661E+00 0.11691619E+04</pdfrwt>
<totfact> 0.76552546E-01</totfact>
</mgrwt>
</event>
<event>
 4    1  0.4840632E-008  0.8238328E+03  0.7818608E-02  0.9526147E-01
          2   -1    0    0  501    0  0.00000000000E+00  0.00000000000E+00  0.10977245572E+04  0.10977245572E+04  0.25500000000E-02 0. -1.
         -2   -1    0    0    0  501 -0.00000000000E+00 -0.00000000000E+00 -0.10490485552E+04  0.10490485552E+04  0.25500000000E-02 0.  1.
    8880022    1    1    2    0    0 -0.65643300350E+03 -0.47371360983E+03  0.71216724325E+03  0.10889824184E+04  0.15294330000E+03 0.  0.
    8880022    1    1    2    0    0  0.65643300350E+03  0.47371360983E+03 -0.66349124126E+03  0.10577906941E+04  0.15294330000E+03 0.  0.
<mgrwt>
<rscale>  0 0.82383283E+03</rscale>
<asrwt>0</asrwt>
<pdfrwt beam="1">  1        2 0.16888070E+00 0.82383283E+03</pdfrwt>
<pdfrwt beam="2">  1       -2 0.16139209E+00 0.82383283E+03</pdfrwt>
<totfact> 0.54355940E+00</totfact>
</mgrwt>
</event>
<event>
 4    1  0.4840632E-008  0.6590074E+03  0.7818608E-02  0.9790023E-01
         -2   -1    0    0    0  501 -0.00000000000E+00  0.00000000000E+00  0.65658169547E+03  0.65658169547E+03  0.25500000000E-02 0.  1.
          2   -1    0    0  501    0  0.00000000000E+00 -0.00000000000E+00 -0.11773824861E+04  0.11773824861E+04  0.25500000000E-02 0. -1.
    8880022    1    1    2    0    0 -0.97486569444E+02  0.63355776320E+03  0.34661801572E+03  0.74460376870E+03  0.15294330000E+03 0.  0.
    8880022    1    1    2    0    0  0.97486569444E+02 -0.63355776320E+03 -0.86741880638E+03  0.10893604129E+04  0.15294330000E+03 0.  0.
<mgrwt>
<rscale>  0 0.65900738E+03</rscale>
<asrwt>0</asrwt>
<pdfrwt beam="1">  1        2 0.18113577E+00 0.65900738E+03</pdfrwt>
<pdfrwt beam="2">  1       -2 0.10101257E+00 0.65900738E+03</pdfrwt>
<totfact> 0.16240458E+01</totfact>
</mgrwt>
</event>
<event>
 4    1  0.4840632E-008  0.2419954E+03  0.7818608E-02  0.1118471E+00
         -2   -1    0    0    0  501 -0.00000000000E+00  0.00000000000E+00  0.20928148370E+03  0.20928148371E+03  0.25500000000E-02 0.  1.
          2   -1    0    0  501    0  0.00000000000E+00 -0.00000000000E+00 -0.34665948634E+03  0.34665948635E+03  0.25500000000E-02 0. -1.
    8880022    1    1    2    0    0  0.54373220428E+02 -0.17948161527E+03  0.53365637947E+02  0.24780968837E+03  0.15294330000E+03 0.  0.
    8880022    1    1    2    0    0 -0.54373220428E+02  0.17948161527E+03 -0.19074364059E+03  0.30813128170E+03  0.15294330000E+03 0.  0.
<mgrwt>
<rscale>  0 0.24199535E+03</rscale>
<asrwt>0</asrwt>
<pdfrwt beam="1">  1        2 0.53332229E-01 0.24199535E+03</pdfrwt>
<pdfrwt beam="2">  1       -2 0.32197151E-01 0.24199535E+03</pdfrwt>
<totfact> 0.83960108E+02</totfact>
</mgrwt>
</event>
<event>
 4    1  0.4840632E-008  0.5546674E+03  0.7818608E-02  0.1000419E+00
         -2   -1    0    0    0  501 -0.00000000000E+00  0.00000000000E+00  0.19917552785E+03  0.19917552786E+03  0.25500000000E-02 0.  1.
          2   -1    0    0  501    0  0.00000000000E+00 -0.00000000000E+00 -0.25606002896E+04  0.25606002896E+04  0.25500000000E-02 0. -1.
    8880022    1    1    2    0    0 -0.14290879180E+03  0.51365490599E+03 -0.20498923791E+04  0.21236088868E+04  0.15294330000E+03 0.  0.
    8880022    1    1    2    0    0  0.14290879180E+03 -0.51365490599E+03 -0.31153238268E+03  0.63616693068E+03  0.15294330000E+03 0.  0.
<mgrwt>
<rscale>  0 0.55466741E+03</rscale>
<asrwt>0</asrwt>
<pdfrwt beam="1">  1        2 0.39393848E+00 0.55466741E+03</pdfrwt>
<pdfrwt beam="2">  1       -2 0.30642391E-01 0.55466741E+03</pdfrwt>
<totfact> 0.34127350E+01</totfact>
</mgrwt>
</event>
<event>
 4    1  0.5811797E-008  0.6509092E+03  0.7818608E-02  0.9805075E-01
          2   -1    0    0  501    0  0.00000000000E+00  0.00000000000E+00  0.13797548829E+04  0.13797548829E+04  0.25500000000E-02 0. -1.
         -2   -1    0    0    0  501 -0.00000000000E+00 -0.00000000000E+00 -0.10063708579E+04  0.10063708579E+04  0.25500000000E-02 0.  1.
    8880022    1    1    2    0    0  0.19330943744E+03  0.60243058784E+03  0.11812176957E+04  0.13486875285E+04  0.15294330000E+03 0.  0.
    8880022    1    1    2    0    0 -0.19330943744E+03 -0.60243058784E+03 -0.80783367074E+03  0.10374382123E+04  0.15294330000E+03 0.  1.
<mgrwt>
<rscale>  0 0.65090921E+03</rscale>
<asrwt>0</asrwt>
<pdfrwt beam="1">  1        2 0.21226998E+00 0.65090921E+03</pdfrwt>
<pdfrwt beam="2">  1       -2 0.15482629E+00 0.65090921E+03</pdfrwt>
<totfact> 0.42620433E+00</totfact>
</mgrwt>
</event>
<event>
 4    1  0.4840632E-008  0.4128855E+03  0.7818608E-02  0.1039407E+00
          2   -1    0    0  501    0  0.00000000000E+00  0.00000000000E+00  0.12995031815E+04  0.12995031815E+04  0.25500000000E-02 0. -1.
         -2   -1    0    0    0  501 -0.00000000000E+00 -0.00000000000E+00 -0.16021832126E+03  0.16021832128E+03  0.25500000000E-02 0.  1.
    8880022    1    1    2    0    0 -0.37698052150E+03  0.70487182358E+02  0.88033978052E+03  0.97235412204E+03  0.15294330000E+03 0.  0.
    8880022    1    1    2    0    0  0.37698052150E+03 -0.70487182358E+02  0.25894507969E+03  0.48736738071E+03  0.15294330000E+03 0.  0.
<mgrwt>
<rscale>  0 0.41288547E+03</rscale>
<asrwt>0</asrwt>
<pdfrwt beam="1">  1        2 0.19992356E+00 0.41288547E+03</pdfrwt>
<pdfrwt beam="2">  1       -2 0.24648973E-01 0.41288547E+03</pdfrwt>
<totfact> 0.25312005E+02</totfact>
</mgrwt>
</event>
<event>
 4    1  0.4840632E-008  0.9162328E+03  0.7818608E-02  0.9405514E-01
         -2   -1    0    0    0  501 -0.00000000000E+00  0.00000000000E+00  0.12643742291E+04  0.12643742291E+04  0.25500000000E-02 0.  1.
          2   -1    0    0  501    0  0.00000000000E+00 -0.00000000000E+00 -0.10512228080E+04  0.10512228080E+04  0.25500000000E-02 0. -1.
    8880022    1    1    2    0    0 -0.81115636946E+03  0.39763831120E+03  0.80931387983E+03  0.12224857837E+04  0.15294330000E+03 0.  0.
    8880022    1    1    2    0    0  0.81115636946E+03 -0.39763831120E+03 -0.59616245872E+03  0.10931112535E+04  0.15294330000E+03 0.  0.
<mgrwt>
<rscale>  0 0.91623280E+03</rscale>
<asrwt>0</asrwt>
<pdfrwt beam="1">  1        2 0.16172659E+00 0.91623280E+03</pdfrwt>
<pdfrwt beam="2">  1       -2 0.19451911E+00 0.91623280E+03</pdfrwt>
<totfact> 0.33834082E+00</totfact>
</mgrwt>
</event>
<event>
 4    1  0.5768331E-008  0.9273270E+03  0.7818608E-02  0.9392052E-01
         -2   -1    0    0    0  501 -0.00000000000E+00  0.00000000000E+00  0.10280930585E+04  0.10280930585E+04  0.25500000000E-02 0.  1.
          2   -1    0    0  501    0  0.00000000000E+00 -0.00000000000E+00 -0.17544596748E+04  0.17544596748E+04  0.25500000000E-02 0. -1.
    8880022    1    1    2    0    0 -0.19386667188E+03  0.89384532044E+03 -0.13695780115E+04  0.16539889135E+04  0.15294330000E+03 0.  0.
    8880022    1    1    2    0    0  0.19386667188E+03 -0.89384532044E+03  0.64321139520E+03  0.11285638198E+04  0.15294330000E+03 0.  0.
<mgrwt>
<rscale>  0 0.92732702E+03</rscale>
<asrwt>0</asrwt>
<pdfrwt beam="1">  1        2 0.26991687E+00 0.92732702E+03</pdfrwt>
<pdfrwt beam="2">  1       -2 0.15816816E+00 0.92732702E+03</pdfrwt>
<totfact> 0.23878696E+00</totfact>
</mgrwt>
</event>
<event>
 4    1  0.4840632E-008  0.1125208E+04  0.7818608E-02  0.9180965E-01
          2   -1    0    0  501    0  0.00000000000E+00  0.00000000000E+00  0.15844539042E+04  0.15844539042E+04  0.25500000000E-02 0. -1.
         -2   -1    0    0    0  501 -0.00000000000E+00 -0.00000000000E+00 -0.16576948675E+04  0.16576948675E+04  0.25500000000E-02 0.  1.
    8880022    1    1    2    0    0  0.98230781687E+03  0.52704053017E+03 -0.12033011160E+04  0.16474299974E+04  0.15294330000E+03 0.  0.
    8880022    1    1    2    0    0 -0.98230781687E+03 -0.52704053017E+03  0.11300601526E+04  0.15947187743E+04  0.15294330000E+03 0.  0.
<mgrwt>
<rscale>  0 0.11252075E+04</rscale>
<asrwt>0</asrwt>
<pdfrwt beam="1">  1        2 0.24376214E+00 0.11252075E+04</pdfrwt>
<pdfrwt beam="2">  1       -2 0.25502998E+00 0.11252075E+04</pdfrwt>
<totfact> 0.66838553E-01</totfact>
</mgrwt>
</event>
<event>
 4    1  0.4840632E-008  0.2404628E+03  0.7818608E-02  0.1119485E+00
         -2   -1    0    0    0  501 -0.00000000000E+00  0.00000000000E+00  0.17214995535E+03  0.17214995537E+03  0.25500000000E-02 0.  1.
          2   -1    0    0  501    0  0.00000000000E+00 -0.00000000000E+00 -0.75621128401E+03  0.75621128402E+03  0.25500000000E-02 0. -1.
    8880022    1    1    2    0    0 -0.61837036944E+01  0.18545210548E+03  0.54035660606E+02  0.24645938256E+03  0.15294330000E+03 0.  0.
    8880022    1    1    2    0    0  0.61837036944E+01 -0.18545210548E+03 -0.63809698927E+03  0.68190185683E+03  0.15294330000E+03 0.  0.
<mgrwt>
<rscale>  0 0.24046283E+03</rscale>
<asrwt>0</asrwt>
<pdfrwt beam="1">  1        2 0.11634020E+00 0.24046283E+03</pdfrwt>
<pdfrwt beam="2">  1       -2 0.26484609E-01 0.24046283E+03</pdfrwt>
<totfact> 0.49232804E+02</totfact>
</mgrwt>
</event>
<event>
 4    1  0.4840632E-008  0.1536181E+03  0.7818608E-02  0.1196096E+00
          2   -1    0    0  501    0  0.00000000000E+00  0.00000000000E+00  0.60042623983E+03  0.60042623984E+03  0.25500000000E-02 0. -1.
         -2   -1    0    0    0  501 -0.00000000000E+00 -0.00000000000E+00 -0.11849889965E+03  0.11849889968E+03  0.25500000000E-02 0.  1.
    8880022    1    1    2    0    0  0.13531951532E+02 -0.48725106164E+01  0.53482880773E+03  0.55645337780E+03  0.15294330000E+03 0. -1.
    8880022    1    1    2    0    0 -0.13531951532E+02  0.48725106164E+01 -0.52901467543E+02  0.16247176172E+03  0.15294330000E+03 0.  0.
<mgrwt>
<rscale>  0 0.15361806E+03</rscale>
<asrwt>0</asrwt>
<pdfrwt beam="1">  1        2 0.92373268E-01 0.15361806E+03</pdfrwt>
<pdfrwt beam="2">  1       -2 0.18230600E-01 0.15361806E+03</pdfrwt>
<totfact> 0.12366337E+03</totfact>
</mgrwt>
</event>
<event>
 4    1  0.4840632E-008  0.3239446E+03  0.7818608E-02  0.1073848E+00
          2   -1    0    0  501    0  0.00000000000E+00  0.00000000000E+00  0.21609081344E+04  0.21609081344E+04  0.25500000000E-02 0. -1.
         -2   -1    0    0    0  501 -0.00000000000E+00 -0.00000000000E+00 -0.13148445199E+03  0.13148445201E+03  0.25500000000E-02 0.  1.
    8880022    1    1    2    0    0 -0.17895817360E+03 -0.22253630622E+03  0.10447300452E+03  0.34037434858E+03  0.15294330000E+03 0.  1.
    8880022    1    1    2    0    0  0.17895817360E+03  0.22253630622E+03  0.19249506779E+04  0.19520182379E+04  0.15294330000E+03 0.  0.
<mgrwt>
<rscale>  0 0.32394458E+03</rscale>
<asrwt>0</asrwt>
<pdfrwt beam="1">  1        2 0.33244743E+00 0.32394458E+03</pdfrwt>
<pdfrwt beam="2">  1       -2 0.20228376E-01 0.32394458E+03</pdfrwt>
<totfact> 0.12500204E+02</totfact>
</mgrwt>
</event>
<event>
 4    1  0.4840632E-008  0.6264722E+03  0.7818608E-02  0.9851957E-01
         -2   -1    0    0    0  501 -0.00000000000E+00  0.00000000000E+00  0.77401893337E+03  0.77401893338E+03  0.25500000000E-02 0.  1.
          2   -1    0    0  501    0  0.00000000000E+00 -0.00000000000E+00 -0.14510286604E+04  0.14510286604E+04  0.25500000000E-02 0. -1.
    8880022    1    1    2    0    0 -0.52888771928E+03 -0.29892063723E+03 -0.12358346197E+04  0.13855521020E+04  0.15294330000E+03 0.  0.
    8880022    1    1    2    0    0  0.52888771928E+03  0.29892063723E+03  0.55882489272E+03  0.83949549178E+03  0.15294330000E+03 0.  0.
<mgrwt>
<rscale>  0 0.62647220E+03</rscale>
<asrwt>0</asrwt>
<pdfrwt beam="1">  1        2 0.22323518E+00 0.62647220E+03</pdfrwt>
<pdfrwt beam="2">  1       -2 0.11907984E+00 0.62647220E+03</pdfrwt>
<totfact> 0.76446340E+00</totfact>
</mgrwt>
</event>
<event>
 4    1  0.4840632E-008  0.5452774E+03  0.7818608E-02  0.1002593E+00
         -2   -1    0    0    0  501 -0.00000000000E+00  0.00000000000E+00  0.12481519377E+03  0.12481519380E+03  0.25500000000E-02 0.  1.
          2   -1    0    0  501    0  0.00000000000E+00 -0.00000000000E+00 -0.26091236754E+04  0.26091236754E+04  0.25500000000E-02 0. -1.
    8880022    1    1    2    0    0 -0.35503840524E+03 -0.38455622370E+03 -0.16453423047E+04  0.17333432179E+04  0.15294330000E+03 0.  0.
    8880022    1    1    2    0    0  0.35503840524E+03  0.38455622370E+03 -0.83896617702E+03  0.10005956514E+04  0.15294330000E+03 0.  0.
<mgrwt>
<rscale>  0 0.54527737E+03</rscale>
<asrwt>0</asrwt>
<pdfrwt beam="1">  1        2 0.40140360E+00 0.54527737E+03</pdfrwt>
<pdfrwt beam="2">  1       -2 0.19202339E-01 0.54527737E+03</pdfrwt>
<totfact> 0.74032515E+01</totfact>
</mgrwt>
</event>
<event>
 4    1  0.4840632E-008  0.3575209E+03  0.7818608E-02  0.1059570E+00
          2   -1    0    0  501    0  0.00000000000E+00  0.00000000000E+00  0.64068755966E+03  0.64068755967E+03  0.25500000000E-02 0. -1.
         -2   -1    0    0    0  501 -0.00000000000E+00 -0.00000000000E+00 -0.86871584065E+03  0.86871584065E+03  0.25500000000E-02 0.  1.
    8880022    1    1    2    0    0 -0.32083240919E+03  0.38679523453E+02 -0.77640987259E+03  0.85477101238E+03  0.15294330000E+03 0.  0.
    8880022    1    1    2    0    0  0.32083240919E+03 -0.38679523453E+02  0.54838159161E+03  0.65463238795E+03  0.15294330000E+03 0.  0.
<mgrwt>
<rscale>  0 0.35752090E+03</rscale>
<asrwt>0</asrwt>
<pdfrwt beam="1">  1        2 0.98567317E-01 0.35752090E+03</pdfrwt>
<pdfrwt beam="2">  1       -2 0.13364859E+00 0.35752090E+03</pdfrwt>
<totfact> 0.19778094E+01</totfact>
</mgrwt>
</event>
<event>
 4    1  0.4840632E-008  0.4292464E+03  0.7818608E-02  0.1034098E+00
          2   -1    0    0  501    0  0.00000000000E+00  0.00000000000E+00  0.79296186948E+03  0.79296186949E+03  0.25500000000E-02 0. -1.
         -2   -1    0    0    0  501 -0.00000000000E+00 -0.00000000000E+00 -0.90102518414E+03  0.90102518415E+03  0.25500000000E-02 0.  1.
    8880022    1    1    2    0    0  0.31021441674E+03 -0.25422006185E+03  0.67562078464E+03  0.80044732609E+03  0.15294330000E+03 0.  0.
    8880022    1    1    2    0    0 -0.31021441674E+03  0.25422006185E+03 -0.78368409930E+03  0.89353972755E+03  0.15294330000E+03 0.  1.
<mgrwt>
<rscale>  0 0.42924641E+03</rscale>
<asrwt>0</asrwt>
<pdfrwt beam="1">  1        2 0.12199413E+00 0.42924641E+03</pdfrwt>
<pdfrwt beam="2">  1       -2 0.13861926E+00 0.42924641E+03</pdfrwt>
<totfact> 0.13639183E+01</totfact>
</mgrwt>
</event>
<event>
 4    1  0.4840632E-008  0.3963850E+03  0.7818608E-02  0.1045039E+00
          2   -1    0    0  501    0  0.00000000000E+00  0.00000000000E+00  0.92832130348E+03  0.92832130348E+03  0.25500000000E-02 0. -1.
         -2   -1    0    0    0  501 -0.00000000000E+00 -0.00000000000E+00 -0.41474748922E+03  0.41474748923E+03  0.25500000000E-02 0.  1.
    8880022    1    1    2    0    0  0.36569019651E+03 -0.35024284252E+00  0.77343796169E+03  0.86909572320E+03  0.15294330000E+03 0.  0.
    8880022    1    1    2    0    0 -0.36569019651E+03  0.35024284252E+00 -0.25986414743E+03  0.47397306952E+03  0.15294330000E+03 0.  1.
<mgrwt>
<rscale>  0 0.39638503E+03</rscale>
<asrwt>0</asrwt>
<pdfrwt beam="1">  1        2 0.14281866E+00 0.39638503E+03</pdfrwt>
<pdfrwt beam="2">  1       -2 0.63807307E-01 0.39638503E+03</pdfrwt>
<totfact> 0.67148675E+01</totfact>
</mgrwt>
</event>
<event>
 4    1  0.4840632E-008  0.7890284E+03  0.7818608E-02  0.9576035E-01
         -2   -1    0    0    0  501 -0.00000000000E+00  0.00000000000E+00  0.17349624519E+04  0.17349624519E+04  0.25500000000E-02 0.  1.
          2   -1    0    0  501    0  0.00000000000E+00 -0.00000000000E+00 -0.74891476652E+03  0.74891476653E+03  0.25500000000E-02 0. -1.
    8880022    1    1    2    0    0  0.65556908040E+02 -0.77128233889E+03  0.13893384316E+04  0.15977568917E+04  0.15294330000E+03 0.  0.
    8880022    1    1    2    0    0 -0.65556908040E+02  0.77128233889E+03 -0.40329074620E+03  0.88612032674E+03  0.15294330000E+03 0.  0.
<mgrwt>
<rscale>  0 0.78902839E+03</rscale>
<asrwt>0</asrwt>
<pdfrwt beam="1">  1        2 0.11521766E+00 0.78902839E+03</pdfrwt>
<pdfrwt beam="2">  1       -2 0.26691730E+00 0.78902839E+03</pdfrwt>
<totfact> 0.19566392E+00</totfact>
</mgrwt>
</event>
<event>
 4    1  0.4840632E-008  0.7889014E+03  0.7818608E-02  0.9576222E-01
         -2   -1    0    0    0  501 -0.00000000000E+00  0.00000000000E+00  0.56267081107E+03  0.56267081108E+03  0.25500000000E-02 0.  1.
          2   -1    0    0  501    0  0.00000000000E+00 -0.00000000000E+00 -0.14311380415E+04  0.14311380415E+04  0.25500000000E-02 0. -1.
    8880022    1    1    2    0    0 -0.32636684326E+03 -0.70175385529E+03  0.40866884170E+02  0.78995920466E+03  0.15294330000E+03 0.  0.
    8880022    1    1    2    0    0  0.32636684326E+03  0.70175385529E+03 -0.90933411458E+03  0.12038496479E+04  0.15294330000E+03 0.  0.
<mgrwt>
<rscale>  0 0.78890142E+03</rscale>
<asrwt>0</asrwt>
<pdfrwt beam="1">  1        2 0.22017508E+00 0.78890142E+03</pdfrwt>
<pdfrwt beam="2">  1       -2 0.86564741E-01 0.78890142E+03</pdfrwt>
<totfact> 0.16344677E+01</totfact>
</mgrwt>
</event>
<event>
 4    1  0.4840632E-008  0.3018548E+03  0.7818608E-02  0.1084317E+00
          2   -1    0    0  501    0  0.00000000000E+00  0.00000000000E+00  0.20114558069E+04  0.20114558069E+04  0.25500000000E-02 0. -1.
         -2   -1    0    0    0  501 -0.00000000000E+00 -0.00000000000E+00 -0.10440576731E+04  0.10440576731E+04  0.25500000000E-02 0.  1.
    8880022    1    1    2    0    0  0.25535055525E+03  0.50207127953E+02 -0.10105476582E+04  0.10546671913E+04  0.15294330000E+03 0.  0.
    8880022    1    1    2    0    0 -0.25535055525E+03 -0.50207127953E+02  0.19779457920E+04  0.20008462887E+04  0.15294330000E+03 0.  0.
<mgrwt>
<rscale>  0 0.30185479E+03</rscale>
<asrwt>0</asrwt>
<pdfrwt beam="1">  1        2 0.30945474E+00 0.30185479E+03</pdfrwt>
<pdfrwt beam="2">  1       -2 0.16062426E+00 0.30185479E+03</pdfrwt>
<totfact> 0.19481100E+00</totfact>
</mgrwt>
</event>
<event>
 4    1  0.4840632E-008  0.1118344E+04  0.7818608E-02  0.9187494E-01
          2   -1    0    0  501    0  0.00000000000E+00  0.00000000000E+00  0.24413965321E+04  0.24413965321E+04  0.25500000000E-02 0. -1.
         -2   -1    0    0    0  501 -0.00000000000E+00 -0.00000000000E+00 -0.54281915773E+03  0.54281915773E+03  0.25500000000E-02 0.  1.
    8880022    1    1    2    0    0  0.45600162472E+03 -0.10096361303E+04  0.59540901441E+03  0.12669673022E+04  0.15294330000E+03 0.  0.
    8880022    1    1    2    0    0 -0.45600162472E+03  0.10096361303E+04  0.13031683600E+04  0.17172483876E+04  0.15294330000E+03 0.  0.
<mgrwt>
<rscale>  0 0.11183444E+04</rscale>
<asrwt>0</asrwt>
<pdfrwt beam="1">  1        2 0.37559947E+00 0.11183444E+04</pdfrwt>
<pdfrwt beam="2">  1       -2 0.83510640E-01 0.11183444E+04</pdfrwt>
<totfact> 0.46934293E+00</totfact>
</mgrwt>
</event>
<event>
 4    1  0.4840632E-008  0.4487604E+03  0.7818608E-02  0.1028092E+00
          2   -1    0    0  501    0  0.00000000000E+00  0.00000000000E+00  0.36400594249E+03  0.36400594250E+03  0.25500000000E-02 0. -1.
         -2   -1    0    0    0  501 -0.00000000000E+00 -0.00000000000E+00 -0.16647508068E+04  0.16647508068E+04  0.25500000000E-02 0.  1.
    8880022    1    1    2    0    0 -0.40811563643E+03 -0.10693872616E+03 -0.14792310459E+04  0.15458041286E+04  0.15294330000E+03 0.  1.
    8880022    1    1    2    0    0  0.40811563643E+03  0.10693872616E+03  0.17848618156E+03  0.48295262073E+03  0.15294330000E+03 0.  0.
<mgrwt>
<rscale>  0 0.44876042E+03</rscale>
<asrwt>0</asrwt>
<pdfrwt beam="1">  1        2 0.56000915E-01 0.44876042E+03</pdfrwt>
<pdfrwt beam="2">  1       -2 0.25611550E+00 0.44876042E+03</pdfrwt>
<totfact> 0.56280725E+00</totfact>
</mgrwt>
</event>
<event>
 4    1  0.4840632E-008  0.4867715E+03  0.7818608E-02  0.1017291E+00
         -2   -1    0    0    0  501 -0.00000000000E+00  0.00000000000E+00  0.56248563034E+03  0.56248563035E+03  0.25500000000E-02 0.  1.
          2   -1    0    0  501    0  0.00000000000E+00 -0.00000000000E+00 -0.84843890320E+03  0.84843890320E+03  0.25500000000E-02 0. -1.
    8880022    1    1    2    0    0  0.11050486997E+03 -0.44871320827E+03 -0.64355719696E+03  0.80691535389E+03  0.15294330000E+03 0.  0.
    8880022    1    1    2    0    0 -0.11050486997E+03  0.44871320827E+03  0.35760392411E+03  0.60400917966E+03  0.15294330000E+03 0.  0.
<mgrwt>
<rscale>  0 0.48677153E+03</rscale>
<asrwt>0</asrwt>
<pdfrwt beam="1">  1        2 0.13052906E+00 0.48677153E+03</pdfrwt>
<pdfrwt beam="2">  1       -2 0.86536250E-01 0.48677153E+03</pdfrwt>
<totfact> 0.38393210E+01</totfact>
</mgrwt>
</event>
<event>
 4    1  0.4840632E-008  0.4251929E+03  0.7818608E-02  0.1035389E+00
         -2   -1    0    0    0  501 -0.00000000000E+00  0.00000000000E+00  0.40540765804E+03  0.40540765805E+03  0.25500000000E-02 0.  1.
          2   -1    0    0  501    0  0.00000000000E+00 -0.00000000000E+00 -0.61095202735E+03  0.61095202735E+03  0.25500000000E-02 0. -1.
    8880022    1    1    2    0    0  0.19779771328E+03  0.34390905164E+03  0.16132678246E+03  0.45476956245E+03  0.15294330000E+03 0.  0.
    8880022    1    1    2    0    0 -0.19779771328E+03 -0.34390905164E+03 -0.36687115177E+03  0.56159012295E+03  0.15294330000E+03 0. -1.
<mgrwt>
<rscale>  0 0.42519293E+03</rscale>
<asrwt>0</asrwt>
<pdfrwt beam="1">  1        2 0.93992620E-01 0.42519293E+03</pdfrwt>
<pdfrwt beam="2">  1       -2 0.62370409E-01 0.42519293E+03</pdfrwt>
<totfact> 0.11973012E+02</totfact>
</mgrwt>
</event>
<event>
 4    1  0.4840632E-008  0.9491420E+03  0.7818608E-02  0.9366154E-01
          2   -1    0    0  501    0  0.00000000000E+00  0.00000000000E+00  0.97936343797E+03  0.97936343797E+03  0.25500000000E-02 0. -1.
         -2   -1    0    0    0  501 -0.00000000000E+00 -0.00000000000E+00 -0.98215527400E+03  0.98215527401E+03  0.25500000000E-02 0.  1.
    8880022    1    1    2    0    0 -0.61704076616E+03  0.70479757157E+03 -0.24841112474E+03  0.98111093354E+03  0.15294330000E+03 0.  0.
    8880022    1    1    2    0    0  0.61704076616E+03 -0.70479757157E+03  0.24561928871E+03  0.98040777843E+03  0.15294330000E+03 0.  0.
<mgrwt>
<rscale>  0 0.94914202E+03</rscale>
<asrwt>0</asrwt>
<pdfrwt beam="1">  1        2 0.15067130E+00 0.94914202E+03</pdfrwt>
<pdfrwt beam="2">  1       -2 0.15110081E+00 0.94914202E+03</pdfrwt>
<totfact> 0.76032158E+00</totfact>
</mgrwt>
</event>
<event>
 4    1  0.4840632E-008  0.3945982E+03  0.7818608E-02  0.1045666E+00
          2   -1    0    0  501    0  0.00000000000E+00  0.00000000000E+00  0.36421278437E+04  0.36421278437E+04  0.25500000000E-02 0. -1.
         -2   -1    0    0    0  501 -0.00000000000E+00 -0.00000000000E+00 -0.13606283361E+03  0.13606283363E+03  0.25500000000E-02 0.  1.
    8880022    1    1    2    0    0  0.31257201556E+03  0.18605052433E+03  0.18862281736E+03  0.43736287309E+03  0.15294330000E+03 0.  0.
    8880022    1    1    2    0    0 -0.31257201556E+03 -0.18605052433E+03  0.33174421927E+04  0.33408278042E+04  0.15294330000E+03 0.  0.
<mgrwt>
<rscale>  0 0.39459817E+03</rscale>
<asrwt>0</asrwt>
<pdfrwt beam="1">  1        2 0.56032729E+00 0.39459817E+03</pdfrwt>
<pdfrwt beam="2">  1       -2 0.20932746E-01 0.39459817E+03</pdfrwt>
<totfact> 0.15064540E+01</totfact>
</mgrwt>
</event>
<event>
 4    1  0.4840632E-008  0.7193568E+03  0.7818608E-02  0.9684690E-01
         -2   -1    0    0    0  501 -0.00000000000E+00  0.00000000000E+00  0.16346003496E+04  0.16346003496E+04  0.25500000000E-02 0.  1.
          2   -1    0    0  501    0  0.00000000000E+00 -0.00000000000E+00 -0.40675958041E+03  0.40675958041E+03  0.25500000000E-02 0. -1.
    8880022    1    1    2    0    0  0.86441769367E+02  0.69757465394E+03  0.10945227668E+04  0.13097535330E+04  0.15294330000E+03 0.  0.
    8880022    1    1    2    0    0 -0.86441769367E+02 -0.69757465394E+03  0.13331800243E+03  0.73160639698E+03  0.15294330000E+03 0.  0.
<mgrwt>
<rscale>  0 0.71935682E+03</rscale>
<asrwt>0</asrwt>
<pdfrwt beam="1">  1        2 0.62578396E-01 0.71935682E+03</pdfrwt>
<pdfrwt beam="2">  1       -2 0.25147698E+00 0.71935682E+03</pdfrwt>
<totfact> 0.50712566E+00</totfact>
</mgrwt>
</event>
<event>
 4    1  0.4840632E-008  0.2343177E+03  0.7818608E-02  0.1123637E+00
         -2   -1    0    0    0  501 -0.00000000000E+00  0.00000000000E+00  0.28093124670E+03  0.28093124672E+03  0.25500000000E-02 0.  1.
          2   -1    0    0  501    0  0.00000000000E+00 -0.00000000000E+00 -0.15356773886E+04  0.15356773886E+04  0.25500000000E-02 0. -1.
    8880022    1    1    2    0    0  0.60696470294E+02 -0.16682053419E+03  0.22116723792E+03  0.32221072651E+03  0.15294330000E+03 0.  0.
    8880022    1    1    2    0    0 -0.60696470294E+02  0.16682053419E+03 -0.14759133798E+04  0.14943979088E+04  0.15294330000E+03 0. -1.
<mgrwt>
<rscale>  0 0.23431774E+03</rscale>
<asrwt>0</asrwt>
<pdfrwt beam="1">  1        2 0.23625806E+00 0.23431774E+03</pdfrwt>
<pdfrwt beam="2">  1       -2 0.43220193E-01 0.23431774E+03</pdfrwt>
<totfact> 0.68641912E+01</totfact>
</mgrwt>
</event>
<event>
 4    1  0.4840632E-008  0.8640222E+03  0.7818608E-02  0.9471708E-01
          2   -1    0    0  501    0  0.00000000000E+00  0.00000000000E+00  0.48323749735E+03  0.48323749736E+03  0.25500000000E-02 0. -1.
         -2   -1    0    0    0  501 -0.00000000000E+00 -0.00000000000E+00 -0.22504030395E+04  0.22504030395E+04  0.25500000000E-02 0.  1.
    8880022    1    1    2    0    0 -0.48198793065E+03 -0.70059290225E+03 -0.11826302995E+03  0.87207830912E+03  0.15294330000E+03 0.  0.
    8880022    1    1    2    0    0  0.48198793065E+03  0.70059290225E+03 -0.16489025122E+04  0.18615622277E+04  0.15294330000E+03 0.  0.
<mgrwt>
<rscale>  0 0.86402224E+03</rscale>
<asrwt>0</asrwt>
<pdfrwt beam="1">  1        2 0.74344232E-01 0.86402224E+03</pdfrwt>
<pdfrwt beam="2">  1       -2 0.34621585E+00 0.86402224E+03</pdfrwt>
<totfact> 0.10884592E+00</totfact>
</mgrwt>
</event>
<event>
 4    1  0.4840632E-008  0.7147624E+03  0.7818608E-02  0.9692314E-01
          2   -1    0    0  501    0  0.00000000000E+00  0.00000000000E+00  0.20112006627E+04  0.20112006627E+04  0.25500000000E-02 0. -1.
         -2   -1    0    0    0  501 -0.00000000000E+00 -0.00000000000E+00 -0.36783528862E+03  0.36783528863E+03  0.25500000000E-02 0.  1.
    8880022    1    1    2    0    0  0.25945802313E+03  0.64820919416E+03  0.16000797920E+03  0.73245329653E+03  0.15294330000E+03 0.  0.
    8880022    1    1    2    0    0 -0.25945802313E+03 -0.64820919416E+03  0.14833573949E+04  0.16465826548E+04  0.15294330000E+03 0.  0.
<mgrwt>
<rscale>  0 0.71476239E+03</rscale>
<asrwt>0</asrwt>
<pdfrwt beam="1">  1        2 0.30941549E+00 0.71476239E+03</pdfrwt>
<pdfrwt beam="2">  1       -2 0.56590044E-01 0.71476239E+03</pdfrwt>
<totfact> 0.20053871E+01</totfact>
</mgrwt>
</event>
<event>
 4    1  0.4840632E-008  0.6464520E+03  0.7818608E-02  0.9813460E-01
          2   -1    0    0  501    0  0.00000000000E+00  0.00000000000E+00  0.10169744005E+04  0.10169744005E+04  0.25500000000E-02 0. -1.
         -2   -1    0    0    0  501 -0.00000000000E+00 -0.00000000000E+00 -0.10062856492E+04  0.10062856492E+04  0.25500000000E-02 0.  1.
    8880022    1    1    2    0    0 -0.46196739792E+03 -0.42555214423E+03 -0.77278381831E+03  0.10075192242E+04  0.15294330000E+03 0.  0.
    8880022    1    1    2    0    0  0.46196739792E+03  0.42555214423E+03  0.78347256959E+03  0.10157408255E+04  0.15294330000E+03 0.  0.
<mgrwt>
<rscale>  0 0.64645198E+03</rscale>
<asrwt>0</asrwt>
<pdfrwt beam="1">  1        2 0.15645760E+00 0.64645198E+03</pdfrwt>
<pdfrwt beam="2">  1       -2 0.15481318E+00 0.64645198E+03</pdfrwt>
<totfact> 0.69943933E+00</totfact>
</mgrwt>
</event>
<event>
 4    1  0.4840632E-008  0.6926511E+03  0.7818608E-02  0.9729883E-01
         -2   -1    0    0    0  501 -0.00000000000E+00  0.00000000000E+00  0.42129464156E+03  0.42129464157E+03  0.25500000000E-02 0.  1.
          2   -1    0    0  501    0  0.00000000000E+00 -0.00000000000E+00 -0.22775328806E+04  0.22775328806E+04  0.25500000000E-02 0. -1.
    8880022    1    1    2    0    0  0.57007670287E+03 -0.36247267955E+03  0.26051209158E+02  0.69314082919E+03  0.15294330000E+03 0.  0.
    8880022    1    1    2    0    0 -0.57007670287E+03  0.36247267955E+03 -0.18822894482E+04  0.20056866930E+04  0.15294330000E+03 0.  0.
<mgrwt>
<rscale>  0 0.69265110E+03</rscale>
<asrwt>0</asrwt>
<pdfrwt beam="1">  1        2 0.35038967E+00 0.69265110E+03</pdfrwt>
<pdfrwt beam="2">  1       -2 0.64814562E-01 0.69265110E+03</pdfrwt>
<totfact> 0.10790971E+01</totfact>
</mgrwt>
</event>
<event>
 4    1  0.4840632E-008  0.2602331E+03  0.7818608E-02  0.1107003E+00
          2   -1    0    0  501    0  0.00000000000E+00  0.00000000000E+00  0.88996757647E+03  0.88996757648E+03  0.25500000000E-02 0. -1.
         -2   -1    0    0    0  501 -0.00000000000E+00 -0.00000000000E+00 -0.15153314780E+03  0.15153314782E+03  0.25500000000E-02 0.  1.
    8880022    1    1    2    0    0  0.55731504886E+01 -0.21047215814E+03  0.17877457917E+01  0.26023919461E+03  0.15294330000E+03 0.  1.
    8880022    1    1    2    0    0 -0.55731504886E+01  0.21047215814E+03  0.73664668288E+03  0.78126152969E+03  0.15294330000E+03 0.  0.
<mgrwt>
<rscale>  0 0.26023305E+03</rscale>
<asrwt>0</asrwt>
<pdfrwt beam="1">  1        2 0.13691809E+00 0.26023305E+03</pdfrwt>
<pdfrwt beam="2">  1       -2 0.23312792E-01 0.26023305E+03</pdfrwt>
<totfact> 0.49930493E+02</totfact>
</mgrwt>
</event>
<event>
 4    1  0.7023910E-008  0.7665744E+03  0.7818608E-02  0.9609701E-01
         -2   -1    0    0    0  501 -0.00000000000E+00  0.00000000000E+00  0.76027639137E+03  0.76027639137E+03  0.25500000000E-02 0.  1.
          2   -1    0    0  501    0  0.00000000000E+00 -0.00000000000E+00 -0.25433142694E+04  0.25433142694E+04  0.25500000000E-02 0. -1.
    8880022    1    1    2    0    0 -0.72889675908E+03 -0.18153293042E+03  0.48661253272E+03  0.90798023120E+03  0.15294330000E+03 0.  0.
    8880022    1    1    2    0    0  0.72889675908E+03  0.18153293042E+03 -0.22696504108E+04  0.23956104296E+04  0.15294330000E+03 0.  0.
<mgrwt>
<rscale>  0 0.76657442E+03</rscale>
<asrwt>0</asrwt>
<pdfrwt beam="1">  1        2 0.39127911E+00 0.76657442E+03</pdfrwt>
<pdfrwt beam="2">  1       -2 0.11696560E+00 0.76657442E+03</pdfrwt>
<totfact> 0.19487649E+00</totfact>
</mgrwt>
</event>
<event>
 4    1  0.4840632E-008  0.1400087E+04  0.7818608E-02  0.8953756E-01
         -2   -1    0    0    0  501 -0.00000000000E+00  0.00000000000E+00  0.18907280803E+04  0.18907280803E+04  0.25500000000E-02 0.  1.
          2   -1    0    0  501    0  0.00000000000E+00 -0.00000000000E+00 -0.15777785671E+04  0.15777785671E+04  0.25500000000E-02 0. -1.
    8880022    1    1    2    0    0 -0.81593779125E+03  0.11274291648E+04 -0.85905621323E+03  0.16426260169E+04  0.15294330000E+03 0.  0.
    8880022    1    1    2    0    0  0.81593779125E+03 -0.11274291648E+04  0.11720057265E+04  0.18258806305E+04  0.15294330000E+03 0.  0.
<mgrwt>
<rscale>  0 0.14000867E+04</rscale>
<asrwt>0</asrwt>
<pdfrwt beam="1">  1        2 0.24273517E+00 0.14000867E+04</pdfrwt>
<pdfrwt beam="2">  1       -2 0.29088124E+00 0.14000867E+04</pdfrwt>
<totfact> 0.39426373E-01</totfact>
</mgrwt>
</event>
<event>
 4    1  0.4840632E-008  0.9199701E+03  0.7818608E-02  0.9400956E-01
          2   -1    0    0  501    0  0.00000000000E+00  0.00000000000E+00  0.31224902189E+04  0.31224902189E+04  0.25500000000E-02 0. -1.
         -2   -1    0    0    0  501 -0.00000000000E+00 -0.00000000000E+00 -0.32130990982E+03  0.32130990983E+03  0.25500000000E-02 0.  1.
    8880022    1    1    2    0    0  0.95011879561E+02 -0.90217851105E+03  0.71956205200E+03  0.11679531338E+04  0.15294330000E+03 0.  0.
    8880022    1    1    2    0    0 -0.95011879561E+02  0.90217851105E+03  0.20816182570E+04  0.22758469949E+04  0.15294330000E+03 0.  0.
<mgrwt>
<rscale>  0 0.91997010E+03</rscale>
<asrwt>0</asrwt>
<pdfrwt beam="1">  1        2 0.48038311E+00 0.91997010E+03</pdfrwt>
<pdfrwt beam="2">  1       -2 0.49432294E-01 0.91997010E+03</pdfrwt>
<totfact> 0.58561905E+00</totfact>
</mgrwt>
</event>
<event>
 4    1  0.4840632E-008  0.6939176E+03  0.7818608E-02  0.9727691E-01
          2   -1    0    0  501    0  0.00000000000E+00  0.00000000000E+00  0.29193978861E+04  0.29193978861E+04  0.25500000000E-02 0. -1.
         -2   -1    0    0    0  501 -0.00000000000E+00 -0.00000000000E+00 -0.47293181986E+03  0.47293181987E+03  0.25500000000E-02 0.  1.
    8880022    1    1    2    0    0 -0.67677761227E+03  0.10101960221E+02 -0.14556481085E+03  0.70902098223E+03  0.15294330000E+03 0.  0.
    8880022    1    1    2    0    0  0.67677761227E+03 -0.10101960221E+02  0.25920308771E+04  0.26833087237E+04  0.15294330000E+03 0.  0.
<mgrwt>
<rscale>  0 0.69391760E+03</rscale>
<asrwt>0</asrwt>
<pdfrwt beam="1">  1        2 0.44913813E+00 0.69391760E+03</pdfrwt>
<pdfrwt beam="2">  1       -2 0.72758743E-01 0.69391760E+03</pdfrwt>
<totfact> 0.35922617E+00</totfact>
</mgrwt>
</event>
<event>
 4    1  0.4840632E-008  0.3639815E+03  0.7818608E-02  0.1057018E+00
         -2   -1    0    0    0  501 -0.00000000000E+00  0.00000000000E+00  0.28755471378E+03  0.28755471379E+03  0.25500000000E-02 0.  1.
          2   -1    0    0  501    0  0.00000000000E+00 -0.00000000000E+00 -0.10280109662E+04  0.10280109662E+04  0.25500000000E-02 0. -1.
    8880022    1    1    2    0    0 -0.97105869759E+02  0.31569188401E+03  0.11840861538E+03  0.38275732362E+03  0.15294330000E+03 0.  1.
    8880022    1    1    2    0    0  0.97105869759E+02 -0.31569188401E+03 -0.85886486782E+03  0.93280835640E+03  0.15294330000E+03 0.  0.
<mgrwt>
<rscale>  0 0.36398155E+03</rscale>
<asrwt>0</asrwt>
<pdfrwt beam="1">  1        2 0.15815553E+00 0.36398155E+03</pdfrwt>
<pdfrwt beam="2">  1       -2 0.44239187E-01 0.36398155E+03</pdfrwt>
<totfact> 0.12323548E+02</totfact>
</mgrwt>
</event>
<event>
 4    1  0.4840632E-008  0.1169354E+04  0.7818608E-02  0.9140112E-01
         -2   -1    0    0    0  501 -0.00000000000E+00  0.00000000000E+00  0.51300768676E+03  0.51300768677E+03  0.25500000000E-02 0.  1.
          2   -1    0    0  501    0  0.00000000000E+00 -0.00000000000E+00 -0.28960603397E+04  0.28960603397E+04  0.25500000000E-02 0. -1.
    8880022    1    1    2    0    0  0.13669906089E+03 -0.11512211709E+04 -0.71051456265E+03  0.13682906907E+04  0.15294330000E+03 0.  0.
    8880022    1    1    2    0    0 -0.13669906089E+03  0.11512211709E+04 -0.16725380903E+04  0.20407773358E+04  0.15294330000E+03 0.  0.
<mgrwt>
<rscale>  0 0.11693539E+04</rscale>
<asrwt>0</asrwt>
<pdfrwt beam="1">  1        2 0.44554774E+00 0.11693539E+04</pdfrwt>
<pdfrwt beam="2">  1       -2 0.78924261E-01 0.11693539E+04</pdfrwt>
<totfact> 0.28666529E+00</totfact>
</mgrwt>
</event>
<event>
 4    1  0.4840632E-008  0.8878568E+03  0.7818608E-02  0.9440890E-01
          2   -1    0    0  501    0  0.00000000000E+00  0.00000000000E+00  0.28696127721E+04  0.28696127721E+04  0.25500000000E-02 0. -1.
         -2   -1    0    0    0  501 -0.00000000000E+00 -0.00000000000E+00 -0.32049206592E+03  0.32049206593E+03  0.25500000000E-02 0.  1.
    8880022    1    1    2    0    0  0.87458448104E+03  0.13227250299E+00  0.18774665896E+04  0.20768173921E+04  0.15294330000E+03 0.  0.
    8880022    1    1    2    0    0 -0.87458448104E+03 -0.13227250299E+00  0.67165411658E+03  0.11132874459E+04  0.15294330000E+03 0.  0.
<mgrwt>
<rscale>  0 0.88785679E+03</rscale>
<asrwt>0</asrwt>
<pdfrwt beam="1">  1        2 0.44147890E+00 0.88785679E+03</pdfrwt>
<pdfrwt beam="2">  1       -2 0.49306470E-01 0.88785679E+03</pdfrwt>
<totfact> 0.84618651E+00</totfact>
</mgrwt>
</event>
<event>
 4    1  0.4840632E-008  0.2686849E+03  0.7818608E-02  0.1102035E+00
          2   -1    0    0  501    0  0.00000000000E+00  0.00000000000E+00  0.69129677470E+03  0.69129677470E+03  0.25500000000E-02 0. -1.
         -2   -1    0    0    0  501 -0.00000000000E+00 -0.00000000000E+00 -0.20519695269E+03  0.20519695271E+03  0.25500000000E-02 0.  1.
    8880022    1    1    2    0    0 -0.21125075793E+03 -0.64599046189E+02 -0.71067914370E+02  0.27792484769E+03  0.15294330000E+03 0.  0.
    8880022    1    1    2    0    0  0.21125075793E+03  0.64599046189E+02  0.55716773637E+03  0.61856887973E+03  0.15294330000E+03 0. -1.
<mgrwt>
<rscale>  0 0.26868489E+03</rscale>
<asrwt>0</asrwt>
<pdfrwt beam="1">  1        2 0.10635335E+00 0.26868489E+03</pdfrwt>
<pdfrwt beam="2">  1       -2 0.31568762E-01 0.26868489E+03</pdfrwt>
<totfact> 0.39927491E+02</totfact>
</mgrwt>
</event>
<event>
 4    1  0.4840632E-008  0.3573789E+03  0.7818608E-02  0.1059627E+00
          2   -1    0    0  501    0  0.00000000000E+00  0.00000000000E+00  0.19892377122E+04  0.19892377122E+04  0.25500000000E-02 0. -1.
         -2   -1    0    0    0  501 -0.00000000000E+00 -0.00000000000E+00 -0.16339918315E+03  0.16339918317E+03  0.25500000000E-02 0.  1.
    8880022    1    1    2    0    0 -0.11322101392E+03  0.30250457834E+03  0.74312780801E+02  0.36502336955E+03  0.15294330000E+03 0.  0.
    8880022    1    1    2    0    0  0.11322101392E+03 -0.30250457834E+03  0.17515257483E+04  0.17876135259E+04  0.15294330000E+03 0.  0.
<mgrwt>
<rscale>  0 0.35737889E+03</rscale>
<asrwt>0</asrwt>
<pdfrwt beam="1">  1        2 0.30603659E+00 0.35737889E+03</pdfrwt>
<pdfrwt beam="2">  1       -2 0.25138334E-01 0.35737889E+03</pdfrwt>
<totfact> 0.10459050E+02</totfact>
</mgrwt>
</event>
<event>
 4    1  0.4840632E-008  0.1763694E+03  0.7818608E-02  0.1171364E+00
         -2   -1    0    0    0  501 -0.00000000000E+00  0.00000000000E+00  0.14391727888E+03  0.14391727890E+03  0.25500000000E-02 0.  1.
          2   -1    0    0  501    0  0.00000000000E+00 -0.00000000000E+00 -0.83582061158E+03  0.83582061159E+03  0.25500000000E-02 0. -1.
    8880022    1    1    2    0    0  0.86953395581E+02  0.12394166898E+02 -0.76775267586E+03  0.78775017149E+03  0.15294330000E+03 0.  0.
    8880022    1    1    2    0    0 -0.86953395581E+02 -0.12394166898E+02  0.75849343154E+02  0.19198771900E+03  0.15294330000E+03 0.  0.
<mgrwt>
<rscale>  0 0.17636939E+03</rscale>
<asrwt>0</asrwt>
<pdfrwt beam="1">  1        2 0.12858778E+00 0.17636939E+03</pdfrwt>
<pdfrwt beam="2">  1       -2 0.22141120E-01 0.17636939E+03</pdfrwt>
<totfact> 0.59660779E+02</totfact>
</mgrwt>
</event>
<event>
 4    1  0.4840632E-008  0.2032626E+03  0.7818608E-02  0.1147015E+00
          2   -1    0    0  501    0  0.00000000000E+00  0.00000000000E+00  0.24042140780E+04  0.24042140780E+04  0.25500000000E-02 0. -1.
         -2   -1    0    0    0  501 -0.00000000000E+00 -0.00000000000E+00 -0.61055944102E+02  0.61055944155E+02  0.25500000000E-02 0.  1.
    8880022    1    1    2    0    0 -0.85262255326E+02 -0.10321998948E+03  0.22164449593E+04  0.22257457018E+04  0.15294330000E+03 0.  0.
    8880022    1    1    2    0    0  0.85262255326E+02  0.10321998948E+03  0.12671317458E+03  0.23952432035E+03  0.15294330000E+03 0.  1.
<mgrwt>
<rscale>  0 0.20326257E+03</rscale>
<asrwt>0</asrwt>
<pdfrwt beam="1">  1        2 0.36987914E+00 0.20326257E+03</pdfrwt>
<pdfrwt beam="2">  1       -2 0.93932208E-02 0.20326257E+03</pdfrwt>
<totfact> 0.33847364E+02</totfact>
</mgrwt>
</event>
<event>
 4    1  0.4840632E-008  0.6789983E+03  0.7818608E-02  0.9753838E-01
         -2   -1    0    0    0  501 -0.00000000000E+00  0.00000000000E+00  0.25479314158E+03  0.25479314159E+03  0.25500000000E-02 0.  1.
          2   -1    0    0  501    0  0.00000000000E+00 -0.00000000000E+00 -0.21804595731E+04  0.21804595731E+04  0.25500000000E-02 0. -1.
    8880022    1    1    2    0    0  0.20771758987E+03 -0.62809266663E+03 -0.46057710125E+03  0.82046932558E+03  0.15294330000E+03 0.  0.
    8880022    1    1    2    0    0 -0.20771758987E+03  0.62809266663E+03 -0.14650893303E+04  0.16147833891E+04  0.15294330000E+03 0. -1.
<mgrwt>
<rscale>  0 0.67899827E+03</rscale>
<asrwt>0</asrwt>
<pdfrwt beam="1">  1        2 0.33545531E+00 0.67899827E+03</pdfrwt>
<pdfrwt beam="2">  1       -2 0.39198946E-01 0.67899827E+03</pdfrwt>
<totfact> 0.34087022E+01</totfact>
</mgrwt>
</event>
<event>
 4    1  0.4840632E-008  0.3381219E+03  0.7818608E-02  0.1067599E+00
          2   -1    0    0  501    0  0.00000000000E+00  0.00000000000E+00  0.68401684748E+03  0.68401684748E+03  0.25500000000E-02 0. -1.
         -2   -1    0    0    0  501 -0.00000000000E+00 -0.00000000000E+00 -0.33448639084E+03  0.33448639085E+03  0.25500000000E-02 0.  1.
    8880022    1    1    2    0    0 -0.15217238897E+03 -0.26034273683E+03 -0.18544135421E+03  0.38563574193E+03  0.15294330000E+03 0.  0.
    8880022    1    1    2    0    0  0.15217238897E+03  0.26034273683E+03  0.53497181085E+03  0.63286749640E+03  0.15294330000E+03 0. -1.
<mgrwt>
<rscale>  0 0.33812192E+03</rscale>
<asrwt>0</asrwt>
<pdfrwt beam="1">  1        2 0.10523336E+00 0.33812192E+03</pdfrwt>
<pdfrwt beam="2">  1       -2 0.51459446E-01 0.33812192E+03</pdfrwt>
<totfact> 0.15681406E+02</totfact>
</mgrwt>
</event>
<event>
 4    1  0.4840632E-008  0.4906446E+03  0.7818608E-02  0.1016250E+00
         -2   -1    0    0    0  501 -0.00000000000E+00  0.00000000000E+00  0.65739356047E+03  0.65739356048E+03  0.25500000000E-02 0.  1.
          2   -1    0    0  501    0  0.00000000000E+00 -0.00000000000E+00 -0.67785058225E+03  0.67785058226E+03  0.25500000000E-02 0. -1.
    8880022    1    1    2    0    0  0.40422400834E+03  0.23225715591E+03  0.44246412449E+03  0.66068645352E+03  0.15294330000E+03 0.  0.
    8880022    1    1    2    0    0 -0.40422400834E+03 -0.23225715591E+03 -0.46292114628E+03  0.67455768921E+03  0.15294330000E+03 0.  0.
<mgrwt>
<rscale>  0 0.49064456E+03</rscale>
<asrwt>0</asrwt>
<pdfrwt beam="1">  1        2 0.10428470E+00 0.49064456E+03</pdfrwt>
<pdfrwt beam="2">  1       -2 0.10113747E+00 0.49064456E+03</pdfrwt>
<totfact> 0.35668297E+01</totfact>
</mgrwt>
</event>
<event>
 4    1  0.4840632E-008  0.3146727E+03  0.7818608E-02  0.1078128E+00
          2   -1    0    0  501    0  0.00000000000E+00  0.00000000000E+00  0.23054256495E+04  0.23054256495E+04  0.25500000000E-02 0. -1.
         -2   -1    0    0    0  501 -0.00000000000E+00 -0.00000000000E+00 -0.86399820280E+02  0.86399820317E+02  0.25500000000E-02 0.  1.
    8880022    1    1    2    0    0 -0.26135642925E+03 -0.85557454517E+02  0.19575896510E+04  0.19827193840E+04  0.15294330000E+03 0.  0.
    8880022    1    1    2    0    0  0.26135642925E+03  0.85557454517E+02  0.26143617825E+03  0.40910608581E+03  0.15294330000E+03 0.  0.
<mgrwt>
<rscale>  0 0.31467271E+03</rscale>
<asrwt>0</asrwt>
<pdfrwt beam="1">  1        2 0.35468082E+00 0.31467271E+03</pdfrwt>
<pdfrwt beam="2">  1       -2 0.13292282E-01 0.31467271E+03</pdfrwt>
<totfact> 0.21237790E+02</totfact>
</mgrwt>
</event>
<event>
 4    1  0.4840632E-008  0.3649689E+03  0.7818608E-02  0.1056634E+00
          2   -1    0    0  501    0  0.00000000000E+00  0.00000000000E+00  0.21118586641E+04  0.21118586641E+04  0.25500000000E-02 0. -1.
         -2   -1    0    0    0  501 -0.00000000000E+00 -0.00000000000E+00 -0.28093454488E+03  0.28093454489E+03  0.25500000000E-02 0.  1.
    8880022    1    1    2    0    0 -0.31715610909E+03 -0.96034511288E+02  0.19690296658E+04  0.20025683765E+04  0.15294330000E+03 0.  0.
    8880022    1    1    2    0    0  0.31715610909E+03  0.96034511288E+02 -0.13810554654E+03  0.39022483249E+03  0.15294330000E+03 0.  0.
<mgrwt>
<rscale>  0 0.36496887E+03</rscale>
<asrwt>0</asrwt>
<pdfrwt beam="1">  1        2 0.32490134E+00 0.36496887E+03</pdfrwt>
<pdfrwt beam="2">  1       -2 0.43220698E-01 0.36496887E+03</pdfrwt>
<totfact> 0.32695417E+01</totfact>
</mgrwt>
</event>
<event>
 4    1  0.4840632E-008  0.9168993E+03  0.7818608E-02  0.9404700E-01
          2   -1    0    0  501    0  0.00000000000E+00  0.00000000000E+00  0.94372504485E+03  0.94372504485E+03  0.25500000000E-02 0. -1.
         -2   -1    0    0    0  501 -0.00000000000E+00 -0.00000000000E+00 -0.12631747433E+04  0.12631747433E+04  0.25500000000E-02 0.  1.
    8880022    1    1    2    0    0  0.38158601086E+03 -0.81957599193E+03 -0.75881192911E+03  0.11901680079E+04  0.15294330000E+03 0.  0.
    8880022    1    1    2    0    0 -0.38158601086E+03  0.81957599193E+03  0.43936223068E+03  0.10167317803E+04  0.15294330000E+03 0.  0.
<mgrwt>
<rscale>  0 0.91689931E+03</rscale>
<asrwt>0</asrwt>
<pdfrwt beam="1">  1        2 0.14518847E+00 0.91689931E+03</pdfrwt>
<pdfrwt beam="2">  1       -2 0.19433458E+00 0.91689931E+03</pdfrwt>
<totfact> 0.39785681E+00</totfact>
</mgrwt>
</event>
<event>
 4    1  0.4840632E-008  0.5643245E+03  0.7818608E-02  0.9982317E-01
          2   -1    0    0  501    0  0.00000000000E+00  0.00000000000E+00  0.28050124486E+04  0.28050124486E+04  0.25500000000E-02 0. -1.
         -2   -1    0    0    0  501 -0.00000000000E+00 -0.00000000000E+00 -0.27588987403E+03  0.27588987405E+03  0.25500000000E-02 0.  1.
    8880022    1    1    2    0    0 -0.24073033635E+03 -0.48694909680E+03  0.82839986560E+02  0.57037236443E+03  0.15294330000E+03 0.  1.
    8880022    1    1    2    0    0  0.24073033635E+03  0.48694909680E+03  0.24462825880E+04  0.25105299582E+04  0.15294330000E+03 0.  0.
<mgrwt>
<rscale>  0 0.56432453E+03</rscale>
<asrwt>0</asrwt>
<pdfrwt beam="1">  1        2 0.43154034E+00 0.56432453E+03</pdfrwt>
<pdfrwt beam="2">  1       -2 0.42444600E-01 0.56432453E+03</pdfrwt>
<totfact> 0.13235793E+01</totfact>
</mgrwt>
</event>
<event>
 4    1  0.4840632E-008  0.5688433E+03  0.7818608E-02  0.9972241E-01
          2   -1    0    0  501    0  0.00000000000E+00  0.00000000000E+00  0.18334230441E+04  0.18334230441E+04  0.25500000000E-02 0. -1.
         -2   -1    0    0    0  501 -0.00000000000E+00 -0.00000000000E+00 -0.34280004225E+03  0.34280004226E+03  0.25500000000E-02 0.  1.
    8880022    1    1    2    0    0  0.54754071953E+03  0.19754118590E+02  0.15032097066E+04  0.16072405357E+04  0.15294330000E+03 0.  0.
    8880022    1    1    2    0    0 -0.54754071953E+03 -0.19754118590E+02 -0.12586704732E+02  0.56898255061E+03  0.15294330000E+03 0.  0.
<mgrwt>
<rscale>  0 0.56884332E+03</rscale>
<asrwt>0</asrwt>
<pdfrwt beam="1">  1        2 0.28206508E+00 0.56884332E+03</pdfrwt>
<pdfrwt beam="2">  1       -2 0.52738469E-01 0.56884332E+03</pdfrwt>
<totfact> 0.29635011E+01</totfact>
</mgrwt>
</event>
<event>
 4    1  0.4840632E-008  0.2935855E+03  0.7818608E-02  0.1088492E+00
         -2   -1    0    0    0  501 -0.00000000000E+00  0.00000000000E+00  0.92468401251E+03  0.92468401251E+03  0.25500000000E-02 0.  1.
          2   -1    0    0  501    0  0.00000000000E+00 -0.00000000000E+00 -0.23288801582E+03  0.23288801584E+03  0.25500000000E-02 0. -1.
    8880022    1    1    2    0    0 -0.15082412653E+03  0.20013217792E+03  0.79413118795E+03  0.84666215368E+03  0.15294330000E+03 0.  0.
    8880022    1    1    2    0    0  0.15082412653E+03 -0.20013217792E+03 -0.10233519126E+03  0.31090987467E+03  0.15294330000E+03 0.  0.
<mgrwt>
<rscale>  0 0.29358552E+03</rscale>
<asrwt>0</asrwt>
<pdfrwt beam="1">  1        2 0.35828925E-01 0.29358552E+03</pdfrwt>
<pdfrwt beam="2">  1       -2 0.14225908E+00 0.29358552E+03</pdfrwt>
<totfact> 0.52648385E+01</totfact>
</mgrwt>
</event>
<event>
 4    1  0.4840632E-008  0.5874373E+03  0.7818608E-02  0.9931818E-01
         -2   -1    0    0    0  501 -0.00000000000E+00  0.00000000000E+00  0.13651648314E+04  0.13651648314E+04  0.25500000000E-02 0.  1.
          2   -1    0    0  501    0  0.00000000000E+00 -0.00000000000E+00 -0.42995786053E+03  0.42995786054E+03  0.25500000000E-02 0. -1.
    8880022    1    1    2    0    0 -0.54622494062E+03 -0.15273903430E+03 -0.10857806227E+03  0.59738743457E+03  0.15294330000E+03 0.  0.
    8880022    1    1    2    0    0  0.54622494062E+03  0.15273903430E+03  0.10437850332E+04  0.11977352574E+04  0.15294330000E+03 0.  0.
<mgrwt>
<rscale>  0 0.58743727E+03</rscale>
<asrwt>0</asrwt>
<pdfrwt beam="1">  1        2 0.66147363E-01 0.58743727E+03</pdfrwt>
<pdfrwt beam="2">  1       -2 0.21002536E+00 0.58743727E+03</pdfrwt>
<totfact> 0.87305359E+00</totfact>
</mgrwt>
</event>
<event>
 4    1  0.4840632E-008  0.2633971E+03  0.7818608E-02  0.1105119E+00
         -2   -1    0    0    0  501 -0.00000000000E+00  0.00000000000E+00  0.14062717801E+03  0.14062717803E+03  0.25500000000E-02 0.  1.
          2   -1    0    0  501    0  0.00000000000E+00 -0.00000000000E+00 -0.18020960980E+04  0.18020960980E+04  0.25500000000E-02 0. -1.
    8880022    1    1    2    0    0 -0.10517448967E+03  0.18688158521E+03 -0.29445939007E+01  0.26341359839E+03  0.15294330000E+03 0.  0.
    8880022    1    1    2    0    0  0.10517448967E+03 -0.18688158521E+03 -0.16585243261E+04  0.16793096777E+04  0.15294330000E+03 0.  0.
<mgrwt>
<rscale>  0 0.26339714E+03</rscale>
<asrwt>0</asrwt>
<pdfrwt beam="1">  1        2 0.27724554E+00 0.26339714E+03</pdfrwt>
<pdfrwt beam="2">  1       -2 0.21634952E-01 0.26339714E+03</pdfrwt>
<totfact> 0.17478614E+02</totfact>
</mgrwt>
</event>
<event>
 4    1  0.4840632E-008  0.2746313E+03  0.7818608E-02  0.1098658E+00
         -2   -1    0    0    0  501 -0.00000000000E+00  0.00000000000E+00  0.33707913108E+03  0.33707913109E+03  0.25500000000E-02 0.  1.
          2   -1    0    0  501    0  0.00000000000E+00 -0.00000000000E+00 -0.50835445453E+03  0.50835445453E+03  0.25500000000E-02 0. -1.
    8880022    1    1    2    0    0  0.14279696656E+03  0.17787553123E+03  0.23065203778E+03  0.35864006165E+03  0.15294330000E+03 0.  0.
    8880022    1    1    2    0    0 -0.14279696656E+03 -0.17787553123E+03 -0.40192736123E+03  0.48679352398E+03  0.15294330000E+03 0. -1.
<mgrwt>
<rscale>  0 0.27463126E+03</rscale>
<asrwt>0</asrwt>
<pdfrwt beam="1">  1        2 0.78208378E-01 0.27463126E+03</pdfrwt>
<pdfrwt beam="2">  1       -2 0.51858327E-01 0.27463126E+03</pdfrwt>
<totfact> 0.21987251E+02</totfact>
</mgrwt>
</event>
<event>
 4    1  0.4840632E-008  0.4511698E+03  0.7818608E-02  0.1027374E+00
          2   -1    0    0  501    0  0.00000000000E+00  0.00000000000E+00  0.11651271059E+04  0.11651271059E+04  0.25500000000E-02 0. -1.
         -2   -1    0    0    0  501 -0.00000000000E+00 -0.00000000000E+00 -0.32306395594E+03  0.32306395595E+03  0.25500000000E-02 0.  1.
    8880022    1    1    2    0    0 -0.35588576947E+03  0.23131765400E+03  0.92527529485E+03  0.10294117554E+04  0.15294330000E+03 0.  0.
    8880022    1    1    2    0    0  0.35588576947E+03 -0.23131765400E+03 -0.83212144855E+02  0.45877930645E+03  0.15294330000E+03 0.  0.
<mgrwt>
<rscale>  0 0.45116980E+03</rscale>
<asrwt>0</asrwt>
<pdfrwt beam="1">  1        2 0.17925032E+00 0.45116980E+03</pdfrwt>
<pdfrwt beam="2">  1       -2 0.49702147E-01 0.45116980E+03</pdfrwt>
<totfact> 0.79885691E+01</totfact>
</mgrwt>
</event>
<event>
 4    1  0.4840632E-008  0.1063545E+04  0.7818608E-02  0.9241470E-01
          2   -1    0    0  501    0  0.00000000000E+00  0.00000000000E+00  0.18050696792E+04  0.18050696792E+04  0.25500000000E-02 0. -1.
         -2   -1    0    0    0  501 -0.00000000000E+00 -0.00000000000E+00 -0.19173017323E+04  0.19173017323E+04  0.25500000000E-02 0.  1.
    8880022    1    1    2    0    0 -0.63755109851E+03  0.83741543648E+03 -0.15831574009E+04  0.19072270513E+04  0.15294330000E+03 0.  0.
    8880022    1    1    2    0    0  0.63755109851E+03 -0.83741543648E+03  0.14709253478E+04  0.18151443602E+04  0.15294330000E+03 0.  0.
<mgrwt>
<rscale>  0 0.10635449E+04</rscale>
<asrwt>0</asrwt>
<pdfrwt beam="1">  1        2 0.27770303E+00 0.10635449E+04</pdfrwt>
<pdfrwt beam="2">  1       -2 0.29496950E+00 0.10635449E+04</pdfrwt>
<totfact> 0.29142197E-01</totfact>
</mgrwt>
</event>
<event>
 4    1  0.4840632E-008  0.1930751E+03  0.7818608E-02  0.1155717E+00
          2   -1    0    0  501    0  0.00000000000E+00  0.00000000000E+00  0.20786564639E+03  0.20786564641E+03  0.25500000000E-02 0. -1.
         -2   -1    0    0    0  501 -0.00000000000E+00 -0.00000000000E+00 -0.84075025884E+03  0.84075025884E+03  0.25500000000E-02 0.  1.
    8880022    1    1    2    0    0 -0.11183491411E+03  0.37138766497E+02  0.14859672815E+03  0.24363697713E+03  0.15294330000E+03 0. -1.
    8880022    1    1    2    0    0  0.11183491411E+03 -0.37138766497E+02 -0.78148134060E+03  0.80497892812E+03  0.15294330000E+03 0.  0.
<mgrwt>
<rscale>  0 0.19307509E+03</rscale>
<asrwt>0</asrwt>
<pdfrwt beam="1">  1        2 0.31979331E-01 0.19307509E+03</pdfrwt>
<pdfrwt beam="2">  1       -2 0.12934619E+00 0.19307509E+03</pdfrwt>
<totfact> 0.76687545E+01</totfact>
</mgrwt>
</event>
<event>
 4    1  0.4840632E-008  0.7319140E+03  0.7818608E-02  0.9664160E-01
         -2   -1    0    0    0  501 -0.00000000000E+00  0.00000000000E+00  0.77038058141E+03  0.77038058141E+03  0.25500000000E-02 0.  1.
          2   -1    0    0  501    0  0.00000000000E+00 -0.00000000000E+00 -0.15710208349E+04  0.15710208349E+04  0.25500000000E-02 0. -1.
    8880022    1    1    2    0    0 -0.40517775381E+03  0.59003169343E+03 -0.12743391159E+04  0.14695707696E+04  0.15294330000E+03 0.  0.
    8880022    1    1    2    0    0  0.40517775381E+03 -0.59003169343E+03  0.47369886237E+03  0.87183064678E+03  0.15294330000E+03 0.  0.
<mgrwt>
<rscale>  0 0.73191397E+03</rscale>
<asrwt>0</asrwt>
<pdfrwt beam="1">  1        2 0.24169551E+00 0.73191397E+03</pdfrwt>
<pdfrwt beam="2">  1       -2 0.11852009E+00 0.73191397E+03</pdfrwt>
<totfact> 0.65249839E+00</totfact>
</mgrwt>
</event>
<event>
 4    1  0.4840632E-008  0.3353897E+03  0.7818608E-02  0.1068777E+00
          2   -1    0    0  501    0  0.00000000000E+00  0.00000000000E+00  0.20302191268E+04  0.20302191268E+04  0.25500000000E-02 0. -1.
         -2   -1    0    0    0  501 -0.00000000000E+00 -0.00000000000E+00 -0.84320766252E+02  0.84320766290E+02  0.25500000000E-02 0.  1.
    8880022    1    1    2    0    0 -0.14405439865E+03  0.26142483356E+03  0.35382372566E+03  0.48752178949E+03  0.15294330000E+03 0.  0.
    8880022    1    1    2    0    0  0.14405439865E+03 -0.26142483356E+03  0.15920746349E+04  0.16270181036E+04  0.15294330000E+03 0. -1.
<mgrwt>
<rscale>  0 0.33538972E+03</rscale>
<asrwt>0</asrwt>
<pdfrwt beam="1">  1        2 0.31234138E+00 0.33538972E+03</pdfrwt>
<pdfrwt beam="2">  1       -2 0.12972427E-01 0.33538972E+03</pdfrwt>
<totfact> 0.30893459E+02</totfact>
</mgrwt>
</event>
<event>
 4    1  0.4840632E-008  0.1899464E+03  0.7818608E-02  0.1158510E+00
         -2   -1    0    0    0  501 -0.00000000000E+00  0.00000000000E+00  0.12598426556E+03  0.12598426559E+03  0.25500000000E-02 0.  1.
          2   -1    0    0  501    0  0.00000000000E+00 -0.00000000000E+00 -0.20986551797E+04  0.20986551797E+04  0.25500000000E-02 0. -1.
    8880022    1    1    2    0    0  0.65872829688E+02 -0.91371499060E+02  0.47308377314E+02  0.19574911522E+03  0.15294330000E+03 0.  0.
    8880022    1    1    2    0    0 -0.65872829688E+02  0.91371499060E+02 -0.20199792914E+04  0.20288903300E+04  0.15294330000E+03 0. -1.
<mgrwt>
<rscale>  0 0.18994640E+03</rscale>
<asrwt>0</asrwt>
<pdfrwt beam="1">  1        2 0.32287000E+00 0.18994640E+03</pdfrwt>
<pdfrwt beam="2">  1       -2 0.19382196E-01 0.18994640E+03</pdfrwt>
<totfact> 0.15117618E+02</totfact>
</mgrwt>
</event>
<event>
 4    1  0.4840632E-008  0.5547198E+03  0.7818608E-02  0.1000407E+00
          2   -1    0    0  501    0  0.00000000000E+00  0.00000000000E+00  0.25570921979E+03  0.25570921980E+03  0.25500000000E-02 0. -1.
         -2   -1    0    0    0  501 -0.00000000000E+00 -0.00000000000E+00 -0.13711634950E+04  0.13711634950E+04  0.25500000000E-02 0.  1.
    8880022    1    1    2    0    0  0.26093330428E+03  0.46501210408E+03 -0.27317623827E+03  0.61833595755E+03  0.15294330000E+03 0.  0.
    8880022    1    1    2    0    0 -0.26093330428E+03 -0.46501210408E+03 -0.84227803699E+03  0.10085367573E+04  0.15294330000E+03 0.  0.
<mgrwt>
<rscale>  0 0.55471984E+03</rscale>
<asrwt>0</asrwt>
<pdfrwt beam="1">  1        2 0.39339881E-01 0.55471984E+03</pdfrwt>
<pdfrwt beam="2">  1       -2 0.21094823E+00 0.55471984E+03</pdfrwt>
<totfact> 0.15401917E+01</totfact>
</mgrwt>
</event>
<event>
 4    1  0.4840632E-008  0.3180031E+03  0.7818608E-02  0.1076572E+00
          2   -1    0    0  501    0  0.00000000000E+00  0.00000000000E+00  0.83907237746E+03  0.83907237747E+03  0.25500000000E-02 0. -1.
         -2   -1    0    0    0  501 -0.00000000000E+00 -0.00000000000E+00 -0.12611428983E+03  0.12611428985E+03  0.25500000000E-02 0.  1.
    8880022    1    1    2    0    0  0.87517943041E+01 -0.27867134097E+03  0.45811028376E+03  0.55766566622E+03  0.15294330000E+03 0.  1.
    8880022    1    1    2    0    0 -0.87517943041E+01  0.27867134097E+03  0.25484780388E+03  0.40752100110E+03  0.15294330000E+03 0.  0.
<mgrwt>
<rscale>  0 0.31800309E+03</rscale>
<asrwt>0</asrwt>
<pdfrwt beam="1">  1        2 0.12908806E+00 0.31800309E+03</pdfrwt>
<pdfrwt beam="2">  1       -2 0.19402198E-01 0.31800309E+03</pdfrwt>
<totfact> 0.73965708E+02</totfact>
</mgrwt>
</event>
<event>
 4    1  0.4840632E-008  0.4790383E+03  0.7818608E-02  0.1019400E+00
          2   -1    0    0  501    0  0.00000000000E+00  0.00000000000E+00  0.16363112657E+04  0.16363112657E+04  0.25500000000E-02 0. -1.
         -2   -1    0    0    0  501 -0.00000000000E+00 -0.00000000000E+00 -0.19509981142E+03  0.19509981144E+03  0.25500000000E-02 0.  1.
    8880022    1    1    2    0    0 -0.40076365529E+03 -0.21324751326E+03  0.12061750669E+04  0.12978196925E+04  0.15294330000E+03 0.  0.
    8880022    1    1    2    0    0  0.40076365529E+03  0.21324751326E+03  0.23503638736E+03  0.53359138459E+03  0.15294330000E+03 0.  0.
<mgrwt>
<rscale>  0 0.47903827E+03</rscale>
<asrwt>0</asrwt>
<pdfrwt beam="1">  1        2 0.25174018E+00 0.47903827E+03</pdfrwt>
<pdfrwt beam="2">  1       -2 0.30015357E-01 0.47903827E+03</pdfrwt>
<totfact> 0.11462210E+02</totfact>
</mgrwt>
</event>
<event>
 4    1  0.4840632E-008  0.7060266E+03  0.7818608E-02  0.9706981E-01
          2   -1    0    0  501    0  0.00000000000E+00  0.00000000000E+00  0.68777030130E+03  0.68777030131E+03  0.25500000000E-02 0. -1.
         -2   -1    0    0    0  501 -0.00000000000E+00 -0.00000000000E+00 -0.14854415022E+04  0.14854415022E+04  0.25500000000E-02 0.  1.
    8880022    1    1    2    0    0 -0.68289074258E+03 -0.93499075517E+02 -0.11764129415E+04  0.13720134494E+04  0.15294330000E+03 0.  0.
    8880022    1    1    2    0    0  0.68289074258E+03  0.93499075517E+02  0.37874174065E+03  0.80119835406E+03  0.15294330000E+03 0.  0.
<mgrwt>
<rscale>  0 0.70602656E+03</rscale>
<asrwt>0</asrwt>
<pdfrwt beam="1">  1        2 0.10581082E+00 0.70602656E+03</pdfrwt>
<pdfrwt beam="2">  1       -2 0.22852946E+00 0.70602656E+03</pdfrwt>
<totfact> 0.37779393E+00</totfact>
</mgrwt>
</event>
<event>
 4    1  0.4840632E-008  0.8350568E+03  0.7818608E-02  0.9510616E-01
          2   -1    0    0  501    0  0.00000000000E+00  0.00000000000E+00  0.27774420797E+04  0.27774420797E+04  0.25500000000E-02 0. -1.
         -2   -1    0    0    0  501 -0.00000000000E+00 -0.00000000000E+00 -0.56710959028E+03  0.56710959028E+03  0.25500000000E-02 0.  1.
    8880022    1    1    2    0    0  0.71832004556E+03 -0.39742231349E+03  0.23535504554E+04  0.24973024611E+04  0.15294330000E+03 0.  0.
    8880022    1    1    2    0    0 -0.71832004556E+03  0.39742231349E+03 -0.14321796600E+03  0.84724920886E+03  0.15294330000E+03 0.  0.
<mgrwt>
<rscale>  0 0.83505679E+03</rscale>
<asrwt>0</asrwt>
<pdfrwt beam="1">  1        2 0.42729878E+00 0.83505679E+03</pdfrwt>
<pdfrwt beam="2">  1       -2 0.87247631E-01 0.83505679E+03</pdfrwt>
<totfact> 0.28239849E+00</totfact>
</mgrwt>
</event>
<event>
 4    1  0.4840632E-008  0.1772423E+03  0.7818608E-02  0.1170499E+00
         -2   -1    0    0    0  501 -0.00000000000E+00  0.00000000000E+00  0.75118409240E+03  0.75118409241E+03  0.25500000000E-02 0.  1.
          2   -1    0    0  501    0  0.00000000000E+00 -0.00000000000E+00 -0.95411481675E+03  0.95411481676E+03  0.25500000000E-02 0. -1.
    8880022    1    1    2    0    0  0.82726244775E+02  0.34344600919E+02 -0.93521892275E+03  0.95186620366E+03  0.15294330000E+03 0. -1.
    8880022    1    1    2    0    0 -0.82726244775E+02 -0.34344600919E+02  0.73228819840E+03  0.75343270550E+03  0.15294330000E+03 0.  0.
<mgrwt>
<rscale>  0 0.17724231E+03</rscale>
<asrwt>0</asrwt>
<pdfrwt beam="1">  1        2 0.14678690E+00 0.17724231E+03</pdfrwt>
<pdfrwt beam="2">  1       -2 0.11556678E+00 0.17724231E+03</pdfrwt>
<totfact> 0.17962968E+01</totfact>
</mgrwt>
</event>
<event>
 4    1  0.4840632E-008  0.1821309E+03  0.7818608E-02  0.1165757E+00
         -2   -1    0    0    0  501 -0.00000000000E+00  0.00000000000E+00  0.73648001462E+02  0.73648001506E+02  0.25500000000E-02 0.  1.
          2   -1    0    0  501    0  0.00000000000E+00 -0.00000000000E+00 -0.11666671711E+04  0.11666671711E+04  0.25500000000E-02 0. -1.
    8880022    1    1    2    0    0  0.98492857079E+02 -0.88981429033E+01 -0.60590930414E+02  0.19194513202E+03  0.15294330000E+03 0.  0.
    8880022    1    1    2    0    0 -0.98492857079E+02  0.88981429033E+01 -0.10324282393E+04  0.10483700406E+04  0.15294330000E+03 0.  0.
<mgrwt>
<rscale>  0 0.18213092E+03</rscale>
<asrwt>0</asrwt>
<pdfrwt beam="1">  1        2 0.17948724E+00 0.18213092E+03</pdfrwt>
<pdfrwt beam="2">  1       -2 0.11330463E-01 0.18213092E+03</pdfrwt>
<totfact> 0.11390231E+03</totfact>
</mgrwt>
</event>
<event>
 4    1  0.4840632E-008  0.4244016E+03  0.7818608E-02  0.1035643E+00
         -2   -1    0    0    0  501 -0.00000000000E+00  0.00000000000E+00  0.83655154353E+03  0.83655154353E+03  0.25500000000E-02 0.  1.
          2   -1    0    0  501    0  0.00000000000E+00 -0.00000000000E+00 -0.57898852052E+03  0.57898852053E+03  0.25500000000E-02 0. -1.
    8880022    1    1    2    0    0 -0.39018513626E+03  0.66937502130E+02  0.68972210376E+03  0.80983535560E+03  0.15294330000E+03 0.  0.
    8880022    1    1    2    0    0  0.39018513626E+03 -0.66937502130E+02 -0.43215908075E+03  0.60570470846E+03  0.15294330000E+03 0. -1.
<mgrwt>
<rscale>  0 0.42440161E+03</rscale>
<asrwt>0</asrwt>
<pdfrwt beam="1">  1        2 0.89075157E-01 0.42440161E+03</pdfrwt>
<pdfrwt beam="2">  1       -2 0.12870024E+00 0.42440161E+03</pdfrwt>
<totfact> 0.24237816E+01</totfact>
</mgrwt>
</event>
<event>
 4    1  0.4840632E-008  0.6716836E+03  0.7818608E-02  0.9766921E-01
         -2   -1    0    0    0  501 -0.00000000000E+00  0.00000000000E+00  0.23003605178E+04  0.23003605178E+04  0.25500000000E-02 0.  1.
          2   -1    0    0  501    0  0.00000000000E+00 -0.00000000000E+00 -0.42772089916E+03  0.42772089916E+03  0.25500000000E-02 0. -1.
    8880022    1    1    2    0    0  0.39651193951E+03  0.52013991861E+03  0.19400390363E+04  0.20530246878E+04  0.15294330000E+03 0.  0.
    8880022    1    1    2    0    0 -0.39651193951E+03 -0.52013991861E+03 -0.67399417685E+02  0.67505672919E+03  0.15294330000E+03 0.  0.
<mgrwt>
<rscale>  0 0.67168364E+03</rscale>
<asrwt>0</asrwt>
<pdfrwt beam="1">  1        2 0.65803216E-01 0.67168364E+03</pdfrwt>
<pdfrwt beam="2">  1       -2 0.35390161E+00 0.67168364E+03</pdfrwt>
<totfact> 0.11588530E+00</totfact>
</mgrwt>
</event>
<event>
 4    1  0.4840632E-008  0.2919207E+03  0.7818608E-02  0.1089351E+00
          2   -1    0    0  501    0  0.00000000000E+00  0.00000000000E+00  0.20356485840E+04  0.20356485840E+04  0.25500000000E-02 0. -1.
         -2   -1    0    0    0  501 -0.00000000000E+00 -0.00000000000E+00 -0.63833466164E+02  0.63833466215E+02  0.25500000000E-02 0.  1.
    8880022    1    1    2    0    0  0.19003794281E+03  0.16034842597E+03  0.37004921840E+03  0.47133227608E+03  0.15294330000E+03 0.  1.
    8880022    1    1    2    0    0 -0.19003794281E+03 -0.16034842597E+03  0.16017658995E+04  0.16281497742E+04  0.15294330000E+03 0.  0.
<mgrwt>
<rscale>  0 0.29192069E+03</rscale>
<asrwt>0</asrwt>
<pdfrwt beam="1">  1        2 0.31317675E+00 0.29192069E+03</pdfrwt>
<pdfrwt beam="2">  1       -2 0.98205320E-02 0.29192069E+03</pdfrwt>
<totfact> 0.48513913E+02</totfact>
</mgrwt>
</event>
<event>
 4    1  0.4840632E-008  0.6181096E+03  0.7818608E-02  0.9868531E-01
         -2   -1    0    0    0  501 -0.00000000000E+00  0.00000000000E+00  0.11781525627E+04  0.11781525627E+04  0.25500000000E-02 0.  1.
          2   -1    0    0  501    0  0.00000000000E+00 -0.00000000000E+00 -0.50363068529E+03  0.50363068530E+03  0.25500000000E-02 0. -1.
    8880022    1    1    2    0    0 -0.73866487381E+01 -0.59884328233E+03 -0.16453489311E+03  0.63963366346E+03  0.15294330000E+03 0.  0.
    8880022    1    1    2    0    0  0.73866487381E+01  0.59884328233E+03  0.83905677048E+03  0.10421495845E+04  0.15294330000E+03 0.  0.
<mgrwt>
<rscale>  0 0.61810961E+03</rscale>
<asrwt>0</asrwt>
<pdfrwt beam="1">  1        2 0.77481645E-01 0.61810961E+03</pdfrwt>
<pdfrwt beam="2">  1       -2 0.18125424E+00 0.61810961E+03</pdfrwt>
<totfact> 0.11201207E+01</totfact>
</mgrwt>
</event>
<event>
 4    1  0.4840632E-008  0.3104867E+03  0.7818608E-02  0.1080113E+00
          2   -1    0    0  501    0  0.00000000000E+00  0.00000000000E+00  0.99987715621E+03  0.99987715621E+03  0.25500000000E-02 0. -1.
         -2   -1    0    0    0  501 -0.00000000000E+00 -0.00000000000E+00 -0.14029344294E+03  0.14029344297E+03  0.25500000000E-02 0.  1.
    8880022    1    1    2    0    0 -0.98160318993E+02  0.25174368111E+03  0.74861700406E+03  0.81045012245E+03  0.15294330000E+03 0. -1.
    8880022    1    1    2    0    0  0.98160318993E+02 -0.25174368111E+03  0.11096670921E+03  0.32972047673E+03  0.15294330000E+03 0.  0.
<mgrwt>
<rscale>  0 0.31048669E+03</rscale>
<asrwt>0</asrwt>
<pdfrwt beam="1">  1        2 0.15382725E+00 0.31048669E+03</pdfrwt>
<pdfrwt beam="2">  1       -2 0.21583607E-01 0.31048669E+03</pdfrwt>
<totfact> 0.48457235E+02</totfact>
</mgrwt>
</event>
<event>
 4    1  0.5173943E-008  0.7348998E+03  0.7818608E-02  0.9659343E-01
         -2   -1    0    0    0  501 -0.00000000000E+00  0.00000000000E+00  0.16908365168E+04  0.16908365168E+04  0.25500000000E-02 0.  1.
          2   -1    0    0  501    0  0.00000000000E+00 -0.00000000000E+00 -0.19138560094E+04  0.19138560094E+04  0.25500000000E-02 0. -1.
    8880022    1    1    2    0    0 -0.60430708619E+03  0.38922870360E+03  0.15335735672E+04  0.17005662519E+04  0.15294330000E+03 0.  1.
    8880022    1    1    2    0    0  0.60430708619E+03 -0.38922870360E+03 -0.17565930598E+04  0.19041262744E+04  0.15294330000E+03 0.  0.
<mgrwt>
<rscale>  0 0.73489978E+03</rscale>
<asrwt>0</asrwt>
<pdfrwt beam="1">  1        2 0.29443939E+00 0.73489978E+03</pdfrwt>
<pdfrwt beam="2">  1       -2 0.26012869E+00 0.73489978E+03</pdfrwt>
<totfact> 0.43945463E-01</totfact>
</mgrwt>
</event>
<event>
 4    1  0.4840632E-008  0.3291755E+03  0.7818608E-02  0.1071502E+00
         -2   -1    0    0    0  501 -0.00000000000E+00  0.00000000000E+00  0.15804134127E+03  0.15804134129E+03  0.25500000000E-02 0.  1.
          2   -1    0    0  501    0  0.00000000000E+00 -0.00000000000E+00 -0.19296062103E+04  0.19296062103E+04  0.25500000000E-02 0. -1.
    8880022    1    1    2    0    0 -0.28693635551E+03  0.51306680486E+02 -0.17238912469E+04  0.17550377579E+04  0.15294330000E+03 0.  0.
    8880022    1    1    2    0    0  0.28693635551E+03 -0.51306680486E+02 -0.47673622111E+02  0.33260979365E+03  0.15294330000E+03 0.  0.
<mgrwt>
<rscale>  0 0.32917549E+03</rscale>
<asrwt>0</asrwt>
<pdfrwt beam="1">  1        2 0.29686248E+00 0.32917549E+03</pdfrwt>
<pdfrwt beam="2">  1       -2 0.24314054E-01 0.32917549E+03</pdfrwt>
<totfact> 0.12012020E+02</totfact>
</mgrwt>
</event>
<event>
 4    1  0.4840632E-008  0.2879325E+03  0.7818608E-02  0.1091434E+00
          2   -1    0    0  501    0  0.00000000000E+00  0.00000000000E+00  0.29697238273E+04  0.29697238273E+04  0.25500000000E-02 0. -1.
         -2   -1    0    0    0  501 -0.00000000000E+00 -0.00000000000E+00 -0.30552158729E+02  0.30552158835E+02  0.25500000000E-02 0.  1.
    8880022    1    1    2    0    0 -0.20873974919E+03 -0.12625849346E+03  0.19101724791E+04  0.19317515480E+04  0.15294330000E+03 0.  0.
    8880022    1    1    2    0    0  0.20873974919E+03  0.12625849346E+03  0.10289991895E+04  0.10685244382E+04  0.15294330000E+03 0.  0.
<mgrwt>
<rscale>  0 0.28793253E+03</rscale>
<asrwt>0</asrwt>
<pdfrwt beam="1">  1        2 0.45688061E+00 0.28793253E+03</pdfrwt>
<pdfrwt beam="2">  1       -2 0.47003319E-02 0.28793253E+03</pdfrwt>
<totfact> 0.46536976E+02</totfact>
</mgrwt>
</event>
<event>
 4    1  0.4840632E-008  0.6859633E+03  0.7818608E-02  0.9741542E-01
          2   -1    0    0  501    0  0.00000000000E+00  0.00000000000E+00  0.86167892476E+03  0.86167892476E+03  0.25500000000E-02 0. -1.
         -2   -1    0    0    0  501 -0.00000000000E+00 -0.00000000000E+00 -0.10787143003E+04  0.10787143003E+04  0.25500000000E-02 0.  1.
    8880022    1    1    2    0    0  0.28771759201E+03 -0.60363286215E+03  0.57322590909E+03  0.89394275034E+03  0.15294330000E+03 0.  0.
    8880022    1    1    2    0    0 -0.28771759201E+03  0.60363286215E+03 -0.79026128463E+03  0.10464504747E+04  0.15294330000E+03 0.  1.
<mgrwt>
<rscale>  0 0.68596334E+03</rscale>
<asrwt>0</asrwt>
<pdfrwt beam="1">  1        2 0.13256599E+00 0.68596334E+03</pdfrwt>
<pdfrwt beam="2">  1       -2 0.16595605E+00 0.68596334E+03</pdfrwt>
<totfact> 0.72868106E+00</totfact>
</mgrwt>
</event>
<event>
 4    1  0.4840632E-008  0.3435889E+03  0.7818608E-02  0.1065278E+00
          2   -1    0    0  501    0  0.00000000000E+00  0.00000000000E+00  0.28083563849E+04  0.28083563849E+04  0.25500000000E-02 0. -1.
         -2   -1    0    0    0  501 -0.00000000000E+00 -0.00000000000E+00 -0.49683363262E+02  0.49683363328E+02  0.25500000000E-02 0.  1.
    8880022    1    1    2    0    0  0.23902533160E+03  0.19372292480E+03  0.81870713788E+03  0.88788214949E+03  0.15294330000E+03 0.  0.
    8880022    1    1    2    0    0 -0.23902533160E+03 -0.19372292480E+03  0.19399658837E+04  0.19701575987E+04  0.15294330000E+03 0.  0.
<mgrwt>
<rscale>  0 0.34358890E+03</rscale>
<asrwt>0</asrwt>
<pdfrwt beam="1">  1        2 0.43205489E+00 0.34358890E+03</pdfrwt>
<pdfrwt beam="2">  1       -2 0.76435932E-02 0.34358890E+03</pdfrwt>
<totfact> 0.26911551E+02</totfact>
</mgrwt>
</event>
<event>
 4    1  0.4840632E-008  0.6409258E+03  0.7818608E-02  0.9823957E-01
          2   -1    0    0  501    0  0.00000000000E+00  0.00000000000E+00  0.11537971342E+04  0.11537971342E+04  0.25500000000E-02 0. -1.
         -2   -1    0    0    0  501 -0.00000000000E+00 -0.00000000000E+00 -0.69705396370E+03  0.69705396371E+03  0.25500000000E-02 0.  1.
    8880022    1    1    2    0    0 -0.59808126706E+03  0.17231679465E+03  0.87566470078E+03  0.10851610945E+04  0.15294330000E+03 0.  0.
    8880022    1    1    2    0    0  0.59808126706E+03 -0.17231679465E+03 -0.41892153032E+03  0.76569000341E+03  0.15294330000E+03 0.  1.
<mgrwt>
<rscale>  0 0.64092584E+03</rscale>
<asrwt>0</asrwt>
<pdfrwt beam="1">  1        2 0.17750725E+00 0.64092584E+03</pdfrwt>
<pdfrwt beam="2">  1       -2 0.10723907E+00 0.64092584E+03</pdfrwt>
<totfact> 0.14574576E+01</totfact>
</mgrwt>
</event>
<event>
 4    1  0.4840632E-008  0.1306400E+04  0.7818608E-02  0.9024506E-01
         -2   -1    0    0    0  501 -0.00000000000E+00  0.00000000000E+00  0.17853639834E+04  0.17853639834E+04  0.25500000000E-02 0.  1.
          2   -1    0    0  501    0  0.00000000000E+00 -0.00000000000E+00 -0.15118056972E+04  0.15118056972E+04  0.25500000000E-02 0. -1.
    8880022    1    1    2    0    0  0.82288954691E+03 -0.10030657923E+04  0.11364403655E+04  0.17315243422E+04  0.15294330000E+03 0.  0.
    8880022    1    1    2    0    0 -0.82288954691E+03  0.10030657923E+04 -0.86288207931E+03  0.15656453385E+04  0.15294330000E+03 0.  0.
<mgrwt>
<rscale>  0 0.13063996E+04</rscale>
<asrwt>0</asrwt>
<pdfrwt beam="1">  1        2 0.23258549E+00 0.13063996E+04</pdfrwt>
<pdfrwt beam="2">  1       -2 0.27467138E+00 0.13063996E+04</pdfrwt>
<totfact> 0.54501613E-01</totfact>
</mgrwt>
</event>
<event>
 4    1  0.4840632E-008  0.1018691E+04  0.7818608E-02  0.9288279E-01
         -2   -1    0    0    0  501 -0.00000000000E+00  0.00000000000E+00  0.69218423290E+03  0.69218423290E+03  0.25500000000E-02 0.  1.
          2   -1    0    0  501    0  0.00000000000E+00 -0.00000000000E+00 -0.21756409620E+04  0.21756409620E+04  0.25500000000E-02 0. -1.
    8880022    1    1    2    0    0  0.53441679951E+03 -0.85366197220E+03 -0.15412676026E+04  0.18474949403E+04  0.15294330000E+03 0.  0.
    8880022    1    1    2    0    0 -0.53441679951E+03  0.85366197220E+03  0.57810873543E+02  0.10203302546E+04  0.15294330000E+03 0.  0.
<mgrwt>
<rscale>  0 0.10186912E+04</rscale>
<asrwt>0</asrwt>
<pdfrwt beam="1">  1        2 0.33471399E+00 0.10186912E+04</pdfrwt>
<pdfrwt beam="2">  1       -2 0.10648988E+00 0.10186912E+04</pdfrwt>
<totfact> 0.37873143E+00</totfact>
</mgrwt>
</event>
<event>
 4    1  0.4840632E-008  0.9806791E+03  0.7818608E-02  0.9329993E-01
         -2   -1    0    0    0  501 -0.00000000000E+00  0.00000000000E+00  0.64066901742E+03  0.64066901743E+03  0.25500000000E-02 0.  1.
          2   -1    0    0  501    0  0.00000000000E+00 -0.00000000000E+00 -0.24095618287E+04  0.24095618287E+04  0.25500000000E-02 0. -1.
    8880022    1    1    2    0    0  0.82274125084E+03 -0.51130885019E+03  0.51990078230E+02  0.98205627505E+03  0.15294330000E+03 0.  0.
    8880022    1    1    2    0    0 -0.82274125084E+03  0.51130885019E+03 -0.18208828895E+04  0.20681745711E+04  0.15294330000E+03 0.  0.
<mgrwt>
<rscale>  0 0.98067913E+03</rscale>
<asrwt>0</asrwt>
<pdfrwt beam="1">  1        2 0.37070182E+00 0.98067913E+03</pdfrwt>
<pdfrwt beam="2">  1       -2 0.98564465E-01 0.98067913E+03</pdfrwt>
<totfact> 0.33880078E+00</totfact>
</mgrwt>
</event>
<event>
 4    1  0.4840632E-008  0.1917156E+03  0.7818608E-02  0.1156923E+00
          2   -1    0    0  501    0  0.00000000000E+00  0.00000000000E+00  0.25851289563E+03  0.25851289564E+03  0.25500000000E-02 0. -1.
         -2   -1    0    0    0  501 -0.00000000000E+00 -0.00000000000E+00 -0.30562229546E+03  0.30562229547E+03  0.25500000000E-02 0.  1.
    8880022    1    1    2    0    0  0.49807095419E+02 -0.10431910938E+03  0.18271973688E+03  0.26484217677E+03  0.15294330000E+03 0.  0.
    8880022    1    1    2    0    0 -0.49807095419E+02  0.10431910938E+03 -0.22982913672E+03  0.29929301434E+03  0.15294330000E+03 0.  0.
<mgrwt>
<rscale>  0 0.19171561E+03</rscale>
<asrwt>0</asrwt>
<pdfrwt beam="1">  1        2 0.39771215E-01 0.19171561E+03</pdfrwt>
<pdfrwt beam="2">  1       -2 0.47018815E-01 0.19171561E+03</pdfrwt>
<totfact> 0.55959604E+02</totfact>
</mgrwt>
</event>
<event>
 4    1  0.4840632E-008  0.9962369E+03  0.7818608E-02  0.9312682E-01
         -2   -1    0    0    0  501 -0.00000000000E+00  0.00000000000E+00  0.84161048725E+03  0.84161048725E+03  0.25500000000E-02 0.  1.
          2   -1    0    0  501    0  0.00000000000E+00 -0.00000000000E+00 -0.12408713804E+04  0.12408713804E+04  0.25500000000E-02 0. -1.
    8880022    1    1    2    0    0  0.92995937224E+03  0.32291162985E+03  0.32362434741E+02  0.99676242651E+03  0.15294330000E+03 0.  0.
    8880022    1    1    2    0    0 -0.92995937224E+03 -0.32291162985E+03 -0.43162332792E+03  0.10857194412E+04  0.15294330000E+03 0.  0.
<mgrwt>
<rscale>  0 0.99623692E+03</rscale>
<asrwt>0</asrwt>
<pdfrwt beam="1">  1        2 0.19090329E+00 0.99623692E+03</pdfrwt>
<pdfrwt beam="2">  1       -2 0.12947854E+00 0.99623692E+03</pdfrwt>
<totfact> 0.77994769E+00</totfact>
</mgrwt>
</event>
<event>
 4    1  0.4840632E-008  0.8046608E+03  0.7818608E-02  0.9553295E-01
         -2   -1    0    0    0  501 -0.00000000000E+00  0.00000000000E+00  0.51049183490E+03  0.51049183491E+03  0.25500000000E-02 0.  1.
          2   -1    0    0  501    0  0.00000000000E+00 -0.00000000000E+00 -0.19288170521E+04  0.19288170521E+04  0.25500000000E-02 0. -1.
    8880022    1    1    2    0    0  0.14029799286E+03 -0.77743412142E+03  0.45428273895E+01  0.80467361722E+03  0.15294330000E+03 0.  0.
    8880022    1    1    2    0    0 -0.14029799286E+03  0.77743412142E+03 -0.14228680446E+04  0.16346352698E+04  0.15294330000E+03 0. -1.
<mgrwt>
<rscale>  0 0.80466079E+03</rscale>
<asrwt>0</asrwt>
<pdfrwt beam="1">  1        2 0.29674108E+00 0.80466079E+03</pdfrwt>
<pdfrwt beam="2">  1       -2 0.78537206E-01 0.80466079E+03</pdfrwt>
<totfact> 0.10814814E+01</totfact>
</mgrwt>
</event>
<event>
 4    1  0.4840632E-008  0.2540696E+03  0.7818608E-02  0.1110760E+00
         -2   -1    0    0    0  501 -0.00000000000E+00  0.00000000000E+00  0.27997094636E+03  0.27997094637E+03  0.25500000000E-02 0.  1.
          2   -1    0    0  501    0  0.00000000000E+00 -0.00000000000E+00 -0.26501061556E+03  0.26501061558E+03  0.25500000000E-02 0. -1.
    8880022    1    1    2    0    0  0.17955926786E+03  0.94436154655E+02 -0.90760226511E+02  0.26979397642E+03  0.15294330000E+03 0.  0.
    8880022    1    1    2    0    0 -0.17955926786E+03 -0.94436154655E+02  0.10572055731E+03  0.27518758553E+03  0.15294330000E+03 0.  0.
<mgrwt>
<rscale>  0 0.25406962E+03</rscale>
<asrwt>0</asrwt>
<pdfrwt beam="1">  1        2 0.40770864E-01 0.25406962E+03</pdfrwt>
<pdfrwt beam="2">  1       -2 0.43072454E-01 0.25406962E+03</pdfrwt>
<totfact> 0.64767419E+02</totfact>
</mgrwt>
</event>
<event>
 4    1  0.4840632E-008  0.3268546E+03  0.7818608E-02  0.1072537E+00
         -2   -1    0    0    0  501 -0.00000000000E+00  0.00000000000E+00  0.52217587029E+02  0.52217587091E+02  0.25500000000E-02 0.  1.
          2   -1    0    0  501    0  0.00000000000E+00 -0.00000000000E+00 -0.25263246509E+04  0.25263246509E+04  0.25500000000E-02 0. -1.
    8880022    1    1    2    0    0  0.62542086233E+02 -0.28201204259E+03 -0.17992589606E+04  0.18287063091E+04  0.15294330000E+03 0.  0.
    8880022    1    1    2    0    0 -0.62542086233E+02  0.28201204259E+03 -0.67484810325E+03  0.74983592885E+03  0.15294330000E+03 0. -1.
<mgrwt>
<rscale>  0 0.32685464E+03</rscale>
<asrwt>0</asrwt>
<pdfrwt beam="1">  1        2 0.38866524E+00 0.32685464E+03</pdfrwt>
<pdfrwt beam="2">  1       -2 0.80334769E-02 0.32685464E+03</pdfrwt>
<totfact> 0.36043333E+02</totfact>
</mgrwt>
</event>
<event>
 4    1  0.4840632E-008  0.8042359E+03  0.7818608E-02  0.9553906E-01
          2   -1    0    0  501    0  0.00000000000E+00  0.00000000000E+00  0.26168627429E+04  0.26168627429E+04  0.25500000000E-02 0. -1.
         -2   -1    0    0    0  501 -0.00000000000E+00 -0.00000000000E+00 -0.33578347597E+03  0.33578347598E+03  0.25500000000E-02 0.  1.
    8880022    1    1    2    0    0  0.66805485130E+03  0.42084019366E+03  0.38211002999E+03  0.89039512632E+03  0.15294330000E+03 0.  0.
    8880022    1    1    2    0    0 -0.66805485130E+03 -0.42084019366E+03  0.18989692369E+04  0.20622510926E+04  0.15294330000E+03 0.  0.
<mgrwt>
<rscale>  0 0.80423591E+03</rscale>
<asrwt>0</asrwt>
<pdfrwt beam="1">  1        2 0.40259428E+00 0.80423591E+03</pdfrwt>
<pdfrwt beam="2">  1       -2 0.51658995E-01 0.80423591E+03</pdfrwt>
<totfact> 0.10973688E+01</totfact>
</mgrwt>
</event>
<event>
 4    1  0.4840632E-008  0.3106408E+03  0.7818608E-02  0.1080039E+00
         -2   -1    0    0    0  501 -0.00000000000E+00  0.00000000000E+00  0.64420491687E+03  0.64420491687E+03  0.25500000000E-02 0.  1.
          2   -1    0    0  501    0  0.00000000000E+00 -0.00000000000E+00 -0.10644631334E+04  0.10644631334E+04  0.25500000000E-02 0. -1.
    8880022    1    1    2    0    0 -0.18874022477E+03 -0.19360576855E+03 -0.10020731900E+04  0.10491179139E+04  0.15294330000E+03 0. -1.
    8880022    1    1    2    0    0  0.18874022477E+03  0.19360576855E+03  0.58181497347E+03  0.65955013641E+03  0.15294330000E+03 0.  0.
<mgrwt>
<rscale>  0 0.31064082E+03</rscale>
<asrwt>0</asrwt>
<pdfrwt beam="1">  1        2 0.16376356E+00 0.31064082E+03</pdfrwt>
<pdfrwt beam="2">  1       -2 0.99108449E-01 0.31064082E+03</pdfrwt>
<totfact> 0.21132342E+01</totfact>
</mgrwt>
</event>
<event>
 4    1  0.4840632E-008  0.6081481E+03  0.7818608E-02  0.9888644E-01
          2   -1    0    0  501    0  0.00000000000E+00  0.00000000000E+00  0.24331766075E+04  0.24331766075E+04  0.25500000000E-02 0. -1.
         -2   -1    0    0    0  501 -0.00000000000E+00 -0.00000000000E+00 -0.29616757916E+03  0.29616757917E+03  0.25500000000E-02 0.  1.
    8880022    1    1    2    0    0 -0.14746762553E+02  0.58841739031E+03  0.20206264052E+04  0.21101599974E+04  0.15294330000E+03 0.  0.
    8880022    1    1    2    0    0  0.14746762553E+02 -0.58841739031E+03  0.11638262311E+03  0.61918418924E+03  0.15294330000E+03 0.  0.
<mgrwt>
<rscale>  0 0.60814813E+03</rscale>
<asrwt>0</asrwt>
<pdfrwt beam="1">  1        2 0.37433487E+00 0.60814813E+03</pdfrwt>
<pdfrwt beam="2">  1       -2 0.45564243E-01 0.60814813E+03</pdfrwt>
<totfact> 0.18596312E+01</totfact>
</mgrwt>
</event>
<event>
 4    1  0.4840632E-008  0.1202456E+04  0.7818608E-02  0.9110710E-01
         -2   -1    0    0    0  501 -0.00000000000E+00  0.00000000000E+00  0.12591958087E+04  0.12591958087E+04  0.25500000000E-02 0.  1.
          2   -1    0    0  501    0  0.00000000000E+00 -0.00000000000E+00 -0.29495105127E+04  0.29495105127E+04  0.25500000000E-02 0. -1.
    8880022    1    1    2    0    0 -0.37336424397E+03  0.11327433710E+04  0.79932490113E+03  0.14438907001E+04  0.15294330000E+03 0.  0.
    8880022    1    1    2    0    0  0.37336424397E+03 -0.11327433710E+04 -0.24896396052E+04  0.27648156213E+04  0.15294330000E+03 0.  0.
<mgrwt>
<rscale>  0 0.12024558E+04</rscale>
<asrwt>0</asrwt>
<pdfrwt beam="1">  1        2 0.45377085E+00 0.12024558E+04</pdfrwt>
<pdfrwt beam="2">  1       -2 0.19372243E+00 0.12024558E+04</pdfrwt>
<totfact> 0.26901619E-01</totfact>
</mgrwt>
</event>
<event>
 4    1  0.6240941E-008  0.5635927E+03  0.7818608E-02  0.9983958E-01
         -2   -1    0    0    0  501 -0.00000000000E+00  0.00000000000E+00  0.13673714339E+04  0.13673714339E+04  0.25500000000E-02 0.  1.
          2   -1    0    0  501    0  0.00000000000E+00 -0.00000000000E+00 -0.12481622612E+04  0.12481622612E+04  0.25500000000E-02 0. -1.
    8880022    1    1    2    0    0  0.18761208156E+02 -0.54211909974E+03  0.12394165094E+04  0.13615395837E+04  0.15294330000E+03 0.  0.
    8880022    1    1    2    0    0 -0.18761208156E+02  0.54211909974E+03 -0.11202073367E+04  0.12539941114E+04  0.15294330000E+03 0.  0.
<mgrwt>
<rscale>  0 0.56359272E+03</rscale>
<asrwt>0</asrwt>
<pdfrwt beam="1">  1        2 0.19202496E+00 0.56359272E+03</pdfrwt>
<pdfrwt beam="2">  1       -2 0.21036484E+00 0.56359272E+03</pdfrwt>
<totfact> 0.21562512E+00</totfact>
</mgrwt>
</event>
<event>
 4    1  0.4840632E-008  0.5105472E+03  0.7818608E-02  0.1011062E+00
         -2   -1    0    0    0  501 -0.00000000000E+00  0.00000000000E+00  0.49924889832E+03  0.49924889832E+03  0.25500000000E-02 0.  1.
          2   -1    0    0  501    0  0.00000000000E+00 -0.00000000000E+00 -0.10107393278E+04  0.10107393278E+04  0.25500000000E-02 0. -1.
    8880022    1    1    2    0    0  0.47998093727E+03 -0.82976354000E+02  0.26920446729E+03  0.57717369456E+03  0.15294330000E+03 0.  0.
    8880022    1    1    2    0    0 -0.47998093727E+03  0.82976354000E+02 -0.78069489680E+03  0.93281453160E+03  0.15294330000E+03 0.  0.
<mgrwt>
<rscale>  0 0.51054719E+03</rscale>
<asrwt>0</asrwt>
<pdfrwt beam="1">  1        2 0.15549836E+00 0.51054719E+03</pdfrwt>
<pdfrwt beam="2">  1       -2 0.76807523E-01 0.51054719E+03</pdfrwt>
<totfact> 0.39176432E+01</totfact>
</mgrwt>
</event>
<event>
 4    1  0.4840632E-008  0.5479253E+03  0.7818608E-02  0.1001975E+00
          2   -1    0    0  501    0  0.00000000000E+00  0.00000000000E+00  0.25972523746E+04  0.25972523746E+04  0.25500000000E-02 0. -1.
         -2   -1    0    0    0  501 -0.00000000000E+00 -0.00000000000E+00 -0.31259441618E+03  0.31259441619E+03  0.25500000000E-02 0.  1.
    8880022    1    1    2    0    0 -0.49856676527E+03  0.16811204127E+03 -0.12679224749E+02  0.54807197849E+03  0.15294330000E+03 0.  0.
    8880022    1    1    2    0    0  0.49856676527E+03 -0.16811204127E+03  0.22973371832E+04  0.23617748123E+04  0.15294330000E+03 0.  0.
<mgrwt>
<rscale>  0 0.54792530E+03</rscale>
<asrwt>0</asrwt>
<pdfrwt beam="1">  1        2 0.39957728E+00 0.54792530E+03</pdfrwt>
<pdfrwt beam="2">  1       -2 0.48091449E-01 0.54792530E+03</pdfrwt>
<totfact> 0.13662383E+01</totfact>
</mgrwt>
</event>
<event>
 4    1  0.4840632E-008  0.1576536E+03  0.7818608E-02  0.1191372E+00
         -2   -1    0    0    0  501 -0.00000000000E+00  0.00000000000E+00  0.30384090284E+02  0.30384090391E+02  0.25500000000E-02 0.  1.
          2   -1    0    0  501    0  0.00000000000E+00 -0.00000000000E+00 -0.25490513220E+04  0.25490513220E+04  0.25500000000E-02 0. -1.
    8880022    1    1    2    0    0 -0.13496670483E+01  0.38225528413E+02 -0.19651693074E+03  0.25193961520E+03  0.15294330000E+03 0.  0.
    8880022    1    1    2    0    0  0.13496670483E+01 -0.38225528413E+02 -0.23221503010E+04  0.23274957972E+04  0.15294330000E+03 0. -1.
<mgrwt>
<rscale>  0 0.15765363E+03</rscale>
<asrwt>0</asrwt>
<pdfrwt beam="1">  1        2 0.39216157E+00 0.15765363E+03</pdfrwt>
<pdfrwt beam="2">  1       -2 0.46744775E-02 0.15765363E+03</pdfrwt>
<totfact> 0.83811879E+02</totfact>
</mgrwt>
</event>
<event>
 4    1  0.4840632E-008  0.3569674E+03  0.7818608E-02  0.1059791E+00
          2   -1    0    0  501    0  0.00000000000E+00  0.00000000000E+00  0.15583175972E+04  0.15583175972E+04  0.25500000000E-02 0. -1.
         -2   -1    0    0    0  501 -0.00000000000E+00 -0.00000000000E+00 -0.25693247144E+03  0.25693247145E+03  0.25500000000E-02 0.  1.
    8880022    1    1    2    0    0  0.96351755209E+02 -0.30781555232E+03  0.14000962612E+04  0.14448859015E+04  0.15294330000E+03 0.  0.
    8880022    1    1    2    0    0 -0.96351755209E+02  0.30781555232E+03 -0.98711135418E+02  0.37036416708E+03  0.15294330000E+03 0.  0.
<mgrwt>
<rscale>  0 0.35696740E+03</rscale>
<asrwt>0</asrwt>
<pdfrwt beam="1">  1        2 0.23974117E+00 0.35696740E+03</pdfrwt>
<pdfrwt beam="2">  1       -2 0.39528073E-01 0.35696740E+03</pdfrwt>
<totfact> 0.76845527E+01</totfact>
</mgrwt>
</event>
<event>
 4    1  0.4840632E-008  0.2751468E+03  0.7818608E-02  0.1098370E+00
          2   -1    0    0  501    0  0.00000000000E+00  0.00000000000E+00  0.36911596614E+04  0.36911596614E+04  0.25500000000E-02 0. -1.
         -2   -1    0    0    0  501 -0.00000000000E+00 -0.00000000000E+00 -0.22043373029E+03  0.22043373030E+03  0.25500000000E-02 0.  1.
    8880022    1    1    2    0    0  0.19532312312E+03 -0.11900839531E+03  0.35979510922E+04  0.36084564339E+04  0.15294330000E+03 0.  0.
    8880022    1    1    2    0    0 -0.19532312312E+03  0.11900839531E+03 -0.12722516105E+03  0.30313695782E+03  0.15294330000E+03 0.  1.
<mgrwt>
<rscale>  0 0.27514682E+03</rscale>
<asrwt>0</asrwt>
<pdfrwt beam="1">  1        2 0.56787069E+00 0.27514682E+03</pdfrwt>
<pdfrwt beam="2">  1       -2 0.33912883E-01 0.27514682E+03</pdfrwt>
<totfact> 0.61901983E+00</totfact>
</mgrwt>
</event>
<event>
 4    1  0.4840632E-008  0.8309049E+03  0.7818608E-02  0.9516330E-01
          2   -1    0    0  501    0  0.00000000000E+00  0.00000000000E+00  0.68001830004E+03  0.68001830004E+03  0.25500000000E-02 0. -1.
         -2   -1    0    0    0  501 -0.00000000000E+00 -0.00000000000E+00 -0.11037656199E+04  0.11037656199E+04  0.25500000000E-02 0.  1.
    8880022    1    1    2    0    0 -0.81054698708E+03 -0.10012404486E+03 -0.46441479103E+03  0.95188444350E+03  0.15294330000E+03 0.  0.
    8880022    1    1    2    0    0  0.81054698708E+03  0.10012404486E+03  0.40667471198E+02  0.83189947641E+03  0.15294330000E+03 0.  0.
<mgrwt>
<rscale>  0 0.83090487E+03</rscale>
<asrwt>0</asrwt>
<pdfrwt beam="1">  1        2 0.10461820E+00 0.83090487E+03</pdfrwt>
<pdfrwt beam="2">  1       -2 0.16981010E+00 0.83090487E+03</pdfrwt>
<totfact> 0.91601415E+00</totfact>
</mgrwt>
</event>
<event>
 4    1  0.4840632E-008  0.2151463E+03  0.7818608E-02  0.1137554E+00
          2   -1    0    0  501    0  0.00000000000E+00  0.00000000000E+00  0.13525803948E+04  0.13525803948E+04  0.25500000000E-02 0. -1.
         -2   -1    0    0    0  501 -0.00000000000E+00 -0.00000000000E+00 -0.12653448308E+03  0.12653448311E+03  0.25500000000E-02 0.  1.
    8880022    1    1    2    0    0  0.29326661609E+02 -0.14844603390E+03  0.12447039491E+04  0.12631610555E+04  0.15294330000E+03 0.  0.
    8880022    1    1    2    0    0 -0.29326661609E+02  0.14844603390E+03 -0.18658037387E+02  0.21595382246E+03  0.15294330000E+03 0.  1.
<mgrwt>
<rscale>  0 0.21514630E+03</rscale>
<asrwt>0</asrwt>
<pdfrwt beam="1">  1        2 0.20808929E+00 0.21514630E+03</pdfrwt>
<pdfrwt beam="2">  1       -2 0.19466844E-01 0.21514630E+03</pdfrwt>
<totfact> 0.36691008E+02</totfact>
</mgrwt>
</event>
<event>
 4    1  0.4840632E-008  0.3798979E+03  0.7818608E-02  0.1050972E+00
          2   -1    0    0  501    0  0.00000000000E+00  0.00000000000E+00  0.84446653715E+03  0.84446653716E+03  0.25500000000E-02 0. -1.
         -2   -1    0    0    0  501 -0.00000000000E+00 -0.00000000000E+00 -0.26079142610E+03  0.26079142611E+03  0.25500000000E-02 0.  1.
    8880022    1    1    2    0    0  0.32899050810E+03  0.11267650244E+03 -0.32604656838E+02  0.38129446008E+03  0.15294330000E+03 0.  0.
    8880022    1    1    2    0    0 -0.32899050810E+03 -0.11267650244E+03  0.61627976789E+03  0.72396350319E+03  0.15294330000E+03 0. -1.
<mgrwt>
<rscale>  0 0.37989788E+03</rscale>
<asrwt>0</asrwt>
<pdfrwt beam="1">  1        2 0.12991793E+00 0.37989788E+03</pdfrwt>
<pdfrwt beam="2">  1       -2 0.40121759E-01 0.37989788E+03</pdfrwt>
<totfact> 0.19534483E+02</totfact>
</mgrwt>
</event>
<event>
 4    1  0.4840632E-008  0.3619933E+03  0.7818608E-02  0.1057797E+00
         -2   -1    0    0    0  501 -0.00000000000E+00  0.00000000000E+00  0.36659584301E+03  0.36659584301E+03  0.25500000000E-02 0.  1.
          2   -1    0    0  501    0  0.00000000000E+00 -0.00000000000E+00 -0.58601474292E+03  0.58601474293E+03  0.25500000000E-02 0. -1.
    8880022    1    1    2    0    0  0.69500437992E+02  0.32065120050E+03 -0.40717530653E+03  0.54482188514E+03  0.15294330000E+03 0.  0.
    8880022    1    1    2    0    0 -0.69500437992E+02 -0.32065120050E+03  0.18775640661E+03  0.40778870080E+03  0.15294330000E+03 0.  0.
<mgrwt>
<rscale>  0 0.36199331E+03</rscale>
<asrwt>0</asrwt>
<pdfrwt beam="1">  1        2 0.90156114E-01 0.36199331E+03</pdfrwt>
<pdfrwt beam="2">  1       -2 0.56399360E-01 0.36199331E+03</pdfrwt>
<totfact> 0.15607585E+02</totfact>
</mgrwt>
</event>
<event>
 4    1  0.4840632E-008  0.6383560E+03  0.7818608E-02  0.9828877E-01
          2   -1    0    0  501    0  0.00000000000E+00  0.00000000000E+00  0.11154565015E+04  0.11154565015E+04  0.25500000000E-02 0. -1.
         -2   -1    0    0    0  501 -0.00000000000E+00 -0.00000000000E+00 -0.63162791443E+03  0.63162791444E+03  0.25500000000E-02 0.  1.
    8880022    1    1    2    0    0 -0.11245795911E+03 -0.60947517552E+03  0.80912624261E+03  0.10306229726E+04  0.15294330000E+03 0.  0.
    8880022    1    1    2    0    0  0.11245795911E+03  0.60947517552E+03 -0.32529765551E+03  0.71646144337E+03  0.15294330000E+03 0.  0.
<mgrwt>
<rscale>  0 0.63835604E+03</rscale>
<asrwt>0</asrwt>
<pdfrwt beam="1">  1        2 0.17160869E+00 0.63835604E+03</pdfrwt>
<pdfrwt beam="2">  1       -2 0.97173525E-01 0.63835604E+03</pdfrwt>
<totfact> 0.19433032E+01</totfact>
</mgrwt>
</event>
<event>
 4    1  0.4840632E-008  0.1063633E+04  0.7818608E-02  0.9241380E-01
         -2   -1    0    0    0  501 -0.00000000000E+00  0.00000000000E+00  0.77861817057E+03  0.77861817057E+03  0.25500000000E-02 0.  1.
          2   -1    0    0  501    0  0.00000000000E+00 -0.00000000000E+00 -0.20657621004E+04  0.20657621004E+04  0.25500000000E-02 0. -1.
    8880022    1    1    2    0    0  0.93609850070E+03  0.48129414016E+03  0.13101606848E+03  0.10716722053E+04  0.15294330000E+03 0.  0.
    8880022    1    1    2    0    0 -0.93609850070E+03 -0.48129414016E+03 -0.14181599984E+04  0.17727080657E+04  0.15294330000E+03 0.  0.
<mgrwt>
<rscale>  0 0.10636334E+04</rscale>
<asrwt>0</asrwt>
<pdfrwt beam="1">  1        2 0.31780955E+00 0.10636334E+04</pdfrwt>
<pdfrwt beam="2">  1       -2 0.11978741E+00 0.10636334E+04</pdfrwt>
<totfact> 0.32487283E+00</totfact>
</mgrwt>
</event>
<event>
 4    1  0.4840632E-008  0.3997673E+03  0.7818608E-02  0.1043860E+00
         -2   -1    0    0    0  501 -0.00000000000E+00  0.00000000000E+00  0.16330052345E+03  0.16330052347E+03  0.25500000000E-02 0.  1.
          2   -1    0    0  501    0  0.00000000000E+00 -0.00000000000E+00 -0.11661799653E+04  0.11661799653E+04  0.25500000000E-02 0. -1.
    8880022    1    1    2    0    0  0.22737184054E+03 -0.29107430363E+03 -0.23487299345E+03  0.46365847363E+03  0.15294330000E+03 0.  0.
    8880022    1    1    2    0    0 -0.22737184054E+03  0.29107430363E+03 -0.76800644838E+03  0.86582201513E+03  0.15294330000E+03 0.  1.
<mgrwt>
<rscale>  0 0.39976725E+03</rscale>
<asrwt>0</asrwt>
<pdfrwt beam="1">  1        2 0.17941230E+00 0.39976725E+03</pdfrwt>
<pdfrwt beam="2">  1       -2 0.25123158E-01 0.39976725E+03</pdfrwt>
<totfact> 0.29221578E+02</totfact>
</mgrwt>
</event>
<event>
 4    1  0.4840632E-008  0.2941117E+03  0.7818608E-02  0.1088222E+00
          2   -1    0    0  501    0  0.00000000000E+00  0.00000000000E+00  0.20181340980E+04  0.20181340980E+04  0.25500000000E-02 0. -1.
         -2   -1    0    0    0  501 -0.00000000000E+00 -0.00000000000E+00 -0.14691609152E+03  0.14691609154E+03  0.25500000000E-02 0.  1.
    8880022    1    1    2    0    0  0.13673261828E+03  0.21074685408E+03  0.24579542862E+02  0.29513700606E+03  0.15294330000E+03 0.  0.
    8880022    1    1    2    0    0 -0.13673261828E+03 -0.21074685408E+03  0.18466384636E+04  0.18699131834E+04  0.15294330000E+03 0. -1.
<mgrwt>
<rscale>  0 0.29411171E+03</rscale>
<asrwt>0</asrwt>
<pdfrwt beam="1">  1        2 0.31048215E+00 0.29411171E+03</pdfrwt>
<pdfrwt beam="2">  1       -2 0.22602477E-01 0.29411171E+03</pdfrwt>
<totfact> 0.12368279E+02</totfact>
</mgrwt>
</event>
<event>
 4    1  0.4840632E-008  0.8992844E+03  0.7818608E-02  0.9426476E-01
         -2   -1    0    0    0  501 -0.00000000000E+00  0.00000000000E+00  0.77371842996E+03  0.77371842996E+03  0.25500000000E-02 0.  1.
          2   -1    0    0  501    0  0.00000000000E+00 -0.00000000000E+00 -0.14989562646E+04  0.14989562646E+04  0.25500000000E-02 0. -1.
    8880022    1    1    2    0    0 -0.84674372866E+03  0.26143042257E+03 -0.98780677581E+03  0.13358423138E+04  0.15294330000E+03 0.  0.
    8880022    1    1    2    0    0  0.84674372866E+03 -0.26143042257E+03  0.26256894116E+03  0.93683238081E+03  0.15294330000E+03 0.  0.
<mgrwt>
<rscale>  0 0.89928442E+03</rscale>
<asrwt>0</asrwt>
<pdfrwt beam="1">  1        2 0.23060866E+00 0.89928442E+03</pdfrwt>
<pdfrwt beam="2">  1       -2 0.11903360E+00 0.89928442E+03</pdfrwt>
<totfact> 0.69233486E+00</totfact>
</mgrwt>
</event>
<event>
 4    1  0.4840632E-008  0.2537244E+03  0.7818608E-02  0.1110973E+00
         -2   -1    0    0    0  501 -0.00000000000E+00  0.00000000000E+00  0.23947564502E+02  0.23947564638E+02  0.25500000000E-02 0.  1.
          2   -1    0    0  501    0  0.00000000000E+00 -0.00000000000E+00 -0.27922997884E+04  0.27922997885E+04  0.25500000000E-02 0. -1.
    8880022    1    1    2    0    0 -0.19814585183E+03  0.41504689226E+02 -0.11123038738E+04  0.11408750933E+04  0.15294330000E+03 0.  0.
    8880022    1    1    2    0    0  0.19814585183E+03 -0.41504689226E+02 -0.16560483501E+04  0.16753722598E+04  0.15294330000E+03 0.  0.
<mgrwt>
<rscale>  0 0.25372440E+03</rscale>
<asrwt>0</asrwt>
<pdfrwt beam="1">  1        2 0.42958433E+00 0.25372440E+03</pdfrwt>
<pdfrwt beam="2">  1       -2 0.36842429E-02 0.25372440E+03</pdfrwt>
<totfact> 0.85907308E+02</totfact>
</mgrwt>
</event>
<event>
 4    1  0.4840632E-008  0.4795019E+03  0.7818608E-02  0.1019272E+00
          2   -1    0    0  501    0  0.00000000000E+00  0.00000000000E+00  0.12552992257E+04  0.12552992257E+04  0.25500000000E-02 0. -1.
         -2   -1    0    0    0  501 -0.00000000000E+00 -0.00000000000E+00 -0.41773048055E+03  0.41773048056E+03  0.25500000000E-02 0.  1.
    8880022    1    1    2    0    0  0.13672952952E+03  0.43339992902E+03  0.10456307775E+04  0.11503329251E+04  0.15294330000E+03 0.  0.
    8880022    1    1    2    0    0 -0.13672952952E+03 -0.43339992902E+03 -0.20806203234E+03  0.52269678116E+03  0.15294330000E+03 0.  0.
<mgrwt>
<rscale>  0 0.47950195E+03</rscale>
<asrwt>0</asrwt>
<pdfrwt beam="1">  1        2 0.19312296E+00 0.47950195E+03</pdfrwt>
<pdfrwt beam="2">  1       -2 0.64266227E-01 0.47950195E+03</pdfrwt>
<totfact> 0.41405700E+01</totfact>
</mgrwt>
</event>
<event>
 4    1  0.4840632E-008  0.3368569E+03  0.7818608E-02  0.1068143E+00
          2   -1    0    0  501    0  0.00000000000E+00  0.00000000000E+00  0.84133614879E+03  0.84133614879E+03  0.25500000000E-02 0. -1.
         -2   -1    0    0    0  501 -0.00000000000E+00 -0.00000000000E+00 -0.47414101474E+03  0.47414101474E+03  0.25500000000E-02 0.  1.
    8880022    1    1    2    0    0 -0.26434394460E+03  0.14213801314E+03 -0.37278271481E+03  0.50243361880E+03  0.15294330000E+03 0.  0.
    8880022    1    1    2    0    0  0.26434394460E+03 -0.14213801314E+03  0.73997784885E+03  0.81304354473E+03  0.15294330000E+03 0.  0.
<mgrwt>
<rscale>  0 0.33685693E+03</rscale>
<asrwt>0</asrwt>
<pdfrwt beam="1">  1        2 0.12943633E+00 0.33685693E+03</pdfrwt>
<pdfrwt beam="2">  1       -2 0.72944771E-01 0.33685693E+03</pdfrwt>
<totfact> 0.58072850E+01</totfact>
</mgrwt>
</event>
<event>
 4    1  0.4840632E-008  0.5325116E+03  0.7818608E-02  0.1005625E+00
          2   -1    0    0  501    0  0.00000000000E+00  0.00000000000E+00  0.15926221637E+04  0.15926221637E+04  0.25500000000E-02 0. -1.
         -2   -1    0    0    0  501 -0.00000000000E+00 -0.00000000000E+00 -0.46912421071E+03  0.46912421072E+03  0.25500000000E-02 0.  1.
    8880022    1    1    2    0    0  0.30035564542E+03 -0.41226616704E+03  0.13737604434E+04  0.14733588548E+04  0.15294330000E+03 0.  0.
    8880022    1    1    2    0    0 -0.30035564542E+03  0.41226616704E+03 -0.25026249034E+03  0.58838751967E+03  0.15294330000E+03 0.  0.
<mgrwt>
<rscale>  0 0.53251156E+03</rscale>
<asrwt>0</asrwt>
<pdfrwt beam="1">  1        2 0.24501879E+00 0.53251156E+03</pdfrwt>
<pdfrwt beam="2">  1       -2 0.72172956E-01 0.53251156E+03</pdfrwt>
<totfact> 0.20734226E+01</totfact>
</mgrwt>
</event>
<event>
 4    1  0.4840632E-008  0.3904472E+03  0.7818608E-02  0.1047139E+00
         -2   -1    0    0    0  501 -0.00000000000E+00  0.00000000000E+00  0.11397722835E+04  0.11397722835E+04  0.25500000000E-02 0.  1.
          2   -1    0    0  501    0  0.00000000000E+00 -0.00000000000E+00 -0.71730436362E+03  0.71730436362E+03  0.25500000000E-02 0. -1.
    8880022    1    1    2    0    0  0.21791068395E+03 -0.28560870945E+03  0.10487387205E+04  0.11190629821E+04  0.15294330000E+03 0.  0.
    8880022    1    1    2    0    0 -0.21791068395E+03  0.28560870945E+03 -0.62627080058E+03  0.73801366503E+03  0.15294330000E+03 0.  0.
<mgrwt>
<rscale>  0 0.39044725E+03</rscale>
<asrwt>0</asrwt>
<pdfrwt beam="1">  1        2 0.11035452E+00 0.39044725E+03</pdfrwt>
<pdfrwt beam="2">  1       -2 0.17534958E+00 0.39044725E+03</pdfrwt>
<totfact> 0.83668813E+00</totfact>
</mgrwt>
</event>
<event>
 4    1  0.4840632E-008  0.5995682E+03  0.7818608E-02  0.9906302E-01
         -2   -1    0    0    0  501 -0.00000000000E+00  0.00000000000E+00  0.32631642796E+03  0.32631642797E+03  0.25500000000E-02 0.  1.
          2   -1    0    0  501    0  0.00000000000E+00 -0.00000000000E+00 -0.12934404261E+04  0.12934404261E+04  0.25500000000E-02 0. -1.
    8880022    1    1    2    0    0 -0.57552757460E+03  0.69701726206E+02 -0.17169044805E+03  0.62366624305E+03  0.15294330000E+03 0.  0.
    8880022    1    1    2    0    0  0.57552757460E+03 -0.69701726206E+02 -0.79543355012E+03  0.99609061105E+03  0.15294330000E+03 0.  0.
<mgrwt>
<rscale>  0 0.59956816E+03</rscale>
<asrwt>0</asrwt>
<pdfrwt beam="1">  1        2 0.19899083E+00 0.59956816E+03</pdfrwt>
<pdfrwt beam="2">  1       -2 0.50202528E-01 0.59956816E+03</pdfrwt>
<totfact> 0.64724658E+01</totfact>
</mgrwt>
</event>
<event>
 4    1  0.4840632E-008  0.8008157E+03  0.7818608E-02  0.9558837E-01
          2   -1    0    0  501    0  0.00000000000E+00  0.00000000000E+00  0.20186724787E+04  0.20186724787E+04  0.25500000000E-02 0. -1.
         -2   -1    0    0    0  501 -0.00000000000E+00 -0.00000000000E+00 -0.34344495566E+03  0.34344495567E+03  0.25500000000E-02 0.  1.
    8880022    1    1    2    0    0 -0.43159762566E+03  0.65699132786E+03  0.51416939084E+03  0.95167007458E+03  0.15294330000E+03 0.  0.
    8880022    1    1    2    0    0  0.43159762566E+03 -0.65699132786E+03  0.11610581322E+04  0.14104473597E+04  0.15294330000E+03 0.  0.
<mgrwt>
<rscale>  0 0.80081569E+03</rscale>
<asrwt>0</asrwt>
<pdfrwt beam="1">  1        2 0.31056499E+00 0.80081569E+03</pdfrwt>
<pdfrwt beam="2">  1       -2 0.52837687E-01 0.80081569E+03</pdfrwt>
<totfact> 0.22636820E+01</totfact>
</mgrwt>
</event>
<event>
 4    1  0.4840632E-008  0.4239813E+03  0.7818608E-02  0.1035778E+00
          2   -1    0    0  501    0  0.00000000000E+00  0.00000000000E+00  0.52559700824E+03  0.52559700824E+03  0.25500000000E-02 0. -1.
         -2   -1    0    0    0  501 -0.00000000000E+00 -0.00000000000E+00 -0.47755096250E+03  0.47755096251E+03  0.25500000000E-02 0.  1.
    8880022    1    1    2    0    0 -0.25641440441E+03 -0.30103186489E+03 -0.24319031709E+03  0.48877572956E+03  0.15294330000E+03 0.  0.
    8880022    1    1    2    0    0  0.25641440441E+03  0.30103186489E+03  0.29123636283E+03  0.51437224120E+03  0.15294330000E+03 0. -1.
<mgrwt>
<rscale>  0 0.42398135E+03</rscale>
<asrwt>0</asrwt>
<pdfrwt beam="1">  1        2 0.80861079E-01 0.42398135E+03</pdfrwt>
<pdfrwt beam="2">  1       -2 0.73469379E-01 0.42398135E+03</pdfrwt>
<totfact> 0.10043950E+02</totfact>
</mgrwt>
</event>
<event>
 4    1  0.4840632E-008  0.4415258E+03  0.7818608E-02  0.1030280E+00
         -2   -1    0    0    0  501 -0.00000000000E+00  0.00000000000E+00  0.57724641888E+03  0.57724641888E+03  0.25500000000E-02 0.  1.
          2   -1    0    0  501    0  0.00000000000E+00 -0.00000000000E+00 -0.71815682967E+03  0.71815682967E+03  0.25500000000E-02 0. -1.
    8880022    1    1    2    0    0 -0.13655173046E+03  0.39103330212E+03  0.40096606700E+03  0.59642171184E+03  0.15294330000E+03 0.  0.
    8880022    1    1    2    0    0  0.13655173046E+03 -0.39103330212E+03 -0.54187647779E+03  0.69898153671E+03  0.15294330000E+03 0.  0.
<mgrwt>
<rscale>  0 0.44152584E+03</rscale>
<asrwt>0</asrwt>
<pdfrwt beam="1">  1        2 0.11048567E+00 0.44152584E+03</pdfrwt>
<pdfrwt beam="2">  1       -2 0.88807141E-01 0.44152584E+03</pdfrwt>
<totfact> 0.45168646E+01</totfact>
</mgrwt>
</event>
<event>
 4    1  0.4840632E-008  0.5868987E+03  0.7818608E-02  0.9932966E-01
         -2   -1    0    0    0  501 -0.00000000000E+00  0.00000000000E+00  0.82273875482E+03  0.82273875483E+03  0.25500000000E-02 0.  1.
          2   -1    0    0  501    0  0.00000000000E+00 -0.00000000000E+00 -0.68938431000E+03  0.68938431000E+03  0.25500000000E-02 0. -1.
    8880022    1    1    2    0    0  0.14177380298E+03 -0.54859690364E+03  0.54046942423E+03  0.79784536437E+03  0.15294330000E+03 0.  0.
    8880022    1    1    2    0    0 -0.14177380298E+03  0.54859690364E+03 -0.40711497941E+03  0.71427770046E+03  0.15294330000E+03 0.  0.
<mgrwt>
<rscale>  0 0.58689865E+03</rscale>
<asrwt>0</asrwt>
<pdfrwt beam="1">  1        2 0.10605912E+00 0.58689865E+03</pdfrwt>
<pdfrwt beam="2">  1       -2 0.12657519E+00 0.58689865E+03</pdfrwt>
<totfact> 0.20020071E+01</totfact>
</mgrwt>
</event>
<event>
 4    1  0.4840632E-008  0.1132309E+04  0.7818608E-02  0.9174261E-01
          2   -1    0    0  501    0  0.00000000000E+00  0.00000000000E+00  0.18022521276E+04  0.18022521276E+04  0.25500000000E-02 0. -1.
         -2   -1    0    0    0  501 -0.00000000000E+00 -0.00000000000E+00 -0.15324401238E+04  0.15324401238E+04  0.25500000000E-02 0.  1.
    8880022    1    1    2    0    0 -0.80633727156E+03 -0.78009787718E+03  0.13553445235E+04  0.17660925581E+04  0.15294330000E+03 0.  0.
    8880022    1    1    2    0    0  0.80633727156E+03  0.78009787718E+03 -0.10855325197E+04  0.15685996933E+04  0.15294330000E+03 0.  0.
<mgrwt>
<rscale>  0 0.11323092E+04</rscale>
<asrwt>0</asrwt>
<pdfrwt beam="1">  1        2 0.27726956E+00 0.11323092E+04</pdfrwt>
<pdfrwt beam="2">  1       -2 0.23576002E+00 0.11323092E+04</pdfrwt>
<totfact> 0.66370766E-01</totfact>
</mgrwt>
</event>
<event>
 4    1  0.4840632E-008  0.7052898E+03  0.7818608E-02  0.9708228E-01
         -2   -1    0    0    0  501 -0.00000000000E+00  0.00000000000E+00  0.14968457827E+04  0.14968457827E+04  0.25500000000E-02 0.  1.
          2   -1    0    0  501    0  0.00000000000E+00 -0.00000000000E+00 -0.36382209762E+03  0.36382209763E+03  0.25500000000E-02 0. -1.
    8880022    1    1    2    0    0 -0.29931514747E+03 -0.62004235261E+03  0.29276120757E+03  0.76363790779E+03  0.15294330000E+03 0.  0.
    8880022    1    1    2    0    0  0.29931514747E+03  0.62004235261E+03  0.84026247753E+03  0.10970299726E+04  0.15294330000E+03 0.  0.
<mgrwt>
<rscale>  0 0.70528982E+03</rscale>
<asrwt>0</asrwt>
<pdfrwt beam="1">  1        2 0.55972629E-01 0.70528982E+03</pdfrwt>
<pdfrwt beam="2">  1       -2 0.23028397E+00 0.70528982E+03</pdfrwt>
<totfact> 0.77523850E+00</totfact>
</mgrwt>
</event>
<event>
 4    1  0.4840632E-008  0.1150419E+04  0.7818608E-02  0.9157397E-01
         -2   -1    0    0    0  501 -0.00000000000E+00  0.00000000000E+00  0.10277929141E+04  0.10277929141E+04  0.25500000000E-02 0.  1.
          2   -1    0    0  501    0  0.00000000000E+00 -0.00000000000E+00 -0.16439915818E+04  0.16439915818E+04  0.25500000000E-02 0. -1.
    8880022    1    1    2    0    0  0.52390461230E+03 -0.10127172730E+04 -0.93002605794E+03  0.14793283744E+04  0.15294330000E+03 0.  0.
    8880022    1    1    2    0    0 -0.52390461230E+03  0.10127172730E+04  0.31382739031E+03  0.11924561215E+04  0.15294330000E+03 0.  0.
<mgrwt>
<rscale>  0 0.11504190E+04</rscale>
<asrwt>0</asrwt>
<pdfrwt beam="1">  1        2 0.25292178E+00 0.11504190E+04</pdfrwt>
<pdfrwt beam="2">  1       -2 0.15812199E+00 0.11504190E+04</pdfrwt>
<totfact> 0.26768342E+00</totfact>
</mgrwt>
</event>
<event>
 4    1  0.4840632E-008  0.1379728E+04  0.7818608E-02  0.8968625E-01
          2   -1    0    0  501    0  0.00000000000E+00  0.00000000000E+00  0.27211767112E+04  0.27211767112E+04  0.25500000000E-02 0. -1.
         -2   -1    0    0    0  501 -0.00000000000E+00 -0.00000000000E+00 -0.10003365397E+04  0.10003365398E+04  0.25500000000E-02 0.  1.
    8880022    1    1    2    0    0 -0.11744543143E+04  0.70775264825E+03 -0.15989109249E+03  0.13889613249E+04  0.15294330000E+03 0.  0.
    8880022    1    1    2    0    0  0.11744543143E+04 -0.70775264825E+03  0.18807312640E+04  0.23325519261E+04  0.15294330000E+03 0.  0.
<mgrwt>
<rscale>  0 0.13797277E+04</rscale>
<asrwt>0</asrwt>
<pdfrwt beam="1">  1        2 0.41864257E+00 0.13797277E+04</pdfrwt>
<pdfrwt beam="2">  1       -2 0.15389793E+00 0.13797277E+04</pdfrwt>
<totfact> 0.69162023E-01</totfact>
</mgrwt>
</event>
<event>
 4    1  0.4840632E-008  0.3816829E+03  0.7818608E-02  0.1050313E+00
         -2   -1    0    0    0  501 -0.00000000000E+00  0.00000000000E+00  0.45109772295E+03  0.45109772296E+03  0.25500000000E-02 0.  1.
          2   -1    0    0  501    0  0.00000000000E+00 -0.00000000000E+00 -0.57670990253E+03  0.57670990254E+03  0.25500000000E-02 0. -1.
    8880022    1    1    2    0    0 -0.27974828455E+03 -0.20983583333E+03 -0.40369664646E+03  0.55556531122E+03  0.15294330000E+03 0.  0.
    8880022    1    1    2    0    0  0.27974828455E+03  0.20983583333E+03  0.27808446688E+03  0.47224231428E+03  0.15294330000E+03 0.  0.
<mgrwt>
<rscale>  0 0.38168290E+03</rscale>
<asrwt>0</asrwt>
<pdfrwt beam="1">  1        2 0.88724601E-01 0.38168290E+03</pdfrwt>
<pdfrwt beam="2">  1       -2 0.69399649E-01 0.38168290E+03</pdfrwt>
<totfact> 0.10249084E+02</totfact>
</mgrwt>
</event>
<event>
 4    1  0.4840632E-008  0.7830778E+03  0.7818608E-02  0.9584840E-01
         -2   -1    0    0    0  501 -0.00000000000E+00  0.00000000000E+00  0.53167875868E+03  0.53167875869E+03  0.25500000000E-02 0.  1.
          2   -1    0    0  501    0  0.00000000000E+00 -0.00000000000E+00 -0.25470482789E+04  0.25470482789E+04  0.25500000000E-02 0. -1.
    8880022    1    1    2    0    0 -0.41100429742E+03 -0.64876392912E+03  0.13100978412E+03  0.79396119853E+03  0.15294330000E+03 0.  0.
    8880022    1    1    2    0    0  0.41100429742E+03  0.64876392912E+03 -0.21463793043E+04  0.22847658390E+04  0.15294330000E+03 0.  0.
<mgrwt>
<rscale>  0 0.78307779E+03</rscale>
<asrwt>0</asrwt>
<pdfrwt beam="1">  1        2 0.39185357E+00 0.78307779E+03</pdfrwt>
<pdfrwt beam="2">  1       -2 0.81796734E-01 0.78307779E+03</pdfrwt>
<totfact> 0.44914507E+00</totfact>
</mgrwt>
</event>
<event>
 4    1  0.4840632E-008  0.3024409E+03  0.7818608E-02  0.1084027E+00
          2   -1    0    0  501    0  0.00000000000E+00  0.00000000000E+00  0.31996691034E+04  0.31996691034E+04  0.25500000000E-02 0. -1.
         -2   -1    0    0    0  501 -0.00000000000E+00 -0.00000000000E+00 -0.39001736962E+03  0.39001736963E+03  0.25500000000E-02 0.  1.
    8880022    1    1    2    0    0  0.18683040958E+03 -0.18213522317E+03 -0.32298649746E+03  0.44248251041E+03  0.15294330000E+03 0.  0.
    8880022    1    1    2    0    0 -0.18683040958E+03  0.18213522317E+03  0.31326382313E+04  0.31472039626E+04  0.15294330000E+03 0. -1.
<mgrwt>
<rscale>  0 0.30244089E+03</rscale>
<asrwt>0</asrwt>
<pdfrwt beam="1">  1        2 0.49225677E+00 0.30244089E+03</pdfrwt>
<pdfrwt beam="2">  1       -2 0.60002674E-01 0.30244089E+03</pdfrwt>
<totfact> 0.41675357E+00</totfact>
</mgrwt>
</event>
<event>
 4    1  0.4840632E-008  0.4982534E+03  0.7818608E-02  0.1014236E+00
         -2   -1    0    0    0  501 -0.00000000000E+00  0.00000000000E+00  0.22768120328E+03  0.22768120330E+03  0.25500000000E-02 0.  1.
          2   -1    0    0  501    0  0.00000000000E+00 -0.00000000000E+00 -0.12936605534E+04  0.12936605534E+04  0.25500000000E-02 0. -1.
    8880022    1    1    2    0    0 -0.27685093616E+03 -0.38499137113E+03 -0.83453086685E+03  0.97195587216E+03  0.15294330000E+03 0.  0.
    8880022    1    1    2    0    0  0.27685093616E+03  0.38499137113E+03 -0.23144848326E+03  0.54938588453E+03  0.15294330000E+03 0.  0.
<mgrwt>
<rscale>  0 0.49825340E+03</rscale>
<asrwt>0</asrwt>
<pdfrwt beam="1">  1        2 0.19902470E+00 0.49825340E+03</pdfrwt>
<pdfrwt beam="2">  1       -2 0.35027878E-01 0.49825340E+03</pdfrwt>
<totfact> 0.13251817E+02</totfact>
</mgrwt>
</event>
<event>
 4    1  0.4840632E-008  0.7131101E+03  0.7818608E-02  0.9695071E-01
          2   -1    0    0  501    0  0.00000000000E+00  0.00000000000E+00  0.13633232892E+04  0.13633232892E+04  0.25500000000E-02 0. -1.
         -2   -1    0    0    0  501 -0.00000000000E+00 -0.00000000000E+00 -0.10682424108E+04  0.10682424108E+04  0.25500000000E-02 0.  1.
    8880022    1    1    2    0    0  0.40553542467E+02 -0.69533426669E+03  0.11283569486E+04  0.13348091207E+04  0.15294330000E+03 0.  0.
    8880022    1    1    2    0    0 -0.40553542467E+02  0.69533426669E+03 -0.83327607013E+03  0.10967565793E+04  0.15294330000E+03 0.  0.
<mgrwt>
<rscale>  0 0.71311008E+03</rscale>
<asrwt>0</asrwt>
<pdfrwt beam="1">  1        2 0.20974204E+00 0.71311008E+03</pdfrwt>
<pdfrwt beam="2">  1       -2 0.16434499E+00 0.71311008E+03</pdfrwt>
<totfact> 0.36667496E+00</totfact>
</mgrwt>
</event>
<event>
 4    1  0.4840632E-008  0.1475606E+04  0.7818608E-02  0.8900839E-01
          2   -1    0    0  501    0  0.00000000000E+00  0.00000000000E+00  0.46970264184E+04  0.46970264184E+04  0.25500000000E-02 0. -1.
         -2   -1    0    0    0  501 -0.00000000000E+00 -0.00000000000E+00 -0.68865946015E+03  0.68865946015E+03  0.25500000000E-02 0.  1.
    8880022    1    1    2    0    0 -0.40629470598E+03 -0.14103001716E+04  0.35436975356E+04  0.38386463550E+04  0.15294330000E+03 0.  0.
    8880022    1    1    2    0    0  0.40629470598E+03  0.14103001716E+04  0.46466942270E+03  0.15470395236E+04  0.15294330000E+03 0.  0.
<mgrwt>
<rscale>  0 0.14756062E+04</rscale>
<asrwt>0</asrwt>
<pdfrwt beam="1">  1        2 0.72261947E+00 0.14756062E+04</pdfrwt>
<pdfrwt beam="2">  1       -2 0.10594761E+00 0.14756062E+04</pdfrwt>
<totfact> 0.54950319E-02</totfact>
</mgrwt>
</event>
<event>
 4    1  0.4840632E-008  0.6727279E+03  0.7818608E-02  0.9765042E-01
         -2   -1    0    0    0  501 -0.00000000000E+00  0.00000000000E+00  0.28146752752E+03  0.28146752753E+03  0.25500000000E-02 0.  1.
          2   -1    0    0  501    0  0.00000000000E+00 -0.00000000000E+00 -0.29350718922E+04  0.29350718922E+04  0.25500000000E-02 0. -1.
    8880022    1    1    2    0    0 -0.53452282586E+03  0.37875652206E+03 -0.24082815323E+04  0.25004765039E+04  0.15294330000E+03 0.  0.
    8880022    1    1    2    0    0  0.53452282586E+03 -0.37875652206E+03 -0.24532283233E+03  0.71606291585E+03  0.15294330000E+03 0.  0.
<mgrwt>
<rscale>  0 0.67272789E+03</rscale>
<asrwt>0</asrwt>
<pdfrwt beam="1">  1        2 0.45154950E+00 0.67272789E+03</pdfrwt>
<pdfrwt beam="2">  1       -2 0.43302699E-01 0.67272789E+03</pdfrwt>
<totfact> 0.10405617E+01</totfact>
</mgrwt>
</event>
<event>
 4    1  0.4840632E-008  0.3569782E+03  0.7818608E-02  0.1059787E+00
         -2   -1    0    0    0  501 -0.00000000000E+00  0.00000000000E+00  0.46736931481E+03  0.46736931481E+03  0.25500000000E-02 0.  1.
          2   -1    0    0  501    0  0.00000000000E+00 -0.00000000000E+00 -0.12450495482E+04  0.12450495482E+04  0.25500000000E-02 0. -1.
    8880022    1    1    2    0    0 -0.26437148585E+03  0.18479591569E+03  0.36782997603E+03  0.51257424562E+03  0.15294330000E+03 0.  0.
    8880022    1    1    2    0    0  0.26437148585E+03 -0.18479591569E+03 -0.11455102095E+04  0.11998446174E+04  0.15294330000E+03 0. -1.
<mgrwt>
<rscale>  0 0.35697824E+03</rscale>
<asrwt>0</asrwt>
<pdfrwt beam="1">  1        2 0.19154608E+00 0.35697824E+03</pdfrwt>
<pdfrwt beam="2">  1       -2 0.71902972E-01 0.35697824E+03</pdfrwt>
<totfact> 0.33729018E+01</totfact>
</mgrwt>
</event>
<event>
 4    1  0.4840632E-008  0.9202923E+03  0.7818608E-02  0.9400565E-01
         -2   -1    0    0    0  501 -0.00000000000E+00  0.00000000000E+00  0.91421690409E+03  0.91421690410E+03  0.25500000000E-02 0.  1.
          2   -1    0    0  501    0  0.00000000000E+00 -0.00000000000E+00 -0.98480033676E+03  0.98480033676E+03  0.25500000000E-02 0. -1.
    8880022    1    1    2    0    0 -0.89393835202E+03  0.15627077969E+03  0.19591593600E+03  0.94091500189E+03  0.15294330000E+03 0.  0.
    8880022    1    1    2    0    0  0.89393835202E+03 -0.15627077969E+03 -0.26649936867E+03  0.95810223897E+03  0.15294330000E+03 0.  0.
<mgrwt>
<rscale>  0 0.92029234E+03</rscale>
<asrwt>0</asrwt>
<pdfrwt beam="1">  1        2 0.15150774E+00 0.92029234E+03</pdfrwt>
<pdfrwt beam="2">  1       -2 0.14064875E+00 0.92029234E+03</pdfrwt>
<totfact> 0.91339278E+00</totfact>
</mgrwt>
</event>
<event>
 4    1  0.4840632E-008  0.1020471E+04  0.7818608E-02  0.9286373E-01
          2   -1    0    0  501    0  0.00000000000E+00  0.00000000000E+00  0.59914624970E+03  0.59914624971E+03  0.25500000000E-02 0. -1.
         -2   -1    0    0    0  501 -0.00000000000E+00 -0.00000000000E+00 -0.18623648912E+04  0.18623648912E+04  0.25500000000E-02 0.  1.
    8880022    1    1    2    0    0  0.27852036266E+03 -0.96974041724E+03 -0.31366171129E+03  0.10675885871E+04  0.15294330000E+03 0.  0.
    8880022    1    1    2    0    0 -0.27852036266E+03  0.96974041724E+03 -0.94955693024E+03  0.13939225538E+04  0.15294330000E+03 0.  0.
<mgrwt>
<rscale>  0 0.10204713E+04</rscale>
<asrwt>0</asrwt>
<pdfrwt beam="1">  1        2 0.92176346E-01 0.10204713E+04</pdfrwt>
<pdfrwt beam="2">  1       -2 0.28651767E+00 0.10204713E+04</pdfrwt>
<totfact> 0.19122192E+00</totfact>
</mgrwt>
</event>
<event>
 4    1  0.4840632E-008  0.3810540E+03  0.7818608E-02  0.1050545E+00
          2   -1    0    0  501    0  0.00000000000E+00  0.00000000000E+00  0.35920224956E+03  0.35920224957E+03  0.25500000000E-02 0. -1.
         -2   -1    0    0    0  501 -0.00000000000E+00 -0.00000000000E+00 -0.81624361646E+03  0.81624361647E+03  0.25500000000E-02 0.  1.
    8880022    1    1    2    0    0  0.15002829457E+03 -0.31512225836E+03  0.18903634838E+03  0.42536680748E+03  0.15294330000E+03 0.  0.
    8880022    1    1    2    0    0 -0.15002829457E+03  0.31512225836E+03 -0.64607771528E+03  0.75007905856E+03  0.15294330000E+03 0.  0.
<mgrwt>
<rscale>  0 0.38105404E+03</rscale>
<asrwt>0</asrwt>
<pdfrwt beam="1">  1        2 0.55261885E-01 0.38105404E+03</pdfrwt>
<pdfrwt beam="2">  1       -2 0.12557594E+00 0.38105404E+03</pdfrwt>
<totfact> 0.44413631E+01</totfact>
</mgrwt>
</event>
<event>
 4    1  0.4840632E-008  0.7017221E+03  0.7818608E-02  0.9714292E-01
         -2   -1    0    0    0  501 -0.00000000000E+00  0.00000000000E+00  0.59483069066E+03  0.59483069066E+03  0.25500000000E-02 0.  1.
          2   -1    0    0  501    0  0.00000000000E+00 -0.00000000000E+00 -0.14796695221E+04  0.14796695221E+04  0.25500000000E-02 0. -1.
    8880022    1    1    2    0    0 -0.66659971097E+03  0.15705747322E+03 -0.11308722049E+04  0.13308966231E+04  0.15294330000E+03 0.  0.
    8880022    1    1    2    0    0  0.66659971097E+03 -0.15705747322E+03  0.24603337352E+03  0.74360358960E+03  0.15294330000E+03 0.  0.
<mgrwt>
<rscale>  0 0.70172208E+03</rscale>
<asrwt>0</asrwt>
<pdfrwt beam="1">  1        2 0.22764146E+00 0.70172208E+03</pdfrwt>
<pdfrwt beam="2">  1       -2 0.91512414E-01 0.70172208E+03</pdfrwt>
<totfact> 0.13660041E+01</totfact>
</mgrwt>
</event>
<event>
 4    1  0.4840632E-008  0.3963336E+03  0.7818608E-02  0.1045057E+00
         -2   -1    0    0    0  501 -0.00000000000E+00  0.00000000000E+00  0.21188332104E+03  0.21188332105E+03  0.25500000000E-02 0.  1.
          2   -1    0    0  501    0  0.00000000000E+00 -0.00000000000E+00 -0.40831774206E+04  0.40831774206E+04  0.25500000000E-02 0. -1.
    8880022    1    1    2    0    0 -0.32809340416E+03 -0.16137952104E+03 -0.38784646032E+04  0.38986623299E+04  0.15294330000E+03 0.  0.
    8880022    1    1    2    0    0  0.32809340416E+03  0.16137952104E+03  0.71705036451E+01  0.39639841170E+03  0.15294330000E+03 0.  0.
<mgrwt>
<rscale>  0 0.39633355E+03</rscale>
<asrwt>0</asrwt>
<pdfrwt beam="1">  1        2 0.62818108E+00 0.39633355E+03</pdfrwt>
<pdfrwt beam="2">  1       -2 0.32597437E-01 0.39633355E+03</pdfrwt>
<totfact> 0.31916284E+00</totfact>
</mgrwt>
</event>
<event>
 4    1  0.4840632E-008  0.7329980E+03  0.7818608E-02  0.9662408E-01
          2   -1    0    0  501    0  0.00000000000E+00  0.00000000000E+00  0.22605353228E+04  0.22605353228E+04  0.25500000000E-02 0. -1.
         -2   -1    0    0    0  501 -0.00000000000E+00 -0.00000000000E+00 -0.24054489714E+03  0.24054489715E+03  0.25500000000E-02 0.  1.
    8880022    1    1    2    0    0 -0.62445819575E+02 -0.71413929915E+03  0.11464490571E+04  0.13607466746E+04  0.15294330000E+03 0.  0.
    8880022    1    1    2    0    0  0.62445819575E+02  0.71413929915E+03  0.87354136855E+03  0.11403335453E+04  0.15294330000E+03 0.  0.
<mgrwt>
<rscale>  0 0.73299800E+03</rscale>
<asrwt>0</asrwt>
<pdfrwt beam="1">  1        2 0.34777467E+00 0.73299800E+03</pdfrwt>
<pdfrwt beam="2">  1       -2 0.37006907E-01 0.73299800E+03</pdfrwt>
<totfact> 0.34148102E+01</totfact>
</mgrwt>
</event>
<event>
 4    1  0.4840632E-008  0.4836965E+03  0.7818608E-02  0.1018124E+00
         -2   -1    0    0    0  501 -0.00000000000E+00  0.00000000000E+00  0.41274462754E+03  0.41274462755E+03  0.25500000000E-02 0.  1.
          2   -1    0    0  501    0  0.00000000000E+00 -0.00000000000E+00 -0.17218851763E+04  0.17218851763E+04  0.25500000000E-02 0. -1.
    8880022    1    1    2    0    0 -0.41353621741E+03  0.19889299959E+03  0.21958584223E+03  0.53120638505E+03  0.15294330000E+03 0.  0.
    8880022    1    1    2    0    0  0.41353621741E+03 -0.19889299959E+03 -0.15287263910E+04  0.16034234188E+04  0.15294330000E+03 0.  0.
<mgrwt>
<rscale>  0 0.48369648E+03</rscale>
<asrwt>0</asrwt>
<pdfrwt beam="1">  1        2 0.26490541E+00 0.48369648E+03</pdfrwt>
<pdfrwt beam="2">  1       -2 0.63499174E-01 0.48369648E+03</pdfrwt>
<totfact> 0.23470332E+01</totfact>
</mgrwt>
</event>
<event>
 4    1  0.4840632E-008  0.7281210E+03  0.7818608E-02  0.9670314E-01
         -2   -1    0    0    0  501 -0.00000000000E+00  0.00000000000E+00  0.82401311491E+03  0.82401311492E+03  0.25500000000E-02 0.  1.
          2   -1    0    0  501    0  0.00000000000E+00 -0.00000000000E+00 -0.11638053748E+04  0.11638053748E+04  0.25500000000E-02 0. -1.
    8880022    1    1    2    0    0  0.59766724367E+03  0.38673305982E+03  0.49473762747E+03  0.88029856683E+03  0.15294330000E+03 0.  0.
    8880022    1    1    2    0    0 -0.59766724367E+03 -0.38673305982E+03 -0.83452988739E+03  0.11075199229E+04  0.15294330000E+03 0.  0.
<mgrwt>
<rscale>  0 0.72812104E+03</rscale>
<asrwt>0</asrwt>
<pdfrwt beam="1">  1        2 0.17904698E+00 0.72812104E+03</pdfrwt>
<pdfrwt beam="2">  1       -2 0.12677125E+00 0.72812104E+03</pdfrwt>
<totfact> 0.94224995E+00</totfact>
</mgrwt>
</event>
<event>
 4    1  0.4840632E-008  0.4124224E+03  0.7818608E-02  0.1039561E+00
         -2   -1    0    0    0  501 -0.00000000000E+00  0.00000000000E+00  0.70643590316E+03  0.70643590316E+03  0.25500000000E-02 0.  1.
          2   -1    0    0  501    0  0.00000000000E+00 -0.00000000000E+00 -0.44433701730E+03  0.44433701731E+03  0.25500000000E-02 0. -1.
    8880022    1    1    2    0    0  0.35100291628E+03 -0.15328903138E+03  0.52049932612E+03  0.66408717492E+03  0.15294330000E+03 0.  0.
    8880022    1    1    2    0    0 -0.35100291628E+03  0.15328903138E+03 -0.25840044027E+03  0.48668574555E+03  0.15294330000E+03 0. -1.
<mgrwt>
<rscale>  0 0.41242239E+03</rscale>
<asrwt>0</asrwt>
<pdfrwt beam="1">  1        2 0.68359542E-01 0.41242239E+03</pdfrwt>
<pdfrwt beam="2">  1       -2 0.10868245E+00 0.41242239E+03</pdfrwt>
<totfact> 0.49692745E+01</totfact>
</mgrwt>
</event>
<event>
 4    1  0.4840632E-008  0.3205171E+03  0.7818608E-02  0.1075412E+00
          2   -1    0    0  501    0  0.00000000000E+00  0.00000000000E+00  0.93079217204E+03  0.93079217205E+03  0.25500000000E-02 0. -1.
         -2   -1    0    0    0  501 -0.00000000000E+00 -0.00000000000E+00 -0.39181994227E+03  0.39181994228E+03  0.25500000000E-02 0.  1.
    8880022    1    1    2    0    0 -0.26557746352E+03  0.93851716931E+02  0.82996608972E+03  0.88970494940E+03  0.15294330000E+03 0.  0.
    8880022    1    1    2    0    0  0.26557746352E+03 -0.93851716931E+02 -0.29099385995E+03  0.43290716492E+03  0.15294330000E+03 0.  1.
<mgrwt>
<rscale>  0 0.32051706E+03</rscale>
<asrwt>0</asrwt>
<pdfrwt beam="1">  1        2 0.14319880E+00 0.32051706E+03</pdfrwt>
<pdfrwt beam="2">  1       -2 0.60279991E-01 0.32051706E+03</pdfrwt>
<totfact> 0.76328746E+01</totfact>
</mgrwt>
</event>
<event>
 4    1  0.4840632E-008  0.6653118E+03  0.7818608E-02  0.9778464E-01
          2   -1    0    0  501    0  0.00000000000E+00  0.00000000000E+00  0.35213668781E+04  0.35213668781E+04  0.25500000000E-02 0. -1.
         -2   -1    0    0    0  501 -0.00000000000E+00 -0.00000000000E+00 -0.22114479191E+03  0.22114479193E+03  0.25500000000E-02 0.  1.
    8880022    1    1    2    0    0 -0.60265298742E+03  0.23676458533E+03  0.42078130046E+03  0.78720813509E+03  0.15294330000E+03 0.  0.
    8880022    1    1    2    0    0  0.60265298742E+03 -0.23676458533E+03  0.28794407857E+04  0.29553035350E+04  0.15294330000E+03 0.  0.
<mgrwt>
<rscale>  0 0.66531177E+03</rscale>
<asrwt>0</asrwt>
<pdfrwt beam="1">  1        2 0.54174873E+00 0.66531177E+03</pdfrwt>
<pdfrwt beam="2">  1       -2 0.34022277E-01 0.66531177E+03</pdfrwt>
<totfact> 0.70018879E+00</totfact>
</mgrwt>
</event>
<event>
 4    1  0.4840632E-008  0.4251073E+03  0.7818608E-02  0.1035417E+00
         -2   -1    0    0    0  501 -0.00000000000E+00  0.00000000000E+00  0.48629789415E+03  0.48629789415E+03  0.25500000000E-02 0.  1.
          2   -1    0    0  501    0  0.00000000000E+00 -0.00000000000E+00 -0.43208957334E+03  0.43208957335E+03  0.25500000000E-02 0. -1.
    8880022    1    1    2    0    0  0.23790810768E+03  0.31737091635E+03  0.19889137347E+03  0.46933356763E+03  0.15294330000E+03 0.  0.
    8880022    1    1    2    0    0 -0.23790810768E+03 -0.31737091635E+03 -0.14468305266E+03  0.44905389987E+03  0.15294330000E+03 0.  0.
<mgrwt>
<rscale>  0 0.42510730E+03</rscale>
<asrwt>0</asrwt>
<pdfrwt beam="1">  1        2 0.66475319E-01 0.42510730E+03</pdfrwt>
<pdfrwt beam="2">  1       -2 0.74815061E-01 0.42510730E+03</pdfrwt>
<totfact> 0.12051285E+02</totfact>
</mgrwt>
</event>
<event>
 4    1  0.4840632E-008  0.2383599E+03  0.7818608E-02  0.1120890E+00
          2   -1    0    0  501    0  0.00000000000E+00  0.00000000000E+00  0.25258798460E+03  0.25258798462E+03  0.25500000000E-02 0. -1.
         -2   -1    0    0    0  501 -0.00000000000E+00 -0.00000000000E+00 -0.39398986019E+03  0.39398986020E+03  0.25500000000E-02 0.  1.
    8880022    1    1    2    0    0  0.99965158434E+02  0.15307109046E+03 -0.28247088921E+03  0.36960147172E+03  0.15294330000E+03 0.  1.
    8880022    1    1    2    0    0 -0.99965158434E+02 -0.15307109046E+03  0.14106901362E+03  0.27697637309E+03  0.15294330000E+03 0.  0.
<mgrwt>
<rscale>  0 0.23835991E+03</rscale>
<asrwt>0</asrwt>
<pdfrwt beam="1">  1        2 0.38859690E-01 0.23835991E+03</pdfrwt>
<pdfrwt beam="2">  1       -2 0.60613824E-01 0.23835991E+03</pdfrwt>
<totfact> 0.34344701E+02</totfact>
</mgrwt>
</event>
<event>
 4    1  0.4840632E-008  0.3854278E+03  0.7818608E-02  0.1048946E+00
         -2   -1    0    0    0  501 -0.00000000000E+00  0.00000000000E+00  0.57098728028E+03  0.57098728028E+03  0.25500000000E-02 0.  1.
          2   -1    0    0  501    0  0.00000000000E+00 -0.00000000000E+00 -0.81794565724E+03  0.81794565724E+03  0.25500000000E-02 0. -1.
    8880022    1    1    2    0    0 -0.32929433604E+03 -0.12933732430E+03  0.45000083163E+03  0.59249920227E+03  0.15294330000E+03 0.  0.
    8880022    1    1    2    0    0  0.32929433604E+03  0.12933732430E+03 -0.69695920858E+03  0.79643373526E+03  0.15294330000E+03 0.  0.
<mgrwt>
<rscale>  0 0.38542776E+03</rscale>
<asrwt>0</asrwt>
<pdfrwt beam="1">  1        2 0.12583779E+00 0.38542776E+03</pdfrwt>
<pdfrwt beam="2">  1       -2 0.87844197E-01 0.38542776E+03</pdfrwt>
<totfact> 0.39534633E+01</totfact>
</mgrwt>
</event>
<event>
 4    1  0.4924986E-008  0.1123945E+04  0.7818608E-02  0.9182163E-01
         -2   -1    0    0    0  501 -0.00000000000E+00  0.00000000000E+00  0.16994850890E+04  0.16994850891E+04  0.25500000000E-02 0.  1.
          2   -1    0    0  501    0  0.00000000000E+00 -0.00000000000E+00 -0.15534403157E+04  0.15534403157E+04  0.25500000000E-02 0. -1.
    8880022    1    1    2    0    0 -0.11069657301E+04  0.12036335974E+03  0.12475764872E+04  0.16791960012E+04  0.15294330000E+03 0.  1.
    8880022    1    1    2    0    0  0.11069657301E+04 -0.12036335974E+03 -0.11015317138E+04  0.15737294035E+04  0.15294330000E+03 0.  0.
<mgrwt>
<rscale>  0 0.11239449E+04</rscale>
<asrwt>0</asrwt>
<pdfrwt beam="1">  1        2 0.23899082E+00 0.11239449E+04</pdfrwt>
<pdfrwt beam="2">  1       -2 0.26145924E+00 0.11239449E+04</pdfrwt>
<totfact> 0.63582928E-01</totfact>
</mgrwt>
</event>
<event>
 4    1  0.4972602E-008  0.3512792E+03  0.7818608E-02  0.1062091E+00
         -2   -1    0    0    0  501 -0.00000000000E+00  0.00000000000E+00  0.11867342807E+04  0.11867342807E+04  0.25500000000E-02 0.  1.
          2   -1    0    0  501    0  0.00000000000E+00 -0.00000000000E+00 -0.17722285721E+04  0.17722285721E+04  0.25500000000E-02 0. -1.
    8880022    1    1    2    0    0 -0.14732916637E+03 -0.27982060652E+03  0.11426761126E+04  0.11954521347E+04  0.15294330000E+03 0.  1.
    8880022    1    1    2    0    0  0.14732916637E+03  0.27982060652E+03 -0.17281704039E+04  0.17635107181E+04  0.15294330000E+03 0.  0.
<mgrwt>
<rscale>  0 0.35127925E+03</rscale>
<asrwt>0</asrwt>
<pdfrwt beam="1">  1        2 0.27265055E+00 0.35127925E+03</pdfrwt>
<pdfrwt beam="2">  1       -2 0.18257450E+00 0.35127925E+03</pdfrwt>
<totfact> 0.17964221E+00</totfact>
</mgrwt>
</event>
<event>
 4    1  0.4840632E-008  0.4171032E+03  0.7818608E-02  0.1038013E+00
         -2   -1    0    0    0  501 -0.00000000000E+00  0.00000000000E+00  0.10096100970E+03  0.10096100973E+03  0.25500000000E-02 0.  1.
          2   -1    0    0  501    0  0.00000000000E+00 -0.00000000000E+00 -0.17281415844E+04  0.17281415844E+04  0.25500000000E-02 0. -1.
    8880022    1    1    2    0    0  0.36277133361E+03 -0.13776941968E+03 -0.86253944836E+03  0.95809676259E+03  0.15294330000E+03 0.  0.
    8880022    1    1    2    0    0 -0.36277133361E+03  0.13776941968E+03 -0.76464112638E+03  0.87100583159E+03  0.15294330000E+03 0. -1.
<mgrwt>
<rscale>  0 0.41710323E+03</rscale>
<asrwt>0</asrwt>
<pdfrwt beam="1">  1        2 0.26586792E+00 0.41710323E+03</pdfrwt>
<pdfrwt beam="2">  1       -2 0.15532464E-01 0.41710323E+03</pdfrwt>
<totfact> 0.32775275E+02</totfact>
</mgrwt>
</event>
<event>
 4    1  0.4840632E-008  0.5515424E+03  0.7818608E-02  0.1001138E+00
         -2   -1    0    0    0  501 -0.00000000000E+00  0.00000000000E+00  0.10266843193E+04  0.10266843193E+04  0.25500000000E-02 0.  1.
          2   -1    0    0  501    0  0.00000000000E+00 -0.00000000000E+00 -0.46066808979E+03  0.46066808980E+03  0.25500000000E-02 0. -1.
    8880022    1    1    2    0    0  0.47827493264E+01 -0.52989099449E+03 -0.16122232614E+03  0.57462303486E+03  0.15294330000E+03 0.  0.
    8880022    1    1    2    0    0 -0.47827493264E+01  0.52989099449E+03  0.72723855561E+03  0.91272937419E+03  0.15294330000E+03 0.  0.
<mgrwt>
<rscale>  0 0.55154238E+03</rscale>
<asrwt>0</asrwt>
<pdfrwt beam="1">  1        2 0.70872015E-01 0.55154238E+03</pdfrwt>
<pdfrwt beam="2">  1       -2 0.15795143E+00 0.55154238E+03</pdfrwt>
<totfact> 0.18277220E+01</totfact>
</mgrwt>
</event>
<event>
 4    1  0.4840632E-008  0.3085509E+03  0.7818608E-02  0.1081043E+00
         -2   -1    0    0    0  501 -0.00000000000E+00  0.00000000000E+00  0.90760443288E+03  0.90760443288E+03  0.25500000000E-02 0.  1.
          2   -1    0    0  501    0  0.00000000000E+00 -0.00000000000E+00 -0.81488472101E+03  0.81488472101E+03  0.25500000000E-02 0. -1.
    8880022    1    1    2    0    0 -0.19694014765E+03 -0.18173212217E+03 -0.75754431947E+03  0.81797129226E+03  0.15294330000E+03 0.  0.
    8880022    1    1    2    0    0  0.19694014765E+03  0.18173212217E+03  0.85026403134E+03  0.90451786162E+03  0.15294330000E+03 0.  1.
<mgrwt>
<rscale>  0 0.30855087E+03</rscale>
<asrwt>0</asrwt>
<pdfrwt beam="1">  1        2 0.12536688E+00 0.30855087E+03</pdfrwt>
<pdfrwt beam="2">  1       -2 0.13963145E+00 0.30855087E+03</pdfrwt>
<totfact> 0.13274885E+01</totfact>
</mgrwt>
</event>
<event>
 4    1  0.4840632E-008  0.5512976E+03  0.7818608E-02  0.1001194E+00
         -2   -1    0    0    0  501 -0.00000000000E+00  0.00000000000E+00  0.57975767946E+03  0.57975767946E+03  0.25500000000E-02 0.  1.
          2   -1    0    0  501    0  0.00000000000E+00 -0.00000000000E+00 -0.10138013434E+04  0.10138013434E+04  0.25500000000E-02 0. -1.
    8880022    1    1    2    0    0  0.58046358114E+02  0.52646751043E+03  0.33666940806E+03  0.64596854612E+03  0.15294330000E+03 0.  0.
    8880022    1    1    2    0    0 -0.58046358114E+02 -0.52646751043E+03 -0.77071307197E+03  0.94759047671E+03  0.15294330000E+03 0.  0.
<mgrwt>
<rscale>  0 0.55129763E+03</rscale>
<asrwt>0</asrwt>
<pdfrwt beam="1">  1        2 0.15596944E+00 0.55129763E+03</pdfrwt>
<pdfrwt beam="2">  1       -2 0.89193490E-01 0.55129763E+03</pdfrwt>
<totfact> 0.27694311E+01</totfact>
</mgrwt>
</event>
<event>
 4    1  0.4840632E-008  0.2380032E+03  0.7818608E-02  0.1121130E+00
         -2   -1    0    0    0  501 -0.00000000000E+00  0.00000000000E+00  0.14728197263E+03  0.14728197265E+03  0.25500000000E-02 0.  1.
          2   -1    0    0  501    0  0.00000000000E+00 -0.00000000000E+00 -0.27664192131E+04  0.27664192131E+04  0.25500000000E-02 0. -1.
    8880022    1    1    2    0    0 -0.12360208023E+03  0.13407605845E+03  0.42223397126E+02  0.24171953162E+03  0.15294330000E+03 0.  0.
    8880022    1    1    2    0    0  0.12360208023E+03 -0.13407605845E+03 -0.26613606375E+04  0.26719816541E+04  0.15294330000E+03 0.  0.
<mgrwt>
<rscale>  0 0.23800319E+03</rscale>
<asrwt>0</asrwt>
<pdfrwt beam="1">  1        2 0.42560292E+00 0.23800319E+03</pdfrwt>
<pdfrwt beam="2">  1       -2 0.22658767E-01 0.23800319E+03</pdfrwt>
<totfact> 0.49275883E+01</totfact>
</mgrwt>
</event>
<event>
 4    1  0.4840632E-008  0.4685916E+03  0.7818608E-02  0.1022318E+00
         -2   -1    0    0    0  501 -0.00000000000E+00  0.00000000000E+00  0.34753451834E+03  0.34753451835E+03  0.25500000000E-02 0.  1.
          2   -1    0    0  501    0  0.00000000000E+00 -0.00000000000E+00 -0.79037331419E+03  0.79037331419E+03  0.25500000000E-02 0. -1.
    8880022    1    1    2    0    0  0.31783624606E+03  0.30849075229E+03  0.33412201584E+02  0.46978128080E+03  0.15294330000E+03 0.  0.
    8880022    1    1    2    0    0 -0.31783624606E+03 -0.30849075229E+03 -0.47625099744E+03  0.66812655174E+03  0.15294330000E+03 0.  0.
<mgrwt>
<rscale>  0 0.46859159E+03</rscale>
<asrwt>0</asrwt>
<pdfrwt beam="1">  1        2 0.12159589E+00 0.46859159E+03</pdfrwt>
<pdfrwt beam="2">  1       -2 0.53466849E-01 0.46859159E+03</pdfrwt>
<totfact> 0.11933632E+02</totfact>
</mgrwt>
</event>
<event>
 4    1  0.4840632E-008  0.6988463E+03  0.7818608E-02  0.9719207E-01
         -2   -1    0    0    0  501 -0.00000000000E+00  0.00000000000E+00  0.27203661750E+03  0.27203661751E+03  0.25500000000E-02 0.  1.
          2   -1    0    0  501    0  0.00000000000E+00 -0.00000000000E+00 -0.24392217436E+04  0.24392217436E+04  0.25500000000E-02 0. -1.
    8880022    1    1    2    0    0  0.47198566761E+03 -0.49216265975E+03 -0.17801119613E+04  0.19123767416E+04  0.15294330000E+03 0.  0.
    8880022    1    1    2    0    0 -0.47198566761E+03  0.49216265975E+03 -0.38707316486E+03  0.79888161955E+03  0.15294330000E+03 0.  0.
<mgrwt>
<rscale>  0 0.69884634E+03</rscale>
<asrwt>0</asrwt>
<pdfrwt beam="1">  1        2 0.37526487E+00 0.69884634E+03</pdfrwt>
<pdfrwt beam="2">  1       -2 0.41851789E-01 0.69884634E+03</pdfrwt>
<totfact> 0.21486905E+01</totfact>
</mgrwt>
</event>
<event>
 4    1  0.4840632E-008  0.6730600E+03  0.7818608E-02  0.9764446E-01
         -2   -1    0    0    0  501 -0.00000000000E+00  0.00000000000E+00  0.12416925897E+04  0.12416925897E+04  0.25500000000E-02 0.  1.
          2   -1    0    0  501    0  0.00000000000E+00 -0.00000000000E+00 -0.12745084267E+04  0.12745084267E+04  0.25500000000E-02 0. -1.
    8880022    1    1    2    0    0  0.43689412076E+03  0.48861196612E+03 -0.10792955158E+04  0.12719624954E+04  0.15294330000E+03 0.  0.
    8880022    1    1    2    0    0 -0.43689412076E+03 -0.48861196612E+03  0.10464796788E+04  0.12442385211E+04  0.15294330000E+03 0.  0.
<mgrwt>
<rscale>  0 0.67306001E+03</rscale>
<asrwt>0</asrwt>
<pdfrwt beam="1">  1        2 0.19607822E+00 0.67306001E+03</pdfrwt>
<pdfrwt beam="2">  1       -2 0.19102963E+00 0.67306001E+03</pdfrwt>
<totfact> 0.27158443E+00</totfact>
</mgrwt>
</event>
<event>
 4    1  0.4840632E-008  0.6960238E+03  0.7818608E-02  0.9724056E-01
         -2   -1    0    0    0  501 -0.00000000000E+00  0.00000000000E+00  0.62975630530E+03  0.62975630530E+03  0.25500000000E-02 0.  1.
          2   -1    0    0  501    0  0.00000000000E+00 -0.00000000000E+00 -0.23499600627E+04  0.23499600627E+04  0.25500000000E-02 0. -1.
    8880022    1    1    2    0    0 -0.62162818475E+03  0.27319563906E+03 -0.20820107563E+04  0.21952717143E+04  0.15294330000E+03 0.  0.
    8880022    1    1    2    0    0  0.62162818475E+03 -0.27319563906E+03  0.36180699888E+03  0.78444465371E+03  0.15294330000E+03 0.  0.
<mgrwt>
<rscale>  0 0.69602379E+03</rscale>
<asrwt>0</asrwt>
<pdfrwt beam="1">  1        2 0.36153231E+00 0.69602379E+03</pdfrwt>
<pdfrwt beam="2">  1       -2 0.96885587E-01 0.69602379E+03</pdfrwt>
<totfact> 0.39919607E+00</totfact>
</mgrwt>
</event>
<event>
 4    1  0.4840632E-008  0.3916177E+03  0.7818608E-02  0.1046721E+00
          2   -1    0    0  501    0  0.00000000000E+00  0.00000000000E+00  0.16077375279E+04  0.16077375279E+04  0.25500000000E-02 0. -1.
         -2   -1    0    0    0  501 -0.00000000000E+00 -0.00000000000E+00 -0.15647576154E+03  0.15647576156E+03  0.25500000000E-02 0.  1.
    8880022    1    1    2    0    0  0.56572597617E+02 -0.35605100109E+03  0.17449032820E+03  0.42873220293E+03  0.15294330000E+03 0.  0.
    8880022    1    1    2    0    0 -0.56572597617E+02  0.35605100109E+03  0.12767714381E+04  0.13354810865E+04  0.15294330000E+03 0.  0.
<mgrwt>
<rscale>  0 0.39161771E+03</rscale>
<asrwt>0</asrwt>
<pdfrwt beam="1">  1        2 0.24734422E+00 0.39161771E+03</pdfrwt>
<pdfrwt beam="2">  1       -2 0.24073195E-01 0.39161771E+03</pdfrwt>
<totfact> 0.17928150E+02</totfact>
</mgrwt>
</event>
<event>
 4    1  0.4840632E-008  0.2837702E+03  0.7818608E-02  0.1093647E+00
         -2   -1    0    0    0  501 -0.00000000000E+00  0.00000000000E+00  0.13695819823E+03  0.13695819825E+03  0.25500000000E-02 0.  1.
          2   -1    0    0  501    0  0.00000000000E+00 -0.00000000000E+00 -0.19907139192E+04  0.19907139192E+04  0.25500000000E-02 0. -1.
    8880022    1    1    2    0    0  0.10282796914E+03  0.21577832017E+03 -0.33857225913E+02  0.28578285367E+03  0.15294330000E+03 0.  0.
    8880022    1    1    2    0    0 -0.10282796914E+03 -0.21577832017E+03 -0.18198984951E+04  0.18418892638E+04  0.15294330000E+03 0.  0.
<mgrwt>
<rscale>  0 0.28377020E+03</rscale>
<asrwt>0</asrwt>
<pdfrwt beam="1">  1        2 0.30626366E+00 0.28377020E+03</pdfrwt>
<pdfrwt beam="2">  1       -2 0.21070494E-01 0.28377020E+03</pdfrwt>
<totfact> 0.14486939E+02</totfact>
</mgrwt>
</event>
<event>
 4    1  0.4840632E-008  0.2215312E+03  0.7818608E-02  0.1132747E+00
         -2   -1    0    0    0  501 -0.00000000000E+00  0.00000000000E+00  0.42468898930E+02  0.42468899006E+02  0.25500000000E-02 0.  1.
          2   -1    0    0  501    0  0.00000000000E+00 -0.00000000000E+00 -0.25690950888E+04  0.25690950888E+04  0.25500000000E-02 0. -1.
    8880022    1    1    2    0    0  0.15412918485E+03  0.43916232843E+02 -0.22318835796E+04  0.22428509551E+04  0.15294330000E+03 0. -1.
    8880022    1    1    2    0    0 -0.15412918485E+03 -0.43916232843E+02 -0.29474261031E+03  0.36871303269E+03  0.15294330000E+03 0.  0.
<mgrwt>
<rscale>  0 0.22153125E+03</rscale>
<asrwt>0</asrwt>
<pdfrwt beam="1">  1        2 0.39524528E+00 0.22153125E+03</pdfrwt>
<pdfrwt beam="2">  1       -2 0.65336788E-02 0.22153125E+03</pdfrwt>
<totfact> 0.48261038E+02</totfact>
</mgrwt>
</event>
<event>
 4    1  0.4840632E-008  0.7212673E+03  0.7818608E-02  0.9681538E-01
          2   -1    0    0  501    0  0.00000000000E+00  0.00000000000E+00  0.31946701860E+04  0.31946701860E+04  0.25500000000E-02 0. -1.
         -2   -1    0    0    0  501 -0.00000000000E+00 -0.00000000000E+00 -0.31550154147E+03  0.31550154148E+03  0.25500000000E-02 0.  1.
    8880022    1    1    2    0    0 -0.24778812844E+03  0.65987563122E+03  0.26604267478E+04  0.27564645724E+04  0.15294330000E+03 0.  0.
    8880022    1    1    2    0    0  0.24778812844E+03 -0.65987563122E+03  0.21874189673E+03  0.75370715512E+03  0.15294330000E+03 0.  0.
<mgrwt>
<rscale>  0 0.72126726E+03</rscale>
<asrwt>0</asrwt>
<pdfrwt beam="1">  1        2 0.49148774E+00 0.72126726E+03</pdfrwt>
<pdfrwt beam="2">  1       -2 0.48538697E-01 0.72126726E+03</pdfrwt>
<totfact> 0.56668785E+00</totfact>
</mgrwt>
</event>
<event>
 4    1  0.4840632E-008  0.6714998E+03  0.7818608E-02  0.9767252E-01
         -2   -1    0    0    0  501 -0.00000000000E+00  0.00000000000E+00  0.92411842105E+03  0.92411842105E+03  0.25500000000E-02 0.  1.
          2   -1    0    0  501    0  0.00000000000E+00 -0.00000000000E+00 -0.63499208686E+03  0.63499208686E+03  0.25500000000E-02 0. -1.
    8880022    1    1    2    0    0  0.33514707889E+03  0.56142392167E+03  0.51971064026E+03  0.84912377597E+03  0.15294330000E+03 0.  0.
    8880022    1    1    2    0    0 -0.33514707889E+03 -0.56142392167E+03 -0.23058430606E+03  0.70998673194E+03  0.15294330000E+03 0.  0.
<mgrwt>
<rscale>  0 0.67149984E+03</rscale>
<asrwt>0</asrwt>
<pdfrwt beam="1">  1        2 0.97691090E-01 0.67149984E+03</pdfrwt>
<pdfrwt beam="2">  1       -2 0.14217206E+00 0.67149984E+03</pdfrwt>
<totfact> 0.16324136E+01</totfact>
</mgrwt>
</event>
<event>
 4    1  0.4840632E-008  0.4635636E+03  0.7818608E-02  0.1023753E+00
         -2   -1    0    0    0  501 -0.00000000000E+00  0.00000000000E+00  0.43195231699E+03  0.43195231700E+03  0.25500000000E-02 0.  1.
          2   -1    0    0  501    0  0.00000000000E+00 -0.00000000000E+00 -0.88805454243E+03  0.88805454243E+03  0.25500000000E-02 0. -1.
    8880022    1    1    2    0    0  0.35385248961E+03  0.25746458785E+03  0.20964600689E+03  0.50876585933E+03  0.15294330000E+03 0.  0.
    8880022    1    1    2    0    0 -0.35385248961E+03 -0.25746458785E+03 -0.66574823233E+03  0.81124100011E+03  0.15294330000E+03 0.  0.
<mgrwt>
<rscale>  0 0.46356364E+03</rscale>
<asrwt>0</asrwt>
<pdfrwt beam="1">  1        2 0.13662377E+00 0.46356364E+03</pdfrwt>
<pdfrwt beam="2">  1       -2 0.66454203E-01 0.46356364E+03</pdfrwt>
<totfact> 0.64848940E+01</totfact>
</mgrwt>
</event>
<event>
 4    1  0.4840632E-008  0.2713062E+03  0.7818608E-02  0.1100534E+00
          2   -1    0    0  501    0  0.00000000000E+00  0.00000000000E+00  0.32187807838E+04  0.32187807838E+04  0.25500000000E-02 0. -1.
         -2   -1    0    0    0  501 -0.00000000000E+00 -0.00000000000E+00 -0.13394815610E+03  0.13394815613E+03  0.25500000000E-02 0.  1.
    8880022    1    1    2    0    0 -0.25340124066E+02  0.22265052477E+03  0.30689920226E+04  0.30809607375E+04  0.15294330000E+03 0. -1.
    8880022    1    1    2    0    0  0.25340124066E+02 -0.22265052477E+03  0.15840605073E+02  0.27176820243E+03  0.15294330000E+03 0.  0.
<mgrwt>
<rscale>  0 0.27130616E+03</rscale>
<asrwt>0</asrwt>
<pdfrwt beam="1">  1        2 0.49519705E+00 0.27130616E+03</pdfrwt>
<pdfrwt beam="2">  1       -2 0.20607408E-01 0.27130616E+03</pdfrwt>
<totfact> 0.30879470E+01</totfact>
</mgrwt>
</event>
<event>
 4    1  0.4840632E-008  0.2911779E+03  0.7818608E-02  0.1089736E+00
         -2   -1    0    0    0  501 -0.00000000000E+00  0.00000000000E+00  0.10002539257E+04  0.10002539257E+04  0.25500000000E-02 0.  1.
          2   -1    0    0  501    0  0.00000000000E+00 -0.00000000000E+00 -0.50070073002E+03  0.50070073003E+03  0.25500000000E-02 0. -1.
    8880022    1    1    2    0    0 -0.12724619282E+03  0.21260604345E+03  0.93378682525E+03  0.97813210320E+03  0.15294330000E+03 0.  1.
    8880022    1    1    2    0    0  0.12724619282E+03 -0.21260604345E+03 -0.43423362961E+03  0.52282255249E+03  0.15294330000E+03 0.  0.
<mgrwt>
<rscale>  0 0.29117791E+03</rscale>
<asrwt>0</asrwt>
<pdfrwt beam="1">  1        2 0.77030882E-01 0.29117791E+03</pdfrwt>
<pdfrwt beam="2">  1       -2 0.15388522E+00 0.29117791E+03</pdfrwt>
<totfact> 0.18593231E+01</totfact>
</mgrwt>
</event>
<event>
 4    1  0.4840632E-008  0.7114303E+03  0.7818608E-02  0.9697882E-01
         -2   -1    0    0    0  501 -0.00000000000E+00  0.00000000000E+00  0.61413347799E+03  0.61413347800E+03  0.25500000000E-02 0.  1.
          2   -1    0    0  501    0  0.00000000000E+00 -0.00000000000E+00 -0.11522320560E+04  0.11522320560E+04  0.25500000000E-02 0. -1.
    8880022    1    1    2    0    0 -0.48693035872E+03  0.49562099787E+03  0.20222891036E+03  0.73961444886E+03  0.15294330000E+03 0.  0.
    8880022    1    1    2    0    0  0.48693035872E+03 -0.49562099787E+03 -0.74032748835E+03  0.10267510851E+04  0.15294330000E+03 0.  0.
<mgrwt>
<rscale>  0 0.71143025E+03</rscale>
<asrwt>0</asrwt>
<pdfrwt beam="1">  1        2 0.17726647E+00 0.71143025E+03</pdfrwt>
<pdfrwt beam="2">  1       -2 0.94482073E-01 0.71143025E+03</pdfrwt>
<totfact> 0.19543716E+01</totfact>
</mgrwt>
</event>
<event>
 4    1  0.4840632E-008  0.3232193E+03  0.7818608E-02  0.1074177E+00
          2   -1    0    0  501    0  0.00000000000E+00  0.00000000000E+00  0.72198282152E+03  0.72198282153E+03  0.25500000000E-02 0. -1.
         -2   -1    0    0    0  501 -0.00000000000E+00 -0.00000000000E+00 -0.32580140082E+03  0.32580140083E+03  0.25500000000E-02 0.  1.
    8880022    1    1    2    0    0  0.28467623443E+03 -0.62041710697E+01 -0.19250425454E+03  0.37620285913E+03  0.15294330000E+03 0.  1.
    8880022    1    1    2    0    0 -0.28467623443E+03  0.62041710697E+01  0.58868567525E+03  0.67158136323E+03  0.15294330000E+03 0.  0.
<mgrwt>
<rscale>  0 0.32321928E+03</rscale>
<asrwt>0</asrwt>
<pdfrwt beam="1">  1        2 0.11107428E+00 0.32321928E+03</pdfrwt>
<pdfrwt beam="2">  1       -2 0.50123293E-01 0.32321928E+03</pdfrwt>
<totfact> 0.15498193E+02</totfact>
</mgrwt>
</event>
<event>
 4    1  0.4840632E-008  0.5782915E+03  0.7818608E-02  0.9951497E-01
         -2   -1    0    0    0  501 -0.00000000000E+00  0.00000000000E+00  0.70401030813E+03  0.70401030814E+03  0.25500000000E-02 0.  1.
          2   -1    0    0  501    0  0.00000000000E+00 -0.00000000000E+00 -0.10219429592E+04  0.10219429592E+04  0.25500000000E-02 0. -1.
    8880022    1    1    2    0    0  0.12070513873E+03  0.54448111286E+03  0.47235085461E+03  0.74668359808E+03  0.15294330000E+03 0.  0.
    8880022    1    1    2    0    0 -0.12070513873E+03 -0.54448111286E+03 -0.79028350570E+03  0.97926966928E+03  0.15294330000E+03 0.  0.
<mgrwt>
<rscale>  0 0.57829151E+03</rscale>
<asrwt>0</asrwt>
<pdfrwt beam="1">  1        2 0.15722199E+00 0.57829151E+03</pdfrwt>
<pdfrwt beam="2">  1       -2 0.10830928E+00 0.57829151E+03</pdfrwt>
<totfact> 0.17280288E+01</totfact>
</mgrwt>
</event>
<event>
 4    1  0.4840632E-008  0.2359870E+03  0.7818608E-02  0.1122495E+00
          2   -1    0    0  501    0  0.00000000000E+00  0.00000000000E+00  0.32764311007E+03  0.32764311008E+03  0.25500000000E-02 0. -1.
         -2   -1    0    0    0  501 -0.00000000000E+00 -0.00000000000E+00 -0.46457547036E+03  0.46457547037E+03  0.25500000000E-02 0.  1.
    8880022    1    1    2    0    0 -0.17475193851E+03 -0.41951929417E+02 -0.38389871697E+03  0.45063076049E+03  0.15294330000E+03 0.  1.
    8880022    1    1    2    0    0  0.17475193851E+03  0.41951929417E+02  0.24696635667E+03  0.34158781995E+03  0.15294330000E+03 0.  0.
<mgrwt>
<rscale>  0 0.23598699E+03</rscale>
<asrwt>0</asrwt>
<pdfrwt beam="1">  1        2 0.50406632E-01 0.23598699E+03</pdfrwt>
<pdfrwt beam="2">  1       -2 0.71473150E-01 0.23598699E+03</pdfrwt>
<totfact> 0.18303574E+02</totfact>
</mgrwt>
</event>
<event>
 4    1  0.4840632E-008  0.1044382E+04  0.7818608E-02  0.9261164E-01
         -2   -1    0    0    0  501 -0.00000000000E+00  0.00000000000E+00  0.11807229333E+04  0.11807229333E+04  0.25500000000E-02 0.  1.
          2   -1    0    0  501    0  0.00000000000E+00 -0.00000000000E+00 -0.16406033513E+04  0.16406033513E+04  0.25500000000E-02 0. -1.
    8880022    1    1    2    0    0 -0.65892620607E+03  0.79571249698E+03  0.70251111896E+03  0.12586721766E+04  0.15294330000E+03 0.  0.
    8880022    1    1    2    0    0  0.65892620607E+03 -0.79571249698E+03 -0.11623915369E+04  0.15626541079E+04  0.15294330000E+03 0.  0.
<mgrwt>
<rscale>  0 0.10443820E+04</rscale>
<asrwt>0</asrwt>
<pdfrwt beam="1">  1        2 0.25240052E+00 0.10443820E+04</pdfrwt>
<pdfrwt beam="2">  1       -2 0.18164968E+00 0.10443820E+04</pdfrwt>
<totfact> 0.18474144E+00</totfact>
</mgrwt>
</event>
<event>
 4    1  0.4840632E-008  0.4262002E+03  0.7818608E-02  0.1035067E+00
         -2   -1    0    0    0  501 -0.00000000000E+00  0.00000000000E+00  0.56623267064E+03  0.56623267065E+03  0.25500000000E-02 0.  1.
          2   -1    0    0  501    0  0.00000000000E+00 -0.00000000000E+00 -0.12798005145E+04  0.12798005145E+04  0.25500000000E-02 0. -1.
    8880022    1    1    2    0    0  0.17242908179E+03  0.35850130002E+03  0.44221853524E+03  0.61416924076E+03  0.15294330000E+03 0.  0.
    8880022    1    1    2    0    0 -0.17242908179E+03 -0.35850130002E+03 -0.11557863791E+04  0.12318639444E+04  0.15294330000E+03 0. -1.
<mgrwt>
<rscale>  0 0.42620022E+03</rscale>
<asrwt>0</asrwt>
<pdfrwt beam="1">  1        2 0.19689239E+00 0.42620022E+03</pdfrwt>
<pdfrwt beam="2">  1       -2 0.87112719E-01 0.42620022E+03</pdfrwt>
<totfact> 0.20737036E+01</totfact>
</mgrwt>
</event>
<event>
 4    1  0.4840632E-008  0.2900498E+03  0.7818608E-02  0.1090323E+00
          2   -1    0    0  501    0  0.00000000000E+00  0.00000000000E+00  0.26179930801E+04  0.26179930801E+04  0.25500000000E-02 0. -1.
         -2   -1    0    0    0  501 -0.00000000000E+00 -0.00000000000E+00 -0.10160417513E+04  0.10160417513E+04  0.25500000000E-02 0.  1.
    8880022    1    1    2    0    0  0.16396532028E+03  0.18399083836E+03 -0.98707700891E+03  0.10288099579E+04  0.15294330000E+03 0.  0.
    8880022    1    1    2    0    0 -0.16396532028E+03 -0.18399083836E+03  0.25890283378E+04  0.26052248735E+04  0.15294330000E+03 0. -1.
<mgrwt>
<rscale>  0 0.29004984E+03</rscale>
<asrwt>0</asrwt>
<pdfrwt beam="1">  1        2 0.40276816E+00 0.29004984E+03</pdfrwt>
<pdfrwt beam="2">  1       -2 0.15631412E+00 0.29004984E+03</pdfrwt>
<totfact> 0.99064449E-01</totfact>
</mgrwt>
</event>
<event>
 4    1  0.5740455E-008  0.7298727E+03  0.7818608E-02  0.9667467E-01
         -2   -1    0    0    0  501 -0.00000000000E+00  0.00000000000E+00  0.79574983871E+03  0.79574983872E+03  0.25500000000E-02 0.  1.
          2   -1    0    0  501    0  0.00000000000E+00 -0.00000000000E+00 -0.24412890876E+04  0.24412890876E+04  0.25500000000E-02 0. -1.
    8880022    1    1    2    0    0  0.54903120696E+03  0.45594655620E+03  0.55609155584E+03  0.91757942426E+03  0.15294330000E+03 0.  0.
    8880022    1    1    2    0    0 -0.54903120696E+03 -0.45594655620E+03 -0.22016308048E+04  0.23194595021E+04  0.15294330000E+03 0.  0.
<mgrwt>
<rscale>  0 0.72987272E+03</rscale>
<asrwt>0</asrwt>
<pdfrwt beam="1">  1        2 0.37558293E+00 0.72987272E+03</pdfrwt>
<pdfrwt beam="2">  1       -2 0.12242305E+00 0.72987272E+03</pdfrwt>
<totfact> 0.20027907E+00</totfact>
</mgrwt>
</event>
<event>
 4    1  0.4840632E-008  0.2476647E+03  0.7818608E-02  0.1114790E+00
         -2   -1    0    0    0  501 -0.00000000000E+00  0.00000000000E+00  0.26341841432E+03  0.26341841433E+03  0.25500000000E-02 0.  1.
          2   -1    0    0  501    0  0.00000000000E+00 -0.00000000000E+00 -0.27111134674E+04  0.27111134674E+04  0.25500000000E-02 0. -1.
    8880022    1    1    2    0    0  0.15140899593E+03 -0.12256208079E+03  0.19811531955E+03  0.31715529407E+03  0.15294330000E+03 0.  1.
    8880022    1    1    2    0    0 -0.15140899593E+03  0.12256208079E+03 -0.26458103726E+04  0.26573765876E+04  0.15294330000E+03 0.  0.
<mgrwt>
<rscale>  0 0.24766469E+03</rscale>
<asrwt>0</asrwt>
<pdfrwt beam="1">  1        2 0.41709436E+00 0.24766469E+03</pdfrwt>
<pdfrwt beam="2">  1       -2 0.40525912E-01 0.24766469E+03</pdfrwt>
<totfact> 0.18237900E+01</totfact>
</mgrwt>
</event>
<event>
 4    1  0.4840632E-008  0.6046543E+03  0.7818608E-02  0.9895797E-01
         -2   -1    0    0    0  501 -0.00000000000E+00  0.00000000000E+00  0.22757548248E+03  0.22757548250E+03  0.25500000000E-02 0.  1.
          2   -1    0    0  501    0  0.00000000000E+00 -0.00000000000E+00 -0.40371002317E+04  0.40371002317E+04  0.25500000000E-02 0. -1.
    8880022    1    1    2    0    0 -0.45280943798E+03 -0.37037660163E+03 -0.35592949717E+04  0.36102891245E+04  0.15294330000E+03 0.  0.
    8880022    1    1    2    0    0  0.45280943798E+03  0.37037660163E+03 -0.25022977751E+03  0.65438658966E+03  0.15294330000E+03 0.  0.
<mgrwt>
<rscale>  0 0.60465434E+03</rscale>
<asrwt>0</asrwt>
<pdfrwt beam="1">  1        2 0.62109229E+00 0.60465434E+03</pdfrwt>
<pdfrwt beam="2">  1       -2 0.35011616E-01 0.60465434E+03</pdfrwt>
<totfact> 0.28146736E+00</totfact>
</mgrwt>
</event>
<event>
 4    1  0.4840632E-008  0.4671216E+03  0.7818608E-02  0.1022736E+00
          2   -1    0    0  501    0  0.00000000000E+00  0.00000000000E+00  0.11496958061E+04  0.11496958061E+04  0.25500000000E-02 0. -1.
         -2   -1    0    0    0  501 -0.00000000000E+00 -0.00000000000E+00 -0.63816152926E+03  0.63816152926E+03  0.25500000000E-02 0.  1.
    8880022    1    1    2    0    0  0.31521189369E+02 -0.44024690568E+03 -0.49353298985E+03  0.67954204316E+03  0.15294330000E+03 0.  0.
    8880022    1    1    2    0    0 -0.31521189369E+02  0.44024690568E+03  0.10050672666E+04  0.11083152922E+04  0.15294330000E+03 0.  0.
<mgrwt>
<rscale>  0 0.46712159E+03</rscale>
<asrwt>0</asrwt>
<pdfrwt beam="1">  1        2 0.17687628E+00 0.46712159E+03</pdfrwt>
<pdfrwt beam="2">  1       -2 0.98178698E-01 0.46712159E+03</pdfrwt>
<totfact> 0.18576390E+01</totfact>
</mgrwt>
</event>
<event>
 4    1  0.4840632E-008  0.2373791E+03  0.7818608E-02  0.1121551E+00
         -2   -1    0    0    0  501 -0.00000000000E+00  0.00000000000E+00  0.50580445636E+03  0.50580445637E+03  0.25500000000E-02 0.  1.
          2   -1    0    0  501    0  0.00000000000E+00 -0.00000000000E+00 -0.49610971220E+03  0.49610971220E+03  0.25500000000E-02 0. -1.
    8880022    1    1    2    0    0 -0.17940226105E+03  0.27785208127E+02 -0.43629192771E+03  0.49668852238E+03  0.15294330000E+03 0.  0.
    8880022    1    1    2    0    0  0.17940226105E+03 -0.27785208127E+02  0.44598667188E+03  0.50522564619E+03  0.15294330000E+03 0.  1.
<mgrwt>
<rscale>  0 0.23737911E+03</rscale>
<asrwt>0</asrwt>
<pdfrwt beam="1">  1        2 0.76324572E-01 0.23737911E+03</pdfrwt>
<pdfrwt beam="2">  1       -2 0.77816070E-01 0.23737911E+03</pdfrwt>
<totfact> 0.96641554E+01</totfact>
</mgrwt>
</event>
<event>
 4    1  0.7882642E-008  0.7914176E+03  0.7818608E-02  0.9572524E-01
          2   -1    0    0  501    0  0.00000000000E+00  0.00000000000E+00  0.20296173865E+04  0.20296173865E+04  0.25500000000E-02 0. -1.
         -2   -1    0    0    0  501 -0.00000000000E+00 -0.00000000000E+00 -0.13486029036E+04  0.13486029036E+04  0.25500000000E-02 0.  1.
    8880022    1    1    2    0    0  0.76522744127E+03  0.13182223763E+03  0.18238209452E+04  0.19881309395E+04  0.15294330000E+03 0.  0.
    8880022    1    1    2    0    0 -0.76522744127E+03 -0.13182223763E+03 -0.11428064624E+04  0.13900893506E+04  0.15294330000E+03 0.  0.
<mgrwt>
<rscale>  0 0.79141758E+03</rscale>
<asrwt>0</asrwt>
<pdfrwt beam="1">  1        2 0.31224883E+00 0.79141758E+03</pdfrwt>
<pdfrwt beam="2">  1       -2 0.20747737E+00 0.79141758E+03</pdfrwt>
<totfact> 0.79296529E-01</totfact>
</mgrwt>
</event>
<event>
 4    1  0.4840632E-008  0.6058002E+03  0.7818608E-02  0.9893445E-01
         -2   -1    0    0    0  501 -0.00000000000E+00  0.00000000000E+00  0.16229869557E+04  0.16229869557E+04  0.25500000000E-02 0.  1.
          2   -1    0    0  501    0  0.00000000000E+00 -0.00000000000E+00 -0.32110490646E+03  0.32110490647E+03  0.25500000000E-02 0. -1.
    8880022    1    1    2    0    0  0.97279971822E+02 -0.57804743964E+03  0.11796112738E+04  0.13260756561E+04  0.15294330000E+03 0.  0.
    8880022    1    1    2    0    0 -0.97279971822E+02  0.57804743964E+03  0.12227077540E+03  0.61801620603E+03  0.15294330000E+03 0.  0.
<mgrwt>
<rscale>  0 0.60580021E+03</rscale>
<asrwt>0</asrwt>
<pdfrwt beam="1">  1        2 0.49400755E-01 0.60580021E+03</pdfrwt>
<pdfrwt beam="2">  1       -2 0.24969030E+00 0.60580021E+03</pdfrwt>
<totfact> 0.68751550E+00</totfact>
</mgrwt>
</event>
<event>
 4    1  0.4840632E-008  0.1659239E+03  0.7818608E-02  0.1182166E+00
          2   -1    0    0  501    0  0.00000000000E+00  0.00000000000E+00  0.14869287457E+04  0.14869287457E+04  0.25500000000E-02 0. -1.
         -2   -1    0    0    0  501 -0.00000000000E+00 -0.00000000000E+00 -0.33029430313E+03  0.33029430314E+03  0.25500000000E-02 0.  1.
    8880022    1    1    2    0    0  0.59211721811E+02  0.25160585146E+02 -0.30446021297E+03  0.34673730307E+03  0.15294330000E+03 0.  1.
    8880022    1    1    2    0    0 -0.59211721811E+02 -0.25160585146E+02  0.14610946556E+04  0.14704857458E+04  0.15294330000E+03 0.  0.
<mgrwt>
<rscale>  0 0.16592389E+03</rscale>
<asrwt>0</asrwt>
<pdfrwt beam="1">  1        2 0.22875827E+00 0.16592389E+03</pdfrwt>
<pdfrwt beam="2">  1       -2 0.50814508E-01 0.16592389E+03</pdfrwt>
<totfact> 0.54430105E+01</totfact>
</mgrwt>
</event>
<event>
 4    1  0.4840632E-008  0.3299390E+03  0.7818608E-02  0.1071164E+00
          2   -1    0    0  501    0  0.00000000000E+00  0.00000000000E+00  0.16428872567E+04  0.16428872567E+04  0.25500000000E-02 0. -1.
         -2   -1    0    0    0  501 -0.00000000000E+00 -0.00000000000E+00 -0.22192741238E+03  0.22192741240E+03  0.25500000000E-02 0.  1.
    8880022    1    1    2    0    0  0.16815448059E+03  0.23914880971E+03 -0.70423524032E+02  0.33737102466E+03  0.15294330000E+03 0.  0.
    8880022    1    1    2    0    0 -0.16815448059E+03 -0.23914880971E+03  0.14913833683E+04  0.15274436444E+04  0.15294330000E+03 0. -1.
<mgrwt>
<rscale>  0 0.32993899E+03</rscale>
<asrwt>0</asrwt>
<pdfrwt beam="1">  1        2 0.25275188E+00 0.32993899E+03</pdfrwt>
<pdfrwt beam="2">  1       -2 0.34142680E-01 0.32993899E+03</pdfrwt>
<totfact> 0.91923244E+01</totfact>
</mgrwt>
</event>
<event>
 4    1  0.5605029E-008  0.1061680E+04  0.7818608E-02  0.9243368E-01
          2   -1    0    0  501    0  0.00000000000E+00  0.00000000000E+00  0.16466006112E+04  0.16466006112E+04  0.25500000000E-02 0. -1.
         -2   -1    0    0    0  501 -0.00000000000E+00 -0.00000000000E+00 -0.11730862511E+04  0.11730862511E+04  0.25500000000E-02 0.  1.
    8880022    1    1    2    0    0 -0.98836911513E+03 -0.35622832460E+03 -0.67306979716E+03  0.12570547847E+04  0.15294330000E+03 0.  0.
    8880022    1    1    2    0    0  0.98836911513E+03  0.35622832460E+03  0.11465841572E+04  0.15626320775E+04  0.15294330000E+03 0.  0.
<mgrwt>
<rscale>  0 0.10616797E+04</rscale>
<asrwt>0</asrwt>
<pdfrwt beam="1">  1        2 0.25332317E+00 0.10616797E+04</pdfrwt>
<pdfrwt beam="2">  1       -2 0.18047481E+00 0.10616797E+04</pdfrwt>
<totfact> 0.18637709E+00</totfact>
</mgrwt>
</event>
<event>
 4    1  0.4840632E-008  0.1967920E+04  0.7818608E-02  0.8621768E-01
          2   -1    0    0  501    0  0.00000000000E+00  0.00000000000E+00  0.20932821770E+04  0.20932821770E+04  0.25500000000E-02 0. -1.
         -2   -1    0    0    0  501 -0.00000000000E+00 -0.00000000000E+00 -0.24837091044E+04  0.24837091044E+04  0.25500000000E-02 0.  1.
    8880022    1    1    2    0    0 -0.16069421975E+04 -0.11256350396E+04 -0.13511187645E+04  0.23870967800E+04  0.15294330000E+03 0.  0.
    8880022    1    1    2    0    0  0.16069421975E+04  0.11256350396E+04  0.96069183711E+03  0.21898945014E+04  0.15294330000E+03 0.  0.
<mgrwt>
<rscale>  0 0.19679200E+04</rscale>
<asrwt>0</asrwt>
<pdfrwt beam="1">  1        2 0.32204341E+00 0.19679200E+04</pdfrwt>
<pdfrwt beam="2">  1       -2 0.38210909E+00 0.19679200E+04</pdfrwt>
<totfact> 0.51124751E-02</totfact>
</mgrwt>
</event>
<event>
 4    1  0.4840632E-008  0.5698362E+03  0.7818608E-02  0.9970041E-01
         -2   -1    0    0    0  501 -0.00000000000E+00  0.00000000000E+00  0.62981393918E+03  0.62981393918E+03  0.25500000000E-02 0.  1.
          2   -1    0    0  501    0  0.00000000000E+00 -0.00000000000E+00 -0.73890323037E+03  0.73890323037E+03  0.25500000000E-02 0. -1.
    8880022    1    1    2    0    0  0.15893846281E+03 -0.52541433273E+03  0.32169659715E+03  0.65437146150E+03  0.15294330000E+03 0.  0.
    8880022    1    1    2    0    0 -0.15893846281E+03  0.52541433273E+03 -0.43078588834E+03  0.71434570805E+03  0.15294330000E+03 0.  0.
<mgrwt>
<rscale>  0 0.56983621E+03</rscale>
<asrwt>0</asrwt>
<pdfrwt beam="1">  1        2 0.11367742E+00 0.56983621E+03</pdfrwt>
<pdfrwt beam="2">  1       -2 0.96894452E-01 0.56983621E+03</pdfrwt>
<totfact> 0.35081708E+01</totfact>
</mgrwt>
</event>
<event>
 4    1  0.4840632E-008  0.3536895E+03  0.7818608E-02  0.1061111E+00
         -2   -1    0    0    0  501 -0.00000000000E+00  0.00000000000E+00  0.83294973374E+02  0.83294973413E+02  0.25500000000E-02 0.  1.
          2   -1    0    0  501    0  0.00000000000E+00 -0.00000000000E+00 -0.25176339545E+04  0.25176339545E+04  0.25500000000E-02 0. -1.
    8880022    1    1    2    0    0 -0.25058102420E+02 -0.31792558023E+03 -0.20432144595E+04  0.20736011101E+04  0.15294330000E+03 0.  0.
    8880022    1    1    2    0    0  0.25058102420E+02  0.31792558023E+03 -0.39112452160E+03  0.52732781785E+03  0.15294330000E+03 0.  1.
<mgrwt>
<rscale>  0 0.35368946E+03</rscale>
<asrwt>0</asrwt>
<pdfrwt beam="1">  1        2 0.38732824E+00 0.35368946E+03</pdfrwt>
<pdfrwt beam="2">  1       -2 0.12814613E-01 0.35368946E+03</pdfrwt>
<totfact> 0.17112305E+02</totfact>
</mgrwt>
</event>
<event>
 4    1  0.4840632E-008  0.3072477E+03  0.7818608E-02  0.1081673E+00
          2   -1    0    0  501    0  0.00000000000E+00  0.00000000000E+00  0.11783089206E+04  0.11783089206E+04  0.25500000000E-02 0. -1.
         -2   -1    0    0    0  501 -0.00000000000E+00 -0.00000000000E+00 -0.41999194203E+03  0.41999194204E+03  0.25500000000E-02 0.  1.
    8880022    1    1    2    0    0 -0.26582719667E+03  0.18585702702E+02 -0.33974135462E+03  0.45806699061E+03  0.15294330000E+03 0.  0.
    8880022    1    1    2    0    0  0.26582719667E+03 -0.18585702702E+02  0.10980583332E+04  0.11402338720E+04  0.15294330000E+03 0.  0.
<mgrwt>
<rscale>  0 0.30724775E+03</rscale>
<asrwt>0</asrwt>
<pdfrwt beam="1">  1        2 0.18127830E+00 0.30724775E+03</pdfrwt>
<pdfrwt beam="2">  1       -2 0.64614144E-01 0.30724775E+03</pdfrwt>
<totfact> 0.46845343E+01</totfact>
</mgrwt>
</event>
<event>
 4    1  0.4840632E-008  0.9945260E+03  0.7818608E-02  0.9314569E-01
         -2   -1    0    0    0  501 -0.00000000000E+00  0.00000000000E+00  0.89105376464E+03  0.89105376464E+03  0.25500000000E-02 0.  1.
          2   -1    0    0  501    0  0.00000000000E+00 -0.00000000000E+00 -0.18687906351E+04  0.18687906351E+04  0.25500000000E-02 0. -1.
    8880022    1    1    2    0    0 -0.95233279933E+03  0.24238936657E+03 -0.13681567363E+04  0.16914298312E+04  0.15294330000E+03 0.  0.
    8880022    1    1    2    0    0  0.95233279933E+03 -0.24238936657E+03  0.39041986582E+03  0.10684145686E+04  0.15294330000E+03 0.  0.
<mgrwt>
<rscale>  0 0.99452603E+03</rscale>
<asrwt>0</asrwt>
<pdfrwt beam="1">  1        2 0.28750625E+00 0.99452603E+03</pdfrwt>
<pdfrwt beam="2">  1       -2 0.13708519E+00 0.99452603E+03</pdfrwt>
<totfact> 0.29890298E+00</totfact>
</mgrwt>
</event>
<event>
 4    1  0.4840632E-008  0.3868519E+03  0.7818608E-02  0.1048430E+00
          2   -1    0    0  501    0  0.00000000000E+00  0.00000000000E+00  0.14460031955E+04  0.14460031955E+04  0.25500000000E-02 0. -1.
         -2   -1    0    0    0  501 -0.00000000000E+00 -0.00000000000E+00 -0.30472055511E+03  0.30472055512E+03  0.25500000000E-02 0.  1.
    8880022    1    1    2    0    0  0.30879583258E+03  0.17580625176E+03  0.12819827900E+04  0.13390796209E+04  0.15294330000E+03 0.  0.
    8880022    1    1    2    0    0 -0.30879583258E+03 -0.17580625176E+03 -0.14070014961E+03  0.41164412967E+03  0.15294330000E+03 0.  0.
<mgrwt>
<rscale>  0 0.38685185E+03</rscale>
<asrwt>0</asrwt>
<pdfrwt beam="1">  1        2 0.22246203E+00 0.38685185E+03</pdfrwt>
<pdfrwt beam="2">  1       -2 0.46880086E-01 0.38685185E+03</pdfrwt>
<totfact> 0.62973020E+01</totfact>
</mgrwt>
</event>
<event>
 4    1  0.4840632E-008  0.1131927E+04  0.7818608E-02  0.9174620E-01
         -2   -1    0    0    0  501 -0.00000000000E+00  0.00000000000E+00  0.13483445464E+04  0.13483445464E+04  0.25500000000E-02 0.  1.
          2   -1    0    0  501    0  0.00000000000E+00 -0.00000000000E+00 -0.13851190243E+04  0.13851190243E+04  0.25500000000E-02 0. -1.
    8880022    1    1    2    0    0  0.69719482525E+03  0.87851403042E+03 -0.78419703953E+03  0.13770345587E+04  0.15294330000E+03 0. -1.
    8880022    1    1    2    0    0 -0.69719482525E+03 -0.87851403042E+03  0.74742256157E+03  0.13564290120E+04  0.15294330000E+03 0.  0.
<mgrwt>
<rscale>  0 0.11319272E+04</rscale>
<asrwt>0</asrwt>
<pdfrwt beam="1">  1        2 0.21309524E+00 0.11319272E+04</pdfrwt>
<pdfrwt beam="2">  1       -2 0.20743762E+00 0.11319272E+04</pdfrwt>
<totfact> 0.17162389E+00</totfact>
</mgrwt>
</event>
<event>
 4    1  0.4840632E-008  0.5718201E+03  0.7818608E-02  0.9965659E-01
          2   -1    0    0  501    0  0.00000000000E+00  0.00000000000E+00  0.55301718177E+03  0.55301718178E+03  0.25500000000E-02 0. -1.
         -2   -1    0    0    0  501 -0.00000000000E+00 -0.00000000000E+00 -0.96819261908E+03  0.96819261908E+03  0.25500000000E-02 0.  1.
    8880022    1    1    2    0    0  0.15074143271E+03  0.52996562177E+03 -0.68216701736E+03  0.89012922230E+03  0.15294330000E+03 0.  0.
    8880022    1    1    2    0    0 -0.15074143271E+03 -0.52996562177E+03  0.26699158006E+03  0.63108057856E+03  0.15294330000E+03 0.  0.
<mgrwt>
<rscale>  0 0.57182007E+03</rscale>
<asrwt>0</asrwt>
<pdfrwt beam="1">  1        2 0.85079566E-01 0.57182007E+03</pdfrwt>
<pdfrwt beam="2">  1       -2 0.14895271E+00 0.57182007E+03</pdfrwt>
<totfact> 0.17250151E+01</totfact>
</mgrwt>
</event>
<event>
 4    1  0.4840632E-008  0.2770070E+03  0.7818608E-02  0.1097335E+00
          2   -1    0    0  501    0  0.00000000000E+00  0.00000000000E+00  0.96946598156E+03  0.96946598156E+03  0.25500000000E-02 0. -1.
         -2   -1    0    0    0  501 -0.00000000000E+00 -0.00000000000E+00 -0.13145093218E+03  0.13145093220E+03  0.25500000000E-02 0.  1.
    8880022    1    1    2    0    0 -0.12294038567E+03 -0.19551694448E+03  0.71792113630E+02  0.28615900231E+03  0.15294330000E+03 0.  0.
    8880022    1    1    2    0    0  0.12294038567E+03  0.19551694448E+03  0.76622293575E+03  0.81475791146E+03  0.15294330000E+03 0. -1.
<mgrwt>
<rscale>  0 0.27700698E+03</rscale>
<asrwt>0</asrwt>
<pdfrwt beam="1">  1        2 0.14914860E+00 0.27700698E+03</pdfrwt>
<pdfrwt beam="2">  1       -2 0.20223221E-01 0.27700698E+03</pdfrwt>
<totfact> 0.56796759E+02</totfact>
</mgrwt>
</event>
<event>
 4    1  0.4840632E-008  0.1798413E+03  0.7818608E-02  0.1167957E+00
          2   -1    0    0  501    0  0.00000000000E+00  0.00000000000E+00  0.56716671279E+03  0.56716671279E+03  0.25500000000E-02 0. -1.
         -2   -1    0    0    0  501 -0.00000000000E+00 -0.00000000000E+00 -0.19583778460E+03  0.19583778462E+03  0.25500000000E-02 0.  1.
    8880022    1    1    2    0    0 -0.34093537522E+02 -0.88254674786E+02 -0.13552623622E+03  0.22518941059E+03  0.15294330000E+03 0.  1.
    8880022    1    1    2    0    0  0.34093537522E+02  0.88254674786E+02  0.50685516440E+03  0.53781508683E+03  0.15294330000E+03 0.  0.
<mgrwt>
<rscale>  0 0.17984135E+03</rscale>
<asrwt>0</asrwt>
<pdfrwt beam="1">  1        2 0.87256415E-01 0.17984135E+03</pdfrwt>
<pdfrwt beam="2">  1       -2 0.30128891E-01 0.17984135E+03</pdfrwt>
<totfact> 0.55105010E+02</totfact>
</mgrwt>
</event>
<event>
 4    1  0.4840632E-008  0.3031287E+03  0.7818608E-02  0.1083687E+00
         -2   -1    0    0    0  501 -0.00000000000E+00  0.00000000000E+00  0.14587787707E+04  0.14587787707E+04  0.25500000000E-02 0.  1.
          2   -1    0    0  501    0  0.00000000000E+00 -0.00000000000E+00 -0.21790286987E+03  0.21790286989E+03  0.25500000000E-02 0. -1.
    8880022    1    1    2    0    0  0.21593394671E+03  0.14787798704E+03  0.13272993797E+04  0.13614737107E+04  0.15294330000E+03 0.  0.
    8880022    1    1    2    0    0 -0.21593394671E+03 -0.14787798704E+03 -0.86423478868E+02  0.31520792996E+03  0.15294330000E+03 0.  0.
<mgrwt>
<rscale>  0 0.30312872E+03</rscale>
<asrwt>0</asrwt>
<pdfrwt beam="1">  1        2 0.33523519E-01 0.30312872E+03</pdfrwt>
<pdfrwt beam="2">  1       -2 0.22442750E+00 0.30312872E+03</pdfrwt>
<totfact> 0.15784637E+01</totfact>
</mgrwt>
</event>
<event>
 4    1  0.4840632E-008  0.6293119E+03  0.7818608E-02  0.9846392E-01
          2   -1    0    0  501    0  0.00000000000E+00  0.00000000000E+00  0.17041644082E+04  0.17041644082E+04  0.25500000000E-02 0. -1.
         -2   -1    0    0    0  501 -0.00000000000E+00 -0.00000000000E+00 -0.33318028515E+03  0.33318028516E+03  0.25500000000E-02 0.  1.
    8880022    1    1    2    0    0 -0.43630306016E+03  0.42694437389E+03  0.12521771756E+03  0.64164864880E+03  0.15294330000E+03 0. -1.
    8880022    1    1    2    0    0  0.43630306016E+03 -0.42694437389E+03  0.12457664054E+04  0.13956960445E+04  0.15294330000E+03 0.  0.
<mgrwt>
<rscale>  0 0.62931194E+03</rscale>
<asrwt>0</asrwt>
<pdfrwt beam="1">  1        2 0.26217914E+00 0.62931194E+03</pdfrwt>
<pdfrwt beam="2">  1       -2 0.51258505E-01 0.62931194E+03</pdfrwt>
<totfact> 0.36565229E+01</totfact>
</mgrwt>
</event>
<event>
 4    1  0.4840632E-008  0.2452553E+03  0.7818608E-02  0.1116341E+00
         -2   -1    0    0    0  501 -0.00000000000E+00  0.00000000000E+00  0.39279961146E+03  0.39279961147E+03  0.25500000000E-02 0.  1.
          2   -1    0    0  501    0  0.00000000000E+00 -0.00000000000E+00 -0.10664011530E+04  0.10664011530E+04  0.25500000000E-02 0. -1.
    8880022    1    1    2    0    0  0.12174825023E+03  0.14810755659E+03  0.33838639123E+03  0.41791803926E+03  0.15294330000E+03 0.  0.
    8880022    1    1    2    0    0 -0.12174825023E+03 -0.14810755659E+03 -0.10119879328E+04  0.10412827252E+04  0.15294330000E+03 0.  0.
<mgrwt>
<rscale>  0 0.24525525E+03</rscale>
<asrwt>0</asrwt>
<pdfrwt beam="1">  1        2 0.16406172E+00 0.24525525E+03</pdfrwt>
<pdfrwt beam="2">  1       -2 0.60430710E-01 0.24525525E+03</pdfrwt>
<totfact> 0.63643696E+01</totfact>
</mgrwt>
</event>
<event>
 4    1  0.4840632E-008  0.3331392E+03  0.7818608E-02  0.1069756E+00
         -2   -1    0    0    0  501 -0.00000000000E+00  0.00000000000E+00  0.20702692289E+03  0.20702692291E+03  0.25500000000E-02 0.  1.
          2   -1    0    0  501    0  0.00000000000E+00 -0.00000000000E+00 -0.14974256134E+04  0.14974256134E+04  0.25500000000E-02 0. -1.
    8880022    1    1    2    0    0  0.50240710308E+02 -0.29166066105E+03 -0.13280464106E+04  0.13691928250E+04  0.15294330000E+03 0.  0.
    8880022    1    1    2    0    0 -0.50240710308E+02  0.29166066105E+03  0.37647720148E+02  0.33525971130E+03  0.15294330000E+03 0.  0.
<mgrwt>
<rscale>  0 0.33313919E+03</rscale>
<asrwt>0</asrwt>
<pdfrwt beam="1">  1        2 0.23037316E+00 0.33313919E+03</pdfrwt>
<pdfrwt beam="2">  1       -2 0.31850297E-01 0.33313919E+03</pdfrwt>
<totfact> 0.12512064E+02</totfact>
</mgrwt>
</event>
<event>
 4    1  0.5448130E-008  0.9750026E+03  0.7818608E-02  0.9336395E-01
          2   -1    0    0  501    0  0.00000000000E+00  0.00000000000E+00  0.20982334409E+04  0.20982334409E+04  0.25500000000E-02 0. -1.
         -2   -1    0    0    0  501 -0.00000000000E+00 -0.00000000000E+00 -0.11534845927E+04  0.11534845927E+04  0.25500000000E-02 0.  1.
    8880022    1    1    2    0    0  0.57303706843E+03  0.77386490355E+03 -0.79456844285E+03  0.12577635048E+04  0.15294330000E+03 0.  0.
    8880022    1    1    2    0    0 -0.57303706843E+03 -0.77386490355E+03  0.17393172911E+04  0.19939545288E+04  0.15294330000E+03 0.  0.
<mgrwt>
<rscale>  0 0.97500258E+03</rscale>
<asrwt>0</asrwt>
<pdfrwt beam="1">  1        2 0.32280514E+00 0.97500258E+03</pdfrwt>
<pdfrwt beam="2">  1       -2 0.17745917E+00 0.97500258E+03</pdfrwt>
<totfact> 0.11153504E+00</totfact>
</mgrwt>
</event>
<event>
 4    1  0.4840632E-008  0.1204199E+04  0.7818608E-02  0.9109189E-01
         -2   -1    0    0    0  501 -0.00000000000E+00  0.00000000000E+00  0.82958306207E+03  0.82958306207E+03  0.25500000000E-02 0.  1.
          2   -1    0    0  501    0  0.00000000000E+00 -0.00000000000E+00 -0.20311635722E+04  0.20311635722E+04  0.25500000000E-02 0. -1.
    8880022    1    1    2    0    0 -0.26305406133E+03 -0.11651203699E+04 -0.11348760266E+04  0.16547018354E+04  0.15294330000E+03 0.  0.
    8880022    1    1    2    0    0  0.26305406133E+03  0.11651203699E+04 -0.66704483511E+02  0.12060447988E+04  0.15294330000E+03 0.  0.
<mgrwt>
<rscale>  0 0.12041987E+04</rscale>
<asrwt>0</asrwt>
<pdfrwt beam="1">  1        2 0.31248670E+00 0.12041987E+04</pdfrwt>
<pdfrwt beam="2">  1       -2 0.12762816E+00 0.12041987E+04</pdfrwt>
<totfact> 0.28484537E+00</totfact>
</mgrwt>
</event>
<event>
 4    1  0.4840632E-008  0.5307595E+03  0.7818608E-02  0.1006048E+00
          2   -1    0    0  501    0  0.00000000000E+00  0.00000000000E+00  0.14727806645E+03  0.14727806647E+03  0.25500000000E-02 0. -1.
         -2   -1    0    0    0  501 -0.00000000000E+00 -0.00000000000E+00 -0.19384731868E+04  0.19384731868E+04  0.25500000000E-02 0.  1.
    8880022    1    1    2    0    0  0.14429976762E+03 -0.48733109558E+03 -0.10157384201E+04  0.11460498291E+04  0.15294330000E+03 0.  0.
    8880022    1    1    2    0    0 -0.14429976762E+03  0.48733109558E+03 -0.77545670024E+03  0.93970142418E+03  0.15294330000E+03 0.  0.
<mgrwt>
<rscale>  0 0.53075952E+03</rscale>
<asrwt>0</asrwt>
<pdfrwt beam="1">  1        2 0.22658165E-01 0.53075952E+03</pdfrwt>
<pdfrwt beam="2">  1       -2 0.29822663E+00 0.53075952E+03</pdfrwt>
<totfact> 0.85518615E+00</totfact>
</mgrwt>
</event>
<event>
 4    1  0.4840632E-008  0.1143178E+04  0.7818608E-02  0.9164100E-01
          2   -1    0    0  501    0  0.00000000000E+00  0.00000000000E+00  0.19137656482E+04  0.19137656482E+04  0.25500000000E-02 0. -1.
         -2   -1    0    0    0  501 -0.00000000000E+00 -0.00000000000E+00 -0.10496535022E+04  0.10496535022E+04  0.25500000000E-02 0.  1.
    8880022    1    1    2    0    0 -0.14936813296E+03 -0.11230106688E+04 -0.44382328404E+03  0.12263093255E+04  0.15294330000E+03 0.  0.
    8880022    1    1    2    0    0  0.14936813296E+03  0.11230106688E+04  0.13079354301E+04  0.17371098249E+04  0.15294330000E+03 0.  0.
<mgrwt>
<rscale>  0 0.11431778E+04</rscale>
<asrwt>0</asrwt>
<pdfrwt beam="1">  1        2 0.29442548E+00 0.11431778E+04</pdfrwt>
<pdfrwt beam="2">  1       -2 0.16148516E+00 0.11431778E+04</pdfrwt>
<totfact> 0.17931786E+00</totfact>
</mgrwt>
</event>
<event>
 4    1  0.4840632E-008  0.3272967E+03  0.7818608E-02  0.1072339E+00
          2   -1    0    0  501    0  0.00000000000E+00  0.00000000000E+00  0.56675482561E+03  0.56675482562E+03  0.25500000000E-02 0. -1.
         -2   -1    0    0    0  501 -0.00000000000E+00 -0.00000000000E+00 -0.79226966607E+03  0.79226966608E+03  0.25500000000E-02 0.  1.
    8880022    1    1    2    0    0  0.21504551814E+03  0.19361541770E+03  0.48018482331E+03  0.58112014455E+03  0.15294330000E+03 0.  0.
    8880022    1    1    2    0    0 -0.21504551814E+03 -0.19361541770E+03 -0.70569966377E+03  0.77790434715E+03  0.15294330000E+03 0.  0.
<mgrwt>
<rscale>  0 0.32729674E+03</rscale>
<asrwt>0</asrwt>
<pdfrwt beam="1">  1        2 0.87193050E-01 0.32729674E+03</pdfrwt>
<pdfrwt beam="2">  1       -2 0.12188764E+00 0.32729674E+03</pdfrwt>
<totfact> 0.28897605E+01</totfact>
</mgrwt>
</event>
<event>
 4    1  0.4840632E-008  0.1080349E+04  0.7818608E-02  0.9224559E-01
         -2   -1    0    0    0  501 -0.00000000000E+00  0.00000000000E+00  0.79599198443E+03  0.79599198444E+03  0.25500000000E-02 0.  1.
          2   -1    0    0  501    0  0.00000000000E+00 -0.00000000000E+00 -0.26799015422E+04  0.26799015422E+04  0.25500000000E-02 0. -1.
    8880022    1    1    2    0    0  0.67908090962E+03 -0.82620342569E+03 -0.21114999504E+04  0.23718319241E+04  0.15294330000E+03 0.  0.
    8880022    1    1    2    0    0 -0.67908090962E+03  0.82620342569E+03  0.22759039264E+03  0.11040616026E+04  0.15294330000E+03 0.  0.
<mgrwt>
<rscale>  0 0.10803493E+04</rscale>
<asrwt>0</asrwt>
<pdfrwt beam="1">  1        2 0.41229254E+00 0.10803493E+04</pdfrwt>
<pdfrwt beam="2">  1       -2 0.12246031E+00 0.10803493E+04</pdfrwt>
<totfact> 0.13760237E+00</totfact>
</mgrwt>
</event>
<event>
 4    1  0.4840632E-008  0.7720768E+03  0.7818608E-02  0.9601338E-01
          2   -1    0    0  501    0  0.00000000000E+00  0.00000000000E+00  0.30967167213E+04  0.30967167213E+04  0.25500000000E-02 0. -1.
         -2   -1    0    0    0  501 -0.00000000000E+00 -0.00000000000E+00 -0.23325324547E+03  0.23325324549E+03  0.25500000000E-02 0.  1.
    8880022    1    1    2    0    0 -0.74156949377E+03 -0.15094895731E+03  0.73573998420E+03  0.10664970132E+04  0.15294330000E+03 0.  0.
    8880022    1    1    2    0    0  0.74156949377E+03  0.15094895731E+03  0.21277234917E+04  0.22634729536E+04  0.15294330000E+03 0.  0.
<mgrwt>
<rscale>  0 0.77207678E+03</rscale>
<asrwt>0</asrwt>
<pdfrwt beam="1">  1        2 0.47641794E+00 0.77207678E+03</pdfrwt>
<pdfrwt beam="2">  1       -2 0.35885116E-01 0.77207678E+03</pdfrwt>
<totfact> 0.11716887E+01</totfact>
</mgrwt>
</event>
<event>
 4    1  0.4840632E-008  0.5937569E+03  0.7818608E-02  0.9918444E-01
         -2   -1    0    0    0  501 -0.00000000000E+00  0.00000000000E+00  0.21977825371E+03  0.21977825372E+03  0.25500000000E-02 0.  1.
          2   -1    0    0  501    0  0.00000000000E+00 -0.00000000000E+00 -0.27143353871E+04  0.27143353871E+04  0.25500000000E-02 0. -1.
    8880022    1    1    2    0    0  0.67762393749E+01 -0.57368080695E+03 -0.30902143307E+03  0.66935901039E+03  0.15294330000E+03 0.  0.
    8880022    1    1    2    0    0 -0.67762393749E+01  0.57368080695E+03 -0.21855357003E+04  0.22647546304E+04  0.15294330000E+03 0.  0.
<mgrwt>
<rscale>  0 0.59375689E+03</rscale>
<asrwt>0</asrwt>
<pdfrwt beam="1">  1        2 0.41759004E+00 0.59375689E+03</pdfrwt>
<pdfrwt beam="2">  1       -2 0.33812041E-01 0.59375689E+03</pdfrwt>
<totfact> 0.23003735E+01</totfact>
</mgrwt>
</event>
<event>
 4    1  0.4840632E-008  0.1765146E+03  0.7818608E-02  0.1171220E+00
         -2   -1    0    0    0  501 -0.00000000000E+00  0.00000000000E+00  0.34153069196E+03  0.34153069197E+03  0.25500000000E-02 0.  1.
          2   -1    0    0  501    0  0.00000000000E+00 -0.00000000000E+00 -0.12575279690E+04  0.12575279690E+04  0.25500000000E-02 0. -1.
    8880022    1    1    2    0    0 -0.56366965117E+02 -0.67738481529E+02  0.31198337742E+03  0.35845643730E+03  0.15294330000E+03 0.  1.
    8880022    1    1    2    0    0  0.56366965117E+02  0.67738481529E+02 -0.12279806545E+04  0.12406022237E+04  0.15294330000E+03 0.  0.
<mgrwt>
<rscale>  0 0.17651456E+03</rscale>
<asrwt>0</asrwt>
<pdfrwt beam="1">  1        2 0.19346584E+00 0.17651456E+03</pdfrwt>
<pdfrwt beam="2">  1       -2 0.52543184E-01 0.17651456E+03</pdfrwt>
<totfact> 0.67307798E+01</totfact>
</mgrwt>
</event>
<event>
 4    1  0.4840632E-008  0.2795178E+03  0.7818608E-02  0.1095953E+00
         -2   -1    0    0    0  501 -0.00000000000E+00  0.00000000000E+00  0.31808931026E+03  0.31808931027E+03  0.25500000000E-02 0.  1.
          2   -1    0    0  501    0  0.00000000000E+00 -0.00000000000E+00 -0.13174345370E+04  0.13174345370E+04  0.25500000000E-02 0. -1.
    8880022    1    1    2    0    0  0.15147581168E+03 -0.17830771351E+03 -0.12372735710E+04  0.12684542187E+04  0.15294330000E+03 0.  0.
    8880022    1    1    2    0    0 -0.15147581168E+03  0.17830771351E+03  0.23792834429E+03  0.36706962862E+03  0.15294330000E+03 0.  1.
<mgrwt>
<rscale>  0 0.27951783E+03</rscale>
<asrwt>0</asrwt>
<pdfrwt beam="1">  1        2 0.20268223E+00 0.27951783E+03</pdfrwt>
<pdfrwt beam="2">  1       -2 0.48936818E-01 0.27951783E+03</pdfrwt>
<totfact> 0.69659853E+01</totfact>
</mgrwt>
</event>
<event>
 4    1  0.4840632E-008  0.2041015E+03  0.7818608E-02  0.1146324E+00
         -2   -1    0    0    0  501 -0.00000000000E+00  0.00000000000E+00  0.17539747493E+03  0.17539747495E+03  0.25500000000E-02 0.  1.
          2   -1    0    0  501    0  0.00000000000E+00 -0.00000000000E+00 -0.13442282537E+04  0.13442282537E+04  0.25500000000E-02 0. -1.
    8880022    1    1    2    0    0  0.10543541447E+03  0.84552704190E+02 -0.12738451523E+04  0.12900925980E+04  0.15294330000E+03 0.  0.
    8880022    1    1    2    0    0 -0.10543541447E+03 -0.84552704190E+02  0.10501437350E+03  0.22953313065E+03  0.15294330000E+03 0.  1.
<mgrwt>
<rscale>  0 0.20410154E+03</rscale>
<asrwt>0</asrwt>
<pdfrwt beam="1">  1        2 0.20680434E+00 0.20410154E+03</pdfrwt>
<pdfrwt beam="2">  1       -2 0.26984228E-01 0.20410154E+03</pdfrwt>
<totfact> 0.21046450E+02</totfact>
</mgrwt>
</event>
<event>
 4    1  0.4840632E-008  0.4899292E+03  0.7818608E-02  0.1016441E+00
          2   -1    0    0  501    0  0.00000000000E+00  0.00000000000E+00  0.48250642998E+03  0.48250642999E+03  0.25500000000E-02 0. -1.
         -2   -1    0    0    0  501 -0.00000000000E+00 -0.00000000000E+00 -0.17332142256E+04  0.17332142256E+04  0.25500000000E-02 0.  1.
    8880022    1    1    2    0    0 -0.28429008547E+03 -0.36853507480E+03  0.31010317490E+03  0.57982289205E+03  0.15294330000E+03 0.  0.
    8880022    1    1    2    0    0  0.28429008547E+03  0.36853507480E+03 -0.15608109705E+04  0.16358977635E+04  0.15294330000E+03 0.  0.
<mgrwt>
<rscale>  0 0.48992919E+03</rscale>
<asrwt>0</asrwt>
<pdfrwt beam="1">  1        2 0.74231759E-01 0.48992919E+03</pdfrwt>
<pdfrwt beam="2">  1       -2 0.26664834E+00 0.48992919E+03</pdfrwt>
<totfact> 0.35234238E+00</totfact>
</mgrwt>
</event>
<event>
 4    1  0.4840632E-008  0.3035341E+03  0.7818608E-02  0.1083487E+00
         -2   -1    0    0    0  501 -0.00000000000E+00  0.00000000000E+00  0.49683369803E+03  0.49683369804E+03  0.25500000000E-02 0.  1.
          2   -1    0    0  501    0  0.00000000000E+00 -0.00000000000E+00 -0.55096644322E+03  0.55096644323E+03  0.25500000000E-02 0. -1.
    8880022    1    1    2    0    0  0.22535980235E+03 -0.13399348678E+03 -0.45378849148E+03  0.54594591585E+03  0.15294330000E+03 0.  0.
    8880022    1    1    2    0    0 -0.22535980235E+03  0.13399348678E+03  0.39965574629E+03  0.50185422542E+03  0.15294330000E+03 0.  0.
<mgrwt>
<rscale>  0 0.30353410E+03</rscale>
<asrwt>0</asrwt>
<pdfrwt beam="1">  1        2 0.84764068E-01 0.30353410E+03</pdfrwt>
<pdfrwt beam="2">  1       -2 0.76435954E-01 0.30353410E+03</pdfrwt>
<totfact> 0.88400885E+01</totfact>
</mgrwt>
</event>
<event>
 4    1  0.4840632E-008  0.3645936E+03  0.7818608E-02  0.1056780E+00
          2   -1    0    0  501    0  0.00000000000E+00  0.00000000000E+00  0.46284698864E+03  0.46284698865E+03  0.25500000000E-02 0. -1.
         -2   -1    0    0    0  501 -0.00000000000E+00 -0.00000000000E+00 -0.88570260892E+03  0.88570260893E+03  0.25500000000E-02 0.  1.
    8880022    1    1    2    0    0 -0.13076683380E+02 -0.33070511237E+03 -0.76570483444E+03  0.84807571448E+03  0.15294330000E+03 0.  0.
    8880022    1    1    2    0    0  0.13076683380E+02  0.33070511237E+03  0.34284921416E+03  0.50047388309E+03  0.15294330000E+03 0.  0.
<mgrwt>
<rscale>  0 0.36459364E+03</rscale>
<asrwt>0</asrwt>
<pdfrwt beam="1">  1        2 0.71207229E-01 0.36459364E+03</pdfrwt>
<pdfrwt beam="2">  1       -2 0.13626194E+00 0.36459364E+03</pdfrwt>
<totfact> 0.27401576E+01</totfact>
</mgrwt>
</event>
<event>
 4    1  0.4840632E-008  0.5661517E+03  0.7818608E-02  0.9978231E-01
          2   -1    0    0  501    0  0.00000000000E+00  0.00000000000E+00  0.63833228855E+03  0.63833228855E+03  0.25500000000E-02 0. -1.
         -2   -1    0    0    0  501 -0.00000000000E+00 -0.00000000000E+00 -0.10305972661E+04  0.10305972661E+04  0.25500000000E-02 0.  1.
    8880022    1    1    2    0    0 -0.36005761141E+03 -0.40926101149E+03  0.40141348815E+03  0.69401765146E+03  0.15294330000E+03 0.  0.
    8880022    1    1    2    0    0  0.36005761141E+03  0.40926101149E+03 -0.79367846571E+03  0.97491190321E+03  0.15294330000E+03 0.  0.
<mgrwt>
<rscale>  0 0.56615167E+03</rscale>
<asrwt>0</asrwt>
<pdfrwt beam="1">  1        2 0.98204967E-01 0.56615167E+03</pdfrwt>
<pdfrwt beam="2">  1       -2 0.15855343E+00 0.56615167E+03</pdfrwt>
<totfact> 0.12321866E+01</totfact>
</mgrwt>
</event>
<event>
 4    1  0.4840632E-008  0.9128365E+03  0.7818608E-02  0.9409676E-01
          2   -1    0    0  501    0  0.00000000000E+00  0.00000000000E+00  0.13365155055E+04  0.13365155055E+04  0.25500000000E-02 0. -1.
         -2   -1    0    0    0  501 -0.00000000000E+00 -0.00000000000E+00 -0.91540481974E+03  0.91540481974E+03  0.25500000000E-02 0.  1.
    8880022    1    1    2    0    0  0.25163658444E+03  0.86403579707E+03 -0.42530711303E+03  0.10070534358E+04  0.15294330000E+03 0.  1.
    8880022    1    1    2    0    0 -0.25163658444E+03 -0.86403579707E+03  0.84641779882E+03  0.12448668894E+04  0.15294330000E+03 0.  0.
<mgrwt>
<rscale>  0 0.91283650E+03</rscale>
<asrwt>0</asrwt>
<pdfrwt beam="1">  1        2 0.20561777E+00 0.91283650E+03</pdfrwt>
<pdfrwt beam="2">  1       -2 0.14083151E+00 0.91283650E+03</pdfrwt>
<totfact> 0.55771649E+00</totfact>
</mgrwt>
</event>
<event>
 4    1  0.4840632E-008  0.9510095E+03  0.7818608E-02  0.9363971E-01
          2   -1    0    0  501    0  0.00000000000E+00  0.00000000000E+00  0.66401134788E+03  0.66401134788E+03  0.25500000000E-02 0. -1.
         -2   -1    0    0    0  501 -0.00000000000E+00 -0.00000000000E+00 -0.16578259515E+04  0.16578259515E+04  0.25500000000E-02 0.  1.
    8880022    1    1    2    0    0  0.39212957692E+03  0.85279642140E+03 -0.65516717119E+01  0.95103202831E+03  0.15294330000E+03 0.  0.
    8880022    1    1    2    0    0 -0.39212957692E+03 -0.85279642140E+03 -0.98726293189E+03  0.13708052711E+04  0.15294330000E+03 0.  0.
<mgrwt>
<rscale>  0 0.95100946E+03</rscale>
<asrwt>0</asrwt>
<pdfrwt beam="1">  1        2 0.10215559E+00 0.95100946E+03</pdfrwt>
<pdfrwt beam="2">  1       -2 0.25505015E+00 0.95100946E+03</pdfrwt>
<totfact> 0.26319051E+00</totfact>
</mgrwt>
</event>
<event>
 4    1  0.4840632E-008  0.3859716E+03  0.7818608E-02  0.1048748E+00
         -2   -1    0    0    0  501 -0.00000000000E+00  0.00000000000E+00  0.15747426834E+03  0.15747426836E+03  0.25500000000E-02 0.  1.
          2   -1    0    0  501    0  0.00000000000E+00 -0.00000000000E+00 -0.13286012130E+04  0.13286012130E+04  0.25500000000E-02 0. -1.
    8880022    1    1    2    0    0 -0.26227745438E+03  0.23831272168E+03 -0.18683759141E+03  0.42881505917E+03  0.15294330000E+03 0.  0.
    8880022    1    1    2    0    0  0.26227745438E+03 -0.23831272168E+03 -0.98428935327E+03  0.10572604222E+04  0.15294330000E+03 0.  0.
<mgrwt>
<rscale>  0 0.38597159E+03</rscale>
<asrwt>0</asrwt>
<pdfrwt beam="1">  1        2 0.20440018E+00 0.38597159E+03</pdfrwt>
<pdfrwt beam="2">  1       -2 0.24226811E-01 0.38597159E+03</pdfrwt>
<totfact> 0.25217076E+02</totfact>
</mgrwt>
</event>
<event>
 4    1  0.4840632E-008  0.1681961E+03  0.7818608E-02  0.1179742E+00
         -2   -1    0    0    0  501 -0.00000000000E+00  0.00000000000E+00  0.39447407299E+03  0.39447407300E+03  0.25500000000E-02 0.  1.
          2   -1    0    0  501    0  0.00000000000E+00 -0.00000000000E+00 -0.13480134718E+04  0.13480134718E+04  0.25500000000E-02 0. -1.
    8880022    1    1    2    0    0  0.69723497698E+02  0.60753143189E+01 -0.13245212642E+04  0.13351578588E+04  0.15294330000E+03 0. -1.
    8880022    1    1    2    0    0 -0.69723497698E+02 -0.60753143189E+01  0.37098186543E+03  0.40732968596E+03  0.15294330000E+03 0.  0.
<mgrwt>
<rscale>  0 0.16819610E+03</rscale>
<asrwt>0</asrwt>
<pdfrwt beam="1">  1        2 0.20738669E+00 0.16819610E+03</pdfrwt>
<pdfrwt beam="2">  1       -2 0.60688320E-01 0.16819610E+03</pdfrwt>
<totfact> 0.44960386E+01</totfact>
</mgrwt>
</event>
<event>
 4    1  0.4840632E-008  0.7362162E+03  0.7818608E-02  0.9657227E-01
         -2   -1    0    0    0  501 -0.00000000000E+00  0.00000000000E+00  0.36702691209E+03  0.36702691210E+03  0.25500000000E-02 0.  1.
          2   -1    0    0  501    0  0.00000000000E+00 -0.00000000000E+00 -0.18395534162E+04  0.18395534162E+04  0.25500000000E-02 0. -1.
    8880022    1    1    2    0    0 -0.68258595294E+03  0.22956261716E+03 -0.12262196392E+04  0.14302548147E+04  0.15294330000E+03 0.  0.
    8880022    1    1    2    0    0  0.68258595294E+03 -0.22956261716E+03 -0.24630686488E+03  0.77632551359E+03  0.15294330000E+03 0.  0.
<mgrwt>
<rscale>  0 0.73621616E+03</rscale>
<asrwt>0</asrwt>
<pdfrwt beam="1">  1        2 0.28300821E+00 0.73621616E+03</pdfrwt>
<pdfrwt beam="2">  1       -2 0.56465680E-01 0.73621616E+03</pdfrwt>
<totfact> 0.24910675E+01</totfact>
</mgrwt>
</event>
<event>
 4    1  0.4840632E-008  0.6251744E+03  0.7818608E-02  0.9854511E-01
          2   -1    0    0  501    0  0.00000000000E+00  0.00000000000E+00  0.88063385557E+03  0.88063385558E+03  0.25500000000E-02 0. -1.
         -2   -1    0    0    0  501 -0.00000000000E+00 -0.00000000000E+00 -0.12802708681E+04  0.12802708681E+04  0.25500000000E-02 0.  1.
    8880022    1    1    2    0    0 -0.46589744914E+03  0.38780264117E+03  0.67350448337E+03  0.91894029389E+03  0.15294330000E+03 0.  0.
    8880022    1    1    2    0    0  0.46589744914E+03 -0.38780264117E+03 -0.10731414959E+04  0.12419644298E+04  0.15294330000E+03 0.  0.
<mgrwt>
<rscale>  0 0.62517436E+03</rscale>
<asrwt>0</asrwt>
<pdfrwt beam="1">  1        2 0.13548213E+00 0.62517436E+03</pdfrwt>
<pdfrwt beam="2">  1       -2 0.19696475E+00 0.62517436E+03</pdfrwt>
<totfact> 0.43860272E+00</totfact>
</mgrwt>
</event>
<event>
 4    1  0.4840632E-008  0.3169028E+03  0.7818608E-02  0.1077084E+00
         -2   -1    0    0    0  501 -0.00000000000E+00  0.00000000000E+00  0.58396252635E+03  0.58396252635E+03  0.25500000000E-02 0.  1.
          2   -1    0    0  501    0  0.00000000000E+00 -0.00000000000E+00 -0.17129678801E+04  0.17129678801E+04  0.25500000000E-02 0. -1.
    8880022    1    1    2    0    0 -0.23474354049E+03  0.14809188141E+03 -0.16537924923E+04  0.16838815266E+04  0.15294330000E+03 0.  0.
    8880022    1    1    2    0    0  0.23474354049E+03 -0.14809188141E+03  0.52478713859E+03  0.61304887977E+03  0.15294330000E+03 0.  0.
<mgrwt>
<rscale>  0 0.31690281E+03</rscale>
<asrwt>0</asrwt>
<pdfrwt beam="1">  1        2 0.26353352E+00 0.31690281E+03</pdfrwt>
<pdfrwt beam="2">  1       -2 0.89840389E-01 0.31690281E+03</pdfrwt>
<totfact> 0.11558741E+01</totfact>
</mgrwt>
</event>
<event>
 4    1  0.4840632E-008  0.7026450E+03  0.7818608E-02  0.9712720E-01
          2   -1    0    0  501    0  0.00000000000E+00  0.00000000000E+00  0.72103083622E+03  0.72103083622E+03  0.25500000000E-02 0. -1.
         -2   -1    0    0    0  501 -0.00000000000E+00 -0.00000000000E+00 -0.90875754133E+03  0.90875754133E+03  0.25500000000E-02 0.  1.
    8880022    1    1    2    0    0 -0.60643840453E+03  0.32023552702E+03 -0.49846707688E+03  0.86149835229E+03  0.15294330000E+03 0.  0.
    8880022    1    1    2    0    0  0.60643840453E+03 -0.32023552702E+03  0.31074037178E+03  0.76829002526E+03  0.15294330000E+03 0.  0.
<mgrwt>
<rscale>  0 0.70264499E+03</rscale>
<asrwt>0</asrwt>
<pdfrwt beam="1">  1        2 0.11092782E+00 0.70264499E+03</pdfrwt>
<pdfrwt beam="2">  1       -2 0.13980885E+00 0.70264499E+03</pdfrwt>
<totfact> 0.14503522E+01</totfact>
</mgrwt>
</event>
<event>
 4    1  0.4840632E-008  0.1325486E+04  0.7818608E-02  0.9009595E-01
          2   -1    0    0  501    0  0.00000000000E+00  0.00000000000E+00  0.11756163369E+04  0.11756163369E+04  0.25500000000E-02 0. -1.
         -2   -1    0    0    0  501 -0.00000000000E+00 -0.00000000000E+00 -0.15590940455E+04  0.15590940455E+04  0.25500000000E-02 0.  1.
    8880022    1    1    2    0    0 -0.88399334569E+03  0.97574407371E+03  0.86663937356E+02  0.13283158599E+04  0.15294330000E+03 0.  0.
    8880022    1    1    2    0    0  0.88399334569E+03 -0.97574407371E+03 -0.47014164600E+03  0.14063945225E+04  0.15294330000E+03 0.  0.
<mgrwt>
<rscale>  0 0.13254857E+04</rscale>
<asrwt>0</asrwt>
<pdfrwt beam="1">  1        2 0.18086405E+00 0.13254857E+04</pdfrwt>
<pdfrwt beam="2">  1       -2 0.23986062E+00 0.13254857E+04</pdfrwt>
<totfact> 0.13956337E+00</totfact>
</mgrwt>
</event>
<event>
 4    1  0.4840632E-008  0.3033983E+03  0.7818608E-02  0.1083554E+00
         -2   -1    0    0    0  501 -0.00000000000E+00  0.00000000000E+00  0.22400380216E+03  0.22400380217E+03  0.25500000000E-02 0.  1.
          2   -1    0    0  501    0  0.00000000000E+00 -0.00000000000E+00 -0.15331053103E+04  0.15331053103E+04  0.25500000000E-02 0. -1.
    8880022    1    1    2    0    0 -0.25849475986E+03  0.42887774533E+02 -0.14061953078E+04  0.14385533701E+04  0.15294330000E+03 0.  0.
    8880022    1    1    2    0    0  0.25849475986E+03 -0.42887774533E+02  0.97093799585E+02  0.31855574240E+03  0.15294330000E+03 0.  0.
<mgrwt>
<rscale>  0 0.30339834E+03</rscale>
<asrwt>0</asrwt>
<pdfrwt beam="1">  1        2 0.23586235E+00 0.30339834E+03</pdfrwt>
<pdfrwt beam="2">  1       -2 0.34462124E-01 0.30339834E+03</pdfrwt>
<totfact> 0.10403075E+02</totfact>
</mgrwt>
</event>
<event>
 4    1  0.4840632E-008  0.2001992E+03  0.7818608E-02  0.1149571E+00
         -2   -1    0    0    0  501 -0.00000000000E+00  0.00000000000E+00  0.28775194047E+03  0.28775194048E+03  0.25500000000E-02 0.  1.
          2   -1    0    0  501    0  0.00000000000E+00 -0.00000000000E+00 -0.29408236439E+03  0.29408236440E+03  0.25500000000E-02 0. -1.
    8880022    1    1    2    0    0  0.12459059186E+03  0.34135644007E+02 -0.21422997388E+03  0.29321356124E+03  0.15294330000E+03 0.  0.
    8880022    1    1    2    0    0 -0.12459059186E+03 -0.34135644007E+02  0.20789954996E+03  0.28862074364E+03  0.15294330000E+03 0.  1.
<mgrwt>
<rscale>  0 0.20019918E+03</rscale>
<asrwt>0</asrwt>
<pdfrwt beam="1">  1        2 0.45243441E-01 0.20019918E+03</pdfrwt>
<pdfrwt beam="2">  1       -2 0.44269529E-01 0.20019918E+03</pdfrwt>
<totfact> 0.54833692E+02</totfact>
</mgrwt>
</event>
<event>
 4    1  0.4840632E-008  0.8162377E+03  0.7818608E-02  0.9536807E-01
         -2   -1    0    0    0  501 -0.00000000000E+00  0.00000000000E+00  0.17136477710E+04  0.17136477710E+04  0.25500000000E-02 0.  1.
          2   -1    0    0  501    0  0.00000000000E+00 -0.00000000000E+00 -0.70818307776E+03  0.70818307776E+03  0.25500000000E-02 0. -1.
    8880022    1    1    2    0    0  0.31547266966E+03 -0.73710876890E+03  0.13159481697E+04  0.15485359475E+04  0.15294330000E+03 0.  0.
    8880022    1    1    2    0    0 -0.31547266966E+03  0.73710876890E+03 -0.31048347638E+03  0.87329490129E+03  0.15294330000E+03 0.  0.
<mgrwt>
<rscale>  0 0.81623771E+03</rscale>
<asrwt>0</asrwt>
<pdfrwt beam="1">  1        2 0.10895125E+00 0.81623771E+03</pdfrwt>
<pdfrwt beam="2">  1       -2 0.26363811E+00 0.81623771E+03</pdfrwt>
<totfact> 0.21909981E+00</totfact>
</mgrwt>
</event>
<event>
 4    1  0.4840632E-008  0.3659986E+03  0.7818608E-02  0.1056234E+00
         -2   -1    0    0    0  501 -0.00000000000E+00  0.00000000000E+00  0.78170592923E+03  0.78170592923E+03  0.25500000000E-02 0.  1.
          2   -1    0    0  501    0  0.00000000000E+00 -0.00000000000E+00 -0.49582781054E+03  0.49582781055E+03  0.25500000000E-02 0. -1.
    8880022    1    1    2    0    0  0.28083934755E+03  0.17802404905E+03 -0.37378797959E+03  0.52313708325E+03  0.15294330000E+03 0.  0.
    8880022    1    1    2    0    0 -0.28083934755E+03 -0.17802404905E+03  0.65966609827E+03  0.75439665654E+03  0.15294330000E+03 0.  0.
<mgrwt>
<rscale>  0 0.36599857E+03</rscale>
<asrwt>0</asrwt>
<pdfrwt beam="1">  1        2 0.76281202E-01 0.36599857E+03</pdfrwt>
<pdfrwt beam="2">  1       -2 0.12026245E+00 0.36599857E+03</pdfrwt>
<totfact> 0.34592789E+01</totfact>
</mgrwt>
</event>
<event>
 4    1  0.4840632E-008  0.1504906E+04  0.7818608E-02  0.8881197E-01
          2   -1    0    0  501    0  0.00000000000E+00  0.00000000000E+00  0.20325472392E+04  0.20325472392E+04  0.25500000000E-02 0. -1.
         -2   -1    0    0    0  501 -0.00000000000E+00 -0.00000000000E+00 -0.29496793221E+04  0.29496793221E+04  0.25500000000E-02 0.  1.
    8880022    1    1    2    0    0 -0.55324439098E+03  0.13911404475E+04  0.15064959121E+04  0.21293831705E+04  0.15294330000E+03 0.  0.
    8880022    1    1    2    0    0  0.55324439098E+03 -0.13911404475E+04 -0.24236279950E+04  0.28528433907E+04  0.15294330000E+03 0.  0.
<mgrwt>
<rscale>  0 0.15049062E+04</rscale>
<asrwt>0</asrwt>
<pdfrwt beam="1">  1        2 0.31269957E+00 0.15049062E+04</pdfrwt>
<pdfrwt beam="2">  1       -2 0.45379682E+00 0.15049062E+04</pdfrwt>
<totfact> 0.19662687E-02</totfact>
</mgrwt>
</event>
<event>
 4    1  0.4840632E-008  0.4690206E+03  0.7818608E-02  0.1022197E+00
          2   -1    0    0  501    0  0.00000000000E+00  0.00000000000E+00  0.13634730364E+04  0.13634730364E+04  0.25500000000E-02 0. -1.
         -2   -1    0    0    0  501 -0.00000000000E+00 -0.00000000000E+00 -0.39300818708E+03  0.39300818709E+03  0.25500000000E-02 0.  1.
    8880022    1    1    2    0    0 -0.13631457981E+03 -0.42190872977E+03  0.11595237903E+04  0.12507900360E+04  0.15294330000E+03 0.  0.
    8880022    1    1    2    0    0  0.13631457981E+03  0.42190872977E+03 -0.18905894096E+03  0.50569118748E+03  0.15294330000E+03 0.  0.
<mgrwt>
<rscale>  0 0.46902057E+03</rscale>
<asrwt>0</asrwt>
<pdfrwt beam="1">  1        2 0.20976508E+00 0.46902057E+03</pdfrwt>
<pdfrwt beam="2">  1       -2 0.60462798E-01 0.46902057E+03</pdfrwt>
<totfact> 0.40978887E+01</totfact>
</mgrwt>
</event>
<event>
 4    1  0.4840632E-008  0.6330094E+03  0.7818608E-02  0.9839194E-01
         -2   -1    0    0    0  501 -0.00000000000E+00  0.00000000000E+00  0.39409099210E+03  0.39409099210E+03  0.25500000000E-02 0.  1.
          2   -1    0    0  501    0  0.00000000000E+00 -0.00000000000E+00 -0.12444070827E+04  0.12444070827E+04  0.25500000000E-02 0. -1.
    8880022    1    1    2    0    0 -0.55156261661E+03  0.27034768811E+03 -0.74766260868E+02  0.63740947536E+03  0.15294330000E+03 0.  0.
    8880022    1    1    2    0    0  0.55156261661E+03 -0.27034768811E+03 -0.77554982971E+03  0.10010885994E+04  0.15294330000E+03 0.  0.
<mgrwt>
<rscale>  0 0.63300936E+03</rscale>
<asrwt>0</asrwt>
<pdfrwt beam="1">  1        2 0.19144724E+00 0.63300936E+03</pdfrwt>
<pdfrwt beam="2">  1       -2 0.60629384E-01 0.63300936E+03</pdfrwt>
<totfact> 0.46558818E+01</totfact>
</mgrwt>
</event>
<event>
 4    1  0.4840632E-008  0.3108526E+03  0.7818608E-02  0.1079938E+00
          2   -1    0    0  501    0  0.00000000000E+00  0.00000000000E+00  0.16086624240E+04  0.16086624240E+04  0.25500000000E-02 0. -1.
         -2   -1    0    0    0  501 -0.00000000000E+00 -0.00000000000E+00 -0.26502819118E+03  0.26502819119E+03  0.25500000000E-02 0.  1.
    8880022    1    1    2    0    0 -0.24199893761E+03 -0.12113718038E+03 -0.15204866078E+03  0.34604645719E+03  0.15294330000E+03 0.  0.
    8880022    1    1    2    0    0  0.24199893761E+03  0.12113718038E+03  0.14956828936E+04  0.15276441580E+04  0.15294330000E+03 0. -1.
<mgrwt>
<rscale>  0 0.31085263E+03</rscale>
<asrwt>0</asrwt>
<pdfrwt beam="1">  1        2 0.24748652E+00 0.31085263E+03</pdfrwt>
<pdfrwt beam="2">  1       -2 0.40773568E-01 0.31085263E+03</pdfrwt>
<totfact> 0.68748692E+01</totfact>
</mgrwt>
</event>
<event>
 4    1  0.4840632E-008  0.1825352E+03  0.7818608E-02  0.1165372E+00
          2   -1    0    0  501    0  0.00000000000E+00  0.00000000000E+00  0.10047904280E+04  0.10047904280E+04  0.25500000000E-02 0. -1.
         -2   -1    0    0    0  501 -0.00000000000E+00 -0.00000000000E+00 -0.18086550879E+03  0.18086550881E+03  0.25500000000E-02 0.  1.
    8880022    1    1    2    0    0 -0.39248558306E+02  0.91580637792E+02  0.94769591273E+03  0.96511484217E+03  0.15294330000E+03 0. -1.
    8880022    1    1    2    0    0  0.39248558306E+02 -0.91580637792E+02 -0.12377099356E+03  0.22054109460E+03  0.15294330000E+03 0.  0.
<mgrwt>
<rscale>  0 0.18253524E+03</rscale>
<asrwt>0</asrwt>
<pdfrwt beam="1">  1        2 0.15458315E+00 0.18253524E+03</pdfrwt>
<pdfrwt beam="2">  1       -2 0.27825462E-01 0.18253524E+03</pdfrwt>
<totfact> 0.31218790E+02</totfact>
</mgrwt>
</event>
<event>
 4    1  0.4840632E-008  0.1163764E+04  0.7818608E-02  0.9145179E-01
          2   -1    0    0  501    0  0.00000000000E+00  0.00000000000E+00  0.31112863772E+04  0.31112863772E+04  0.25500000000E-02 0. -1.
         -2   -1    0    0    0  501 -0.00000000000E+00 -0.00000000000E+00 -0.48718827915E+03  0.48718827915E+03  0.25500000000E-02 0.  1.
    8880022    1    1    2    0    0  0.10074105345E+04  0.56220896194E+03  0.18992271300E+04  0.22274223323E+04  0.15294330000E+03 0.  0.
    8880022    1    1    2    0    0 -0.10074105345E+04 -0.56220896194E+03  0.72487096803E+03  0.13710523240E+04  0.15294330000E+03 0.  0.
<mgrwt>
<rscale>  0 0.11637640E+04</rscale>
<asrwt>0</asrwt>
<pdfrwt beam="1">  1        2 0.47865946E+00 0.11637640E+04</pdfrwt>
<pdfrwt beam="2">  1       -2 0.74952041E-01 0.11637640E+04</pdfrwt>
<totfact> 0.23689005E+00</totfact>
</mgrwt>
</event>
<event>
 4    1  0.4840632E-008  0.4513401E+03  0.7818608E-02  0.1027323E+00
          2   -1    0    0  501    0  0.00000000000E+00  0.00000000000E+00  0.19325860380E+04  0.19325860380E+04  0.25500000000E-02 0. -1.
         -2   -1    0    0    0  501 -0.00000000000E+00 -0.00000000000E+00 -0.17522851261E+03  0.17522851263E+03  0.25500000000E-02 0.  1.
    8880022    1    1    2    0    0  0.22369403479E+03 -0.36093933203E+03  0.21341326983E+03  0.49925254067E+03  0.15294330000E+03 0.  0.
    8880022    1    1    2    0    0 -0.22369403479E+03  0.36093933203E+03  0.15439442556E+04  0.16085620100E+04  0.15294330000E+03 0.  0.
<mgrwt>
<rscale>  0 0.45134009E+03</rscale>
<asrwt>0</asrwt>
<pdfrwt beam="1">  1        2 0.29732092E+00 0.45134009E+03</pdfrwt>
<pdfrwt beam="2">  1       -2 0.26958234E-01 0.45134009E+03</pdfrwt>
<totfact> 0.97099416E+01</totfact>
</mgrwt>
</event>
<event>
 4    1  0.4840632E-008  0.4332851E+03  0.7818608E-02  0.1032827E+00
         -2   -1    0    0    0  501 -0.00000000000E+00  0.00000000000E+00  0.12043436080E+03  0.12043436083E+03  0.25500000000E-02 0.  1.
          2   -1    0    0  501    0  0.00000000000E+00 -0.00000000000E+00 -0.22327980445E+04  0.22327980445E+04  0.25500000000E-02 0. -1.
    8880022    1    1    2    0    0 -0.40098863052E+03 -0.59602622205E+02 -0.17026268622E+04  0.17568933489E+04  0.15294330000E+03 0.  0.
    8880022    1    1    2    0    0  0.40098863052E+03  0.59602622205E+02 -0.40973682153E+03  0.59633905650E+03  0.15294330000E+03 0.  0.
<mgrwt>
<rscale>  0 0.43328513E+03</rscale>
<asrwt>0</asrwt>
<pdfrwt beam="1">  1        2 0.34350736E+00 0.43328513E+03</pdfrwt>
<pdfrwt beam="2">  1       -2 0.18528365E-01 0.43328513E+03</pdfrwt>
<totfact> 0.12994500E+02</totfact>
</mgrwt>
</event>
<event>
 4    1  0.4840632E-008  0.8095370E+03  0.7818608E-02  0.9546314E-01
          2   -1    0    0  501    0  0.00000000000E+00  0.00000000000E+00  0.92930989479E+03  0.92930989479E+03  0.25500000000E-02 0. -1.
         -2   -1    0    0    0  501 -0.00000000000E+00 -0.00000000000E+00 -0.11053548339E+04  0.11053548339E+04  0.25500000000E-02 0.  1.
    8880022    1    1    2    0    0  0.53939140904E+03 -0.58396519381E+03 -0.70012700355E+03  0.10702933775E+04  0.15294330000E+03 0.  1.
    8880022    1    1    2    0    0 -0.53939140904E+03  0.58396519381E+03  0.52408206446E+03  0.96437135121E+03  0.15294330000E+03 0.  0.
<mgrwt>
<rscale>  0 0.80953696E+03</rscale>
<asrwt>0</asrwt>
<pdfrwt beam="1">  1        2 0.14297075E+00 0.80953696E+03</pdfrwt>
<pdfrwt beam="2">  1       -2 0.17005459E+00 0.80953696E+03</pdfrwt>
<totfact> 0.60374468E+00</totfact>
</mgrwt>
</event>
<event>
 4    1  0.4840632E-008  0.2850936E+03  0.7818608E-02  0.1092939E+00
          2   -1    0    0  501    0  0.00000000000E+00  0.00000000000E+00  0.34190377990E+04  0.34190377990E+04  0.25500000000E-02 0. -1.
         -2   -1    0    0    0  501 -0.00000000000E+00 -0.00000000000E+00 -0.52668022187E+02  0.52668022249E+02  0.25500000000E-02 0.  1.
    8880022    1    1    2    0    0  0.81361700294E+02  0.22642207107E+03  0.29689342661E+04  0.29825909894E+04  0.15294330000E+03 0.  0.
    8880022    1    1    2    0    0 -0.81361700294E+02 -0.22642207107E+03  0.39743551064E+03  0.48911483179E+03  0.15294330000E+03 0.  0.
<mgrwt>
<rscale>  0 0.28509355E+03</rscale>
<asrwt>0</asrwt>
<pdfrwt beam="1">  1        2 0.52600599E+00 0.28509355E+03</pdfrwt>
<pdfrwt beam="2">  1       -2 0.81027700E-02 0.28509355E+03</pdfrwt>
<totfact> 0.10581007E+02</totfact>
</mgrwt>
</event>
<event>
 4    1  0.4840632E-008  0.3055240E+03  0.7818608E-02  0.1082511E+00
          2   -1    0    0  501    0  0.00000000000E+00  0.00000000000E+00  0.18698725863E+04  0.18698725863E+04  0.25500000000E-02 0. -1.
         -2   -1    0    0    0  501 -0.00000000000E+00 -0.00000000000E+00 -0.93944130981E+02  0.93944131016E+02  0.25500000000E-02 0.  1.
    8880022    1    1    2    0    0 -0.25607447422E+03  0.66174924616E+02  0.15601343898E+04  0.15897686072E+04  0.15294330000E+03 0.  0.
    8880022    1    1    2    0    0  0.25607447422E+03 -0.66174924616E+02  0.21579406551E+03  0.37404811017E+03  0.15294330000E+03 0.  0.
<mgrwt>
<rscale>  0 0.30552399E+03</rscale>
<asrwt>0</asrwt>
<pdfrwt beam="1">  1        2 0.28767269E+00 0.30552399E+03</pdfrwt>
<pdfrwt beam="2">  1       -2 0.14452944E-01 0.30552399E+03</pdfrwt>
<totfact> 0.31597451E+02</totfact>
</mgrwt>
</event>
<event>
 4    1  0.4840632E-008  0.2831253E+03  0.7818608E-02  0.1093994E+00
          2   -1    0    0  501    0  0.00000000000E+00  0.00000000000E+00  0.17827484996E+04  0.17827484996E+04  0.25500000000E-02 0. -1.
         -2   -1    0    0    0  501 -0.00000000000E+00 -0.00000000000E+00 -0.25392571020E+03  0.25392571022E+03  0.25500000000E-02 0.  1.
    8880022    1    1    2    0    0  0.17550879762E+03  0.16113649342E+03  0.16881972773E+04  0.17117739359E+04  0.15294330000E+03 0.  0.
    8880022    1    1    2    0    0 -0.17550879762E+03 -0.16113649342E+03 -0.15937448792E+03  0.32490027389E+03  0.15294330000E+03 0.  1.
<mgrwt>
<rscale>  0 0.28312534E+03</rscale>
<asrwt>0</asrwt>
<pdfrwt beam="1">  1        2 0.27426900E+00 0.28312534E+03</pdfrwt>
<pdfrwt beam="2">  1       -2 0.39065494E-01 0.28312534E+03</pdfrwt>
<totfact> 0.60818159E+01</totfact>
</mgrwt>
</event>
<event>
 4    1  0.4840632E-008  0.1099971E+04  0.7818608E-02  0.9205220E-01
          2   -1    0    0  501    0  0.00000000000E+00  0.00000000000E+00  0.20119420774E+04  0.20119420774E+04  0.25500000000E-02 0. -1.
         -2   -1    0    0    0  501 -0.00000000000E+00 -0.00000000000E+00 -0.67233809355E+03  0.67233809355E+03  0.25500000000E-02 0.  1.
    8880022    1    1    2    0    0 -0.80192854386E+03 -0.73719414871E+03  0.11058288880E+04  0.15597415763E+04  0.15294330000E+03 0.  0.
    8880022    1    1    2    0    0  0.80192854386E+03  0.73719414871E+03  0.23377509585E+03  0.11245385946E+04  0.15294330000E+03 0.  0.
<mgrwt>
<rscale>  0 0.10999710E+04</rscale>
<asrwt>0</asrwt>
<pdfrwt beam="1">  1        2 0.30952954E+00 0.10999710E+04</pdfrwt>
<pdfrwt beam="2">  1       -2 0.10343663E+00 0.10999710E+04</pdfrwt>
<totfact> 0.49581422E+00</totfact>
</mgrwt>
</event>
<event>
 4    1  0.4840632E-008  0.3491027E+03  0.7818608E-02  0.1062984E+00
         -2   -1    0    0    0  501 -0.00000000000E+00  0.00000000000E+00  0.42473634033E+03  0.42473634033E+03  0.25500000000E-02 0.  1.
          2   -1    0    0  501    0  0.00000000000E+00 -0.00000000000E+00 -0.70114959821E+03  0.70114959822E+03  0.25500000000E-02 0. -1.
    8880022    1    1    2    0    0  0.17443215837E+03  0.26087253456E+03 -0.57089032932E+03  0.66916999207E+03  0.15294330000E+03 0. -1.
    8880022    1    1    2    0    0 -0.17443215837E+03 -0.26087253456E+03  0.29447707143E+03  0.45671594649E+03  0.15294330000E+03 0.  0.
<mgrwt>
<rscale>  0 0.34910272E+03</rscale>
<asrwt>0</asrwt>
<pdfrwt beam="1">  1        2 0.10786917E+00 0.34910272E+03</pdfrwt>
<pdfrwt beam="2">  1       -2 0.65344052E-01 0.34910272E+03</pdfrwt>
<totfact> 0.92597821E+01</totfact>
</mgrwt>
</event>
<event>
 4    1  0.4840632E-008  0.4235716E+03  0.7818608E-02  0.1035910E+00
          2   -1    0    0  501    0  0.00000000000E+00  0.00000000000E+00  0.40501141595E+03  0.40501141596E+03  0.25500000000E-02 0. -1.
         -2   -1    0    0    0  501 -0.00000000000E+00 -0.00000000000E+00 -0.45787751678E+03  0.45787751679E+03  0.25500000000E-02 0.  1.
    8880022    1    1    2    0    0  0.17154709638E+03  0.35579888620E+03  0.51383684550E+02  0.42667691495E+03  0.15294330000E+03 0.  0.
    8880022    1    1    2    0    0 -0.17154709638E+03 -0.35579888620E+03 -0.10424978538E+03  0.43621201779E+03  0.15294330000E+03 0.  0.
<mgrwt>
<rscale>  0 0.42357161E+03</rscale>
<asrwt>0</asrwt>
<pdfrwt beam="1">  1        2 0.62309449E-01 0.42357161E+03</pdfrwt>
<pdfrwt beam="2">  1       -2 0.70442695E-01 0.42357161E+03</pdfrwt>
<totfact> 0.14772660E+02</totfact>
</mgrwt>
</event>
<event>
 4    1  0.4840632E-008  0.1872839E+03  0.7818608E-02  0.1160934E+00
         -2   -1    0    0    0  501 -0.00000000000E+00  0.00000000000E+00  0.14334937806E+03  0.14334937808E+03  0.25500000000E-02 0.  1.
          2   -1    0    0  501    0  0.00000000000E+00 -0.00000000000E+00 -0.19695083385E+04  0.19695083385E+04  0.25500000000E-02 0. -1.
    8880022    1    1    2    0    0  0.50245606565E+02 -0.95702634019E+02  0.75550570958E+02  0.20194840164E+03  0.15294330000E+03 0.  1.
    8880022    1    1    2    0    0 -0.50245606565E+02  0.95702634019E+02 -0.19017095314E+04  0.19109093149E+04  0.15294330000E+03 0.  0.
<mgrwt>
<rscale>  0 0.18728392E+03</rscale>
<asrwt>0</asrwt>
<pdfrwt beam="1">  1        2 0.30300126E+00 0.18728392E+03</pdfrwt>
<pdfrwt beam="2">  1       -2 0.22053752E-01 0.18728392E+03</pdfrwt>
<totfact> 0.14159476E+02</totfact>
</mgrwt>
</event>
<event>
 4    1  0.4840632E-008  0.3714617E+03  0.7818608E-02  0.1054135E+00
          2   -1    0    0  501    0  0.00000000000E+00  0.00000000000E+00  0.22903562709E+04  0.22903562709E+04  0.25500000000E-02 0. -1.
         -2   -1    0    0    0  501 -0.00000000000E+00 -0.00000000000E+00 -0.23313868213E+03  0.23313868214E+03  0.25500000000E-02 0.  1.
    8880022    1    1    2    0    0 -0.24774379324E+03  0.23068418079E+03 -0.57952212004E+02  0.37595517053E+03  0.15294330000E+03 0.  0.
    8880022    1    1    2    0    0  0.24774379324E+03 -0.23068418079E+03  0.21151698008E+04  0.21475397825E+04  0.15294330000E+03 0. -1.
<mgrwt>
<rscale>  0 0.37146175E+03</rscale>
<asrwt>0</asrwt>
<pdfrwt beam="1">  1        2 0.35236251E+00 0.37146175E+03</pdfrwt>
<pdfrwt beam="2">  1       -2 0.35867489E-01 0.37146175E+03</pdfrwt>
<totfact> 0.37437304E+01</totfact>
</mgrwt>
</event>
