<event>
 4    1  0.7354369E-001  0.1785843E+03  0.7546771E-02  0.1169180E+00
          2   -1    0    0  502    0  0.00000000000E+00  0.00000000000E+00  0.13221800811E+04  0.13221800811E+04  0.00000000000E+00 0.  1.
         -2   -1    0    0    0  501 -0.00000000000E+00 -0.00000000000E+00 -0.28040376961E+02  0.28040376961E+02  0.00000000000E+00 0. -1.
          6    1    1    2  502    0  0.41303008958E+02  0.16044582508E+02  0.39467022575E+03  0.43319389916E+03  0.17300000000E+03 0. -1.
         -6    1    1    2    0  501 -0.41303008958E+02 -0.16044582508E+02  0.89946947839E+03  0.91702655890E+03  0.17300000000E+03 0.  1.
<mgrwt>
<rscale>  2 0.17858434E+03</rscale>
<asrwt>0</asrwt>
<pdfrwt beam="1">  1        2 0.20341227E+00 0.17858434E+03</pdfrwt>
<pdfrwt beam="2">  1       -2 0.43139052E-02 0.17858434E+03</pdfrwt>
<totfact> 0.41484707E+03</totfact>
</mgrwt>
</event>
<event>
 4    1  0.7354369E-001  0.2395549E+03  0.7546771E-02  0.1120090E+00
          3   -1    0    0  502    0  0.00000000000E+00  0.00000000000E+00  0.55156893914E+02  0.55156893914E+02  0.00000000000E+00 0.  1.
         -3   -1    0    0    0  501 -0.00000000000E+00 -0.00000000000E+00 -0.10417268595E+04  0.10417268595E+04  0.00000000000E+00 0. -1.
          6    1    1    2  502    0  0.15661036040E+03  0.54136276001E+02 -0.47388741529E+03  0.53099512591E+03  0.17300000000E+03 0.  1.
         -6    1    1    2    0  501 -0.15661036040E+03 -0.54136276001E+02 -0.51268255029E+03  0.56588862750E+03  0.17300000000E+03 0. -1.
<mgrwt>
<rscale>  2 0.23955488E+03</rscale>
<asrwt>0</asrwt>
<pdfrwt beam="1">  1        3 0.84856769E-02 0.23955488E+03</pdfrwt>
<pdfrwt beam="2">  1       -3 0.16026565E+00 0.23955488E+03</pdfrwt>
<totfact> 0.69374709E+01</totfact>
</mgrwt>
</event>
<event>
 4    1  0.7354369E-001  0.1751883E+03  0.7546771E-02  0.1172543E+00
         -2   -1    0    0    0  501 -0.00000000000E+00  0.00000000000E+00  0.48542113766E+02  0.48542113766E+02  0.00000000000E+00 0.  1.
          2   -1    0    0  502    0  0.00000000000E+00 -0.00000000000E+00 -0.10898961752E+04  0.10898961752E+04  0.00000000000E+00 0. -1.
          6    1    1    2  502    0  0.26827070492E+02  0.65008430005E+01 -0.88952711365E+03  0.90661427221E+03  0.17300000000E+03 0. -1.
         -6    1    1    2    0  501 -0.26827070492E+02 -0.65008430005E+01 -0.15182694780E+03  0.23182401677E+03  0.17300000000E+03 0.  1.
<mgrwt>
<rscale>  2 0.17518833E+03</rscale>
<asrwt>0</asrwt>
<pdfrwt beam="1">  1        2 0.16767633E+00 0.17518833E+03</pdfrwt>
<pdfrwt beam="2">  1       -2 0.74680177E-02 0.17518833E+03</pdfrwt>
<totfact> 0.24267654E+03</totfact>
</mgrwt>
</event>
<event>
 4    1  0.7354369E-001  0.2210462E+03  0.7546771E-02  0.1133105E+00
         -1   -1    0    0    0  501 -0.00000000000E+00  0.00000000000E+00  0.32465510455E+02  0.32465510455E+02  0.00000000000E+00 0.  1.
          1   -1    0    0  502    0  0.00000000000E+00 -0.00000000000E+00 -0.17325296451E+04  0.17325296451E+04  0.00000000000E+00 0. -1.
          6    1    1    2  502    0 -0.11199934625E+03  0.79928551201E+02 -0.53024001028E+03  0.57447009962E+03  0.17300000000E+03 0. -1.
         -6    1    1    2    0  501  0.11199934625E+03 -0.79928551201E+02 -0.11698241244E+04  0.11905250560E+04  0.17300000000E+03 0.  1.
<mgrwt>
<rscale>  2 0.22104621E+03</rscale>
<asrwt>0</asrwt>
<pdfrwt beam="1">  1        1 0.26654296E+00 0.22104621E+03</pdfrwt>
<pdfrwt beam="2">  1       -1 0.49946951E-02 0.22104621E+03</pdfrwt>
<totfact> 0.89167702E+02</totfact>
</mgrwt>
</event>
<event>
 4    1  0.7354369E-001  0.1981753E+03  0.7546771E-02  0.1151288E+00
          2   -1    0    0  502    0  0.00000000000E+00  0.00000000000E+00  0.36249193503E+03  0.36249193503E+03  0.00000000000E+00 0.  1.
         -2   -1    0    0    0  501 -0.00000000000E+00 -0.00000000000E+00 -0.11040303840E+03  0.11040303840E+03  0.00000000000E+00 0. -1.
          6    1    1    2  502    0  0.50031303532E+02 -0.82712272443E+02  0.93745718403E+02  0.21922981336E+03  0.17300000000E+03 0. -1.
         -6    1    1    2    0  501 -0.50031303532E+02  0.82712272443E+02  0.15834317823E+03  0.25366516008E+03  0.17300000000E+03 0.  1.
<mgrwt>
<rscale>  2 0.19817530E+03</rscale>
<asrwt>0</asrwt>
<pdfrwt beam="1">  1        2 0.55767989E-01 0.19817530E+03</pdfrwt>
<pdfrwt beam="2">  1       -2 0.16985083E-01 0.19817530E+03</pdfrwt>
<totfact> 0.24407892E+03</totfact>
</mgrwt>
</event>
<event>
 4    1  0.7354369E-001  0.1740502E+03  0.7546771E-02  0.1173689E+00
         -2   -1    0    0    0  501 -0.00000000000E+00  0.00000000000E+00  0.75410951741E+02  0.75410951741E+02  0.00000000000E+00 0.  1.
          2   -1    0    0  502    0  0.00000000000E+00 -0.00000000000E+00 -0.41181229584E+03  0.41181229584E+03  0.00000000000E+00 0. -1.
          6    1    1    2  502    0 -0.17690904541E+02 -0.71768223547E+01 -0.20635273872E+03  0.26995356575E+03  0.17300000000E+03 0. -1.
         -6    1    1    2    0  501  0.17690904541E+02  0.71768223547E+01 -0.13004860538E+03  0.21726968183E+03  0.17300000000E+03 0.  1.
<mgrwt>
<rscale>  2 0.17405021E+03</rscale>
<asrwt>0</asrwt>
<pdfrwt beam="1">  1        2 0.63355736E-01 0.17405021E+03</pdfrwt>
<pdfrwt beam="2">  1       -2 0.11601685E-01 0.17405021E+03</pdfrwt>
<totfact> 0.39472250E+03</totfact>
</mgrwt>
</event>
<event>
 4    1  0.7354369E-001  0.2127615E+03  0.7546771E-02  0.1139398E+00
          1   -1    0    0  502    0  0.00000000000E+00  0.00000000000E+00  0.19916891503E+04  0.19916891503E+04  0.00000000000E+00 0.  1.
         -1   -1    0    0    0  501 -0.00000000000E+00 -0.00000000000E+00 -0.26886996063E+02  0.26886996063E+02  0.00000000000E+00 0. -1.
          6    1    1    2  502    0 -0.39997830749E+01 -0.12378399559E+03  0.13793445729E+04  0.13956571666E+04  0.17300000000E+03 0.  1.
         -6    1    1    2    0  501  0.39997830749E+01  0.12378399559E+03  0.58545758131E+03  0.62291897975E+03  0.17300000000E+03 0. -1.
<mgrwt>
<rscale>  2 0.21276155E+03</rscale>
<asrwt>0</asrwt>
<pdfrwt beam="1">  1        1 0.30641360E+00 0.21276155E+03</pdfrwt>
<pdfrwt beam="2">  1       -1 0.41364625E-02 0.21276155E+03</pdfrwt>
<totfact> 0.80430287E+02</totfact>
</mgrwt>
</event>
<event>
 4    1  0.7354369E-001  0.1790324E+03  0.7546771E-02  0.1168743E+00
          2   -1    0    0  502    0  0.00000000000E+00  0.00000000000E+00  0.16511680309E+03  0.16511680309E+03  0.00000000000E+00 0. -1.
         -2   -1    0    0    0  501 -0.00000000000E+00 -0.00000000000E+00 -0.22950523545E+03  0.22950523545E+03  0.00000000000E+00 0.  1.
          6    1    1    2  502    0 -0.39879289150E+02 -0.23091723045E+02 -0.10966927955E+03  0.20995222374E+03  0.17300000000E+03 0.  1.
         -6    1    1    2    0  501  0.39879289150E+02  0.23091723045E+02  0.45280847195E+02  0.18466981480E+03  0.17300000000E+03 0. -1.
<mgrwt>
<rscale>  2 0.17903236E+03</rscale>
<asrwt>0</asrwt>
<pdfrwt beam="1">  1        2 0.25402585E-01 0.17903236E+03</pdfrwt>
<pdfrwt beam="2">  1       -2 0.35308498E-01 0.17903236E+03</pdfrwt>
<totfact> 0.15747039E+03</totfact>
</mgrwt>
</event>
<event>
 4    1  0.7354369E-001  0.1756684E+03  0.7546771E-02  0.1172062E+00
         -1   -1    0    0    0  501 -0.00000000000E+00  0.00000000000E+00  0.29758806304E+03  0.29758806304E+03  0.00000000000E+00 0. -1.
          1   -1    0    0  502    0  0.00000000000E+00 -0.00000000000E+00 -0.13265453246E+03  0.13265453246E+03  0.00000000000E+00 0.  1.
          6    1    1    2  502    0 -0.21515262143E+02 -0.21621626849E+02 -0.18039412992E+02  0.17659224692E+03  0.17300000000E+03 0.  1.
         -6    1    1    2    0  501  0.21515262143E+02  0.21621626849E+02  0.18297294357E+03  0.25365034857E+03  0.17300000000E+03 0. -1.
<mgrwt>
<rscale>  2 0.17566844E+03</rscale>
<asrwt>0</asrwt>
<pdfrwt beam="1">  1        1 0.20408390E-01 0.17566844E+03</pdfrwt>
<pdfrwt beam="2">  1       -1 0.45782779E-01 0.17566844E+03</pdfrwt>
<totfact> 0.11921896E+03</totfact>
</mgrwt>
</event>
<event>
 4    1  0.7354369E-001  0.2005494E+03  0.7546771E-02  0.1149276E+00
          2   -1    0    0  502    0  0.00000000000E+00  0.00000000000E+00  0.14580263383E+04  0.14580263383E+04  0.00000000000E+00 0.  1.
         -2   -1    0    0    0  501 -0.00000000000E+00 -0.00000000000E+00 -0.53049368550E+02  0.53049368550E+02  0.00000000000E+00 0. -1.
          6    1    1    2  502    0 -0.32598175259E+02  0.96064760168E+02  0.17903258115E+03  0.26883590588E+03  0.17300000000E+03 0. -1.
         -6    1    1    2    0  501  0.32598175259E+02 -0.96064760168E+02  0.12259443886E+04  0.12422398010E+04  0.17300000000E+03 0.  1.
<mgrwt>
<rscale>  2 0.20054944E+03</rscale>
<asrwt>0</asrwt>
<pdfrwt beam="1">  1        2 0.22431171E+00 0.20054944E+03</pdfrwt>
<pdfrwt beam="2">  1       -2 0.81614424E-02 0.20054944E+03</pdfrwt>
<totfact> 0.13236311E+03</totfact>
</mgrwt>
</event>
<event>
 4    1  0.7354369E-001  0.2009400E+03  0.7546771E-02  0.1148948E+00
          1   -1    0    0  502    0  0.00000000000E+00  0.00000000000E+00  0.54207862880E+03  0.54207862880E+03  0.00000000000E+00 0. -1.
         -1   -1    0    0    0  501 -0.00000000000E+00 -0.00000000000E+00 -0.84365827267E+02  0.84365827267E+02  0.00000000000E+00 0.  1.
          6    1    1    2  502    0  0.63776169449E+02 -0.79877976453E+02  0.12166516334E+03  0.23490275197E+03  0.17300000000E+03 0.  1.
         -6    1    1    2    0  501 -0.63776169449E+02  0.79877976453E+02  0.33604763819E+03  0.39154170409E+03  0.17300000000E+03 0. -1.
<mgrwt>
<rscale>  2 0.20094002E+03</rscale>
<asrwt>0</asrwt>
<pdfrwt beam="1">  1        1 0.83396710E-01 0.20094002E+03</pdfrwt>
<pdfrwt beam="2">  1       -1 0.12979358E-01 0.20094002E+03</pdfrwt>
<totfact> 0.16299181E+03</totfact>
</mgrwt>
</event>
<event>
 4    1  0.7354369E-001  0.2908314E+03  0.7546771E-02  0.1089916E+00
          2   -1    0    0  502    0  0.00000000000E+00  0.00000000000E+00  0.23623223472E+04  0.23623223472E+04  0.00000000000E+00 0. -1.
         -2   -1    0    0    0  501 -0.00000000000E+00 -0.00000000000E+00 -0.39108734367E+02  0.39108734367E+02  0.00000000000E+00 0.  1.
          6    1    1    2  502    0  0.99146342556E+01  0.23357141018E+03  0.81262149561E+03  0.86309709694E+03  0.17300000000E+03 0.  1.
         -6    1    1    2    0  501 -0.99146342556E+01 -0.23357141018E+03  0.15105921172E+04  0.15383339846E+04  0.17300000000E+03 0. -1.
<mgrwt>
<rscale>  2 0.29083140E+03</rscale>
<asrwt>0</asrwt>
<pdfrwt beam="1">  1        2 0.36343410E+00 0.29083140E+03</pdfrwt>
<pdfrwt beam="2">  1       -2 0.60167302E-02 0.29083140E+03</pdfrwt>
<totfact> 0.70015857E+02</totfact>
</mgrwt>
</event>
<event>
 4    1  0.7354369E-001  0.2080493E+03  0.7546771E-02  0.1143120E+00
          2   -1    0    0  502    0  0.00000000000E+00  0.00000000000E+00  0.52361588482E+03  0.52361588482E+03  0.00000000000E+00 0. -1.
         -2   -1    0    0    0  501 -0.00000000000E+00 -0.00000000000E+00 -0.10124609815E+03  0.10124609815E+03  0.00000000000E+00 0.  1.
          6    1    1    2  502    0  0.60889728024E+02  0.98224001212E+02  0.34503076236E+03  0.40290289198E+03  0.17300000000E+03 0. -1.
         -6    1    1    2    0  501 -0.60889728024E+02 -0.98224001212E+02  0.77339024313E+02  0.22195909099E+03  0.17300000000E+03 0.  1.
<mgrwt>
<rscale>  2 0.20804931E+03</rscale>
<asrwt>0</asrwt>
<pdfrwt beam="1">  1        2 0.80556288E-01 0.20804931E+03</pdfrwt>
<pdfrwt beam="2">  1       -2 0.15576323E-01 0.20804931E+03</pdfrwt>
<totfact> 0.18865695E+03</totfact>
</mgrwt>
</event>
<event>
 4    1  0.7354369E-001  0.1880989E+03  0.7546771E-02  0.1160187E+00
         -1   -1    0    0    0  501 -0.00000000000E+00  0.00000000000E+00  0.54492889344E+02  0.54492889344E+02  0.00000000000E+00 0.  1.
          1   -1    0    0  502    0  0.00000000000E+00 -0.00000000000E+00 -0.68325344062E+03  0.68325344062E+03  0.00000000000E+00 0. -1.
          6    1    1    2  502    0 -0.60154688289E+02 -0.42820612560E+02 -0.39663299438E+03  0.43897485533E+03  0.17300000000E+03 0.  1.
         -6    1    1    2    0  501  0.60154688289E+02  0.42820612560E+02 -0.23212755690E+03  0.29877147463E+03  0.17300000000E+03 0.  1.
<mgrwt>
<rscale>  2 0.18809889E+03</rscale>
<asrwt>0</asrwt>
<pdfrwt beam="1">  1        1 0.10511592E+00 0.18809889E+03</pdfrwt>
<pdfrwt beam="2">  1       -1 0.83835210E-02 0.18809889E+03</pdfrwt>
<totfact> 0.23193131E+03</totfact>
</mgrwt>
</event>
<event>
 4    1  0.7354369E-001  0.2005262E+03  0.7546771E-02  0.1149296E+00
         -2   -1    0    0    0  501 -0.00000000000E+00  0.00000000000E+00  0.42388811514E+02  0.42388811514E+02  0.00000000000E+00 0.  1.
          2   -1    0    0  502    0  0.00000000000E+00 -0.00000000000E+00 -0.94867138773E+03  0.94867138773E+03  0.00000000000E+00 0. -1.
          6    1    1    2  502    0  0.13584880491E+02  0.10048491698E+03 -0.44940585023E+03  0.49211419990E+03  0.17300000000E+03 0.  1.
         -6    1    1    2    0  501 -0.13584880491E+02 -0.10048491698E+03 -0.45687672599E+03  0.49894599935E+03  0.17300000000E+03 0. -1.
<mgrwt>
<rscale>  2 0.20052623E+03</rscale>
<asrwt>0</asrwt>
<pdfrwt beam="1">  1        2 0.14594944E+00 0.20052623E+03</pdfrwt>
<pdfrwt beam="2">  1       -2 0.65213557E-02 0.20052623E+03</pdfrwt>
<totfact> 0.36457738E+03</totfact>
</mgrwt>
</event>
<event>
 4    1  0.7354369E-001  0.2005520E+03  0.7546771E-02  0.1149274E+00
         -2   -1    0    0    0  501 -0.00000000000E+00  0.00000000000E+00  0.34353964859E+02  0.34353964859E+02  0.00000000000E+00 0. -1.
          2   -1    0    0  502    0  0.00000000000E+00 -0.00000000000E+00 -0.11736524440E+04  0.11736524440E+04  0.00000000000E+00 0.  1.
          6    1    1    2  502    0 -0.48543958235E+01  0.10133381237E+03 -0.59950424025E+03  0.63216013854E+03  0.17300000000E+03 0.  1.
         -6    1    1    2    0  501  0.48543958235E+01 -0.10133381237E+03 -0.53979423885E+03  0.57584627027E+03  0.17300000000E+03 0.  1.
<mgrwt>
<rscale>  2 0.20055200E+03</rscale>
<asrwt>0</asrwt>
<pdfrwt beam="1">  1        2 0.18056189E+00 0.20055200E+03</pdfrwt>
<pdfrwt beam="2">  1       -2 0.52852261E-02 0.20055200E+03</pdfrwt>
<totfact> 0.36983588E+03</totfact>
</mgrwt>
</event>
<event>
 4    1  0.7354369E-001  0.2200997E+03  0.7546771E-02  0.1133809E+00
         -4   -1    0    0    0  501 -0.00000000000E+00  0.00000000000E+00  0.10342020591E+04  0.10342020591E+04  0.00000000000E+00 0.  1.
          4   -1    0    0  502    0  0.00000000000E+00 -0.00000000000E+00 -0.53644669391E+02  0.53644669391E+02  0.00000000000E+00 0. -1.
          6    1    1    2  502    0 -0.26271710467E+02 -0.13350914049E+03  0.29658286652E+03  0.36933086803E+03  0.17300000000E+03 0. -1.
         -6    1    1    2    0  501  0.26271710467E+02  0.13350914049E+03  0.68397452316E+03  0.71851586044E+03  0.17300000000E+03 0. -1.
<mgrwt>
<rscale>  2 0.22009974E+03</rscale>
<asrwt>0</asrwt>
<pdfrwt beam="1">  1        4 0.82530269E-02 0.22009974E+03</pdfrwt>
<pdfrwt beam="2">  1       -4 0.15910799E+00 0.22009974E+03</pdfrwt>
<totfact> 0.51287005E+01</totfact>
</mgrwt>
</event>
<event>
 4    1  0.7354369E-001  0.2032971E+03  0.7546771E-02  0.1146987E+00
         -1   -1    0    0    0  501 -0.00000000000E+00  0.00000000000E+00  0.10432459331E+04  0.10432459331E+04  0.00000000000E+00 0. -1.
          1   -1    0    0  502    0  0.00000000000E+00 -0.00000000000E+00 -0.41419784421E+02  0.41419784421E+02  0.00000000000E+00 0.  1.
          6    1    1    2  502    0 -0.26591154885E+02  0.10340997146E+03  0.38775154059E+03  0.43781385193E+03  0.17300000000E+03 0. -1.
         -6    1    1    2    0  501  0.26591154885E+02 -0.10340997146E+03  0.61407460812E+03  0.64685186562E+03  0.17300000000E+03 0.  1.
<mgrwt>
<rscale>  2 0.20329710E+03</rscale>
<asrwt>0</asrwt>
<pdfrwt beam="1">  1        1 0.63722753E-02 0.20329710E+03</pdfrwt>
<pdfrwt beam="2">  1       -1 0.16049935E+00 0.20329710E+03</pdfrwt>
<totfact> 0.37544879E+02</totfact>
</mgrwt>
</event>
<event>
 4    1  0.7354369E-001  0.1805010E+03  0.7546771E-02  0.1167319E+00
         -1   -1    0    0    0  501 -0.00000000000E+00  0.00000000000E+00  0.16046532275E+02  0.16046532275E+02  0.00000000000E+00 0.  1.
          1   -1    0    0  502    0  0.00000000000E+00 -0.00000000000E+00 -0.28566091739E+04  0.28566091739E+04  0.00000000000E+00 0. -1.
          6    1    1    2  502    0 -0.36299891400E+02  0.36522760833E+02 -0.21927445988E+04  0.22001612372E+04  0.17300000000E+03 0. -1.
         -6    1    1    2    0  501  0.36299891400E+02 -0.36522760833E+02 -0.64781804284E+03  0.67249446897E+03  0.17300000000E+03 0.  1.
<mgrwt>
<rscale>  2 0.18050095E+03</rscale>
<asrwt>0</asrwt>
<pdfrwt beam="1">  1        1 0.43947855E+00 0.18050095E+03</pdfrwt>
<pdfrwt beam="2">  1       -1 0.24686961E-02 0.18050095E+03</pdfrwt>
<totfact> 0.46669276E+02</totfact>
</mgrwt>
</event>
<event>
 4    1  0.7354369E-001  0.2292715E+03  0.7546771E-02  0.1127154E+00
          2   -1    0    0  502    0  0.00000000000E+00  0.00000000000E+00  0.93109717473E+03  0.93109717473E+03  0.00000000000E+00 0. -1.
         -2   -1    0    0    0  501 -0.00000000000E+00 -0.00000000000E+00 -0.58172009844E+02  0.58172009844E+02  0.00000000000E+00 0.  1.
          6    1    1    2  502    0  0.30183287192E+02  0.14739533920E+03  0.35149180718E+03  0.41965689242E+03  0.17300000000E+03 0.  1.
         -6    1    1    2    0  501 -0.30183287192E+02 -0.14739533920E+03  0.52143335771E+03  0.56961229215E+03  0.17300000000E+03 0. -1.
<mgrwt>
<rscale>  2 0.22927149E+03</rscale>
<asrwt>0</asrwt>
<pdfrwt beam="1">  1        2 0.14324571E+00 0.22927149E+03</pdfrwt>
<pdfrwt beam="2">  1       -2 0.89495406E-02 0.22927149E+03</pdfrwt>
<totfact> 0.22904255E+03</totfact>
</mgrwt>
</event>
<event>
 4    1  0.7354369E-001  0.1952451E+03  0.7546771E-02  0.1153814E+00
          4   -1    0    0  502    0  0.00000000000E+00  0.00000000000E+00  0.31351119448E+02  0.31351119448E+02  0.00000000000E+00 0. -1.
         -4   -1    0    0    0  501 -0.00000000000E+00 -0.00000000000E+00 -0.13290665021E+04  0.13290665021E+04  0.00000000000E+00 0.  1.
          6    1    1    2  502    0  0.43460264501E+02  0.79390490934E+02 -0.84731986393E+03  0.86952377566E+03  0.17300000000E+03 0.  1.
         -6    1    1    2    0  501 -0.43460264501E+02 -0.79390490934E+02 -0.45039551876E+03  0.49089384592E+03  0.17300000000E+03 0.  1.
<mgrwt>
<rscale>  2 0.19524509E+03</rscale>
<asrwt>0</asrwt>
<pdfrwt beam="1">  1        4 0.48232494E-02 0.19524509E+03</pdfrwt>
<pdfrwt beam="2">  1       -4 0.20447176E+00 0.19524509E+03</pdfrwt>
<totfact> 0.61125513E+01</totfact>
</mgrwt>
</event>
<event>
 4    1  0.7354369E-001  0.1915470E+03  0.7546771E-02  0.1157073E+00
         -2   -1    0    0    0  501 -0.00000000000E+00  0.00000000000E+00  0.46646116297E+02  0.46646116297E+02  0.00000000000E+00 0. -1.
          2   -1    0    0  502    0  0.00000000000E+00 -0.00000000000E+00 -0.97077756378E+03  0.97077756378E+03  0.00000000000E+00 0.  1.
          6    1    1    2  502    0  0.51046576748E+02 -0.64463152403E+02 -0.24046540689E+03  0.30743107020E+03  0.17300000000E+03 0. -1.
         -6    1    1    2    0  501 -0.51046576748E+02  0.64463152403E+02 -0.68366604059E+03  0.70999260988E+03  0.17300000000E+03 0. -1.
<mgrwt>
<rscale>  2 0.19154699E+03</rscale>
<asrwt>0</asrwt>
<pdfrwt beam="1">  1        2 0.14935040E+00 0.19154699E+03</pdfrwt>
<pdfrwt beam="2">  1       -2 0.71763251E-02 0.19154699E+03</pdfrwt>
<totfact> 0.30449175E+03</totfact>
</mgrwt>
</event>
<event>
 4    1  0.7354369E-001  0.1863510E+03  0.7546771E-02  0.1161794E+00
          2   -1    0    0  502    0  0.00000000000E+00  0.00000000000E+00  0.50942959829E+03  0.50942959829E+03  0.00000000000E+00 0.  1.
         -2   -1    0    0    0  501 -0.00000000000E+00 -0.00000000000E+00 -0.68354838934E+02  0.68354838934E+02  0.00000000000E+00 0. -1.
          6    1    1    2  502    0  0.59331555835E+02 -0.35741650463E+02  0.23564888821E+03  0.30042819044E+03  0.17300000000E+03 0. -1.
         -6    1    1    2    0  501 -0.59331555835E+02  0.35741650463E+02  0.20542587115E+03  0.27735624679E+03  0.17300000000E+03 0. -1.
<mgrwt>
<rscale>  2 0.18635101E+03</rscale>
<asrwt>0</asrwt>
<pdfrwt beam="1">  1        2 0.78373782E-01 0.18635101E+03</pdfrwt>
<pdfrwt beam="2">  1       -2 0.10516129E-01 0.18635101E+03</pdfrwt>
<totfact> 0.36669689E+03</totfact>
</mgrwt>
</event>
<event>
 4    1  0.7354369E-001  0.1993754E+03  0.7546771E-02  0.1150267E+00
          1   -1    0    0  502    0  0.00000000000E+00  0.00000000000E+00  0.26162679377E+03  0.26162679377E+03  0.00000000000E+00 0.  1.
         -1   -1    0    0    0  501 -0.00000000000E+00 -0.00000000000E+00 -0.15270829727E+03  0.15270829727E+03  0.00000000000E+00 0. -1.
          6    1    1    2  502    0 -0.65983425538E+02  0.73944041524E+02  0.39726726791E+02  0.20329472827E+03  0.17300000000E+03 0. -1.
         -6    1    1    2    0  501  0.65983425538E+02 -0.73944041524E+02  0.69191769714E+02  0.21104036277E+03  0.17300000000E+03 0. -1.
<mgrwt>
<rscale>  2 0.19937536E+03</rscale>
<asrwt>0</asrwt>
<pdfrwt beam="1">  1        1 0.40250276E-01 0.19937536E+03</pdfrwt>
<pdfrwt beam="2">  1       -1 0.23493584E-01 0.19937536E+03</pdfrwt>
<totfact> 0.15981156E+03</totfact>
</mgrwt>
</event>
<event>
 4    1  0.7354369E-001  0.2223557E+03  0.7546771E-02  0.1132139E+00
         -1   -1    0    0    0  501 -0.00000000000E+00  0.00000000000E+00  0.43557914919E+02  0.43557914919E+02  0.00000000000E+00 0.  1.
          1   -1    0    0  502    0  0.00000000000E+00 -0.00000000000E+00 -0.14923458918E+04  0.14923458918E+04  0.00000000000E+00 0. -1.
          6    1    1    2  502    0  0.13037220551E+03 -0.50161114182E+02 -0.11001365825E+04  0.11223825326E+04  0.17300000000E+03 0. -1.
         -6    1    1    2    0  501 -0.13037220551E+03  0.50161114182E+02 -0.34865139444E+03  0.41352127417E+03  0.17300000000E+03 0.  1.
<mgrwt>
<rscale>  2 0.22235568E+03</rscale>
<asrwt>0</asrwt>
<pdfrwt beam="1">  1        1 0.22959165E+00 0.22235568E+03</pdfrwt>
<pdfrwt beam="2">  1       -1 0.67012183E-02 0.22235568E+03</pdfrwt>
<totfact> 0.82194518E+02</totfact>
</mgrwt>
</event>
<event>
 4    1  0.7354369E-001  0.2274137E+03  0.7546771E-02  0.1128473E+00
         -2   -1    0    0    0  501 -0.00000000000E+00  0.00000000000E+00  0.88162986693E+03  0.88162986693E+03  0.00000000000E+00 0. -1.
          2   -1    0    0  502    0  0.00000000000E+00 -0.00000000000E+00 -0.61212973138E+02  0.61212973138E+02  0.00000000000E+00 0.  1.
          6    1    1    2  502    0 -0.86462649459E+02 -0.11963360313E+03  0.50647039823E+03  0.55518398125E+03  0.17300000000E+03 0. -1.
         -6    1    1    2    0  501  0.86462649459E+02  0.11963360313E+03  0.31394649556E+03  0.38765885882E+03  0.17300000000E+03 0.  1.
<mgrwt>
<rscale>  2 0.22741370E+03</rscale>
<asrwt>0</asrwt>
<pdfrwt beam="1">  1        2 0.94173811E-02 0.22741370E+03</pdfrwt>
<pdfrwt beam="2">  1       -2 0.13563535E+00 0.22741370E+03</pdfrwt>
<totfact> 0.28321172E+02</totfact>
</mgrwt>
</event>
<event>
 4    1  0.7354369E-001  0.1830995E+03  0.7546771E-02  0.1164837E+00
          2   -1    0    0  502    0  0.00000000000E+00  0.00000000000E+00  0.75937288039E+03  0.75937288039E+03  0.00000000000E+00 0.  1.
         -2   -1    0    0    0  501 -0.00000000000E+00 -0.00000000000E+00 -0.44800013669E+02  0.44800013669E+02  0.00000000000E+00 0. -1.
          6    1    1    2  502    0  0.54438433240E+02  0.25156920440E+02  0.30880932110E+03  0.35901059936E+03  0.17300000000E+03 0. -1.
         -6    1    1    2    0  501 -0.54438433240E+02 -0.25156920440E+02  0.40576354563E+03  0.44516229470E+03  0.17300000000E+03 0. -1.
<mgrwt>
<rscale>  2 0.18309946E+03</rscale>
<asrwt>0</asrwt>
<pdfrwt beam="1">  1        2 0.11682659E+00 0.18309946E+03</pdfrwt>
<pdfrwt beam="2">  1       -2 0.68923103E-02 0.18309946E+03</pdfrwt>
<totfact> 0.44538165E+03</totfact>
</mgrwt>
</event>
<event>
 4    1  0.7354369E-001  0.2041031E+03  0.7546771E-02  0.1146323E+00
          2   -1    0    0  502    0  0.00000000000E+00  0.00000000000E+00  0.71087088330E+03  0.71087088330E+03  0.00000000000E+00 0.  1.
         -2   -1    0    0    0  501 -0.00000000000E+00 -0.00000000000E+00 -0.13936272639E+03  0.13936272639E+03  0.00000000000E+00 0. -1.
          6    1    1    2  502    0 -0.60090373970E+02 -0.90101242664E+02 -0.37866744623E+02  0.20758607208E+03  0.17300000000E+03 0. -1.
         -6    1    1    2    0  501  0.60090373970E+02  0.90101242664E+02  0.60937490154E+03  0.64264753761E+03  0.17300000000E+03 0.  1.
<mgrwt>
<rscale>  2 0.20410313E+03</rscale>
<asrwt>0</asrwt>
<pdfrwt beam="1">  1        2 0.10936475E+00 0.20410313E+03</pdfrwt>
<pdfrwt beam="2">  1       -2 0.21440420E-01 0.20410313E+03</pdfrwt>
<totfact> 0.77052257E+02</totfact>
</mgrwt>
</event>
<event>
 4    1  0.7354369E-001  0.2047103E+03  0.7546771E-02  0.1145825E+00
          3   -1    0    0  502    0  0.00000000000E+00  0.00000000000E+00  0.51011229643E+02  0.51011229643E+02  0.00000000000E+00 0. -1.
         -3   -1    0    0    0  501 -0.00000000000E+00 -0.00000000000E+00 -0.84311254232E+03  0.84311254232E+03  0.00000000000E+00 0.  1.
          6    1    1    2  502    0 -0.27857587950E+02 -0.10583591833E+03 -0.32449118153E+03  0.38366758230E+03  0.17300000000E+03 0. -1.
         -6    1    1    2    0  501  0.27857587950E+02  0.10583591833E+03 -0.46761013114E+03  0.51045618966E+03  0.17300000000E+03 0. -1.
<mgrwt>
<rscale>  2 0.20471025E+03</rscale>
<asrwt>0</asrwt>
<pdfrwt beam="1">  1        3 0.78478810E-02 0.20471025E+03</pdfrwt>
<pdfrwt beam="2">  1       -3 0.12970963E+00 0.20471025E+03</pdfrwt>
<totfact> 0.13214863E+02</totfact>
</mgrwt>
</event>
<event>
 4    1  0.7354369E-001  0.1969414E+03  0.7546771E-02  0.1152346E+00
          2   -1    0    0  502    0  0.00000000000E+00  0.00000000000E+00  0.14439339588E+04  0.14439339588E+04  0.00000000000E+00 0.  1.
         -2   -1    0    0    0  501 -0.00000000000E+00 -0.00000000000E+00 -0.52685353743E+02  0.52685353743E+02  0.00000000000E+00 0. -1.
          6    1    1    2  502    0 -0.18751079645E+02  0.92224205208E+02  0.17172379557E+03  0.26129479325E+03  0.17300000000E+03 0. -1.
         -6    1    1    2    0  501  0.18751079645E+02 -0.92224205208E+02  0.12195248095E+04  0.12353245193E+04  0.17300000000E+03 0.  1.
<mgrwt>
<rscale>  2 0.19694138E+03</rscale>
<asrwt>0</asrwt>
<pdfrwt beam="1">  1        2 0.22214366E+00 0.19694138E+03</pdfrwt>
<pdfrwt beam="2">  1       -2 0.81054401E-02 0.19694138E+03</pdfrwt>
<totfact> 0.13615552E+03</totfact>
</mgrwt>
</event>
<event>
 4    1  0.7354369E-001  0.1732125E+03  0.7546771E-02  0.1174539E+00
         -2   -1    0    0    0  501 -0.00000000000E+00  0.00000000000E+00  0.13696230156E+02  0.13696230156E+02  0.00000000000E+00 0. -1.
          2   -1    0    0  502    0  0.00000000000E+00 -0.00000000000E+00 -0.24105235581E+04  0.24105235581E+04  0.00000000000E+00 0.  1.
          6    1    1    2  502    0  0.58049195734E+01 -0.63149524844E+01 -0.15645560544E+04  0.15741150603E+04  0.17300000000E+03 0.  1.
         -6    1    1    2    0  501 -0.58049195734E+01  0.63149524844E+01 -0.83227127348E+03  0.85010472789E+03  0.17300000000E+03 0. -1.
<mgrwt>
<rscale>  2 0.17321252E+03</rscale>
<asrwt>0</asrwt>
<pdfrwt beam="1">  1        2 0.37084967E+00 0.17321252E+03</pdfrwt>
<pdfrwt beam="2">  1       -2 0.21071130E-02 0.17321252E+03</pdfrwt>
<totfact> 0.32276927E+03</totfact>
</mgrwt>
</event>
<event>
 4    1  0.7354369E-001  0.3427517E+03  0.7546771E-02  0.1065630E+00
          1   -1    0    0  502    0  0.00000000000E+00  0.00000000000E+00  0.12030358941E+04  0.12030358941E+04  0.00000000000E+00 0. -1.
         -1   -1    0    0    0  501 -0.00000000000E+00 -0.00000000000E+00 -0.99485579169E+02  0.99485579169E+02  0.00000000000E+00 0.  1.
          6    1    1    2  502    0  0.95171733170E+01 -0.29573493064E+03  0.64019260761E+03  0.72617167434E+03  0.17300000000E+03 0.  1.
         -6    1    1    2    0  501 -0.95171733170E+01  0.29573493064E+03  0.46335770734E+03  0.57634979894E+03  0.17300000000E+03 0. -1.
<mgrwt>
<rscale>  2 0.34275170E+03</rscale>
<asrwt>0</asrwt>
<pdfrwt beam="1">  1        1 0.18508244E+00 0.34275170E+03</pdfrwt>
<pdfrwt beam="2">  1       -1 0.15305475E-01 0.34275170E+03</pdfrwt>
<totfact> 0.35338469E+02</totfact>
</mgrwt>
</event>
<event>
 4    1  0.7354369E-001  0.1868234E+03  0.7546771E-02  0.1161358E+00
         -1   -1    0    0    0  501 -0.00000000000E+00  0.00000000000E+00  0.16620137237E+03  0.16620137237E+03  0.00000000000E+00 0. -1.
          1   -1    0    0  502    0  0.00000000000E+00 -0.00000000000E+00 -0.21176349885E+03  0.21176349885E+03  0.00000000000E+00 0.  1.
          6    1    1    2  502    0 -0.70473876109E+02  0.27212895954E+01 -0.40006720815E+02  0.19105891851E+03  0.17300000000E+03 0.  1.
         -6    1    1    2    0  501  0.70473876109E+02 -0.27212895954E+01 -0.55554056655E+01  0.18690595272E+03  0.17300000000E+03 0.  1.
<mgrwt>
<rscale>  2 0.18682337E+03</rscale>
<asrwt>0</asrwt>
<pdfrwt beam="1">  1        1 0.32579000E-01 0.18682337E+03</pdfrwt>
<pdfrwt beam="2">  1       -1 0.25569442E-01 0.18682337E+03</pdfrwt>
<totfact> 0.18069918E+03</totfact>
</mgrwt>
</event>
<event>
 4    1  0.7354369E-001  0.1847995E+03  0.7546771E-02  0.1163237E+00
          2   -1    0    0  502    0  0.00000000000E+00  0.00000000000E+00  0.72014403611E+03  0.72014403611E+03  0.00000000000E+00 0. -1.
         -2   -1    0    0    0  501 -0.00000000000E+00 -0.00000000000E+00 -0.51667327892E+02  0.51667327892E+02  0.00000000000E+00 0.  1.
          6    1    1    2  502    0  0.63094257551E+02 -0.15523703552E+02  0.44485349322E+03  0.48171101413E+03  0.17300000000E+03 0. -1.
         -6    1    1    2    0  501 -0.63094257551E+02  0.15523703552E+02  0.22362321500E+03  0.29010034987E+03  0.17300000000E+03 0.  1.
<mgrwt>
<rscale>  2 0.18479954E+03</rscale>
<asrwt>0</asrwt>
<pdfrwt beam="1">  1        2 0.11079138E+00 0.18479954E+03</pdfrwt>
<pdfrwt beam="2">  1       -2 0.79488202E-02 0.18479954E+03</pdfrwt>
<totfact> 0.38125254E+03</totfact>
</mgrwt>
</event>
<event>
 4    1  0.7354369E-001  0.1876103E+03  0.7546771E-02  0.1160634E+00
          2   -1    0    0  502    0  0.00000000000E+00  0.00000000000E+00  0.50296176638E+04  0.50296176638E+04  0.00000000000E+00 0.  1.
         -2   -1    0    0    0  501 -0.00000000000E+00 -0.00000000000E+00 -0.73760553997E+01  0.73760553997E+01  0.00000000000E+00 0. -1.
          6    1    1    2  502    0 -0.38158240386E+02  0.61746111174E+02  0.30812389859E+04  0.30869453060E+04  0.17300000000E+03 0.  1.
         -6    1    1    2    0  501  0.38158240386E+02 -0.61746111174E+02  0.19410026225E+04  0.19500484133E+04  0.17300000000E+03 0. -1.
<mgrwt>
<rscale>  2 0.18761032E+03</rscale>
<asrwt>0</asrwt>
<pdfrwt beam="1">  1        2 0.77378460E+00 0.18761032E+03</pdfrwt>
<pdfrwt beam="2">  1       -2 0.11347818E-02 0.18761032E+03</pdfrwt>
<totfact> 0.86966899E+01</totfact>
</mgrwt>
</event>
<event>
 4    1  0.7354369E-001  0.1961875E+03  0.7546771E-02  0.1152996E+00
         -1   -1    0    0    0  501 -0.00000000000E+00  0.00000000000E+00  0.54600701464E+02  0.54600701464E+02  0.00000000000E+00 0. -1.
          1   -1    0    0  502    0  0.00000000000E+00 -0.00000000000E+00 -0.94367243880E+03  0.94367243880E+03  0.00000000000E+00 0.  1.
          6    1    1    2  502    0 -0.48949237157E+02  0.78514320163E+02 -0.19347674814E+03  0.27554088328E+03  0.17300000000E+03 0. -1.
         -6    1    1    2    0  501  0.48949237157E+02 -0.78514320163E+02 -0.69559498919E+03  0.72273225698E+03  0.17300000000E+03 0.  1.
<mgrwt>
<rscale>  2 0.19618748E+03</rscale>
<asrwt>0</asrwt>
<pdfrwt beam="1">  1        1 0.14518037E+00 0.19618748E+03</pdfrwt>
<pdfrwt beam="2">  1       -1 0.84001081E-02 0.19618748E+03</pdfrwt>
<totfact> 0.14097686E+03</totfact>
</mgrwt>
</event>
<event>
 4    1  0.7354369E-001  0.1870814E+03  0.7546771E-02  0.1161120E+00
          2   -1    0    0  502    0  0.00000000000E+00  0.00000000000E+00  0.17306288798E+04  0.17306288798E+04  0.00000000000E+00 0. -1.
         -2   -1    0    0    0  501 -0.00000000000E+00 -0.00000000000E+00 -0.20591130314E+02  0.20591130314E+02  0.00000000000E+00 0.  1.
          6    1    1    2  502    0 -0.49353881342E+02 -0.51328664672E+02  0.97201038379E+03  0.98985030364E+03  0.17300000000E+03 0. -1.
         -6    1    1    2    0  501  0.49353881342E+02  0.51328664672E+02  0.73802736569E+03  0.76136970647E+03  0.17300000000E+03 0. -1.
<mgrwt>
<rscale>  2 0.18708137E+03</rscale>
<asrwt>0</asrwt>
<pdfrwt beam="1">  1        2 0.26625048E+00 0.18708137E+03</pdfrwt>
<pdfrwt beam="2">  1       -2 0.31678676E-02 0.18708137E+03</pdfrwt>
<totfact> 0.40065609E+03</totfact>
</mgrwt>
</event>
<event>
 4    1  0.7354369E-001  0.1774385E+03  0.7546771E-02  0.1170305E+00
          1   -1    0    0  502    0  0.00000000000E+00  0.00000000000E+00  0.29664307236E+03  0.29664307236E+03  0.00000000000E+00 0. -1.
         -1   -1    0    0    0  501 -0.00000000000E+00 -0.00000000000E+00 -0.16426682267E+03  0.16426682267E+03  0.00000000000E+00 0.  1.
          6    1    1    2  502    0 -0.37121948194E+02 -0.13317935783E+02 -0.70904987249E+02  0.19108093486E+03  0.17300000000E+03 0.  1.
         -6    1    1    2    0  501  0.37121948194E+02  0.13317935783E+02  0.20328123694E+03  0.26982896016E+03  0.17300000000E+03 0. -1.
<mgrwt>
<rscale>  2 0.17743846E+03</rscale>
<asrwt>0</asrwt>
<pdfrwt beam="1">  1        1 0.45637396E-01 0.17743846E+03</pdfrwt>
<pdfrwt beam="2">  1       -1 0.25271819E-01 0.17743846E+03</pdfrwt>
<totfact> 0.12082214E+03</totfact>
</mgrwt>
</event>
<event>
 4    1  0.7354369E-001  0.1857804E+03  0.7546771E-02  0.1162323E+00
          3   -1    0    0  502    0  0.00000000000E+00  0.00000000000E+00  0.40642984941E+02  0.40642984941E+02  0.00000000000E+00 0.  1.
         -3   -1    0    0    0  501 -0.00000000000E+00 -0.00000000000E+00 -0.95243550255E+03  0.95243550255E+03  0.00000000000E+00 0. -1.
          6    1    1    2  502    0 -0.14844398039E+02  0.66068190049E+02 -0.29242824733E+03  0.34645149982E+03  0.17300000000E+03 0. -1.
         -6    1    1    2    0  501  0.14844398039E+02 -0.66068190049E+02 -0.61936427028E+03  0.64662698767E+03  0.17300000000E+03 0. -1.
<mgrwt>
<rscale>  2 0.18578041E+03</rscale>
<asrwt>0</asrwt>
<pdfrwt beam="1">  1        3 0.62527681E-02 0.18578041E+03</pdfrwt>
<pdfrwt beam="2">  1       -3 0.14652851E+00 0.18578041E+03</pdfrwt>
<totfact> 0.14035777E+02</totfact>
</mgrwt>
</event>
<event>
 4    1  0.7354369E-001  0.2702310E+03  0.7546771E-02  0.1101147E+00
         -3   -1    0    0    0  501 -0.00000000000E+00  0.00000000000E+00  0.50543681895E+03  0.50543681895E+03  0.00000000000E+00 0.  1.
          3   -1    0    0  502    0  0.00000000000E+00 -0.00000000000E+00 -0.16307728747E+03  0.16307728747E+03  0.00000000000E+00 0. -1.
          6    1    1    2  502    0  0.14437658841E+03  0.14916827908E+03  0.28406201749E+03  0.39206632671E+03  0.17300000000E+03 0.  1.
         -6    1    1    2    0  501 -0.14437658841E+03 -0.14916827908E+03  0.58297513998E+02  0.27644777970E+03  0.17300000000E+03 0. -1.
<mgrwt>
<rscale>  2 0.27023097E+03</rscale>
<asrwt>0</asrwt>
<pdfrwt beam="1">  1        3 0.25088814E-01 0.27023097E+03</pdfrwt>
<pdfrwt beam="2">  1       -3 0.77759510E-01 0.27023097E+03</pdfrwt>
<totfact> 0.59104383E+01</totfact>
</mgrwt>
</event>
<event>
 4    1  0.7354369E-001  0.1836309E+03  0.7546771E-02  0.1164335E+00
         -1   -1    0    0    0  501 -0.00000000000E+00  0.00000000000E+00  0.32047582355E+03  0.32047582355E+03  0.00000000000E+00 0.  1.
          1   -1    0    0  502    0  0.00000000000E+00 -0.00000000000E+00 -0.10607355302E+03  0.10607355302E+03  0.00000000000E+00 0. -1.
          6    1    1    2  502    0  0.57020992607E+02 -0.23235743038E+02  0.12633876475E+03  0.22289409331E+03  0.17300000000E+03 0.  1.
         -6    1    1    2    0  501 -0.57020992607E+02  0.23235743038E+02  0.88063505781E+02  0.20365528327E+03  0.17300000000E+03 0.  1.
<mgrwt>
<rscale>  2 0.18363086E+03</rscale>
<asrwt>0</asrwt>
<pdfrwt beam="1">  1        1 0.16319008E-01 0.18363086E+03</pdfrwt>
<pdfrwt beam="2">  1       -1 0.49303972E-01 0.18363086E+03</pdfrwt>
<totfact> 0.13912377E+03</totfact>
</mgrwt>
</event>
<event>
 4    1  0.7354369E-001  0.1736059E+03  0.7546771E-02  0.1174139E+00
         -1   -1    0    0    0  501 -0.00000000000E+00  0.00000000000E+00  0.16116906811E+02  0.16116906811E+02  0.00000000000E+00 0.  1.
          1   -1    0    0  502    0  0.00000000000E+00 -0.00000000000E+00 -0.18926156047E+04  0.18926156047E+04  0.00000000000E+00 0. -1.
          6    1    1    2  502    0 -0.14340501113E+02 -0.20894321669E+01 -0.83398170486E+03  0.85185943661E+03  0.17300000000E+03 0.  1.
         -6    1    1    2    0  501  0.14340501113E+02  0.20894321669E+01 -0.10425169931E+04  0.10568730749E+04  0.17300000000E+03 0. -1.
<mgrwt>
<rscale>  2 0.17360592E+03</rscale>
<asrwt>0</asrwt>
<pdfrwt beam="1">  1        1 0.29117158E+00 0.17360592E+03</pdfrwt>
<pdfrwt beam="2">  1       -1 0.24795246E-02 0.17360592E+03</pdfrwt>
<totfact> 0.19841984E+03</totfact>
</mgrwt>
</event>
<event>
 4    1  0.7354369E-001  0.2595295E+03  0.7546771E-02  0.1107426E+00
          3   -1    0    0  502    0  0.00000000000E+00  0.00000000000E+00  0.16170610972E+03  0.16170610972E+03  0.00000000000E+00 0. -1.
         -3   -1    0    0    0  501 -0.00000000000E+00 -0.00000000000E+00 -0.42294338428E+03  0.42294338428E+03  0.00000000000E+00 0.  1.
          6    1    1    2  502    0 -0.49066920383E+02  0.18713360821E+03 -0.16661397848E+03  0.30840844317E+03  0.17300000000E+03 0.  1.
         -6    1    1    2    0  501  0.49066920383E+02 -0.18713360821E+03 -0.94623296081E+02  0.27624105082E+03  0.17300000000E+03 0. -1.
<mgrwt>
<rscale>  2 0.25952948E+03</rscale>
<asrwt>0</asrwt>
<pdfrwt beam="1">  1        3 0.24877863E-01 0.25952948E+03</pdfrwt>
<pdfrwt beam="2">  1       -3 0.65068213E-01 0.25952948E+03</pdfrwt>
<totfact> 0.87838921E+01</totfact>
</mgrwt>
</event>
<event>
 4    1  0.7354369E-001  0.2712397E+03  0.7546771E-02  0.1100572E+00
          2   -1    0    0  502    0  0.00000000000E+00  0.00000000000E+00  0.25632911490E+04  0.25632911490E+04  0.00000000000E+00 0. -1.
         -2   -1    0    0    0  501 -0.00000000000E+00 -0.00000000000E+00 -0.11816223330E+03  0.11816223330E+03  0.00000000000E+00 0.  1.
          6    1    1    2  502    0 -0.15778945169E+03  0.13691040235E+03  0.23891497694E+04  0.24044973674E+04  0.17300000000E+03 0. -1.
         -6    1    1    2    0  501  0.15778945169E+03 -0.13691040235E+03  0.55979146250E+02  0.27695601483E+03  0.17300000000E+03 0.  1.
<mgrwt>
<rscale>  2 0.27123969E+03</rscale>
<asrwt>0</asrwt>
<pdfrwt beam="1">  1        2 0.39435244E+00 0.27123969E+03</pdfrwt>
<pdfrwt beam="2">  1       -2 0.18178807E-01 0.27123969E+03</pdfrwt>
<totfact> 0.92225688E+01</totfact>
</mgrwt>
</event>
<event>
 4    1  0.7354369E-001  0.3452651E+03  0.7546771E-02  0.1064575E+00
          1   -1    0    0  502    0  0.00000000000E+00  0.00000000000E+00  0.13210510275E+04  0.13210510275E+04  0.00000000000E+00 0.  1.
         -1   -1    0    0    0  501 -0.00000000000E+00 -0.00000000000E+00 -0.91890903075E+02  0.91890903075E+02  0.00000000000E+00 0. -1.
          6    1    1    2  502    0 -0.19522651329E+03  0.22619815039E+03  0.51980764464E+03  0.62402562620E+03  0.17300000000E+03 0.  1.
         -6    1    1    2    0  501  0.19522651329E+03 -0.22619815039E+03  0.70935247981E+03  0.78891630440E+03  0.17300000000E+03 0. -1.
<mgrwt>
<rscale>  2 0.34526511E+03</rscale>
<asrwt>0</asrwt>
<pdfrwt beam="1">  1        1 0.20323861E+00 0.34526511E+03</pdfrwt>
<pdfrwt beam="2">  1       -1 0.14137063E-01 0.34526511E+03</pdfrwt>
<totfact> 0.33195727E+02</totfact>
</mgrwt>
</event>
<event>
 4    1  0.7354369E-001  0.1794559E+03  0.7546771E-02  0.1168331E+00
          2   -1    0    0  502    0  0.00000000000E+00  0.00000000000E+00  0.24028368724E+04  0.24028368724E+04  0.00000000000E+00 0. -1.
         -2   -1    0    0    0  501 -0.00000000000E+00 -0.00000000000E+00 -0.14814019238E+02  0.14814019238E+02  0.00000000000E+00 0.  1.
          6    1    1    2  502    0  0.80404864754E+01  0.47018960346E+02  0.15671277374E+04  0.15773692584E+04  0.17300000000E+03 0. -1.
         -6    1    1    2    0  501 -0.80404864754E+01 -0.47018960346E+02  0.82089511572E+03  0.84028163318E+03  0.17300000000E+03 0.  1.
<mgrwt>
<rscale>  2 0.17945593E+03</rscale>
<asrwt>0</asrwt>
<pdfrwt beam="1">  1        2 0.36966690E+00 0.17945593E+03</pdfrwt>
<pdfrwt beam="2">  1       -2 0.22790818E-02 0.17945593E+03</pdfrwt>
<totfact> 0.29034903E+03</totfact>
</mgrwt>
</event>
<event>
 4    1  0.7354369E-001  0.1804237E+03  0.7546771E-02  0.1167394E+00
         -2   -1    0    0    0  501 -0.00000000000E+00  0.00000000000E+00  0.79813867194E+02  0.79813867194E+02  0.00000000000E+00 0. -1.
          2   -1    0    0  502    0  0.00000000000E+00 -0.00000000000E+00 -0.44051322545E+03  0.44051322545E+03  0.00000000000E+00 0.  1.
          6    1    1    2  502    0 -0.48092039529E+02  0.17631349601E+02 -0.10951521677E+03  0.21105992386E+03  0.17300000000E+03 0. -1.
         -6    1    1    2    0  501  0.48092039529E+02 -0.17631349601E+02 -0.25118414149E+03  0.30926716879E+03  0.17300000000E+03 0.  1.
<mgrwt>
<rscale>  2 0.18042369E+03</rscale>
<asrwt>0</asrwt>
<pdfrwt beam="1">  1        2 0.67771265E-01 0.18042369E+03</pdfrwt>
<pdfrwt beam="2">  1       -2 0.12279057E-01 0.18042369E+03</pdfrwt>
<totfact> 0.33542795E+03</totfact>
</mgrwt>
</event>
<event>
 4    1  0.7354369E-001  0.1950503E+03  0.7546771E-02  0.1153984E+00
          1   -1    0    0  502    0  0.00000000000E+00  0.00000000000E+00  0.10828267953E+03  0.10828267953E+03  0.00000000000E+00 0.  1.
         -1   -1    0    0    0  501 -0.00000000000E+00 -0.00000000000E+00 -0.35175616557E+03  0.35175616557E+03  0.00000000000E+00 0. -1.
          6    1    1    2  502    0 -0.49618556599E+01 -0.89949900874E+02 -0.12959854398E+03  0.23418024528E+03  0.17300000000E+03 0. -1.
         -6    1    1    2    0  501  0.49618556599E+01  0.89949900874E+02 -0.11387494206E+03  0.22585859981E+03  0.17300000000E+03 0.  1.
<mgrwt>
<rscale>  2 0.19505026E+03</rscale>
<asrwt>0</asrwt>
<pdfrwt beam="1">  1        1 0.16658873E-01 0.19505026E+03</pdfrwt>
<pdfrwt beam="2">  1       -1 0.54116335E-01 0.19505026E+03</pdfrwt>
<totfact> 0.11414923E+03</totfact>
</mgrwt>
</event>
<event>
 4    1  0.7354369E-001  0.3253982E+03  0.7546771E-02  0.1073191E+00
          1   -1    0    0  502    0  0.00000000000E+00  0.00000000000E+00  0.15819247155E+03  0.15819247155E+03  0.00000000000E+00 0. -1.
         -1   -1    0    0    0  501 -0.00000000000E+00 -0.00000000000E+00 -0.77114499524E+03  0.77114499524E+03  0.00000000000E+00 0.  1.
          6    1    1    2  502    0 -0.16716594945E+03 -0.21911303846E+03 -0.47531327725E+03  0.57602663984E+03  0.17300000000E+03 0.  1.
         -6    1    1    2    0  501  0.16716594945E+03  0.21911303846E+03 -0.13763924645E+03  0.35331082695E+03  0.17300000000E+03 0. -1.
<mgrwt>
<rscale>  2 0.32539818E+03</rscale>
<asrwt>0</asrwt>
<pdfrwt beam="1">  1        1 0.24337304E-01 0.32539818E+03</pdfrwt>
<pdfrwt beam="2">  1       -1 0.11863769E+00 0.32539818E+03</pdfrwt>
<totfact> 0.13461268E+02</totfact>
</mgrwt>
</event>
<event>
 4    1  0.7354369E-001  0.3324329E+03  0.7546771E-02  0.1070065E+00
         -2   -1    0    0    0  501 -0.00000000000E+00  0.00000000000E+00  0.23690432123E+03  0.23690432123E+03  0.00000000000E+00 0. -1.
          2   -1    0    0  502    0  0.00000000000E+00 -0.00000000000E+00 -0.69085366211E+03  0.69085366211E+03  0.00000000000E+00 0.  1.
          6    1    1    2  502    0  0.28694418271E+02  0.28241683971E+03 -0.49133453090E+03  0.59322951903E+03  0.17300000000E+03 0.  1.
         -6    1    1    2    0  501 -0.28694418271E+02 -0.28241683971E+03  0.37385190020E+02  0.33452846430E+03  0.17300000000E+03 0. -1.
<mgrwt>
<rscale>  2 0.33243291E+03</rscale>
<asrwt>0</asrwt>
<pdfrwt beam="1">  1        2 0.10628518E+00 0.33243291E+03</pdfrwt>
<pdfrwt beam="2">  1       -2 0.36446819E-01 0.33243291E+03</pdfrwt>
<totfact> 0.30421295E+02</totfact>
</mgrwt>
</event>
<event>
 4    1  0.7354369E-001  0.1829678E+03  0.7546771E-02  0.1164961E+00
         -1   -1    0    0    0  501 -0.00000000000E+00  0.00000000000E+00  0.10278115097E+03  0.10278115097E+03  0.00000000000E+00 0. -1.
          1   -1    0    0  502    0  0.00000000000E+00 -0.00000000000E+00 -0.73041952385E+03  0.73041952385E+03  0.00000000000E+00 0.  1.
          6    1    1    2  502    0 -0.56268488774E+02 -0.19546343615E+02 -0.37180936934E+01  0.18300553707E+03  0.17300000000E+03 0. -1.
         -6    1    1    2    0  501  0.56268488774E+02  0.19546343615E+02 -0.62392027919E+03  0.65019513775E+03  0.17300000000E+03 0.  1.
<mgrwt>
<rscale>  2 0.18296776E+03</rscale>
<asrwt>0</asrwt>
<pdfrwt beam="1">  1        1 0.11237224E+00 0.18296776E+03</pdfrwt>
<pdfrwt beam="2">  1       -1 0.15812485E-01 0.18296776E+03</pdfrwt>
<totfact> 0.78604050E+02</totfact>
</mgrwt>
</event>
<event>
 4    1  0.7354369E-001  0.2148614E+03  0.7546771E-02  0.1137773E+00
         -2   -1    0    0    0  501 -0.00000000000E+00  0.00000000000E+00  0.60221386005E+03  0.60221386005E+03  0.00000000000E+00 0. -1.
          2   -1    0    0  502    0  0.00000000000E+00 -0.00000000000E+00 -0.84017456851E+02  0.84017456851E+02  0.00000000000E+00 0.  1.
          6    1    1    2  502    0  0.22744940478E+02  0.12537576325E+03  0.36063754372E+03  0.41979143902E+03  0.17300000000E+03 0. -1.
         -6    1    1    2    0  501 -0.22744940478E+02 -0.12537576325E+03  0.15755885948E+03  0.26643987789E+03  0.17300000000E+03 0. -1.
<mgrwt>
<rscale>  2 0.21486138E+03</rscale>
<asrwt>0</asrwt>
<pdfrwt beam="1">  1        2 0.12925763E-01 0.21486138E+03</pdfrwt>
<pdfrwt beam="2">  1       -2 0.92648284E-01 0.21486138E+03</pdfrwt>
<totfact> 0.47628519E+02</totfact>
</mgrwt>
</event>
<event>
 4    1  0.7354369E-001  0.1979940E+03  0.7546771E-02  0.1151443E+00
         -2   -1    0    0    0  501 -0.00000000000E+00  0.00000000000E+00  0.54234163678E+02  0.54234163678E+02  0.00000000000E+00 0. -1.
          2   -1    0    0  502    0  0.00000000000E+00 -0.00000000000E+00 -0.97583657998E+03  0.97583657998E+03  0.00000000000E+00 0.  1.
          6    1    1    2  502    0  0.73572975551E+02 -0.62125993622E+02 -0.19854747625E+03  0.28039743605E+03  0.17300000000E+03 0. -1.
         -6    1    1    2    0  501 -0.73572975551E+02  0.62125993622E+02 -0.72305494005E+03  0.74967330761E+03  0.17300000000E+03 0.  1.
<mgrwt>
<rscale>  2 0.19799399E+03</rscale>
<asrwt>0</asrwt>
<pdfrwt beam="1">  1        2 0.15012870E+00 0.19799399E+03</pdfrwt>
<pdfrwt beam="2">  1       -2 0.83437175E-02 0.19799399E+03</pdfrwt>
<totfact> 0.23931591E+03</totfact>
</mgrwt>
</event>
<event>
 4    1  0.7354369E-001  0.1818281E+03  0.7546771E-02  0.1166045E+00
         -1   -1    0    0    0  501 -0.00000000000E+00  0.00000000000E+00  0.98346132082E+03  0.98346132082E+03  0.00000000000E+00 0. -1.
          1   -1    0    0  502    0  0.00000000000E+00 -0.00000000000E+00 -0.33624635809E+02  0.33624635809E+02  0.00000000000E+00 0.  1.
          6    1    1    2  502    0  0.13306090525E+02 -0.54363483399E+02  0.46747284926E+03  0.50158977777E+03  0.17300000000E+03 0.  1.
         -6    1    1    2    0  501 -0.13306090525E+02  0.54363483399E+02  0.48236383575E+03  0.51549617885E+03  0.17300000000E+03 0.  1.
<mgrwt>
<rscale>  2 0.18182805E+03</rscale>
<asrwt>0</asrwt>
<pdfrwt beam="1">  1        1 0.51730216E-02 0.18182805E+03</pdfrwt>
<pdfrwt beam="2">  1       -1 0.15130172E+00 0.18182805E+03</pdfrwt>
<totfact> 0.58449120E+02</totfact>
</mgrwt>
</event>
<event>
 4    1  0.7354369E-001  0.1974049E+03  0.7546771E-02  0.1151947E+00
          2   -1    0    0  502    0  0.00000000000E+00  0.00000000000E+00  0.50916309362E+03  0.50916309362E+03  0.00000000000E+00 0.  1.
         -2   -1    0    0    0  501 -0.00000000000E+00 -0.00000000000E+00 -0.10422275922E+03  0.10422275922E+03  0.00000000000E+00 0. -1.
          6    1    1    2  502    0 -0.86992742287E+02 -0.38365965758E+02  0.44393373335E+02  0.20233500966E+03  0.17300000000E+03 0. -1.
         -6    1    1    2    0  501  0.86992742287E+02  0.38365965758E+02  0.36054696106E+03  0.41105084317E+03  0.17300000000E+03 0.  1.
<mgrwt>
<rscale>  2 0.19740487E+03</rscale>
<asrwt>0</asrwt>
<pdfrwt beam="1">  1        2 0.78332782E-01 0.19740487E+03</pdfrwt>
<pdfrwt beam="2">  1       -2 0.16034271E-01 0.19740487E+03</pdfrwt>
<totfact> 0.18533637E+03</totfact>
</mgrwt>
</event>
<event>
 4    1  0.7354369E-001  0.1941400E+03  0.7546771E-02  0.1154779E+00
          2   -1    0    0  502    0  0.00000000000E+00  0.00000000000E+00  0.18934184222E+03  0.18934184222E+03  0.00000000000E+00 0. -1.
         -2   -1    0    0    0  501 -0.00000000000E+00 -0.00000000000E+00 -0.24682734098E+03  0.24682734098E+03  0.00000000000E+00 0.  1.
          6    1    1    2  502    0 -0.45431649482E+02 -0.75480402985E+02 -0.12468178536E+03  0.23072900470E+03  0.17300000000E+03 0.  1.
         -6    1    1    2    0  501  0.45431649482E+02  0.75480402985E+02  0.67196286592E+02  0.20544017850E+03  0.17300000000E+03 0. -1.
<mgrwt>
<rscale>  2 0.19413996E+03</rscale>
<asrwt>0</asrwt>
<pdfrwt beam="1">  1        2 0.29129514E-01 0.19413996E+03</pdfrwt>
<pdfrwt beam="2">  1       -2 0.37973437E-01 0.19413996E+03</pdfrwt>
<totfact> 0.11841239E+03</totfact>
</mgrwt>
</event>
<event>
 4    1  0.7354369E-001  0.3391416E+03  0.7546771E-02  0.1067162E+00
         -1   -1    0    0    0  501 -0.00000000000E+00  0.00000000000E+00  0.48785557625E+03  0.48785557625E+03  0.00000000000E+00 0. -1.
          1   -1    0    0  502    0  0.00000000000E+00 -0.00000000000E+00 -0.25217263960E+03  0.25217263960E+03  0.00000000000E+00 0.  1.
          6    1    1    2  502    0  0.21577370952E+03 -0.19628989088E+03  0.23445484198E+02  0.33995103429E+03  0.17300000000E+03 0.  1.
         -6    1    1    2    0  501 -0.21577370952E+03  0.19628989088E+03  0.21223745245E+03  0.40007718156E+03  0.17300000000E+03 0. -1.
<mgrwt>
<rscale>  2 0.33914159E+03</rscale>
<asrwt>0</asrwt>
<pdfrwt beam="1">  1        1 0.38795791E-01 0.33914159E+03</pdfrwt>
<pdfrwt beam="2">  1       -1 0.75054704E-01 0.33914159E+03</pdfrwt>
<totfact> 0.20357559E+02</totfact>
</mgrwt>
</event>
<event>
 4    1  0.7354369E-001  0.1836477E+03  0.7546771E-02  0.1164319E+00
         -2   -1    0    0    0  501 -0.00000000000E+00  0.00000000000E+00  0.15342457691E+03  0.15342457691E+03  0.00000000000E+00 0.  1.
          2   -1    0    0  502    0  0.00000000000E+00 -0.00000000000E+00 -0.35694634767E+03  0.35694634767E+03  0.00000000000E+00 0. -1.
          6    1    1    2  502    0  0.41395707711E+02  0.45649618326E+02  0.56403125265E+02  0.19211404116E+03  0.17300000000E+03 0.  1.
         -6    1    1    2    0  501 -0.41395707711E+02 -0.45649618326E+02 -0.25992489602E+03  0.31825688342E+03  0.17300000000E+03 0. -1.
<mgrwt>
<rscale>  2 0.18364774E+03</rscale>
<asrwt>0</asrwt>
<pdfrwt beam="1">  1        2 0.54914823E-01 0.18364774E+03</pdfrwt>
<pdfrwt beam="2">  1       -2 0.23603781E-01 0.18364774E+03</pdfrwt>
<totfact> 0.14127373E+03</totfact>
</mgrwt>
</event>
<event>
 4    1  0.7354369E-001  0.1842045E+03  0.7546771E-02  0.1163795E+00
          1   -1    0    0  502    0  0.00000000000E+00  0.00000000000E+00  0.12248562538E+04  0.12248562538E+04  0.00000000000E+00 0. -1.
         -1   -1    0    0    0  501 -0.00000000000E+00 -0.00000000000E+00 -0.27946689316E+02  0.27946689316E+02  0.00000000000E+00 0.  1.
          6    1    1    2  502    0 -0.60870823064E+02 -0.17235064566E+02  0.53987455250E+03  0.57043477890E+03  0.17300000000E+03 0. -1.
         -6    1    1    2    0  501  0.60870823064E+02  0.17235064566E+02  0.65703501200E+03  0.68236816423E+03  0.17300000000E+03 0.  1.
<mgrwt>
<rscale>  2 0.18420452E+03</rscale>
<asrwt>0</asrwt>
<pdfrwt beam="1">  1        1 0.18843938E+00 0.18420452E+03</pdfrwt>
<pdfrwt beam="2">  1       -1 0.42994916E-02 0.18420452E+03</pdfrwt>
<totfact> 0.24195602E+03</totfact>
</mgrwt>
</event>
<event>
 4    1  0.7354369E-001  0.2909079E+03  0.7546771E-02  0.1089876E+00
         -1   -1    0    0    0  501 -0.00000000000E+00  0.00000000000E+00  0.56901579382E+03  0.56901579382E+03  0.00000000000E+00 0. -1.
          1   -1    0    0  502    0  0.00000000000E+00 -0.00000000000E+00 -0.15235983655E+03  0.15235983655E+03  0.00000000000E+00 0.  1.
          6    1    1    2  502    0  0.22401678906E+03  0.67192855740E+02  0.26403157750E+03  0.39286139484E+03  0.17300000000E+03 0. -1.
         -6    1    1    2    0  501 -0.22401678906E+03 -0.67192855740E+02  0.15262437977E+03  0.32851423552E+03  0.17300000000E+03 0.  1.
<mgrwt>
<rscale>  2 0.29090789E+03</rscale>
<asrwt>0</asrwt>
<pdfrwt beam="1">  1        1 0.23439975E-01 0.29090789E+03</pdfrwt>
<pdfrwt beam="2">  1       -1 0.87540891E-01 0.29090789E+03</pdfrwt>
<totfact> 0.28130916E+02</totfact>
</mgrwt>
</event>
<event>
 4    1  0.7354369E-001  0.3035195E+03  0.7546771E-02  0.1083494E+00
          1   -1    0    0  502    0  0.00000000000E+00  0.00000000000E+00  0.21850817769E+04  0.21850817769E+04  0.00000000000E+00 0. -1.
         -1   -1    0    0    0  501 -0.00000000000E+00 -0.00000000000E+00 -0.56373586801E+02  0.56373586801E+02  0.00000000000E+00 0.  1.
          6    1    1    2  502    0 -0.91775598807E+02  0.23188857768E+03  0.50161519215E+03  0.58629504005E+03  0.17300000000E+03 0.  1.
         -6    1    1    2    0  501  0.91775598807E+02 -0.23188857768E+03  0.16270929979E+04  0.16551603236E+04  0.17300000000E+03 0. -1.
<mgrwt>
<rscale>  2 0.30351948E+03</rscale>
<asrwt>0</asrwt>
<pdfrwt beam="1">  1        1 0.33616636E+00 0.30351948E+03</pdfrwt>
<pdfrwt beam="2">  1       -1 0.86728612E-02 0.30351948E+03</pdfrwt>
<totfact> 0.19320513E+02</totfact>
</mgrwt>
</event>
<event>
 4    1  0.7354369E-001  0.2814412E+03  0.7546771E-02  0.1094904E+00
          2   -1    0    0  502    0  0.00000000000E+00  0.00000000000E+00  0.16856255072E+04  0.16856255072E+04  0.00000000000E+00 0. -1.
         -2   -1    0    0    0  501 -0.00000000000E+00 -0.00000000000E+00 -0.47828411972E+02  0.47828411972E+02  0.00000000000E+00 0.  1.
          6    1    1    2  502    0 -0.11790668521E+03 -0.18809081744E+03  0.93358765322E+03  0.97508720034E+03  0.17300000000E+03 0. -1.
         -6    1    1    2    0  501  0.11790668521E+03  0.18809081744E+03  0.70420944202E+03  0.75836671885E+03  0.17300000000E+03 0.  1.
<mgrwt>
<rscale>  2 0.28144119E+03</rscale>
<asrwt>0</asrwt>
<pdfrwt beam="1">  1        2 0.25932696E+00 0.28144119E+03</pdfrwt>
<pdfrwt beam="2">  1       -2 0.73582185E-02 0.28144119E+03</pdfrwt>
<totfact> 0.11717899E+03</totfact>
</mgrwt>
</event>
<event>
 4    1  0.7354369E-001  0.1745888E+03  0.7546771E-02  0.1173145E+00
          2   -1    0    0  502    0  0.00000000000E+00  0.00000000000E+00  0.15193635277E+04  0.15193635277E+04  0.00000000000E+00 0.  1.
         -2   -1    0    0    0  501 -0.00000000000E+00 -0.00000000000E+00 -0.81455558848E+02  0.81455558848E+02  0.00000000000E+00 0. -1.
          6    1    1    2  502    0  0.22187181470E+02  0.77436298482E+01  0.14138404436E+04  0.14245792483E+04  0.17300000000E+03 0.  1.
         -6    1    1    2    0  501 -0.22187181470E+02 -0.77436298482E+01  0.24067525326E+02  0.17623983829E+03  0.17300000000E+03 0. -1.
<mgrwt>
<rscale>  2 0.17458876E+03</rscale>
<asrwt>0</asrwt>
<pdfrwt beam="1">  1        2 0.23374822E+00 0.17458876E+03</pdfrwt>
<pdfrwt beam="2">  1       -2 0.12531625E-01 0.17458876E+03</pdfrwt>
<totfact> 0.62415167E+02</totfact>
</mgrwt>
</event>
<event>
 4    1  0.7354369E-001  0.1797249E+03  0.7546771E-02  0.1168070E+00
          2   -1    0    0  502    0  0.00000000000E+00  0.00000000000E+00  0.13463988458E+04  0.13463988458E+04  0.00000000000E+00 0. -1.
         -2   -1    0    0    0  501 -0.00000000000E+00 -0.00000000000E+00 -0.26891600304E+02  0.26891600304E+02  0.00000000000E+00 0.  1.
          6    1    1    2  502    0  0.46599007105E+02 -0.14161960432E+02  0.88527707736E+03  0.90333633398E+03  0.17300000000E+03 0.  1.
         -6    1    1    2    0  501 -0.46599007105E+02  0.14161960432E+02  0.43423016816E+03  0.46995411215E+03  0.17300000000E+03 0.  1.
<mgrwt>
<rscale>  2 0.17972487E+03</rscale>
<asrwt>0</asrwt>
<pdfrwt beam="1">  1        2 0.20713823E+00 0.17972487E+03</pdfrwt>
<pdfrwt beam="2">  1       -2 0.41371703E-02 0.17972487E+03</pdfrwt>
<totfact> 0.42861763E+03</totfact>
</mgrwt>
</event>
<event>
 4    1  0.7354369E-001  0.2305076E+03  0.7546771E-02  0.1126283E+00
          1   -1    0    0  502    0  0.00000000000E+00  0.00000000000E+00  0.91911179965E+02  0.91911179965E+02  0.00000000000E+00 0. -1.
         -1   -1    0    0    0  501 -0.00000000000E+00 -0.00000000000E+00 -0.61723215632E+03  0.61723215632E+03  0.00000000000E+00 0.  1.
          6    1    1    2  502    0  0.15232687235E+03 -0.11225502164E+01 -0.35194039143E+03  0.42070865843E+03  0.17300000000E+03 0.  1.
         -6    1    1    2    0  501 -0.15232687235E+03  0.11225502164E+01 -0.17338058492E+03  0.28843467785E+03  0.17300000000E+03 0. -1.
<mgrwt>
<rscale>  2 0.23050756E+03</rscale>
<asrwt>0</asrwt>
<pdfrwt beam="1">  1        1 0.14140182E-01 0.23050756E+03</pdfrwt>
<pdfrwt beam="2">  1       -1 0.94958793E-01 0.23050756E+03</pdfrwt>
<totfact> 0.45658415E+02</totfact>
</mgrwt>
</event>
<event>
 4    1  0.7354369E-001  0.1772340E+03  0.7546771E-02  0.1170507E+00
         -2   -1    0    0    0  501 -0.00000000000E+00  0.00000000000E+00  0.18537123098E+02  0.18537123098E+02  0.00000000000E+00 0.  1.
          2   -1    0    0  502    0  0.00000000000E+00 -0.00000000000E+00 -0.17545630359E+04  0.17545630359E+04  0.00000000000E+00 0. -1.
          6    1    1    2  502    0  0.29720139132E+02  0.24486613314E+02 -0.70403675442E+03  0.72600250170E+03  0.17300000000E+03 0. -1.
         -6    1    1    2    0  501 -0.29720139132E+02 -0.24486613314E+02 -0.10319891584E+04  0.10470976573E+04  0.17300000000E+03 0. -1.
<mgrwt>
<rscale>  2 0.17723397E+03</rscale>
<asrwt>0</asrwt>
<pdfrwt beam="1">  1        2 0.26993280E+00 0.17723397E+03</pdfrwt>
<pdfrwt beam="2">  1       -2 0.28518648E-02 0.17723397E+03</pdfrwt>
<totfact> 0.45467463E+03</totfact>
</mgrwt>
</event>
<event>
 4    1  0.7354369E-001  0.2216756E+03  0.7546771E-02  0.1132640E+00
         -2   -1    0    0    0  501 -0.00000000000E+00  0.00000000000E+00  0.71465681273E+02  0.71465681273E+02  0.00000000000E+00 0. -1.
          2   -1    0    0  502    0  0.00000000000E+00 -0.00000000000E+00 -0.81806532597E+03  0.81806532597E+03  0.00000000000E+00 0.  1.
          6    1    1    2  502    0  0.13693236763E+03  0.21461491690E+02 -0.19568530977E+03  0.29569039448E+03  0.17300000000E+03 0.  1.
         -6    1    1    2    0  501 -0.13693236763E+03 -0.21461491690E+02 -0.55091433493E+03  0.59384061276E+03  0.17300000000E+03 0. -1.
<mgrwt>
<rscale>  2 0.22167559E+03</rscale>
<asrwt>0</asrwt>
<pdfrwt beam="1">  1        2 0.12585620E+00 0.22167559E+03</pdfrwt>
<pdfrwt beam="2">  1       -2 0.10994721E-01 0.22167559E+03</pdfrwt>
<totfact> 0.19576166E+03</totfact>
</mgrwt>
</event>
<event>
 4    1  0.7354369E-001  0.1972821E+03  0.7546771E-02  0.1152053E+00
         -1   -1    0    0    0  501 -0.00000000000E+00  0.00000000000E+00  0.17179056138E+03  0.17179056138E+03  0.00000000000E+00 0.  1.
          1   -1    0    0  502    0  0.00000000000E+00 -0.00000000000E+00 -0.28611397848E+03  0.28611397848E+03  0.00000000000E+00 0. -1.
          6    1    1    2  502    0 -0.63987232107E+02 -0.69977448962E+02 -0.16162045762E+03  0.25503211868E+03  0.17300000000E+03 0. -1.
         -6    1    1    2    0  501  0.63987232107E+02  0.69977448962E+02  0.47297040516E+02  0.20287242119E+03  0.17300000000E+03 0.  1.
<mgrwt>
<rscale>  2 0.19728206E+03</rscale>
<asrwt>0</asrwt>
<pdfrwt beam="1">  1        1 0.44017534E-01 0.19728206E+03</pdfrwt>
<pdfrwt beam="2">  1       -1 0.26429318E-01 0.19728206E+03</pdfrwt>
<totfact> 0.11754160E+03</totfact>
</mgrwt>
</event>
<event>
 4    1  0.7354369E-001  0.2743138E+03  0.7546771E-02  0.1098836E+00
          1   -1    0    0  502    0  0.00000000000E+00  0.00000000000E+00  0.10986074130E+03  0.10986074130E+03  0.00000000000E+00 0.  1.
         -1   -1    0    0    0  501 -0.00000000000E+00 -0.00000000000E+00 -0.69119020232E+03  0.69119020232E+03  0.00000000000E+00 0. -1.
          6    1    1    2  502    0  0.10647897435E+03  0.18434009174E+03 -0.25257828836E+03  0.37288581785E+03  0.17300000000E+03 0. -1.
         -6    1    1    2    0  501 -0.10647897435E+03 -0.18434009174E+03 -0.32875117265E+03  0.42816512577E+03  0.17300000000E+03 0.  1.
<mgrwt>
<rscale>  2 0.27431376E+03</rscale>
<asrwt>0</asrwt>
<pdfrwt beam="1">  1        1 0.16901652E-01 0.27431376E+03</pdfrwt>
<pdfrwt beam="2">  1       -1 0.10633695E+00 0.27431376E+03</pdfrwt>
<totfact> 0.28003813E+02</totfact>
</mgrwt>
</event>
<event>
 4    1  0.7354369E-001  0.2643108E+03  0.7546771E-02  0.1104581E+00
         -2   -1    0    0    0  501 -0.00000000000E+00  0.00000000000E+00  0.23676725439E+02  0.23676725439E+02  0.00000000000E+00 0.  1.
          2   -1    0    0  502    0  0.00000000000E+00 -0.00000000000E+00 -0.33089672109E+04  0.33089672109E+04  0.00000000000E+00 0. -1.
          6    1    1    2  502    0  0.65781942735E+02 -0.18869001298E+03 -0.10942596174E+04  0.11257283399E+04  0.17300000000E+03 0.  1.
         -6    1    1    2    0  501 -0.65781942735E+02  0.18869001298E+03 -0.21910308681E+04  0.22069155965E+04  0.17300000000E+03 0. -1.
<mgrwt>
<rscale>  2 0.26431077E+03</rscale>
<asrwt>0</asrwt>
<pdfrwt beam="1">  1        2 0.50907172E+00 0.26431077E+03</pdfrwt>
<pdfrwt beam="2">  1       -2 0.36425743E-02 0.26431077E+03</pdfrwt>
<totfact> 0.42754565E+02</totfact>
</mgrwt>
</event>
<event>
 4    1  0.7354369E-001  0.1795557E+03  0.7546771E-02  0.1168234E+00
          3   -1    0    0  502    0  0.00000000000E+00  0.00000000000E+00  0.55658190390E+03  0.55658190390E+03  0.00000000000E+00 0.  1.
         -3   -1    0    0    0  501 -0.00000000000E+00 -0.00000000000E+00 -0.58188591821E+02  0.58188591821E+02  0.00000000000E+00 0. -1.
          6    1    1    2  502    0 -0.46947046610E+01 -0.47845700475E+02  0.22852535361E+03  0.29062706094E+03  0.17300000000E+03 0. -1.
         -6    1    1    2    0  501  0.46947046610E+01  0.47845700475E+02  0.26986795846E+03  0.32414343478E+03  0.17300000000E+03 0. -1.
<mgrwt>
<rscale>  2 0.17955571E+03</rscale>
<asrwt>0</asrwt>
<pdfrwt beam="1">  1        3 0.85627981E-01 0.17955571E+03</pdfrwt>
<pdfrwt beam="2">  1       -3 0.89520914E-02 0.17955571E+03</pdfrwt>
<totfact> 0.27496527E+02</totfact>
</mgrwt>
</event>
<event>
 4    1  0.7354369E-001  0.3247459E+03  0.7546771E-02  0.1073486E+00
          1   -1    0    0  502    0  0.00000000000E+00  0.00000000000E+00  0.16939064367E+04  0.16939064367E+04  0.00000000000E+00 0. -1.
         -1   -1    0    0    0  501 -0.00000000000E+00 -0.00000000000E+00 -0.99751532653E+02  0.99751532653E+02  0.00000000000E+00 0.  1.
          6    1    1    2  502    0  0.22777337244E+03 -0.15378623853E+03  0.24725094803E+03  0.40815799350E+03  0.17300000000E+03 0.  1.
         -6    1    1    2    0  501 -0.22777337244E+03  0.15378623853E+03  0.13469039560E+04  0.13854999758E+04  0.17300000000E+03 0. -1.
<mgrwt>
<rscale>  2 0.32474593E+03</rscale>
<asrwt>0</asrwt>
<pdfrwt beam="1">  1        1 0.26060097E+00 0.32474593E+03</pdfrwt>
<pdfrwt beam="2">  1       -1 0.15346391E-01 0.32474593E+03</pdfrwt>
<totfact> 0.16438430E+02</totfact>
</mgrwt>
</event>
<event>
 4    1  0.7354369E-001  0.2251523E+03  0.7546771E-02  0.1130099E+00
          1   -1    0    0  502    0  0.00000000000E+00  0.00000000000E+00  0.48551365792E+03  0.48551365792E+03  0.00000000000E+00 0. -1.
         -1   -1    0    0    0  501 -0.00000000000E+00 -0.00000000000E+00 -0.10888549207E+03  0.10888549207E+03  0.00000000000E+00 0.  1.
          6    1    1    2  502    0 -0.89254203802E+02  0.11312930714E+03  0.12807526862E+03  0.25903055315E+03  0.17300000000E+03 0.  1.
         -6    1    1    2    0  501  0.89254203802E+02 -0.11312930714E+03  0.24855289722E+03  0.33536859684E+03  0.17300000000E+03 0. -1.
<mgrwt>
<rscale>  2 0.22515229E+03</rscale>
<asrwt>0</asrwt>
<pdfrwt beam="1">  1        1 0.74694407E-01 0.22515229E+03</pdfrwt>
<pdfrwt beam="2">  1       -1 0.16751615E-01 0.22515229E+03</pdfrwt>
<totfact> 0.12623670E+03</totfact>
</mgrwt>
</event>
<event>
 4    1  0.7354369E-001  0.1890759E+03  0.7546771E-02  0.1159297E+00
          2   -1    0    0  502    0  0.00000000000E+00  0.00000000000E+00  0.16372743796E+04  0.16372743796E+04  0.00000000000E+00 0. -1.
         -2   -1    0    0    0  501 -0.00000000000E+00 -0.00000000000E+00 -0.21841607372E+02  0.21841607372E+02  0.00000000000E+00 0.  1.
          6    1    1    2  502    0  0.70286665299E+02  0.29673028667E+02  0.82226575662E+03  0.84372429055E+03  0.17300000000E+03 0.  1.
         -6    1    1    2    0  501 -0.70286665299E+02 -0.29673028667E+02  0.79316701559E+03  0.81539169641E+03  0.17300000000E+03 0.  1.
<mgrwt>
<rscale>  2 0.18907592E+03</rscale>
<asrwt>0</asrwt>
<pdfrwt beam="1">  1        2 0.25188827E+00 0.18907592E+03</pdfrwt>
<pdfrwt beam="2">  1       -2 0.33602486E-02 0.18907592E+03</pdfrwt>
<totfact> 0.41050628E+03</totfact>
</mgrwt>
</event>
<event>
 4    1  0.7354369E-001  0.2081548E+03  0.7546771E-02  0.1143036E+00
          2   -1    0    0  502    0  0.00000000000E+00  0.00000000000E+00  0.24812812112E+03  0.24812812112E+03  0.00000000000E+00 0.  1.
         -2   -1    0    0    0  501 -0.00000000000E+00 -0.00000000000E+00 -0.18359861496E+03  0.18359861496E+03  0.00000000000E+00 0. -1.
          6    1    1    2  502    0  0.81762666548E+02 -0.81940653517E+02  0.79998159221E+02  0.22299800407E+03  0.17300000000E+03 0.  1.
         -6    1    1    2    0  501 -0.81762666548E+02  0.81940653517E+02 -0.15468653067E+02  0.20872873201E+03  0.17300000000E+03 0. -1.
<mgrwt>
<rscale>  2 0.20815476E+03</rscale>
<asrwt>0</asrwt>
<pdfrwt beam="1">  1        2 0.38173557E-01 0.20815476E+03</pdfrwt>
<pdfrwt beam="2">  1       -2 0.28245941E-01 0.20815476E+03</pdfrwt>
<totfact> 0.15238018E+03</totfact>
</mgrwt>
</event>
<event>
 4    1  0.7354369E-001  0.1768537E+03  0.7546771E-02  0.1170883E+00
         -2   -1    0    0    0  501 -0.00000000000E+00  0.00000000000E+00  0.30004558541E+03  0.30004558541E+03  0.00000000000E+00 0. -1.
          2   -1    0    0  502    0  0.00000000000E+00 -0.00000000000E+00 -0.10803000226E+03  0.10803000226E+03  0.00000000000E+00 0.  1.
          6    1    1    2  502    0  0.35333334060E+00 -0.36716758517E+02  0.13421663821E+03  0.22201655608E+03  0.17300000000E+03 0. -1.
         -6    1    1    2    0  501 -0.35333334060E+00  0.36716758517E+02  0.57798944942E+02  0.18605903159E+03  0.17300000000E+03 0.  1.
<mgrwt>
<rscale>  2 0.17685374E+03</rscale>
<asrwt>0</asrwt>
<pdfrwt beam="1">  1        2 0.16620000E-01 0.17685374E+03</pdfrwt>
<pdfrwt beam="2">  1       -2 0.46160859E-01 0.17685374E+03</pdfrwt>
<totfact> 0.15293917E+03</totfact>
</mgrwt>
</event>
<event>
 4    1  0.7354369E-001  0.2435413E+03  0.7546771E-02  0.1117456E+00
         -2   -1    0    0    0  501 -0.00000000000E+00  0.00000000000E+00  0.16408710381E+03  0.16408710381E+03  0.00000000000E+00 0. -1.
          2   -1    0    0  502    0  0.00000000000E+00 -0.00000000000E+00 -0.42403847971E+03  0.42403847971E+03  0.00000000000E+00 0.  1.
          6    1    1    2  502    0 -0.24808402472E+02 -0.16961099096E+03 -0.17016931410E+02  0.24413504673E+03  0.17300000000E+03 0.  1.
         -6    1    1    2    0  501  0.24808402472E+02  0.16961099096E+03 -0.24293444449E+03  0.34399053680E+03  0.17300000000E+03 0. -1.
<mgrwt>
<rscale>  2 0.24354126E+03</rscale>
<asrwt>0</asrwt>
<pdfrwt beam="1">  1        2 0.65236688E-01 0.24354126E+03</pdfrwt>
<pdfrwt beam="2">  1       -2 0.25244170E-01 0.24354126E+03</pdfrwt>
<totfact> 0.10461816E+03</totfact>
</mgrwt>
</event>
<event>
 4    1  0.7354369E-001  0.1843685E+03  0.7546771E-02  0.1163641E+00
          2   -1    0    0  502    0  0.00000000000E+00  0.00000000000E+00  0.43401086062E+02  0.43401086062E+02  0.00000000000E+00 0. -1.
         -2   -1    0    0    0  501 -0.00000000000E+00 -0.00000000000E+00 -0.79798816288E+03  0.79798816288E+03  0.00000000000E+00 0.  1.
          6    1    1    2  502    0  0.15083558495E+02  0.61929382201E+02 -0.43456195675E+03  0.47205492940E+03  0.17300000000E+03 0.  1.
         -6    1    1    2    0  501 -0.15083558495E+02 -0.61929382201E+02 -0.32002512006E+03  0.36933431953E+03  0.17300000000E+03 0. -1.
<mgrwt>
<rscale>  2 0.18436855E+03</rscale>
<asrwt>0</asrwt>
<pdfrwt beam="1">  1        2 0.66770908E-02 0.18436855E+03</pdfrwt>
<pdfrwt beam="2">  1       -2 0.12276740E+00 0.18436855E+03</pdfrwt>
<totfact> 0.55846398E+02</totfact>
</mgrwt>
</event>
<event>
 4    1  0.7354369E-001  0.2962018E+03  0.7546771E-02  0.1087155E+00
         -2   -1    0    0    0  501 -0.00000000000E+00  0.00000000000E+00  0.71988988204E+03  0.71988988204E+03  0.00000000000E+00 0.  1.
          2   -1    0    0  502    0  0.00000000000E+00 -0.00000000000E+00 -0.18950615761E+03  0.18950615761E+03  0.00000000000E+00 0. -1.
          6    1    1    2  502    0  0.23977763694E+03  0.17697908078E+02 -0.64454881837E+01  0.29627196196E+03  0.17300000000E+03 0. -1.
         -6    1    1    2    0  501 -0.23977763694E+03 -0.17697908078E+02  0.53682921261E+03  0.61312407769E+03  0.17300000000E+03 0.  1.
<mgrwt>
<rscale>  2 0.29620184E+03</rscale>
<asrwt>0</asrwt>
<pdfrwt beam="1">  1        2 0.29154794E-01 0.29620184E+03</pdfrwt>
<pdfrwt beam="2">  1       -2 0.11075229E+00 0.29620184E+03</pdfrwt>
<totfact> 0.12251178E+02</totfact>
</mgrwt>
</event>
<event>
 4    1  0.7354369E-001  0.1958278E+03  0.7546771E-02  0.1153308E+00
          1   -1    0    0  502    0  0.00000000000E+00  0.00000000000E+00  0.40936551189E+03  0.40936551189E+03  0.00000000000E+00 0. -1.
         -1   -1    0    0    0  501 -0.00000000000E+00 -0.00000000000E+00 -0.93724445175E+02  0.93724445175E+02  0.00000000000E+00 0.  1.
          6    1    1    2  502    0  0.33308704621E+02  0.85498977864E+02  0.16341978338E+03  0.25505797501E+03  0.17300000000E+03 0. -1.
         -6    1    1    2    0  501 -0.33308704621E+02 -0.85498977864E+02  0.15222128334E+03  0.24803198205E+03  0.17300000000E+03 0. -1.
<mgrwt>
<rscale>  2 0.19582785E+03</rscale>
<asrwt>0</asrwt>
<pdfrwt beam="1">  1        1 0.62979308E-01 0.19582785E+03</pdfrwt>
<pdfrwt beam="2">  1       -1 0.14419146E-01 0.19582785E+03</pdfrwt>
<totfact> 0.19940879E+03</totfact>
</mgrwt>
</event>
<event>
 4    1  0.7354369E-001  0.1910170E+03  0.7546771E-02  0.1157547E+00
         -1   -1    0    0    0  501 -0.00000000000E+00  0.00000000000E+00  0.60502000930E+03  0.60502000930E+03  0.00000000000E+00 0.  1.
          1   -1    0    0  502    0  0.00000000000E+00 -0.00000000000E+00 -0.62897618551E+02  0.62897618551E+02  0.00000000000E+00 0. -1.
          6    1    1    2  502    0  0.39292881360E+02 -0.70813488525E+02  0.20329659836E+03  0.27895696369E+03  0.17300000000E+03 0. -1.
         -6    1    1    2    0  501 -0.39292881360E+02  0.70813488525E+02  0.33882579239E+03  0.38896066417E+03  0.17300000000E+03 0.  1.
<mgrwt>
<rscale>  2 0.19101696E+03</rscale>
<asrwt>0</asrwt>
<pdfrwt beam="1">  1        1 0.96765571E-02 0.19101696E+03</pdfrwt>
<pdfrwt beam="2">  1       -1 0.93079998E-01 0.19101696E+03</pdfrwt>
<totfact> 0.78877008E+02</totfact>
</mgrwt>
</event>
<event>
 4    1  0.7354369E-001  0.1990622E+03  0.7546771E-02  0.1150533E+00
         -1   -1    0    0    0  501 -0.00000000000E+00  0.00000000000E+00  0.28010797998E+02  0.28010797998E+02  0.00000000000E+00 0.  1.
          1   -1    0    0  502    0  0.00000000000E+00 -0.00000000000E+00 -0.16978670292E+04  0.16978670292E+04  0.00000000000E+00 0. -1.
          6    1    1    2  502    0 -0.91827254717E+02 -0.35559740507E+02 -0.48249179504E+03  0.52194259467E+03  0.17300000000E+03 0.  1.
         -6    1    1    2    0  501  0.91827254717E+02  0.35559740507E+02 -0.11873644362E+04  0.12039352326E+04  0.17300000000E+03 0. -1.
<mgrwt>
<rscale>  2 0.19906215E+03</rscale>
<asrwt>0</asrwt>
<pdfrwt beam="1">  1        1 0.26121033E+00 0.19906215E+03</pdfrwt>
<pdfrwt beam="2">  1       -1 0.43093533E-02 0.19906215E+03</pdfrwt>
<totfact> 0.11724802E+03</totfact>
</mgrwt>
</event>
<event>
 4    1  0.7354369E-001  0.2131137E+03  0.7546771E-02  0.1139124E+00
         -2   -1    0    0    0  501 -0.00000000000E+00  0.00000000000E+00  0.29418871804E+02  0.29418871804E+02  0.00000000000E+00 0.  1.
          2   -1    0    0  502    0  0.00000000000E+00 -0.00000000000E+00 -0.20219298166E+04  0.20219298166E+04  0.00000000000E+00 0. -1.
          6    1    1    2  502    0 -0.12444112232E+03 -0.16840834781E+01 -0.49749676070E+03  0.54122126341E+03  0.17300000000E+03 0.  1.
         -6    1    1    2    0  501  0.12444112232E+03  0.16840834781E+01 -0.14950141841E+04  0.15101274250E+04  0.17300000000E+03 0. -1.
<mgrwt>
<rscale>  2 0.21311365E+03</rscale>
<asrwt>0</asrwt>
<pdfrwt beam="1">  1        2 0.31106619E+00 0.21311365E+03</pdfrwt>
<pdfrwt beam="2">  1       -2 0.45259793E-02 0.21311365E+03</pdfrwt>
<totfact> 0.16565102E+03</totfact>
</mgrwt>
</event>
<event>
 4    1  0.7354369E-001  0.2046752E+03  0.7546771E-02  0.1145853E+00
          2   -1    0    0  502    0  0.00000000000E+00  0.00000000000E+00  0.28182524794E+03  0.28182524794E+03  0.00000000000E+00 0.  1.
         -2   -1    0    0    0  501 -0.00000000000E+00 -0.00000000000E+00 -0.16252397341E+03  0.16252397341E+03  0.00000000000E+00 0. -1.
          6    1    1    2  502    0  0.37324142794E+02 -0.10280979004E+03 -0.52744715368E+01  0.20474316744E+03  0.17300000000E+03 0. -1.
         -6    1    1    2    0  501 -0.37324142794E+02  0.10280979004E+03  0.12457574607E+03  0.23960605391E+03  0.17300000000E+03 0.  1.
<mgrwt>
<rscale>  2 0.20467522E+03</rscale>
<asrwt>0</asrwt>
<pdfrwt beam="1">  1        2 0.43357730E-01 0.20467522E+03</pdfrwt>
<pdfrwt beam="2">  1       -2 0.25003688E-01 0.20467522E+03</pdfrwt>
<totfact> 0.16497144E+03</totfact>
</mgrwt>
</event>
<event>
 4    1  0.7354369E-001  0.1814394E+03  0.7546771E-02  0.1166417E+00
          1   -1    0    0  502    0  0.00000000000E+00  0.00000000000E+00  0.17485227542E+04  0.17485227542E+04  0.00000000000E+00 0.  1.
         -1   -1    0    0    0  501 -0.00000000000E+00 -0.00000000000E+00 -0.31044671428E+02  0.31044671428E+02  0.00000000000E+00 0. -1.
          6    1    1    2  502    0 -0.33146370092E+02  0.43503667130E+02  0.14169223872E+04  0.14284919679E+04  0.17300000000E+03 0.  1.
         -6    1    1    2    0  501  0.33146370092E+02 -0.43503667130E+02  0.30055569558E+03  0.35107545777E+03  0.17300000000E+03 0. -1.
<mgrwt>
<rscale>  2 0.18143939E+03</rscale>
<asrwt>0</asrwt>
<pdfrwt beam="1">  1        1 0.26900342E+00 0.18143939E+03</pdfrwt>
<pdfrwt beam="2">  1       -1 0.47761047E-02 0.18143939E+03</pdfrwt>
<totfact> 0.93481679E+02</totfact>
</mgrwt>
</event>
<event>
 4    1  0.7354369E-001  0.2080184E+03  0.7546771E-02  0.1143145E+00
          2   -1    0    0  502    0  0.00000000000E+00  0.00000000000E+00  0.13466495584E+04  0.13466495584E+04  0.00000000000E+00 0.  1.
         -2   -1    0    0    0  501 -0.00000000000E+00 -0.00000000000E+00 -0.37226726397E+02  0.37226726397E+02  0.00000000000E+00 0. -1.
          6    1    1    2  502    0 -0.69722630892E+02  0.92094644514E+02  0.91066703309E+03  0.93412317922E+03  0.17300000000E+03 0.  1.
         -6    1    1    2    0  501  0.69722630892E+02 -0.92094644514E+02  0.39875579893E+03  0.44975310559E+03  0.17300000000E+03 0. -1.
<mgrwt>
<rscale>  2 0.20801843E+03</rscale>
<asrwt>0</asrwt>
<pdfrwt beam="1">  1        2 0.20717682E+00 0.20801843E+03</pdfrwt>
<pdfrwt beam="2">  1       -2 0.57271897E-02 0.20801843E+03</pdfrwt>
<totfact> 0.26248016E+03</totfact>
</mgrwt>
</event>
<event>
 4    1  0.7354369E-001  0.1853743E+03  0.7546771E-02  0.1162701E+00
          2   -1    0    0  502    0  0.00000000000E+00  0.00000000000E+00  0.16421412933E+04  0.16421412933E+04  0.00000000000E+00 0. -1.
         -2   -1    0    0    0  501 -0.00000000000E+00 -0.00000000000E+00 -0.21001289448E+02  0.21001289448E+02  0.00000000000E+00 0.  1.
          6    1    1    2  502    0 -0.42877370204E+02 -0.50952407493E+02  0.86032632656E+03  0.88007102263E+03  0.17300000000E+03 0. -1.
         -6    1    1    2    0  501  0.42877370204E+02  0.50952407493E+02  0.76081367727E+03  0.78307156009E+03  0.17300000000E+03 0.  1.
<mgrwt>
<rscale>  2 0.18537426E+03</rscale>
<asrwt>0</asrwt>
<pdfrwt beam="1">  1        2 0.25263702E+00 0.18537426E+03</pdfrwt>
<pdfrwt beam="2">  1       -2 0.32309689E-02 0.18537426E+03</pdfrwt>
<totfact> 0.43252073E+03</totfact>
</mgrwt>
</event>
<event>
 4    1  0.7354369E-001  0.1832058E+03  0.7546771E-02  0.1164736E+00
         -1   -1    0    0    0  501 -0.00000000000E+00  0.00000000000E+00  0.10404887181E+03  0.10404887181E+03  0.00000000000E+00 0.  1.
          1   -1    0    0  502    0  0.00000000000E+00 -0.00000000000E+00 -0.32260445613E+03  0.32260445613E+03  0.00000000000E+00 0. -1.
          6    1    1    2  502    0  0.68917009913E+01  0.59898837078E+02 -0.10752601438E+03  0.21242930588E+03  0.17300000000E+03 0.  1.
         -6    1    1    2    0  501 -0.68917009913E+01 -0.59898837078E+02 -0.11102956994E+03  0.21422402206E+03  0.17300000000E+03 0. -1.
<mgrwt>
<rscale>  2 0.18320580E+03</rscale>
<asrwt>0</asrwt>
<pdfrwt beam="1">  1        1 0.49631454E-01 0.18320580E+03</pdfrwt>
<pdfrwt beam="2">  1       -1 0.16007519E-01 0.18320580E+03</pdfrwt>
<totfact> 0.22801809E+03</totfact>
</mgrwt>
</event>
<event>
 4    1  0.7354369E-001  0.1763963E+03  0.7546771E-02  0.1171337E+00
         -2   -1    0    0    0  501 -0.00000000000E+00  0.00000000000E+00  0.25611392212E+03  0.25611392212E+03  0.00000000000E+00 0. -1.
          2   -1    0    0  502    0  0.00000000000E+00 -0.00000000000E+00 -0.12410046735E+03  0.12410046735E+03  0.00000000000E+00 0.  1.
          6    1    1    2  502    0 -0.82319004111E+01  0.33449952931E+02  0.38442456924E+02  0.18053666118E+03  0.17300000000E+03 0.  1.
         -6    1    1    2    0  501  0.82319004111E+01 -0.33449952931E+02  0.93570997848E+02  0.19967772829E+03  0.17300000000E+03 0. -1.
<mgrwt>
<rscale>  2 0.17639633E+03</rscale>
<asrwt>0</asrwt>
<pdfrwt beam="1">  1        2 0.19092380E-01 0.17639633E+03</pdfrwt>
<pdfrwt beam="2">  1       -2 0.39402142E-01 0.17639633E+03</pdfrwt>
<totfact> 0.17672590E+03</totfact>
</mgrwt>
</event>
<event>
 4    1  0.7354369E-001  0.1834515E+03  0.7546771E-02  0.1164504E+00
          2   -1    0    0  502    0  0.00000000000E+00  0.00000000000E+00  0.65974505468E+03  0.65974505468E+03  0.00000000000E+00 0. -1.
         -2   -1    0    0    0  501 -0.00000000000E+00 -0.00000000000E+00 -0.51346952221E+02  0.51346952221E+02  0.00000000000E+00 0.  1.
          6    1    1    2  502    0  0.55151505760E+02 -0.26148865295E+02  0.27545259128E+03  0.33095102627E+03  0.17300000000E+03 0.  1.
         -6    1    1    2    0  501 -0.55151505760E+02  0.26148865295E+02  0.33294551118E+03  0.38014098063E+03  0.17300000000E+03 0. -1.
<mgrwt>
<rscale>  2 0.18345150E+03</rscale>
<asrwt>0</asrwt>
<pdfrwt beam="1">  1        2 0.10149923E+00 0.18345150E+03</pdfrwt>
<pdfrwt beam="2">  1       -2 0.78995316E-02 0.18345150E+03</pdfrwt>
<totfact> 0.42738024E+03</totfact>
</mgrwt>
</event>
<event>
 4    1  0.7354369E-001  0.1732123E+03  0.7546771E-02  0.1174539E+00
          2   -1    0    0  502    0  0.00000000000E+00  0.00000000000E+00  0.13509778022E+04  0.13509778022E+04  0.00000000000E+00 0.  1.
         -2   -1    0    0    0  501 -0.00000000000E+00 -0.00000000000E+00 -0.31803441034E+02  0.31803441034E+02  0.00000000000E+00 0. -1.
          6    1    1    2  502    0 -0.76368426429E+01  0.38942686777E+01  0.27981830086E+03  0.32909082058E+03  0.17300000000E+03 0. -1.
         -6    1    1    2    0  501  0.76368426429E+01 -0.38942686777E+01  0.10393560603E+04  0.10536904226E+04  0.17300000000E+03 0.  1.
<mgrwt>
<rscale>  2 0.17321226E+03</rscale>
<asrwt>0</asrwt>
<pdfrwt beam="1">  1        2 0.20784270E+00 0.17321226E+03</pdfrwt>
<pdfrwt beam="2">  1       -2 0.48928381E-02 0.17321226E+03</pdfrwt>
<totfact> 0.33095622E+03</totfact>
</mgrwt>
</event>
<event>
 4    1  0.7354369E-001  0.2005959E+03  0.7546771E-02  0.1149237E+00
         -1   -1    0    0    0  501 -0.00000000000E+00  0.00000000000E+00  0.20343782253E+03  0.20343782253E+03  0.00000000000E+00 0. -1.
          1   -1    0    0  502    0  0.00000000000E+00 -0.00000000000E+00 -0.60029673586E+03  0.60029673586E+03  0.00000000000E+00 0.  1.
          6    1    1    2  502    0  0.20282766405E+02  0.99490326214E+02  0.13063747859E+03  0.23938434877E+03  0.17300000000E+03 0. -1.
         -6    1    1    2    0  501 -0.20282766405E+02 -0.99490326214E+02 -0.52749639191E+03  0.56435020963E+03  0.17300000000E+03 0.  1.
<mgrwt>
<rscale>  2 0.20059590E+03</rscale>
<asrwt>0</asrwt>
<pdfrwt beam="1">  1        1 0.92353344E-01 0.20059590E+03</pdfrwt>
<pdfrwt beam="2">  1       -1 0.31298126E-01 0.20059590E+03</pdfrwt>
<totfact> 0.33883358E+02</totfact>
</mgrwt>
</event>
<event>
 4    1  0.7354369E-001  0.2132873E+03  0.7546771E-02  0.1138989E+00
          2   -1    0    0  502    0  0.00000000000E+00  0.00000000000E+00  0.19031122430E+04  0.19031122430E+04  0.00000000000E+00 0.  1.
         -2   -1    0    0    0  501 -0.00000000000E+00 -0.00000000000E+00 -0.56301762548E+02  0.56301762548E+02  0.00000000000E+00 0. -1.
          6    1    1    2  502    0 -0.59522986385E+02 -0.10963344800E+03  0.16665861478E+04  0.16801788199E+04  0.17300000000E+03 0.  1.
         -6    1    1    2    0  501  0.59522986385E+02  0.10963344800E+03  0.18022433270E+03  0.27923518568E+03  0.17300000000E+03 0. -1.
<mgrwt>
<rscale>  2 0.21328732E+03</rscale>
<asrwt>0</asrwt>
<pdfrwt beam="1">  1        2 0.29278645E+00 0.21328732E+03</pdfrwt>
<pdfrwt beam="2">  1       -2 0.86618111E-02 0.21328732E+03</pdfrwt>
<totfact> 0.70403640E+02</totfact>
</mgrwt>
</event>
<event>
 4    1  0.7354369E-001  0.2252964E+03  0.7546771E-02  0.1129995E+00
          1   -1    0    0  502    0  0.00000000000E+00  0.00000000000E+00  0.27776125992E+03  0.27776125992E+03  0.00000000000E+00 0. -1.
         -1   -1    0    0    0  501 -0.00000000000E+00 -0.00000000000E+00 -0.22534896018E+03  0.22534896018E+03  0.00000000000E+00 0.  1.
          6    1    1    2  502    0  0.12512118401E+03 -0.71931747571E+02  0.13558883921E+03  0.26295022402E+03  0.17300000000E+03 0. -1.
         -6    1    1    2    0  501 -0.12512118401E+03  0.71931747571E+02 -0.83176539470E+02  0.24015999607E+03  0.17300000000E+03 0.  1.
<mgrwt>
<rscale>  2 0.22529644E+03</rscale>
<asrwt>0</asrwt>
<pdfrwt beam="1">  1        1 0.42732502E-01 0.22529644E+03</pdfrwt>
<pdfrwt beam="2">  1       -1 0.34669071E-01 0.22529644E+03</pdfrwt>
<totfact> 0.76991838E+02</totfact>
</mgrwt>
</event>
<event>
 4    1  0.7354369E-001  0.1973923E+03  0.7546771E-02  0.1151958E+00
          2   -1    0    0  502    0  0.00000000000E+00  0.00000000000E+00  0.21063568553E+04  0.21063568553E+04  0.00000000000E+00 0. -1.
         -2   -1    0    0    0  501 -0.00000000000E+00 -0.00000000000E+00 -0.18542017190E+02  0.18542017190E+02  0.00000000000E+00 0.  1.
          6    1    1    2  502    0 -0.89482260274E+02 -0.32056632791E+02  0.10955853905E+04  0.11132255164E+04  0.17300000000E+03 0. -1.
         -6    1    1    2    0  501  0.89482260274E+02  0.32056632791E+02  0.99222944768E+03  0.10116733561E+04  0.17300000000E+03 0. -1.
<mgrwt>
<rscale>  2 0.19739226E+03</rscale>
<asrwt>0</asrwt>
<pdfrwt beam="1">  1        2 0.32405471E+00 0.19739226E+03</pdfrwt>
<pdfrwt beam="2">  1       -2 0.28526197E-02 0.19739226E+03</pdfrwt>
<totfact> 0.29869274E+03</totfact>
</mgrwt>
</event>
<event>
 4    1  0.7354369E-001  0.3363062E+03  0.7546771E-02  0.1068380E+00
          2   -1    0    0  502    0  0.00000000000E+00  0.00000000000E+00  0.15665114168E+04  0.15665114168E+04  0.00000000000E+00 0. -1.
         -2   -1    0    0    0  501 -0.00000000000E+00 -0.00000000000E+00 -0.10578615918E+03  0.10578615918E+03  0.00000000000E+00 0.  1.
          6    1    1    2  502    0  0.28775450404E+03 -0.19240037824E+02  0.25922205074E+03  0.42461500826E+03  0.17300000000E+03 0.  1.
         -6    1    1    2    0  501 -0.28775450404E+03  0.19240037824E+02  0.12015032069E+04  0.12476825677E+04  0.17300000000E+03 0. -1.
<mgrwt>
<rscale>  2 0.33630616E+03</rscale>
<asrwt>0</asrwt>
<pdfrwt beam="1">  1        2 0.24100174E+00 0.33630616E+03</pdfrwt>
<pdfrwt beam="2">  1       -2 0.16274795E-01 0.33630616E+03</pdfrwt>
<totfact> 0.37378290E+02</totfact>
</mgrwt>
</event>
<event>
 4    1  0.7354369E-001  0.1875372E+03  0.7546771E-02  0.1160702E+00
         -1   -1    0    0    0  501 -0.00000000000E+00  0.00000000000E+00  0.27729893922E+02  0.27729893922E+02  0.00000000000E+00 0. -1.
          1   -1    0    0  502    0  0.00000000000E+00 -0.00000000000E+00 -0.12691774588E+04  0.12691774588E+04  0.00000000000E+00 0.  1.
          6    1    1    2  502    0 -0.38587327937E+02 -0.61255436063E+02 -0.60380925195E+03  0.63226246375E+03  0.17300000000E+03 0.  1.
         -6    1    1    2    0  501  0.38587327937E+02  0.61255436063E+02 -0.63763831290E+03  0.66464488895E+03  0.17300000000E+03 0. -1.
<mgrwt>
<rscale>  2 0.18753722E+03</rscale>
<asrwt>0</asrwt>
<pdfrwt beam="1">  1        1 0.19525803E+00 0.18753722E+03</pdfrwt>
<pdfrwt beam="2">  1       -1 0.42661384E-02 0.18753722E+03</pdfrwt>
<totfact> 0.22830465E+03</totfact>
</mgrwt>
</event>
<event>
 4    1  0.7354369E-001  0.1881311E+03  0.7546771E-02  0.1160158E+00
         -2   -1    0    0    0  501 -0.00000000000E+00  0.00000000000E+00  0.24825557377E+02  0.24825557377E+02  0.00000000000E+00 0.  1.
          2   -1    0    0  502    0  0.00000000000E+00 -0.00000000000E+00 -0.17944089851E+04  0.17944089851E+04  0.00000000000E+00 0. -1.
          6    1    1    2  502    0  0.68067136087E+02 -0.28829985082E+02 -0.47245542103E+03  0.50853458871E+03  0.17300000000E+03 0.  1.
         -6    1    1    2    0  501 -0.68067136087E+02  0.28829985082E+02 -0.12971280067E+04  0.13106999538E+04  0.17300000000E+03 0. -1.
<mgrwt>
<rscale>  2 0.18813108E+03</rscale>
<asrwt>0</asrwt>
<pdfrwt beam="1">  1        2 0.27606285E+00 0.18813108E+03</pdfrwt>
<pdfrwt beam="2">  1       -2 0.38193174E-02 0.18813108E+03</pdfrwt>
<totfact> 0.28102082E+03</totfact>
</mgrwt>
</event>
<event>
 4    1  0.7354369E-001  0.1760702E+03  0.7546771E-02  0.1171661E+00
          2   -1    0    0  502    0  0.00000000000E+00  0.00000000000E+00  0.30848687238E+03  0.30848687238E+03  0.00000000000E+00 0.  1.
         -2   -1    0    0    0  501 -0.00000000000E+00 -0.00000000000E+00 -0.12440788960E+03  0.12440788960E+03  0.00000000000E+00 0. -1.
          6    1    1    2  502    0  0.30612104322E+02  0.11602258280E+02 -0.28600839908E+01  0.17609342239E+03  0.17300000000E+03 0.  1.
         -6    1    1    2    0  501 -0.30612104322E+02 -0.11602258280E+02  0.18693906677E+03  0.25680133958E+03  0.17300000000E+03 0.  1.
<mgrwt>
<rscale>  2 0.17607019E+03</rscale>
<asrwt>0</asrwt>
<pdfrwt beam="1">  1        2 0.47459519E-01 0.17607019E+03</pdfrwt>
<pdfrwt beam="2">  1       -2 0.19139675E-01 0.17607019E+03</pdfrwt>
<totfact> 0.23644409E+03</totfact>
</mgrwt>
</event>
<event>
 4    1  0.7354369E-001  0.2670056E+03  0.7546771E-02  0.1103006E+00
          2   -1    0    0  502    0  0.00000000000E+00  0.00000000000E+00  0.16503571630E+04  0.16503571630E+04  0.00000000000E+00 0.  1.
         -2   -1    0    0    0  501 -0.00000000000E+00 -0.00000000000E+00 -0.55574300832E+02  0.55574300832E+02  0.00000000000E+00 0. -1.
          6    1    1    2  502    0 -0.15403328297E+03 -0.13280331620E+03  0.39486753888E+03  0.47666796234E+03  0.17300000000E+03 0.  1.
         -6    1    1    2    0  501  0.15403328297E+03  0.13280331620E+03  0.11999153232E+04  0.12292635015E+04  0.17300000000E+03 0. -1.
<mgrwt>
<rscale>  2 0.26700557E+03</rscale>
<asrwt>0</asrwt>
<pdfrwt beam="1">  1        2 0.25390106E+00 0.26700557E+03</pdfrwt>
<pdfrwt beam="2">  1       -2 0.85498937E-02 0.26700557E+03</pdfrwt>
<totfact> 0.96780104E+02</totfact>
</mgrwt>
</event>
<event>
 4    1  0.7354369E-001  0.2211588E+03  0.7546771E-02  0.1133022E+00
         -1   -1    0    0    0  501 -0.00000000000E+00  0.00000000000E+00  0.31227424182E+03  0.31227424182E+03  0.00000000000E+00 0. -1.
          1   -1    0    0  502    0  0.00000000000E+00 -0.00000000000E+00 -0.20365502794E+03  0.20365502794E+03  0.00000000000E+00 0.  1.
          6    1    1    2  502    0 -0.13468661411E+02 -0.13711605113E+03 -0.69650386144E+02  0.23186718743E+03  0.17300000000E+03 0.  1.
         -6    1    1    2    0  501  0.13468661411E+02  0.13711605113E+03  0.17826960003E+03  0.28406208232E+03  0.17300000000E+03 0. -1.
<mgrwt>
<rscale>  2 0.22115880E+03</rscale>
<asrwt>0</asrwt>
<pdfrwt beam="1">  1        1 0.31331543E-01 0.22115880E+03</pdfrwt>
<pdfrwt beam="2">  1       -1 0.48042191E-01 0.22115880E+03</pdfrwt>
<totfact> 0.63585410E+02</totfact>
</mgrwt>
</event>
<event>
 4    1  0.7354369E-001  0.1956125E+03  0.7546771E-02  0.1153494E+00
         -2   -1    0    0    0  501 -0.00000000000E+00  0.00000000000E+00  0.14925164553E+02  0.14925164553E+02  0.00000000000E+00 0.  1.
          2   -1    0    0  502    0  0.00000000000E+00 -0.00000000000E+00 -0.26082103118E+04  0.26082103118E+04  0.00000000000E+00 0. -1.
          6    1    1    2  502    0  0.74753326033E+02  0.52413663678E+02 -0.11253844953E+04  0.11422585146E+04  0.17300000000E+03 0.  1.
         -6    1    1    2    0  501 -0.74753326033E+02 -0.52413663678E+02 -0.14679006519E+04  0.14808769617E+04  0.17300000000E+03 0. -1.
<mgrwt>
<rscale>  2 0.19561250E+03</rscale>
<asrwt>0</asrwt>
<pdfrwt beam="1">  1        2 0.40126324E+00 0.19561250E+03</pdfrwt>
<pdfrwt beam="2">  1       -2 0.22961785E-02 0.19561250E+03</pdfrwt>
<totfact> 0.22198516E+03</totfact>
</mgrwt>
</event>
<event>
 4    1  0.7354369E-001  0.1735442E+03  0.7546771E-02  0.1174201E+00
          2   -1    0    0  502    0  0.00000000000E+00  0.00000000000E+00  0.10758654358E+04  0.10758654358E+04  0.00000000000E+00 0.  1.
         -2   -1    0    0    0  501 -0.00000000000E+00 -0.00000000000E+00 -0.29770386963E+02  0.29770386963E+02  0.00000000000E+00 0. -1.
          6    1    1    2  502    0 -0.55702425678E+01 -0.12552863210E+02  0.38800251455E+03  0.42504535438E+03  0.17300000000E+03 0. -1.
         -6    1    1    2    0  501  0.55702425678E+01  0.12552863210E+02  0.65809253424E+03  0.68059046834E+03  0.17300000000E+03 0.  1.
<mgrwt>
<rscale>  2 0.17354424E+03</rscale>
<asrwt>0</asrwt>
<pdfrwt beam="1">  1        2 0.16551773E+00 0.17354424E+03</pdfrwt>
<pdfrwt beam="2">  1       -2 0.45800604E-02 0.17354424E+03</pdfrwt>
<totfact> 0.52085711E+03</totfact>
</mgrwt>
</event>
<event>
 4    1  0.7354369E-001  0.1804938E+03  0.7546771E-02  0.1167326E+00
         -2   -1    0    0    0  501 -0.00000000000E+00  0.00000000000E+00  0.15307680068E+03  0.15307680068E+03  0.00000000000E+00 0. -1.
          2   -1    0    0  502    0  0.00000000000E+00 -0.00000000000E+00 -0.52031529689E+03  0.52031529689E+03  0.00000000000E+00 0.  1.
          6    1    1    2  502    0  0.50892354382E+02  0.76793760493E+01  0.75215774538E+02  0.19553878718E+03  0.17300000000E+03 0. -1.
         -6    1    1    2    0  501 -0.50892354382E+02 -0.76793760493E+01 -0.44245427074E+03  0.47785331039E+03  0.17300000000E+03 0.  1.
<mgrwt>
<rscale>  2 0.18049378E+03</rscale>
<asrwt>0</asrwt>
<pdfrwt beam="1">  1        2 0.80048505E-01 0.18049378E+03</pdfrwt>
<pdfrwt beam="2">  1       -2 0.23550278E-01 0.18049378E+03</pdfrwt>
<totfact> 0.94023337E+02</totfact>
</mgrwt>
</event>
<event>
 4    1  0.7354369E-001  0.2528250E+03  0.7546771E-02  0.1111532E+00
          2   -1    0    0  502    0  0.00000000000E+00  0.00000000000E+00  0.69940859935E+03  0.69940859935E+03  0.00000000000E+00 0.  1.
         -2   -1    0    0    0  501 -0.00000000000E+00 -0.00000000000E+00 -0.98998593471E+02  0.98998593471E+02  0.00000000000E+00 0. -1.
          6    1    1    2  502    0 -0.12692391478E+03 -0.13372286589E+03  0.18955038201E+03  0.31599024087E+03  0.17300000000E+03 0. -1.
         -6    1    1    2    0  501  0.12692391478E+03  0.13372286589E+03  0.41085962387E+03  0.48241695196E+03  0.17300000000E+03 0.  1.
<mgrwt>
<rscale>  2 0.25282501E+03</rscale>
<asrwt>0</asrwt>
<pdfrwt beam="1">  1        2 0.10760132E+00 0.25282501E+03</pdfrwt>
<pdfrwt beam="2">  1       -2 0.15230553E-01 0.25282501E+03</pdfrwt>
<totfact> 0.14009975E+03</totfact>
</mgrwt>
</event>
<event>
 4    1  0.7354369E-001  0.2172762E+03  0.7546771E-02  0.1135930E+00
         -2   -1    0    0    0  501 -0.00000000000E+00  0.00000000000E+00  0.18414547010E+03  0.18414547010E+03  0.00000000000E+00 0. -1.
          2   -1    0    0  502    0  0.00000000000E+00 -0.00000000000E+00 -0.83718414923E+03  0.83718414923E+03  0.00000000000E+00 0.  1.
          6    1    1    2  502    0  0.12413677687E+03  0.43243360566E+02 -0.75186786666E+03  0.78263287467E+03  0.17300000000E+03 0.  1.
         -6    1    1    2    0  501 -0.12413677687E+03 -0.43243360566E+02  0.98829187526E+02  0.23869674466E+03  0.17300000000E+03 0. -1.
<mgrwt>
<rscale>  2 0.21727616E+03</rscale>
<asrwt>0</asrwt>
<pdfrwt beam="1">  1        2 0.12879756E+00 0.21727616E+03</pdfrwt>
<pdfrwt beam="2">  1       -2 0.28330072E-01 0.21727616E+03</pdfrwt>
<totfact> 0.38431740E+02</totfact>
</mgrwt>
</event>
<event>
 4    1  0.7354369E-001  0.1955554E+03  0.7546771E-02  0.1153544E+00
         -1   -1    0    0    0  501 -0.00000000000E+00  0.00000000000E+00  0.98712574919E+01  0.98712574919E+01  0.00000000000E+00 0. -1.
          1   -1    0    0  502    0  0.00000000000E+00 -0.00000000000E+00 -0.38906324815E+04  0.38906324815E+04  0.00000000000E+00 0.  1.
          6    1    1    2  502    0 -0.70473793847E+01 -0.90902406868E+02 -0.20676377999E+04  0.20768649414E+04  0.17300000000E+03 0.  1.
         -6    1    1    2    0  501  0.70473793847E+01  0.90902406868E+02 -0.18131234241E+04  0.18236387976E+04  0.17300000000E+03 0.  1.
<mgrwt>
<rscale>  2 0.19555540E+03</rscale>
<asrwt>0</asrwt>
<pdfrwt beam="1">  1        1 0.59855924E+00 0.19555540E+03</pdfrwt>
<pdfrwt beam="2">  1       -1 0.15186540E-02 0.19555540E+03</pdfrwt>
<totfact> 0.16251326E+02</totfact>
</mgrwt>
</event>
<event>
 4    1  0.7354369E-001  0.2164500E+03  0.7546771E-02  0.1136558E+00
          1   -1    0    0  502    0  0.00000000000E+00  0.00000000000E+00  0.17210402075E+03  0.17210402075E+03  0.00000000000E+00 0. -1.
         -1   -1    0    0    0  501 -0.00000000000E+00 -0.00000000000E+00 -0.30063670315E+03  0.30063670315E+03  0.00000000000E+00 0.  1.
          6    1    1    2  502    0 -0.11050897523E+03  0.68624994708E+02  0.84008092611E+01  0.21661301231E+03  0.17300000000E+03 0.  1.
         -6    1    1    2    0  501  0.11050897523E+03 -0.68624994708E+02 -0.13693349166E+03  0.25612771159E+03  0.17300000000E+03 0.  1.
<mgrwt>
<rscale>  2 0.21645005E+03</rscale>
<asrwt>0</asrwt>
<pdfrwt beam="1">  1        1 0.26477542E-01 0.21645005E+03</pdfrwt>
<pdfrwt beam="2">  1       -1 0.46251800E-01 0.21645005E+03</pdfrwt>
<totfact> 0.84288303E+02</totfact>
</mgrwt>
</event>
<event>
 4    1  0.7354369E-001  0.1903528E+03  0.7546771E-02  0.1158144E+00
         -4   -1    0    0    0  501 -0.00000000000E+00  0.00000000000E+00  0.24485303957E+03  0.24485303957E+03  0.00000000000E+00 0. -1.
          4   -1    0    0  502    0  0.00000000000E+00 -0.00000000000E+00 -0.14867615810E+03  0.14867615810E+03  0.00000000000E+00 0.  1.
          6    1    1    2  502    0  0.42902470828E+02 -0.66817437205E+02  0.61519449392E+02  0.20004708089E+03  0.17300000000E+03 0.  1.
         -6    1    1    2    0  501 -0.42902470828E+02  0.66817437205E+02  0.34657432080E+02  0.19348211679E+03  0.17300000000E+03 0.  1.
<mgrwt>
<rscale>  2 0.19035281E+03</rscale>
<asrwt>0</asrwt>
<pdfrwt beam="1">  1        4 0.22873255E-01 0.19035281E+03</pdfrwt>
<pdfrwt beam="2">  1       -4 0.37669698E-01 0.19035281E+03</pdfrwt>
<totfact> 0.21338354E+02</totfact>
</mgrwt>
</event>
<event>
 4    1  0.7354369E-001  0.1742143E+03  0.7546771E-02  0.1173523E+00
         -1   -1    0    0    0  501 -0.00000000000E+00  0.00000000000E+00  0.10206385299E+03  0.10206385299E+03  0.00000000000E+00 0.  1.
          1   -1    0    0  502    0  0.00000000000E+00 -0.00000000000E+00 -0.31256073402E+03  0.31256073402E+03  0.00000000000E+00 0. -1.
          6    1    1    2  502    0  0.20264805808E+02 -0.33120359441E+01 -0.15095312085E+03  0.23051567545E+03  0.17300000000E+03 0. -1.
         -6    1    1    2    0  501 -0.20264805808E+02  0.33120359441E+01 -0.59543760183E+02  0.18410891155E+03  0.17300000000E+03 0.  1.
<mgrwt>
<rscale>  2 0.17421433E+03</rscale>
<asrwt>0</asrwt>
<pdfrwt beam="1">  1        1 0.48086266E-01 0.17421433E+03</pdfrwt>
<pdfrwt beam="2">  1       -1 0.15702131E-01 0.17421433E+03</pdfrwt>
<totfact> 0.24417049E+03</totfact>
</mgrwt>
</event>
<event>
 4    1  0.7354369E-001  0.1868127E+03  0.7546771E-02  0.1161368E+00
         -1   -1    0    0    0  501 -0.00000000000E+00  0.00000000000E+00  0.14198333300E+03  0.14198333300E+03  0.00000000000E+00 0. -1.
          1   -1    0    0  502    0  0.00000000000E+00 -0.00000000000E+00 -0.33157520445E+03  0.33157520445E+03  0.00000000000E+00 0.  1.
          6    1    1    2  502    0 -0.38012724440E+02 -0.59372015304E+02 -0.21522808714E+03  0.28499496998E+03  0.17300000000E+03 0.  1.
         -6    1    1    2    0  501  0.38012724440E+02  0.59372015304E+02  0.25636215690E+02  0.18856356747E+03  0.17300000000E+03 0. -1.
<mgrwt>
<rscale>  2 0.18681275E+03</rscale>
<asrwt>0</asrwt>
<pdfrwt beam="1">  1        1 0.51011569E-01 0.18681275E+03</pdfrwt>
<pdfrwt beam="2">  1       -1 0.21843590E-01 0.18681275E+03</pdfrwt>
<totfact> 0.13369095E+03</totfact>
</mgrwt>
</event>
<event>
 4    1  0.7354369E-001  0.1759795E+03  0.7546771E-02  0.1171752E+00
         -1   -1    0    0    0  501 -0.00000000000E+00  0.00000000000E+00  0.42840212645E+03  0.42840212645E+03  0.00000000000E+00 0.  1.
          1   -1    0    0  502    0  0.00000000000E+00 -0.00000000000E+00 -0.73301939155E+02  0.73301939155E+02  0.00000000000E+00 0. -1.
          6    1    1    2  502    0 -0.15925481836E+02  0.28038816570E+02  0.14806285436E+03  0.22998131456E+03  0.17300000000E+03 0. -1.
         -6    1    1    2    0  501  0.15925481836E+02 -0.28038816570E+02  0.20703733294E+03  0.27172275105E+03  0.17300000000E+03 0. -1.
<mgrwt>
<rscale>  2 0.17597953E+03</rscale>
<asrwt>0</asrwt>
<pdfrwt beam="1">  1        1 0.11277222E-01 0.17597953E+03</pdfrwt>
<pdfrwt beam="2">  1       -1 0.65908018E-01 0.17597953E+03</pdfrwt>
<totfact> 0.13036702E+03</totfact>
</mgrwt>
</event>
<event>
 4    1  0.7354369E-001  0.2060115E+03  0.7546771E-02  0.1144764E+00
          2   -1    0    0  502    0  0.00000000000E+00  0.00000000000E+00  0.78113112060E+03  0.78113112060E+03  0.00000000000E+00 0.  1.
         -2   -1    0    0    0  501 -0.00000000000E+00 -0.00000000000E+00 -0.54567574613E+02  0.54567574613E+02  0.00000000000E+00 0. -1.
          6    1    1    2  502    0 -0.19751271824E+02 -0.11009827451E+03  0.33585146231E+03  0.39400120244E+03  0.17300000000E+03 0. -1.
         -6    1    1    2    0  501  0.19751271824E+02  0.11009827451E+03  0.39071208367E+03  0.44169749277E+03  0.17300000000E+03 0. -1.
<mgrwt>
<rscale>  2 0.20601151E+03</rscale>
<asrwt>0</asrwt>
<pdfrwt beam="1">  1        2 0.12017401E+00 0.20601151E+03</pdfrwt>
<pdfrwt beam="2">  1       -2 0.83950120E-02 0.20601151E+03</pdfrwt>
<totfact> 0.31771674E+03</totfact>
</mgrwt>
</event>
<event>
 4    1  0.7354369E-001  0.1847045E+03  0.7546771E-02  0.1163326E+00
         -2   -1    0    0    0  501 -0.00000000000E+00  0.00000000000E+00  0.19208957190E+02  0.19208957190E+02  0.00000000000E+00 0. -1.
          2   -1    0    0  502    0  0.00000000000E+00 -0.00000000000E+00 -0.18314126714E+04  0.18314126714E+04  0.00000000000E+00 0.  1.
          6    1    1    2  502    0 -0.27656774028E+02 -0.58496759505E+02 -0.74519876933E+03  0.76774798849E+03  0.17300000000E+03 0. -1.
         -6    1    1    2    0  501  0.27656774028E+02  0.58496759505E+02 -0.10670049449E+04  0.10828736401E+04  0.17300000000E+03 0. -1.
<mgrwt>
<rscale>  2 0.18470454E+03</rscale>
<asrwt>0</asrwt>
<pdfrwt beam="1">  1        2 0.28175593E+00 0.18470454E+03</pdfrwt>
<pdfrwt beam="2">  1       -2 0.29552228E-02 0.18470454E+03</pdfrwt>
<totfact> 0.39378461E+03</totfact>
</mgrwt>
</event>
<event>
 4    1  0.7354369E-001  0.1951578E+03  0.7546771E-02  0.1153890E+00
         -2   -1    0    0    0  501 -0.00000000000E+00  0.00000000000E+00  0.43781234766E+02  0.43781234766E+02  0.00000000000E+00 0.  1.
          2   -1    0    0  502    0  0.00000000000E+00 -0.00000000000E+00 -0.94532383638E+03  0.94532383638E+03  0.00000000000E+00 0. -1.
          6    1    1    2  502    0  0.76575756630E+02  0.47892938032E+02 -0.31110488335E+03  0.36725036210E+03  0.17300000000E+03 0.  1.
         -6    1    1    2    0  501 -0.76575756630E+02 -0.47892938032E+02 -0.59043771827E+03  0.62185470905E+03  0.17300000000E+03 0.  1.
<mgrwt>
<rscale>  2 0.19515783E+03</rscale>
<asrwt>0</asrwt>
<pdfrwt beam="1">  1        2 0.14543441E+00 0.19515783E+03</pdfrwt>
<pdfrwt beam="2">  1       -2 0.67355756E-02 0.19515783E+03</pdfrwt>
<totfact> 0.34833449E+03</totfact>
</mgrwt>
</event>
<event>
 4    1  0.7354369E-001  0.1774517E+03  0.7546771E-02  0.1170292E+00
         -1   -1    0    0    0  501 -0.00000000000E+00  0.00000000000E+00  0.65715602464E+02  0.65715602464E+02  0.00000000000E+00 0. -1.
          1   -1    0    0  502    0  0.00000000000E+00 -0.00000000000E+00 -0.48183689188E+03  0.48183689188E+03  0.00000000000E+00 0.  1.
          6    1    1    2  502    0  0.32178488293E+02  0.22905385994E+02 -0.22841896516E+03  0.28924787893E+03  0.17300000000E+03 0. -1.
         -6    1    1    2    0  501 -0.32178488293E+02 -0.22905385994E+02 -0.18770232425E+03  0.25830461542E+03  0.17300000000E+03 0. -1.
<mgrwt>
<rscale>  2 0.17745172E+03</rscale>
<asrwt>0</asrwt>
<pdfrwt beam="1">  1        1 0.74128753E-01 0.17745172E+03</pdfrwt>
<pdfrwt beam="2">  1       -1 0.10110093E-01 0.17745172E+03</pdfrwt>
<totfact> 0.27986952E+03</totfact>
</mgrwt>
</event>
<event>
 4    1  0.7354369E-001  0.1777150E+03  0.7546771E-02  0.1170033E+00
          2   -1    0    0  502    0  0.00000000000E+00  0.00000000000E+00  0.82959042374E+03  0.82959042374E+03  0.00000000000E+00 0.  1.
         -2   -1    0    0    0  501 -0.00000000000E+00 -0.00000000000E+00 -0.39470894705E+02  0.39470894705E+02  0.00000000000E+00 0. -1.
          6    1    1    2  502    0 -0.18993514005E+02  0.35956685011E+02  0.31320187979E+03  0.36010839240E+03  0.17300000000E+03 0.  1.
         -6    1    1    2    0  501  0.18993514005E+02 -0.35956685011E+02  0.47691764925E+03  0.50895292605E+03  0.17300000000E+03 0.  1.
<mgrwt>
<rscale>  2 0.17771504E+03</rscale>
<asrwt>0</asrwt>
<pdfrwt beam="1">  1        2 0.12762928E+00 0.17771504E+03</pdfrwt>
<pdfrwt beam="2">  1       -2 0.60724460E-02 0.17771504E+03</pdfrwt>
<totfact> 0.48352487E+03</totfact>
</mgrwt>
</event>
<event>
 4    1  0.7354369E-001  0.1900271E+03  0.7546771E-02  0.1158437E+00
          2   -1    0    0  502    0  0.00000000000E+00  0.00000000000E+00  0.46408620488E+02  0.46408620488E+02  0.00000000000E+00 0. -1.
         -2   -1    0    0    0  501 -0.00000000000E+00 -0.00000000000E+00 -0.79491235211E+03  0.79491235211E+03  0.00000000000E+00 0.  1.
          6    1    1    2  502    0  0.78588998138E+02  0.22475295290E+01 -0.31306471408E+03  0.36622369833E+03  0.17300000000E+03 0. -1.
         -6    1    1    2    0  501 -0.78588998138E+02 -0.22475295290E+01 -0.43543901755E+03  0.47509727427E+03  0.17300000000E+03 0.  1.
<mgrwt>
<rscale>  2 0.19002706E+03</rscale>
<asrwt>0</asrwt>
<pdfrwt beam="1">  1        2 0.71397884E-02 0.19002706E+03</pdfrwt>
<pdfrwt beam="2">  1       -2 0.12229420E+00 0.19002706E+03</pdfrwt>
<totfact> 0.51770092E+02</totfact>
</mgrwt>
</event>
<event>
 4    1  0.7354369E-001  0.1744932E+03  0.7546771E-02  0.1173242E+00
         -1   -1    0    0    0  501 -0.00000000000E+00  0.00000000000E+00  0.47927273166E+02  0.47927273166E+02  0.00000000000E+00 0.  1.
          1   -1    0    0  502    0  0.00000000000E+00 -0.00000000000E+00 -0.65766550432E+03  0.65766550432E+03  0.00000000000E+00 0. -1.
          6    1    1    2  502    0  0.82535403437E+01 -0.21230686943E+02 -0.23979945726E+03  0.29656642207E+03  0.17300000000E+03 0.  1.
         -6    1    1    2    0  501 -0.82535403437E+01  0.21230686943E+02 -0.36993877389E+03  0.40902635541E+03  0.17300000000E+03 0. -1.
<mgrwt>
<rscale>  2 0.17449316E+03</rscale>
<asrwt>0</asrwt>
<pdfrwt beam="1">  1        1 0.10117930E+00 0.17449316E+03</pdfrwt>
<pdfrwt beam="2">  1       -1 0.73734271E-02 0.17449316E+03</pdfrwt>
<totfact> 0.29699819E+03</totfact>
</mgrwt>
</event>
<event>
 4    1  0.7354369E-001  0.2051847E+03  0.7546771E-02  0.1145437E+00
          2   -1    0    0  502    0  0.00000000000E+00  0.00000000000E+00  0.86834220102E+03  0.86834220102E+03  0.00000000000E+00 0. -1.
         -2   -1    0    0    0  501 -0.00000000000E+00 -0.00000000000E+00 -0.11549508435E+03  0.11549508435E+03  0.00000000000E+00 0.  1.
          6    1    1    2  502    0  0.45147608744E+02  0.10066502892E+03  0.75112439489E+03  0.77864536936E+03  0.17300000000E+03 0. -1.
         -6    1    1    2    0  501 -0.45147608744E+02 -0.10066502892E+03  0.17227217783E+01  0.20519191600E+03  0.17300000000E+03 0.  1.
<mgrwt>
<rscale>  2 0.20518468E+03</rscale>
<asrwt>0</asrwt>
<pdfrwt beam="1">  1        2 0.13359110E+00 0.20518468E+03</pdfrwt>
<pdfrwt beam="2">  1       -2 0.17768475E-01 0.20518468E+03</pdfrwt>
<totfact> 0.82480970E+02</totfact>
</mgrwt>
</event>
<event>
 4    1  0.7354369E-001  0.1831903E+03  0.7546771E-02  0.1164751E+00
          2   -1    0    0  502    0  0.00000000000E+00  0.00000000000E+00  0.14861609523E+03  0.14861609523E+03  0.00000000000E+00 0. -1.
         -2   -1    0    0    0  501 -0.00000000000E+00 -0.00000000000E+00 -0.24103117613E+03  0.24103117613E+03  0.00000000000E+00 0.  1.
          6    1    1    2  502    0 -0.19181667622E+02  0.57111599700E+02 -0.95169720294E+02  0.20643630217E+03  0.17300000000E+03 0.  1.
         -6    1    1    2    0  501  0.19181667622E+02 -0.57111599700E+02  0.27546394027E+01  0.18321096919E+03  0.17300000000E+03 0. -1.
<mgrwt>
<rscale>  2 0.18319026E+03</rscale>
<asrwt>0</asrwt>
<pdfrwt beam="1">  1        2 0.22864015E-01 0.18319026E+03</pdfrwt>
<pdfrwt beam="2">  1       -2 0.37081719E-01 0.18319026E+03</pdfrwt>
<totfact> 0.16174542E+03</totfact>
</mgrwt>
</event>
<event>
 4    1  0.7354369E-001  0.3333756E+03  0.7546771E-02  0.1069653E+00
         -1   -1    0    0    0  501 -0.00000000000E+00  0.00000000000E+00  0.34108574423E+03  0.34108574423E+03  0.00000000000E+00 0. -1.
          1   -1    0    0  502    0  0.00000000000E+00 -0.00000000000E+00 -0.43737692974E+03  0.43737692974E+03  0.00000000000E+00 0.  1.
          6    1    1    2  502    0 -0.10426046617E+03 -0.26521699626E+03  0.14841192358E+03  0.36491834562E+03  0.17300000000E+03 0. -1.
         -6    1    1    2    0  501  0.10426046617E+03  0.26521699626E+03 -0.24470310909E+03  0.41354432835E+03  0.17300000000E+03 0.  1.
<mgrwt>
<rscale>  2 0.33337561E+03</rscale>
<asrwt>0</asrwt>
<pdfrwt beam="1">  1        1 0.67288758E-01 0.33337561E+03</pdfrwt>
<pdfrwt beam="2">  1       -1 0.52474730E-01 0.33337561E+03</pdfrwt>
<totfact> 0.20295044E+02</totfact>
</mgrwt>
</event>
<event>
 4    1  0.7354369E-001  0.2158307E+03  0.7546771E-02  0.1137030E+00
         -2   -1    0    0    0  501 -0.00000000000E+00  0.00000000000E+00  0.33476045328E+02  0.33476045328E+02  0.00000000000E+00 0.  1.
          2   -1    0    0  502    0  0.00000000000E+00 -0.00000000000E+00 -0.17012381038E+04  0.17012381038E+04  0.00000000000E+00 0. -1.
          6    1    1    2  502    0  0.12741047394E+03  0.20505552120E+02 -0.12039579224E+04  0.12231506797E+04  0.17300000000E+03 0. -1.
         -6    1    1    2    0  501 -0.12741047394E+03 -0.20505552120E+02 -0.46380413613E+03  0.51156346941E+03  0.17300000000E+03 0.  1.
<mgrwt>
<rscale>  2 0.21583074E+03</rscale>
<asrwt>0</asrwt>
<pdfrwt beam="1">  1        2 0.26172891E+00 0.21583074E+03</pdfrwt>
<pdfrwt beam="2">  1       -2 0.51501614E-02 0.21583074E+03</pdfrwt>
<totfact> 0.20006983E+03</totfact>
</mgrwt>
</event>
<event>
 4    1  0.7354369E-001  0.2399813E+03  0.7546771E-02  0.1119805E+00
          2   -1    0    0  502    0  0.00000000000E+00  0.00000000000E+00  0.31451981401E+03  0.31451981401E+03  0.00000000000E+00 0. -1.
         -2   -1    0    0    0  501 -0.00000000000E+00 -0.00000000000E+00 -0.24586855672E+03  0.24586855672E+03  0.00000000000E+00 0.  1.
          6    1    1    2  502    0 -0.11707633044E+03  0.11813190134E+03  0.17588932877E+03  0.29753666873E+03  0.17300000000E+03 0. -1.
         -6    1    1    2    0  501  0.11707633044E+03 -0.11813190134E+03 -0.10723807148E+03  0.26285170199E+03  0.17300000000E+03 0.  1.
<mgrwt>
<rscale>  2 0.23998128E+03</rscale>
<asrwt>0</asrwt>
<pdfrwt beam="1">  1        2 0.48387664E-01 0.23998128E+03</pdfrwt>
<pdfrwt beam="2">  1       -2 0.37825932E-01 0.23998128E+03</pdfrwt>
<totfact> 0.69037122E+02</totfact>
</mgrwt>
</event>
<event>
 4    1  0.7354369E-001  0.1818104E+03  0.7546771E-02  0.1166062E+00
          2   -1    0    0  502    0  0.00000000000E+00  0.00000000000E+00  0.24898601425E+02  0.24898601425E+02  0.00000000000E+00 0.  1.
         -2   -1    0    0    0  501 -0.00000000000E+00 -0.00000000000E+00 -0.20168225725E+04  0.20168225725E+04  0.00000000000E+00 0. -1.
          6    1    1    2  502    0  0.52176455614E+02  0.20090631590E+02 -0.39917824299E+03  0.43863228982E+03  0.17300000000E+03 0.  1.
         -6    1    1    2    0  501 -0.52176455614E+02 -0.20090631590E+02 -0.15927457281E+04  0.16030888841E+04  0.17300000000E+03 0. -1.
<mgrwt>
<rscale>  2 0.18181038E+03</rscale>
<asrwt>0</asrwt>
<pdfrwt beam="1">  1        2 0.38305530E-02 0.18181038E+03</pdfrwt>
<pdfrwt beam="2">  1       -2 0.31028048E+00 0.18181038E+03</pdfrwt>
<totfact> 0.72263891E+01</totfact>
</mgrwt>
</event>
<event>
 4    1  0.7354369E-001  0.2038486E+03  0.7546771E-02  0.1146532E+00
         -2   -1    0    0    0  501 -0.00000000000E+00  0.00000000000E+00  0.93480174366E+02  0.93480174366E+02  0.00000000000E+00 0. -1.
          2   -1    0    0  502    0  0.00000000000E+00 -0.00000000000E+00 -0.89822772825E+03  0.89822772825E+03  0.00000000000E+00 0.  1.
          6    1    1    2  502    0 -0.10404756407E+03 -0.28273223644E+02 -0.75478218704E+03  0.78182505756E+03  0.17300000000E+03 0.  1.
         -6    1    1    2    0  501  0.10404756407E+03  0.28273223644E+02 -0.49965366851E+02  0.20988284506E+03  0.17300000000E+03 0. -1.
<mgrwt>
<rscale>  2 0.20384865E+03</rscale>
<asrwt>0</asrwt>
<pdfrwt beam="1">  1        2 0.13818889E+00 0.20384865E+03</pdfrwt>
<pdfrwt beam="2">  1       -2 0.14381565E-01 0.20384865E+03</pdfrwt>
<totfact> 0.11208779E+03</totfact>
</mgrwt>
</event>
<event>
 4    1  0.7354369E-001  0.1843883E+03  0.7546771E-02  0.1163622E+00
          1   -1    0    0  502    0  0.00000000000E+00  0.00000000000E+00  0.15416794587E+04  0.15416794587E+04  0.00000000000E+00 0. -1.
         -1   -1    0    0    0  501 -0.00000000000E+00 -0.00000000000E+00 -0.22721612576E+02  0.22721612576E+02  0.00000000000E+00 0.  1.
          6    1    1    2  502    0  0.37879653070E+01 -0.63684397078E+02  0.62532518270E+03  0.65194373624E+03  0.17300000000E+03 0.  1.
         -6    1    1    2    0  501 -0.37879653070E+01  0.63684397078E+02  0.89363266347E+03  0.91245733507E+03  0.17300000000E+03 0. -1.
<mgrwt>
<rscale>  2 0.18438832E+03</rscale>
<asrwt>0</asrwt>
<pdfrwt beam="1">  1        1 0.23718137E+00 0.18438832E+03</pdfrwt>
<pdfrwt beam="2">  1       -1 0.34956339E-02 0.18438832E+03</pdfrwt>
<totfact> 0.20193894E+03</totfact>
</mgrwt>
</event>
<event>
 4    1  0.7354369E-001  0.2262234E+03  0.7546771E-02  0.1129327E+00
          2   -1    0    0  502    0  0.00000000000E+00  0.00000000000E+00  0.73120638530E+03  0.73120638530E+03  0.00000000000E+00 0. -1.
         -2   -1    0    0    0  501 -0.00000000000E+00 -0.00000000000E+00 -0.84141496479E+02  0.84141496479E+02  0.00000000000E+00 0.  1.
          6    1    1    2  502    0 -0.11725354694E+03 -0.86600370075E+02  0.49072289381E+03  0.54035726781E+03  0.17300000000E+03 0. -1.
         -6    1    1    2    0  501  0.11725354694E+03  0.86600370075E+02  0.15634199501E+03  0.27499061397E+03  0.17300000000E+03 0.  1.
<mgrwt>
<rscale>  2 0.22622338E+03</rscale>
<asrwt>0</asrwt>
<pdfrwt beam="1">  1        2 0.11249329E+00 0.22622338E+03</pdfrwt>
<pdfrwt beam="2">  1       -2 0.12944846E-01 0.22622338E+03</pdfrwt>
<totfact> 0.17316851E+03</totfact>
</mgrwt>
</event>
<event>
 4    1  0.7354369E-001  0.1847028E+03  0.7546771E-02  0.1163328E+00
          1   -1    0    0  502    0  0.00000000000E+00  0.00000000000E+00  0.20208626498E+04  0.20208626498E+04  0.00000000000E+00 0.  1.
         -1   -1    0    0    0  501 -0.00000000000E+00 -0.00000000000E+00 -0.25965478291E+02  0.25965478291E+02  0.00000000000E+00 0. -1.
          6    1    1    2  502    0 -0.63752622196E+02  0.11033048948E+02  0.39211877321E+03  0.43344233447E+03  0.17300000000E+03 0. -1.
         -6    1    1    2    0  501  0.63752622196E+02 -0.11033048948E+02  0.16027783983E+04  0.16133857936E+04  0.17300000000E+03 0.  1.
<mgrwt>
<rscale>  2 0.18470280E+03</rscale>
<asrwt>0</asrwt>
<pdfrwt beam="1">  1        1 0.31090182E+00 0.18470280E+03</pdfrwt>
<pdfrwt beam="2">  1       -1 0.39946906E-02 0.18470280E+03</pdfrwt>
<totfact> 0.81430467E+02</totfact>
</mgrwt>
</event>
<event>
 4    1  0.7354369E-001  0.2095349E+03  0.7546771E-02  0.1141935E+00
          2   -1    0    0  502    0  0.00000000000E+00  0.00000000000E+00  0.48374292851E+02  0.48374292851E+02  0.00000000000E+00 0. -1.
         -2   -1    0    0    0  501 -0.00000000000E+00 -0.00000000000E+00 -0.13801996398E+04  0.13801996398E+04  0.00000000000E+00 0.  1.
          6    1    1    2  502    0 -0.47314688796E+02  0.10833826503E+03 -0.24794265778E+03  0.32462350653E+03  0.17300000000E+03 0. -1.
         -6    1    1    2    0  501  0.47314688796E+02 -0.10833826503E+03 -0.10838826892E+04  0.11039504261E+04  0.17300000000E+03 0.  1.
<mgrwt>
<rscale>  2 0.20953486E+03</rscale>
<asrwt>0</asrwt>
<pdfrwt beam="1">  1        2 0.74422008E-02 0.20953486E+03</pdfrwt>
<pdfrwt beam="2">  1       -2 0.21233835E+00 0.20953486E+03</pdfrwt>
<totfact> 0.11295315E+02</totfact>
</mgrwt>
</event>
<event>
 4    1  0.7354369E-001  0.1857351E+03  0.7546771E-02  0.1162365E+00
         -2   -1    0    0    0  501 -0.00000000000E+00  0.00000000000E+00  0.30226462437E+02  0.30226462437E+02  0.00000000000E+00 0. -1.
          2   -1    0    0  502    0  0.00000000000E+00 -0.00000000000E+00 -0.14170900719E+04  0.14170900719E+04  0.00000000000E+00 0.  1.
          6    1    1    2  502    0  0.61326137052E+02  0.28418613837E+02 -0.10126758333E+04  0.10295678006E+04  0.17300000000E+03 0.  1.
         -6    1    1    2    0  501 -0.61326137052E+02 -0.28418613837E+02 -0.37418777612E+03  0.41774873368E+03  0.17300000000E+03 0. -1.
<mgrwt>
<rscale>  2 0.18573506E+03</rscale>
<asrwt>0</asrwt>
<pdfrwt beam="1">  1        2 0.21801388E+00 0.18573506E+03</pdfrwt>
<pdfrwt beam="2">  1       -2 0.46502245E-02 0.18573506E+03</pdfrwt>
<totfact> 0.32960833E+03</totfact>
</mgrwt>
</event>
<event>
 4    1  0.7354369E-001  0.2157451E+03  0.7546771E-02  0.1137096E+00
         -2   -1    0    0    0  501 -0.00000000000E+00  0.00000000000E+00  0.62488677133E+02  0.62488677133E+02  0.00000000000E+00 0. -1.
          2   -1    0    0  502    0  0.00000000000E+00 -0.00000000000E+00 -0.10458353785E+04  0.10458353785E+04  0.00000000000E+00 0.  1.
          6    1    1    2  502    0  0.10318156583E+03  0.77268966043E+02 -0.19439484381E+03  0.29040537864E+03  0.17300000000E+03 0. -1.
         -6    1    1    2    0  501 -0.10318156583E+03 -0.77268966043E+02 -0.78895185759E+03  0.81791867703E+03  0.17300000000E+03 0.  1.
<mgrwt>
<rscale>  2 0.21574505E+03</rscale>
<asrwt>0</asrwt>
<pdfrwt beam="1">  1        2 0.16089775E+00 0.21574505E+03</pdfrwt>
<pdfrwt beam="2">  1       -2 0.96136427E-02 0.21574505E+03</pdfrwt>
<totfact> 0.17383560E+03</totfact>
</mgrwt>
</event>
<event>
 4    1  0.7354369E-001  0.1881301E+03  0.7546771E-02  0.1160159E+00
         -2   -1    0    0    0  501 -0.00000000000E+00  0.00000000000E+00  0.73596752510E+02  0.73596752510E+02  0.00000000000E+00 0. -1.
          2   -1    0    0  502    0  0.00000000000E+00 -0.00000000000E+00 -0.51004417843E+03  0.51004417843E+03  0.00000000000E+00 0.  1.
          6    1    1    2  502    0  0.21551958471E+01 -0.73886897432E+02 -0.28797680088E+03  0.34398191279E+03  0.17300000000E+03 0.  1.
         -6    1    1    2    0  501 -0.21551958471E+01  0.73886897432E+02 -0.14847062504E+03  0.23965901815E+03  0.17300000000E+03 0. -1.
<mgrwt>
<rscale>  2 0.18813006E+03</rscale>
<asrwt>0</asrwt>
<pdfrwt beam="1">  1        2 0.78468335E-01 0.18813006E+03</pdfrwt>
<pdfrwt beam="2">  1       -2 0.11322577E-01 0.18813006E+03</pdfrwt>
<totfact> 0.32560602E+03</totfact>
</mgrwt>
</event>
<event>
 4    1  0.7354369E-001  0.2201543E+03  0.7546771E-02  0.1133768E+00
         -2   -1    0    0    0  501 -0.00000000000E+00  0.00000000000E+00  0.27850572490E+02  0.27850572490E+02  0.00000000000E+00 0.  1.
          2   -1    0    0  502    0  0.00000000000E+00 -0.00000000000E+00 -0.17662282274E+04  0.17662282274E+04  0.00000000000E+00 0. -1.
          6    1    1    2  502    0  0.11593887891E+03  0.71393778463E+02 -0.97790937212E+03  0.10023844748E+04  0.17300000000E+03 0.  1.
         -6    1    1    2    0  501 -0.11593887891E+03 -0.71393778463E+02 -0.76046828280E+03  0.79169432510E+03  0.17300000000E+03 0. -1.
<mgrwt>
<rscale>  2 0.22015425E+03</rscale>
<asrwt>0</asrwt>
<pdfrwt beam="1">  1        2 0.27172746E+00 0.22015425E+03</pdfrwt>
<pdfrwt beam="2">  1       -2 0.42847028E-02 0.22015425E+03</pdfrwt>
<totfact> 0.24444441E+03</totfact>
</mgrwt>
</event>
<event>
 4    1  0.7354369E-001  0.2228238E+03  0.7546771E-02  0.1131795E+00
          1   -1    0    0  502    0  0.00000000000E+00  0.00000000000E+00  0.21984905819E+03  0.21984905819E+03  0.00000000000E+00 0. -1.
         -1   -1    0    0    0  501 -0.00000000000E+00 -0.00000000000E+00 -0.22584754847E+03  0.22584754847E+03  0.00000000000E+00 0.  1.
          6    1    1    2  502    0  0.92128779282E+02 -0.10598935387E+03 -0.16150243496E+01  0.22282967354E+03  0.17300000000E+03 0. -1.
         -6    1    1    2    0  501 -0.92128779282E+02  0.10598935387E+03 -0.43834659272E+01  0.22286693312E+03  0.17300000000E+03 0. -1.
<mgrwt>
<rscale>  2 0.22282382E+03</rscale>
<asrwt>0</asrwt>
<pdfrwt beam="1">  1        1 0.33822932E-01 0.22282382E+03</pdfrwt>
<pdfrwt beam="2">  1       -1 0.34745777E-01 0.22282382E+03</pdfrwt>
<totfact> 0.10285438E+03</totfact>
</mgrwt>
</event>
<event>
 4    1  0.7354369E-001  0.2483024E+03  0.7546771E-02  0.1114382E+00
          2   -1    0    0  502    0  0.00000000000E+00  0.00000000000E+00  0.28667321265E+03  0.28667321265E+03  0.00000000000E+00 0. -1.
         -2   -1    0    0    0  501 -0.00000000000E+00 -0.00000000000E+00 -0.30287158281E+03  0.30287158281E+03  0.00000000000E+00 0.  1.
          6    1    1    2  502    0 -0.15219644527E+03  0.92527378277E+02 -0.16681311910E+03  0.29913323184E+03  0.17300000000E+03 0.  1.
         -6    1    1    2    0  501  0.15219644527E+03 -0.92527378277E+02  0.15061474894E+03  0.29041156362E+03  0.17300000000E+03 0. -1.
<mgrwt>
<rscale>  2 0.24830238E+03</rscale>
<asrwt>0</asrwt>
<pdfrwt beam="1">  1        2 0.44103571E-01 0.24830238E+03</pdfrwt>
<pdfrwt beam="2">  1       -2 0.46595628E-01 0.24830238E+03</pdfrwt>
<totfact> 0.51007469E+02</totfact>
</mgrwt>
</event>
<event>
 4    1  0.7354369E-001  0.2060133E+03  0.7546771E-02  0.1144762E+00
          2   -1    0    0  502    0  0.00000000000E+00  0.00000000000E+00  0.23109511060E+04  0.23109511060E+04  0.00000000000E+00 0.  1.
         -2   -1    0    0    0  501 -0.00000000000E+00 -0.00000000000E+00 -0.18378044759E+02  0.18378044759E+02  0.00000000000E+00 0. -1.
          6    1    1    2  502    0  0.11076494729E+03  0.15608074424E+02  0.11768654081E+04  0.11947609277E+04  0.17300000000E+03 0. -1.
         -6    1    1    2    0  501 -0.11076494729E+03 -0.15608074424E+02  0.11157076532E+04  0.11345682231E+04  0.17300000000E+03 0.  1.
<mgrwt>
<rscale>  2 0.20601331E+03</rscale>
<asrwt>0</asrwt>
<pdfrwt beam="1">  1        2 0.35553071E+00 0.20601331E+03</pdfrwt>
<pdfrwt beam="2">  1       -2 0.28273933E-02 0.20601331E+03</pdfrwt>
<totfact> 0.23603075E+03</totfact>
</mgrwt>
</event>
<event>
 4    1  0.7354369E-001  0.1814555E+03  0.7546771E-02  0.1166402E+00
          1   -1    0    0  502    0  0.00000000000E+00  0.00000000000E+00  0.10380877796E+03  0.10380877796E+03  0.00000000000E+00 0. -1.
         -1   -1    0    0    0  501 -0.00000000000E+00 -0.00000000000E+00 -0.32159933282E+03  0.32159933282E+03  0.00000000000E+00 0.  1.
          6    1    1    2  502    0 -0.36016543012E+02  0.41229759164E+02 -0.83961454058E+02  0.19993901615E+03  0.17300000000E+03 0. -1.
         -6    1    1    2    0  501  0.36016543012E+02 -0.41229759164E+02 -0.13382910081E+03  0.22546909463E+03  0.17300000000E+03 0.  1.
<mgrwt>
<rscale>  2 0.18145546E+03</rscale>
<asrwt>0</asrwt>
<pdfrwt beam="1">  1        1 0.15970581E-01 0.18145546E+03</pdfrwt>
<pdfrwt beam="2">  1       -1 0.49476820E-01 0.18145546E+03</pdfrwt>
<totfact> 0.14211928E+03</totfact>
</mgrwt>
</event>
<event>
 4    1  0.7354369E-001  0.2005760E+03  0.7546771E-02  0.1149254E+00
          2   -1    0    0  502    0  0.00000000000E+00  0.00000000000E+00  0.15923384137E+03  0.15923384137E+03  0.00000000000E+00 0. -1.
         -2   -1    0    0    0  501 -0.00000000000E+00 -0.00000000000E+00 -0.26189284278E+03  0.26189284278E+03  0.00000000000E+00 0.  1.
          6    1    1    2  502    0  0.77655679108E+02  0.65355245167E+02 -0.11776262761E+02  0.20092136007E+03  0.17300000000E+03 0. -1.
         -6    1    1    2    0  501 -0.77655679108E+02 -0.65355245167E+02 -0.90882738650E+02  0.22020532408E+03  0.17300000000E+03 0.  1.
<mgrwt>
<rscale>  2 0.20057595E+03</rscale>
<asrwt>0</asrwt>
<pdfrwt beam="1">  1        2 0.24497514E-01 0.20057595E+03</pdfrwt>
<pdfrwt beam="2">  1       -2 0.40291206E-01 0.20057595E+03</pdfrwt>
<totfact> 0.12828840E+03</totfact>
</mgrwt>
</event>
<event>
 4    1  0.7354369E-001  0.1896213E+03  0.7546771E-02  0.1158803E+00
         -3   -1    0    0    0  501 -0.00000000000E+00  0.00000000000E+00  0.57588891623E+03  0.57588891623E+03  0.00000000000E+00 0. -1.
          3   -1    0    0  502    0  0.00000000000E+00 -0.00000000000E+00 -0.63691903070E+02  0.63691903070E+02  0.00000000000E+00 0.  1.
          6    1    1    2  502    0 -0.46834686874E+02 -0.61917200592E+02  0.30100335162E+03  0.35575166242E+03  0.17300000000E+03 0.  1.
         -6    1    1    2    0  501  0.46834686874E+02  0.61917200592E+02  0.21119366154E+03  0.28382915689E+03  0.17300000000E+03 0. -1.
<mgrwt>
<rscale>  2 0.18962127E+03</rscale>
<asrwt>0</asrwt>
<pdfrwt beam="1">  1        3 0.97987547E-02 0.18962127E+03</pdfrwt>
<pdfrwt beam="2">  1       -3 0.88598291E-01 0.18962127E+03</pdfrwt>
<totfact> 0.22050172E+02</totfact>
</mgrwt>
</event>
<event>
 4    1  0.7354369E-001  0.5084552E+03  0.7546771E-02  0.1011595E+00
         -1   -1    0    0    0  501 -0.00000000000E+00  0.00000000000E+00  0.22016260690E+03  0.22016260690E+03  0.00000000000E+00 0. -1.
          1   -1    0    0  502    0  0.00000000000E+00 -0.00000000000E+00 -0.12372509111E+04  0.12372509111E+04  0.00000000000E+00 0.  1.
          6    1    1    2  502    0  0.11349335046E+03  0.46445337284E+03 -0.67297595362E+03  0.84345913375E+03  0.17300000000E+03 0.  1.
         -6    1    1    2    0  501 -0.11349335046E+03 -0.46445337284E+03 -0.34411235061E+03  0.61395438429E+03  0.17300000000E+03 0. -1.
<mgrwt>
<rscale>  2 0.50845519E+03</rscale>
<asrwt>0</asrwt>
<pdfrwt beam="1">  1        1 0.19034630E+00 0.50845519E+03</pdfrwt>
<pdfrwt beam="2">  1       -1 0.33871170E-01 0.50845519E+03</pdfrwt>
<totfact> 0.86652120E+01</totfact>
</mgrwt>
</event>
<event>
 4    1  0.7354369E-001  0.1960718E+03  0.7546771E-02  0.1153096E+00
         -3   -1    0    0    0  501 -0.00000000000E+00  0.00000000000E+00  0.10605310156E+03  0.10605310156E+03  0.00000000000E+00 0. -1.
          3   -1    0    0  502    0  0.00000000000E+00 -0.00000000000E+00 -0.46107376419E+03  0.46107376419E+03  0.00000000000E+00 0.  1.
          6    1    1    2  502    0  0.63827091310E+02  0.66642801604E+02 -0.30862386832E+03  0.36564033242E+03  0.17300000000E+03 0.  1.
         -6    1    1    2    0  501 -0.63827091310E+02 -0.66642801604E+02 -0.46396794310E+02  0.20148653333E+03  0.17300000000E+03 0. -1.
<mgrwt>
<rscale>  2 0.19607183E+03</rscale>
<asrwt>0</asrwt>
<pdfrwt beam="1">  1        3 0.70934426E-01 0.19607183E+03</pdfrwt>
<pdfrwt beam="2">  1       -3 0.16315862E-01 0.19607183E+03</pdfrwt>
<totfact> 0.15145214E+02</totfact>
</mgrwt>
</event>
<event>
 4    1  0.7354369E-001  0.1880670E+03  0.7546771E-02  0.1160216E+00
          1   -1    0    0  502    0  0.00000000000E+00  0.00000000000E+00  0.10948267011E+04  0.10948267011E+04  0.00000000000E+00 0.  1.
         -1   -1    0    0    0  501 -0.00000000000E+00 -0.00000000000E+00 -0.13829091856E+03  0.13829091856E+03  0.00000000000E+00 0. -1.
          6    1    1    2  502    0 -0.25783539329E+02  0.69104204366E+02 -0.61491557790E+02  0.19786458410E+03  0.17300000000E+03 0. -1.
         -6    1    1    2    0  501  0.25783539329E+02 -0.69104204366E+02  0.10180273404E+04  0.10352530356E+04  0.17300000000E+03 0.  1.
<mgrwt>
<rscale>  2 0.18806696E+03</rscale>
<asrwt>0</asrwt>
<pdfrwt beam="1">  1        1 0.16843487E+00 0.18806696E+03</pdfrwt>
<pdfrwt beam="2">  1       -1 0.21275527E-01 0.18806696E+03</pdfrwt>
<totfact> 0.25366370E+02</totfact>
</mgrwt>
</event>
<event>
 4    1  0.7354369E-001  0.2019458E+03  0.7546771E-02  0.1148108E+00
         -1   -1    0    0    0  501 -0.00000000000E+00  0.00000000000E+00  0.60644581216E+02  0.60644581216E+02  0.00000000000E+00 0.  1.
          1   -1    0    0  502    0  0.00000000000E+00 -0.00000000000E+00 -0.90503593555E+03  0.90503593555E+03  0.00000000000E+00 0. -1.
          6    1    1    2  502    0 -0.66586475803E+02 -0.80120731545E+02 -0.66695374179E+03  0.69685678878E+03  0.17300000000E+03 0. -1.
         -6    1    1    2    0  501  0.66586475803E+02  0.80120731545E+02 -0.17743761255E+03  0.26882372799E+03  0.17300000000E+03 0.  1.
<mgrwt>
<rscale>  2 0.20194576E+03</rscale>
<asrwt>0</asrwt>
<pdfrwt beam="1">  1        1 0.13923629E+00 0.20194576E+03</pdfrwt>
<pdfrwt beam="2">  1       -1 0.93299363E-02 0.20194576E+03</pdfrwt>
<totfact> 0.12856493E+03</totfact>
</mgrwt>
</event>
<event>
 4    1  0.7354369E-001  0.2187354E+03  0.7546771E-02  0.1134829E+00
          2   -1    0    0  502    0  0.00000000000E+00  0.00000000000E+00  0.57046860392E+03  0.57046860392E+03  0.00000000000E+00 0.  1.
         -2   -1    0    0    0  501 -0.00000000000E+00 -0.00000000000E+00 -0.88218197772E+02  0.88218197772E+02  0.00000000000E+00 0. -1.
          6    1    1    2  502    0 -0.72211469241E+02 -0.11270166746E+03  0.31424382417E+03  0.38287640717E+03  0.17300000000E+03 0.  1.
         -6    1    1    2    0  501  0.72211469241E+02  0.11270166746E+03  0.16800658198E+03  0.27581039452E+03  0.17300000000E+03 0.  1.
<mgrwt>
<rscale>  2 0.21873537E+03</rscale>
<asrwt>0</asrwt>
<pdfrwt beam="1">  1        2 0.87764398E-01 0.21873537E+03</pdfrwt>
<pdfrwt beam="2">  1       -2 0.13572031E-01 0.21873537E+03</pdfrwt>
<totfact> 0.21494742E+03</totfact>
</mgrwt>
</event>
<event>
 4    1  0.7354369E-001  0.1745587E+03  0.7546771E-02  0.1173176E+00
         -2   -1    0    0    0  501 -0.00000000000E+00  0.00000000000E+00  0.86062497366E+02  0.86062497366E+02  0.00000000000E+00 0.  1.
          2   -1    0    0  502    0  0.00000000000E+00 -0.00000000000E+00 -0.53238160461E+03  0.53238160461E+03  0.00000000000E+00 0. -1.
          6    1    1    2  502    0 -0.14559279192E+02 -0.18159747467E+02 -0.40212473336E+03  0.43837774831E+03  0.17300000000E+03 0. -1.
         -6    1    1    2    0  501  0.14559279192E+02  0.18159747467E+02 -0.44194373888E+02  0.18006635366E+03  0.17300000000E+03 0.  1.
<mgrwt>
<rscale>  2 0.17455873E+03</rscale>
<asrwt>0</asrwt>
<pdfrwt beam="1">  1        2 0.81904860E-01 0.17455873E+03</pdfrwt>
<pdfrwt beam="2">  1       -2 0.13240385E-01 0.17455873E+03</pdfrwt>
<totfact> 0.24064890E+03</totfact>
</mgrwt>
</event>
<event>
 4    1  0.7354369E-001  0.1912216E+03  0.7546771E-02  0.1157364E+00
          1   -1    0    0  502    0  0.00000000000E+00  0.00000000000E+00  0.44949058699E+03  0.44949058699E+03  0.00000000000E+00 0. -1.
         -1   -1    0    0    0  501 -0.00000000000E+00 -0.00000000000E+00 -0.82605073796E+02  0.82605073796E+02  0.00000000000E+00 0.  1.
          6    1    1    2  502    0 -0.79195007376E+02 -0.19100709610E+02  0.15063817540E+03  0.24342872918E+03  0.17300000000E+03 0. -1.
         -6    1    1    2    0  501  0.79195007376E+02  0.19100709610E+02  0.21624733779E+03  0.28866693160E+03  0.17300000000E+03 0. -1.
<mgrwt>
<rscale>  2 0.19122156E+03</rscale>
<asrwt>0</asrwt>
<pdfrwt beam="1">  1        1 0.69152397E-01 0.19122156E+03</pdfrwt>
<pdfrwt beam="2">  1       -1 0.12708473E-01 0.19122156E+03</pdfrwt>
<totfact> 0.21541994E+03</totfact>
</mgrwt>
</event>
<event>
 4    1  0.7354369E-001  0.1929986E+03  0.7546771E-02  0.1155784E+00
          2   -1    0    0  502    0  0.00000000000E+00  0.00000000000E+00  0.62362070363E+03  0.62362070363E+03  0.00000000000E+00 0. -1.
         -2   -1    0    0    0  501 -0.00000000000E+00 -0.00000000000E+00 -0.67100877222E+02  0.67100877222E+02  0.00000000000E+00 0.  1.
          6    1    1    2  502    0 -0.70544228365E+02  0.48404350135E+02  0.39272873046E+03  0.43758921947E+03  0.17300000000E+03 0.  1.
         -6    1    1    2    0  501  0.70544228365E+02 -0.48404350135E+02  0.16379109595E+03  0.25313236139E+03  0.17300000000E+03 0.  1.
<mgrwt>
<rscale>  2 0.19299863E+03</rscale>
<asrwt>0</asrwt>
<pdfrwt beam="1">  1        2 0.95941643E-01 0.19299863E+03</pdfrwt>
<pdfrwt beam="2">  1       -2 0.10323212E-01 0.19299863E+03</pdfrwt>
<totfact> 0.30039297E+03</totfact>
</mgrwt>
</event>
<event>
 4    1  0.7354369E-001  0.3473880E+03  0.7546771E-02  0.1063692E+00
          2   -1    0    0  502    0  0.00000000000E+00  0.00000000000E+00  0.16645166873E+04  0.16645166873E+04  0.00000000000E+00 0.  1.
         -2   -1    0    0    0  501 -0.00000000000E+00 -0.00000000000E+00 -0.73615941948E+02  0.73615941948E+02  0.00000000000E+00 0. -1.
          6    1    1    2  502    0  0.11982177803E+03  0.27639128896E+03  0.90242418733E+03  0.96697870555E+03  0.17300000000E+03 0.  1.
         -6    1    1    2    0  501 -0.11982177803E+03 -0.27639128896E+03  0.68847655806E+03  0.77115392374E+03  0.17300000000E+03 0. -1.
<mgrwt>
<rscale>  2 0.34738797E+03</rscale>
<asrwt>0</asrwt>
<pdfrwt beam="1">  1        2 0.25607946E+00 0.34738797E+03</pdfrwt>
<pdfrwt beam="2">  1       -2 0.11325531E-01 0.34738797E+03</pdfrwt>
<totfact> 0.60178622E+02</totfact>
</mgrwt>
</event>
<event>
 4    1  0.7354369E-001  0.1996681E+03  0.7546771E-02  0.1150019E+00
         -1   -1    0    0    0  501 -0.00000000000E+00  0.00000000000E+00  0.37301617116E+03  0.37301617116E+03  0.00000000000E+00 0. -1.
          1   -1    0    0  502    0  0.00000000000E+00 -0.00000000000E+00 -0.11226802552E+03  0.11226802552E+03  0.00000000000E+00 0.  1.
          6    1    1    2  502    0 -0.16977127082E+02  0.98235038478E+02  0.18353838575E+03  0.27120782561E+03  0.17300000000E+03 0. -1.
         -6    1    1    2    0  501  0.16977127082E+02 -0.98235038478E+02  0.77209759884E+02  0.21407637107E+03  0.17300000000E+03 0.  1.
<mgrwt>
<rscale>  2 0.19966809E+03</rscale>
<asrwt>0</asrwt>
<pdfrwt beam="1">  1        1 0.17272004E-01 0.19966809E+03</pdfrwt>
<pdfrwt beam="2">  1       -1 0.57387103E-01 0.19966809E+03</pdfrwt>
<totfact> 0.97557288E+02</totfact>
</mgrwt>
</event>
<event>
 4    1  0.7354369E-001  0.2407291E+03  0.7546771E-02  0.1119308E+00
          2   -1    0    0  502    0  0.00000000000E+00  0.00000000000E+00  0.12704346426E+04  0.12704346426E+04  0.00000000000E+00 0. -1.
         -2   -1    0    0    0  501 -0.00000000000E+00 -0.00000000000E+00 -0.69735398780E+02  0.69735398780E+02  0.00000000000E+00 0.  1.
          6    1    1    2  502    0  0.15041384444E+03 -0.73465337270E+02  0.20625699278E+03  0.31700540603E+03  0.17300000000E+03 0.  1.
         -6    1    1    2    0  501 -0.15041384444E+03  0.73465337270E+02  0.99444225105E+03  0.10231646354E+04  0.17300000000E+03 0. -1.
<mgrwt>
<rscale>  2 0.24072906E+03</rscale>
<asrwt>0</asrwt>
<pdfrwt beam="1">  1        2 0.19545147E+00 0.24072906E+03</pdfrwt>
<pdfrwt beam="2">  1       -2 0.10728524E-01 0.24072906E+03</pdfrwt>
<totfact> 0.10838958E+03</totfact>
</mgrwt>
</event>
<event>
 4    1  0.7354369E-001  0.1970450E+03  0.7546771E-02  0.1152256E+00
         -2   -1    0    0    0  501 -0.00000000000E+00  0.00000000000E+00  0.43680513626E+03  0.43680513626E+03  0.00000000000E+00 0.  1.
          2   -1    0    0  502    0  0.00000000000E+00 -0.00000000000E+00 -0.10531162118E+03  0.10531162118E+03  0.00000000000E+00 0. -1.
          6    1    1    2  502    0  0.60579650686E+02  0.72303807586E+02  0.58703539862E+02  0.20560359982E+03  0.17300000000E+03 0. -1.
         -6    1    1    2    0  501 -0.60579650686E+02 -0.72303807586E+02  0.27278997522E+03  0.33651315762E+03  0.17300000000E+03 0.  1.
<mgrwt>
<rscale>  2 0.19704501E+03</rscale>
<asrwt>0</asrwt>
<pdfrwt beam="1">  1        2 0.16201788E-01 0.19704501E+03</pdfrwt>
<pdfrwt beam="2">  1       -2 0.67200789E-01 0.19704501E+03</pdfrwt>
<totfact> 0.73605488E+02</totfact>
</mgrwt>
</event>
<event>
 4    1  0.7354369E-001  0.1964489E+03  0.7546771E-02  0.1152770E+00
         -2   -1    0    0    0  501 -0.00000000000E+00  0.00000000000E+00  0.76683449018E+02  0.76683449018E+02  0.00000000000E+00 0. -1.
          2   -1    0    0  502    0  0.00000000000E+00 -0.00000000000E+00 -0.82133589057E+03  0.82133589057E+03  0.00000000000E+00 0.  1.
          6    1    1    2  502    0 -0.10971690944E+02 -0.92427204533E+02 -0.65174566935E+03  0.68070888319E+03  0.17300000000E+03 0.  1.
         -6    1    1    2    0  501  0.10971690944E+02  0.92427204533E+02 -0.92906772209E+02  0.21731045640E+03  0.17300000000E+03 0. -1.
<mgrwt>
<rscale>  2 0.19644889E+03</rscale>
<asrwt>0</asrwt>
<pdfrwt beam="1">  1        2 0.12635936E+00 0.19644889E+03</pdfrwt>
<pdfrwt beam="2">  1       -2 0.11797454E-01 0.19644889E+03</pdfrwt>
<totfact> 0.17370049E+03</totfact>
</mgrwt>
</event>
<event>
 4    1  0.7354369E-001  0.1966841E+03  0.7546771E-02  0.1152567E+00
         -4   -1    0    0    0  501 -0.00000000000E+00  0.00000000000E+00  0.34644301696E+03  0.34644301696E+03  0.00000000000E+00 0. -1.
          4   -1    0    0  502    0  0.00000000000E+00 -0.00000000000E+00 -0.14735071751E+03  0.14735071751E+03  0.00000000000E+00 0.  1.
          6    1    1    2  502    0  0.43391241601E+01  0.93470882111E+02  0.22105360539E+03  0.29588736076E+03  0.17300000000E+03 0. -1.
         -6    1    1    2    0  501 -0.43391241601E+01 -0.93470882111E+02 -0.21961305936E+02  0.19790637372E+03  0.17300000000E+03 0.  1.
<mgrwt>
<rscale>  2 0.19668410E+03</rscale>
<asrwt>0</asrwt>
<pdfrwt beam="1">  1        4 0.22669341E-01 0.19668410E+03</pdfrwt>
<pdfrwt beam="2">  1       -4 0.53298925E-01 0.19668410E+03</pdfrwt>
<totfact> 0.10821862E+02</totfact>
</mgrwt>
</event>
<event>
 4    1  0.7354369E-001  0.2720621E+03  0.7546771E-02  0.1100105E+00
         -2   -1    0    0    0  501 -0.00000000000E+00  0.00000000000E+00  0.72027595935E+02  0.72027595935E+02  0.00000000000E+00 0. -1.
          2   -1    0    0  502    0  0.00000000000E+00 -0.00000000000E+00 -0.10285255128E+04  0.10285255128E+04  0.00000000000E+00 0.  1.
          6    1    1    2  502    0 -0.15963590623E+03  0.13640072915E+03 -0.46201976414E+03  0.53617165528E+03  0.17300000000E+03 0. -1.
         -6    1    1    2    0  501  0.15963590623E+03 -0.13640072915E+03 -0.49447815268E+03  0.56438145340E+03  0.17300000000E+03 0.  1.
<mgrwt>
<rscale>  2 0.27206209E+03</rscale>
<asrwt>0</asrwt>
<pdfrwt beam="1">  1        2 0.15823469E+00 0.27206209E+03</pdfrwt>
<pdfrwt beam="2">  1       -2 0.11081169E-01 0.27206209E+03</pdfrwt>
<totfact> 0.14193058E+03</totfact>
</mgrwt>
</event>
<event>
 4    1  0.7354369E-001  0.3071850E+03  0.7546771E-02  0.1081703E+00
         -2   -1    0    0    0  501 -0.00000000000E+00  0.00000000000E+00  0.18146185287E+03  0.18146185287E+03  0.00000000000E+00 0. -1.
          2   -1    0    0  502    0  0.00000000000E+00 -0.00000000000E+00 -0.83992266191E+03  0.83992266191E+03  0.00000000000E+00 0.  1.
          6    1    1    2  502    0  0.21566233568E+03 -0.13387824945E+03 -0.14054574567E+02  0.30750635729E+03  0.17300000000E+03 0. -1.
         -6    1    1    2    0  501 -0.21566233568E+03  0.13387824945E+03 -0.64440623448E+03  0.71387815749E+03  0.17300000000E+03 0.  1.
<mgrwt>
<rscale>  2 0.30718501E+03</rscale>
<asrwt>0</asrwt>
<pdfrwt beam="1">  1        2 0.12921887E+00 0.30718501E+03</pdfrwt>
<pdfrwt beam="2">  1       -2 0.27917208E-01 0.30718501E+03</pdfrwt>
<totfact> 0.38971341E+02</totfact>
</mgrwt>
</event>
<event>
 4    1  0.7354369E-001  0.1895778E+03  0.7546771E-02  0.1158843E+00
         -1   -1    0    0    0  501 -0.00000000000E+00  0.00000000000E+00  0.27019261404E+03  0.27019261404E+03  0.00000000000E+00 0.  1.
          1   -1    0    0  502    0  0.00000000000E+00 -0.00000000000E+00 -0.18538927975E+03  0.18538927975E+03  0.00000000000E+00 0. -1.
          6    1    1    2  502    0  0.35582789226E+02 -0.68881239947E+02 -0.78672588851E+02  0.20525383393E+03  0.17300000000E+03 0.  1.
         -6    1    1    2    0  501 -0.35582789226E+02  0.68881239947E+02  0.16347592315E+03  0.25032805986E+03  0.17300000000E+03 0.  1.
<mgrwt>
<rscale>  2 0.18957785E+03</rscale>
<asrwt>0</asrwt>
<pdfrwt beam="1">  1        1 0.28521427E-01 0.18957785E+03</pdfrwt>
<pdfrwt beam="2">  1       -1 0.41568095E-01 0.18957785E+03</pdfrwt>
<totfact> 0.92840722E+02</totfact>
</mgrwt>
</event>
<event>
 4    1  0.7354369E-001  0.1841749E+03  0.7546771E-02  0.1163823E+00
          2   -1    0    0  502    0  0.00000000000E+00  0.00000000000E+00  0.19597618920E+03  0.19597618920E+03  0.00000000000E+00 0. -1.
         -2   -1    0    0    0  501 -0.00000000000E+00 -0.00000000000E+00 -0.17365120032E+03  0.17365120032E+03  0.00000000000E+00 0.  1.
          6    1    1    2  502    0  0.39500705684E+02  0.49305898758E+02  0.21723268446E+02  0.18545155107E+03  0.17300000000E+03 0. -1.
         -6    1    1    2    0  501 -0.39500705684E+02 -0.49305898758E+02  0.60172042713E+00  0.18417583845E+03  0.17300000000E+03 0.  1.
<mgrwt>
<rscale>  2 0.18417486E+03</rscale>
<asrwt>0</asrwt>
<pdfrwt beam="1">  1        2 0.30150183E-01 0.18417486E+03</pdfrwt>
<pdfrwt beam="2">  1       -2 0.26715569E-01 0.18417486E+03</pdfrwt>
<totfact> 0.21664096E+03</totfact>
</mgrwt>
</event>
<event>
 4    1  0.7354369E-001  0.1758542E+03  0.7546771E-02  0.1171877E+00
         -1   -1    0    0    0  501 -0.00000000000E+00  0.00000000000E+00  0.61472114161E+03  0.61472114161E+03  0.00000000000E+00 0. -1.
          1   -1    0    0  502    0  0.00000000000E+00 -0.00000000000E+00 -0.71092746926E+02  0.71092746926E+02  0.00000000000E+00 0.  1.
          6    1    1    2  502    0 -0.13825181702E+02  0.28364892309E+02  0.45723040873E+03  0.48988197500E+03  0.17300000000E+03 0. -1.
         -6    1    1    2    0  501  0.13825181702E+02 -0.28364892309E+02  0.86397985959E+02  0.19593191354E+03  0.17300000000E+03 0.  1.
<mgrwt>
<rscale>  2 0.17585421E+03</rscale>
<asrwt>0</asrwt>
<pdfrwt beam="1">  1        1 0.10937346E-01 0.17585421E+03</pdfrwt>
<pdfrwt beam="2">  1       -1 0.94572480E-01 0.17585421E+03</pdfrwt>
<totfact> 0.64642336E+02</totfact>
</mgrwt>
</event>
<event>
 4    1  0.7354369E-001  0.2460527E+03  0.7546771E-02  0.1115825E+00
         -2   -1    0    0    0  501 -0.00000000000E+00  0.00000000000E+00  0.38691264849E+02  0.38691264849E+02  0.00000000000E+00 0. -1.
          2   -1    0    0  502    0  0.00000000000E+00 -0.00000000000E+00 -0.22617566022E+04  0.22617566022E+04  0.00000000000E+00 0.  1.
          6    1    1    2  502    0  0.16590310270E+02 -0.17417725203E+03 -0.47300525361E+03  0.53317532151E+03  0.17300000000E+03 0. -1.
         -6    1    1    2    0  501 -0.16590310270E+02  0.17417725203E+03 -0.17500600838E+04  0.17672725456E+04  0.17300000000E+03 0. -1.
<mgrwt>
<rscale>  2 0.24605275E+03</rscale>
<asrwt>0</asrwt>
<pdfrwt beam="1">  1        2 0.34796261E+00 0.24605275E+03</pdfrwt>
<pdfrwt beam="2">  1       -2 0.59525014E-02 0.24605275E+03</pdfrwt>
<totfact> 0.81212670E+02</totfact>
</mgrwt>
</event>
<event>
 4    1  0.7354369E-001  0.4395503E+03  0.7546771E-02  0.1030885E+00
          2   -1    0    0  502    0  0.00000000000E+00  0.00000000000E+00  0.10140473730E+04  0.10140473730E+04  0.00000000000E+00 0.  1.
         -2   -1    0    0    0  501 -0.00000000000E+00 -0.00000000000E+00 -0.25931806303E+03  0.25931806303E+03  0.00000000000E+00 0. -1.
          6    1    1    2  502    0  0.29515379048E+03 -0.27597054963E+03  0.70528567926E+03  0.83104295537E+03  0.17300000000E+03 0.  1.
         -6    1    1    2    0  501 -0.29515379048E+03  0.27597054963E+03  0.49443630733E+02  0.44232248069E+03  0.17300000000E+03 0. -1.
<mgrwt>
<rscale>  2 0.43955034E+03</rscale>
<asrwt>0</asrwt>
<pdfrwt beam="1">  1        2 0.15600729E+00 0.43955034E+03</pdfrwt>
<pdfrwt beam="2">  1       -2 0.39895087E-01 0.43955034E+03</pdfrwt>
<totfact> 0.15231402E+02</totfact>
</mgrwt>
</event>
<event>
 4    1  0.7354369E-001  0.2157931E+03  0.7546771E-02  0.1137059E+00
          2   -1    0    0  502    0  0.00000000000E+00  0.00000000000E+00  0.76257185917E+03  0.76257185917E+03  0.00000000000E+00 0.  1.
         -2   -1    0    0    0  501 -0.00000000000E+00 -0.00000000000E+00 -0.61067934423E+02  0.61067934423E+02  0.00000000000E+00 0. -1.
          6    1    1    2  502    0 -0.19802035653E+02  0.12745805391E+03  0.34804493793E+03  0.40951429150E+03  0.17300000000E+03 0.  1.
         -6    1    1    2    0  501  0.19802035653E+02 -0.12745805391E+03  0.35345898682E+03  0.41412550209E+03  0.17300000000E+03 0.  1.
<mgrwt>
<rscale>  2 0.21579313E+03</rscale>
<asrwt>0</asrwt>
<pdfrwt beam="1">  1        2 0.11731874E+00 0.21579313E+03</pdfrwt>
<pdfrwt beam="2">  1       -2 0.93950673E-02 0.21579313E+03</pdfrwt>
<totfact> 0.27459034E+03</totfact>
</mgrwt>
</event>
<event>
 4    1  0.7354369E-001  0.2697580E+03  0.7546771E-02  0.1101418E+00
         -2   -1    0    0    0  501 -0.00000000000E+00  0.00000000000E+00  0.15442399713E+04  0.15442399713E+04  0.00000000000E+00 0. -1.
          2   -1    0    0  502    0  0.00000000000E+00 -0.00000000000E+00 -0.12323805799E+03  0.12323805799E+03  0.00000000000E+00 0.  1.
          6    1    1    2  502    0  0.20505490328E+03  0.28158314960E+02  0.55272646903E+02  0.27536243309E+03  0.17300000000E+03 0.  1.
         -6    1    1    2    0  501 -0.20505490328E+03 -0.28158314960E+02  0.13657292664E+04  0.13921155962E+04  0.17300000000E+03 0. -1.
<mgrwt>
<rscale>  2 0.26975805E+03</rscale>
<asrwt>0</asrwt>
<pdfrwt beam="1">  1        2 0.18959702E-01 0.26975805E+03</pdfrwt>
<pdfrwt beam="2">  1       -2 0.23757537E+00 0.26975805E+03</pdfrwt>
<totfact> 0.25176875E+01</totfact>
</mgrwt>
</event>
<event>
 4    1  0.7354369E-001  0.1926915E+03  0.7546771E-02  0.1156056E+00
         -2   -1    0    0    0  501 -0.00000000000E+00  0.00000000000E+00  0.90899679365E+02  0.90899679365E+02  0.00000000000E+00 0.  1.
          2   -1    0    0  502    0  0.00000000000E+00 -0.00000000000E+00 -0.41101002875E+03  0.41101002875E+03  0.00000000000E+00 0. -1.
          6    1    1    2  502    0  0.64886027403E+02  0.54688247526E+02 -0.17977450278E+03  0.26353154046E+03  0.17300000000E+03 0. -1.
         -6    1    1    2    0  501 -0.64886027403E+02 -0.54688247526E+02 -0.14033584660E+03  0.23837816765E+03  0.17300000000E+03 0.  1.
<mgrwt>
<rscale>  2 0.19269147E+03</rscale>
<asrwt>0</asrwt>
<pdfrwt beam="1">  1        2 0.63232312E-01 0.19269147E+03</pdfrwt>
<pdfrwt beam="2">  1       -2 0.13984566E-01 0.19269147E+03</pdfrwt>
<totfact> 0.29358582E+03</totfact>
</mgrwt>
</event>
<event>
 4    1  0.7354369E-001  0.2093322E+03  0.7546771E-02  0.1142096E+00
          1   -1    0    0  502    0  0.00000000000E+00  0.00000000000E+00  0.14963293849E+04  0.14963293849E+04  0.00000000000E+00 0. -1.
         -1   -1    0    0    0  501 -0.00000000000E+00 -0.00000000000E+00 -0.40472068806E+02  0.40472068806E+02  0.00000000000E+00 0.  1.
          6    1    1    2  502    0 -0.10827128390E+03 -0.46564948431E+02  0.32394039566E+03  0.38569073787E+03  0.17300000000E+03 0.  1.
         -6    1    1    2    0  501  0.10827128390E+03  0.46564948431E+02  0.11319169204E+04  0.11511107158E+04  0.17300000000E+03 0. -1.
<mgrwt>
<rscale>  2 0.20933219E+03</rscale>
<asrwt>0</asrwt>
<pdfrwt beam="1">  1        1 0.23020448E+00 0.20933219E+03</pdfrwt>
<pdfrwt beam="2">  1       -1 0.62264733E-02 0.20933219E+03</pdfrwt>
<totfact> 0.91403664E+02</totfact>
</mgrwt>
</event>
<event>
 4    1  0.7354369E-001  0.1735989E+03  0.7546771E-02  0.1174146E+00
         -2   -1    0    0    0  501 -0.00000000000E+00  0.00000000000E+00  0.13658332041E+03  0.13658332041E+03  0.00000000000E+00 0.  1.
          2   -1    0    0  502    0  0.00000000000E+00 -0.00000000000E+00 -0.23206311661E+03  0.23206311661E+03  0.00000000000E+00 0. -1.
          6    1    1    2  502    0  0.12304356487E+02 -0.74950763450E+01 -0.88623938106E+02  0.19491222579E+03  0.17300000000E+03 0. -1.
         -6    1    1    2    0  501 -0.12304356487E+02  0.74950763450E+01 -0.68558580922E+01  0.17373421122E+03  0.17300000000E+03 0.  1.
<mgrwt>
<rscale>  2 0.17359889E+03</rscale>
<asrwt>0</asrwt>
<pdfrwt beam="1">  1        2 0.35702018E-01 0.17359889E+03</pdfrwt>
<pdfrwt beam="2">  1       -2 0.21012819E-01 0.17359889E+03</pdfrwt>
<totfact> 0.27346395E+03</totfact>
</mgrwt>
</event>
<event>
 4    1  0.7354369E-001  0.2129527E+03  0.7546771E-02  0.1139249E+00
         -2   -1    0    0    0  501 -0.00000000000E+00  0.00000000000E+00  0.66947897289E+02  0.66947897289E+02  0.00000000000E+00 0. -1.
          2   -1    0    0  502    0  0.00000000000E+00 -0.00000000000E+00 -0.81675041936E+03  0.81675041936E+03  0.00000000000E+00 0.  1.
          6    1    1    2  502    0  0.12116038956E+03  0.27203265445E+02 -0.55742604535E+03  0.59671823643E+03  0.17300000000E+03 0.  1.
         -6    1    1    2    0  501 -0.12116038956E+03 -0.27203265445E+02 -0.19237647671E+03  0.28698008022E+03  0.17300000000E+03 0. -1.
<mgrwt>
<rscale>  2 0.21295271E+03</rscale>
<asrwt>0</asrwt>
<pdfrwt beam="1">  1        2 0.12565391E+00 0.21295271E+03</pdfrwt>
<pdfrwt beam="2">  1       -2 0.10299676E-01 0.21295271E+03</pdfrwt>
<totfact> 0.21760669E+03</totfact>
</mgrwt>
</event>
<event>
 4    1  0.7354369E-001  0.3095610E+03  0.7546771E-02  0.1080556E+00
         -1   -1    0    0    0  501 -0.00000000000E+00  0.00000000000E+00  0.16631017024E+04  0.16631017024E+04  0.00000000000E+00 0.  1.
          1   -1    0    0  502    0  0.00000000000E+00 -0.00000000000E+00 -0.67474918505E+02  0.67474918505E+02  0.00000000000E+00 0. -1.
          6    1    1    2  502    0 -0.25628005078E+03 -0.14816899986E+02  0.11284988115E+04  0.11701869819E+04  0.17300000000E+03 0.  1.
         -6    1    1    2    0  501  0.25628005078E+03  0.14816899986E+02  0.46712797237E+03  0.56038963902E+03  0.17300000000E+03 0. -1.
<mgrwt>
<rscale>  2 0.30956099E+03</rscale>
<asrwt>0</asrwt>
<pdfrwt beam="1">  1        1 0.10380758E-01 0.30956099E+03</pdfrwt>
<pdfrwt beam="2">  1       -1 0.25586177E+00 0.30956099E+03</pdfrwt>
<totfact> 0.44211498E+01</totfact>
</mgrwt>
</event>
<event>
 4    1  0.7354369E-001  0.1730373E+03  0.7546771E-02  0.1174717E+00
          1   -1    0    0  502    0  0.00000000000E+00  0.00000000000E+00  0.31228769577E+03  0.31228769577E+03  0.00000000000E+00 0. -1.
         -1   -1    0    0    0  501 -0.00000000000E+00 -0.00000000000E+00 -0.99963681416E+02  0.99963681416E+02  0.00000000000E+00 0.  1.
          6    1    1    2  502    0 -0.34117274828E+01 -0.11312858439E+01  0.64496644943E+02  0.18466655599E+03  0.17300000000E+03 0.  1.
         -6    1    1    2    0  501  0.34117274828E+01  0.11312858439E+01  0.14782736941E+03  0.22758482120E+03  0.17300000000E+03 0. -1.
<mgrwt>
<rscale>  2 0.17303734E+03</rscale>
<asrwt>0</asrwt>
<pdfrwt beam="1">  1        1 0.48044260E-01 0.17303734E+03</pdfrwt>
<pdfrwt beam="2">  1       -1 0.15379028E-01 0.17303734E+03</pdfrwt>
<totfact> 0.25254659E+03</totfact>
</mgrwt>
</event>
<event>
 4    1  0.7354369E-001  0.1793795E+03  0.7546771E-02  0.1168405E+00
         -1   -1    0    0    0  501 -0.00000000000E+00  0.00000000000E+00  0.42203949863E+02  0.42203949863E+02  0.00000000000E+00 0.  1.
          1   -1    0    0  502    0  0.00000000000E+00 -0.00000000000E+00 -0.83525220243E+03  0.83525220243E+03  0.00000000000E+00 0. -1.
          6    1    1    2  502    0 -0.43831084867E+02 -0.18078281795E+02 -0.52608048456E+03  0.55582161213E+03  0.17300000000E+03 0. -1.
         -6    1    1    2    0  501  0.43831084867E+02  0.18078281795E+02 -0.26696776801E+03  0.32163454017E+03  0.17300000000E+03 0.  1.
<mgrwt>
<rscale>  2 0.17937945E+03</rscale>
<asrwt>0</asrwt>
<pdfrwt beam="1">  1        1 0.12850032E+00 0.17937945E+03</pdfrwt>
<pdfrwt beam="2">  1       -1 0.64929161E-02 0.17937945E+03</pdfrwt>
<totfact> 0.25295078E+03</totfact>
</mgrwt>
</event>
<event>
 4    1  0.7354369E-001  0.1806629E+03  0.7546771E-02  0.1167163E+00
         -2   -1    0    0    0  501 -0.00000000000E+00  0.00000000000E+00  0.15943777641E+03  0.15943777641E+03  0.00000000000E+00 0.  1.
          2   -1    0    0  502    0  0.00000000000E+00 -0.00000000000E+00 -0.24881787776E+03  0.24881787776E+03  0.00000000000E+00 0. -1.
          6    1    1    2  502    0 -0.51670653462E+02 -0.63416825184E+01  0.41251269457E+02  0.18531254841E+03  0.17300000000E+03 0.  1.
         -6    1    1    2    0  501  0.51670653462E+02  0.63416825184E+01 -0.13063137081E+03  0.22294310576E+03  0.17300000000E+03 0. -1.
<mgrwt>
<rscale>  2 0.18066287E+03</rscale>
<asrwt>0</asrwt>
<pdfrwt beam="1">  1        2 0.38279673E-01 0.18066287E+03</pdfrwt>
<pdfrwt beam="2">  1       -2 0.24528889E-01 0.18066287E+03</pdfrwt>
<totfact> 0.19433663E+03</totfact>
</mgrwt>
</event>
<event>
 4    1  0.7354369E-001  0.1916733E+03  0.7546771E-02  0.1156961E+00
         -2   -1    0    0    0  501 -0.00000000000E+00  0.00000000000E+00  0.15169216751E+03  0.15169216751E+03  0.00000000000E+00 0. -1.
          2   -1    0    0  502    0  0.00000000000E+00 -0.00000000000E+00 -0.24229549085E+03  0.24229549085E+03  0.00000000000E+00 0.  1.
          6    1    1    2  502    0 -0.80106962375E+02  0.19812488430E+02 -0.41234362755E+02  0.19605849329E+03  0.17300000000E+03 0. -1.
         -6    1    1    2    0  501  0.80106962375E+02 -0.19812488430E+02 -0.49368960583E+02  0.19792916508E+03  0.17300000000E+03 0.  1.
<mgrwt>
<rscale>  2 0.19167332E+03</rscale>
<asrwt>0</asrwt>
<pdfrwt beam="1">  1        2 0.37276229E-01 0.19167332E+03</pdfrwt>
<pdfrwt beam="2">  1       -2 0.23337257E-01 0.19167332E+03</pdfrwt>
<totfact> 0.21859372E+03</totfact>
</mgrwt>
</event>
<event>
 4    1  0.7354369E-001  0.1891299E+03  0.7546771E-02  0.1159248E+00
          2   -1    0    0  502    0  0.00000000000E+00  0.00000000000E+00  0.90533906065E+03  0.90533906065E+03  0.00000000000E+00 0. -1.
         -2   -1    0    0    0  501 -0.00000000000E+00 -0.00000000000E+00 -0.40291379046E+02  0.40291379046E+02  0.00000000000E+00 0.  1.
          6    1    1    2  502    0  0.19886793532E+02  0.73794479152E+02  0.36668743826E+03  0.41258912624E+03  0.17300000000E+03 0.  1.
         -6    1    1    2    0  501 -0.19886793532E+02 -0.73794479152E+02  0.49836024334E+03  0.53304131346E+03  0.17300000000E+03 0. -1.
<mgrwt>
<rscale>  2 0.18912988E+03</rscale>
<asrwt>0</asrwt>
<pdfrwt beam="1">  1        2 0.13928292E+00 0.18912988E+03</pdfrwt>
<pdfrwt beam="2">  1       -2 0.61986744E-02 0.18912988E+03</pdfrwt>
<totfact> 0.41903785E+03</totfact>
</mgrwt>
</event>
<event>
 4    1  0.7354369E-001  0.1765250E+03  0.7546771E-02  0.1171209E+00
          1   -1    0    0  502    0  0.00000000000E+00  0.00000000000E+00  0.20523753110E+04  0.20523753110E+04  0.00000000000E+00 0. -1.
         -1   -1    0    0    0  501 -0.00000000000E+00 -0.00000000000E+00 -0.17473118471E+02  0.17473118471E+02  0.00000000000E+00 0.  1.
          6    1    1    2  502    0  0.19930995533E+02 -0.28893572027E+02  0.13921292544E+04  0.14032765030E+04  0.17300000000E+03 0. -1.
         -6    1    1    2    0  501 -0.19930995533E+02  0.28893572027E+02  0.64277293814E+03  0.66657192642E+03  0.17300000000E+03 0.  1.
<mgrwt>
<rscale>  2 0.17652502E+03</rscale>
<asrwt>0</asrwt>
<pdfrwt beam="1">  1        1 0.31574986E+00 0.17652502E+03</pdfrwt>
<pdfrwt beam="2">  1       -1 0.26881737E-02 0.17652502E+03</pdfrwt>
<totfact> 0.13928258E+03</totfact>
</mgrwt>
</event>
<event>
 4    1  0.7354369E-001  0.2071517E+03  0.7546771E-02  0.1143842E+00
          2   -1    0    0  502    0  0.00000000000E+00  0.00000000000E+00  0.11861890249E+04  0.11861890249E+04  0.00000000000E+00 0. -1.
         -2   -1    0    0    0  501 -0.00000000000E+00 -0.00000000000E+00 -0.56427976526E+02  0.56427976526E+02  0.00000000000E+00 0.  1.
          6    1    1    2  502    0  0.10390664015E+03 -0.46757162866E+02  0.19266753628E+03  0.28290033878E+03  0.17300000000E+03 0.  1.
         -6    1    1    2    0  501 -0.10390664015E+03  0.46757162866E+02  0.93709351210E+03  0.95971666265E+03  0.17300000000E+03 0. -1.
<mgrwt>
<rscale>  2 0.20715169E+03</rscale>
<asrwt>0</asrwt>
<pdfrwt beam="1">  1        2 0.18249060E+00 0.20715169E+03</pdfrwt>
<pdfrwt beam="2">  1       -2 0.86812280E-02 0.20715169E+03</pdfrwt>
<totfact> 0.16922901E+03</totfact>
</mgrwt>
</event>
<event>
 4    1  0.7354369E-001  0.1897613E+03  0.7546771E-02  0.1158677E+00
         -1   -1    0    0    0  501 -0.00000000000E+00  0.00000000000E+00  0.22554492948E+03  0.22554492948E+03  0.00000000000E+00 0.  1.
          1   -1    0    0  502    0  0.00000000000E+00 -0.00000000000E+00 -0.18109546729E+03  0.18109546729E+03  0.00000000000E+00 0. -1.
          6    1    1    2  502    0  0.58163225686E+02 -0.51936484125E+02 -0.47734430988E+02  0.19567303112E+03  0.17300000000E+03 0. -1.
         -6    1    1    2    0  501 -0.58163225686E+02  0.51936484125E+02  0.92183893176E+02  0.21096736564E+03  0.17300000000E+03 0.  1.
<mgrwt>
<rscale>  2 0.18976132E+03</rscale>
<asrwt>0</asrwt>
<pdfrwt beam="1">  1        1 0.27860841E-01 0.18976132E+03</pdfrwt>
<pdfrwt beam="2">  1       -1 0.34699220E-01 0.18976132E+03</pdfrwt>
<totfact> 0.13122739E+03</totfact>
</mgrwt>
</event>
<event>
 4    1  0.7354369E-001  0.2180054E+03  0.7546771E-02  0.1135379E+00
          2   -1    0    0  502    0  0.00000000000E+00  0.00000000000E+00  0.29146827233E+03  0.29146827233E+03  0.00000000000E+00 0.  1.
         -2   -1    0    0    0  501 -0.00000000000E+00 -0.00000000000E+00 -0.84913443244E+03  0.84913443244E+03  0.00000000000E+00 0. -1.
          6    1    1    2  502    0  0.11974884970E+03 -0.57075019288E+02  0.23379489787E+03  0.31966607437E+03  0.17300000000E+03 0.  1.
         -6    1    1    2    0  501 -0.11974884970E+03  0.57075019288E+02 -0.79146105798E+03  0.82093663040E+03  0.17300000000E+03 0. -1.
<mgrwt>
<rscale>  2 0.21800538E+03</rscale>
<asrwt>0</asrwt>
<pdfrwt beam="1">  1        2 0.44841274E-01 0.21800538E+03</pdfrwt>
<pdfrwt beam="2">  1       -2 0.13063606E+00 0.21800538E+03</pdfrwt>
<totfact> 0.51732673E+01</totfact>
</mgrwt>
</event>
<event>
 4    1  0.7354369E-001  0.2777982E+03  0.7546771E-02  0.1096898E+00
          1   -1    0    0  502    0  0.00000000000E+00  0.00000000000E+00  0.44846386150E+03  0.44846386150E+03  0.00000000000E+00 0. -1.
         -1   -1    0    0    0  501 -0.00000000000E+00 -0.00000000000E+00 -0.17575436290E+03  0.17575436290E+03  0.00000000000E+00 0.  1.
          6    1    1    2  502    0 -0.19087926107E+03  0.10396138279E+03  0.18147983502E+03  0.33182343488E+03  0.17300000000E+03 0.  1.
         -6    1    1    2    0  501  0.19087926107E+03 -0.10396138279E+03  0.91229663583E+02  0.29239478952E+03  0.17300000000E+03 0. -1.
<mgrwt>
<rscale>  2 0.27779824E+03</rscale>
<asrwt>0</asrwt>
<pdfrwt beam="1">  1        1 0.68994440E-01 0.27779824E+03</pdfrwt>
<pdfrwt beam="2">  1       -1 0.27039133E-01 0.27779824E+03</pdfrwt>
<totfact> 0.63906967E+02</totfact>
</mgrwt>
</event>
<event>
 4    1  0.7354369E-001  0.1880150E+03  0.7546771E-02  0.1160264E+00
         -1   -1    0    0    0  501 -0.00000000000E+00  0.00000000000E+00  0.65500089787E+02  0.65500089787E+02  0.00000000000E+00 0.  1.
          1   -1    0    0  502    0  0.00000000000E+00 -0.00000000000E+00 -0.55909171635E+03  0.55909171635E+03  0.00000000000E+00 0. -1.
          6    1    1    2  502    0  0.52313593075E+02 -0.51806535050E+02 -0.30497456170E+03  0.35827239969E+03  0.17300000000E+03 0.  1.
         -6    1    1    2    0  501 -0.52313593075E+02  0.51806535050E+02 -0.18861706487E+03  0.26631940645E+03  0.17300000000E+03 0.  1.
<mgrwt>
<rscale>  2 0.18801497E+03</rscale>
<asrwt>0</asrwt>
<pdfrwt beam="1">  1        1 0.86014109E-01 0.18801497E+03</pdfrwt>
<pdfrwt beam="2">  1       -1 0.10076937E-01 0.18801497E+03</pdfrwt>
<totfact> 0.23125670E+03</totfact>
</mgrwt>
</event>
<event>
 4    1  0.7354369E-001  0.2267390E+03  0.7546771E-02  0.1128956E+00
          2   -1    0    0  502    0  0.00000000000E+00  0.00000000000E+00  0.10242147941E+04  0.10242147941E+04  0.00000000000E+00 0.  1.
         -2   -1    0    0    0  501 -0.00000000000E+00 -0.00000000000E+00 -0.53566294581E+02  0.53566294581E+02  0.00000000000E+00 0. -1.
          6    1    1    2  502    0 -0.18341409904E+02  0.14541373478E+03  0.35013354758E+03  0.41713794208E+03  0.17300000000E+03 0.  1.
         -6    1    1    2    0  501  0.18341409904E+02 -0.14541373478E+03  0.62051495198E+03  0.66064314664E+03  0.17300000000E+03 0. -1.
<mgrwt>
<rscale>  2 0.22673897E+03</rscale>
<asrwt>0</asrwt>
<pdfrwt beam="1">  1        2 0.15757149E+00 0.22673897E+03</pdfrwt>
<pdfrwt beam="2">  1       -2 0.82409692E-02 0.22673897E+03</pdfrwt>
<totfact> 0.22836360E+03</totfact>
</mgrwt>
</event>
<event>
 4    1  0.7354369E-001  0.2556213E+03  0.7546771E-02  0.1109803E+00
          1   -1    0    0  502    0  0.00000000000E+00  0.00000000000E+00  0.14232199978E+04  0.14232199978E+04  0.00000000000E+00 0.  1.
         -1   -1    0    0    0  501 -0.00000000000E+00 -0.00000000000E+00 -0.47301936965E+02  0.47301936965E+02  0.00000000000E+00 0. -1.
          6    1    1    2  502    0 -0.68490786425E+02  0.17527772247E+03  0.81401586899E+03  0.85320812396E+03  0.17300000000E+03 0.  1.
         -6    1    1    2    0  501  0.68490786425E+02 -0.17527772247E+03  0.56190219189E+03  0.61731381085E+03  0.17300000000E+03 0. -1.
<mgrwt>
<rscale>  2 0.25562134E+03</rscale>
<asrwt>0</asrwt>
<pdfrwt beam="1">  1        1 0.21895689E+00 0.25562134E+03</pdfrwt>
<pdfrwt beam="2">  1       -1 0.72772222E-02 0.25562134E+03</pdfrwt>
<totfact> 0.80363611E+02</totfact>
</mgrwt>
</event>
<event>
 4    1  0.7354369E-001  0.2255667E+03  0.7546771E-02  0.1129800E+00
          2   -1    0    0  502    0  0.00000000000E+00  0.00000000000E+00  0.38553948521E+03  0.38553948521E+03  0.00000000000E+00 0.  1.
         -2   -1    0    0    0  501 -0.00000000000E+00 -0.00000000000E+00 -0.17347671691E+03  0.17347671691E+03  0.00000000000E+00 0. -1.
          6    1    1    2  502    0 -0.17241110839E+02  0.14371531081E+03  0.24274868852E+03  0.33137180363E+03  0.17300000000E+03 0.  1.
         -6    1    1    2    0  501  0.17241110839E+02 -0.14371531081E+03 -0.30685920221E+02  0.22764439849E+03  0.17300000000E+03 0. -1.
<mgrwt>
<rscale>  2 0.22556672E+03</rscale>
<asrwt>0</asrwt>
<pdfrwt beam="1">  1        2 0.59313767E-01 0.22556672E+03</pdfrwt>
<pdfrwt beam="2">  1       -2 0.26688726E-01 0.22556672E+03</pdfrwt>
<totfact> 0.10504974E+03</totfact>
</mgrwt>
</event>
<event>
 4    1  0.7354369E-001  0.2047401E+03  0.7546771E-02  0.1145800E+00
         -2   -1    0    0    0  501 -0.00000000000E+00  0.00000000000E+00  0.33799926693E+03  0.33799926693E+03  0.00000000000E+00 0. -1.
          2   -1    0    0  502    0  0.00000000000E+00 -0.00000000000E+00 -0.16656878784E+03  0.16656878784E+03  0.00000000000E+00 0.  1.
          6    1    1    2  502    0  0.16147844406E+02  0.10829932893E+03  0.21322373729E+03  0.29560591955E+03  0.17300000000E+03 0. -1.
         -6    1    1    2    0  501 -0.16147844406E+02 -0.10829932893E+03 -0.41793258207E+02  0.20896213522E+03  0.17300000000E+03 0.  1.
<mgrwt>
<rscale>  2 0.20474007E+03</rscale>
<asrwt>0</asrwt>
<pdfrwt beam="1">  1        2 0.25625967E-01 0.20474007E+03</pdfrwt>
<pdfrwt beam="2">  1       -2 0.51999887E-01 0.20474007E+03</pdfrwt>
<totfact> 0.74066438E+02</totfact>
</mgrwt>
</event>
<event>
 4    1  0.7354369E-001  0.1825800E+03  0.7546771E-02  0.1165329E+00
          1   -1    0    0  502    0  0.00000000000E+00  0.00000000000E+00  0.14317120941E+03  0.14317120941E+03  0.00000000000E+00 0. -1.
         -1   -1    0    0    0  501 -0.00000000000E+00 -0.00000000000E+00 -0.30589684910E+03  0.30589684910E+03  0.00000000000E+00 0.  1.
          6    1    1    2  502    0  0.23485131733E+02  0.53431296649E+02 -0.19109553613E+03  0.26429710328E+03  0.17300000000E+03 0.  1.
         -6    1    1    2    0  501 -0.23485131733E+02 -0.53431296649E+02  0.28369896438E+02  0.18477095523E+03  0.17300000000E+03 0. -1.
<mgrwt>
<rscale>  2 0.18258000E+03</rscale>
<asrwt>0</asrwt>
<pdfrwt beam="1">  1        1 0.22026340E-01 0.18258000E+03</pdfrwt>
<pdfrwt beam="2">  1       -1 0.47061053E-01 0.18258000E+03</pdfrwt>
<totfact> 0.10296934E+03</totfact>
</mgrwt>
</event>
<event>
 4    1  0.7354369E-001  0.1999207E+03  0.7546771E-02  0.1149806E+00
         -2   -1    0    0    0  501 -0.00000000000E+00  0.00000000000E+00  0.66156690751E+02  0.66156690751E+02  0.00000000000E+00 0.  1.
          2   -1    0    0  502    0  0.00000000000E+00 -0.00000000000E+00 -0.73886685378E+03  0.73886685378E+03  0.00000000000E+00 0. -1.
          6    1    1    2  502    0  0.97433909866E+02 -0.23365327233E+02 -0.16448005399E+03  0.25888606272E+03  0.17300000000E+03 0.  1.
         -6    1    1    2    0  501 -0.97433909866E+02  0.23365327233E+02 -0.50823010904E+03  0.54613748181E+03  0.17300000000E+03 0. -1.
<mgrwt>
<rscale>  2 0.19992075E+03</rscale>
<asrwt>0</asrwt>
<pdfrwt beam="1">  1        2 0.11367182E+00 0.19992075E+03</pdfrwt>
<pdfrwt beam="2">  1       -2 0.10177952E-01 0.19992075E+03</pdfrwt>
<totfact> 0.25111264E+03</totfact>
</mgrwt>
</event>
<event>
 4    1  0.7354369E-001  0.8615136E+03  0.7546771E-02  0.9475013E-01
          1   -1    0    0  502    0  0.00000000000E+00  0.00000000000E+00  0.16053334477E+04  0.16053334477E+04  0.00000000000E+00 0.  1.
         -1   -1    0    0    0  501 -0.00000000000E+00 -0.00000000000E+00 -0.46272914560E+03  0.46272914560E+03  0.00000000000E+00 0. -1.
          6    1    1    2  502    0 -0.78434686219E+03  0.31157139325E+03  0.54121658651E+03  0.10174090263E+04  0.17300000000E+03 0. -1.
         -6    1    1    2    0  501  0.78434686219E+03 -0.31157139325E+03  0.60138771558E+03  0.10506535670E+04  0.17300000000E+03 0.  1.
<mgrwt>
<rscale>  2 0.86151363E+03</rscale>
<asrwt>0</asrwt>
<pdfrwt beam="1">  1        1 0.24697437E+00 0.86151363E+03</pdfrwt>
<pdfrwt beam="2">  1       -1 0.71189100E-01 0.86151363E+03</pdfrwt>
<totfact> 0.11284573E+01</totfact>
</mgrwt>
</event>
<event>
 4    1  0.7354369E-001  0.1785488E+03  0.7546771E-02  0.1169215E+00
          3   -1    0    0  502    0  0.00000000000E+00  0.00000000000E+00  0.16304177171E+03  0.16304177171E+03  0.00000000000E+00 0. -1.
         -3   -1    0    0    0  501 -0.00000000000E+00 -0.00000000000E+00 -0.19660567065E+03  0.19660567065E+03  0.00000000000E+00 0.  1.
          6    1    1    2  502    0  0.22280730259E+02 -0.38134587971E+02 -0.30078526218E+02  0.18106461686E+03  0.17300000000E+03 0.  1.
         -6    1    1    2    0  501 -0.22280730259E+02  0.38134587971E+02 -0.34853727165E+01  0.17858282550E+03  0.17300000000E+03 0. -1.
<mgrwt>
<rscale>  2 0.17854881E+03</rscale>
<asrwt>0</asrwt>
<pdfrwt beam="1">  1        3 0.25083349E-01 0.17854881E+03</pdfrwt>
<pdfrwt beam="2">  1       -3 0.30247026E-01 0.17854881E+03</pdfrwt>
<totfact> 0.38030705E+02</totfact>
</mgrwt>
</event>
<event>
 4    1  0.7354369E-001  0.1861156E+03  0.7546771E-02  0.1162012E+00
         -1   -1    0    0    0  501 -0.00000000000E+00  0.00000000000E+00  0.36339740547E+03  0.36339740547E+03  0.00000000000E+00 0.  1.
          1   -1    0    0  502    0  0.00000000000E+00 -0.00000000000E+00 -0.28475342471E+03  0.28475342471E+03  0.00000000000E+00 0. -1.
          6    1    1    2  502    0  0.45910218121E+02 -0.51012287481E+02 -0.22500410260E+03  0.29200316400E+03  0.17300000000E+03 0. -1.
         -6    1    1    2    0  501 -0.45910218121E+02  0.51012287481E+02  0.30364808335E+03  0.35614766618E+03  0.17300000000E+03 0.  1.
<mgrwt>
<rscale>  2 0.18611556E+03</rscale>
<asrwt>0</asrwt>
<pdfrwt beam="1">  1        1 0.43808219E-01 0.18611556E+03</pdfrwt>
<pdfrwt beam="2">  1       -1 0.55907294E-01 0.18611556E+03</pdfrwt>
<totfact> 0.31568289E+02</totfact>
</mgrwt>
</event>
<event>
 4    1  0.7354369E-001  0.2094604E+03  0.7546771E-02  0.1141994E+00
         -1   -1    0    0    0  501 -0.00000000000E+00  0.00000000000E+00  0.47793757550E+02  0.47793757550E+02  0.00000000000E+00 0.  1.
          1   -1    0    0  502    0  0.00000000000E+00 -0.00000000000E+00 -0.13219706882E+04  0.13219706882E+04  0.00000000000E+00 0. -1.
          6    1    1    2  502    0 -0.38126854807E+02  0.11176312076E+03 -0.10156978267E+04  0.10370707437E+04  0.17300000000E+03 0. -1.
         -6    1    1    2    0  501  0.38126854807E+02 -0.11176312076E+03 -0.25847910393E+03  0.33269370206E+03  0.17300000000E+03 0.  1.
<mgrwt>
<rscale>  2 0.20946038E+03</rscale>
<asrwt>0</asrwt>
<pdfrwt beam="1">  1        1 0.20338007E+00 0.20946038E+03</pdfrwt>
<pdfrwt beam="2">  1       -1 0.73528871E-02 0.20946038E+03</pdfrwt>
<totfact> 0.92874019E+02</totfact>
</mgrwt>
</event>
<event>
 4    1  0.7354369E-001  0.3325073E+03  0.7546771E-02  0.1070033E+00
          2   -1    0    0  502    0  0.00000000000E+00  0.00000000000E+00  0.73222865177E+03  0.73222865177E+03  0.00000000000E+00 0. -1.
         -2   -1    0    0    0  501 -0.00000000000E+00 -0.00000000000E+00 -0.19414156627E+03  0.19414156627E+03  0.00000000000E+00 0.  1.
          6    1    1    2  502    0  0.17113831466E+03  0.22659168270E+03  0.48740726281E+03  0.59002284130E+03  0.17300000000E+03 0. -1.
         -6    1    1    2    0  501 -0.17113831466E+03 -0.22659168270E+03  0.50679822695E+02  0.33634737674E+03  0.17300000000E+03 0. -1.
<mgrwt>
<rscale>  2 0.33250731E+03</rscale>
<asrwt>0</asrwt>
<pdfrwt beam="1">  1        2 0.11265056E+00 0.33250731E+03</pdfrwt>
<pdfrwt beam="2">  1       -2 0.29867934E-01 0.33250731E+03</pdfrwt>
<totfact> 0.40998350E+02</totfact>
</mgrwt>
</event>
<event>
 4    1  0.7354369E-001  0.1838731E+03  0.7546771E-02  0.1164106E+00
         -2   -1    0    0    0  501 -0.00000000000E+00  0.00000000000E+00  0.34927334160E+03  0.34927334160E+03  0.00000000000E+00 0. -1.
          2   -1    0    0  502    0  0.00000000000E+00 -0.00000000000E+00 -0.10873604007E+03  0.10873604007E+03  0.00000000000E+00 0.  1.
          6    1    1    2  502    0  0.19399159838E+02  0.59194604224E+02  0.44392552462E+02  0.18915609238E+03  0.17300000000E+03 0.  1.
         -6    1    1    2    0  501 -0.19399159838E+02 -0.59194604224E+02  0.19614474907E+03  0.26885328928E+03  0.17300000000E+03 0. -1.
<mgrwt>
<rscale>  2 0.18387313E+03</rscale>
<asrwt>0</asrwt>
<pdfrwt beam="1">  1        2 0.16728622E-01 0.18387313E+03</pdfrwt>
<pdfrwt beam="2">  1       -2 0.53734360E-01 0.18387313E+03</pdfrwt>
<totfact> 0.11238287E+03</totfact>
</mgrwt>
</event>
<event>
 4    1  0.7354369E-001  0.2461727E+03  0.7546771E-02  0.1115748E+00
          2   -1    0    0  502    0  0.00000000000E+00  0.00000000000E+00  0.46108786457E+03  0.46108786457E+03  0.00000000000E+00 0. -1.
         -2   -1    0    0    0  501 -0.00000000000E+00 -0.00000000000E+00 -0.14172082481E+03  0.14172082481E+03  0.00000000000E+00 0.  1.
          6    1    1    2  502    0  0.11971626346E+03  0.12782808366E+03  0.78466418950E+02  0.25837565987E+03  0.17300000000E+03 0.  1.
         -6    1    1    2    0  501 -0.11971626346E+03 -0.12782808366E+03  0.24090062082E+03  0.34443302951E+03  0.17300000000E+03 0. -1.
<mgrwt>
<rscale>  2 0.24617271E+03</rscale>
<asrwt>0</asrwt>
<pdfrwt beam="1">  1        2 0.70936594E-01 0.24617271E+03</pdfrwt>
<pdfrwt beam="2">  1       -2 0.21803204E-01 0.24617271E+03</pdfrwt>
<totfact> 0.12332630E+03</totfact>
</mgrwt>
</event>
<event>
 4    1  0.7354369E-001  0.1976569E+03  0.7546771E-02  0.1151731E+00
          2   -1    0    0  502    0  0.00000000000E+00  0.00000000000E+00  0.37001196696E+02  0.37001196696E+02  0.00000000000E+00 0. -1.
         -2   -1    0    0    0  501 -0.00000000000E+00 -0.00000000000E+00 -0.11007204666E+04  0.11007204666E+04  0.00000000000E+00 0.  1.
          6    1    1    2  502    0  0.75331256467E+02  0.58859686844E+02 -0.41702412685E+03  0.46149472728E+03  0.17300000000E+03 0. -1.
         -6    1    1    2    0  501 -0.75331256467E+02 -0.58859686844E+02 -0.64669514303E+03  0.67622693599E+03  0.17300000000E+03 0.  1.
<mgrwt>
<rscale>  2 0.19765693E+03</rscale>
<asrwt>0</asrwt>
<pdfrwt beam="1">  1        2 0.56924906E-02 0.19765693E+03</pdfrwt>
<pdfrwt beam="2">  1       -2 0.16934165E+00 0.19765693E+03</pdfrwt>
<totfact> 0.30305526E+02</totfact>
</mgrwt>
</event>
<event>
 4    1  0.7354369E-001  0.2403576E+03  0.7546771E-02  0.1119555E+00
         -2   -1    0    0    0  501 -0.00000000000E+00  0.00000000000E+00  0.28982553894E+02  0.28982553894E+02  0.00000000000E+00 0.  1.
          2   -1    0    0  502    0  0.00000000000E+00 -0.00000000000E+00 -0.20424688565E+04  0.20424688565E+04  0.00000000000E+00 0. -1.
          6    1    1    2  502    0  0.60262383092E+02 -0.15559961884E+03 -0.84609370080E+03  0.87957168368E+03  0.17300000000E+03 0. -1.
         -6    1    1    2    0  501 -0.60262383092E+02  0.15559961884E+03 -0.11673926018E+04  0.11918797267E+04  0.17300000000E+03 0. -1.
<mgrwt>
<rscale>  2 0.24035764E+03</rscale>
<asrwt>0</asrwt>
<pdfrwt beam="1">  1        2 0.31422598E+00 0.24035764E+03</pdfrwt>
<pdfrwt beam="2">  1       -2 0.44588544E-02 0.24035764E+03</pdfrwt>
<totfact> 0.16488458E+03</totfact>
</mgrwt>
</event>
<event>
 4    1  0.7354369E-001  0.2217731E+03  0.7546771E-02  0.1132568E+00
          3   -1    0    0  502    0  0.00000000000E+00  0.00000000000E+00  0.12462997399E+03  0.12462997399E+03  0.00000000000E+00 0.  1.
         -3   -1    0    0    0  501 -0.00000000000E+00 -0.00000000000E+00 -0.46482015622E+03  0.46482015622E+03  0.00000000000E+00 0. -1.
          6    1    1    2  502    0 -0.13118980572E+03  0.45205437847E+02 -0.28461962913E+03  0.36082077272E+03  0.17300000000E+03 0. -1.
         -6    1    1    2    0  501  0.13118980572E+03 -0.45205437847E+02 -0.55570553101E+02  0.22862935749E+03  0.17300000000E+03 0.  1.
<mgrwt>
<rscale>  2 0.22177307E+03</rscale>
<asrwt>0</asrwt>
<pdfrwt beam="1">  1        3 0.19173842E-01 0.22177307E+03</pdfrwt>
<pdfrwt beam="2">  1       -3 0.71510794E-01 0.22177307E+03</pdfrwt>
<totfact> 0.11330657E+02</totfact>
</mgrwt>
</event>
<event>
 4    1  0.7354369E-001  0.2309934E+03  0.7546771E-02  0.1125942E+00
         -2   -1    0    0    0  501 -0.00000000000E+00  0.00000000000E+00  0.18432173342E+02  0.18432173342E+02  0.00000000000E+00 0.  1.
          2   -1    0    0  502    0  0.00000000000E+00 -0.00000000000E+00 -0.33047467492E+04  0.33047467492E+04  0.00000000000E+00 0. -1.
          6    1    1    2  502    0 -0.25517866053E+02  0.15092319521E+03 -0.22283561919E+04  0.22402966969E+04  0.17300000000E+03 0.  1.
         -6    1    1    2    0  501  0.25517866053E+02 -0.15092319521E+03 -0.10579583840E+04  0.10828822257E+04  0.17300000000E+03 0.  1.
<mgrwt>
<rscale>  2 0.23099345E+03</rscale>
<asrwt>0</asrwt>
<pdfrwt beam="1">  1        2 0.50842346E+00 0.23099345E+03</pdfrwt>
<pdfrwt beam="2">  1       -2 0.28357141E-02 0.23099345E+03</pdfrwt>
<totfact> 0.63122486E+02</totfact>
</mgrwt>
</event>
<event>
 4    1  0.7354369E-001  0.1782690E+03  0.7546771E-02  0.1169489E+00
         -2   -1    0    0    0  501 -0.00000000000E+00  0.00000000000E+00  0.95285046403E+01  0.95285046403E+01  0.00000000000E+00 0.  1.
          2   -1    0    0  502    0  0.00000000000E+00 -0.00000000000E+00 -0.34228904846E+04  0.34228904846E+04  0.00000000000E+00 0. -1.
          6    1    1    2  502    0 -0.29061559033E+02 -0.31721749924E+02 -0.14320480873E+04  0.14431013713E+04  0.17300000000E+03 0.  1.
         -6    1    1    2    0  501  0.29061559033E+02  0.31721749924E+02 -0.19813138927E+04  0.19893176180E+04  0.17300000000E+03 0.  1.
<mgrwt>
<rscale>  2 0.17826902E+03</rscale>
<asrwt>0</asrwt>
<pdfrwt beam="1">  1        2 0.52659866E+00 0.17826902E+03</pdfrwt>
<pdfrwt beam="2">  1       -2 0.14659234E-02 0.17826902E+03</pdfrwt>
<totfact> 0.14188995E+03</totfact>
</mgrwt>
</event>
<event>
 4    1  0.7354369E-001  0.1933501E+03  0.7546771E-02  0.1155474E+00
          2   -1    0    0  502    0  0.00000000000E+00  0.00000000000E+00  0.16433561148E+04  0.16433561148E+04  0.00000000000E+00 0.  1.
         -2   -1    0    0    0  501 -0.00000000000E+00 -0.00000000000E+00 -0.23590090339E+02  0.23590090339E+02  0.00000000000E+00 0. -1.
          6    1    1    2  502    0  0.74751894886E+02  0.43213638290E+02  0.65247825985E+03  0.68052343376E+03  0.17300000000E+03 0. -1.
         -6    1    1    2    0  501 -0.74751894886E+02 -0.43213638290E+02  0.96728776462E+03  0.98642277138E+03  0.17300000000E+03 0. -1.
<mgrwt>
<rscale>  2 0.19335011E+03</rscale>
<asrwt>0</asrwt>
<pdfrwt beam="1">  1        2 0.25282393E+00 0.19335011E+03</pdfrwt>
<pdfrwt beam="2">  1       -2 0.36292460E-02 0.19335011E+03</pdfrwt>
<totfact> 0.36340620E+03</totfact>
</mgrwt>
</event>
<event>
 4    1  0.7354369E-001  0.3092063E+03  0.7546771E-02  0.1080727E+00
          2   -1    0    0  502    0  0.00000000000E+00  0.00000000000E+00  0.10111762809E+04  0.10111762809E+04  0.00000000000E+00 0.  1.
         -2   -1    0    0    0  501 -0.00000000000E+00 -0.00000000000E+00 -0.12094819437E+03  0.12094819437E+03  0.00000000000E+00 0. -1.
          6    1    1    2  502    0 -0.24851137445E+03  0.62623166698E+02  0.18066830306E+03  0.35811953307E+03  0.17300000000E+03 0. -1.
         -6    1    1    2    0  501  0.24851137445E+03 -0.62623166698E+02  0.70955978348E+03  0.77400494221E+03  0.17300000000E+03 0.  1.
<mgrwt>
<rscale>  2 0.30920635E+03</rscale>
<asrwt>0</asrwt>
<pdfrwt beam="1">  1        2 0.15556558E+00 0.30920635E+03</pdfrwt>
<pdfrwt beam="2">  1       -2 0.18607415E-01 0.30920635E+03</pdfrwt>
<totfact> 0.61580536E+02</totfact>
</mgrwt>
</event>
<event>
 4    1  0.7354369E-001  0.1908579E+03  0.7546771E-02  0.1157690E+00
         -4   -1    0    0    0  501 -0.00000000000E+00  0.00000000000E+00  0.14167928410E+03  0.14167928410E+03  0.00000000000E+00 0. -1.
          4   -1    0    0  502    0  0.00000000000E+00 -0.00000000000E+00 -0.25816324136E+03  0.25816324136E+03  0.00000000000E+00 0.  1.
          6    1    1    2  502    0 -0.70203830626E+02 -0.39612402703E+02 -0.71030364595E+02  0.20364683395E+03  0.17300000000E+03 0. -1.
         -6    1    1    2    0  501  0.70203830626E+02  0.39612402703E+02 -0.45453592669E+02  0.19619569151E+03  0.17300000000E+03 0. -1.
<mgrwt>
<rscale>  2 0.19085785E+03</rscale>
<asrwt>0</asrwt>
<pdfrwt beam="1">  1        4 0.39717421E-01 0.19085785E+03</pdfrwt>
<pdfrwt beam="2">  1       -4 0.21796813E-01 0.19085785E+03</pdfrwt>
<totfact> 0.21009636E+02</totfact>
</mgrwt>
</event>
<event>
 4    1  0.7354369E-001  0.2747737E+03  0.7546771E-02  0.1098578E+00
          1   -1    0    0  502    0  0.00000000000E+00  0.00000000000E+00  0.10701791543E+04  0.10701791543E+04  0.00000000000E+00 0. -1.
         -1   -1    0    0    0  501 -0.00000000000E+00 -0.00000000000E+00 -0.71942608157E+02  0.71942608157E+02  0.00000000000E+00 0.  1.
          6    1    1    2  502    0 -0.19550224436E+03 -0.85734692127E+02  0.57858539029E+03  0.64051668115E+03  0.17300000000E+03 0.  1.
         -6    1    1    2    0  501  0.19550224436E+03  0.85734692127E+02  0.41965115589E+03  0.50160508134E+03  0.17300000000E+03 0.  1.
<mgrwt>
<rscale>  2 0.27477366E+03</rscale>
<asrwt>0</asrwt>
<pdfrwt beam="1">  1        1 0.16464294E+00 0.27477366E+03</pdfrwt>
<pdfrwt beam="2">  1       -1 0.11068094E-01 0.27477366E+03</pdfrwt>
<totfact> 0.73950423E+02</totfact>
</mgrwt>
</event>
<event>
 4    1  0.7354369E-001  0.1799660E+03  0.7546771E-02  0.1167836E+00
          1   -1    0    0  502    0  0.00000000000E+00  0.00000000000E+00  0.25690520859E+04  0.25690520859E+04  0.00000000000E+00 0.  1.
         -1   -1    0    0    0  501 -0.00000000000E+00 -0.00000000000E+00 -0.16202700346E+02  0.16202700346E+02  0.00000000000E+00 0. -1.
          6    1    1    2  502    0 -0.12525348228E+02 -0.47977865030E+02  0.18853695645E+04  0.18939393218E+04  0.17300000000E+03 0.  1.
         -6    1    1    2    0  501  0.12525348228E+02  0.47977865030E+02  0.66747982103E+03  0.69131546443E+03  0.17300000000E+03 0. -1.
<mgrwt>
<rscale>  2 0.17996600E+03</rscale>
<asrwt>0</asrwt>
<pdfrwt beam="1">  1        1 0.39523846E+00 0.17996600E+03</pdfrwt>
<pdfrwt beam="2">  1       -1 0.24927252E-02 0.17996600E+03</pdfrwt>
<totfact> 0.71747596E+02</totfact>
</mgrwt>
</event>
<event>
 4    1  0.7354369E-001  0.1889452E+03  0.7546771E-02  0.1159416E+00
         -1   -1    0    0    0  501 -0.00000000000E+00  0.00000000000E+00  0.53477661073E+03  0.53477661073E+03  0.00000000000E+00 0.  1.
          1   -1    0    0  502    0  0.00000000000E+00 -0.00000000000E+00 -0.66923948068E+02  0.66923948068E+02  0.00000000000E+00 0. -1.
          6    1    1    2  502    0 -0.34482208151E+02  0.67692549693E+02  0.21891876390E+03  0.28918113554E+03  0.17300000000E+03 0. -1.
         -6    1    1    2    0  501  0.34482208151E+02 -0.67692549693E+02  0.24893389877E+03  0.31251942327E+03  0.17300000000E+03 0. -1.
<mgrwt>
<rscale>  2 0.18894524E+03</rscale>
<asrwt>0</asrwt>
<pdfrwt beam="1">  1        1 0.10295992E-01 0.18894524E+03</pdfrwt>
<pdfrwt beam="2">  1       -1 0.82273322E-01 0.18894524E+03</pdfrwt>
<totfact> 0.94282540E+02</totfact>
</mgrwt>
</event>
<event>
 4    1  0.7354369E-001  0.1793523E+03  0.7546771E-02  0.1168431E+00
         -2   -1    0    0    0  501 -0.00000000000E+00  0.00000000000E+00  0.14731554046E+02  0.14731554046E+02  0.00000000000E+00 0.  1.
          2   -1    0    0  502    0  0.00000000000E+00 -0.00000000000E+00 -0.21866158118E+04  0.21866158118E+04  0.00000000000E+00 0. -1.
          6    1    1    2  502    0 -0.39818034226E+02  0.25549539921E+02 -0.11270785191E+04  0.11412594986E+04  0.17300000000E+03 0.  1.
         -6    1    1    2    0  501  0.39818034226E+02 -0.25549539921E+02 -0.10448057386E+04  0.10600878673E+04  0.17300000000E+03 0. -1.
<mgrwt>
<rscale>  2 0.17935232E+03</rscale>
<asrwt>0</asrwt>
<pdfrwt beam="1">  1        2 0.33640239E+00 0.17935232E+03</pdfrwt>
<pdfrwt beam="2">  1       -2 0.22663932E-02 0.17935232E+03</pdfrwt>
<totfact> 0.38077226E+03</totfact>
</mgrwt>
</event>
<event>
 4    1  0.7354369E-001  0.1855202E+03  0.7546771E-02  0.1162565E+00
          1   -1    0    0  502    0  0.00000000000E+00  0.00000000000E+00  0.10128779694E+03  0.10128779694E+03  0.00000000000E+00 0. -1.
         -1   -1    0    0    0  501 -0.00000000000E+00 -0.00000000000E+00 -0.86526166880E+03  0.86526166880E+03  0.00000000000E+00 0.  1.
          6    1    1    2  502    0 -0.44811328255E+02  0.49806479993E+02 -0.75859557391E+03  0.78095133353E+03  0.17300000000E+03 0.  1.
         -6    1    1    2    0  501  0.44811328255E+02 -0.49806479993E+02 -0.53782979482E+01  0.18559813221E+03  0.17300000000E+03 0. -1.
<mgrwt>
<rscale>  2 0.18552019E+03</rscale>
<asrwt>0</asrwt>
<pdfrwt beam="1">  1        1 0.15582738E-01 0.18552019E+03</pdfrwt>
<pdfrwt beam="2">  1       -1 0.13311718E+00 0.18552019E+03</pdfrwt>
<totfact> 0.18407649E+02</totfact>
</mgrwt>
</event>
<event>
 4    1  0.7354369E-001  0.3169532E+03  0.7546771E-02  0.1077060E+00
         -2   -1    0    0    0  501 -0.00000000000E+00  0.00000000000E+00  0.79214778942E+02  0.79214778942E+02  0.00000000000E+00 0. -1.
          2   -1    0    0  502    0  0.00000000000E+00 -0.00000000000E+00 -0.13644775464E+04  0.13644775464E+04  0.00000000000E+00 0.  1.
          6    1    1    2  502    0  0.52737354481E+02 -0.26028657354E+03 -0.83438707782E+03  0.89255875131E+03  0.17300000000E+03 0.  1.
         -6    1    1    2    0  501 -0.52737354481E+02  0.26028657354E+03 -0.45087568969E+03  0.55113357407E+03  0.17300000000E+03 0. -1.
<mgrwt>
<rscale>  2 0.31695320E+03</rscale>
<asrwt>0</asrwt>
<pdfrwt beam="1">  1        2 0.20991961E+00 0.31695320E+03</pdfrwt>
<pdfrwt beam="2">  1       -2 0.12186890E-01 0.31695320E+03</pdfrwt>
<totfact> 0.77832872E+02</totfact>
</mgrwt>
</event>
<event>
 4    1  0.7354369E-001  0.3873081E+03  0.7546771E-02  0.1048265E+00
         -2   -1    0    0    0  501 -0.00000000000E+00  0.00000000000E+00  0.16052619373E+03  0.16052619373E+03  0.00000000000E+00 0.  1.
          2   -1    0    0  502    0  0.00000000000E+00 -0.00000000000E+00 -0.19941508083E+04  0.19941508083E+04  0.00000000000E+00 0. -1.
          6    1    1    2  502    0 -0.13087261806E+02  0.34627627832E+03 -0.17021562848E+04  0.17456642161E+04  0.17300000000E+03 0. -1.
         -6    1    1    2    0  501  0.13087261806E+02 -0.34627627832E+03 -0.13146832977E+03  0.40901278596E+03  0.17300000000E+03 0.  1.
<mgrwt>
<rscale>  2 0.38730807E+03</rscale>
<asrwt>0</asrwt>
<pdfrwt beam="1">  1        2 0.30679243E+00 0.38730807E+03</pdfrwt>
<pdfrwt beam="2">  1       -2 0.24696338E-01 0.38730807E+03</pdfrwt>
<totfact> 0.10662018E+02</totfact>
</mgrwt>
</event>
<event>
 4    1  0.7354369E-001  0.1994681E+03  0.7546771E-02  0.1150189E+00
         -1   -1    0    0    0  501 -0.00000000000E+00  0.00000000000E+00  0.60851900497E+02  0.60851900497E+02  0.00000000000E+00 0.  1.
          1   -1    0    0  502    0  0.00000000000E+00 -0.00000000000E+00 -0.65436047405E+03  0.65436047405E+03  0.00000000000E+00 0. -1.
          6    1    1    2  502    0  0.78357799079E+02  0.60980104396E+02 -0.30682203559E+03  0.36596076201E+03  0.17300000000E+03 0. -1.
         -6    1    1    2    0  501 -0.78357799079E+02 -0.60980104396E+02 -0.28668653796E+03  0.34925161253E+03  0.17300000000E+03 0.  1.
<mgrwt>
<rscale>  2 0.19946809E+03</rscale>
<asrwt>0</asrwt>
<pdfrwt beam="1">  1        1 0.10067085E+00 0.19946809E+03</pdfrwt>
<pdfrwt beam="2">  1       -1 0.93618299E-02 0.19946809E+03</pdfrwt>
<totfact> 0.20859974E+03</totfact>
</mgrwt>
</event>
<event>
 4    1  0.7354369E-001  0.1988945E+03  0.7546771E-02  0.1150675E+00
          4   -1    0    0  502    0  0.00000000000E+00  0.00000000000E+00  0.46495159605E+03  0.46495159605E+03  0.00000000000E+00 0. -1.
         -4   -1    0    0    0  501 -0.00000000000E+00 -0.00000000000E+00 -0.85170366263E+02  0.85170366263E+02  0.00000000000E+00 0.  1.
          6    1    1    2  502    0  0.93281164808E+02 -0.30473583550E+02  0.18103108878E+03  0.26894473430E+03  0.17300000000E+03 0.  1.
         -6    1    1    2    0  501 -0.93281164808E+02  0.30473583550E+02  0.19875014100E+03  0.28117722801E+03  0.17300000000E+03 0.  1.
<mgrwt>
<rscale>  2 0.19889448E+03</rscale>
<asrwt>0</asrwt>
<pdfrwt beam="1">  1        4 0.71531013E-01 0.19889448E+03</pdfrwt>
<pdfrwt beam="2">  1       -4 0.13103134E-01 0.19889448E+03</pdfrwt>
<totfact> 0.15422308E+02</totfact>
</mgrwt>
</event>
<event>
 4    1  0.7354369E-001  0.2069996E+03  0.7546771E-02  0.1143964E+00
          1   -1    0    0  502    0  0.00000000000E+00  0.00000000000E+00  0.87771416757E+03  0.87771416757E+03  0.00000000000E+00 0. -1.
         -1   -1    0    0    0  501 -0.00000000000E+00 -0.00000000000E+00 -0.63788788808E+02  0.63788788808E+02  0.00000000000E+00 0.  1.
          6    1    1    2  502    0 -0.71531610706E+02  0.88335017762E+02  0.17891167979E+03  0.27360233160E+03  0.17300000000E+03 0. -1.
         -6    1    1    2    0  501  0.71531610706E+02 -0.88335017762E+02  0.63501369897E+03  0.66790062478E+03  0.17300000000E+03 0. -1.
<mgrwt>
<rscale>  2 0.20699963E+03</rscale>
<asrwt>0</asrwt>
<pdfrwt beam="1">  1        1 0.13503294E+00 0.20699963E+03</pdfrwt>
<pdfrwt beam="2">  1       -1 0.98136605E-02 0.20699963E+03</pdfrwt>
<totfact> 0.12496699E+03</totfact>
</mgrwt>
</event>
<event>
 4    1  0.7354369E-001  0.1755550E+03  0.7546771E-02  0.1172176E+00
          2   -1    0    0  502    0  0.00000000000E+00  0.00000000000E+00  0.14134905272E+04  0.14134905272E+04  0.00000000000E+00 0. -1.
         -2   -1    0    0    0  501 -0.00000000000E+00 -0.00000000000E+00 -0.54019656788E+02  0.54019656788E+02  0.00000000000E+00 0.  1.
          6    1    1    2  502    0 -0.23679894106E+02 -0.18160879270E+02  0.11309230113E+03  0.20882869414E+03  0.17300000000E+03 0.  1.
         -6    1    1    2    0  501  0.23679894106E+02  0.18160879270E+02  0.12463785693E+04  0.12586814898E+04  0.17300000000E+03 0. -1.
<mgrwt>
<rscale>  2 0.17555499E+03</rscale>
<asrwt>0</asrwt>
<pdfrwt beam="1">  1        2 0.21746005E+00 0.17555499E+03</pdfrwt>
<pdfrwt beam="2">  1       -2 0.83107175E-02 0.17555499E+03</pdfrwt>
<totfact> 0.13608983E+03</totfact>
</mgrwt>
</event>
<event>
 4    1  0.7354369E-001  0.1764924E+03  0.7546771E-02  0.1171242E+00
         -2   -1    0    0    0  501 -0.00000000000E+00  0.00000000000E+00  0.11768161909E+02  0.11768161909E+02  0.00000000000E+00 0.  1.
          2   -1    0    0  502    0  0.00000000000E+00 -0.00000000000E+00 -0.27015120053E+04  0.27015120053E+04  0.00000000000E+00 0. -1.
          6    1    1    2  502    0  0.85384418295E+01  0.33877204871E+02 -0.15376965681E+04  0.15477920744E+04  0.17300000000E+03 0. -1.
         -6    1    1    2    0  501 -0.85384418295E+01 -0.33877204871E+02 -0.11520472753E+04  0.11654880928E+04  0.17300000000E+03 0.  1.
<mgrwt>
<rscale>  2 0.17649241E+03</rscale>
<asrwt>0</asrwt>
<pdfrwt beam="1">  1        2 0.41561744E+00 0.17649241E+03</pdfrwt>
<pdfrwt beam="2">  1       -2 0.18104856E-02 0.17649241E+03</pdfrwt>
<totfact> 0.27979881E+03</totfact>
</mgrwt>
</event>
<event>
 4    1  0.7354369E-001  0.1768652E+03  0.7546771E-02  0.1170872E+00
         -2   -1    0    0    0  501 -0.00000000000E+00  0.00000000000E+00  0.91222991457E+01  0.91222991457E+01  0.00000000000E+00 0. -1.
          2   -1    0    0  502    0  0.00000000000E+00 -0.00000000000E+00 -0.37425237753E+04  0.37425237753E+04  0.00000000000E+00 0.  1.
          6    1    1    2  502    0  0.12502527338E+02  0.34583165834E+02 -0.13238591930E+04  0.13356213803E+04  0.17300000000E+03 0. -1.
         -6    1    1    2    0  501 -0.12502527338E+02 -0.34583165834E+02 -0.24095422832E+04  0.24160246942E+04  0.17300000000E+03 0.  1.
<mgrwt>
<rscale>  2 0.17686523E+03</rscale>
<asrwt>0</asrwt>
<pdfrwt beam="1">  1        2 0.57577422E+00 0.17686523E+03</pdfrwt>
<pdfrwt beam="2">  1       -2 0.14034274E-02 0.17686523E+03</pdfrwt>
<totfact> 0.92468345E+02</totfact>
</mgrwt>
</event>
<event>
 4    1  0.7354369E-001  0.2747360E+03  0.7546771E-02  0.1098599E+00
         -1   -1    0    0    0  501 -0.00000000000E+00  0.00000000000E+00  0.50000484257E+03  0.50000484257E+03  0.00000000000E+00 0. -1.
          1   -1    0    0  502    0  0.00000000000E+00 -0.00000000000E+00 -0.17805001553E+03  0.17805001553E+03  0.00000000000E+00 0.  1.
          6    1    1    2  502    0  0.50799555991E+02  0.20729276089E+03  0.28731567189E+02  0.27623429649E+03  0.17300000000E+03 0.  1.
         -6    1    1    2    0  501 -0.50799555991E+02 -0.20729276089E+03  0.29322325986E+03  0.40182056161E+03  0.17300000000E+03 0. -1.
<mgrwt>
<rscale>  2 0.27473603E+03</rscale>
<asrwt>0</asrwt>
<pdfrwt beam="1">  1        1 0.27392310E-01 0.27473603E+03</pdfrwt>
<pdfrwt beam="2">  1       -1 0.76923822E-01 0.27473603E+03</pdfrwt>
<totfact> 0.30251989E+02</totfact>
</mgrwt>
</event>
<event>
 4    1  0.7354369E-001  0.2620737E+03  0.7546771E-02  0.1105904E+00
          2   -1    0    0  502    0  0.00000000000E+00  0.00000000000E+00  0.38185165837E+03  0.38185165837E+03  0.00000000000E+00 0.  1.
         -2   -1    0    0    0  501 -0.00000000000E+00 -0.00000000000E+00 -0.19791118589E+03  0.19791118589E+03  0.00000000000E+00 0. -1.
          6    1    1    2  502    0 -0.17474782371E+03 -0.90646784322E+02  0.17949879717E+03  0.31765147503E+03  0.17300000000E+03 0. -1.
         -6    1    1    2    0  501  0.17474782371E+03  0.90646784322E+02  0.44416753058E+01  0.26211136923E+03  0.17300000000E+03 0.  1.
<mgrwt>
<rscale>  2 0.26207373E+03</rscale>
<asrwt>0</asrwt>
<pdfrwt beam="1">  1        2 0.58746409E-01 0.26207373E+03</pdfrwt>
<pdfrwt beam="2">  1       -2 0.30447875E-01 0.26207373E+03</pdfrwt>
<totfact> 0.83789771E+02</totfact>
</mgrwt>
</event>
<event>
 4    1  0.7354369E-001  0.1915454E+03  0.7546771E-02  0.1157075E+00
         -2   -1    0    0    0  501 -0.00000000000E+00  0.00000000000E+00  0.15623524558E+03  0.15623524558E+03  0.00000000000E+00 0. -1.
          2   -1    0    0  502    0  0.00000000000E+00 -0.00000000000E+00 -0.23509136747E+03  0.23509136747E+03  0.00000000000E+00 0.  1.
          6    1    1    2  502    0  0.76390403252E+02  0.30416099289E+02 -0.45878993607E+02  0.19696323225E+03  0.17300000000E+03 0. -1.
         -6    1    1    2    0  501 -0.76390403252E+02 -0.30416099289E+02 -0.32977128289E+02  0.19436338080E+03  0.17300000000E+03 0.  1.
<mgrwt>
<rscale>  2 0.19154538E+03</rscale>
<asrwt>0</asrwt>
<pdfrwt beam="1">  1        2 0.36167903E-01 0.19154538E+03</pdfrwt>
<pdfrwt beam="2">  1       -2 0.24036192E-01 0.19154538E+03</pdfrwt>
<totfact> 0.21449210E+03</totfact>
</mgrwt>
</event>
<event>
 4    1  0.7354369E-001  0.2360316E+03  0.7546771E-02  0.1122465E+00
         -1   -1    0    0    0  501 -0.00000000000E+00  0.00000000000E+00  0.18763437462E+03  0.18763437462E+03  0.00000000000E+00 0. -1.
          1   -1    0    0  502    0  0.00000000000E+00 -0.00000000000E+00 -0.29814310840E+03  0.29814310840E+03  0.00000000000E+00 0.  1.
          6    1    1    2  502    0 -0.12375361262E+03 -0.10230812739E+03 -0.70861809417E+02  0.24643925337E+03  0.17300000000E+03 0. -1.
         -6    1    1    2    0  501  0.12375361262E+03  0.10230812739E+03 -0.39646924361E+02  0.23933822966E+03  0.17300000000E+03 0.  1.
<mgrwt>
<rscale>  2 0.23603159E+03</rscale>
<asrwt>0</asrwt>
<pdfrwt beam="1">  1        1 0.45868170E-01 0.23603159E+03</pdfrwt>
<pdfrwt beam="2">  1       -1 0.28866827E-01 0.23603159E+03</pdfrwt>
<totfact> 0.96437499E+02</totfact>
</mgrwt>
</event>
<event>
 4    1  0.7354369E-001  0.2191132E+03  0.7546771E-02  0.1134546E+00
         -2   -1    0    0    0  501 -0.00000000000E+00  0.00000000000E+00  0.11288281586E+03  0.11288281586E+03  0.00000000000E+00 0.  1.
          2   -1    0    0  502    0  0.00000000000E+00 -0.00000000000E+00 -0.54692584527E+03  0.54692584527E+03  0.00000000000E+00 0. -1.
          6    1    1    2  502    0  0.80697435018E+02  0.10756165185E+03 -0.37258677985E+03  0.43224008778E+03  0.17300000000E+03 0. -1.
         -6    1    1    2    0  501 -0.80697435018E+02 -0.10756165185E+03 -0.61456249558E+02  0.22756857335E+03  0.17300000000E+03 0. -1.
<mgrwt>
<rscale>  2 0.21911318E+03</rscale>
<asrwt>0</asrwt>
<pdfrwt beam="1">  1        2 0.84142439E-01 0.21911318E+03</pdfrwt>
<pdfrwt beam="2">  1       -2 0.17366587E-01 0.21911318E+03</pdfrwt>
<totfact> 0.14992956E+03</totfact>
</mgrwt>
</event>
<event>
 4    1  0.7354369E-001  0.1762546E+03  0.7546771E-02  0.1171478E+00
         -2   -1    0    0    0  501 -0.00000000000E+00  0.00000000000E+00  0.37727407920E+03  0.37727407920E+03  0.00000000000E+00 0. -1.
          2   -1    0    0  502    0  0.00000000000E+00 -0.00000000000E+00 -0.90337591336E+02  0.90337591336E+02  0.00000000000E+00 0.  1.
          6    1    1    2  502    0 -0.26173411118E+02  0.21251821786E+02  0.21302399722E+03  0.27648672802E+03  0.17300000000E+03 0. -1.
         -6    1    1    2    0  501  0.26173411118E+02 -0.21251821786E+02  0.73912490645E+02  0.19112494252E+03  0.17300000000E+03 0.  1.
<mgrwt>
<rscale>  2 0.17625461E+03</rscale>
<asrwt>0</asrwt>
<pdfrwt beam="1">  1        2 0.13898091E-01 0.17625461E+03</pdfrwt>
<pdfrwt beam="2">  1       -2 0.58042165E-01 0.17625461E+03</pdfrwt>
<totfact> 0.11934575E+03</totfact>
</mgrwt>
</event>
<event>
 4    1  0.7354369E-001  0.2051840E+03  0.7546771E-02  0.1145438E+00
          1   -1    0    0  502    0  0.00000000000E+00  0.00000000000E+00  0.15253455552E+03  0.15253455552E+03  0.00000000000E+00 0. -1.
         -1   -1    0    0    0  501 -0.00000000000E+00 -0.00000000000E+00 -0.32471745243E+03  0.32471745243E+03  0.00000000000E+00 0.  1.
          6    1    1    2  502    0 -0.99076932774E+02 -0.48530787867E+02 -0.17851439441E+03  0.27197033844E+03  0.17300000000E+03 0. -1.
         -6    1    1    2    0  501  0.99076932774E+02  0.48530787867E+02  0.63314974986E+01  0.20528166952E+03  0.17300000000E+03 0.  1.
<mgrwt>
<rscale>  2 0.20518401E+03</rscale>
<asrwt>0</asrwt>
<pdfrwt beam="1">  1        1 0.23466855E-01 0.20518401E+03</pdfrwt>
<pdfrwt beam="2">  1       -1 0.49956531E-01 0.20518401E+03</pdfrwt>
<totfact> 0.85291332E+02</totfact>
</mgrwt>
</event>
<event>
 4    1  0.7354369E-001  0.2334005E+03  0.7546771E-02  0.1124269E+00
          2   -1    0    0  502    0  0.00000000000E+00  0.00000000000E+00  0.74606694789E+03  0.74606694789E+03  0.00000000000E+00 0.  1.
         -2   -1    0    0    0  501 -0.00000000000E+00 -0.00000000000E+00 -0.77848778955E+02  0.77848778955E+02  0.00000000000E+00 0. -1.
          6    1    1    2  502    0  0.24058098632E+02  0.15481609931E+03  0.43673701736E+03  0.49519192143E+03  0.17300000000E+03 0.  1.
         -6    1    1    2    0  501 -0.24058098632E+02 -0.15481609931E+03  0.23148115157E+03  0.32872380542E+03  0.17300000000E+03 0. -1.
<mgrwt>
<rscale>  2 0.23340055E+03</rscale>
<asrwt>0</asrwt>
<pdfrwt beam="1">  1        2 0.11477953E+00 0.23340055E+03</pdfrwt>
<pdfrwt beam="2">  1       -2 0.11976736E-01 0.23340055E+03</pdfrwt>
<totfact> 0.19169381E+03</totfact>
</mgrwt>
</event>
<event>
 4    1  0.7354369E-001  0.1849468E+03  0.7546771E-02  0.1163100E+00
          2   -1    0    0  502    0  0.00000000000E+00  0.00000000000E+00  0.10191699003E+04  0.10191699003E+04  0.00000000000E+00 0. -1.
         -2   -1    0    0    0  501 -0.00000000000E+00 -0.00000000000E+00 -0.48430279864E+02  0.48430279864E+02  0.00000000000E+00 0.  1.
          6    1    1    2  502    0 -0.65277788147E+02 -0.38919017641E+01  0.18960183873E+03  0.26486636965E+03  0.17300000000E+03 0.  1.
         -6    1    1    2    0  501  0.65277788147E+02  0.38919017641E+01  0.78113778174E+03  0.80273381054E+03  0.17300000000E+03 0. -1.
<mgrwt>
<rscale>  2 0.18494685E+03</rscale>
<asrwt>0</asrwt>
<pdfrwt beam="1">  1        2 0.15679535E+00 0.18494685E+03</pdfrwt>
<pdfrwt beam="2">  1       -2 0.74508131E-02 0.18494685E+03</pdfrwt>
<totfact> 0.26833352E+03</totfact>
</mgrwt>
</event>
<event>
 4    1  0.7354369E-001  0.2943682E+03  0.7546771E-02  0.1088090E+00
          1   -1    0    0  502    0  0.00000000000E+00  0.00000000000E+00  0.11005026041E+04  0.11005026041E+04  0.00000000000E+00 0. -1.
         -1   -1    0    0    0  501 -0.00000000000E+00 -0.00000000000E+00 -0.14344031356E+03  0.14344031356E+03  0.00000000000E+00 0.  1.
          6    1    1    2  502    0  0.36192701107E+02  0.23540119515E+03  0.60805724766E+02  0.30058271816E+03  0.17300000000E+03 0.  1.
         -6    1    1    2    0  501 -0.36192701107E+02 -0.23540119515E+03  0.89625656580E+03  0.94336019952E+03  0.17300000000E+03 0. -1.
<mgrwt>
<rscale>  2 0.29436820E+03</rscale>
<asrwt>0</asrwt>
<pdfrwt beam="1">  1        1 0.16930809E+00 0.29436820E+03</pdfrwt>
<pdfrwt beam="2">  1       -1 0.22067741E-01 0.29436820E+03</pdfrwt>
<totfact> 0.23219652E+02</totfact>
</mgrwt>
</event>
<event>
 4    1  0.7354369E-001  0.1936386E+03  0.7546771E-02  0.1155220E+00
         -1   -1    0    0    0  501 -0.00000000000E+00  0.00000000000E+00  0.29506128271E+03  0.29506128271E+03  0.00000000000E+00 0.  1.
          1   -1    0    0  502    0  0.00000000000E+00 -0.00000000000E+00 -0.13139153665E+03  0.13139153665E+03  0.00000000000E+00 0. -1.
          6    1    1    2  502    0  0.86987870365E+02  0.10579745073E+00  0.43202049197E+02  0.19839938971E+03  0.17300000000E+03 0.  1.
         -6    1    1    2    0  501 -0.86987870365E+02 -0.10579745073E+00  0.12046769687E+03  0.22805342964E+03  0.17300000000E+03 0.  1.
<mgrwt>
<rscale>  2 0.19363858E+03</rscale>
<asrwt>0</asrwt>
<pdfrwt beam="1">  1        1 0.20214083E-01 0.19363858E+03</pdfrwt>
<pdfrwt beam="2">  1       -1 0.45394043E-01 0.19363858E+03</pdfrwt>
<totfact> 0.12282664E+03</totfact>
</mgrwt>
</event>
<event>
 4    1  0.7354369E-001  0.2037666E+03  0.7546771E-02  0.1146599E+00
         -1   -1    0    0    0  501 -0.00000000000E+00  0.00000000000E+00  0.36139736789E+02  0.36139736789E+02  0.00000000000E+00 0. -1.
          1   -1    0    0  502    0  0.00000000000E+00 -0.00000000000E+00 -0.13781483267E+04  0.13781483267E+04  0.00000000000E+00 0.  1.
          6    1    1    2  502    0  0.10679424172E+03  0.13668088059E+02 -0.95941810409E+03  0.98081798778E+03  0.17300000000E+03 0.  1.
         -6    1    1    2    0  501 -0.10679424172E+03 -0.13668088059E+02 -0.38259048583E+03  0.43347007572E+03  0.17300000000E+03 0.  1.
<mgrwt>
<rscale>  2 0.20376660E+03</rscale>
<asrwt>0</asrwt>
<pdfrwt beam="1">  1        1 0.21202284E+00 0.20376660E+03</pdfrwt>
<pdfrwt beam="2">  1       -1 0.55599590E-02 0.20376660E+03</pdfrwt>
<totfact> 0.12985407E+03</totfact>
</mgrwt>
</event>
<event>
 4    1  0.7354369E-001  0.1776269E+03  0.7546771E-02  0.1170120E+00
         -2   -1    0    0    0  501 -0.00000000000E+00  0.00000000000E+00  0.16617514931E+02  0.16617514931E+02  0.00000000000E+00 0.  1.
          2   -1    0    0  502    0  0.00000000000E+00 -0.00000000000E+00 -0.19011108870E+04  0.19011108870E+04  0.00000000000E+00 0. -1.
          6    1    1    2  502    0  0.69204904876E+01  0.39679088732E+02 -0.90795071284E+03  0.92516259124E+03  0.17300000000E+03 0. -1.
         -6    1    1    2    0  501 -0.69204904876E+01 -0.39679088732E+02 -0.97654265924E+03  0.99256581071E+03  0.17300000000E+03 0. -1.
<mgrwt>
<rscale>  2 0.17762692E+03</rscale>
<asrwt>0</asrwt>
<pdfrwt beam="1">  1        2 0.29247860E+00 0.17762692E+03</pdfrwt>
<pdfrwt beam="2">  1       -2 0.25565408E-02 0.17762692E+03</pdfrwt>
<totfact> 0.44873767E+03</totfact>
</mgrwt>
</event>
<event>
 4    1  0.7354369E-001  0.1798900E+03  0.7546771E-02  0.1167910E+00
          1   -1    0    0  502    0  0.00000000000E+00  0.00000000000E+00  0.28613906173E+02  0.28613906173E+02  0.00000000000E+00 0.  1.
         -1   -1    0    0    0  501 -0.00000000000E+00 -0.00000000000E+00 -0.12369364334E+04  0.12369364334E+04  0.00000000000E+00 0. -1.
          6    1    1    2  502    0 -0.11548768957E+02 -0.47937744734E+02 -0.41892058168E+03  0.45591101675E+03  0.17300000000E+03 0.  1.
         -6    1    1    2    0  501  0.11548768957E+02  0.47937744734E+02 -0.78940194552E+03  0.80963932280E+03  0.17300000000E+03 0. -1.
<mgrwt>
<rscale>  2 0.17988997E+03</rscale>
<asrwt>0</asrwt>
<pdfrwt beam="1">  1        1 0.44021387E-02 0.17988997E+03</pdfrwt>
<pdfrwt beam="2">  1       -1 0.19029794E+00 0.17988997E+03</pdfrwt>
<totfact> 0.38609085E+02</totfact>
</mgrwt>
</event>
<event>
 4    1  0.7354369E-001  0.1775481E+03  0.7546771E-02  0.1170197E+00
          2   -1    0    0  502    0  0.00000000000E+00  0.00000000000E+00  0.81205576051E+03  0.81205576051E+03  0.00000000000E+00 0.  1.
         -2   -1    0    0    0  501 -0.00000000000E+00 -0.00000000000E+00 -0.45186567433E+02  0.45186567433E+02  0.00000000000E+00 0. -1.
          6    1    1    2  502    0 -0.34072372870E+02 -0.20818426853E+02  0.54433228092E+03  0.57255651733E+03  0.17300000000E+03 0.  1.
         -6    1    1    2    0  501  0.34072372870E+02  0.20818426853E+02  0.22253691215E+03  0.28468581061E+03  0.17300000000E+03 0. -1.
<mgrwt>
<rscale>  2 0.17754812E+03</rscale>
<asrwt>0</asrwt>
<pdfrwt beam="1">  1        2 0.12493165E+00 0.17754812E+03</pdfrwt>
<pdfrwt beam="2">  1       -2 0.69517802E-02 0.17754812E+03</pdfrwt>
<totfact> 0.40375882E+03</totfact>
</mgrwt>
</event>
<event>
 4    1  0.7354369E-001  0.1803807E+03  0.7546771E-02  0.1167435E+00
          2   -1    0    0  502    0  0.00000000000E+00  0.00000000000E+00  0.30203549756E+04  0.30203549756E+04  0.00000000000E+00 0. -1.
         -2   -1    0    0    0  501 -0.00000000000E+00 -0.00000000000E+00 -0.20118775856E+02  0.20118775856E+02  0.00000000000E+00 0.  1.
          6    1    1    2  502    0  0.39501273750E+02  0.32370203716E+02  0.46395849894E+03  0.49778978440E+03  0.17300000000E+03 0.  1.
         -6    1    1    2    0  501 -0.39501273750E+02 -0.32370203716E+02  0.25362777008E+04  0.25426839670E+04  0.17300000000E+03 0. -1.
<mgrwt>
<rscale>  2 0.18038066E+03</rscale>
<asrwt>0</asrwt>
<pdfrwt beam="1">  1        2 0.46466964E+00 0.18038066E+03</pdfrwt>
<pdfrwt beam="2">  1       -2 0.30951987E-02 0.18038066E+03</pdfrwt>
<totfact> 0.83689295E+02</totfact>
</mgrwt>
</event>
<event>
 4    1  0.7354369E-001  0.2261411E+03  0.7546771E-02  0.1129386E+00
          2   -1    0    0  502    0  0.00000000000E+00  0.00000000000E+00  0.87399881800E+03  0.87399881800E+03  0.00000000000E+00 0. -1.
         -2   -1    0    0    0  501 -0.00000000000E+00 -0.00000000000E+00 -0.67823813426E+02  0.67823813426E+02  0.00000000000E+00 0.  1.
          6    1    1    2  502    0 -0.49117342647E+02 -0.13710686758E+03  0.22860382170E+03  0.32155794778E+03  0.17300000000E+03 0. -1.
         -6    1    1    2    0  501  0.49117342647E+02  0.13710686758E+03  0.57757118287E+03  0.62026468364E+03  0.17300000000E+03 0. -1.
<mgrwt>
<rscale>  2 0.22614112E+03</rscale>
<asrwt>0</asrwt>
<pdfrwt beam="1">  1        2 0.13446135E+00 0.22614112E+03</pdfrwt>
<pdfrwt beam="2">  1       -2 0.10434433E-01 0.22614112E+03</pdfrwt>
<totfact> 0.19536713E+03</totfact>
</mgrwt>
</event>
<event>
 4    1  0.7354369E-001  0.3076761E+03  0.7546771E-02  0.1081465E+00
          2   -1    0    0  502    0  0.00000000000E+00  0.00000000000E+00  0.63246766600E+03  0.63246766600E+03  0.00000000000E+00 0.  1.
         -2   -1    0    0    0  501 -0.00000000000E+00 -0.00000000000E+00 -0.18756530825E+03  0.18756530825E+03  0.00000000000E+00 0. -1.
          6    1    1    2  502    0 -0.23576872266E+03  0.95648893898E+02  0.40673580236E+03  0.50999864158E+03  0.17300000000E+03 0.  1.
         -6    1    1    2    0  501  0.23576872266E+03 -0.95648893898E+02  0.38166555387E+02  0.31003433268E+03  0.17300000000E+03 0. -1.
<mgrwt>
<rscale>  2 0.30767613E+03</rscale>
<asrwt>0</asrwt>
<pdfrwt beam="1">  1        2 0.97302717E-01 0.30767613E+03</pdfrwt>
<pdfrwt beam="2">  1       -2 0.28856202E-01 0.30767613E+03</pdfrwt>
<totfact> 0.52243268E+02</totfact>
</mgrwt>
</event>
<event>
 4    1  0.7354369E-001  0.1758497E+03  0.7546771E-02  0.1171881E+00
          1   -1    0    0  502    0  0.00000000000E+00  0.00000000000E+00  0.78024357036E+03  0.78024357036E+03  0.00000000000E+00 0.  1.
         -1   -1    0    0    0  501 -0.00000000000E+00 -0.00000000000E+00 -0.42491491953E+02  0.42491491953E+02  0.00000000000E+00 0. -1.
          6    1    1    2  502    0  0.14392191402E+02  0.28053382638E+02  0.47557824592E+03  0.50704811946E+03  0.17300000000E+03 0.  1.
         -6    1    1    2    0  501 -0.14392191402E+02 -0.28053382638E+02  0.26217383249E+03  0.31568694286E+03  0.17300000000E+03 0.  1.
<mgrwt>
<rscale>  2 0.17584973E+03</rscale>
<asrwt>0</asrwt>
<pdfrwt beam="1">  1        1 0.12003746E+00 0.17584973E+03</pdfrwt>
<pdfrwt beam="2">  1       -1 0.65371532E-02 0.17584973E+03</pdfrwt>
<totfact> 0.27773029E+03</totfact>
</mgrwt>
</event>
<event>
 4    1  0.7354369E-001  0.2234884E+03  0.7546771E-02  0.1131309E+00
         -2   -1    0    0    0  501 -0.00000000000E+00  0.00000000000E+00  0.30848250204E+03  0.30848250204E+03  0.00000000000E+00 0.  1.
          2   -1    0    0  502    0  0.00000000000E+00 -0.00000000000E+00 -0.16777321872E+03  0.16777321872E+03  0.00000000000E+00 0. -1.
          6    1    1    2  502    0 -0.42297644510E+02  0.13501467995E+03  0.11486269221E+03  0.25127772005E+03  0.17300000000E+03 0.  1.
         -6    1    1    2    0  501  0.42297644510E+02 -0.13501467995E+03  0.25846591115E+02  0.22497800071E+03  0.17300000000E+03 0. -1.
<mgrwt>
<rscale>  2 0.22348838E+03</rscale>
<asrwt>0</asrwt>
<pdfrwt beam="1">  1        2 0.25811265E-01 0.22348838E+03</pdfrwt>
<pdfrwt beam="2">  1       -2 0.47458846E-01 0.22348838E+03</pdfrwt>
<totfact> 0.88270574E+02</totfact>
</mgrwt>
</event>
<event>
 4    1  0.7354369E-001  0.1933132E+03  0.7546771E-02  0.1155507E+00
         -2   -1    0    0    0  501 -0.00000000000E+00  0.00000000000E+00  0.47820247334E+02  0.47820247334E+02  0.00000000000E+00 0. -1.
          2   -1    0    0  502    0  0.00000000000E+00 -0.00000000000E+00 -0.78255647178E+03  0.78255647178E+03  0.00000000000E+00 0.  1.
          6    1    1    2  502    0  0.63797713346E+01  0.86025026446E+02 -0.35188568273E+03  0.40148915348E+03  0.17300000000E+03 0.  1.
         -6    1    1    2    0  501 -0.63797713346E+01 -0.86025026446E+02 -0.38285054172E+03  0.42888756563E+03  0.17300000000E+03 0. -1.
<mgrwt>
<rscale>  2 0.19331323E+03</rscale>
<asrwt>0</asrwt>
<pdfrwt beam="1">  1        2 0.12039330E+00 0.19331323E+03</pdfrwt>
<pdfrwt beam="2">  1       -2 0.73569615E-02 0.19331323E+03</pdfrwt>
<totfact> 0.38862671E+03</totfact>
</mgrwt>
</event>
<event>
 4    1  0.7354369E-001  0.2275045E+03  0.7546771E-02  0.1128409E+00
          4   -1    0    0  502    0  0.00000000000E+00  0.00000000000E+00  0.12886965512E+03  0.12886965512E+03  0.00000000000E+00 0. -1.
         -4   -1    0    0    0  501 -0.00000000000E+00 -0.00000000000E+00 -0.46478983834E+03  0.46478983834E+03  0.00000000000E+00 0.  1.
          6    1    1    2  502    0  0.13139677375E+03 -0.67558876376E+02 -0.58542010724E+02  0.23491590187E+03  0.17300000000E+03 0. -1.
         -6    1    1    2    0  501 -0.13139677375E+03  0.67558876376E+02 -0.27737817250E+03  0.35874359159E+03  0.17300000000E+03 0.  1.
<mgrwt>
<rscale>  2 0.22750454E+03</rscale>
<asrwt>0</asrwt>
<pdfrwt beam="1">  1        4 0.19826100E-01 0.22750454E+03</pdfrwt>
<pdfrwt beam="2">  1       -4 0.71506131E-01 0.22750454E+03</pdfrwt>
<totfact> 0.75325636E+01</totfact>
</mgrwt>
</event>
<event>
 4    1  0.7354369E-001  0.2071603E+03  0.7546771E-02  0.1143835E+00
          1   -1    0    0  502    0  0.00000000000E+00  0.00000000000E+00  0.17203043105E+04  0.17203043105E+04  0.00000000000E+00 0.  1.
         -1   -1    0    0    0  501 -0.00000000000E+00 -0.00000000000E+00 -0.26211529548E+02  0.26211529548E+02  0.00000000000E+00 0. -1.
          6    1    1    2  502    0  0.11056629838E+03  0.27594993141E+02  0.65519506888E+03  0.68716516812E+03  0.17300000000E+03 0. -1.
         -6    1    1    2    0  501 -0.11056629838E+03 -0.27594993141E+02  0.10388977121E+04  0.10593506720E+04  0.17300000000E+03 0.  1.
<mgrwt>
<rscale>  2 0.20716030E+03</rscale>
<asrwt>0</asrwt>
<pdfrwt beam="1">  1        1 0.26466211E+00 0.20716030E+03</pdfrwt>
<pdfrwt beam="2">  1       -1 0.40325444E-02 0.20716030E+03</pdfrwt>
<totfact> 0.12507233E+03</totfact>
</mgrwt>
</event>
<event>
 4    1  0.7354369E-001  0.1731609E+03  0.7546771E-02  0.1174591E+00
         -2   -1    0    0    0  501 -0.00000000000E+00  0.00000000000E+00  0.26812430499E+02  0.26812430499E+02  0.00000000000E+00 0. -1.
          2   -1    0    0  502    0  0.00000000000E+00 -0.00000000000E+00 -0.17060104840E+04  0.17060104840E+04  0.00000000000E+00 0.  1.
          6    1    1    2  502    0 -0.48358324381E+01  0.56837691083E+01 -0.13481216070E+04  0.13591970268E+04  0.17300000000E+03 0.  1.
         -6    1    1    2    0  501  0.48358324381E+01 -0.56837691083E+01 -0.33107644655E+03  0.37362588771E+03  0.17300000000E+03 0. -1.
<mgrwt>
<rscale>  2 0.17316088E+03</rscale>
<asrwt>0</asrwt>
<pdfrwt beam="1">  1        2 0.26246308E+00 0.17316088E+03</pdfrwt>
<pdfrwt beam="2">  1       -2 0.41249905E-02 0.17316088E+03</pdfrwt>
<totfact> 0.27827427E+03</totfact>
</mgrwt>
</event>
<event>
 4    1  0.7354369E-001  0.2746501E+03  0.7546771E-02  0.1098647E+00
          1   -1    0    0  502    0  0.00000000000E+00  0.00000000000E+00  0.21939797430E+03  0.21939797430E+03  0.00000000000E+00 0.  1.
         -1   -1    0    0    0  501 -0.00000000000E+00 -0.00000000000E+00 -0.50495884248E+03  0.50495884248E+03  0.00000000000E+00 0. -1.
          6    1    1    2  502    0 -0.19306468686E+03 -0.90717757910E+02  0.61816512387E+02  0.28152080938E+03  0.17300000000E+03 0.  1.
         -6    1    1    2    0  501  0.19306468686E+03  0.90717757910E+02 -0.34737738057E+03  0.44283600739E+03  0.17300000000E+03 0. -1.
<mgrwt>
<rscale>  2 0.27465011E+03</rscale>
<asrwt>0</asrwt>
<pdfrwt beam="1">  1        1 0.33753535E-01 0.27465011E+03</pdfrwt>
<pdfrwt beam="2">  1       -1 0.77685974E-01 0.27465011E+03</pdfrwt>
<totfact> 0.22745646E+02</totfact>
</mgrwt>
</event>
<event>
 4    1  0.7354369E-001  0.2074375E+03  0.7546771E-02  0.1143611E+00
          2   -1    0    0  502    0  0.00000000000E+00  0.00000000000E+00  0.67378578447E+03  0.67378578447E+03  0.00000000000E+00 0.  1.
         -2   -1    0    0    0  501 -0.00000000000E+00 -0.00000000000E+00 -0.98587122757E+02  0.98587122757E+02  0.00000000000E+00 0. -1.
          6    1    1    2  502    0  0.74708457142E+02 -0.86717649823E+02  0.58407261820E+02  0.21550339346E+03  0.17300000000E+03 0. -1.
         -6    1    1    2    0  501 -0.74708457142E+02  0.86717649823E+02  0.51679139990E+03  0.55686951377E+03  0.17300000000E+03 0.  1.
<mgrwt>
<rscale>  2 0.20743747E+03</rscale>
<asrwt>0</asrwt>
<pdfrwt beam="1">  1        2 0.10365935E+00 0.20743747E+03</pdfrwt>
<pdfrwt beam="2">  1       -2 0.15167250E-01 0.20743747E+03</pdfrwt>
<totfact> 0.14730943E+03</totfact>
</mgrwt>
</event>
<event>
 4    1  0.7354369E-001  0.2345146E+03  0.7546771E-02  0.1123502E+00
         -2   -1    0    0    0  501 -0.00000000000E+00  0.00000000000E+00  0.39144516728E+02  0.39144516728E+02  0.00000000000E+00 0. -1.
          2   -1    0    0  502    0  0.00000000000E+00 -0.00000000000E+00 -0.14625235320E+04  0.14625235320E+04  0.00000000000E+00 0.  1.
          6    1    1    2  502    0  0.80638851235E+01 -0.15812365424E+03 -0.56275171060E+03  0.60966105670E+03  0.17300000000E+03 0.  1.
         -6    1    1    2    0  501 -0.80638851235E+01  0.15812365424E+03 -0.86062730462E+03  0.89200699197E+03  0.17300000000E+03 0.  1.
<mgrwt>
<rscale>  2 0.23451464E+03</rscale>
<asrwt>0</asrwt>
<pdfrwt beam="1">  1        2 0.22500360E+00 0.23451464E+03</pdfrwt>
<pdfrwt beam="2">  1       -2 0.60222338E-02 0.23451464E+03</pdfrwt>
<totfact> 0.21049006E+03</totfact>
</mgrwt>
</event>
<event>
 4    1  0.7354369E-001  0.2070151E+03  0.7546771E-02  0.1143952E+00
          2   -1    0    0  502    0  0.00000000000E+00  0.00000000000E+00  0.15088177174E+04  0.15088177174E+04  0.00000000000E+00 0.  1.
         -2   -1    0    0    0  501 -0.00000000000E+00 -0.00000000000E+00 -0.30695713736E+02  0.30695713736E+02  0.00000000000E+00 0. -1.
          6    1    1    2  502    0  0.93257651029E+01  0.11331048188E+03  0.94942509292E+03  0.97173208358E+03  0.17300000000E+03 0. -1.
         -6    1    1    2    0  501 -0.93257651029E+01 -0.11331048188E+03  0.52869691072E+03  0.56778134753E+03  0.17300000000E+03 0.  1.
<mgrwt>
<rscale>  2 0.20701506E+03</rscale>
<asrwt>0</asrwt>
<pdfrwt beam="1">  1        2 0.23212574E+00 0.20701506E+03</pdfrwt>
<pdfrwt beam="2">  1       -2 0.47224187E-02 0.20701506E+03</pdfrwt>
<totfact> 0.28805221E+03</totfact>
</mgrwt>
</event>
<event>
 4    1  0.7354369E-001  0.2249529E+03  0.7546771E-02  0.1130243E+00
          1   -1    0    0  502    0  0.00000000000E+00  0.00000000000E+00  0.62028096711E+03  0.62028096711E+03  0.00000000000E+00 0.  1.
         -1   -1    0    0    0  501 -0.00000000000E+00 -0.00000000000E+00 -0.89876623961E+02  0.89876623961E+02  0.00000000000E+00 0. -1.
          6    1    1    2  502    0  0.14331804383E+03 -0.11607073576E+02  0.37307168043E+03  0.43564465403E+03  0.17300000000E+03 0.  1.
         -6    1    1    2    0  501 -0.14331804383E+03  0.11607073576E+02  0.15733266271E+03  0.27451293704E+03  0.17300000000E+03 0. -1.
<mgrwt>
<rscale>  2 0.22495285E+03</rscale>
<asrwt>0</asrwt>
<pdfrwt beam="1">  1        1 0.95427838E-01 0.22495285E+03</pdfrwt>
<pdfrwt beam="2">  1       -1 0.13827173E-01 0.22495285E+03</pdfrwt>
<totfact> 0.12282081E+03</totfact>
</mgrwt>
</event>
<event>
 4    1  0.7354369E-001  0.2140295E+03  0.7546771E-02  0.1138414E+00
          2   -1    0    0  502    0  0.00000000000E+00  0.00000000000E+00  0.25131575279E+03  0.25131575279E+03  0.00000000000E+00 0.  1.
         -2   -1    0    0    0  501 -0.00000000000E+00 -0.00000000000E+00 -0.23082071428E+03  0.23082071428E+03  0.00000000000E+00 0. -1.
          6    1    1    2  502    0  0.45090186647E+02  0.11767115373E+03 -0.10030718194E+03  0.23636868680E+03  0.17300000000E+03 0. -1.
         -6    1    1    2    0  501 -0.45090186647E+02 -0.11767115373E+03  0.12080222045E+03  0.24576778026E+03  0.17300000000E+03 0.  1.
<mgrwt>
<rscale>  2 0.21402950E+03</rscale>
<asrwt>0</asrwt>
<pdfrwt beam="1">  1        2 0.38663962E-01 0.21402950E+03</pdfrwt>
<pdfrwt beam="2">  1       -2 0.35510879E-01 0.21402950E+03</pdfrwt>
<totfact> 0.98886018E+02</totfact>
</mgrwt>
</event>
<event>
 4    1  0.7354369E-001  0.2179654E+03  0.7546771E-02  0.1135409E+00
          2   -1    0    0  502    0  0.00000000000E+00  0.00000000000E+00  0.46068558156E+03  0.46068558156E+03  0.00000000000E+00 0. -1.
         -2   -1    0    0    0  501 -0.00000000000E+00 -0.00000000000E+00 -0.25554710567E+03  0.25554710567E+03  0.00000000000E+00 0.  1.
          6    1    1    2  502    0 -0.58241421775E+02 -0.11911271205E+03 -0.17400420099E+03  0.27890206766E+03  0.17300000000E+03 0. -1.
         -6    1    1    2    0  501  0.58241421775E+02  0.11911271205E+03  0.37914267688E+03  0.43733061957E+03  0.17300000000E+03 0. -1.
<mgrwt>
<rscale>  2 0.21796537E+03</rscale>
<asrwt>0</asrwt>
<pdfrwt beam="1">  1        2 0.70874705E-01 0.21796537E+03</pdfrwt>
<pdfrwt beam="2">  1       -2 0.39314939E-01 0.21796537E+03</pdfrwt>
<totfact> 0.42379085E+02</totfact>
</mgrwt>
</event>
<event>
 4    1  0.7354369E-001  0.2121229E+03  0.7546771E-02  0.1139896E+00
         -2   -1    0    0    0  501 -0.00000000000E+00  0.00000000000E+00  0.15720925476E+04  0.15720925476E+04  0.00000000000E+00 0. -1.
          2   -1    0    0  502    0  0.00000000000E+00 -0.00000000000E+00 -0.28842915642E+02  0.28842915642E+02  0.00000000000E+00 0.  1.
          6    1    1    2  502    0 -0.11107023589E+03 -0.52254335402E+02  0.70153781334E+03  0.73290614434E+03  0.17300000000E+03 0. -1.
         -6    1    1    2    0  501  0.11107023589E+03  0.52254335402E+02  0.84171181860E+03  0.86802931888E+03  0.17300000000E+03 0.  1.
<mgrwt>
<rscale>  2 0.21212287E+03</rscale>
<asrwt>0</asrwt>
<pdfrwt beam="1">  1        2 0.44373729E-02 0.21212287E+03</pdfrwt>
<pdfrwt beam="2">  1       -2 0.24186033E+00 0.21212287E+03</pdfrwt>
<totfact> 0.14770819E+02</totfact>
</mgrwt>
</event>
<event>
 4    1  0.7354369E-001  0.2157863E+03  0.7546771E-02  0.1137064E+00
          1   -1    0    0  502    0  0.00000000000E+00  0.00000000000E+00  0.97967327421E+03  0.97967327421E+03  0.00000000000E+00 0.  1.
         -1   -1    0    0    0  501 -0.00000000000E+00 -0.00000000000E+00 -0.47983809542E+02  0.47983809542E+02  0.00000000000E+00 0. -1.
          6    1    1    2  502    0 -0.12872648328E+03  0.80135266853E+01  0.51582277848E+03  0.55913939488E+03  0.17300000000E+03 0.  1.
         -6    1    1    2    0  501  0.12872648328E+03 -0.80135266853E+01  0.41586668619E+03  0.46851768888E+03  0.17300000000E+03 0. -1.
<mgrwt>
<rscale>  2 0.21578629E+03</rscale>
<asrwt>0</asrwt>
<pdfrwt beam="1">  1        1 0.15071895E+00 0.21578629E+03</pdfrwt>
<pdfrwt beam="2">  1       -1 0.73821253E-02 0.21578629E+03</pdfrwt>
<totfact> 0.16125704E+03</totfact>
</mgrwt>
</event>
<event>
 4    1  0.7354369E-001  0.2993114E+03  0.7546771E-02  0.1085585E+00
          2   -1    0    0  502    0  0.00000000000E+00  0.00000000000E+00  0.11954219621E+04  0.11954219621E+04  0.00000000000E+00 0.  1.
         -2   -1    0    0    0  501 -0.00000000000E+00 -0.00000000000E+00 -0.78512553776E+02  0.78512553776E+02  0.00000000000E+00 0. -1.
          6    1    1    2  502    0 -0.73314143235E+02  0.23298790555E+03  0.42261879914E+03  0.51787448008E+03  0.17300000000E+03 0. -1.
         -6    1    1    2    0  501  0.73314143235E+02 -0.23298790555E+03  0.69429060920E+03  0.75606003582E+03  0.17300000000E+03 0. -1.
<mgrwt>
<rscale>  2 0.29931142E+03</rscale>
<asrwt>0</asrwt>
<pdfrwt beam="1">  1        2 0.18391106E+00 0.29931142E+03</pdfrwt>
<pdfrwt beam="2">  1       -2 0.12078855E-01 0.29931142E+03</pdfrwt>
<totfact> 0.98367271E+02</totfact>
</mgrwt>
</event>
<event>
 4    1  0.7354369E-001  0.1784296E+03  0.7546771E-02  0.1169332E+00
          2   -1    0    0  502    0  0.00000000000E+00  0.00000000000E+00  0.14452875403E+04  0.14452875403E+04  0.00000000000E+00 0.  1.
         -2   -1    0    0    0  501 -0.00000000000E+00 -0.00000000000E+00 -0.22506750853E+02  0.22506750853E+02  0.00000000000E+00 0. -1.
          6    1    1    2  502    0 -0.27362453337E+02  0.34050176950E+02  0.81840220896E+03  0.83762718082E+03  0.17300000000E+03 0. -1.
         -6    1    1    2    0  501  0.27362453337E+02 -0.34050176950E+02  0.60437858044E+03  0.63016711030E+03  0.17300000000E+03 0. -1.
<mgrwt>
<rscale>  2 0.17842959E+03</rscale>
<asrwt>0</asrwt>
<pdfrwt beam="1">  1        2 0.22235186E+00 0.17842959E+03</pdfrwt>
<pdfrwt beam="2">  1       -2 0.34625782E-02 0.17842959E+03</pdfrwt>
<totfact> 0.49482264E+03</totfact>
</mgrwt>
</event>
<event>
 4    1  0.7354369E-001  0.2332745E+03  0.7546771E-02  0.1124356E+00
         -1   -1    0    0    0  501 -0.00000000000E+00  0.00000000000E+00  0.64114785665E+02  0.64114785665E+02  0.00000000000E+00 0.  1.
          1   -1    0    0  502    0  0.00000000000E+00 -0.00000000000E+00 -0.98368552154E+03  0.98368552154E+03  0.00000000000E+00 0. -1.
          6    1    1    2  502    0 -0.98673803930E+02 -0.12145561737E+03 -0.65382682164E+03  0.69419485685E+03  0.17300000000E+03 0.  1.
         -6    1    1    2    0  501  0.98673803930E+02  0.12145561737E+03 -0.26574391424E+03  0.35360545036E+03  0.17300000000E+03 0.  1.
<mgrwt>
<rscale>  2 0.23327449E+03</rscale>
<asrwt>0</asrwt>
<pdfrwt beam="1">  1        1 0.15133623E+00 0.23327449E+03</pdfrwt>
<pdfrwt beam="2">  1       -1 0.98638133E-02 0.23327449E+03</pdfrwt>
<totfact> 0.10270949E+03</totfact>
</mgrwt>
</event>
<event>
 4    1  0.7354369E-001  0.4075489E+03  0.7546771E-02  0.1041197E+00
         -2   -1    0    0    0  501 -0.00000000000E+00  0.00000000000E+00  0.93880529242E+02  0.93880529242E+02  0.00000000000E+00 0. -1.
          2   -1    0    0  502    0  0.00000000000E+00 -0.00000000000E+00 -0.22226357891E+04  0.22226357891E+04  0.00000000000E+00 0.  1.
          6    1    1    2  502    0 -0.13304852684E+03 -0.34418772400E+03 -0.15875147133E+04  0.16389933083E+04  0.17300000000E+03 0.  1.
         -6    1    1    2    0  501  0.13304852684E+03  0.34418772400E+03 -0.54124054657E+03  0.67752301001E+03  0.17300000000E+03 0. -1.
<mgrwt>
<rscale>  2 0.40754889E+03</rscale>
<asrwt>0</asrwt>
<pdfrwt beam="1">  1        2 0.34194393E+00 0.40754889E+03</pdfrwt>
<pdfrwt beam="2">  1       -2 0.14443160E-01 0.40754889E+03</pdfrwt>
<totfact> 0.20141706E+02</totfact>
</mgrwt>
</event>
<event>
 4    1  0.7354369E-001  0.1833119E+03  0.7546771E-02  0.1164636E+00
         -3   -1    0    0    0  501 -0.00000000000E+00  0.00000000000E+00  0.18596541335E+03  0.18596541335E+03  0.00000000000E+00 0. -1.
          3   -1    0    0  502    0  0.00000000000E+00 -0.00000000000E+00 -0.18387460496E+03  0.18387460496E+03  0.00000000000E+00 0.  1.
          6    1    1    2  502    0  0.51842736491E+02  0.31410072303E+02 -0.23266605927E+02  0.18478256660E+03  0.17300000000E+03 0.  1.
         -6    1    1    2    0  501 -0.51842736491E+02 -0.31410072303E+02  0.25357414319E+02  0.18505745170E+03  0.17300000000E+03 0. -1.
<mgrwt>
<rscale>  2 0.18331193E+03</rscale>
<asrwt>0</asrwt>
<pdfrwt beam="1">  1        3 0.28288401E-01 0.18331193E+03</pdfrwt>
<pdfrwt beam="2">  1       -3 0.28610064E-01 0.18331193E+03</pdfrwt>
<totfact> 0.33939071E+02</totfact>
</mgrwt>
</event>
<event>
 4    1  0.7354369E-001  0.1941649E+03  0.7546771E-02  0.1154758E+00
          3   -1    0    0  502    0  0.00000000000E+00  0.00000000000E+00  0.58430157293E+03  0.58430157293E+03  0.00000000000E+00 0.  1.
         -3   -1    0    0    0  501 -0.00000000000E+00 -0.00000000000E+00 -0.68572215281E+02  0.68572215281E+02  0.00000000000E+00 0. -1.
          6    1    1    2  502    0  0.32672798592E+02  0.81874974588E+02  0.33720430569E+03  0.38911022475E+03  0.17300000000E+03 0. -1.
         -6    1    1    2    0  501 -0.32672798592E+02 -0.81874974588E+02  0.17852505197E+03  0.26376356347E+03  0.17300000000E+03 0. -1.
<mgrwt>
<rscale>  2 0.19416494E+03</rscale>
<asrwt>0</asrwt>
<pdfrwt beam="1">  1        3 0.89892547E-01 0.19416494E+03</pdfrwt>
<pdfrwt beam="2">  1       -3 0.10549572E-01 0.19416494E+03</pdfrwt>
<totfact> 0.18956026E+02</totfact>
</mgrwt>
</event>
<event>
 4    1  0.7354369E-001  0.2036477E+03  0.7546771E-02  0.1146697E+00
          1   -1    0    0  502    0  0.00000000000E+00  0.00000000000E+00  0.14327174038E+03  0.14327174038E+03  0.00000000000E+00 0. -1.
         -1   -1    0    0    0  501 -0.00000000000E+00 -0.00000000000E+00 -0.31316304193E+03  0.31316304193E+03  0.00000000000E+00 0.  1.
          6    1    1    2  502    0 -0.68875978402E+02  0.82459009670E+02 -0.14772325363E+03  0.25158407807E+03  0.17300000000E+03 0.  1.
         -6    1    1    2    0  501  0.68875978402E+02 -0.82459009670E+02 -0.22168047924E+02  0.20485070423E+03  0.17300000000E+03 0.  1.
<mgrwt>
<rscale>  2 0.20364771E+03</rscale>
<asrwt>0</asrwt>
<pdfrwt beam="1">  1        1 0.22041806E-01 0.20364771E+03</pdfrwt>
<pdfrwt beam="2">  1       -1 0.48178929E-01 0.20364771E+03</pdfrwt>
<totfact> 0.98739110E+02</totfact>
</mgrwt>
</event>
<event>
 4    1  0.7354369E-001  0.3580576E+03  0.7546771E-02  0.1059356E+00
         -1   -1    0    0    0  501 -0.00000000000E+00  0.00000000000E+00  0.90551428564E+02  0.90551428564E+02  0.00000000000E+00 0.  1.
          1   -1    0    0  502    0  0.00000000000E+00 -0.00000000000E+00 -0.16157823283E+04  0.16157823283E+04  0.00000000000E+00 0. -1.
          6    1    1    2  502    0  0.25416539553E+03 -0.18351076331E+03 -0.46248645189E+03  0.58489226933E+03  0.17300000000E+03 0. -1.
         -6    1    1    2    0  501 -0.25416539553E+03  0.18351076331E+03 -0.10627444478E+04  0.11214414875E+04  0.17300000000E+03 0.  1.
<mgrwt>
<rscale>  2 0.35805761E+03</rscale>
<asrwt>0</asrwt>
<pdfrwt beam="1">  1        1 0.24858190E+00 0.35805761E+03</pdfrwt>
<pdfrwt beam="2">  1       -1 0.13930989E-01 0.35805761E+03</pdfrwt>
<totfact> 0.21482685E+02</totfact>
</mgrwt>
</event>
<event>
 4    1  0.7354369E-001  0.2439375E+03  0.7546771E-02  0.1117197E+00
          1   -1    0    0  502    0  0.00000000000E+00  0.00000000000E+00  0.16620980659E+04  0.16620980659E+04  0.00000000000E+00 0. -1.
         -1   -1    0    0    0  501 -0.00000000000E+00 -0.00000000000E+00 -0.35952596771E+02  0.35952596771E+02  0.00000000000E+00 0.  1.
          6    1    1    2  502    0 -0.16914247691E+03  0.31101677707E+02  0.75801986322E+03  0.79630371397E+03  0.17300000000E+03 0.  1.
         -6    1    1    2    0  501  0.16914247691E+03 -0.31101677707E+02  0.86812560588E+03  0.90174694867E+03  0.17300000000E+03 0.  1.
<mgrwt>
<rscale>  2 0.24393748E+03</rscale>
<asrwt>0</asrwt>
<pdfrwt beam="1">  1        1 0.25570734E+00 0.24393748E+03</pdfrwt>
<pdfrwt beam="2">  1       -1 0.55311700E-02 0.24393748E+03</pdfrwt>
<totfact> 0.84814697E+02</totfact>
</mgrwt>
</event>
<event>
 4    1  0.7354369E-001  0.1861551E+03  0.7546771E-02  0.1161976E+00
         -2   -1    0    0    0  501 -0.00000000000E+00  0.00000000000E+00  0.27709941283E+02  0.27709941283E+02  0.00000000000E+00 0. -1.
          2   -1    0    0  502    0  0.00000000000E+00 -0.00000000000E+00 -0.12781194066E+04  0.12781194066E+04  0.00000000000E+00 0.  1.
          6    1    1    2  502    0 -0.46814232131E+02  0.50330371586E+02 -0.52937830063E+03  0.56115515128E+03  0.17300000000E+03 0.  1.
         -6    1    1    2    0  501  0.46814232131E+02 -0.50330371586E+02 -0.72103116472E+03  0.74467419664E+03  0.17300000000E+03 0.  1.
<mgrwt>
<rscale>  2 0.18615509E+03</rscale>
<asrwt>0</asrwt>
<pdfrwt beam="1">  1        2 0.19663375E+00 0.18615509E+03</pdfrwt>
<pdfrwt beam="2">  1       -2 0.42630680E-02 0.18615509E+03</pdfrwt>
<totfact> 0.44675024E+03</totfact>
</mgrwt>
</event>
<event>
 4    1  0.7354369E-001  0.1919798E+03  0.7546771E-02  0.1156688E+00
          2   -1    0    0  502    0  0.00000000000E+00  0.00000000000E+00  0.26222034294E+02  0.26222034294E+02  0.00000000000E+00 0.  1.
         -2   -1    0    0    0  501 -0.00000000000E+00 -0.00000000000E+00 -0.20521151933E+04  0.20521151933E+04  0.00000000000E+00 0. -1.
          6    1    1    2  502    0 -0.59131982568E+02 -0.58571647747E+02 -0.15962482877E+04  0.16077514811E+04  0.17300000000E+03 0. -1.
         -6    1    1    2    0  501  0.59131982568E+02  0.58571647747E+02 -0.42964487134E+03  0.47058574644E+03  0.17300000000E+03 0.  1.
<mgrwt>
<rscale>  2 0.19197976E+03</rscale>
<asrwt>0</asrwt>
<pdfrwt beam="1">  1        2 0.40341585E-02 0.19197976E+03</pdfrwt>
<pdfrwt beam="2">  1       -2 0.31571008E+00 0.19197976E+03</pdfrwt>
<totfact> 0.62585425E+01</totfact>
</mgrwt>
</event>
<event>
 4    1  0.7354369E-001  0.1770598E+03  0.7546771E-02  0.1170679E+00
         -2   -1    0    0    0  501 -0.00000000000E+00  0.00000000000E+00  0.11399603926E+02  0.11399603926E+02  0.00000000000E+00 0.  1.
          2   -1    0    0  502    0  0.00000000000E+00 -0.00000000000E+00 -0.32646783516E+04  0.32646783516E+04  0.00000000000E+00 0. -1.
          6    1    1    2  502    0 -0.32774108571E+02 -0.18628844623E+02 -0.97632230993E+03  0.99224766511E+03  0.17300000000E+03 0.  1.
         -6    1    1    2    0  501  0.32774108571E+02  0.18628844623E+02 -0.22769564377E+04  0.22838302904E+04  0.17300000000E+03 0. -1.
<mgrwt>
<rscale>  2 0.17705981E+03</rscale>
<asrwt>0</asrwt>
<pdfrwt beam="1">  1        2 0.50225784E+00 0.17705981E+03</pdfrwt>
<pdfrwt beam="2">  1       -2 0.17537865E-02 0.17705981E+03</pdfrwt>
<totfact> 0.13751996E+03</totfact>
</mgrwt>
</event>
<event>
 4    1  0.7354369E-001  0.2264502E+03  0.7546771E-02  0.1129163E+00
          1   -1    0    0  502    0  0.00000000000E+00  0.00000000000E+00  0.77941937699E+03  0.77941937699E+03  0.00000000000E+00 0.  1.
         -1   -1    0    0    0  501 -0.00000000000E+00 -0.00000000000E+00 -0.77422755041E+02  0.77422755041E+02  0.00000000000E+00 0. -1.
          6    1    1    2  502    0  0.93829812343E+02 -0.11201196627E+03  0.51704749947E+03  0.56446242655E+03  0.17300000000E+03 0.  1.
         -6    1    1    2    0  501 -0.93829812343E+02  0.11201196627E+03  0.18494912247E+03  0.29237970548E+03  0.17300000000E+03 0. -1.
<mgrwt>
<rscale>  2 0.22645025E+03</rscale>
<asrwt>0</asrwt>
<pdfrwt beam="1">  1        1 0.11991067E+00 0.22645025E+03</pdfrwt>
<pdfrwt beam="2">  1       -1 0.11911194E-01 0.22645025E+03</pdfrwt>
<totfact> 0.11134260E+03</totfact>
</mgrwt>
</event>
<event>
 4    1  0.7354369E-001  0.1776391E+03  0.7546771E-02  0.1170108E+00
         -2   -1    0    0    0  501 -0.00000000000E+00  0.00000000000E+00  0.94300508674E+02  0.94300508674E+02  0.00000000000E+00 0.  1.
          2   -1    0    0  502    0  0.00000000000E+00 -0.00000000000E+00 -0.33790269633E+03  0.33790269633E+03  0.00000000000E+00 0. -1.
          6    1    1    2  502    0  0.21997654738E+01  0.40271688515E+02 -0.14307304933E+03  0.22809108994E+03  0.17300000000E+03 0.  1.
         -6    1    1    2    0  501 -0.21997654738E+01 -0.40271688515E+02 -0.10052913832E+03  0.20411211506E+03  0.17300000000E+03 0.  1.
<mgrwt>
<rscale>  2 0.17763909E+03</rscale>
<asrwt>0</asrwt>
<pdfrwt beam="1">  1        2 0.51985030E-01 0.17763909E+03</pdfrwt>
<pdfrwt beam="2">  1       -2 0.14507771E-01 0.17763909E+03</pdfrwt>
<totfact> 0.34026005E+03</totfact>
</mgrwt>
</event>
<event>
 4    1  0.7354369E-001  0.1941136E+03  0.7546771E-02  0.1154803E+00
         -2   -1    0    0    0  501 -0.00000000000E+00  0.00000000000E+00  0.27771394623E+02  0.27771394623E+02  0.00000000000E+00 0. -1.
          2   -1    0    0  502    0  0.00000000000E+00 -0.00000000000E+00 -0.16020663730E+04  0.16020663730E+04  0.00000000000E+00 0.  1.
          6    1    1    2  502    0 -0.52576670847E+02  0.70617208301E+02 -0.11060055022E+04  0.11229106230E+04  0.17300000000E+03 0.  1.
         -6    1    1    2    0  501  0.52576670847E+02 -0.70617208301E+02 -0.46828947621E+03  0.50692714462E+03  0.17300000000E+03 0.  1.
<mgrwt>
<rscale>  2 0.19411362E+03</rscale>
<asrwt>0</asrwt>
<pdfrwt beam="1">  1        2 0.24647171E+00 0.19411362E+03</pdfrwt>
<pdfrwt beam="2">  1       -2 0.42725230E-02 0.19411362E+03</pdfrwt>
<totfact> 0.29910260E+03</totfact>
</mgrwt>
</event>
<event>
 4    1  0.7354369E-001  0.1953647E+03  0.7546771E-02  0.1153710E+00
         -2   -1    0    0    0  501 -0.00000000000E+00  0.00000000000E+00  0.13182058352E+02  0.13182058352E+02  0.00000000000E+00 0.  1.
          2   -1    0    0  502    0  0.00000000000E+00 -0.00000000000E+00 -0.36336024131E+04  0.36336024131E+04  0.00000000000E+00 0. -1.
          6    1    1    2  502    0  0.16459374196E+02  0.89260652462E+02 -0.26320707794E+04  0.26393112668E+04  0.17300000000E+03 0. -1.
         -6    1    1    2    0  501 -0.16459374196E+02 -0.89260652462E+02 -0.98834957527E+03  0.10074732046E+04  0.17300000000E+03 0. -1.
<mgrwt>
<rscale>  2 0.19536472E+03</rscale>
<asrwt>0</asrwt>
<pdfrwt beam="1">  1        2 0.55901597E+00 0.19536472E+03</pdfrwt>
<pdfrwt beam="2">  1       -2 0.20280082E-02 0.19536472E+03</pdfrwt>
<totfact> 0.63852989E+02</totfact>
</mgrwt>
</event>
<event>
 4    1  0.7354369E-001  0.1855948E+03  0.7546771E-02  0.1162496E+00
         -1   -1    0    0    0  501 -0.00000000000E+00  0.00000000000E+00  0.42126493472E+02  0.42126493472E+02  0.00000000000E+00 0.  1.
          1   -1    0    0  502    0  0.00000000000E+00 -0.00000000000E+00 -0.82012155628E+03  0.82012155628E+03  0.00000000000E+00 0. -1.
          6    1    1    2  502    0  0.27293513003E+02  0.61412425607E+02 -0.41258574793E+03  0.45240736209E+03  0.17300000000E+03 0.  1.
         -6    1    1    2    0  501 -0.27293513003E+02 -0.61412425607E+02 -0.36540931487E+03  0.40984068767E+03  0.17300000000E+03 0. -1.
<mgrwt>
<rscale>  2 0.18559478E+03</rscale>
<asrwt>0</asrwt>
<pdfrwt beam="1">  1        1 0.12617256E+00 0.18559478E+03</pdfrwt>
<pdfrwt beam="2">  1       -1 0.64809985E-02 0.18559478E+03</pdfrwt>
<totfact> 0.26112069E+03</totfact>
</mgrwt>
</event>
<event>
 4    1  0.7354369E-001  0.2046405E+03  0.7546771E-02  0.1145882E+00
          2   -1    0    0  502    0  0.00000000000E+00  0.00000000000E+00  0.30786096357E+04  0.30786096357E+04  0.00000000000E+00 0.  1.
         -2   -1    0    0    0  501 -0.00000000000E+00 -0.00000000000E+00 -0.13614287814E+02  0.13614287814E+02  0.00000000000E+00 0. -1.
          6    1    1    2  502    0  0.10246241771E+03 -0.38081357200E+02  0.15773933569E+04  0.15906123158E+04  0.17300000000E+03 0.  1.
         -6    1    1    2    0  501 -0.10246241771E+03  0.38081357200E+02  0.14876019910E+04  0.15016116077E+04  0.17300000000E+03 0. -1.
<mgrwt>
<rscale>  2 0.20464051E+03</rscale>
<asrwt>0</asrwt>
<pdfrwt beam="1">  1        2 0.47363170E+00 0.20464051E+03</pdfrwt>
<pdfrwt beam="2">  1       -2 0.20945083E-02 0.20464051E+03</pdfrwt>
<totfact> 0.13668640E+03</totfact>
</mgrwt>
</event>
<event>
 4    1  0.7354369E-001  0.1764014E+03  0.7546771E-02  0.1171332E+00
         -2   -1    0    0    0  501 -0.00000000000E+00  0.00000000000E+00  0.92136449426E+02  0.92136449426E+02  0.00000000000E+00 0. -1.
          2   -1    0    0  502    0  0.00000000000E+00 -0.00000000000E+00 -0.33838131091E+03  0.33838131091E+03  0.00000000000E+00 0.  1.
          6    1    1    2  502    0  0.10992048745E+02  0.32674648422E+02 -0.11369542661E+03  0.20986688118E+03  0.17300000000E+03 0.  1.
         -6    1    1    2    0  501 -0.10992048745E+02 -0.32674648422E+02 -0.13254943487E+03  0.22065087915E+03  0.17300000000E+03 0.  1.
<mgrwt>
<rscale>  2 0.17640141E+03</rscale>
<asrwt>0</asrwt>
<pdfrwt beam="1">  1        2 0.52058663E-01 0.17640141E+03</pdfrwt>
<pdfrwt beam="2">  1       -2 0.14174839E-01 0.17640141E+03</pdfrwt>
<totfact> 0.35279280E+03</totfact>
</mgrwt>
</event>
<event>
 4    1  0.7354369E-001  0.1888052E+03  0.7546771E-02  0.1159543E+00
         -1   -1    0    0    0  501 -0.00000000000E+00  0.00000000000E+00  0.26128422610E+03  0.26128422610E+03  0.00000000000E+00 0. -1.
          1   -1    0    0  502    0  0.00000000000E+00 -0.00000000000E+00 -0.13748004625E+03  0.13748004625E+03  0.00000000000E+00 0.  1.
          6    1    1    2  502    0  0.33677494701E+02 -0.67706899252E+02  0.44489593956E+02  0.19397608571E+03  0.17300000000E+03 0.  1.
         -6    1    1    2    0  501 -0.33677494701E+02  0.67706899252E+02  0.79314585895E+02  0.20478818665E+03  0.17300000000E+03 0.  1.
<mgrwt>
<rscale>  2 0.18880518E+03</rscale>
<asrwt>0</asrwt>
<pdfrwt beam="1">  1        1 0.21150776E-01 0.18880518E+03</pdfrwt>
<pdfrwt beam="2">  1       -1 0.40197573E-01 0.18880518E+03</pdfrwt>
<totfact> 0.14395714E+03</totfact>
</mgrwt>
</event>
<event>
 4    1  0.7354369E-001  0.1901954E+03  0.7546771E-02  0.1158285E+00
         -1   -1    0    0    0  501 -0.00000000000E+00  0.00000000000E+00  0.10984572751E+03  0.10984572751E+03  0.00000000000E+00 0.  1.
          1   -1    0    0  502    0  0.00000000000E+00 -0.00000000000E+00 -0.34494439025E+03  0.34494439025E+03  0.00000000000E+00 0. -1.
          6    1    1    2  502    0  0.73057283122E+02 -0.30131531514E+02 -0.69151812570E+02  0.20237650306E+03  0.17300000000E+03 0.  1.
         -6    1    1    2    0  501 -0.73057283122E+02  0.30131531514E+02 -0.16594685016E+03  0.25241361470E+03  0.17300000000E+03 0. -1.
<mgrwt>
<rscale>  2 0.19019536E+03</rscale>
<asrwt>0</asrwt>
<pdfrwt beam="1">  1        1 0.53068366E-01 0.19019536E+03</pdfrwt>
<pdfrwt beam="2">  1       -1 0.16899343E-01 0.19019536E+03</pdfrwt>
<totfact> 0.19251256E+03</totfact>
</mgrwt>
</event>
<event>
 4    1  0.7354369E-001  0.1861626E+03  0.7546771E-02  0.1161969E+00
         -2   -1    0    0    0  501 -0.00000000000E+00  0.00000000000E+00  0.60157068217E+02  0.60157068217E+02  0.00000000000E+00 0.  1.
          2   -1    0    0  502    0  0.00000000000E+00 -0.00000000000E+00 -0.58563090149E+03  0.58563090149E+03  0.00000000000E+00 0. -1.
          6    1    1    2  502    0  0.66197814432E+02 -0.18584113703E+02 -0.30392793082E+03  0.35641086831E+03  0.17300000000E+03 0. -1.
         -6    1    1    2    0  501 -0.66197814432E+02  0.18584113703E+02 -0.22154590245E+03  0.28937710139E+03  0.17300000000E+03 0. -1.
<mgrwt>
<rscale>  2 0.18616262E+03</rscale>
<asrwt>0</asrwt>
<pdfrwt beam="1">  1        2 0.90097058E-01 0.18616262E+03</pdfrwt>
<pdfrwt beam="2">  1       -2 0.92549340E-02 0.18616262E+03</pdfrwt>
<totfact> 0.38342950E+03</totfact>
</mgrwt>
</event>
<event>
 4    1  0.7354369E-001  0.1969936E+03  0.7546771E-02  0.1152301E+00
          2   -1    0    0  502    0  0.00000000000E+00  0.00000000000E+00  0.89094470973E+03  0.89094470973E+03  0.00000000000E+00 0.  1.
         -2   -1    0    0    0  501 -0.00000000000E+00 -0.00000000000E+00 -0.43905989488E+02  0.43905989488E+02  0.00000000000E+00 0. -1.
          6    1    1    2  502    0 -0.92427973350E+02  0.18290317983E+02  0.38181853946E+03  0.42964155183E+03  0.17300000000E+03 0. -1.
         -6    1    1    2    0  501  0.92427973350E+02 -0.18290317983E+02  0.46522018079E+03  0.50520914738E+03  0.17300000000E+03 0.  1.
<mgrwt>
<rscale>  2 0.19699357E+03</rscale>
<asrwt>0</asrwt>
<pdfrwt beam="1">  1        2 0.13706840E+00 0.19699357E+03</pdfrwt>
<pdfrwt beam="2">  1       -2 0.67547683E-02 0.19699357E+03</pdfrwt>
<totfact> 0.37553890E+03</totfact>
</mgrwt>
</event>
<event>
 4    1  0.7354369E-001  0.1810382E+03  0.7546771E-02  0.1166802E+00
          1   -1    0    0  502    0  0.00000000000E+00  0.00000000000E+00  0.23391366251E+03  0.23391366251E+03  0.00000000000E+00 0.  1.
         -1   -1    0    0    0  501 -0.00000000000E+00 -0.00000000000E+00 -0.22298069100E+03  0.22298069100E+03  0.00000000000E+00 0. -1.
          6    1    1    2  502    0  0.50375617867E+02  0.17553394350E+02  0.14473066171E+03  0.23177961293E+03  0.17300000000E+03 0.  1.
         -6    1    1    2    0  501 -0.50375617867E+02 -0.17553394350E+02 -0.13379769020E+03  0.22511474059E+03  0.17300000000E+03 0. -1.
<mgrwt>
<rscale>  2 0.18103819E+03</rscale>
<asrwt>0</asrwt>
<pdfrwt beam="1">  1        1 0.35986718E-01 0.18103819E+03</pdfrwt>
<pdfrwt beam="2">  1       -1 0.34304721E-01 0.18103819E+03</pdfrwt>
<totfact> 0.97032153E+02</totfact>
</mgrwt>
</event>
<event>
 4    1  0.7354369E-001  0.2223154E+03  0.7546771E-02  0.1132169E+00
         -2   -1    0    0    0  501 -0.00000000000E+00  0.00000000000E+00  0.45696803745E+02  0.45696803745E+02  0.00000000000E+00 0.  1.
          2   -1    0    0  502    0  0.00000000000E+00 -0.00000000000E+00 -0.12326957477E+04  0.12326957477E+04  0.00000000000E+00 0. -1.
          6    1    1    2  502    0 -0.13886206753E+03  0.14575624657E+02 -0.36968877252E+03  0.43138603496E+03  0.17300000000E+03 0.  1.
         -6    1    1    2    0  501  0.13886206753E+03 -0.14575624657E+02 -0.81731017139E+03  0.84700651644E+03  0.17300000000E+03 0. -1.
<mgrwt>
<rscale>  2 0.22231537E+03</rscale>
<asrwt>0</asrwt>
<pdfrwt beam="1">  1        2 0.18964552E+00 0.22231537E+03</pdfrwt>
<pdfrwt beam="2">  1       -2 0.70302769E-02 0.22231537E+03</pdfrwt>
<totfact> 0.22138466E+03</totfact>
</mgrwt>
</event>
<event>
 4    1  0.7354369E-001  0.2734440E+03  0.7546771E-02  0.1099325E+00
         -1   -1    0    0    0  501 -0.00000000000E+00  0.00000000000E+00  0.96461585018E+02  0.96461585018E+02  0.00000000000E+00 0.  1.
          1   -1    0    0  502    0  0.00000000000E+00 -0.00000000000E+00 -0.11251728222E+04  0.11251728222E+04  0.00000000000E+00 0. -1.
          6    1    1    2  502    0  0.14413569988E+03  0.15513712827E+03 -0.85504098899E+03  0.89770079726E+03  0.17300000000E+03 0. -1.
         -6    1    1    2    0  501 -0.14413569988E+03 -0.15513712827E+03 -0.17367024816E+03  0.32393360993E+03  0.17300000000E+03 0.  1.
<mgrwt>
<rscale>  2 0.27344401E+03</rscale>
<asrwt>0</asrwt>
<pdfrwt beam="1">  1        1 0.17310351E+00 0.27344401E+03</pdfrwt>
<pdfrwt beam="2">  1       -1 0.14840244E-01 0.27344401E+03</pdfrwt>
<totfact> 0.42505471E+02</totfact>
</mgrwt>
</event>
<event>
 4    1  0.7354369E-001  0.2033241E+03  0.7546771E-02  0.1146964E+00
         -2   -1    0    0    0  501 -0.00000000000E+00  0.00000000000E+00  0.78461363429E+02  0.78461363429E+02  0.00000000000E+00 0. -1.
          2   -1    0    0  502    0  0.00000000000E+00 -0.00000000000E+00 -0.63749239722E+03  0.63749239722E+03  0.00000000000E+00 0.  1.
          6    1    1    2  502    0 -0.78033896640E+02  0.72954796622E+02 -0.42862152728E+03  0.47440183918E+03  0.17300000000E+03 0.  1.
         -6    1    1    2    0  501  0.78033896640E+02 -0.72954796622E+02 -0.13040950651E+03  0.24155192147E+03  0.17300000000E+03 0. -1.
<mgrwt>
<rscale>  2 0.20332410E+03</rscale>
<asrwt>0</asrwt>
<pdfrwt beam="1">  1        2 0.98075758E-01 0.20332410E+03</pdfrwt>
<pdfrwt beam="2">  1       -2 0.12070978E-01 0.20332410E+03</pdfrwt>
<totfact> 0.22822557E+03</totfact>
</mgrwt>
</event>
<event>
 4    1  0.7354369E-001  0.2412388E+03  0.7546771E-02  0.1118970E+00
         -2   -1    0    0    0  501 -0.00000000000E+00  0.00000000000E+00  0.34761169587E+03  0.34761169587E+03  0.00000000000E+00 0.  1.
          2   -1    0    0  502    0  0.00000000000E+00 -0.00000000000E+00 -0.31518122967E+03  0.31518122967E+03  0.00000000000E+00 0. -1.
          6    1    1    2  502    0 -0.59801368945E+02  0.15713349016E+03 -0.21069402993E+03  0.32029378967E+03  0.17300000000E+03 0. -1.
         -6    1    1    2    0  501  0.59801368945E+02 -0.15713349016E+03  0.24312449613E+03  0.34249913587E+03  0.17300000000E+03 0.  1.
<mgrwt>
<rscale>  2 0.24123876E+03</rscale>
<asrwt>0</asrwt>
<pdfrwt beam="1">  1        2 0.48489420E-01 0.24123876E+03</pdfrwt>
<pdfrwt beam="2">  1       -2 0.53478722E-01 0.24123876E+03</pdfrwt>
<totfact> 0.34967079E+02</totfact>
</mgrwt>
</event>
<event>
 4    1  0.7354369E-001  0.1738586E+03  0.7546771E-02  0.1173883E+00
         -1   -1    0    0    0  501 -0.00000000000E+00  0.00000000000E+00  0.34413817148E+02  0.34413817148E+02  0.00000000000E+00 0. -1.
          1   -1    0    0  502    0  0.00000000000E+00 -0.00000000000E+00 -0.88360102820E+03  0.88360102820E+03  0.00000000000E+00 0.  1.
          6    1    1    2  502    0  0.16454481549E+02  0.52026469186E+01 -0.38915438062E+03  0.42622523325E+03  0.17300000000E+03 0. -1.
         -6    1    1    2    0  501 -0.16454481549E+02 -0.52026469186E+01 -0.46003283043E+03  0.49178961210E+03  0.17300000000E+03 0. -1.
<mgrwt>
<rscale>  2 0.17385861E+03</rscale>
<asrwt>0</asrwt>
<pdfrwt beam="1">  1        1 0.13593862E+00 0.17385861E+03</pdfrwt>
<pdfrwt beam="2">  1       -1 0.52944335E-02 0.17385861E+03</pdfrwt>
<totfact> 0.31409676E+03</totfact>
</mgrwt>
</event>
<event>
 4    1  0.7354369E-001  0.2114506E+03  0.7546771E-02  0.1140422E+00
         -1   -1    0    0    0  501 -0.00000000000E+00  0.00000000000E+00  0.30779290299E+02  0.30779290299E+02  0.00000000000E+00 0.  1.
          1   -1    0    0  502    0  0.00000000000E+00 -0.00000000000E+00 -0.14538330443E+04  0.14538330443E+04  0.00000000000E+00 0. -1.
          6    1    1    2  502    0 -0.92239619558E+02 -0.79209924401E+02 -0.73275327841E+03  0.76265242841E+03  0.17300000000E+03 0. -1.
         -6    1    1    2    0  501  0.92239619558E+02  0.79209924401E+02 -0.69030047555E+03  0.72195990615E+03  0.17300000000E+03 0.  1.
<mgrwt>
<rscale>  2 0.21145061E+03</rscale>
<asrwt>0</asrwt>
<pdfrwt beam="1">  1        1 0.22366666E+00 0.21145061E+03</pdfrwt>
<pdfrwt beam="2">  1       -1 0.47352747E-02 0.21145061E+03</pdfrwt>
<totfact> 0.14700333E+03</totfact>
</mgrwt>
</event>
<event>
 4    1  0.7354369E-001  0.3002888E+03  0.7546771E-02  0.1085096E+00
         -1   -1    0    0    0  501 -0.00000000000E+00  0.00000000000E+00  0.23935803406E+03  0.23935803406E+03  0.00000000000E+00 0.  1.
          1   -1    0    0  502    0  0.00000000000E+00 -0.00000000000E+00 -0.46779741262E+03  0.46779741262E+03  0.00000000000E+00 0. -1.
          6    1    1    2  502    0  0.20928485700E+03  0.12823500138E+03 -0.27022426586E+03  0.40397341596E+03  0.17300000000E+03 0. -1.
         -6    1    1    2    0  501 -0.20928485700E+03 -0.12823500138E+03  0.41784887299E+02  0.30318203072E+03  0.17300000000E+03 0.  1.
<mgrwt>
<rscale>  2 0.30028881E+03</rscale>
<asrwt>0</asrwt>
<pdfrwt beam="1">  1        1 0.71968832E-01 0.30028881E+03</pdfrwt>
<pdfrwt beam="2">  1       -1 0.36824313E-01 0.30028881E+03</pdfrwt>
<totfact> 0.35472327E+02</totfact>
</mgrwt>
</event>
<event>
 4    1  0.7354369E-001  0.2162394E+03  0.7546771E-02  0.1136718E+00
         -2   -1    0    0    0  501 -0.00000000000E+00  0.00000000000E+00  0.18336802868E+02  0.18336802868E+02  0.00000000000E+00 0.  1.
          2   -1    0    0  502    0  0.00000000000E+00 -0.00000000000E+00 -0.27176419850E+04  0.27176419850E+04  0.00000000000E+00 0. -1.
          6    1    1    2  502    0 -0.12135689883E+03  0.45858317263E+02 -0.10099231721E+04  0.10328137759E+04  0.17300000000E+03 0. -1.
         -6    1    1    2    0  501  0.12135689883E+03 -0.45858317263E+02 -0.16893820100E+04  0.17031650119E+04  0.17300000000E+03 0.  1.
<mgrwt>
<rscale>  2 0.21623941E+03</rscale>
<asrwt>0</asrwt>
<pdfrwt beam="1">  1        2 0.41809857E+00 0.21623941E+03</pdfrwt>
<pdfrwt beam="2">  1       -2 0.28210479E-02 0.21623941E+03</pdfrwt>
<totfact> 0.14201232E+03</totfact>
</mgrwt>
</event>
<event>
 4    1  0.7354369E-001  0.1923117E+03  0.7546771E-02  0.1156393E+00
         -2   -1    0    0    0  501 -0.00000000000E+00  0.00000000000E+00  0.21953081497E+02  0.21953081497E+02  0.00000000000E+00 0. -1.
          2   -1    0    0  502    0  0.00000000000E+00 -0.00000000000E+00 -0.22370252859E+04  0.22370252859E+04  0.00000000000E+00 0.  1.
          6    1    1    2  502    0  0.76375230070E+02 -0.34951519808E+02 -0.16687834922E+04  0.16798280056E+04  0.17300000000E+03 0.  1.
         -6    1    1    2    0  501 -0.76375230070E+02  0.34951519808E+02 -0.54628871216E+03  0.57915036177E+03  0.17300000000E+03 0. -1.
<mgrwt>
<rscale>  2 0.19231169E+03</rscale>
<asrwt>0</asrwt>
<pdfrwt beam="1">  1        2 0.34415757E+00 0.19231169E+03</pdfrwt>
<pdfrwt beam="2">  1       -2 0.33773988E-02 0.19231169E+03</pdfrwt>
<totfact> 0.19858256E+03</totfact>
</mgrwt>
</event>
<event>
 4    1  0.7354369E-001  0.2566916E+03  0.7546771E-02  0.1109147E+00
         -3   -1    0    0    0  501 -0.00000000000E+00  0.00000000000E+00  0.17869467756E+03  0.17869467756E+03  0.00000000000E+00 0. -1.
          3   -1    0    0  502    0  0.00000000000E+00 -0.00000000000E+00 -0.36955524031E+03  0.36955524031E+03  0.00000000000E+00 0.  1.
          6    1    1    2  502    0 -0.18337726790E+03 -0.48315179363E+02 -0.82497984673E+02  0.26962287814E+03  0.17300000000E+03 0. -1.
         -6    1    1    2    0  501  0.18337726790E+03  0.48315179363E+02 -0.10836257807E+03  0.27862703973E+03  0.17300000000E+03 0.  1.
<mgrwt>
<rscale>  2 0.25669160E+03</rscale>
<asrwt>0</asrwt>
<pdfrwt beam="1">  1        3 0.56854652E-01 0.25669160E+03</pdfrwt>
<pdfrwt beam="2">  1       -3 0.27491489E-01 0.25669160E+03</pdfrwt>
<totfact> 0.96892009E+01</totfact>
</mgrwt>
</event>
<event>
 4    1  0.7354369E-001  0.1837546E+03  0.7546771E-02  0.1164218E+00
          2   -1    0    0  502    0  0.00000000000E+00  0.00000000000E+00  0.76027920213E+03  0.76027920213E+03  0.00000000000E+00 0.  1.
         -2   -1    0    0    0  501 -0.00000000000E+00 -0.00000000000E+00 -0.52349708914E+02  0.52349708914E+02  0.00000000000E+00 0. -1.
          6    1    1    2  502    0  0.17994809024E+02 -0.59270118992E+02  0.19575104987E+03  0.26848507162E+03  0.17300000000E+03 0.  1.
         -6    1    1    2    0  501 -0.17994809024E+02  0.59270118992E+02  0.51217844334E+03  0.54414383942E+03  0.17300000000E+03 0. -1.
<mgrwt>
<rscale>  2 0.18375462E+03</rscale>
<asrwt>0</asrwt>
<pdfrwt beam="1">  1        2 0.11696602E+00 0.18375462E+03</pdfrwt>
<pdfrwt beam="2">  1       -2 0.80538019E-02 0.18375462E+03</pdfrwt>
<totfact> 0.34949132E+03</totfact>
</mgrwt>
</event>
<event>
 4    1  0.7354369E-001  0.2849839E+03  0.7546771E-02  0.1092998E+00
          1   -1    0    0  502    0  0.00000000000E+00  0.00000000000E+00  0.22390038916E+03  0.22390038916E+03  0.00000000000E+00 0.  1.
         -1   -1    0    0    0  501 -0.00000000000E+00 -0.00000000000E+00 -0.50214979937E+03  0.50214979937E+03  0.00000000000E+00 0. -1.
          6    1    1    2  502    0 -0.25334278599E+02  0.22504443816E+03 -0.33040894489E+03  0.43633232253E+03  0.17300000000E+03 0. -1.
         -6    1    1    2    0  501  0.25334278599E+02 -0.22504443816E+03  0.52159534687E+02  0.28971786600E+03  0.17300000000E+03 0. -1.
<mgrwt>
<rscale>  2 0.28498390E+03</rscale>
<asrwt>0</asrwt>
<pdfrwt beam="1">  1        1 0.34446214E-01 0.28498390E+03</pdfrwt>
<pdfrwt beam="2">  1       -1 0.77253815E-01 0.28498390E+03</pdfrwt>
<totfact> 0.22405375E+02</totfact>
</mgrwt>
</event>
<event>
 4    1  0.7354369E-001  0.1864258E+03  0.7546771E-02  0.1161725E+00
          1   -1    0    0  502    0  0.00000000000E+00  0.00000000000E+00  0.64373361497E+03  0.64373361497E+03  0.00000000000E+00 0. -1.
         -1   -1    0    0    0  501 -0.00000000000E+00 -0.00000000000E+00 -0.59425410150E+02  0.59425410150E+02  0.00000000000E+00 0.  1.
          6    1    1    2  502    0  0.61018081115E+02  0.33201799764E+02  0.39849286757E+03  0.43994446380E+03  0.17300000000E+03 0. -1.
         -6    1    1    2    0  501 -0.61018081115E+02 -0.33201799764E+02  0.18581533726E+03  0.26321456132E+03  0.17300000000E+03 0.  1.
<mgrwt>
<rscale>  2 0.18642576E+03</rscale>
<asrwt>0</asrwt>
<pdfrwt beam="1">  1        1 0.99035936E-01 0.18642576E+03</pdfrwt>
<pdfrwt beam="2">  1       -1 0.91423712E-02 0.18642576E+03</pdfrwt>
<totfact> 0.22107453E+03</totfact>
</mgrwt>
</event>
<event>
 4    1  0.7354369E-001  0.1947737E+03  0.7546771E-02  0.1154225E+00
         -1   -1    0    0    0  501 -0.00000000000E+00  0.00000000000E+00  0.13977080831E+03  0.13977080831E+03  0.00000000000E+00 0.  1.
          1   -1    0    0  502    0  0.00000000000E+00 -0.00000000000E+00 -0.38167910882E+03  0.38167910882E+03  0.00000000000E+00 0. -1.
          6    1    1    2  502    0  0.21196454896E+02 -0.86939766906E+02  0.19177924368E+02  0.19571562419E+03  0.17300000000E+03 0.  1.
         -6    1    1    2    0  501 -0.21196454896E+02  0.86939766906E+02 -0.26108622489E+03  0.32573429294E+03  0.17300000000E+03 0. -1.
<mgrwt>
<rscale>  2 0.19477375E+03</rscale>
<asrwt>0</asrwt>
<pdfrwt beam="1">  1        1 0.58719863E-01 0.19477375E+03</pdfrwt>
<pdfrwt beam="2">  1       -1 0.21503201E-01 0.19477375E+03</pdfrwt>
<totfact> 0.11490719E+03</totfact>
</mgrwt>
</event>
<event>
 4    1  0.7354369E-001  0.2295446E+03  0.7546771E-02  0.1126961E+00
          1   -1    0    0  502    0  0.00000000000E+00  0.00000000000E+00  0.15805952361E+03  0.15805952361E+03  0.00000000000E+00 0. -1.
         -1   -1    0    0    0  501 -0.00000000000E+00 -0.00000000000E+00 -0.39506279755E+03  0.39506279755E+03  0.00000000000E+00 0.  1.
          6    1    1    2  502    0 -0.14154987623E+03 -0.52205121225E+02 -0.92041646567E+01  0.22972909870E+03  0.17300000000E+03 0. -1.
         -6    1    1    2    0  501  0.14154987623E+03  0.52205121225E+02 -0.22779910929E+03  0.32339322246E+03  0.17300000000E+03 0.  1.
<mgrwt>
<rscale>  2 0.22954464E+03</rscale>
<asrwt>0</asrwt>
<pdfrwt beam="1">  1        1 0.24316850E-01 0.22954464E+03</pdfrwt>
<pdfrwt beam="2">  1       -1 0.60778891E-01 0.22954464E+03</pdfrwt>
<totfact> 0.56363012E+02</totfact>
</mgrwt>
</event>
<event>
 4    1  0.7354369E-001  0.1753516E+03  0.7546771E-02  0.1172379E+00
          2   -1    0    0  502    0  0.00000000000E+00  0.00000000000E+00  0.33374439302E+03  0.33374439302E+03  0.00000000000E+00 0.  1.
         -2   -1    0    0    0  501 -0.00000000000E+00 -0.00000000000E+00 -0.13889317492E+03  0.13889317492E+03  0.00000000000E+00 0. -1.
          6    1    1    2  502    0  0.22350939872E+02 -0.17877879131E+02  0.23454707325E+03  0.29284895876E+03  0.17300000000E+03 0.  1.
         -6    1    1    2    0  501 -0.22350939872E+02  0.17877879131E+02 -0.39695855147E+02  0.17978860918E+03  0.17300000000E+03 0. -1.
<mgrwt>
<rscale>  2 0.17535160E+03</rscale>
<asrwt>0</asrwt>
<pdfrwt beam="1">  1        2 0.51345291E-01 0.17535160E+03</pdfrwt>
<pdfrwt beam="2">  1       -2 0.21368181E-01 0.17535160E+03</pdfrwt>
<totfact> 0.18013574E+03</totfact>
</mgrwt>
</event>
<event>
 4    1  0.7354369E-001  0.2250988E+03  0.7546771E-02  0.1130138E+00
          2   -1    0    0  502    0  0.00000000000E+00  0.00000000000E+00  0.49312582531E+03  0.49312582531E+03  0.00000000000E+00 0. -1.
         -2   -1    0    0    0  501 -0.00000000000E+00 -0.00000000000E+00 -0.14012558591E+03  0.14012558591E+03  0.00000000000E+00 0.  1.
          6    1    1    2  502    0 -0.87602987487E+02  0.11430732345E+03  0.34002069018E+03  0.40777876031E+03  0.17300000000E+03 0.  1.
         -6    1    1    2    0  501  0.87602987487E+02 -0.11430732345E+03  0.12979549216E+02  0.22547265091E+03  0.17300000000E+03 0.  1.
<mgrwt>
<rscale>  2 0.22509875E+03</rscale>
<asrwt>0</asrwt>
<pdfrwt beam="1">  1        2 0.75865511E-01 0.22509875E+03</pdfrwt>
<pdfrwt beam="2">  1       -2 0.21557783E-01 0.22509875E+03</pdfrwt>
<totfact> 0.11660635E+03</totfact>
</mgrwt>
</event>
<event>
 4    1  0.7354369E-001  0.2278002E+03  0.7546771E-02  0.1128198E+00
         -2   -1    0    0    0  501 -0.00000000000E+00  0.00000000000E+00  0.56764239584E+02  0.56764239584E+02  0.00000000000E+00 0. -1.
          2   -1    0    0  502    0  0.00000000000E+00 -0.00000000000E+00 -0.10083535489E+04  0.10083535489E+04  0.00000000000E+00 0.  1.
          6    1    1    2  502    0 -0.14764152842E+03 -0.12881446461E+02 -0.63854306571E+03  0.67796032283E+03  0.17300000000E+03 0.  1.
         -6    1    1    2    0  501  0.14764152842E+03  0.12881446461E+02 -0.31304624365E+03  0.38715746569E+03  0.17300000000E+03 0.  1.
<mgrwt>
<rscale>  2 0.22780025E+03</rscale>
<asrwt>0</asrwt>
<pdfrwt beam="1">  1        2 0.15513131E+00 0.22780025E+03</pdfrwt>
<pdfrwt beam="2">  1       -2 0.87329600E-02 0.22780025E+03</pdfrwt>
<totfact> 0.21317090E+03</totfact>
</mgrwt>
</event>
<event>
 4    1  0.7354369E-001  0.1822527E+03  0.7546771E-02  0.1165641E+00
          2   -1    0    0  502    0  0.00000000000E+00  0.00000000000E+00  0.75085663544E+03  0.75085663544E+03  0.00000000000E+00 0. -1.
         -2   -1    0    0    0  501 -0.00000000000E+00 -0.00000000000E+00 -0.54863689334E+02  0.54863689334E+02  0.00000000000E+00 0.  1.
          6    1    1    2  502    0  0.48328386458E+02 -0.30844878256E+02  0.52529293774E+03  0.55601142964E+03  0.17300000000E+03 0. -1.
         -6    1    1    2    0  501 -0.48328386458E+02  0.30844878256E+02  0.17070000837E+03  0.24970889513E+03  0.17300000000E+03 0.  1.
<mgrwt>
<rscale>  2 0.18225268E+03</rscale>
<asrwt>0</asrwt>
<pdfrwt beam="1">  1        2 0.11551640E+00 0.18225268E+03</pdfrwt>
<pdfrwt beam="2">  1       -2 0.84405681E-02 0.18225268E+03</pdfrwt>
<totfact> 0.32980294E+03</totfact>
</mgrwt>
</event>
<event>
 4    1  0.7354369E-001  0.1791995E+03  0.7546771E-02  0.1168580E+00
         -2   -1    0    0    0  501 -0.00000000000E+00  0.00000000000E+00  0.70332671722E+02  0.70332671722E+02  0.00000000000E+00 0.  1.
          2   -1    0    0  502    0  0.00000000000E+00 -0.00000000000E+00 -0.55338184265E+03  0.55338184265E+03  0.00000000000E+00 0. -1.
          6    1    1    2  502    0  0.36660426085E+02 -0.28973691931E+02 -0.37195718751E+03  0.41287360173E+03  0.17300000000E+03 0. -1.
         -6    1    1    2    0  501 -0.36660426085E+02  0.28973691931E+02 -0.11109198342E+03  0.21084091265E+03  0.17300000000E+03 0. -1.
<mgrwt>
<rscale>  2 0.17919950E+03</rscale>
<asrwt>0</asrwt>
<pdfrwt beam="1">  1        2 0.85135671E-01 0.17919950E+03</pdfrwt>
<pdfrwt beam="2">  1       -2 0.10820411E-01 0.17919950E+03</pdfrwt>
<totfact> 0.31890483E+03</totfact>
</mgrwt>
</event>
<event>
 4    1  0.7354369E-001  0.1856777E+03  0.7546771E-02  0.1162419E+00
         -1   -1    0    0    0  501 -0.00000000000E+00  0.00000000000E+00  0.41039867690E+02  0.41039867690E+02  0.00000000000E+00 0. -1.
          1   -1    0    0  502    0  0.00000000000E+00 -0.00000000000E+00 -0.10300001541E+04  0.10300001541E+04  0.00000000000E+00 0.  1.
          6    1    1    2  502    0 -0.19985339579E+02 -0.64403255017E+02 -0.26451674586E+03  0.32317998375E+03  0.17300000000E+03 0. -1.
         -6    1    1    2    0  501  0.19985339579E+02  0.64403255017E+02 -0.72444354053E+03  0.74786003802E+03  0.17300000000E+03 0.  1.
<mgrwt>
<rscale>  2 0.18567766E+03</rscale>
<asrwt>0</asrwt>
<pdfrwt beam="1">  1        1 0.15846156E+00 0.18567766E+03</pdfrwt>
<pdfrwt beam="2">  1       -1 0.63138258E-02 0.18567766E+03</pdfrwt>
<totfact> 0.18725796E+03</totfact>
</mgrwt>
</event>
<event>
 4    1  0.7354369E-001  0.1958452E+03  0.7546771E-02  0.1153292E+00
          2   -1    0    0  502    0  0.00000000000E+00  0.00000000000E+00  0.48841047763E+03  0.48841047763E+03  0.00000000000E+00 0. -1.
         -2   -1    0    0    0  501 -0.00000000000E+00 -0.00000000000E+00 -0.78564696455E+02  0.78564696455E+02  0.00000000000E+00 0.  1.
          6    1    1    2  502    0  0.81456724248E+02 -0.42322014370E+02  0.19904967566E+03  0.27924205308E+03  0.17300000000E+03 0.  1.
         -6    1    1    2    0  501 -0.81456724248E+02  0.42322014370E+02  0.21079610551E+03  0.28773312101E+03  0.17300000000E+03 0. -1.
<mgrwt>
<rscale>  2 0.19584522E+03</rscale>
<asrwt>0</asrwt>
<pdfrwt beam="1">  1        2 0.75140071E-01 0.19584522E+03</pdfrwt>
<pdfrwt beam="2">  1       -2 0.12086877E-01 0.19584522E+03</pdfrwt>
<totfact> 0.30807978E+03</totfact>
</mgrwt>
</event>
<event>
 4    1  0.7354369E-001  0.3139236E+03  0.7546771E-02  0.1078480E+00
         -1   -1    0    0    0  501 -0.00000000000E+00  0.00000000000E+00  0.18504516287E+03  0.18504516287E+03  0.00000000000E+00 0. -1.
          1   -1    0    0  502    0  0.00000000000E+00 -0.00000000000E+00 -0.64274448081E+03  0.64274448081E+03  0.00000000000E+00 0.  1.
          6    1    1    2  502    0  0.15652065804E+03 -0.21004840846E+03 -0.40021649850E+03  0.50864653343E+03  0.17300000000E+03 0.  1.
         -6    1    1    2    0  501 -0.15652065804E+03  0.21004840846E+03 -0.57482819432E+02  0.31914311025E+03  0.17300000000E+03 0. -1.
<mgrwt>
<rscale>  2 0.31392364E+03</rscale>
<asrwt>0</asrwt>
<pdfrwt beam="1">  1        1 0.98883766E-01 0.31392364E+03</pdfrwt>
<pdfrwt beam="2">  1       -1 0.28468487E-01 0.31392364E+03</pdfrwt>
<totfact> 0.35789333E+02</totfact>
</mgrwt>
</event>
<event>
 4    1  0.7354369E-001  0.2526188E+03  0.7546771E-02  0.1111661E+00
         -2   -1    0    0    0  501 -0.00000000000E+00  0.00000000000E+00  0.19405904204E+03  0.19405904204E+03  0.00000000000E+00 0. -1.
          2   -1    0    0  502    0  0.00000000000E+00 -0.00000000000E+00 -0.32897879178E+03  0.32897879178E+03  0.00000000000E+00 0.  1.
          6    1    1    2  502    0  0.69699431960E+02 -0.17037976649E+03 -0.62281263275E+02  0.26018307286E+03  0.17300000000E+03 0.  1.
         -6    1    1    2    0  501 -0.69699431960E+02  0.17037976649E+03 -0.72638486466E+02  0.26285476096E+03  0.17300000000E+03 0.  1.
<mgrwt>
<rscale>  2 0.25261883E+03</rscale>
<asrwt>0</asrwt>
<pdfrwt beam="1">  1        2 0.50612121E-01 0.25261883E+03</pdfrwt>
<pdfrwt beam="2">  1       -2 0.29855238E-01 0.25261883E+03</pdfrwt>
<totfact> 0.10206176E+03</totfact>
</mgrwt>
</event>
<event>
 4    1  0.7354369E-001  0.1928316E+03  0.7546771E-02  0.1155932E+00
         -2   -1    0    0    0  501 -0.00000000000E+00  0.00000000000E+00  0.68301541992E+02  0.68301541992E+02  0.00000000000E+00 0.  1.
          2   -1    0    0  502    0  0.00000000000E+00 -0.00000000000E+00 -0.56818915076E+03  0.56818915076E+03  0.00000000000E+00 0. -1.
          6    1    1    2  502    0  0.84573768168E+02 -0.10113772821E+02 -0.31504935509E+03  0.36937799989E+03  0.17300000000E+03 0. -1.
         -6    1    1    2    0  501 -0.84573768168E+02  0.10113772821E+02 -0.18483825368E+03  0.26711269286E+03  0.17300000000E+03 0.  1.
<mgrwt>
<rscale>  2 0.19283156E+03</rscale>
<asrwt>0</asrwt>
<pdfrwt beam="1">  1        2 0.87413715E-01 0.19283156E+03</pdfrwt>
<pdfrwt beam="2">  1       -2 0.10507930E-01 0.19283156E+03</pdfrwt>
<totfact> 0.32507813E+03</totfact>
</mgrwt>
</event>
<event>
 4    1  0.7354369E-001  0.1830771E+03  0.7546771E-02  0.1164858E+00
         -2   -1    0    0    0  501 -0.00000000000E+00  0.00000000000E+00  0.38647754315E+02  0.38647754315E+02  0.00000000000E+00 0. -1.
          2   -1    0    0  502    0  0.00000000000E+00 -0.00000000000E+00 -0.94206662625E+03  0.94206662625E+03  0.00000000000E+00 0.  1.
          6    1    1    2  502    0 -0.17037138921E+02  0.57427886705E+02 -0.31352036353E+03  0.36305956071E+03  0.17300000000E+03 0. -1.
         -6    1    1    2    0  501  0.17037138921E+02 -0.57427886705E+02 -0.58989850841E+03  0.61765481986E+03  0.17300000000E+03 0.  1.
<mgrwt>
<rscale>  2 0.18307710E+03</rscale>
<asrwt>0</asrwt>
<pdfrwt beam="1">  1        2 0.14493331E+00 0.18307710E+03</pdfrwt>
<pdfrwt beam="2">  1       -2 0.59458089E-02 0.18307710E+03</pdfrwt>
<totfact> 0.42299471E+03</totfact>
</mgrwt>
</event>
<event>
 4    1  0.7354369E-001  0.4047729E+03  0.7546771E-02  0.1042139E+00
          2   -1    0    0  502    0  0.00000000000E+00  0.00000000000E+00  0.51317857991E+03  0.51317857991E+03  0.00000000000E+00 0. -1.
         -2   -1    0    0    0  501 -0.00000000000E+00 -0.00000000000E+00 -0.36209843625E+03  0.36209843625E+03  0.00000000000E+00 0.  1.
          6    1    1    2  502    0 -0.36383639547E+03 -0.39180848577E+02 -0.74975964550E+02  0.41165817959E+03  0.17300000000E+03 0.  1.
         -6    1    1    2    0  501  0.36383639547E+03  0.39180848577E+02  0.22605610820E+03  0.46361883657E+03  0.17300000000E+03 0. -1.
<mgrwt>
<rscale>  2 0.40477285E+03</rscale>
<asrwt>0</asrwt>
<pdfrwt beam="1">  1        2 0.78950551E-01 0.40477285E+03</pdfrwt>
<pdfrwt beam="2">  1       -2 0.55707452E-01 0.40477285E+03</pdfrwt>
<totfact> 0.18605812E+02</totfact>
</mgrwt>
</event>
<event>
 4    1  0.7354369E-001  0.1901238E+03  0.7546771E-02  0.1158350E+00
          1   -1    0    0  502    0  0.00000000000E+00  0.00000000000E+00  0.44048460507E+03  0.44048460507E+03  0.00000000000E+00 0. -1.
         -1   -1    0    0    0  501 -0.00000000000E+00 -0.00000000000E+00 -0.82612616324E+02  0.82612616324E+02  0.00000000000E+00 0.  1.
          6    1    1    2  502    0  0.53946990921E+02  0.57513320538E+02  0.20028820478E+03  0.27615652236E+03  0.17300000000E+03 0.  1.
         -6    1    1    2    0  501 -0.53946990921E+02 -0.57513320538E+02  0.15758378396E+03  0.24694069903E+03  0.17300000000E+03 0.  1.
<mgrwt>
<rscale>  2 0.19012380E+03</rscale>
<asrwt>0</asrwt>
<pdfrwt beam="1">  1        1 0.67766861E-01 0.19012380E+03</pdfrwt>
<pdfrwt beam="2">  1       -1 0.12709634E-01 0.19012380E+03</pdfrwt>
<totfact> 0.22106560E+03</totfact>
</mgrwt>
</event>
<event>
 4    1  0.7354369E-001  0.1745240E+03  0.7546771E-02  0.1173210E+00
         -2   -1    0    0    0  501 -0.00000000000E+00  0.00000000000E+00  0.57058772373E+02  0.57058772373E+02  0.00000000000E+00 0. -1.
          2   -1    0    0  502    0  0.00000000000E+00 -0.00000000000E+00 -0.97572550293E+03  0.97572550293E+03  0.00000000000E+00 0.  1.
          6    1    1    2  502    0 -0.31737484805E+01 -0.22794016941E+02 -0.11180954336E+03  0.20726797600E+03  0.17300000000E+03 0. -1.
         -6    1    1    2    0  501  0.31737484805E+01  0.22794016941E+02 -0.80685718719E+03  0.82551629930E+03  0.17300000000E+03 0.  1.
<mgrwt>
<rscale>  2 0.17452404E+03</rscale>
<asrwt>0</asrwt>
<pdfrwt beam="1">  1        2 0.15011162E+00 0.17452404E+03</pdfrwt>
<pdfrwt beam="2">  1       -2 0.87782727E-02 0.17452404E+03</pdfrwt>
<totfact> 0.22069603E+03</totfact>
</mgrwt>
</event>
<event>
 4    1  0.7354369E-001  0.2302181E+03  0.7546771E-02  0.1126486E+00
         -1   -1    0    0    0  501 -0.00000000000E+00  0.00000000000E+00  0.48725191534E+03  0.48725191534E+03  0.00000000000E+00 0. -1.
          1   -1    0    0  502    0  0.00000000000E+00 -0.00000000000E+00 -0.11861645906E+03  0.11861645906E+03  0.00000000000E+00 0.  1.
          6    1    1    2  502    0 -0.88413161443E+02  0.12350909310E+03  0.97055629098E+02  0.24984030566E+03  0.17300000000E+03 0. -1.
         -6    1    1    2    0  501  0.88413161443E+02 -0.12350909310E+03  0.27157982718E+03  0.35602806874E+03  0.17300000000E+03 0. -1.
<mgrwt>
<rscale>  2 0.23021812E+03</rscale>
<asrwt>0</asrwt>
<pdfrwt beam="1">  1        1 0.18248686E-01 0.23021812E+03</pdfrwt>
<pdfrwt beam="2">  1       -1 0.74961832E-01 0.23021812E+03</pdfrwt>
<totfact> 0.53825394E+02</totfact>
</mgrwt>
</event>
<event>
 4    1  0.7354369E-001  0.2686597E+03  0.7546771E-02  0.1102049E+00
          2   -1    0    0  502    0  0.00000000000E+00  0.00000000000E+00  0.33279093633E+03  0.33279093633E+03  0.00000000000E+00 0.  1.
         -2   -1    0    0    0  501 -0.00000000000E+00 -0.00000000000E+00 -0.23214910514E+03  0.23214910514E+03  0.00000000000E+00 0. -1.
          6    1    1    2  502    0  0.68383274227E+02 -0.19383698368E+03  0.12274703121E+03  0.29537244642E+03  0.17300000000E+03 0.  1.
         -6    1    1    2    0  501 -0.68383274227E+02  0.19383698368E+03 -0.22105200021E+02  0.26956759505E+03  0.17300000000E+03 0. -1.
<mgrwt>
<rscale>  2 0.26865973E+03</rscale>
<asrwt>0</asrwt>
<pdfrwt beam="1">  1        2 0.51198606E-01 0.26865973E+03</pdfrwt>
<pdfrwt beam="2">  1       -2 0.35715247E-01 0.26865973E+03</pdfrwt>
<totfact> 0.72411473E+02</totfact>
</mgrwt>
</event>
<event>
 4    1  0.7354369E-001  0.2251719E+03  0.7546771E-02  0.1130085E+00
         -2   -1    0    0    0  501 -0.00000000000E+00  0.00000000000E+00  0.14018999317E+02  0.14018999317E+02  0.00000000000E+00 0. -1.
          2   -1    0    0  502    0  0.00000000000E+00 -0.00000000000E+00 -0.36578944139E+04  0.36578944139E+04  0.00000000000E+00 0.  1.
          6    1    1    2  502    0  0.18294931948E+02 -0.14296397827E+03 -0.20167910367E+04  0.20293221749E+04  0.17300000000E+03 0.  1.
         -6    1    1    2    0  501 -0.18294931948E+02  0.14296397827E+03 -0.16270843779E+04  0.16425912384E+04  0.17300000000E+03 0. -1.
<mgrwt>
<rscale>  2 0.22517194E+03</rscale>
<asrwt>0</asrwt>
<pdfrwt beam="1">  1        2 0.56275268E+00 0.22517194E+03</pdfrwt>
<pdfrwt beam="2">  1       -2 0.21567703E-02 0.22517194E+03</pdfrwt>
<totfact> 0.55592968E+02</totfact>
</mgrwt>
</event>
<event>
 4    1  0.7354369E-001  0.1844950E+03  0.7546771E-02  0.1163522E+00
         -2   -1    0    0    0  501 -0.00000000000E+00  0.00000000000E+00  0.61933790705E+02  0.61933790705E+02  0.00000000000E+00 0. -1.
          2   -1    0    0  502    0  0.00000000000E+00 -0.00000000000E+00 -0.17243309517E+04  0.17243309517E+04  0.00000000000E+00 0.  1.
          6    1    1    2  502    0  0.28740303494E+02 -0.57300802246E+02 -0.94014427087E+02  0.20706786202E+03  0.17300000000E+03 0. -1.
         -6    1    1    2    0  501 -0.28740303494E+02  0.57300802246E+02 -0.15683827339E+04  0.15791968803E+04  0.17300000000E+03 0.  1.
<mgrwt>
<rscale>  2 0.18449495E+03</rscale>
<asrwt>0</asrwt>
<pdfrwt beam="1">  1        2 0.26528174E+00 0.18449495E+03</pdfrwt>
<pdfrwt beam="2">  1       -2 0.95282737E-02 0.18449495E+03</pdfrwt>
<totfact> 0.75402559E+02</totfact>
</mgrwt>
</event>
<event>
 4    1  0.7354369E-001  0.2489873E+03  0.7546771E-02  0.1113947E+00
         -1   -1    0    0    0  501 -0.00000000000E+00  0.00000000000E+00  0.29581874489E+03  0.29581874489E+03  0.00000000000E+00 0. -1.
          1   -1    0    0  502    0  0.00000000000E+00 -0.00000000000E+00 -0.24758763247E+03  0.24758763247E+03  0.00000000000E+00 0.  1.
          6    1    1    2  502    0 -0.91373067119E+02  0.15400203920E+03  0.13058478934E+03  0.28115307695E+03  0.17300000000E+03 0.  1.
         -6    1    1    2    0  501  0.91373067119E+02 -0.15400203920E+03 -0.82353676922E+02  0.26225330041E+03  0.17300000000E+03 0.  1.
<mgrwt>
<rscale>  2 0.24898728E+03</rscale>
<asrwt>0</asrwt>
<pdfrwt beam="1">  1        1 0.38090405E-01 0.24898728E+03</pdfrwt>
<pdfrwt beam="2">  1       -1 0.45510576E-01 0.24898728E+03</pdfrwt>
<totfact> 0.54881746E+02</totfact>
</mgrwt>
</event>
<event>
 4    1  0.7354369E-001  0.2777435E+03  0.7546771E-02  0.1096928E+00
         -2   -1    0    0    0  501 -0.00000000000E+00  0.00000000000E+00  0.18765811446E+03  0.18765811446E+03  0.00000000000E+00 0.  1.
          2   -1    0    0  502    0  0.00000000000E+00 -0.00000000000E+00 -0.68608837382E+03  0.68608837382E+03  0.00000000000E+00 0. -1.
          6    1    1    2  502    0  0.59029402277E+02 -0.20911239530E+03 -0.52580911067E+03  0.59465677922E+03  0.17300000000E+03 0. -1.
         -6    1    1    2    0  501 -0.59029402277E+02  0.20911239530E+03  0.27378851320E+02  0.27908970906E+03  0.17300000000E+03 0.  1.
<mgrwt>
<rscale>  2 0.27774352E+03</rscale>
<asrwt>0</asrwt>
<pdfrwt beam="1">  1        2 0.10555206E+00 0.27774352E+03</pdfrwt>
<pdfrwt beam="2">  1       -2 0.28870479E-01 0.27774352E+03</pdfrwt>
<totfact> 0.47408289E+02</totfact>
</mgrwt>
</event>
<event>
 4    1  0.7354369E-001  0.3714114E+03  0.7546771E-02  0.1054155E+00
          1   -1    0    0  502    0  0.00000000000E+00  0.00000000000E+00  0.44371660373E+03  0.44371660373E+03  0.00000000000E+00 0. -1.
         -1   -1    0    0    0  501 -0.00000000000E+00 -0.00000000000E+00 -0.32973585912E+03  0.32973585912E+03  0.00000000000E+00 0.  1.
          6    1    1    2  502    0  0.26793030270E+03 -0.19034386075E+03  0.14944841082E+03  0.40035142054E+03  0.17300000000E+03 0.  1.
         -6    1    1    2    0  501 -0.26793030270E+03  0.19034386075E+03 -0.35467666203E+02  0.37310104231E+03  0.17300000000E+03 0.  1.
<mgrwt>
<rscale>  2 0.37141141E+03</rscale>
<asrwt>0</asrwt>
<pdfrwt beam="1">  1        1 0.68264093E-01 0.37141141E+03</pdfrwt>
<pdfrwt beam="2">  1       -1 0.50728594E-01 0.37141141E+03</pdfrwt>
<totfact> 0.21145913E+02</totfact>
</mgrwt>
</event>
<event>
 4    1  0.7354369E-001  0.1975403E+03  0.7546771E-02  0.1151831E+00
          1   -1    0    0  502    0  0.00000000000E+00  0.00000000000E+00  0.91121879115E+03  0.91121879115E+03  0.00000000000E+00 0. -1.
         -1   -1    0    0    0  501 -0.00000000000E+00 -0.00000000000E+00 -0.49625730316E+02  0.49625730316E+02  0.00000000000E+00 0.  1.
          6    1    1    2  502    0  0.42825658779E+02 -0.85200542234E+02  0.25293803725E+03  0.32093585050E+03  0.17300000000E+03 0. -1.
         -6    1    1    2    0  501 -0.42825658779E+02  0.85200542234E+02  0.60865502359E+03  0.63990867097E+03  0.17300000000E+03 0.  1.
<mgrwt>
<rscale>  2 0.19754030E+03</rscale>
<asrwt>0</asrwt>
<pdfrwt beam="1">  1        1 0.14018749E+00 0.19754030E+03</pdfrwt>
<pdfrwt beam="2">  1       -1 0.76347284E-02 0.19754030E+03</pdfrwt>
<totfact> 0.17268948E+03</totfact>
</mgrwt>
</event>
<event>
 4    1  0.7354369E-001  0.2334816E+03  0.7546771E-02  0.1124213E+00
          3   -1    0    0  502    0  0.00000000000E+00  0.00000000000E+00  0.29200002166E+03  0.29200002166E+03  0.00000000000E+00 0.  1.
         -3   -1    0    0    0  501 -0.00000000000E+00 -0.00000000000E+00 -0.20125779293E+03  0.20125779293E+03  0.00000000000E+00 0. -1.
          6    1    1    2  502    0  0.12699508873E+02  0.15627977448E+03 -0.20981229204E+02  0.23442239103E+03  0.17300000000E+03 0. -1.
         -6    1    1    2    0  501 -0.12699508873E+02 -0.15627977448E+03  0.11172345793E+03  0.25883542356E+03  0.17300000000E+03 0.  1.
<mgrwt>
<rscale>  2 0.23348157E+03</rscale>
<asrwt>0</asrwt>
<pdfrwt beam="1">  1        3 0.44923081E-01 0.23348157E+03</pdfrwt>
<pdfrwt beam="2">  1       -3 0.30962737E-01 0.23348157E+03</pdfrwt>
<totfact> 0.12403609E+02</totfact>
</mgrwt>
</event>
<event>
 4    1  0.7354369E-001  0.1887404E+03  0.7546771E-02  0.1159602E+00
          1   -1    0    0  502    0  0.00000000000E+00  0.00000000000E+00  0.12158548199E+04  0.12158548199E+04  0.00000000000E+00 0.  1.
         -1   -1    0    0    0  501 -0.00000000000E+00 -0.00000000000E+00 -0.31724388065E+02  0.31724388065E+02  0.00000000000E+00 0. -1.
          6    1    1    2  502    0  0.11306305590E+02 -0.74606352139E+02  0.76455399298E+03  0.78750603077E+03  0.17300000000E+03 0.  1.
         -6    1    1    2    0  501 -0.11306305590E+02  0.74606352139E+02  0.41957643883E+03  0.46007317716E+03  0.17300000000E+03 0. -1.
<mgrwt>
<rscale>  2 0.18874040E+03</rscale>
<asrwt>0</asrwt>
<pdfrwt beam="1">  1        1 0.18705455E+00 0.18874040E+03</pdfrwt>
<pdfrwt beam="2">  1       -1 0.48806760E-02 0.18874040E+03</pdfrwt>
<totfact> 0.20331607E+03</totfact>
</mgrwt>
</event>
<event>
 4    1  0.7354369E-001  0.1941882E+03  0.7546771E-02  0.1154737E+00
          2   -1    0    0  502    0  0.00000000000E+00  0.00000000000E+00  0.11315222143E+04  0.11315222143E+04  0.00000000000E+00 0.  1.
         -2   -1    0    0    0  501 -0.00000000000E+00 -0.00000000000E+00 -0.41435535163E+02  0.41435535163E+02  0.00000000000E+00 0. -1.
          6    1    1    2  502    0  0.65408174680E+02  0.59176229446E+02  0.80450019625E+03  0.82760474939E+03  0.17300000000E+03 0.  1.
         -6    1    1    2    0  501 -0.65408174680E+02 -0.59176229446E+02  0.28558648284E+03  0.34535300003E+03  0.17300000000E+03 0. -1.
<mgrwt>
<rscale>  2 0.19418820E+03</rscale>
<asrwt>0</asrwt>
<pdfrwt beam="1">  1        2 0.17408032E+00 0.19418820E+03</pdfrwt>
<pdfrwt beam="2">  1       -2 0.63746986E-02 0.19418820E+03</pdfrwt>
<totfact> 0.29344529E+03</totfact>
</mgrwt>
</event>
<event>
 4    1  0.7354369E-001  0.2601086E+03  0.7546771E-02  0.1107078E+00
         -3   -1    0    0    0  501 -0.00000000000E+00  0.00000000000E+00  0.16216817236E+03  0.16216817236E+03  0.00000000000E+00 0.  1.
          3   -1    0    0  502    0  0.00000000000E+00 -0.00000000000E+00 -0.50348363477E+03  0.50348363477E+03  0.00000000000E+00 0. -1.
          6    1    1    2  502    0  0.19193797388E+03  0.29787603922E+02 -0.32876579730E+02  0.26217810103E+03  0.17300000000E+03 0.  1.
         -6    1    1    2    0  501 -0.19193797388E+03 -0.29787603922E+02 -0.30843888268E+03  0.40347370610E+03  0.17300000000E+03 0. -1.
<mgrwt>
<rscale>  2 0.26010861E+03</rscale>
<asrwt>0</asrwt>
<pdfrwt beam="1">  1        3 0.77459021E-01 0.26010861E+03</pdfrwt>
<pdfrwt beam="2">  1       -3 0.24948950E-01 0.26010861E+03</pdfrwt>
<totfact> 0.60137091E+01</totfact>
</mgrwt>
</event>
<event>
 4    1  0.7354369E-001  0.2737113E+03  0.7546771E-02  0.1099174E+00
         -2   -1    0    0    0  501 -0.00000000000E+00  0.00000000000E+00  0.63179044582E+02  0.63179044582E+02  0.00000000000E+00 0.  1.
          2   -1    0    0  502    0  0.00000000000E+00 -0.00000000000E+00 -0.15184650440E+04  0.15184650440E+04  0.00000000000E+00 0. -1.
          6    1    1    2  502    0 -0.84069193756E+02 -0.19473372677E+03 -0.10977936172E+04  0.11314012019E+04  0.17300000000E+03 0.  1.
         -6    1    1    2    0  501  0.84069193756E+02  0.19473372677E+03 -0.35749238226E+03  0.45024288673E+03  0.17300000000E+03 0.  1.
<mgrwt>
<rscale>  2 0.27371126E+03</rscale>
<asrwt>0</asrwt>
<pdfrwt beam="1">  1        2 0.23360999E+00 0.27371126E+03</pdfrwt>
<pdfrwt beam="2">  1       -2 0.97198537E-02 0.27371126E+03</pdfrwt>
<totfact> 0.92764895E+02</totfact>
</mgrwt>
</event>
<event>
 4    1  0.7354369E-001  0.1815709E+03  0.7546771E-02  0.1166291E+00
          2   -1    0    0  502    0  0.00000000000E+00  0.00000000000E+00  0.15379440779E+04  0.15379440779E+04  0.00000000000E+00 0. -1.
         -2   -1    0    0    0  501 -0.00000000000E+00 -0.00000000000E+00 -0.31252743355E+02  0.31252743355E+02  0.00000000000E+00 0.  1.
          6    1    1    2  502    0 -0.52795268473E+02  0.15863326512E+02  0.31362365553E+03  0.36239175323E+03  0.17300000000E+03 0.  1.
         -6    1    1    2    0  501  0.52795268473E+02 -0.15863326512E+02  0.11930676790E+04  0.12068050680E+04  0.17300000000E+03 0. -1.
<mgrwt>
<rscale>  2 0.18157088E+03</rscale>
<asrwt>0</asrwt>
<pdfrwt beam="1">  1        2 0.23660672E+00 0.18157088E+03</pdfrwt>
<pdfrwt beam="2">  1       -2 0.48081156E-02 0.18157088E+03</pdfrwt>
<totfact> 0.27043001E+03</totfact>
</mgrwt>
</event>
<event>
 4    1  0.7354369E-001  0.2045398E+03  0.7546771E-02  0.1145964E+00
         -1   -1    0    0    0  501 -0.00000000000E+00  0.00000000000E+00  0.10229134063E+03  0.10229134063E+03  0.00000000000E+00 0.  1.
          1   -1    0    0  502    0  0.00000000000E+00 -0.00000000000E+00 -0.44927679086E+03  0.44927679086E+03  0.00000000000E+00 0. -1.
          6    1    1    2  502    0  0.85045359441E+02 -0.68372512489E+02 -0.25607247904E+03  0.32773408146E+03  0.17300000000E+03 0. -1.
         -6    1    1    2    0  501 -0.85045359441E+02  0.68372512489E+02 -0.90912971184E+02  0.22383405004E+03  0.17300000000E+03 0.  1.
<mgrwt>
<rscale>  2 0.20453976E+03</rscale>
<asrwt>0</asrwt>
<pdfrwt beam="1">  1        1 0.69119505E-01 0.20453976E+03</pdfrwt>
<pdfrwt beam="2">  1       -1 0.15737130E-01 0.20453976E+03</pdfrwt>
<totfact> 0.15415251E+03</totfact>
</mgrwt>
</event>
<event>
 4    1  0.7354369E-001  0.2785801E+03  0.7546771E-02  0.1096467E+00
         -1   -1    0    0    0  501 -0.00000000000E+00  0.00000000000E+00  0.66441055306E+02  0.66441055306E+02  0.00000000000E+00 0.  1.
          1   -1    0    0  502    0  0.00000000000E+00 -0.00000000000E+00 -0.14983700586E+04  0.14983700586E+04  0.00000000000E+00 0. -1.
          6    1    1    2  502    0 -0.16913738535E+03  0.13809563556E+03 -0.10833195792E+04  0.11185652285E+04  0.17300000000E+03 0. -1.
         -6    1    1    2    0  501  0.16913738535E+03 -0.13809563556E+03 -0.34860942403E+03  0.44624588537E+03  0.17300000000E+03 0.  1.
<mgrwt>
<rscale>  2 0.27858008E+03</rscale>
<asrwt>0</asrwt>
<pdfrwt beam="1">  1        1 0.23051844E+00 0.27858008E+03</pdfrwt>
<pdfrwt beam="2">  1       -1 0.10221702E-01 0.27858008E+03</pdfrwt>
<totfact> 0.42333438E+02</totfact>
</mgrwt>
</event>
<event>
 4    1  0.7354369E-001  0.1759962E+03  0.7546771E-02  0.1171735E+00
          2   -1    0    0  502    0  0.00000000000E+00  0.00000000000E+00  0.25088876220E+04  0.25088876220E+04  0.00000000000E+00 0. -1.
         -2   -1    0    0    0  501 -0.00000000000E+00 -0.00000000000E+00 -0.20315243820E+02  0.20315243820E+02  0.00000000000E+00 0.  1.
          6    1    1    2  502    0 -0.98447236377E+01  0.30801559635E+02  0.45223730152E+03  0.48527644858E+03  0.17300000000E+03 0.  1.
         -6    1    1    2    0  501  0.98447236377E+01 -0.30801559635E+02  0.20363350767E+04  0.20439264173E+04  0.17300000000E+03 0. -1.
<mgrwt>
<rscale>  2 0.17599618E+03</rscale>
<asrwt>0</asrwt>
<pdfrwt beam="1">  1        2 0.38598247E+00 0.17599618E+03</pdfrwt>
<pdfrwt beam="2">  1       -2 0.31254241E-02 0.17599618E+03</pdfrwt>
<totfact> 0.15995953E+03</totfact>
</mgrwt>
</event>
<event>
 4    1  0.7354369E-001  0.2020951E+03  0.7546771E-02  0.1147983E+00
          2   -1    0    0  502    0  0.00000000000E+00  0.00000000000E+00  0.80676610848E+03  0.80676610848E+03  0.00000000000E+00 0.  1.
         -2   -1    0    0    0  501 -0.00000000000E+00 -0.00000000000E+00 -0.53697288083E+02  0.53697288083E+02  0.00000000000E+00 0. -1.
          6    1    1    2  502    0  0.81789168368E+02 -0.64992002850E+02  0.27362230543E+03  0.34016407001E+03  0.17300000000E+03 0. -1.
         -6    1    1    2    0  501 -0.81789168368E+02  0.64992002850E+02  0.47944651497E+03  0.52029932655E+03  0.17300000000E+03 0.  1.
<mgrwt>
<rscale>  2 0.20209510E+03</rscale>
<asrwt>0</asrwt>
<pdfrwt beam="1">  1        2 0.12411785E+00 0.20209510E+03</pdfrwt>
<pdfrwt beam="2">  1       -2 0.82611218E-02 0.20209510E+03</pdfrwt>
<totfact> 0.31265917E+03</totfact>
</mgrwt>
</event>
<event>
 4    1  0.7354369E-001  0.2090515E+03  0.7546771E-02  0.1142319E+00
          4   -1    0    0  502    0  0.00000000000E+00  0.00000000000E+00  0.99244442348E+03  0.99244442348E+03  0.00000000000E+00 0.  1.
         -4   -1    0    0    0  501 -0.00000000000E+00 -0.00000000000E+00 -0.71638052480E+02  0.71638052480E+02  0.00000000000E+00 0. -1.
          6    1    1    2  502    0 -0.10103031155E+03 -0.59719240879E+02  0.79065880075E+03  0.81782874172E+03  0.17300000000E+03 0.  1.
         -6    1    1    2    0  501  0.10103031155E+03  0.59719240879E+02  0.13014757025E+03  0.24625373423E+03  0.17300000000E+03 0. -1.
<mgrwt>
<rscale>  2 0.20905146E+03</rscale>
<asrwt>0</asrwt>
<pdfrwt beam="1">  1        4 0.15268375E+00 0.20905146E+03</pdfrwt>
<pdfrwt beam="2">  1       -4 0.11021240E-01 0.20905146E+03</pdfrwt>
<totfact> 0.34804974E+01</totfact>
</mgrwt>
</event>
<event>
 4    1  0.7354369E-001  0.5711705E+03  0.7546771E-02  0.9967092E-01
          2   -1    0    0  502    0  0.00000000000E+00  0.00000000000E+00  0.40561519172E+04  0.40561519172E+04  0.00000000000E+00 0. -1.
         -2   -1    0    0    0  501 -0.00000000000E+00 -0.00000000000E+00 -0.12178558642E+03  0.12178558642E+03  0.00000000000E+00 0.  1.
          6    1    1    2  502    0  0.58136247321E+02  0.54122719730E+03  0.31844950482E+04  0.32353121046E+04  0.17300000000E+03 0.  1.
         -6    1    1    2    0  501 -0.58136247321E+02 -0.54122719730E+03  0.74987128254E+03  0.94262539894E+03  0.17300000000E+03 0. -1.
<mgrwt>
<rscale>  2 0.57117047E+03</rscale>
<asrwt>0</asrwt>
<pdfrwt beam="1">  1        2 0.62402327E+00 0.57117047E+03</pdfrwt>
<pdfrwt beam="2">  1       -2 0.18736247E-01 0.57117047E+03</pdfrwt>
<totfact> 0.84924002E+00</totfact>
</mgrwt>
</event>
<event>
 4    1  0.7354369E-001  0.1980863E+03  0.7546771E-02  0.1151364E+00
          1   -1    0    0  502    0  0.00000000000E+00  0.00000000000E+00  0.11464835483E+04  0.11464835483E+04  0.00000000000E+00 0. -1.
         -1   -1    0    0    0  501 -0.00000000000E+00 -0.00000000000E+00 -0.40736648037E+02  0.40736648037E+02  0.00000000000E+00 0.  1.
          6    1    1    2  502    0  0.69664443945E+02  0.66753560379E+02  0.31553904903E+03  0.37256283233E+03  0.17300000000E+03 0.  1.
         -6    1    1    2    0  501 -0.69664443945E+02 -0.66753560379E+02  0.79020785119E+03  0.81465736396E+03  0.17300000000E+03 0. -1.
<mgrwt>
<rscale>  2 0.19808628E+03</rscale>
<asrwt>0</asrwt>
<pdfrwt beam="1">  1        1 0.17638206E+00 0.19808628E+03</pdfrwt>
<pdfrwt beam="2">  1       -1 0.62671775E-02 0.19808628E+03</pdfrwt>
<totfact> 0.15628266E+03</totfact>
</mgrwt>
</event>
<event>
 4    1  0.7354369E-001  0.1790507E+03  0.7546771E-02  0.1168725E+00
         -2   -1    0    0    0  501 -0.00000000000E+00  0.00000000000E+00  0.15210942046E+04  0.15210942046E+04  0.00000000000E+00 0.  1.
          2   -1    0    0  502    0  0.00000000000E+00 -0.00000000000E+00 -0.25320050886E+02  0.25320050886E+02  0.00000000000E+00 0. -1.
          6    1    1    2  502    0 -0.45986542948E+02  0.39222031393E+01  0.43134250615E+03  0.46702837539E+03  0.17300000000E+03 0. -1.
         -6    1    1    2    0  501  0.45986542948E+02 -0.39222031393E+01  0.10644316476E+04  0.10793858801E+04  0.17300000000E+03 0.  1.
<mgrwt>
<rscale>  2 0.17905068E+03</rscale>
<asrwt>0</asrwt>
<pdfrwt beam="1">  1        2 0.38953936E-02 0.17905068E+03</pdfrwt>
<pdfrwt beam="2">  1       -2 0.23401442E+00 0.17905068E+03</pdfrwt>
<totfact> 0.19554435E+02</totfact>
</mgrwt>
</event>
<event>
 4    1  0.7354369E-001  0.1902940E+03  0.7546771E-02  0.1158196E+00
         -2   -1    0    0    0  501 -0.00000000000E+00  0.00000000000E+00  0.45903475474E+02  0.45903475474E+02  0.00000000000E+00 0. -1.
          2   -1    0    0  502    0  0.00000000000E+00 -0.00000000000E+00 -0.15566693114E+04  0.15566693114E+04  0.00000000000E+00 0.  1.
          6    1    1    2  502    0  0.27022942928E+02 -0.74515537908E+02 -0.19263502730E+03  0.27077676890E+03  0.17300000000E+03 0. -1.
         -6    1    1    2    0  501 -0.27022942928E+02  0.74515537908E+02 -0.13181308086E+04  0.13317960179E+04  0.17300000000E+03 0.  1.
<mgrwt>
<rscale>  2 0.19029400E+03</rscale>
<asrwt>0</asrwt>
<pdfrwt beam="1">  1        2 0.23948760E+00 0.19029400E+03</pdfrwt>
<pdfrwt beam="2">  1       -2 0.70620726E-02 0.19029400E+03</pdfrwt>
<totfact> 0.14702966E+03</totfact>
</mgrwt>
</event>
<event>
 4    1  0.7354369E-001  0.3331592E+03  0.7546771E-02  0.1069747E+00
         -2   -1    0    0    0  501 -0.00000000000E+00  0.00000000000E+00  0.89520210827E+03  0.89520210827E+03  0.00000000000E+00 0.  1.
          2   -1    0    0  502    0  0.00000000000E+00 -0.00000000000E+00 -0.22365545661E+03  0.22365545661E+03  0.00000000000E+00 0. -1.
          6    1    1    2  502    0  0.10714789518E+03  0.26379045764E+03  0.70922112201E+03  0.78357493381E+03  0.17300000000E+03 0.  1.
         -6    1    1    2    0  501 -0.10714789518E+03 -0.26379045764E+03 -0.37674470355E+02  0.33528263107E+03  0.17300000000E+03 0. -1.
<mgrwt>
<rscale>  2 0.33315924E+03</rscale>
<asrwt>0</asrwt>
<pdfrwt beam="1">  1        2 0.34408532E-01 0.33315924E+03</pdfrwt>
<pdfrwt beam="2">  1       -2 0.13772340E+00 0.33315924E+03</pdfrwt>
<totfact> 0.59505716E+01</totfact>
</mgrwt>
</event>
<event>
 4    1  0.7354369E-001  0.1744169E+03  0.7546771E-02  0.1173318E+00
          2   -1    0    0  502    0  0.00000000000E+00  0.00000000000E+00  0.26650230972E+04  0.26650230972E+04  0.00000000000E+00 0. -1.
         -2   -1    0    0    0  501 -0.00000000000E+00 -0.00000000000E+00 -0.11417701926E+02  0.11417701926E+02  0.00000000000E+00 0.  1.
          6    1    1    2  502    0  0.17565515378E+02 -0.13553994342E+02  0.13473610360E+04  0.13586033341E+04  0.17300000000E+03 0.  1.
         -6    1    1    2    0  501 -0.17565515378E+02  0.13553994342E+02  0.13062443593E+04  0.13178374650E+04  0.17300000000E+03 0.  1.
<mgrwt>
<rscale>  2 0.17441691E+03</rscale>
<asrwt>0</asrwt>
<pdfrwt beam="1">  1        2 0.41000306E+00 0.17441691E+03</pdfrwt>
<pdfrwt beam="2">  1       -2 0.17565717E-02 0.17441691E+03</pdfrwt>
<totfact> 0.30636636E+03</totfact>
</mgrwt>
</event>
<event>
 4    1  0.7354369E-001  0.1751260E+03  0.7546771E-02  0.1172605E+00
          1   -1    0    0  502    0  0.00000000000E+00  0.00000000000E+00  0.83215635148E+03  0.83215635148E+03  0.00000000000E+00 0. -1.
         -1   -1    0    0    0  501 -0.00000000000E+00 -0.00000000000E+00 -0.52460584846E+02  0.52460584846E+02  0.00000000000E+00 0.  1.
          6    1    1    2  502    0 -0.67432432537E+01  0.26356126316E+02  0.14860816726E+03  0.22968130986E+03  0.17300000000E+03 0.  1.
         -6    1    1    2    0  501  0.67432432537E+01 -0.26356126316E+02  0.63108759938E+03  0.65493562646E+03  0.17300000000E+03 0. -1.
<mgrwt>
<rscale>  2 0.17512600E+03</rscale>
<asrwt>0</asrwt>
<pdfrwt beam="1">  1        1 0.12802404E+00 0.17512600E+03</pdfrwt>
<pdfrwt beam="2">  1       -1 0.80708598E-02 0.17512600E+03</pdfrwt>
<totfact> 0.18303080E+03</totfact>
</mgrwt>
</event>
<event>
 4    1  0.7354369E-001  0.1918772E+03  0.7546771E-02  0.1156779E+00
          1   -1    0    0  502    0  0.00000000000E+00  0.00000000000E+00  0.27659352641E+03  0.27659352641E+03  0.00000000000E+00 0. -1.
         -1   -1    0    0    0  501 -0.00000000000E+00 -0.00000000000E+00 -0.13343829773E+03  0.13343829773E+03  0.00000000000E+00 0.  1.
          6    1    1    2  502    0  0.61754972285E+02  0.55445488950E+02  0.61381397487E+02  0.20145608654E+03  0.17300000000E+03 0. -1.
         -6    1    1    2    0  501 -0.61754972285E+02 -0.55445488950E+02  0.81773831192E+02  0.20857573760E+03  0.17300000000E+03 0.  1.
<mgrwt>
<rscale>  2 0.19187725E+03</rscale>
<asrwt>0</asrwt>
<pdfrwt beam="1">  1        1 0.42552850E-01 0.19187725E+03</pdfrwt>
<pdfrwt beam="2">  1       -1 0.20528969E-01 0.19187725E+03</pdfrwt>
<totfact> 0.18569798E+03</totfact>
</mgrwt>
</event>
<event>
 4    1  0.7354369E-001  0.1823631E+03  0.7546771E-02  0.1165535E+00
         -2   -1    0    0    0  501 -0.00000000000E+00  0.00000000000E+00  0.32218732841E+02  0.32218732841E+02  0.00000000000E+00 0.  1.
          2   -1    0    0  502    0  0.00000000000E+00 -0.00000000000E+00 -0.12468753190E+04  0.12468753190E+04  0.00000000000E+00 0. -1.
          6    1    1    2  502    0 -0.27877368018E+02 -0.50499044595E+02 -0.34196056891E+03  0.38754784458E+03  0.17300000000E+03 0.  1.
         -6    1    1    2    0  501  0.27877368018E+02  0.50499044595E+02 -0.87269601728E+03  0.89154620729E+03  0.17300000000E+03 0. -1.
<mgrwt>
<rscale>  2 0.18236310E+03</rscale>
<asrwt>0</asrwt>
<pdfrwt beam="1">  1        2 0.19182700E+00 0.18236310E+03</pdfrwt>
<pdfrwt beam="2">  1       -2 0.49567273E-02 0.18236310E+03</pdfrwt>
<totfact> 0.37021825E+03</totfact>
</mgrwt>
</event>
<event>
 4    1  0.7354369E-001  0.2327956E+03  0.7546771E-02  0.1124687E+00
          2   -1    0    0  502    0  0.00000000000E+00  0.00000000000E+00  0.19767642708E+04  0.19767642708E+04  0.00000000000E+00 0.  1.
         -2   -1    0    0    0  501 -0.00000000000E+00 -0.00000000000E+00 -0.56610001181E+02  0.56610001181E+02  0.00000000000E+00 0. -1.
          6    1    1    2  502    0 -0.13535805624E+03 -0.77090824325E+02  0.22996097302E+03  0.32722446072E+03  0.17300000000E+03 0. -1.
         -6    1    1    2    0  501  0.13535805624E+03  0.77090824325E+02  0.16901932966E+04  0.17061498112E+04  0.17300000000E+03 0.  1.
<mgrwt>
<rscale>  2 0.23279562E+03</rscale>
<asrwt>0</asrwt>
<pdfrwt beam="1">  1        2 0.30411753E+00 0.23279562E+03</pdfrwt>
<pdfrwt beam="2">  1       -2 0.87092325E-02 0.23279562E+03</pdfrwt>
<totfact> 0.63671979E+02</totfact>
</mgrwt>
</event>
<event>
 4    1  0.7354369E-001  0.2194373E+03  0.7546771E-02  0.1134303E+00
         -2   -1    0    0    0  501 -0.00000000000E+00  0.00000000000E+00  0.27517976762E+02  0.27517976762E+02  0.00000000000E+00 0. -1.
          2   -1    0    0  502    0  0.00000000000E+00 -0.00000000000E+00 -0.17505026614E+04  0.17505026614E+04  0.00000000000E+00 0.  1.
          6    1    1    2  502    0 -0.13280221358E+03 -0.24234549511E+02 -0.84452324908E+03  0.87256647859E+03  0.17300000000E+03 0.  1.
         -6    1    1    2    0  501  0.13280221358E+03  0.24234549511E+02 -0.87846143553E+03  0.90545415954E+03  0.17300000000E+03 0. -1.
<mgrwt>
<rscale>  2 0.21943733E+03</rscale>
<asrwt>0</asrwt>
<pdfrwt beam="1">  1        2 0.26930811E+00 0.21943733E+03</pdfrwt>
<pdfrwt beam="2">  1       -2 0.42335348E-02 0.21943733E+03</pdfrwt>
<totfact> 0.25366448E+03</totfact>
</mgrwt>
</event>
<event>
 4    1  0.7354369E-001  0.1750259E+03  0.7546771E-02  0.1172706E+00
          1   -1    0    0  502    0  0.00000000000E+00  0.00000000000E+00  0.72844743783E+03  0.72844743783E+03  0.00000000000E+00 0. -1.
         -1   -1    0    0    0  501 -0.00000000000E+00 -0.00000000000E+00 -0.45440933390E+02  0.45440933390E+02  0.00000000000E+00 0.  1.
          6    1    1    2  502    0 -0.99249524858E+01  0.24628267967E+02  0.44714471186E+03  0.48017960141E+03  0.17300000000E+03 0. -1.
         -6    1    1    2    0  501  0.99249524858E+01 -0.24628267967E+02  0.23586179258E+03  0.29370876981E+03  0.17300000000E+03 0.  1.
<mgrwt>
<rscale>  2 0.17502587E+03</rscale>
<asrwt>0</asrwt>
<pdfrwt beam="1">  1        1 0.11206883E+00 0.17502587E+03</pdfrwt>
<pdfrwt beam="2">  1       -1 0.69909133E-02 0.17502587E+03</pdfrwt>
<totfact> 0.27792175E+03</totfact>
</mgrwt>
</event>
<event>
 4    1  0.7354369E-001  0.1871723E+03  0.7546771E-02  0.1161037E+00
          2   -1    0    0  502    0  0.00000000000E+00  0.00000000000E+00  0.20402658625E+04  0.20402658625E+04  0.00000000000E+00 0.  1.
         -2   -1    0    0    0  501 -0.00000000000E+00 -0.00000000000E+00 -0.19582625384E+02  0.19582625384E+02  0.00000000000E+00 0. -1.
          6    1    1    2  502    0 -0.71387924500E+02 -0.28707369459E+01  0.64891379770E+03  0.67536848738E+03  0.17300000000E+03 0. -1.
         -6    1    1    2    0  501  0.71387924500E+02  0.28707369459E+01  0.13717694395E+04  0.13844800005E+04  0.17300000000E+03 0.  1.
<mgrwt>
<rscale>  2 0.18717232E+03</rscale>
<asrwt>0</asrwt>
<pdfrwt beam="1">  1        2 0.31388689E+00 0.18717232E+03</pdfrwt>
<pdfrwt beam="2">  1       -2 0.30127132E-02 0.18717232E+03</pdfrwt>
<totfact> 0.29831230E+03</totfact>
</mgrwt>
</event>
<event>
 4    1  0.7354369E-001  0.1845686E+03  0.7546771E-02  0.1163453E+00
          1   -1    0    0  502    0  0.00000000000E+00  0.00000000000E+00  0.16126213637E+03  0.16126213637E+03  0.00000000000E+00 0. -1.
         -1   -1    0    0    0  501 -0.00000000000E+00 -0.00000000000E+00 -0.21351036904E+03  0.21351036904E+03  0.00000000000E+00 0.  1.
          6    1    1    2  502    0 -0.63232836046E+02  0.11754544370E+02 -0.45432756742E+02  0.19007813197E+03  0.17300000000E+03 0.  1.
         -6    1    1    2    0  501  0.63232836046E+02 -0.11754544370E+02 -0.68154759228E+01  0.18469437344E+03  0.17300000000E+03 0.  1.
<mgrwt>
<rscale>  2 0.18456858E+03</rscale>
<asrwt>0</asrwt>
<pdfrwt beam="1">  1        1 0.24809560E-01 0.18456858E+03</pdfrwt>
<pdfrwt beam="2">  1       -1 0.32847749E-01 0.18456858E+03</pdfrwt>
<totfact> 0.16685495E+03</totfact>
</mgrwt>
</event>
<event>
 4    1  0.7354369E-001  0.2203079E+03  0.7546771E-02  0.1133654E+00
         -1   -1    0    0    0  501 -0.00000000000E+00  0.00000000000E+00  0.52798430194E+02  0.52798430194E+02  0.00000000000E+00 0.  1.
          1   -1    0    0  502    0  0.00000000000E+00 -0.00000000000E+00 -0.12602640128E+04  0.12602640128E+04  0.00000000000E+00 0. -1.
          6    1    1    2  502    0 -0.10098062334E+03  0.91703293990E+02 -0.94524262192E+03  0.97057673304E+03  0.17300000000E+03 0. -1.
         -6    1    1    2    0  501  0.10098062334E+03 -0.91703293990E+02 -0.26222296072E+03  0.34248570999E+03  0.17300000000E+03 0.  1.
<mgrwt>
<rscale>  2 0.22030792E+03</rscale>
<asrwt>0</asrwt>
<pdfrwt beam="1">  1        1 0.19388676E+00 0.22030792E+03</pdfrwt>
<pdfrwt beam="2">  1       -1 0.81228361E-02 0.22030792E+03</pdfrwt>
<totfact> 0.87842518E+02</totfact>
</mgrwt>
</event>
<event>
 4    1  0.7354369E-001  0.2286024E+03  0.7546771E-02  0.1127627E+00
         -1   -1    0    0    0  501 -0.00000000000E+00  0.00000000000E+00  0.37123649440E+03  0.37123649440E+03  0.00000000000E+00 0.  1.
          1   -1    0    0  502    0  0.00000000000E+00 -0.00000000000E+00 -0.28729631937E+03  0.28729631937E+03  0.00000000000E+00 0. -1.
          6    1    1    2  502    0 -0.19360137946E+02 -0.14817300437E+03  0.27711730443E+03  0.35923955041E+03  0.17300000000E+03 0.  1.
         -6    1    1    2    0  501  0.19360137946E+02  0.14817300437E+03 -0.19317712940E+03  0.29929326336E+03  0.17300000000E+03 0. -1.
<mgrwt>
<rscale>  2 0.22860239E+03</rscale>
<asrwt>0</asrwt>
<pdfrwt beam="1">  1        1 0.44199434E-01 0.22860239E+03</pdfrwt>
<pdfrwt beam="2">  1       -1 0.57113307E-01 0.22860239E+03</pdfrwt>
<totfact> 0.29881372E+02</totfact>
</mgrwt>
</event>
<event>
 4    1  0.7354369E-001  0.1860289E+03  0.7546771E-02  0.1162093E+00
          2   -1    0    0  502    0  0.00000000000E+00  0.00000000000E+00  0.55717875647E+03  0.55717875647E+03  0.00000000000E+00 0. -1.
         -2   -1    0    0    0  501 -0.00000000000E+00 -0.00000000000E+00 -0.62113528972E+02  0.62113528972E+02  0.00000000000E+00 0.  1.
          6    1    1    2  502    0  0.45012321694E+02  0.51493952729E+02  0.24542552651E+03  0.30796172706E+03  0.17300000000E+03 0. -1.
         -6    1    1    2    0  501 -0.45012321694E+02 -0.51493952729E+02  0.24963970099E+03  0.31133055838E+03  0.17300000000E+03 0.  1.
<mgrwt>
<rscale>  2 0.18602886E+03</rscale>
<asrwt>0</asrwt>
<pdfrwt beam="1">  1        2 0.85719805E-01 0.18602886E+03</pdfrwt>
<pdfrwt beam="2">  1       -2 0.95559279E-02 0.18602886E+03</pdfrwt>
<totfact> 0.38584473E+03</totfact>
</mgrwt>
</event>
<event>
 4    1  0.7354369E-001  0.2124157E+03  0.7546771E-02  0.1139667E+00
          1   -1    0    0  502    0  0.00000000000E+00  0.00000000000E+00  0.13590084061E+03  0.13590084061E+03  0.00000000000E+00 0. -1.
         -1   -1    0    0    0  501 -0.00000000000E+00 -0.00000000000E+00 -0.43287378817E+03  0.43287378817E+03  0.00000000000E+00 0.  1.
          6    1    1    2  502    0 -0.74091408560E+02 -0.98498106659E+02 -0.28576341615E+03  0.35606339864E+03  0.17300000000E+03 0.  1.
         -6    1    1    2    0  501  0.74091408560E+02  0.98498106659E+02 -0.11209531409E+02  0.21271123015E+03  0.17300000000E+03 0. -1.
<mgrwt>
<rscale>  2 0.21241566E+03</rscale>
<asrwt>0</asrwt>
<pdfrwt beam="1">  1        1 0.20907822E-01 0.21241566E+03</pdfrwt>
<pdfrwt beam="2">  1       -1 0.66595966E-01 0.21241566E+03</pdfrwt>
<totfact> 0.57217754E+02</totfact>
</mgrwt>
</event>
<event>
 4    1  0.7354369E-001  0.2193809E+03  0.7546771E-02  0.1134345E+00
          2   -1    0    0  502    0  0.00000000000E+00  0.00000000000E+00  0.65743390097E+03  0.65743390097E+03  0.00000000000E+00 0. -1.
         -2   -1    0    0    0  501 -0.00000000000E+00 -0.00000000000E+00 -0.10340103282E+03  0.10340103282E+03  0.00000000000E+00 0.  1.
          6    1    1    2  502    0  0.20896696060E+02 -0.13327528201E+03  0.48258997847E+03  0.53011419527E+03  0.17300000000E+03 0. -1.
         -6    1    1    2    0  501 -0.20896696060E+02  0.13327528201E+03  0.71442889675E+02  0.23072073853E+03  0.17300000000E+03 0.  1.
<mgrwt>
<rscale>  2 0.21938088E+03</rscale>
<asrwt>0</asrwt>
<pdfrwt beam="1">  1        2 0.10114367E+00 0.21938088E+03</pdfrwt>
<pdfrwt beam="2">  1       -2 0.15907852E-01 0.21938088E+03</pdfrwt>
<totfact> 0.14023902E+03</totfact>
</mgrwt>
</event>
<event>
 4    1  0.7354369E-001  0.2293574E+03  0.7546771E-02  0.1127093E+00
         -1   -1    0    0    0  501 -0.00000000000E+00  0.00000000000E+00  0.20320821755E+02  0.20320821755E+02  0.00000000000E+00 0. -1.
          1   -1    0    0  502    0  0.00000000000E+00 -0.00000000000E+00 -0.32484393572E+04  0.32484393572E+04  0.00000000000E+00 0.  1.
          6    1    1    2  502    0  0.92164051692E+02 -0.11908649283E+03 -0.23506005895E+04  0.23617637343E+04  0.17300000000E+03 0.  1.
         -6    1    1    2    0  501 -0.92164051692E+02  0.11908649283E+03 -0.87751794597E+03  0.90699644470E+03  0.17300000000E+03 0. -1.
<mgrwt>
<rscale>  2 0.22935737E+03</rscale>
<asrwt>0</asrwt>
<pdfrwt beam="1">  1        1 0.49975981E+00 0.22935737E+03</pdfrwt>
<pdfrwt beam="2">  1       -1 0.31262808E-02 0.22935737E+03</pdfrwt>
<totfact> 0.17289367E+02</totfact>
</mgrwt>
</event>
<event>
 4    1  0.7354369E-001  0.1811610E+03  0.7546771E-02  0.1166684E+00
          3   -1    0    0  502    0  0.00000000000E+00  0.00000000000E+00  0.22953214417E+03  0.22953214417E+03  0.00000000000E+00 0. -1.
         -3   -1    0    0    0  501 -0.00000000000E+00 -0.00000000000E+00 -0.14618581154E+03  0.14618581154E+03  0.00000000000E+00 0.  1.
          6    1    1    2  502    0  0.52946703620E+02 -0.93249046954E+01  0.13868880565E+02  0.18169109257E+03  0.17300000000E+03 0.  1.
         -6    1    1    2    0  501 -0.52946703620E+02  0.93249046954E+01  0.69477452066E+02  0.19402686313E+03  0.17300000000E+03 0. -1.
<mgrwt>
<rscale>  2 0.18116100E+03</rscale>
<asrwt>0</asrwt>
<pdfrwt beam="1">  1        3 0.35312638E-01 0.18116100E+03</pdfrwt>
<pdfrwt beam="2">  1       -3 0.22490125E-01 0.18116100E+03</pdfrwt>
<totfact> 0.34673702E+02</totfact>
</mgrwt>
</event>
<event>
 4    1  0.7354369E-001  0.1809525E+03  0.7546771E-02  0.1166884E+00
         -2   -1    0    0    0  501 -0.00000000000E+00  0.00000000000E+00  0.33869131921E+02  0.33869131921E+02  0.00000000000E+00 0.  1.
          2   -1    0    0  502    0  0.00000000000E+00 -0.00000000000E+00 -0.12712478630E+04  0.12712478630E+04  0.00000000000E+00 0. -1.
          6    1    1    2  502    0 -0.51783806207E+02  0.11543254325E+02 -0.93804829437E+03  0.95534203921E+03  0.17300000000E+03 0. -1.
         -6    1    1    2    0  501  0.51783806207E+02 -0.11543254325E+02 -0.29933043672E+03  0.34977495572E+03  0.17300000000E+03 0.  1.
<mgrwt>
<rscale>  2 0.18095251E+03</rscale>
<asrwt>0</asrwt>
<pdfrwt beam="1">  1        2 0.19557656E+00 0.18095251E+03</pdfrwt>
<pdfrwt beam="2">  1       -2 0.52106365E-02 0.18095251E+03</pdfrwt>
<totfact> 0.33275221E+03</totfact>
</mgrwt>
</event>
<event>
 4    1  0.7354369E-001  0.2216019E+03  0.7546771E-02  0.1132694E+00
          2   -1    0    0  502    0  0.00000000000E+00  0.00000000000E+00  0.12610835877E+03  0.12610835877E+03  0.00000000000E+00 0.  1.
         -2   -1    0    0    0  501 -0.00000000000E+00 -0.00000000000E+00 -0.39419173338E+03  0.39419173338E+03  0.00000000000E+00 0. -1.
          6    1    1    2  502    0  0.46831767729E+02  0.13032721759E+03 -0.16270508361E+03  0.27491879228E+03  0.17300000000E+03 0.  1.
         -6    1    1    2    0  501 -0.46831767729E+02 -0.13032721759E+03 -0.10537829100E+03  0.24538129987E+03  0.17300000000E+03 0. -1.
<mgrwt>
<rscale>  2 0.22160189E+03</rscale>
<asrwt>0</asrwt>
<pdfrwt beam="1">  1        2 0.19401286E-01 0.22160189E+03</pdfrwt>
<pdfrwt beam="2">  1       -2 0.60644881E-01 0.22160189E+03</pdfrwt>
<totfact> 0.74216420E+02</totfact>
</mgrwt>
</event>
<event>
 4    1  0.7354369E-001  0.1949052E+03  0.7546771E-02  0.1154110E+00
          1   -1    0    0  502    0  0.00000000000E+00  0.00000000000E+00  0.41030531488E+03  0.41030531488E+03  0.00000000000E+00 0.  1.
         -1   -1    0    0    0  501 -0.00000000000E+00 -0.00000000000E+00 -0.17060403139E+03  0.17060403139E+03  0.00000000000E+00 0. -1.
          6    1    1    2  502    0 -0.47017132195E+02 -0.76475027376E+02 -0.76568823040E+02  0.20940588624E+03  0.17300000000E+03 0. -1.
         -6    1    1    2    0  501  0.47017132195E+02  0.76475027376E+02  0.31627010653E+03  0.37150346003E+03  0.17300000000E+03 0.  1.
<mgrwt>
<rscale>  2 0.19490521E+03</rscale>
<asrwt>0</asrwt>
<pdfrwt beam="1">  1        1 0.63123894E-01 0.19490521E+03</pdfrwt>
<pdfrwt beam="2">  1       -1 0.26246774E-01 0.19490521E+03</pdfrwt>
<totfact> 0.75441398E+02</totfact>
</mgrwt>
</event>
<event>
 4    1  0.7354369E-001  0.2235412E+03  0.7546771E-02  0.1131270E+00
         -1   -1    0    0    0  501 -0.00000000000E+00  0.00000000000E+00  0.13741019856E+03  0.13741019856E+03  0.00000000000E+00 0.  1.
          1   -1    0    0  502    0  0.00000000000E+00 -0.00000000000E+00 -0.43611993901E+03  0.43611993901E+03  0.00000000000E+00 0. -1.
          6    1    1    2  502    0  0.13631585950E+03  0.38205687123E+02 -0.32466802023E+02  0.22588665590E+03  0.17300000000E+03 0.  1.
         -6    1    1    2    0  501 -0.13631585950E+03 -0.38205687123E+02 -0.26624293843E+03  0.34764348166E+03  0.17300000000E+03 0. -1.
<mgrwt>
<rscale>  2 0.22354124E+03</rscale>
<asrwt>0</asrwt>
<pdfrwt beam="1">  1        1 0.67095375E-01 0.22354124E+03</pdfrwt>
<pdfrwt beam="2">  1       -1 0.21140031E-01 0.22354124E+03</pdfrwt>
<totfact> 0.99705727E+02</totfact>
</mgrwt>
</event>
<event>
 4    1  0.7354369E-001  0.1842052E+03  0.7546771E-02  0.1163794E+00
         -1   -1    0    0    0  501 -0.00000000000E+00  0.00000000000E+00  0.65308289683E+02  0.65308289683E+02  0.00000000000E+00 0.  1.
          1   -1    0    0  502    0  0.00000000000E+00 -0.00000000000E+00 -0.51962979678E+03  0.51962979678E+03  0.00000000000E+00 0. -1.
          6    1    1    2  502    0 -0.37442314388E+02  0.50996203591E+02 -0.23056346970E+03  0.29511193342E+03  0.17300000000E+03 0. -1.
         -6    1    1    2    0  501  0.37442314388E+02 -0.50996203591E+02 -0.22375803741E+03  0.28982615305E+03  0.17300000000E+03 0.  1.
<mgrwt>
<rscale>  2 0.18420516E+03</rscale>
<asrwt>0</asrwt>
<pdfrwt beam="1">  1        1 0.79943041E-01 0.18420516E+03</pdfrwt>
<pdfrwt beam="2">  1       -1 0.10047430E-01 0.18420516E+03</pdfrwt>
<totfact> 0.25609855E+03</totfact>
</mgrwt>
</event>
<event>
 4    1  0.7354369E-001  0.2053703E+03  0.7546771E-02  0.1145286E+00
          2   -1    0    0  502    0  0.00000000000E+00  0.00000000000E+00  0.18340241331E+04  0.18340241331E+04  0.00000000000E+00 0.  1.
         -2   -1    0    0    0  501 -0.00000000000E+00 -0.00000000000E+00 -0.23120070545E+02  0.23120070545E+02  0.00000000000E+00 0. -1.
          6    1    1    2  502    0  0.11048125576E+03  0.64699431730E+01  0.97321303425E+03  0.99464595614E+03  0.17300000000E+03 0.  1.
         -6    1    1    2    0  501 -0.11048125576E+03 -0.64699431730E+01  0.83769102832E+03  0.86249824752E+03  0.17300000000E+03 0.  1.
<mgrwt>
<rscale>  2 0.20537032E+03</rscale>
<asrwt>0</asrwt>
<pdfrwt beam="1">  1        2 0.28215744E+00 0.20537032E+03</pdfrwt>
<pdfrwt beam="2">  1       -2 0.35569354E-02 0.20537032E+03</pdfrwt>
<totfact> 0.29807813E+03</totfact>
</mgrwt>
</event>
<event>
 4    1  0.7354369E-001  0.1827682E+03  0.7546771E-02  0.1165151E+00
         -2   -1    0    0    0  501 -0.00000000000E+00  0.00000000000E+00  0.35545566700E+02  0.35545566700E+02  0.00000000000E+00 0. -1.
          2   -1    0    0  502    0  0.00000000000E+00 -0.00000000000E+00 -0.96416391440E+03  0.96416391440E+03  0.00000000000E+00 0.  1.
          6    1    1    2  502    0 -0.17869780144E+02  0.56177280297E+02 -0.38478125333E+03  0.42598219303E+03  0.17300000000E+03 0. -1.
         -6    1    1    2    0  501  0.17869780144E+02 -0.56177280297E+02 -0.54383709437E+03  0.57372728807E+03  0.17300000000E+03 0.  1.
<mgrwt>
<rscale>  2 0.18276820E+03</rscale>
<asrwt>0</asrwt>
<pdfrwt beam="1">  1        2 0.14833290E+00 0.18276820E+03</pdfrwt>
<pdfrwt beam="2">  1       -2 0.54685491E-02 0.18276820E+03</pdfrwt>
<totfact> 0.46554213E+03</totfact>
</mgrwt>
</event>
<event>
 4    1  0.7354369E-001  0.1833024E+03  0.7546771E-02  0.1164645E+00
          1   -1    0    0  502    0  0.00000000000E+00  0.00000000000E+00  0.18809169620E+04  0.18809169620E+04  0.00000000000E+00 0. -1.
         -1   -1    0    0    0  501 -0.00000000000E+00 -0.00000000000E+00 -0.19450092979E+02  0.19450092979E+02  0.00000000000E+00 0.  1.
          6    1    1    2  502    0 -0.60511206004E+02  0.30266728987E+01  0.65935274820E+03  0.68435795704E+03  0.17300000000E+03 0. -1.
         -6    1    1    2    0  501  0.60511206004E+02 -0.30266728987E+01  0.12021141208E+04  0.12160090979E+04  0.17300000000E+03 0.  1.
<mgrwt>
<rscale>  2 0.18330239E+03</rscale>
<asrwt>0</asrwt>
<pdfrwt beam="1">  1        1 0.28937170E+00 0.18330239E+03</pdfrwt>
<pdfrwt beam="2">  1       -1 0.29923235E-02 0.18330239E+03</pdfrwt>
<totfact> 0.15329399E+03</totfact>
</mgrwt>
</event>
<event>
 4    1  0.7354369E-001  0.2100655E+03  0.7546771E-02  0.1141514E+00
          2   -1    0    0  502    0  0.00000000000E+00  0.00000000000E+00  0.12718011825E+04  0.12718011825E+04  0.00000000000E+00 0. -1.
         -2   -1    0    0    0  501 -0.00000000000E+00 -0.00000000000E+00 -0.60281263347E+02  0.60281263347E+02  0.00000000000E+00 0.  1.
          6    1    1    2  502    0  0.56755955739E+02 -0.10477252082E+03  0.10396678054E+04  0.10606774557E+04  0.17300000000E+03 0. -1.
         -6    1    1    2    0  501 -0.56755955739E+02  0.10477252082E+03  0.17185211376E+03  0.27140499007E+03  0.17300000000E+03 0.  1.
<mgrwt>
<rscale>  2 0.21006551E+03</rscale>
<asrwt>0</asrwt>
<pdfrwt beam="1">  1        2 0.19566170E+00 0.21006551E+03</pdfrwt>
<pdfrwt beam="2">  1       -2 0.92740414E-02 0.21006551E+03</pdfrwt>
<totfact> 0.13659091E+03</totfact>
</mgrwt>
</event>
<event>
 4    1  0.7354369E-001  0.1784056E+03  0.7546771E-02  0.1169355E+00
         -2   -1    0    0    0  501 -0.00000000000E+00  0.00000000000E+00  0.17292847843E+03  0.17292847843E+03  0.00000000000E+00 0.  1.
          2   -1    0    0  502    0  0.00000000000E+00 -0.00000000000E+00 -0.29376716333E+03  0.29376716333E+03  0.00000000000E+00 0. -1.
          6    1    1    2  502    0 -0.37578285312E+01  0.43421796494E+02  0.82183100786E+02  0.19642463120E+03  0.17300000000E+03 0.  1.
         -6    1    1    2    0  501  0.37578285312E+01 -0.43421796494E+02 -0.20302178569E+03  0.27027101056E+03  0.17300000000E+03 0. -1.
<mgrwt>
<rscale>  2 0.17840564E+03</rscale>
<asrwt>0</asrwt>
<pdfrwt beam="1">  1        2 0.45194948E-01 0.17840564E+03</pdfrwt>
<pdfrwt beam="2">  1       -2 0.26604382E-01 0.17840564E+03</pdfrwt>
<totfact> 0.14092409E+03</totfact>
</mgrwt>
</event>
<event>
 4    1  0.7354369E-001  0.1899098E+03  0.7546771E-02  0.1158543E+00
         -1   -1    0    0    0  501 -0.00000000000E+00  0.00000000000E+00  0.66235602766E+02  0.66235602766E+02  0.00000000000E+00 0.  1.
          1   -1    0    0  502    0  0.00000000000E+00 -0.00000000000E+00 -0.55552113382E+03  0.55552113382E+03  0.00000000000E+00 0. -1.
          6    1    1    2  502    0  0.26450814673E+02 -0.73736498153E+02 -0.20086787302E+03  0.27643013434E+03  0.17300000000E+03 0. -1.
         -6    1    1    2    0  501 -0.26450814673E+02  0.73736498153E+02 -0.28841765803E+03  0.34532660225E+03  0.17300000000E+03 0. -1.
<mgrwt>
<rscale>  2 0.18990976E+03</rscale>
<asrwt>0</asrwt>
<pdfrwt beam="1">  1        1 0.85464792E-01 0.18990976E+03</pdfrwt>
<pdfrwt beam="2">  1       -1 0.10190092E-01 0.18990976E+03</pdfrwt>
<totfact> 0.22934997E+03</totfact>
</mgrwt>
</event>
<event>
 4    1  0.7354369E-001  0.2207580E+03  0.7546771E-02  0.1133319E+00
         -2   -1    0    0    0  501 -0.00000000000E+00  0.00000000000E+00  0.11719419500E+03  0.11719419500E+03  0.00000000000E+00 0. -1.
          2   -1    0    0  502    0  0.00000000000E+00 -0.00000000000E+00 -0.42344158273E+03  0.42344158273E+03  0.00000000000E+00 0.  1.
          6    1    1    2  502    0  0.13690429177E+03  0.78933265120E+01 -0.18934102808E+03  0.29083348264E+03  0.17300000000E+03 0.  1.
         -6    1    1    2    0  501 -0.13690429177E+03 -0.78933265120E+01 -0.11690635965E+03  0.24980229510E+03  0.17300000000E+03 0. -1.
<mgrwt>
<rscale>  2 0.22075799E+03</rscale>
<asrwt>0</asrwt>
<pdfrwt beam="1">  1        2 0.65144858E-01 0.22075799E+03</pdfrwt>
<pdfrwt beam="2">  1       -2 0.18029877E-01 0.22075799E+03</pdfrwt>
<totfact> 0.18711674E+03</totfact>
</mgrwt>
</event>
<event>
 4    1  0.7354369E-001  0.2338447E+03  0.7546771E-02  0.1123963E+00
          2   -1    0    0  502    0  0.00000000000E+00  0.00000000000E+00  0.18570171643E+04  0.18570171643E+04  0.00000000000E+00 0. -1.
         -2   -1    0    0    0  501 -0.00000000000E+00 -0.00000000000E+00 -0.30611577393E+02  0.30611577393E+02  0.00000000000E+00 0.  1.
          6    1    1    2  502    0 -0.15680451059E+03  0.12911320952E+02  0.72910407329E+03  0.76568668947E+03  0.17300000000E+03 0.  1.
         -6    1    1    2    0  501  0.15680451059E+03 -0.12911320952E+02  0.10973015136E+04  0.11219420522E+04  0.17300000000E+03 0. -1.
<mgrwt>
<rscale>  2 0.23384473E+03</rscale>
<asrwt>0</asrwt>
<pdfrwt beam="1">  1        2 0.28569486E+00 0.23384473E+03</pdfrwt>
<pdfrwt beam="2">  1       -2 0.47094749E-02 0.23384473E+03</pdfrwt>
<totfact> 0.18986303E+03</totfact>
</mgrwt>
</event>
<event>
 4    1  0.7354369E-001  0.2400538E+03  0.7546771E-02  0.1119757E+00
         -2   -1    0    0    0  501 -0.00000000000E+00  0.00000000000E+00  0.56033609589E+02  0.56033609589E+02  0.00000000000E+00 0. -1.
          2   -1    0    0  502    0  0.00000000000E+00 -0.00000000000E+00 -0.15224263017E+04  0.15224263017E+04  0.00000000000E+00 0.  1.
          6    1    1    2  502    0 -0.16217221632E+03  0.37376477308E+02 -0.28361977137E+03  0.37157233954E+03  0.17300000000E+03 0. -1.
         -6    1    1    2    0  501  0.16217221632E+03 -0.37376477308E+02 -0.11827729207E+04  0.12068875718E+04  0.17300000000E+03 0.  1.
<mgrwt>
<rscale>  2 0.24005380E+03</rscale>
<asrwt>0</asrwt>
<pdfrwt beam="1">  1        2 0.23421944E+00 0.24005380E+03</pdfrwt>
<pdfrwt beam="2">  1       -2 0.86205551E-02 0.24005380E+03</pdfrwt>
<totfact> 0.11194910E+03</totfact>
</mgrwt>
</event>
<event>
 4    1  0.7354369E-001  0.2318989E+03  0.7546771E-02  0.1125310E+00
         -1   -1    0    0    0  501 -0.00000000000E+00  0.00000000000E+00  0.21337002035E+03  0.21337002035E+03  0.00000000000E+00 0. -1.
          1   -1    0    0  502    0  0.00000000000E+00 -0.00000000000E+00 -0.32158934953E+03  0.32158934953E+03  0.00000000000E+00 0.  1.
          6    1    1    2  502    0  0.12003032996E+03  0.97163966271E+02 -0.17850274396E+03  0.29264371863E+03  0.17300000000E+03 0.  1.
         -6    1    1    2    0  501 -0.12003032996E+03 -0.97163966271E+02  0.70283414778E+02  0.24231565126E+03  0.17300000000E+03 0.  1.
<mgrwt>
<rscale>  2 0.23189894E+03</rscale>
<asrwt>0</asrwt>
<pdfrwt beam="1">  1        1 0.49475284E-01 0.23189894E+03</pdfrwt>
<pdfrwt beam="2">  1       -1 0.32826157E-01 0.23189894E+03</pdfrwt>
<totfact> 0.70378921E+02</totfact>
</mgrwt>
</event>
<event>
 4    1  0.7354369E-001  0.1829294E+03  0.7546771E-02  0.1164998E+00
         -1   -1    0    0    0  501 -0.00000000000E+00  0.00000000000E+00  0.88683588255E+02  0.88683588255E+02  0.00000000000E+00 0.  1.
          1   -1    0    0  502    0  0.00000000000E+00 -0.00000000000E+00 -0.78115075307E+03  0.78115075307E+03  0.00000000000E+00 0. -1.
          6    1    1    2  502    0  0.51795382015E+02 -0.29178617558E+02 -0.33530341426E+02  0.18597698007E+03  0.17300000000E+03 0.  1.
         -6    1    1    2    0  501 -0.51795382015E+02  0.29178617558E+02 -0.65893682339E+03  0.68385736126E+03  0.17300000000E+03 0. -1.
<mgrwt>
<rscale>  2 0.18292937E+03</rscale>
<asrwt>0</asrwt>
<pdfrwt beam="1">  1        1 0.12017704E+00 0.18292937E+03</pdfrwt>
<pdfrwt beam="2">  1       -1 0.13643629E-01 0.18292937E+03</pdfrwt>
<totfact> 0.89756998E+02</totfact>
</mgrwt>
</event>
<event>
 4    1  0.7354369E-001  0.1879373E+03  0.7546771E-02  0.1160335E+00
          2   -1    0    0  502    0  0.00000000000E+00  0.00000000000E+00  0.36248767641E+04  0.36248767641E+04  0.00000000000E+00 0.  1.
         -2   -1    0    0    0  501 -0.00000000000E+00 -0.00000000000E+00 -0.19489556512E+02  0.19489556512E+02  0.00000000000E+00 0. -1.
          6    1    1    2  502    0 -0.56221190818E+02 -0.47229491296E+02  0.51415766379E+03  0.54742903684E+03  0.17300000000E+03 0. -1.
         -6    1    1    2    0  501  0.56221190818E+02  0.47229491296E+02  0.30912295438E+04  0.30969372838E+04  0.17300000000E+03 0.  1.
<mgrwt>
<rscale>  2 0.18793735E+03</rscale>
<asrwt>0</asrwt>
<pdfrwt beam="1">  1        2 0.55767281E+00 0.18793735E+03</pdfrwt>
<pdfrwt beam="2">  1       -2 0.29983962E-02 0.18793735E+03</pdfrwt>
<totfact> 0.36493875E+02</totfact>
</mgrwt>
</event>
<event>
 4    1  0.7354369E-001  0.1873511E+03  0.7546771E-02  0.1160872E+00
         -1   -1    0    0    0  501 -0.00000000000E+00  0.00000000000E+00  0.83855271395E+03  0.83855271395E+03  0.00000000000E+00 0.  1.
          1   -1    0    0  502    0  0.00000000000E+00 -0.00000000000E+00 -0.52052369070E+02  0.52052369070E+02  0.00000000000E+00 0. -1.
          6    1    1    2  502    0 -0.56179082674E+02  0.44892537125E+02  0.59031437504E+03  0.61933148684E+03  0.17300000000E+03 0.  1.
         -6    1    1    2    0  501  0.56179082674E+02 -0.44892537125E+02  0.19618596984E+03  0.27127359617E+03  0.17300000000E+03 0. -1.
<mgrwt>
<rscale>  2 0.18735109E+03</rscale>
<asrwt>0</asrwt>
<pdfrwt beam="1">  1        1 0.80080574E-02 0.18735109E+03</pdfrwt>
<pdfrwt beam="2">  1       -1 0.12900810E+00 0.18735109E+03</pdfrwt>
<totfact> 0.48144930E+02</totfact>
</mgrwt>
</event>
<event>
 4    1  0.7354369E-001  0.1871444E+03  0.7546771E-02  0.1161062E+00
         -2   -1    0    0    0  501 -0.00000000000E+00  0.00000000000E+00  0.93467441264E+02  0.93467441264E+02  0.00000000000E+00 0. -1.
          2   -1    0    0  502    0  0.00000000000E+00 -0.00000000000E+00 -0.74460913806E+03  0.74460913806E+03  0.00000000000E+00 0.  1.
          6    1    1    2  502    0  0.18457328249E+02  0.68944470986E+02 -0.62091764636E+03  0.64850731423E+03  0.17300000000E+03 0.  1.
         -6    1    1    2    0  501 -0.18457328249E+02 -0.68944470986E+02 -0.30224050440E+02  0.18956926510E+03  0.17300000000E+03 0. -1.
<mgrwt>
<rscale>  2 0.18714436E+03</rscale>
<asrwt>0</asrwt>
<pdfrwt beam="1">  1        2 0.11455526E+00 0.18714436E+03</pdfrwt>
<pdfrwt beam="2">  1       -2 0.14379606E-01 0.18714436E+03</pdfrwt>
<totfact> 0.14235556E+03</totfact>
</mgrwt>
</event>
<event>
 4    1  0.7354369E-001  0.3138293E+03  0.7546771E-02  0.1078525E+00
         -4   -1    0    0    0  501 -0.00000000000E+00  0.00000000000E+00  0.91793890204E+03  0.91793890204E+03  0.00000000000E+00 0. -1.
          4   -1    0    0  502    0  0.00000000000E+00 -0.00000000000E+00 -0.10849109934E+03  0.10849109934E+03  0.00000000000E+00 0.  1.
          6    1    1    2  502    0 -0.12927615607E+03 -0.22770049935E+03  0.45864579103E+03  0.55573807101E+03  0.17300000000E+03 0. -1.
         -6    1    1    2    0  501  0.12927615607E+03  0.22770049935E+03  0.35080201166E+03  0.47069193037E+03  0.17300000000E+03 0.  1.
<mgrwt>
<rscale>  2 0.31382932E+03</rscale>
<asrwt>0</asrwt>
<pdfrwt beam="1">  1        4 0.16690939E-01 0.31382932E+03</pdfrwt>
<pdfrwt beam="2">  1       -4 0.14122136E+00 0.31382932E+03</pdfrwt>
<totfact> 0.21333210E+01</totfact>
</mgrwt>
</event>
<event>
 4    1  0.7354369E-001  0.2138538E+03  0.7546771E-02  0.1138550E+00
         -1   -1    0    0    0  501 -0.00000000000E+00  0.00000000000E+00  0.87114278785E+03  0.87114278785E+03  0.00000000000E+00 0. -1.
          1   -1    0    0  502    0  0.00000000000E+00 -0.00000000000E+00 -0.68469517908E+02  0.68469517908E+02  0.00000000000E+00 0.  1.
          6    1    1    2  502    0  0.58649179225E+02  0.11119682318E+03  0.62823948574E+03  0.66364019705E+03  0.17300000000E+03 0. -1.
         -6    1    1    2    0  501 -0.58649179225E+02 -0.11119682318E+03  0.17443378421E+03  0.27597210870E+03  0.17300000000E+03 0.  1.
<mgrwt>
<rscale>  2 0.21385383E+03</rscale>
<asrwt>0</asrwt>
<pdfrwt beam="1">  1        1 0.10533773E-01 0.21385383E+03</pdfrwt>
<pdfrwt beam="2">  1       -1 0.13402196E+00 0.21385383E+03</pdfrwt>
<totfact> 0.30299396E+02</totfact>
</mgrwt>
</event>
<event>
 4    1  0.7354369E-001  0.2170382E+03  0.7546771E-02  0.1136111E+00
         -1   -1    0    0    0  501 -0.00000000000E+00  0.00000000000E+00  0.52033476947E+03  0.52033476947E+03  0.00000000000E+00 0.  1.
          1   -1    0    0  502    0  0.00000000000E+00 -0.00000000000E+00 -0.11649979146E+03  0.11649979146E+03  0.00000000000E+00 0. -1.
          6    1    1    2  502    0  0.12941830535E+03  0.20675555469E+02  0.51577818511E+02  0.22308260290E+03  0.17300000000E+03 0.  1.
         -6    1    1    2    0  501 -0.12941830535E+03 -0.20675555469E+02  0.35225715950E+03  0.41375195803E+03  0.17300000000E+03 0. -1.
<mgrwt>
<rscale>  2 0.21703819E+03</rscale>
<asrwt>0</asrwt>
<pdfrwt beam="1">  1        1 0.17923045E-01 0.21703819E+03</pdfrwt>
<pdfrwt beam="2">  1       -1 0.80051502E-01 0.21703819E+03</pdfrwt>
<totfact> 0.48150175E+02</totfact>
</mgrwt>
</event>
<event>
 4    1  0.7354369E-001  0.1846478E+03  0.7546771E-02  0.1163379E+00
         -1   -1    0    0    0  501 -0.00000000000E+00  0.00000000000E+00  0.14029652869E+03  0.14029652869E+03  0.00000000000E+00 0.  1.
          1   -1    0    0  502    0  0.00000000000E+00 -0.00000000000E+00 -0.27249177318E+03  0.27249177318E+03  0.00000000000E+00 0. -1.
          6    1    1    2  502    0 -0.57689202742E+02  0.28944159347E+02 -0.13397524960E+03  0.22813192670E+03  0.17300000000E+03 0. -1.
         -6    1    1    2    0  501  0.57689202742E+02 -0.28944159347E+02  0.17800051125E+01  0.18465637517E+03  0.17300000000E+03 0.  1.
<mgrwt>
<rscale>  2 0.18464780E+03</rscale>
<asrwt>0</asrwt>
<pdfrwt beam="1">  1        1 0.41921811E-01 0.18464780E+03</pdfrwt>
<pdfrwt beam="2">  1       -1 0.21584081E-01 0.18464780E+03</pdfrwt>
<totfact> 0.17419752E+03</totfact>
</mgrwt>
</event>
<event>
 4    1  0.7354369E-001  0.1753951E+03  0.7546771E-02  0.1172336E+00
          4   -1    0    0  502    0  0.00000000000E+00  0.00000000000E+00  0.12836487652E+03  0.12836487652E+03  0.00000000000E+00 0.  1.
         -4   -1    0    0    0  501 -0.00000000000E+00 -0.00000000000E+00 -0.30155338387E+03  0.30155338387E+03  0.00000000000E+00 0. -1.
          6    1    1    2  502    0 -0.10001038566E+02 -0.27100387597E+02 -0.18398302254E+03  0.25419127516E+03  0.17300000000E+03 0. -1.
         -6    1    1    2    0  501  0.10001038566E+02  0.27100387597E+02  0.10794515194E+02  0.17572698523E+03  0.17300000000E+03 0. -1.
<mgrwt>
<rscale>  2 0.17539513E+03</rscale>
<asrwt>0</asrwt>
<pdfrwt beam="1">  1        4 0.19748443E-01 0.17539513E+03</pdfrwt>
<pdfrwt beam="2">  1       -4 0.46392828E-01 0.17539513E+03</pdfrwt>
<totfact> 0.18178979E+02</totfact>
</mgrwt>
</event>
<event>
 4    1  0.7354369E-001  0.2624370E+03  0.7546771E-02  0.1105688E+00
         -2   -1    0    0    0  501 -0.00000000000E+00  0.00000000000E+00  0.23924300782E+02  0.23924300782E+02  0.00000000000E+00 0.  1.
          2   -1    0    0  502    0  0.00000000000E+00 -0.00000000000E+00 -0.35811670073E+04  0.35811670073E+04  0.00000000000E+00 0. -1.
          6    1    1    2  502    0  0.14252809263E+03 -0.13649139315E+03 -0.25769056413E+04  0.25902347078E+04  0.17300000000E+03 0. -1.
         -6    1    1    2    0  501 -0.14252809263E+03  0.13649139315E+03 -0.98033706524E+03  0.10148566002E+04  0.17300000000E+03 0.  1.
<mgrwt>
<rscale>  2 0.26243696E+03</rscale>
<asrwt>0</asrwt>
<pdfrwt beam="1">  1        2 0.55094853E+00 0.26243696E+03</pdfrwt>
<pdfrwt beam="2">  1       -2 0.36806633E-02 0.26243696E+03</pdfrwt>
<totfact> 0.27969490E+02</totfact>
</mgrwt>
</event>
<event>
 4    1  0.7354369E-001  0.1883060E+03  0.7546771E-02  0.1159998E+00
         -2   -1    0    0    0  501 -0.00000000000E+00  0.00000000000E+00  0.54180308837E+02  0.54180308837E+02  0.00000000000E+00 0. -1.
          2   -1    0    0  502    0  0.00000000000E+00 -0.00000000000E+00 -0.68107693920E+03  0.68107693920E+03  0.00000000000E+00 0.  1.
          6    1    1    2  502    0  0.48942918987E+02 -0.55988857359E+02 -0.38611621652E+03  0.42958688775E+03  0.17300000000E+03 0.  1.
         -6    1    1    2    0  501 -0.48942918987E+02  0.55988857359E+02 -0.24078041384E+03  0.30567036029E+03  0.17300000000E+03 0. -1.
<mgrwt>
<rscale>  2 0.18830603E+03</rscale>
<asrwt>0</asrwt>
<pdfrwt beam="1">  1        2 0.10478107E+00 0.18830603E+03</pdfrwt>
<pdfrwt beam="2">  1       -2 0.83354318E-02 0.18830603E+03</pdfrwt>
<totfact> 0.37886901E+03</totfact>
</mgrwt>
</event>
<event>
 4    1  0.7354369E-001  0.2204418E+03  0.7546771E-02  0.1133554E+00
         -1   -1    0    0    0  501 -0.00000000000E+00  0.00000000000E+00  0.94377990214E+02  0.94377990214E+02  0.00000000000E+00 0. -1.
          1   -1    0    0  502    0  0.00000000000E+00 -0.00000000000E+00 -0.80398476680E+03  0.80398476680E+03  0.00000000000E+00 0.  1.
          6    1    1    2  502    0 -0.77909629705E+02  0.11223037913E+03 -0.85454194358E+02  0.23642543800E+03  0.17300000000E+03 0. -1.
         -6    1    1    2    0  501  0.77909629705E+02 -0.11223037913E+03 -0.62415258223E+03  0.66193731902E+03  0.17300000000E+03 0.  1.
<mgrwt>
<rscale>  2 0.22044176E+03</rscale>
<asrwt>0</asrwt>
<pdfrwt beam="1">  1        1 0.12368996E+00 0.22044176E+03</pdfrwt>
<pdfrwt beam="2">  1       -1 0.14519691E-01 0.22044176E+03</pdfrwt>
<totfact> 0.77797757E+02</totfact>
</mgrwt>
</event>
<event>
 4    1  0.7354369E-001  0.1884087E+03  0.7546771E-02  0.1159904E+00
          2   -1    0    0  502    0  0.00000000000E+00  0.00000000000E+00  0.20242329968E+03  0.20242329968E+03  0.00000000000E+00 0. -1.
         -2   -1    0    0    0  501 -0.00000000000E+00 -0.00000000000E+00 -0.23835865936E+03  0.23835865936E+03  0.00000000000E+00 0.  1.
          6    1    1    2  502    0 -0.57911950936E+02 -0.47064123537E+02  0.95332105138E+02  0.21115405763E+03  0.17300000000E+03 0. -1.
         -6    1    1    2    0  501  0.57911950936E+02  0.47064123537E+02 -0.13126746482E+03  0.22962790141E+03  0.17300000000E+03 0.  1.
<mgrwt>
<rscale>  2 0.18840867E+03</rscale>
<asrwt>0</asrwt>
<pdfrwt beam="1">  1        2 0.31142046E-01 0.18840867E+03</pdfrwt>
<pdfrwt beam="2">  1       -2 0.36670563E-01 0.18840867E+03</pdfrwt>
<totfact> 0.11745193E+03</totfact>
</mgrwt>
</event>
<event>
 4    1  0.7354369E-001  0.2329349E+03  0.7546771E-02  0.1124591E+00
          2   -1    0    0  502    0  0.00000000000E+00  0.00000000000E+00  0.13069006328E+04  0.13069006328E+04  0.00000000000E+00 0.  1.
         -2   -1    0    0    0  501 -0.00000000000E+00 -0.00000000000E+00 -0.53366525768E+02  0.53366525768E+02  0.00000000000E+00 0. -1.
          6    1    1    2  502    0  0.15560112657E+03  0.10861314294E+02  0.94725303871E+03  0.97547270494E+03  0.17300000000E+03 0.  1.
         -6    1    1    2    0  501 -0.15560112657E+03 -0.10861314294E+02  0.30628106836E+03  0.38479445367E+03  0.17300000000E+03 0. -1.
<mgrwt>
<rscale>  2 0.23293492E+03</rscale>
<asrwt>0</asrwt>
<pdfrwt beam="1">  1        2 0.20106161E+00 0.23293492E+03</pdfrwt>
<pdfrwt beam="2">  1       -2 0.82102357E-02 0.23293492E+03</pdfrwt>
<totfact> 0.15810630E+03</totfact>
</mgrwt>
</event>
<event>
 4    1  0.7354369E-001  0.3012981E+03  0.7546771E-02  0.1084593E+00
          2   -1    0    0  502    0  0.00000000000E+00  0.00000000000E+00  0.31667613284E+03  0.31667613284E+03  0.00000000000E+00 0.  1.
         -2   -1    0    0    0  501 -0.00000000000E+00 -0.00000000000E+00 -0.29508003890E+03  0.29508003890E+03  0.00000000000E+00 0. -1.
          6    1    1    2  502    0  0.20524239823E+03  0.13684706853E+03  0.62446549083E+02  0.30770137096E+03  0.17300000000E+03 0.  1.
         -6    1    1    2    0  501 -0.20524239823E+03 -0.13684706853E+03 -0.40850455138E+02  0.30405480079E+03  0.17300000000E+03 0. -1.
<mgrwt>
<rscale>  2 0.30129813E+03</rscale>
<asrwt>0</asrwt>
<pdfrwt beam="1">  1        2 0.48719405E-01 0.30129813E+03</pdfrwt>
<pdfrwt beam="2">  1       -2 0.45396929E-01 0.30129813E+03</pdfrwt>
<totfact> 0.48193380E+02</totfact>
</mgrwt>
</event>
<event>
 4    1  0.7354369E-001  0.1890057E+03  0.7546771E-02  0.1159361E+00
         -2   -1    0    0    0  501 -0.00000000000E+00  0.00000000000E+00  0.10178267115E+03  0.10178267115E+03  0.00000000000E+00 0. -1.
          2   -1    0    0  502    0  0.00000000000E+00 -0.00000000000E+00 -0.44853435997E+03  0.44853435997E+03  0.00000000000E+00 0.  1.
          6    1    1    2  502    0 -0.73038460634E+02  0.21437138656E+02 -0.45048358061E+02  0.19430008289E+03  0.17300000000E+03 0. -1.
         -6    1    1    2    0  501  0.73038460634E+02 -0.21437138656E+02 -0.30170333076E+03  0.35601694824E+03  0.17300000000E+03 0.  1.
<mgrwt>
<rscale>  2 0.18900573E+03</rscale>
<asrwt>0</asrwt>
<pdfrwt beam="1">  1        2 0.69005286E-01 0.18900573E+03</pdfrwt>
<pdfrwt beam="2">  1       -2 0.15658872E-01 0.18900573E+03</pdfrwt>
<totfact> 0.22150421E+03</totfact>
</mgrwt>
</event>
<event>
 4    1  0.7354369E-001  0.1869570E+03  0.7546771E-02  0.1161235E+00
         -1   -1    0    0    0  501 -0.00000000000E+00  0.00000000000E+00  0.23356960688E+03  0.23356960688E+03  0.00000000000E+00 0.  1.
          1   -1    0    0  502    0  0.00000000000E+00 -0.00000000000E+00 -0.17845886024E+03  0.17845886024E+03  0.00000000000E+00 0. -1.
          6    1    1    2  502    0  0.38603366950E+02  0.59444855088E+02  0.11033365514E+03  0.21708621834E+03  0.17300000000E+03 0.  1.
         -6    1    1    2    0  501 -0.38603366950E+02 -0.59444855088E+02 -0.55222908497E+02  0.19494224878E+03  0.17300000000E+03 0.  1.
<mgrwt>
<rscale>  2 0.18695698E+03</rscale>
<asrwt>0</asrwt>
<pdfrwt beam="1">  1        1 0.27455209E-01 0.18695698E+03</pdfrwt>
<pdfrwt beam="2">  1       -1 0.35933786E-01 0.18695698E+03</pdfrwt>
<totfact> 0.12577913E+03</totfact>
</mgrwt>
</event>
<event>
 4    1  0.7354369E-001  0.2194565E+03  0.7546771E-02  0.1134289E+00
         -1   -1    0    0    0  501 -0.00000000000E+00  0.00000000000E+00  0.39814962327E+02  0.39814962327E+02  0.00000000000E+00 0.  1.
          1   -1    0    0  502    0  0.00000000000E+00 -0.00000000000E+00 -0.12962401730E+04  0.12962401730E+04  0.00000000000E+00 0. -1.
          6    1    1    2  502    0  0.13380346208E+03 -0.18131948088E+02 -0.80089622411E+03  0.83041910852E+03  0.17300000000E+03 0. -1.
         -6    1    1    2    0  501 -0.13380346208E+03  0.18131948088E+02 -0.45552898657E+03  0.50563602681E+03  0.17300000000E+03 0.  1.
<mgrwt>
<rscale>  2 0.21945645E+03</rscale>
<asrwt>0</asrwt>
<pdfrwt beam="1">  1        1 0.19942157E+00 0.21945645E+03</pdfrwt>
<pdfrwt beam="2">  1       -1 0.61253787E-02 0.21945645E+03</pdfrwt>
<totfact> 0.12740696E+03</totfact>
</mgrwt>
</event>
<event>
 4    1  0.7354369E-001  0.3520872E+03  0.7546771E-02  0.1061762E+00
         -1   -1    0    0    0  501 -0.00000000000E+00  0.00000000000E+00  0.13540725371E+03  0.13540725371E+03  0.00000000000E+00 0.  1.
          1   -1    0    0  502    0  0.00000000000E+00 -0.00000000000E+00 -0.15974103982E+04  0.15974103982E+04  0.00000000000E+00 0. -1.
          6    1    1    2  502    0 -0.29271432776E+03 -0.91404120828E+02 -0.16492112737E+03  0.38879862298E+03  0.17300000000E+03 0.  1.
         -6    1    1    2    0  501  0.29271432776E+03  0.91404120828E+02 -0.12970820172E+04  0.13440190290E+04  0.17300000000E+03 0. -1.
<mgrwt>
<rscale>  2 0.35208719E+03</rscale>
<asrwt>0</asrwt>
<pdfrwt beam="1">  1        1 0.24575544E+00 0.35208719E+03</pdfrwt>
<pdfrwt beam="2">  1       -1 0.20831886E-01 0.35208719E+03</pdfrwt>
<totfact> 0.11526483E+02</totfact>
</mgrwt>
</event>
<event>
 4    1  0.7354369E-001  0.2644197E+03  0.7546771E-02  0.1104516E+00
         -2   -1    0    0    0  501 -0.00000000000E+00  0.00000000000E+00  0.39417937270E+02  0.39417937270E+02  0.00000000000E+00 0. -1.
          2   -1    0    0  502    0  0.00000000000E+00 -0.00000000000E+00 -0.19315911590E+04  0.19315911590E+04  0.00000000000E+00 0.  1.
          6    1    1    2  502    0 -0.18647003520E+03  0.72233756405E+02 -0.66437589751E+03  0.71506162167E+03  0.17300000000E+03 0. -1.
         -6    1    1    2    0  501  0.18647003520E+03 -0.72233756405E+02 -0.12277973242E+04  0.12559474746E+04  0.17300000000E+03 0.  1.
<mgrwt>
<rscale>  2 0.26441972E+03</rscale>
<asrwt>0</asrwt>
<pdfrwt beam="1">  1        2 0.29716779E+00 0.26441972E+03</pdfrwt>
<pdfrwt beam="2">  1       -2 0.60642997E-02 0.26441972E+03</pdfrwt>
<totfact> 0.11760698E+03</totfact>
</mgrwt>
</event>
<event>
 4    1  0.7354369E-001  0.1850003E+03  0.7546771E-02  0.1163050E+00
         -2   -1    0    0    0  501 -0.00000000000E+00  0.00000000000E+00  0.61323137388E+02  0.61323137388E+02  0.00000000000E+00 0.  1.
          2   -1    0    0  502    0  0.00000000000E+00 -0.00000000000E+00 -0.12832201799E+04  0.12832201799E+04  0.00000000000E+00 0. -1.
          6    1    1    2  502    0 -0.48081783806E+02  0.44545109024E+02 -0.11163027210E+04  0.11315285633E+04  0.17300000000E+03 0. -1.
         -6    1    1    2    0  501  0.48081783806E+02 -0.44545109024E+02 -0.10559432149E+03  0.21301475396E+03  0.17300000000E+03 0.  1.
<mgrwt>
<rscale>  2 0.18500034E+03</rscale>
<asrwt>0</asrwt>
<pdfrwt beam="1">  1        2 0.19741847E+00 0.18500034E+03</pdfrwt>
<pdfrwt beam="2">  1       -2 0.94343299E-02 0.18500034E+03</pdfrwt>
<totfact> 0.13115617E+03</totfact>
</mgrwt>
</event>
<event>
 4    1  0.7354369E-001  0.4303261E+03  0.7546771E-02  0.1033757E+00
         -2   -1    0    0    0  501 -0.00000000000E+00  0.00000000000E+00  0.38918200767E+03  0.38918200767E+03  0.00000000000E+00 0. -1.
          2   -1    0    0  502    0  0.00000000000E+00 -0.00000000000E+00 -0.11557469169E+04  0.11557469169E+04  0.00000000000E+00 0.  1.
          6    1    1    2  502    0  0.30591477747E+03 -0.24832973921E+03  0.20920384639E+03  0.47848381351E+03  0.17300000000E+03 0. -1.
         -6    1    1    2    0  501 -0.30591477747E+03  0.24832973921E+03 -0.97576875560E+03  0.10664451110E+04  0.17300000000E+03 0.  1.
<mgrwt>
<rscale>  2 0.43032605E+03</rscale>
<asrwt>0</asrwt>
<pdfrwt beam="1">  1        2 0.17780722E+00 0.43032605E+03</pdfrwt>
<pdfrwt beam="2">  1       -2 0.59874156E-01 0.43032605E+03</pdfrwt>
<totfact> 0.55355338E+01</totfact>
</mgrwt>
</event>
<event>
 4    1  0.7354369E-001  0.2540737E+03  0.7546771E-02  0.1110757E+00
         -1   -1    0    0    0  501 -0.00000000000E+00  0.00000000000E+00  0.18723320986E+02  0.18723320986E+02  0.00000000000E+00 0.  1.
          1   -1    0    0  502    0  0.00000000000E+00 -0.00000000000E+00 -0.34877854850E+04  0.34877854850E+04  0.00000000000E+00 0. -1.
          6    1    1    2  502    0  0.18507770556E+03  0.19253684690E+02 -0.15467056076E+04  0.15674347509E+04  0.17300000000E+03 0.  1.
         -6    1    1    2    0  501 -0.18507770556E+03 -0.19253684690E+02 -0.19223565564E+04  0.19390740551E+04  0.17300000000E+03 0. -1.
<mgrwt>
<rscale>  2 0.25407373E+03</rscale>
<asrwt>0</asrwt>
<pdfrwt beam="1">  1        1 0.53658194E+00 0.25407373E+03</pdfrwt>
<pdfrwt beam="2">  1       -1 0.28805133E-02 0.25407373E+03</pdfrwt>
<totfact> 0.12898271E+02</totfact>
</mgrwt>
</event>
<event>
 4    1  0.7354369E-001  0.1738876E+03  0.7546771E-02  0.1173853E+00
         -1   -1    0    0    0  501 -0.00000000000E+00  0.00000000000E+00  0.82517131869E+02  0.82517131869E+02  0.00000000000E+00 0.  1.
          1   -1    0    0  502    0  0.00000000000E+00 -0.00000000000E+00 -0.42387940079E+03  0.42387940079E+03  0.00000000000E+00 0. -1.
          6    1    1    2  502    0  0.13015725041E+02 -0.11767569652E+02 -0.77468180865E+02  0.19036334689E+03  0.17300000000E+03 0.  1.
         -6    1    1    2    0  501 -0.13015725041E+02  0.11767569652E+02 -0.26389408806E+03  0.31603318576E+03  0.17300000000E+03 0. -1.
<mgrwt>
<rscale>  2 0.17388756E+03</rscale>
<asrwt>0</asrwt>
<pdfrwt beam="1">  1        1 0.65212215E-01 0.17388756E+03</pdfrwt>
<pdfrwt beam="2">  1       -1 0.12694944E-01 0.17388756E+03</pdfrwt>
<totfact> 0.23208082E+03</totfact>
</mgrwt>
</event>
<event>
 4    1  0.7354369E-001  0.2538072E+03  0.7546771E-02  0.1110922E+00
          1   -1    0    0  502    0  0.00000000000E+00  0.00000000000E+00  0.21100407007E+03  0.21100407007E+03  0.00000000000E+00 0. -1.
         -1   -1    0    0    0  501 -0.00000000000E+00 -0.00000000000E+00 -0.63075540103E+03  0.63075540103E+03  0.00000000000E+00 0.  1.
          6    1    1    2  502    0  0.14795613929E+03 -0.11224105015E+03  0.92452018441E+02  0.27012117319E+03  0.17300000000E+03 0. -1.
         -6    1    1    2    0  501 -0.14795613929E+03  0.11224105015E+03 -0.51220334941E+03  0.57163829791E+03  0.17300000000E+03 0.  1.
<mgrwt>
<rscale>  2 0.25380716E+03</rscale>
<asrwt>0</asrwt>
<pdfrwt beam="1">  1        1 0.32462165E-01 0.25380716E+03</pdfrwt>
<pdfrwt beam="2">  1       -1 0.97039291E-01 0.25380716E+03</pdfrwt>
<totfact> 0.14905721E+02</totfact>
</mgrwt>
</event>
<event>
 4    1  0.7354369E-001  0.2196729E+03  0.7546771E-02  0.1134127E+00
         -2   -1    0    0    0  501 -0.00000000000E+00  0.00000000000E+00  0.77368671190E+02  0.77368671190E+02  0.00000000000E+00 0.  1.
          2   -1    0    0  502    0  0.00000000000E+00 -0.00000000000E+00 -0.62383400409E+03  0.62383400409E+03  0.00000000000E+00 0. -1.
          6    1    1    2  502    0 -0.10592402442E+03  0.84304670263E+02 -0.26843668071E+03  0.34686370224E+03  0.17300000000E+03 0.  1.
         -6    1    1    2    0  501  0.10592402442E+03 -0.84304670263E+02 -0.27802865219E+03  0.35433897304E+03  0.17300000000E+03 0.  1.
<mgrwt>
<rscale>  2 0.21967288E+03</rscale>
<asrwt>0</asrwt>
<pdfrwt beam="1">  1        2 0.95974462E-01 0.21967288E+03</pdfrwt>
<pdfrwt beam="2">  1       -2 0.11902873E-01 0.21967288E+03</pdfrwt>
<totfact> 0.23985380E+03</totfact>
</mgrwt>
</event>
<event>
 4    1  0.7354369E-001  0.1920742E+03  0.7546771E-02  0.1156604E+00
          1   -1    0    0  502    0  0.00000000000E+00  0.00000000000E+00  0.38606946794E+03  0.38606946794E+03  0.00000000000E+00 0.  1.
         -1   -1    0    0    0  501 -0.00000000000E+00 -0.00000000000E+00 -0.11563619757E+03  0.11563619757E+03  0.00000000000E+00 0. -1.
          6    1    1    2  502    0 -0.82338661963E+02  0.13558208852E+02  0.23974201394E+03  0.30719491130E+03  0.17300000000E+03 0.  1.
         -6    1    1    2    0  501  0.82338661963E+02 -0.13558208852E+02  0.30691256425E+02  0.19451075421E+03  0.17300000000E+03 0. -1.
<mgrwt>
<rscale>  2 0.19207415E+03</rscale>
<asrwt>0</asrwt>
<pdfrwt beam="1">  1        1 0.59395302E-01 0.19207415E+03</pdfrwt>
<pdfrwt beam="2">  1       -1 0.17790184E-01 0.19207415E+03</pdfrwt>
<totfact> 0.15382130E+03</totfact>
</mgrwt>
</event>
<event>
 4    1  0.7354369E-001  0.1882150E+03  0.7546771E-02  0.1160081E+00
         -2   -1    0    0    0  501 -0.00000000000E+00  0.00000000000E+00  0.31802618389E+02  0.31802618389E+02  0.00000000000E+00 0. -1.
          2   -1    0    0  502    0  0.00000000000E+00 -0.00000000000E+00 -0.12408916477E+04  0.12408916477E+04  0.00000000000E+00 0.  1.
          6    1    1    2  502    0 -0.70908625655E+02 -0.21630079947E+02 -0.80811605185E+03  0.82974480824E+03  0.17300000000E+03 0.  1.
         -6    1    1    2    0  501  0.70908625655E+02  0.21630079947E+02 -0.40097297745E+03  0.44294945784E+03  0.17300000000E+03 0. -1.
<mgrwt>
<rscale>  2 0.18821502E+03</rscale>
<asrwt>0</asrwt>
<pdfrwt beam="1">  1        2 0.19090645E+00 0.18821502E+03</pdfrwt>
<pdfrwt beam="2">  1       -2 0.48927094E-02 0.18821502E+03</pdfrwt>
<totfact> 0.38068852E+03</totfact>
</mgrwt>
</event>
<event>
 4    1  0.7354369E-001  0.5368943E+03  0.7546771E-02  0.1004574E+00
         -2   -1    0    0    0  501 -0.00000000000E+00  0.00000000000E+00  0.16084277727E+03  0.16084277727E+03  0.00000000000E+00 0.  1.
          2   -1    0    0  502    0  0.00000000000E+00 -0.00000000000E+00 -0.22065903097E+04  0.22065903097E+04  0.00000000000E+00 0. -1.
          6    1    1    2  502    0  0.39431603533E+03  0.32068890561E+03 -0.15358700142E+04  0.16270071329E+04  0.17300000000E+03 0. -1.
         -6    1    1    2    0  501 -0.39431603533E+03 -0.32068890561E+03 -0.50987751826E+03  0.74042595412E+03  0.17300000000E+03 0.  1.
<mgrwt>
<rscale>  2 0.53689432E+03</rscale>
<asrwt>0</asrwt>
<pdfrwt beam="1">  1        2 0.33947542E+00 0.53689432E+03</pdfrwt>
<pdfrwt beam="2">  1       -2 0.24745044E-01 0.53689432E+03</pdfrwt>
<totfact> 0.79426673E+01</totfact>
</mgrwt>
</event>
<event>
 4    1  0.7354369E-001  0.1823013E+03  0.7546771E-02  0.1165594E+00
          1   -1    0    0  502    0  0.00000000000E+00  0.00000000000E+00  0.53030824872E+02  0.53030824872E+02  0.00000000000E+00 0.  1.
         -1   -1    0    0    0  501 -0.00000000000E+00 -0.00000000000E+00 -0.74033876098E+03  0.74033876098E+03  0.00000000000E+00 0. -1.
          6    1    1    2  502    0  0.45771270866E+02 -0.34781434682E+02 -0.18823022928E+03  0.26203888385E+03  0.17300000000E+03 0.  1.
         -6    1    1    2    0  501 -0.45771270866E+02  0.34781434682E+02 -0.49907770683E+03  0.53133070200E+03  0.17300000000E+03 0. -1.
<mgrwt>
<rscale>  2 0.18230128E+03</rscale>
<asrwt>0</asrwt>
<pdfrwt beam="1">  1        1 0.81585891E-02 0.18230128E+03</pdfrwt>
<pdfrwt beam="2">  1       -1 0.11389826E+00 0.18230128E+03</pdfrwt>
<totfact> 0.63117337E+02</totfact>
</mgrwt>
</event>
<event>
 4    1  0.7354369E-001  0.2018011E+03  0.7546771E-02  0.1148228E+00
         -2   -1    0    0    0  501 -0.00000000000E+00  0.00000000000E+00  0.43158107027E+02  0.43158107027E+02  0.00000000000E+00 0. -1.
          2   -1    0    0  502    0  0.00000000000E+00 -0.00000000000E+00 -0.95533043199E+03  0.95533043199E+03  0.00000000000E+00 0.  1.
          6    1    1    2  502    0 -0.75834875086E+02  0.71019291004E+02 -0.40074716646E+03  0.44868915676E+03  0.17300000000E+03 0. -1.
         -6    1    1    2    0  501  0.75834875086E+02 -0.71019291004E+02 -0.51142515851E+03  0.54979938226E+03  0.17300000000E+03 0.  1.
<mgrwt>
<rscale>  2 0.20180106E+03</rscale>
<asrwt>0</asrwt>
<pdfrwt beam="1">  1        2 0.14697390E+00 0.20180106E+03</pdfrwt>
<pdfrwt beam="2">  1       -2 0.66397094E-02 0.20180106E+03</pdfrwt>
<totfact> 0.35130572E+03</totfact>
</mgrwt>
</event>
<event>
 4    1  0.7354369E-001  0.2207646E+03  0.7546771E-02  0.1133314E+00
          2   -1    0    0  502    0  0.00000000000E+00  0.00000000000E+00  0.30166948322E+04  0.30166948322E+04  0.00000000000E+00 0. -1.
         -2   -1    0    0    0  501 -0.00000000000E+00 -0.00000000000E+00 -0.18465581476E+02  0.18465581476E+02  0.00000000000E+00 0.  1.
          6    1    1    2  502    0 -0.13706433428E+03 -0.46234499848E+01  0.96238070147E+03  0.98737714303E+03  0.17300000000E+03 0.  1.
         -6    1    1    2    0  501  0.13706433428E+03  0.46234499848E+01  0.20358485492E+04  0.20477832706E+04  0.17300000000E+03 0. -1.
<mgrwt>
<rscale>  2 0.22076460E+03</rscale>
<asrwt>0</asrwt>
<pdfrwt beam="1">  1        2 0.46410651E+00 0.22076460E+03</pdfrwt>
<pdfrwt beam="2">  1       -2 0.28408611E-02 0.22076460E+03</pdfrwt>
<totfact> 0.94524404E+02</totfact>
</mgrwt>
</event>
<event>
 4    1  0.7354369E-001  0.2208660E+03  0.7546771E-02  0.1133239E+00
         -1   -1    0    0    0  501 -0.00000000000E+00  0.00000000000E+00  0.48665935784E+03  0.48665935784E+03  0.00000000000E+00 0.  1.
          1   -1    0    0  502    0  0.00000000000E+00 -0.00000000000E+00 -0.10195371290E+03  0.10195371290E+03  0.00000000000E+00 0. -1.
          6    1    1    2  502    0 -0.12676771399E+03  0.52751632926E+02  0.15417478747E+03  0.26935414082E+03  0.17300000000E+03 0. -1.
         -6    1    1    2    0  501  0.12676771399E+03 -0.52751632926E+02  0.23053085747E+03  0.31925892992E+03  0.17300000000E+03 0.  1.
<mgrwt>
<rscale>  2 0.22086600E+03</rscale>
<asrwt>0</asrwt>
<pdfrwt beam="1">  1        1 0.15685187E-01 0.22086600E+03</pdfrwt>
<pdfrwt beam="2">  1       -1 0.74870669E-01 0.22086600E+03</pdfrwt>
<totfact> 0.65712445E+02</totfact>
</mgrwt>
</event>
<event>
 4    1  0.7354369E-001  0.1822429E+03  0.7546771E-02  0.1165650E+00
         -1   -1    0    0    0  501 -0.00000000000E+00  0.00000000000E+00  0.17779962617E+02  0.17779962617E+02  0.00000000000E+00 0.  1.
          1   -1    0    0  502    0  0.00000000000E+00 -0.00000000000E+00 -0.20568447828E+04  0.20568447828E+04  0.00000000000E+00 0. -1.
          6    1    1    2  502    0 -0.39294119261E+02 -0.41706679606E+02 -0.70519699112E+03  0.72836479268E+03  0.17300000000E+03 0.  1.
         -6    1    1    2    0  501  0.39294119261E+02  0.41706679606E+02 -0.13338678291E+04  0.13462599528E+04  0.17300000000E+03 0. -1.
<mgrwt>
<rscale>  2 0.18224290E+03</rscale>
<asrwt>0</asrwt>
<pdfrwt beam="1">  1        1 0.31643763E+00 0.18224290E+03</pdfrwt>
<pdfrwt beam="2">  1       -1 0.27353791E-02 0.18224290E+03</pdfrwt>
<totfact> 0.13482390E+03</totfact>
</mgrwt>
</event>
<event>
 4    1  0.7354369E-001  0.1829454E+03  0.7546771E-02  0.1164982E+00
          1   -1    0    0  502    0  0.00000000000E+00  0.00000000000E+00  0.32151010217E+03  0.32151010217E+03  0.00000000000E+00 0.  1.
         -1   -1    0    0    0  501 -0.00000000000E+00 -0.00000000000E+00 -0.14925944756E+03  0.14925944756E+03  0.00000000000E+00 0. -1.
          6    1    1    2  502    0  0.57782642579E+02 -0.14184591128E+02  0.21559982501E+03  0.28275841447E+03  0.17300000000E+03 0.  1.
         -6    1    1    2    0  501 -0.57782642579E+02  0.14184591128E+02 -0.43349170396E+02  0.18801113526E+03  0.17300000000E+03 0. -1.
<mgrwt>
<rscale>  2 0.18294545E+03</rscale>
<asrwt>0</asrwt>
<pdfrwt beam="1">  1        1 0.49463093E-01 0.18294545E+03</pdfrwt>
<pdfrwt beam="2">  1       -1 0.22962992E-01 0.18294545E+03</pdfrwt>
<totfact> 0.12800333E+03</totfact>
</mgrwt>
</event>
<event>
 4    1  0.7354369E-001  0.3111774E+03  0.7546771E-02  0.1079783E+00
          2   -1    0    0  502    0  0.00000000000E+00  0.00000000000E+00  0.15528655367E+04  0.15528655367E+04  0.00000000000E+00 0. -1.
         -2   -1    0    0    0  501 -0.00000000000E+00 -0.00000000000E+00 -0.91244735712E+02  0.91244735712E+02  0.00000000000E+00 0.  1.
          6    1    1    2  502    0  0.25684137585E+03  0.30576035616E+02  0.26826226388E+03  0.41084793844E+03  0.17300000000E+03 0.  1.
         -6    1    1    2    0  501 -0.25684137585E+03 -0.30576035616E+02  0.11933585371E+04  0.12332623340E+04  0.17300000000E+03 0. -1.
<mgrwt>
<rscale>  2 0.31117742E+03</rscale>
<asrwt>0</asrwt>
<pdfrwt beam="1">  1        2 0.23890237E+00 0.31117742E+03</pdfrwt>
<pdfrwt beam="2">  1       -2 0.14037653E-01 0.31117742E+03</pdfrwt>
<totfact> 0.48797731E+02</totfact>
</mgrwt>
</event>
<event>
 4    1  0.7354369E-001  0.2150950E+03  0.7546771E-02  0.1137594E+00
         -2   -1    0    0    0  501 -0.00000000000E+00  0.00000000000E+00  0.59581979999E+02  0.59581979999E+02  0.00000000000E+00 0. -1.
          2   -1    0    0  502    0  0.00000000000E+00 -0.00000000000E+00 -0.78898511576E+03  0.78898511576E+03  0.00000000000E+00 0.  1.
          6    1    1    2  502    0  0.66312574856E+02  0.10926808772E+03 -0.31134569106E+03  0.37842041689E+03  0.17300000000E+03 0.  1.
         -6    1    1    2    0  501 -0.66312574856E+02 -0.10926808772E+03 -0.41805744470E+03  0.47014667887E+03  0.17300000000E+03 0. -1.
<mgrwt>
<rscale>  2 0.21509503E+03</rscale>
<asrwt>0</asrwt>
<pdfrwt beam="1">  1        2 0.12138231E+00 0.21509503E+03</pdfrwt>
<pdfrwt beam="2">  1       -2 0.91664594E-02 0.21509503E+03</pdfrwt>
<totfact> 0.27354014E+03</totfact>
</mgrwt>
</event>
<event>
 4    1  0.7354369E-001  0.1770852E+03  0.7546771E-02  0.1170654E+00
          2   -1    0    0  502    0  0.00000000000E+00  0.00000000000E+00  0.75103020490E+02  0.75103020490E+02  0.00000000000E+00 0. -1.
         -2   -1    0    0    0  501 -0.00000000000E+00 -0.00000000000E+00 -0.41758169596E+03  0.41758169596E+03  0.00000000000E+00 0.  1.
          6    1    1    2  502    0  0.34202881883E+02  0.16135153116E+02 -0.17342392305E+03  0.24786092347E+03  0.17300000000E+03 0.  1.
         -6    1    1    2    0  501 -0.34202881883E+02 -0.16135153116E+02 -0.16905475242E+03  0.24482379298E+03  0.17300000000E+03 0.  1.
<mgrwt>
<rscale>  2 0.17708523E+03</rscale>
<asrwt>0</asrwt>
<pdfrwt beam="1">  1        2 0.11554311E-01 0.17708523E+03</pdfrwt>
<pdfrwt beam="2">  1       -2 0.64243339E-01 0.17708523E+03</pdfrwt>
<totfact> 0.12080554E+03</totfact>
</mgrwt>
</event>
<event>
 4    1  0.7354369E-001  0.2426489E+03  0.7546771E-02  0.1118041E+00
         -2   -1    0    0    0  501 -0.00000000000E+00  0.00000000000E+00  0.16300496799E+03  0.16300496799E+03  0.00000000000E+00 0. -1.
          2   -1    0    0  502    0  0.00000000000E+00 -0.00000000000E+00 -0.57806925916E+03  0.57806925916E+03  0.00000000000E+00 0.  1.
          6    1    1    2  502    0  0.46449111842E+02  0.16368253464E+03  0.19419863530E+02  0.24342477942E+03  0.17300000000E+03 0.  1.
         -6    1    1    2    0  501 -0.46449111842E+02 -0.16368253464E+03 -0.43448415471E+03  0.49764944773E+03  0.17300000000E+03 0.  1.
<mgrwt>
<rscale>  2 0.24264891E+03</rscale>
<asrwt>0</asrwt>
<pdfrwt beam="1">  1        2 0.88933731E-01 0.24264891E+03</pdfrwt>
<pdfrwt beam="2">  1       -2 0.25077688E-01 0.24264891E+03</pdfrwt>
<totfact> 0.74783029E+02</totfact>
</mgrwt>
</event>
<event>
 4    1  0.7354369E-001  0.2020477E+03  0.7546771E-02  0.1148023E+00
         -1   -1    0    0    0  501 -0.00000000000E+00  0.00000000000E+00  0.11353784146E+03  0.11353784146E+03  0.00000000000E+00 0.  1.
          1   -1    0    0  502    0  0.00000000000E+00 -0.00000000000E+00 -0.36335154972E+03  0.36335154972E+03  0.00000000000E+00 0. -1.
          6    1    1    2  502    0  0.10401329550E+03 -0.86892951317E+01 -0.10053814122E+03  0.22567939057E+03  0.17300000000E+03 0.  1.
         -6    1    1    2    0  501 -0.10401329550E+03  0.86892951317E+01 -0.14927556704E+03  0.25121000061E+03  0.17300000000E+03 0. -1.
<mgrwt>
<rscale>  2 0.20204769E+03</rscale>
<asrwt>0</asrwt>
<pdfrwt beam="1">  1        1 0.55900238E-01 0.20204769E+03</pdfrwt>
<pdfrwt beam="2">  1       -1 0.17467361E-01 0.20204769E+03</pdfrwt>
<totfact> 0.17124041E+03</totfact>
</mgrwt>
</event>
<event>
 4    1  0.7354369E-001  0.2630254E+03  0.7546771E-02  0.1105339E+00
          2   -1    0    0  502    0  0.00000000000E+00  0.00000000000E+00  0.93516331368E+03  0.93516331368E+03  0.00000000000E+00 0. -1.
         -2   -1    0    0    0  501 -0.00000000000E+00 -0.00000000000E+00 -0.99768979287E+02  0.99768979287E+02  0.00000000000E+00 0.  1.
          6    1    1    2  502    0 -0.22143513640E+02  0.19688325481E+03  0.15460341472E+03  0.30509763530E+03  0.17300000000E+03 0.  1.
         -6    1    1    2    0  501  0.22143513640E+02 -0.19688325481E+03  0.68079091967E+03  0.72983465767E+03  0.17300000000E+03 0. -1.
<mgrwt>
<rscale>  2 0.26302538E+03</rscale>
<asrwt>0</asrwt>
<pdfrwt beam="1">  1        2 0.14387127E+00 0.26302538E+03</pdfrwt>
<pdfrwt beam="2">  1       -2 0.15349074E-01 0.26302538E+03</pdfrwt>
<totfact> 0.95213407E+02</totfact>
</mgrwt>
</event>
<event>
 4    1  0.7354369E-001  0.1779939E+03  0.7546771E-02  0.1169759E+00
          1   -1    0    0  502    0  0.00000000000E+00  0.00000000000E+00  0.67474384210E+03  0.67474384210E+03  0.00000000000E+00 0.  1.
         -1   -1    0    0    0  501 -0.00000000000E+00 -0.00000000000E+00 -0.53351193264E+02  0.53351193264E+02  0.00000000000E+00 0. -1.
          6    1    1    2  502    0 -0.25189677646E+02 -0.33441064432E+02  0.18463389960E+03  0.25645955146E+03  0.17300000000E+03 0. -1.
         -6    1    1    2    0  501  0.25189677646E+02  0.33441064432E+02  0.43675874923E+03  0.47163548390E+03  0.17300000000E+03 0.  1.
<mgrwt>
<rscale>  2 0.17799389E+03</rscale>
<asrwt>0</asrwt>
<pdfrwt beam="1">  1        1 0.10380674E+00 0.17799389E+03</pdfrwt>
<pdfrwt beam="2">  1       -1 0.82078763E-02 0.17799389E+03</pdfrwt>
<totfact> 0.24354476E+03</totfact>
</mgrwt>
</event>
<event>
 4    1  0.7354369E-001  0.2144264E+03  0.7546771E-02  0.1138108E+00
          3   -1    0    0  502    0  0.00000000000E+00  0.00000000000E+00  0.17840642793E+03  0.17840642793E+03  0.00000000000E+00 0.  1.
         -3   -1    0    0    0  501 -0.00000000000E+00 -0.00000000000E+00 -0.25982677087E+03  0.25982677087E+03  0.00000000000E+00 0. -1.
          6    1    1    2  502    0 -0.11582177946E+03 -0.51332039636E+02 -0.20973151259E+02  0.21544961352E+03  0.17300000000E+03 0.  1.
         -6    1    1    2    0  501  0.11582177946E+03  0.51332039636E+02 -0.60447191677E+02  0.22278358529E+03  0.17300000000E+03 0. -1.
<mgrwt>
<rscale>  2 0.21442636E+03</rscale>
<asrwt>0</asrwt>
<pdfrwt beam="1">  1        3 0.27447143E-01 0.21442636E+03</pdfrwt>
<pdfrwt beam="2">  1       -3 0.39973349E-01 0.21442636E+03</pdfrwt>
<totfact> 0.19361646E+02</totfact>
</mgrwt>
</event>
<event>
 4    1  0.7354369E-001  0.2055697E+03  0.7546771E-02  0.1145123E+00
         -2   -1    0    0    0  501 -0.00000000000E+00  0.00000000000E+00  0.21778159873E+02  0.21778159873E+02  0.00000000000E+00 0.  1.
          2   -1    0    0  502    0  0.00000000000E+00 -0.00000000000E+00 -0.20638933602E+04  0.20638933602E+04  0.00000000000E+00 0. -1.
          6    1    1    2  502    0 -0.26612925738E+01  0.11100817863E+03 -0.76599361986E+03  0.79309843265E+03  0.17300000000E+03 0.  1.
         -6    1    1    2    0  501  0.26612925738E+01 -0.11100817863E+03 -0.12761215804E+04  0.12925730874E+04  0.17300000000E+03 0. -1.
<mgrwt>
<rscale>  2 0.20556969E+03</rscale>
<asrwt>0</asrwt>
<pdfrwt beam="1">  1        2 0.31752209E+00 0.20556969E+03</pdfrwt>
<pdfrwt beam="2">  1       -2 0.33504858E-02 0.20556969E+03</pdfrwt>
<totfact> 0.24743680E+03</totfact>
</mgrwt>
</event>
<event>
 4    1  0.7354369E-001  0.1955877E+03  0.7546771E-02  0.1153516E+00
         -1   -1    0    0    0  501 -0.00000000000E+00  0.00000000000E+00  0.43232833930E+02  0.43232833930E+02  0.00000000000E+00 0.  1.
          1   -1    0    0  502    0  0.00000000000E+00 -0.00000000000E+00 -0.17030970613E+04  0.17030970613E+04  0.00000000000E+00 0. -1.
          6    1    1    2  502    0 -0.79436511722E+02 -0.44893289050E+02 -0.14351599009E+04  0.14484262176E+04  0.17300000000E+03 0. -1.
         -6    1    1    2    0  501  0.79436511722E+02  0.44893289050E+02 -0.22470432654E+03  0.29790367765E+03  0.17300000000E+03 0.  1.
<mgrwt>
<rscale>  2 0.19558775E+03</rscale>
<asrwt>0</asrwt>
<pdfrwt beam="1">  1        1 0.26201495E+00 0.19558775E+03</pdfrwt>
<pdfrwt beam="2">  1       -1 0.66512047E-02 0.19558775E+03</pdfrwt>
<totfact> 0.60769588E+02</totfact>
</mgrwt>
</event>
<event>
 4    1  0.7354369E-001  0.2031103E+03  0.7546771E-02  0.1147141E+00
         -2   -1    0    0    0  501 -0.00000000000E+00  0.00000000000E+00  0.35371808312E+02  0.35371808312E+02  0.00000000000E+00 0. -1.
          2   -1    0    0  502    0  0.00000000000E+00 -0.00000000000E+00 -0.14006276783E+04  0.14006276783E+04  0.00000000000E+00 0.  1.
          6    1    1    2  502    0 -0.66167898537E+01  0.10621204747E+03 -0.97631454023E+03  0.99721806161E+03  0.17300000000E+03 0.  1.
         -6    1    1    2    0  501  0.66167898537E+01 -0.10621204747E+03 -0.38894132979E+03  0.43878142504E+03  0.17300000000E+03 0. -1.
<mgrwt>
<rscale>  2 0.20311027E+03</rscale>
<asrwt>0</asrwt>
<pdfrwt beam="1">  1        2 0.21548117E+00 0.20311027E+03</pdfrwt>
<pdfrwt beam="2">  1       -2 0.54418169E-02 0.20311027E+03</pdfrwt>
<totfact> 0.26528104E+03</totfact>
</mgrwt>
</event>
<event>
 4    1  0.7354369E-001  0.7436182E+03  0.7546771E-02  0.9645416E-01
         -2   -1    0    0    0  501 -0.00000000000E+00  0.00000000000E+00  0.27881178392E+03  0.27881178392E+03  0.00000000000E+00 0.  1.
          2   -1    0    0  502    0  0.00000000000E+00 -0.00000000000E+00 -0.19872285051E+04  0.19872285051E+04  0.00000000000E+00 0. -1.
          6    1    1    2  502    0  0.18156572843E+03  0.70005206224E+03 -0.90457116288E+03  0.11709897490E+04  0.17300000000E+03 0. -1.
         -6    1    1    2    0  501 -0.18156572843E+03 -0.70005206224E+03 -0.80384555831E+03  0.10950505400E+04  0.17300000000E+03 0.  1.
<mgrwt>
<rscale>  2 0.74361818E+03</rscale>
<asrwt>0</asrwt>
<pdfrwt beam="1">  1        2 0.30572746E+00 0.74361818E+03</pdfrwt>
<pdfrwt beam="2">  1       -2 0.42894121E-01 0.74361818E+03</pdfrwt>
<totfact> 0.36123946E+01</totfact>
</mgrwt>
</event>
<event>
 4    1  0.7354369E-001  0.1973390E+03  0.7546771E-02  0.1152004E+00
         -2   -1    0    0    0  501 -0.00000000000E+00  0.00000000000E+00  0.21978379845E+02  0.21978379845E+02  0.00000000000E+00 0.  1.
          2   -1    0    0  502    0  0.00000000000E+00 -0.00000000000E+00 -0.23725159475E+04  0.23725159475E+04  0.00000000000E+00 0. -1.
          6    1    1    2  502    0 -0.60910001199E+02 -0.72826087256E+02 -0.17776774777E+04  0.17885971827E+04  0.17300000000E+03 0. -1.
         -6    1    1    2    0  501  0.60910001199E+02  0.72826087256E+02 -0.57286008998E+03  0.60589714467E+03  0.17300000000E+03 0.  1.
<mgrwt>
<rscale>  2 0.19733897E+03</rscale>
<asrwt>0</asrwt>
<pdfrwt beam="1">  1        2 0.36500249E+00 0.19733897E+03</pdfrwt>
<pdfrwt beam="2">  1       -2 0.33812889E-02 0.19733897E+03</pdfrwt>
<totfact> 0.16792563E+03</totfact>
</mgrwt>
</event>
<event>
 4    1  0.7354369E-001  0.2658124E+03  0.7546771E-02  0.1103700E+00
         -2   -1    0    0    0  501 -0.00000000000E+00  0.00000000000E+00  0.15167835781E+04  0.15167835781E+04  0.00000000000E+00 0. -1.
          2   -1    0    0  502    0  0.00000000000E+00 -0.00000000000E+00 -0.22115334185E+03  0.22115334185E+03  0.00000000000E+00 0.  1.
          6    1    1    2  502    0 -0.53880092853E+01  0.20173790264E+03  0.14198600705E+04  0.14445272001E+04  0.17300000000E+03 0. -1.
         -6    1    1    2    0  501  0.53880092853E+01 -0.20173790264E+03 -0.12422983422E+03  0.29340971988E+03  0.17300000000E+03 0.  1.
<mgrwt>
<rscale>  2 0.26581236E+03</rscale>
<asrwt>0</asrwt>
<pdfrwt beam="1">  1        2 0.34023592E-01 0.26581236E+03</pdfrwt>
<pdfrwt beam="2">  1       -2 0.23335131E+00 0.26581236E+03</pdfrwt>
<totfact> 0.13844717E+01</totfact>
</mgrwt>
</event>
<event>
 4    1  0.7354369E-001  0.4262679E+03  0.7546771E-02  0.1035045E+00
          2   -1    0    0  502    0  0.00000000000E+00  0.00000000000E+00  0.20836791773E+04  0.20836791773E+04  0.00000000000E+00 0.  1.
         -2   -1    0    0    0  501 -0.00000000000E+00 -0.00000000000E+00 -0.16059308222E+03  0.16059308222E+03  0.00000000000E+00 0. -1.
          6    1    1    2  502    0 -0.32615945939E+03  0.21306171039E+03  0.17201190467E+04  0.17721494915E+04  0.17300000000E+03 0.  1.
         -6    1    1    2    0  501  0.32615945939E+03 -0.21306171039E+03  0.20296704843E+03  0.47212276807E+03  0.17300000000E+03 0. -1.
<mgrwt>
<rscale>  2 0.42626786E+03</rscale>
<asrwt>0</asrwt>
<pdfrwt beam="1">  1        2 0.32056601E+00 0.42626786E+03</pdfrwt>
<pdfrwt beam="2">  1       -2 0.24706630E-01 0.42626786E+03</pdfrwt>
<totfact> 0.94673659E+01</totfact>
</mgrwt>
</event>
<event>
 4    1  0.7354369E-001  0.2278745E+03  0.7546771E-02  0.1128145E+00
          2   -1    0    0  502    0  0.00000000000E+00  0.00000000000E+00  0.11850391291E+04  0.11850391291E+04  0.00000000000E+00 0. -1.
         -2   -1    0    0    0  501 -0.00000000000E+00 -0.00000000000E+00 -0.61507701368E+02  0.61507701368E+02  0.00000000000E+00 0.  1.
          6    1    1    2  502    0  0.65918512881E+02  0.13286289760E+03  0.89601176170E+03  0.92453441093E+03  0.17300000000E+03 0. -1.
         -6    1    1    2    0  501 -0.65918512881E+02 -0.13286289760E+03  0.22751966602E+03  0.32201241952E+03  0.17300000000E+03 0.  1.
<mgrwt>
<rscale>  2 0.22787453E+03</rscale>
<asrwt>0</asrwt>
<pdfrwt beam="1">  1        2 0.18231370E+00 0.22787453E+03</pdfrwt>
<pdfrwt beam="2">  1       -2 0.94627241E-02 0.22787453E+03</pdfrwt>
<totfact> 0.14792445E+03</totfact>
</mgrwt>
</event>
<event>
 4    1  0.7354369E-001  0.2011042E+03  0.7546771E-02  0.1148811E+00
          2   -1    0    0  502    0  0.00000000000E+00  0.00000000000E+00  0.34856438004E+03  0.34856438004E+03  0.00000000000E+00 0.  1.
         -2   -1    0    0    0  501 -0.00000000000E+00 -0.00000000000E+00 -0.12344399905E+03  0.12344399905E+03  0.00000000000E+00 0. -1.
          6    1    1    2  502    0 -0.87828165489E+02 -0.52916154440E+02  0.17040928798E+03  0.26359482446E+03  0.17300000000E+03 0. -1.
         -6    1    1    2    0  501  0.87828165489E+02  0.52916154440E+02  0.54711093007E+02  0.20841355463E+03  0.17300000000E+03 0.  1.
<mgrwt>
<rscale>  2 0.20110422E+03</rscale>
<asrwt>0</asrwt>
<pdfrwt beam="1">  1        2 0.53625289E-01 0.20110422E+03</pdfrwt>
<pdfrwt beam="2">  1       -2 0.18991385E-01 0.20110422E+03</pdfrwt>
<totfact> 0.21107420E+03</totfact>
</mgrwt>
</event>
<event>
 4    1  0.7354369E-001  0.1941091E+03  0.7546771E-02  0.1154807E+00
         -1   -1    0    0    0  501 -0.00000000000E+00  0.00000000000E+00  0.28817051807E+02  0.28817051807E+02  0.00000000000E+00 0.  1.
          1   -1    0    0  502    0  0.00000000000E+00 -0.00000000000E+00 -0.13104468917E+04  0.13104468917E+04  0.00000000000E+00 0. -1.
          6    1    1    2  502    0 -0.26367288870E+02 -0.83988670667E+02 -0.60906681568E+03  0.63925012059E+03  0.17300000000E+03 0. -1.
         -6    1    1    2    0  501  0.26367288870E+02  0.83988670667E+02 -0.67256302420E+03  0.70001382289E+03  0.17300000000E+03 0. -1.
<mgrwt>
<rscale>  2 0.19410907E+03</rscale>
<asrwt>0</asrwt>
<pdfrwt beam="1">  1        1 0.20160720E+00 0.19410907E+03</pdfrwt>
<pdfrwt beam="2">  1       -1 0.44333930E-02 0.19410907E+03</pdfrwt>
<totfact> 0.20222068E+03</totfact>
</mgrwt>
</event>
<event>
 4    1  0.7354369E-001  0.1956532E+03  0.7546771E-02  0.1153459E+00
         -2   -1    0    0    0  501 -0.00000000000E+00  0.00000000000E+00  0.49154134365E+02  0.49154134365E+02  0.00000000000E+00 0.  1.
          2   -1    0    0  502    0  0.00000000000E+00 -0.00000000000E+00 -0.80246192387E+03  0.80246192387E+03  0.00000000000E+00 0. -1.
          6    1    1    2  502    0 -0.15953808377E+01  0.91370902568E+02 -0.30350241462E+03  0.36110095923E+03  0.17300000000E+03 0. -1.
         -6    1    1    2    0  501  0.15953808377E+01 -0.91370902568E+02 -0.44980537489E+03  0.49051509901E+03  0.17300000000E+03 0. -1.
<mgrwt>
<rscale>  2 0.19565323E+03</rscale>
<asrwt>0</asrwt>
<pdfrwt beam="1">  1        2 0.12345567E+00 0.19565323E+03</pdfrwt>
<pdfrwt beam="2">  1       -2 0.75621750E-02 0.19565323E+03</pdfrwt>
<totfact> 0.36094133E+03</totfact>
</mgrwt>
</event>
<event>
 4    1  0.7354369E-001  0.2221248E+03  0.7546771E-02  0.1132309E+00
         -2   -1    0    0    0  501 -0.00000000000E+00  0.00000000000E+00  0.49279242202E+02  0.49279242202E+02  0.00000000000E+00 0. -1.
          2   -1    0    0  502    0  0.00000000000E+00 -0.00000000000E+00 -0.10032886439E+04  0.10032886439E+04  0.00000000000E+00 0.  1.
          6    1    1    2  502    0  0.12867717407E+03  0.53409773814E+02 -0.50089548070E+03  0.54793768044E+03  0.17300000000E+03 0.  1.
         -6    1    1    2    0  501 -0.12867717407E+03 -0.53409773814E+02 -0.45311392105E+03  0.50463020571E+03  0.17300000000E+03 0.  1.
<mgrwt>
<rscale>  2 0.22212478E+03</rscale>
<asrwt>0</asrwt>
<pdfrwt beam="1">  1        2 0.15435209E+00 0.22212478E+03</pdfrwt>
<pdfrwt beam="2">  1       -2 0.75814225E-02 0.22212478E+03</pdfrwt>
<totfact> 0.26777680E+03</totfact>
</mgrwt>
</event>
<event>
 4    1  0.7354369E-001  0.2508449E+03  0.7546771E-02  0.1112772E+00
         -2   -1    0    0    0  501 -0.00000000000E+00  0.00000000000E+00  0.26604367849E+02  0.26604367849E+02  0.00000000000E+00 0. -1.
          2   -1    0    0  502    0  0.00000000000E+00 -0.00000000000E+00 -0.24450426546E+04  0.24450426546E+04  0.00000000000E+00 0.  1.
          6    1    1    2  502    0  0.17735818582E+03 -0.39220359908E+02 -0.14326189491E+04  0.14544140456E+04  0.17300000000E+03 0.  1.
         -6    1    1    2    0  501 -0.17735818582E+03  0.39220359908E+02 -0.98581933767E+03  0.10172329769E+04  0.17300000000E+03 0. -1.
<mgrwt>
<rscale>  2 0.25084490E+03</rscale>
<asrwt>0</asrwt>
<pdfrwt beam="1">  1        2 0.37616027E+00 0.25084490E+03</pdfrwt>
<pdfrwt beam="2">  1       -2 0.40929811E-02 0.25084490E+03</pdfrwt>
<totfact> 0.11439519E+03</totfact>
</mgrwt>
</event>
<event>
 4    1  0.7354369E-001  0.2732209E+03  0.7546771E-02  0.1099450E+00
         -2   -1    0    0    0  501 -0.00000000000E+00  0.00000000000E+00  0.19354975476E+02  0.19354975476E+02  0.00000000000E+00 0. -1.
          2   -1    0    0  502    0  0.00000000000E+00 -0.00000000000E+00 -0.38797149441E+04  0.38797149441E+04  0.00000000000E+00 0.  1.
          6    1    1    2  502    0 -0.12768657860E+03 -0.16857275875E+03 -0.20797759028E+04  0.20976456905E+04  0.17300000000E+03 0.  1.
         -6    1    1    2    0  501  0.12768657860E+03  0.16857275875E+03 -0.17805840659E+04  0.18014242290E+04  0.17300000000E+03 0. -1.
<mgrwt>
<rscale>  2 0.27322086E+03</rscale>
<asrwt>0</asrwt>
<pdfrwt beam="1">  1        2 0.59688024E+00 0.27322086E+03</pdfrwt>
<pdfrwt beam="2">  1       -2 0.29776835E-02 0.27322086E+03</pdfrwt>
<totfact> 0.23574841E+02</totfact>
</mgrwt>
</event>
<event>
 4    1  0.7354369E-001  0.2160789E+03  0.7546771E-02  0.1136841E+00
         -1   -1    0    0    0  501 -0.00000000000E+00  0.00000000000E+00  0.27122214073E+02  0.27122214073E+02  0.00000000000E+00 0. -1.
          1   -1    0    0  502    0  0.00000000000E+00 -0.00000000000E+00 -0.17735067113E+04  0.17735067113E+04  0.00000000000E+00 0.  1.
          6    1    1    2  502    0  0.11109010279E+03  0.66483806080E+02 -0.10274078042E+04  0.10498842334E+04  0.17300000000E+03 0.  1.
         -6    1    1    2    0  501 -0.11109010279E+03 -0.66483806080E+02 -0.71897669300E+03  0.75074469194E+03  0.17300000000E+03 0. -1.
<mgrwt>
<rscale>  2 0.21607894E+03</rscale>
<asrwt>0</asrwt>
<pdfrwt beam="1">  1        1 0.27284726E+00 0.21607894E+03</pdfrwt>
<pdfrwt beam="2">  1       -1 0.41726472E-02 0.21607894E+03</pdfrwt>
<totfact> 0.10975472E+03</totfact>
</mgrwt>
</event>
<event>
 4    1  0.7354369E-001  0.2708381E+03  0.7546771E-02  0.1100801E+00
         -2   -1    0    0    0  501 -0.00000000000E+00  0.00000000000E+00  0.33740823740E+03  0.33740823740E+03  0.00000000000E+00 0. -1.
          2   -1    0    0  502    0  0.00000000000E+00 -0.00000000000E+00 -0.22071418116E+03  0.22071418116E+03  0.00000000000E+00 0.  1.
          6    1    1    2  502    0 -0.67760299026E+02  0.19706037838E+03  0.92532099625E+02  0.28620873557E+03  0.17300000000E+03 0.  1.
         -6    1    1    2    0  501  0.67760299026E+02 -0.19706037838E+03  0.24161956607E+02  0.27191368300E+03  0.17300000000E+03 0. -1.
<mgrwt>
<rscale>  2 0.27083805E+03</rscale>
<asrwt>0</asrwt>
<pdfrwt beam="1">  1        2 0.33956028E-01 0.27083805E+03</pdfrwt>
<pdfrwt beam="2">  1       -2 0.51908960E-01 0.27083805E+03</pdfrwt>
<totfact> 0.54643214E+02</totfact>
</mgrwt>
</event>
<event>
 4    1  0.7354369E-001  0.2799346E+03  0.7546771E-02  0.1095725E+00
          2   -1    0    0  502    0  0.00000000000E+00  0.00000000000E+00  0.95007249077E+03  0.95007249077E+03  0.00000000000E+00 0. -1.
         -2   -1    0    0    0  501 -0.00000000000E+00 -0.00000000000E+00 -0.86574727489E+02  0.86574727489E+02  0.00000000000E+00 0.  1.
          6    1    1    2  502    0  0.15775628416E+03  0.15345149762E+03  0.54445258544E+03  0.61220260136E+03  0.17300000000E+03 0. -1.
         -6    1    1    2    0  501 -0.15775628416E+03 -0.15345149762E+03  0.31904517785E+03  0.42444461691E+03  0.17300000000E+03 0.  1.
<mgrwt>
<rscale>  2 0.27993465E+03</rscale>
<asrwt>0</asrwt>
<pdfrwt beam="1">  1        2 0.14616499E+00 0.27993465E+03</pdfrwt>
<pdfrwt beam="2">  1       -2 0.13319189E-01 0.27993465E+03</pdfrwt>
<totfact> 0.11770198E+03</totfact>
</mgrwt>
</event>
<event>
 4    1  0.7354369E-001  0.2470566E+03  0.7546771E-02  0.1115179E+00
         -1   -1    0    0    0  501 -0.00000000000E+00  0.00000000000E+00  0.11661967381E+03  0.11661967381E+03  0.00000000000E+00 0.  1.
          1   -1    0    0  502    0  0.00000000000E+00 -0.00000000000E+00 -0.83613809893E+03  0.83613809893E+03  0.00000000000E+00 0. -1.
          6    1    1    2  502    0 -0.12611963900E+03 -0.12329549509E+03 -0.68409509118E+02  0.25635288840E+03  0.17300000000E+03 0.  1.
         -6    1    1    2    0  501  0.12611963900E+03  0.12329549509E+03 -0.65110891599E+03  0.69640488434E+03  0.17300000000E+03 0. -1.
<mgrwt>
<rscale>  2 0.24705656E+03</rscale>
<asrwt>0</asrwt>
<pdfrwt beam="1">  1        1 0.12863663E+00 0.24705656E+03</pdfrwt>
<pdfrwt beam="2">  1       -1 0.17941489E-01 0.24705656E+03</pdfrwt>
<totfact> 0.52123088E+02</totfact>
</mgrwt>
</event>
<event>
 4    1  0.7354369E-001  0.1894379E+03  0.7546771E-02  0.1158969E+00
          1   -1    0    0  502    0  0.00000000000E+00  0.00000000000E+00  0.30008407382E+03  0.30008407382E+03  0.00000000000E+00 0.  1.
         -1   -1    0    0    0  501 -0.00000000000E+00 -0.00000000000E+00 -0.13625848030E+03  0.13625848030E+03  0.00000000000E+00 0. -1.
          6    1    1    2  502    0  0.56015800097E+02 -0.53103064529E+02  0.56032349728E+01  0.18952071540E+03  0.17300000000E+03 0. -1.
         -6    1    1    2    0  501 -0.56015800097E+02  0.53103064529E+02  0.15822235855E+03  0.24682183872E+03  0.17300000000E+03 0. -1.
<mgrwt>
<rscale>  2 0.18943787E+03</rscale>
<asrwt>0</asrwt>
<pdfrwt beam="1">  1        1 0.46166780E-01 0.18943787E+03</pdfrwt>
<pdfrwt beam="2">  1       -1 0.20962843E-01 0.18943787E+03</pdfrwt>
<totfact> 0.16205480E+03</totfact>
</mgrwt>
</event>
<event>
 4    1  0.7354369E-001  0.1894677E+03  0.7546771E-02  0.1158942E+00
          2   -1    0    0  502    0  0.00000000000E+00  0.00000000000E+00  0.27060639821E+04  0.27060639821E+04  0.00000000000E+00 0.  1.
         -2   -1    0    0    0  501 -0.00000000000E+00 -0.00000000000E+00 -0.13379690637E+02  0.13379690637E+02  0.00000000000E+00 0. -1.
          6    1    1    2  502    0  0.11692110482E+01  0.77250524573E+02  0.14718111769E+04  0.14839562497E+04  0.17300000000E+03 0.  1.
         -6    1    1    2    0  501 -0.11692110482E+01 -0.77250524573E+02  0.12208731146E+04  0.12354874231E+04  0.17300000000E+03 0. -1.
<mgrwt>
<rscale>  2 0.18946770E+03</rscale>
<asrwt>0</asrwt>
<pdfrwt beam="1">  1        2 0.41631710E+00 0.18946770E+03</pdfrwt>
<pdfrwt beam="2">  1       -2 0.20584161E-02 0.18946770E+03</pdfrwt>
<totfact> 0.23026036E+03</totfact>
</mgrwt>
</event>
<event>
 4    1  0.7354369E-001  0.2132199E+03  0.7546771E-02  0.1139041E+00
         -2   -1    0    0    0  501 -0.00000000000E+00  0.00000000000E+00  0.44490472860E+02  0.44490472860E+02  0.00000000000E+00 0. -1.
          2   -1    0    0  502    0  0.00000000000E+00 -0.00000000000E+00 -0.10379847325E+04  0.10379847325E+04  0.00000000000E+00 0.  1.
          6    1    1    2  502    0  0.73192866329E+02  0.10087870662E+03 -0.56422125016E+03  0.60316525784E+03  0.17300000000E+03 0. -1.
         -6    1    1    2    0  501 -0.73192866329E+02 -0.10087870662E+03 -0.42927300953E+03  0.47930994757E+03  0.17300000000E+03 0. -1.
<mgrwt>
<rscale>  2 0.21321986E+03</rscale>
<asrwt>0</asrwt>
<pdfrwt beam="1">  1        2 0.15968995E+00 0.21321986E+03</pdfrwt>
<pdfrwt beam="2">  1       -2 0.68446884E-02 0.21321986E+03</pdfrwt>
<totfact> 0.29881484E+03</totfact>
</mgrwt>
</event>
<event>
 4    1  0.7354369E-001  0.1784155E+03  0.7546771E-02  0.1169345E+00
         -1   -1    0    0    0  501 -0.00000000000E+00  0.00000000000E+00  0.25253679026E+02  0.25253679026E+02  0.00000000000E+00 0. -1.
          1   -1    0    0  502    0  0.00000000000E+00 -0.00000000000E+00 -0.13047287457E+04  0.13047287457E+04  0.00000000000E+00 0.  1.
          6    1    1    2  502    0  0.13278266232E+02  0.41554386399E+02 -0.51729179258E+03  0.54719546604E+03  0.17300000000E+03 0. -1.
         -6    1    1    2    0  501 -0.13278266232E+02 -0.41554386399E+02 -0.76218327410E+03  0.78278695869E+03  0.17300000000E+03 0.  1.
<mgrwt>
<rscale>  2 0.17841547E+03</rscale>
<asrwt>0</asrwt>
<pdfrwt beam="1">  1        1 0.20072756E+00 0.17841547E+03</pdfrwt>
<pdfrwt beam="2">  1       -1 0.38851803E-02 0.17841547E+03</pdfrwt>
<totfact> 0.24793129E+03</totfact>
</mgrwt>
</event>
<event>
 4    1  0.7354369E-001  0.2095091E+03  0.7546771E-02  0.1141955E+00
          1   -1    0    0  502    0  0.00000000000E+00  0.00000000000E+00  0.65946483286E+03  0.65946483286E+03  0.00000000000E+00 0.  1.
         -1   -1    0    0    0  501 -0.00000000000E+00 -0.00000000000E+00 -0.10256241413E+03  0.10256241413E+03  0.00000000000E+00 0. -1.
          6    1    1    2  502    0  0.25648743420E+02 -0.11535684965E+03  0.50419273361E+03  0.54598935285E+03  0.17300000000E+03 0.  1.
         -6    1    1    2    0  501 -0.25648743420E+02  0.11535684965E+03  0.52709685114E+02  0.21603789414E+03  0.17300000000E+03 0. -1.
<mgrwt>
<rscale>  2 0.20950909E+03</rscale>
<asrwt>0</asrwt>
<pdfrwt beam="1">  1        1 0.10145613E+00 0.20950909E+03</pdfrwt>
<pdfrwt beam="2">  1       -1 0.15778833E-01 0.20950909E+03</pdfrwt>
<totfact> 0.91381546E+02</totfact>
</mgrwt>
</event>
<event>
 4    1  0.7354369E-001  0.5947592E+03  0.7546771E-02  0.9916339E-01
          2   -1    0    0  502    0  0.00000000000E+00  0.00000000000E+00  0.14843188782E+04  0.14843188782E+04  0.00000000000E+00 0. -1.
         -2   -1    0    0    0  501 -0.00000000000E+00 -0.00000000000E+00 -0.24712978589E+03  0.24712978589E+03  0.00000000000E+00 0.  1.
          6    1    1    2  502    0  0.46107037414E+03  0.33350202431E+03  0.45511156157E+03  0.74890922253E+03  0.17300000000E+03 0. -1.
         -6    1    1    2    0  501 -0.46107037414E+03 -0.33350202431E+03  0.78207753075E+03  0.98253944156E+03  0.17300000000E+03 0.  1.
<mgrwt>
<rscale>  2 0.59475919E+03</rscale>
<asrwt>0</asrwt>
<pdfrwt beam="1">  1        2 0.22835674E+00 0.59475919E+03</pdfrwt>
<pdfrwt beam="2">  1       -2 0.38019968E-01 0.59475919E+03</pdfrwt>
<totfact> 0.87607149E+01</totfact>
</mgrwt>
</event>
<event>
 4    1  0.7354369E-001  0.2007605E+03  0.7546771E-02  0.1149099E+00
          1   -1    0    0  502    0  0.00000000000E+00  0.00000000000E+00  0.11977035201E+04  0.11977035201E+04  0.00000000000E+00 0. -1.
         -1   -1    0    0    0  501 -0.00000000000E+00 -0.00000000000E+00 -0.40655457119E+02  0.40655457119E+02  0.00000000000E+00 0.  1.
          6    1    1    2  502    0  0.77263489687E+01  0.10156808110E+03  0.83551766466E+03  0.85929886507E+03  0.17300000000E+03 0. -1.
         -6    1    1    2    0  501 -0.77263489687E+01 -0.10156808110E+03  0.32153039829E+03  0.37906011211E+03  0.17300000000E+03 0.  1.
<mgrwt>
<rscale>  2 0.20076048E+03</rscale>
<asrwt>0</asrwt>
<pdfrwt beam="1">  1        1 0.18426205E+00 0.20076048E+03</pdfrwt>
<pdfrwt beam="2">  1       -1 0.62546866E-02 0.20076048E+03</pdfrwt>
<totfact> 0.14434571E+03</totfact>
</mgrwt>
</event>
<event>
 4    1  0.7354369E-001  0.1773287E+03  0.7546771E-02  0.1170414E+00
          2   -1    0    0  502    0  0.00000000000E+00  0.00000000000E+00  0.21557715418E+03  0.21557715418E+03  0.00000000000E+00 0. -1.
         -2   -1    0    0    0  501 -0.00000000000E+00 -0.00000000000E+00 -0.17869897005E+03  0.17869897005E+03  0.00000000000E+00 0.  1.
          6    1    1    2  502    0  0.24374531103E+02  0.30370038097E+02  0.10294014006E+03  0.20504177481E+03  0.17300000000E+03 0. -1.
         -6    1    1    2    0  501 -0.24374531103E+02 -0.30370038097E+02 -0.66061955931E+02  0.18923434942E+03  0.17300000000E+03 0.  1.
<mgrwt>
<rscale>  2 0.17732867E+03</rscale>
<asrwt>0</asrwt>
<pdfrwt beam="1">  1        2 0.33165716E-01 0.17732867E+03</pdfrwt>
<pdfrwt beam="2">  1       -2 0.27492149E-01 0.17732867E+03</pdfrwt>
<totfact> 0.18534649E+03</totfact>
</mgrwt>
</event>
<event>
 4    1  0.7354369E-001  0.1898923E+03  0.7546771E-02  0.1158558E+00
          2   -1    0    0  502    0  0.00000000000E+00  0.00000000000E+00  0.98145998693E+03  0.98145998693E+03  0.00000000000E+00 0.  1.
         -2   -1    0    0    0  501 -0.00000000000E+00 -0.00000000000E+00 -0.47709875479E+02  0.47709875479E+02  0.00000000000E+00 0. -1.
          6    1    1    2  502    0  0.76037924956E+02 -0.18663602325E+02  0.71362019453E+03  0.73845303041E+03  0.17300000000E+03 0.  1.
         -6    1    1    2    0  501 -0.76037924956E+02  0.18663602325E+02  0.22012991693E+03  0.29071683200E+03  0.17300000000E+03 0. -1.
<mgrwt>
<rscale>  2 0.18989233E+03</rscale>
<asrwt>0</asrwt>
<pdfrwt beam="1">  1        2 0.15099383E+00 0.18989233E+03</pdfrwt>
<pdfrwt beam="2">  1       -2 0.73399816E-02 0.18989233E+03</pdfrwt>
<totfact> 0.28960096E+03</totfact>
</mgrwt>
</event>
<event>
 4    1  0.7354369E-001  0.2873387E+03  0.7546771E-02  0.1091747E+00
          2   -1    0    0  502    0  0.00000000000E+00  0.00000000000E+00  0.87930017425E+02  0.87930017425E+02  0.00000000000E+00 0. -1.
         -2   -1    0    0    0  501 -0.00000000000E+00 -0.00000000000E+00 -0.10267245025E+04  0.10267245025E+04  0.00000000000E+00 0.  1.
          6    1    1    2  502    0 -0.10455974462E+03  0.20421010684E+03 -0.30645939252E+03  0.42009625944E+03  0.17300000000E+03 0.  1.
         -6    1    1    2    0  501  0.10455974462E+03 -0.20421010684E+03 -0.63233509255E+03  0.69455826048E+03  0.17300000000E+03 0. -1.
<mgrwt>
<rscale>  2 0.28733866E+03</rscale>
<asrwt>0</asrwt>
<pdfrwt beam="1">  1        2 0.13527695E-01 0.28733866E+03</pdfrwt>
<pdfrwt beam="2">  1       -2 0.15795762E+00 0.28733866E+03</pdfrwt>
<totfact> 0.12243143E+02</totfact>
</mgrwt>
</event>
<event>
 4    1  0.7354369E-001  0.3600736E+03  0.7546771E-02  0.1058555E+00
         -1   -1    0    0    0  501 -0.00000000000E+00  0.00000000000E+00  0.26826494626E+03  0.26826494626E+03  0.00000000000E+00 0.  1.
          1   -1    0    0  502    0  0.00000000000E+00 -0.00000000000E+00 -0.10478749870E+04  0.10478749870E+04  0.00000000000E+00 0. -1.
          6    1    1    2  502    0 -0.21888838504E+03  0.22762217001E+03  0.93228635964E+02  0.37194698003E+03  0.17300000000E+03 0.  1.
         -6    1    1    2    0  501  0.21888838504E+03 -0.22762217001E+03 -0.87283867668E+03  0.94419295321E+03  0.17300000000E+03 0. -1.
<mgrwt>
<rscale>  2 0.36007357E+03</rscale>
<asrwt>0</asrwt>
<pdfrwt beam="1">  1        1 0.16121154E+00 0.36007357E+03</pdfrwt>
<pdfrwt beam="2">  1       -1 0.41271530E-01 0.36007357E+03</pdfrwt>
<totfact> 0.85549180E+01</totfact>
</mgrwt>
</event>
<event>
 4    1  0.7354369E-001  0.1745192E+03  0.7546771E-02  0.1173215E+00
         -2   -1    0    0    0  501 -0.00000000000E+00  0.00000000000E+00  0.10462758412E+03  0.10462758412E+03  0.00000000000E+00 0. -1.
          2   -1    0    0  502    0  0.00000000000E+00 -0.00000000000E+00 -0.29753796664E+03  0.29753796664E+03  0.00000000000E+00 0.  1.
          6    1    1    2  502    0 -0.21699667956E+02  0.75555226817E+01 -0.12603663516E+03  0.21527237378E+03  0.17300000000E+03 0.  1.
         -6    1    1    2    0  501  0.21699667956E+02 -0.75555226817E+01 -0.66873747368E+02  0.18689317697E+03  0.17300000000E+03 0. -1.
<mgrwt>
<rscale>  2 0.17451923E+03</rscale>
<asrwt>0</asrwt>
<pdfrwt beam="1">  1        2 0.45775071E-01 0.17451923E+03</pdfrwt>
<pdfrwt beam="2">  1       -2 0.16096552E-01 0.17451923E+03</pdfrwt>
<totfact> 0.32825110E+03</totfact>
</mgrwt>
</event>
<event>
 4    1  0.7354369E-001  0.2093005E+03  0.7546771E-02  0.1142121E+00
          1   -1    0    0  502    0  0.00000000000E+00  0.00000000000E+00  0.13047652535E+04  0.13047652535E+04  0.00000000000E+00 0.  1.
         -1   -1    0    0    0  501 -0.00000000000E+00 -0.00000000000E+00 -0.33602280364E+02  0.33602280364E+02  0.00000000000E+00 0. -1.
          6    1    1    2  502    0 -0.20075083223E+02  0.11608051983E+03  0.61630194731E+03  0.65087232720E+03  0.17300000000E+03 0.  1.
         -6    1    1    2    0  501  0.20075083223E+02 -0.11608051983E+03  0.65486102586E+03  0.68749520670E+03  0.17300000000E+03 0. -1.
<mgrwt>
<rscale>  2 0.20930049E+03</rscale>
<asrwt>0</asrwt>
<pdfrwt beam="1">  1        1 0.20073308E+00 0.20930049E+03</pdfrwt>
<pdfrwt beam="2">  1       -1 0.51695826E-02 0.20930049E+03</pdfrwt>
<totfact> 0.16225641E+03</totfact>
</mgrwt>
</event>
<event>
 4    1  0.7354369E-001  0.2157427E+03  0.7546771E-02  0.1137097E+00
          2   -1    0    0  502    0  0.00000000000E+00  0.00000000000E+00  0.14185738835E+04  0.14185738835E+04  0.00000000000E+00 0. -1.
         -2   -1    0    0    0  501 -0.00000000000E+00 -0.00000000000E+00 -0.38244980143E+02  0.38244980143E+02  0.00000000000E+00 0.  1.
          6    1    1    2  502    0 -0.74122410885E+02  0.10545975866E+03  0.41559922165E+03  0.46826018999E+03  0.17300000000E+03 0.  1.
         -6    1    1    2    0  501  0.74122410885E+02 -0.10545975866E+03  0.96472968173E+03  0.98855867367E+03  0.17300000000E+03 0. -1.
<mgrwt>
<rscale>  2 0.21574265E+03</rscale>
<asrwt>0</asrwt>
<pdfrwt beam="1">  1        2 0.21824210E+00 0.21574265E+03</pdfrwt>
<pdfrwt beam="2">  1       -2 0.58838442E-02 0.21574265E+03</pdfrwt>
<totfact> 0.23032707E+03</totfact>
</mgrwt>
</event>
<event>
 4    1  0.7354369E-001  0.2282350E+03  0.7546771E-02  0.1127888E+00
         -2   -1    0    0    0  501 -0.00000000000E+00  0.00000000000E+00  0.31118729858E+02  0.31118729858E+02  0.00000000000E+00 0.  1.
          2   -1    0    0  502    0  0.00000000000E+00 -0.00000000000E+00 -0.17091064224E+04  0.17091064224E+04  0.00000000000E+00 0. -1.
          6    1    1    2  502    0 -0.10089927015E+03  0.10946030339E+03 -0.96378640416E+03  0.99044204958E+03  0.17300000000E+03 0. -1.
         -6    1    1    2    0  501  0.10089927015E+03 -0.10946030339E+03 -0.71420128841E+03  0.74978310270E+03  0.17300000000E+03 0.  1.
<mgrwt>
<rscale>  2 0.22823501E+03</rscale>
<asrwt>0</asrwt>
<pdfrwt beam="1">  1        2 0.26293951E+00 0.22823501E+03</pdfrwt>
<pdfrwt beam="2">  1       -2 0.47874958E-02 0.22823501E+03</pdfrwt>
<totfact> 0.22132870E+03</totfact>
</mgrwt>
</event>
<event>
 4    1  0.7354369E-001  0.3700414E+03  0.7546771E-02  0.1054677E+00
         -2   -1    0    0    0  501 -0.00000000000E+00  0.00000000000E+00  0.12581692329E+03  0.12581692329E+03  0.00000000000E+00 0. -1.
          2   -1    0    0  502    0  0.00000000000E+00 -0.00000000000E+00 -0.11433385933E+04  0.11433385933E+04  0.00000000000E+00 0.  1.
          6    1    1    2  502    0 -0.25450203341E+03  0.20550028337E+03 -0.36957255617E+03  0.52298616210E+03  0.17300000000E+03 0. -1.
         -6    1    1    2    0  501  0.25450203341E+03 -0.20550028337E+03 -0.64794911388E+03  0.74616935454E+03  0.17300000000E+03 0.  1.
<mgrwt>
<rscale>  2 0.37004142E+03</rscale>
<asrwt>0</asrwt>
<pdfrwt beam="1">  1        2 0.17589824E+00 0.37004142E+03</pdfrwt>
<pdfrwt beam="2">  1       -2 0.19356450E-01 0.37004142E+03</pdfrwt>
<totfact> 0.47724531E+02</totfact>
</mgrwt>
</event>
<event>
 4    1  0.7354369E-001  0.1941208E+03  0.7546771E-02  0.1154796E+00
          2   -1    0    0  502    0  0.00000000000E+00  0.00000000000E+00  0.21763355322E+03  0.21763355322E+03  0.00000000000E+00 0. -1.
         -2   -1    0    0    0  501 -0.00000000000E+00 -0.00000000000E+00 -0.17953437554E+03  0.17953437554E+03  0.00000000000E+00 0.  1.
          6    1    1    2  502    0  0.60105278071E+02 -0.64352372228E+02  0.56502757499E+02  0.20217673919E+03  0.17300000000E+03 0. -1.
         -6    1    1    2    0  501 -0.60105278071E+02  0.64352372228E+02 -0.18403579816E+02  0.19499118958E+03  0.17300000000E+03 0.  1.
<mgrwt>
<rscale>  2 0.19412077E+03</rscale>
<asrwt>0</asrwt>
<pdfrwt beam="1">  1        2 0.33482085E-01 0.19412077E+03</pdfrwt>
<pdfrwt beam="2">  1       -2 0.27620673E-01 0.19412077E+03</pdfrwt>
<totfact> 0.18246648E+03</totfact>
</mgrwt>
</event>
<event>
 4    1  0.7354369E-001  0.2782166E+03  0.7546771E-02  0.1096667E+00
         -1   -1    0    0    0  501 -0.00000000000E+00  0.00000000000E+00  0.67334728911E+02  0.67334728911E+02  0.00000000000E+00 0. -1.
          1   -1    0    0  502    0  0.00000000000E+00 -0.00000000000E+00 -0.17921568175E+04  0.17921568175E+04  0.00000000000E+00 0.  1.
          6    1    1    2  502    0  0.13162174827E+03 -0.17364101539E+03 -0.14191474603E+04  0.14461618170E+04  0.17300000000E+03 0.  1.
         -6    1    1    2    0  501 -0.13162174827E+03  0.17364101539E+03 -0.30567462829E+03  0.41332972942E+03  0.17300000000E+03 0. -1.
<mgrwt>
<rscale>  2 0.27821662E+03</rscale>
<asrwt>0</asrwt>
<pdfrwt beam="1">  1        1 0.27571641E+00 0.27821662E+03</pdfrwt>
<pdfrwt beam="2">  1       -1 0.10359190E-01 0.27821662E+03</pdfrwt>
<totfact> 0.26592160E+02</totfact>
</mgrwt>
</event>
<event>
 4    1  0.7354369E-001  0.1951228E+03  0.7546771E-02  0.1153920E+00
          1   -1    0    0  502    0  0.00000000000E+00  0.00000000000E+00  0.20938904385E+03  0.20938904385E+03  0.00000000000E+00 0. -1.
         -1   -1    0    0    0  501 -0.00000000000E+00 -0.00000000000E+00 -0.22823942819E+03  0.22823942819E+03  0.00000000000E+00 0.  1.
          6    1    1    2  502    0 -0.14603715094E+02  0.89054073208E+02  0.89245994220E+02  0.21456407885E+03  0.17300000000E+03 0. -1.
         -6    1    1    2    0  501  0.14603715094E+02 -0.89054073208E+02 -0.10809637856E+03  0.22306439319E+03  0.17300000000E+03 0.  1.
<mgrwt>
<rscale>  2 0.19512277E+03</rscale>
<asrwt>0</asrwt>
<pdfrwt beam="1">  1        1 0.32213699E-01 0.19512277E+03</pdfrwt>
<pdfrwt beam="2">  1       -1 0.35113758E-01 0.19512277E+03</pdfrwt>
<totfact> 0.10717512E+03</totfact>
</mgrwt>
</event>
<event>
 4    1  0.7354369E-001  0.1915440E+03  0.7546771E-02  0.1157076E+00
          3   -1    0    0  502    0  0.00000000000E+00  0.00000000000E+00  0.78139999035E+03  0.78139999035E+03  0.00000000000E+00 0.  1.
         -3   -1    0    0    0  501 -0.00000000000E+00 -0.00000000000E+00 -0.51307421736E+02  0.51307421736E+02  0.00000000000E+00 0. -1.
          6    1    1    2  502    0  0.73703252627E+02  0.36441033398E+02  0.24375356402E+03  0.31000793270E+03  0.17300000000E+03 0. -1.
         -6    1    1    2    0  501 -0.73703252627E+02 -0.36441033398E+02  0.48633900460E+03  0.52269947939E+03  0.17300000000E+03 0.  1.
<mgrwt>
<rscale>  2 0.19154404E+03</rscale>
<asrwt>0</asrwt>
<pdfrwt beam="1">  1        3 0.12021537E+00 0.19154404E+03</pdfrwt>
<pdfrwt beam="2">  1       -3 0.78934501E-02 0.19154404E+03</pdfrwt>
<totfact> 0.15661297E+02</totfact>
</mgrwt>
</event>
<event>
 4    1  0.7354369E-001  0.1988513E+03  0.7546771E-02  0.1150712E+00
          1   -1    0    0  502    0  0.00000000000E+00  0.00000000000E+00  0.26659149577E+03  0.26659149577E+03  0.00000000000E+00 0.  1.
         -1   -1    0    0    0  501 -0.00000000000E+00 -0.00000000000E+00 -0.33968030673E+03  0.33968030673E+03  0.00000000000E+00 0. -1.
          6    1    1    2  502    0  0.92907383893E+02 -0.31321714044E+02 -0.26406669156E+03  0.33056474305E+03  0.17300000000E+03 0. -1.
         -6    1    1    2    0  501 -0.92907383893E+02  0.31321714044E+02  0.19097788061E+03  0.27570705945E+03  0.17300000000E+03 0.  1.
<mgrwt>
<rscale>  2 0.19885128E+03</rscale>
<asrwt>0</asrwt>
<pdfrwt beam="1">  1        1 0.41014076E-01 0.19885128E+03</pdfrwt>
<pdfrwt beam="2">  1       -1 0.52258509E-01 0.19885128E+03</pdfrwt>
<totfact> 0.38856185E+02</totfact>
</mgrwt>
</event>
<event>
 4    1  0.7354369E-001  0.1775617E+03  0.7546771E-02  0.1170184E+00
          1   -1    0    0  502    0  0.00000000000E+00  0.00000000000E+00  0.90366288153E+02  0.90366288153E+02  0.00000000000E+00 0. -1.
         -1   -1    0    0    0  501 -0.00000000000E+00 -0.00000000000E+00 -0.35577016109E+03  0.35577016109E+03  0.00000000000E+00 0.  1.
          6    1    1    2  502    0 -0.16714741967E+02 -0.36328598107E+02 -0.10168756056E+03  0.20461796014E+03  0.17300000000E+03 0. -1.
         -6    1    1    2    0  501  0.16714741967E+02  0.36328598107E+02 -0.16371631237E+03  0.24151848910E+03  0.17300000000E+03 0.  1.
<mgrwt>
<rscale>  2 0.17756168E+03</rscale>
<asrwt>0</asrwt>
<pdfrwt beam="1">  1        1 0.13902506E-01 0.17756168E+03</pdfrwt>
<pdfrwt beam="2">  1       -1 0.54733871E-01 0.17756168E+03</pdfrwt>
<totfact> 0.14117106E+03</totfact>
</mgrwt>
</event>
<event>
 4    1  0.7354369E-001  0.2196926E+03  0.7546771E-02  0.1134112E+00
          2   -1    0    0  502    0  0.00000000000E+00  0.00000000000E+00  0.24230029726E+04  0.24230029726E+04  0.00000000000E+00 0.  1.
         -2   -1    0    0    0  501 -0.00000000000E+00 -0.00000000000E+00 -0.26890887853E+02  0.26890887853E+02  0.00000000000E+00 0. -1.
          6    1    1    2  502    0  0.13127438286E+03  0.33209619318E+02  0.18217570570E+04  0.18349560259E+04  0.17300000000E+03 0.  1.
         -6    1    1    2    0  501 -0.13127438286E+03 -0.33209619318E+02  0.57435502771E+03  0.61493783448E+03  0.17300000000E+03 0.  1.
<mgrwt>
<rscale>  2 0.21969261E+03</rscale>
<asrwt>0</asrwt>
<pdfrwt beam="1">  1        2 0.37276951E+00 0.21969261E+03</pdfrwt>
<pdfrwt beam="2">  1       -2 0.41370616E-02 0.21969261E+03</pdfrwt>
<totfact> 0.11625888E+03</totfact>
</mgrwt>
</event>
<event>
 4    1  0.7354369E-001  0.1818066E+03  0.7546771E-02  0.1166066E+00
          4   -1    0    0  502    0  0.00000000000E+00  0.00000000000E+00  0.85801497486E+03  0.85801497486E+03  0.00000000000E+00 0. -1.
         -4   -1    0    0    0  501 -0.00000000000E+00 -0.00000000000E+00 -0.49611876273E+02  0.49611876273E+02  0.00000000000E+00 0.  1.
          6    1    1    2  502    0 -0.26383308935E+02  0.49280554530E+02  0.61874758596E+03  0.64490482024E+03  0.17300000000E+03 0. -1.
         -6    1    1    2    0  501  0.26383308935E+02 -0.49280554530E+02  0.18965551264E+03  0.26272203090E+03  0.17300000000E+03 0.  1.
<mgrwt>
<rscale>  2 0.18180663E+03</rscale>
<asrwt>0</asrwt>
<pdfrwt beam="1">  1        4 0.13200229E+00 0.18180663E+03</pdfrwt>
<pdfrwt beam="2">  1       -4 0.76325970E-02 0.18180663E+03</pdfrwt>
<totfact> 0.91985153E+01</totfact>
</mgrwt>
</event>
<event>
 4    1  0.7354369E-001  0.1963990E+03  0.7546771E-02  0.1152813E+00
          1   -1    0    0  502    0  0.00000000000E+00  0.00000000000E+00  0.15583543255E+04  0.15583543255E+04  0.00000000000E+00 0. -1.
         -1   -1    0    0    0  501 -0.00000000000E+00 -0.00000000000E+00 -0.28101899578E+02  0.28101899578E+02  0.00000000000E+00 0.  1.
          6    1    1    2  502    0  0.12733718014E+02  0.92094695026E+02  0.49126023972E+03  0.52906446068E+03  0.17300000000E+03 0. -1.
         -6    1    1    2    0  501 -0.12733718014E+02 -0.92094695026E+02  0.10389921862E+04  0.10573917644E+04  0.17300000000E+03 0. -1.
<mgrwt>
<rscale>  2 0.19639903E+03</rscale>
<asrwt>0</asrwt>
<pdfrwt beam="1">  1        1 0.23974675E+00 0.19639903E+03</pdfrwt>
<pdfrwt beam="2">  1       -1 0.43233704E-02 0.19639903E+03</pdfrwt>
<totfact> 0.14378089E+03</totfact>
</mgrwt>
</event>
<event>
 4    1  0.7354369E-001  0.2094987E+03  0.7546771E-02  0.1141964E+00
         -1   -1    0    0    0  501 -0.00000000000E+00  0.00000000000E+00  0.36353265818E+03  0.36353265818E+03  0.00000000000E+00 0. -1.
          1   -1    0    0  502    0  0.00000000000E+00 -0.00000000000E+00 -0.16677556695E+03  0.16677556695E+03  0.00000000000E+00 0.  1.
          6    1    1    2  502    0  0.65985810971E+02  0.98013179107E+02  0.23770087054E+03  0.31684604208E+03  0.17300000000E+03 0. -1.
         -6    1    1    2    0  501 -0.65985810971E+02 -0.98013179107E+02 -0.40943779315E+02  0.21346218305E+03  0.17300000000E+03 0.  1.
<mgrwt>
<rscale>  2 0.20949871E+03</rscale>
<asrwt>0</asrwt>
<pdfrwt beam="1">  1        1 0.25657780E-01 0.20949871E+03</pdfrwt>
<pdfrwt beam="2">  1       -1 0.55928101E-01 0.20949871E+03</pdfrwt>
<totfact> 0.61689456E+02</totfact>
</mgrwt>
</event>
<event>
 4    1  0.7354369E-001  0.2365012E+03  0.7546771E-02  0.1122146E+00
          2   -1    0    0  502    0  0.00000000000E+00  0.00000000000E+00  0.17546257845E+04  0.17546257845E+04  0.00000000000E+00 0. -1.
         -2   -1    0    0    0  501 -0.00000000000E+00 -0.00000000000E+00 -0.40217752690E+02  0.40217752690E+02  0.00000000000E+00 0.  1.
          6    1    1    2  502    0 -0.11306051518E+03  0.11498327157E+03  0.44852623785E+03  0.50705879233E+03  0.17300000000E+03 0.  1.
         -6    1    1    2    0  501  0.11306051518E+03 -0.11498327157E+03  0.12658817940E+04  0.12877847449E+04  0.17300000000E+03 0. -1.
<mgrwt>
<rscale>  2 0.23650123E+03</rscale>
<asrwt>0</asrwt>
<pdfrwt beam="1">  1        2 0.26994237E+00 0.23650123E+03</pdfrwt>
<pdfrwt beam="2">  1       -2 0.61873479E-02 0.23650123E+03</pdfrwt>
<totfact> 0.14152385E+03</totfact>
</mgrwt>
</event>
<event>
 4    1  0.7354369E-001  0.1876753E+03  0.7546771E-02  0.1160575E+00
         -2   -1    0    0    0  501 -0.00000000000E+00  0.00000000000E+00  0.31273876748E+02  0.31273876748E+02  0.00000000000E+00 0. -1.
          2   -1    0    0  502    0  0.00000000000E+00 -0.00000000000E+00 -0.11267259583E+04  0.11267259583E+04  0.00000000000E+00 0.  1.
          6    1    1    2  502    0  0.49715383898E+02 -0.53117000916E+02 -0.53575868554E+03  0.56767896237E+03  0.17300000000E+03 0.  1.
         -6    1    1    2    0  501 -0.49715383898E+02  0.53117000916E+02 -0.55969339599E+03  0.59032087266E+03  0.17300000000E+03 0. -1.
<mgrwt>
<rscale>  2 0.18767535E+03</rscale>
<asrwt>0</asrwt>
<pdfrwt beam="1">  1        2 0.17334241E+00 0.18767535E+03</pdfrwt>
<pdfrwt beam="2">  1       -2 0.48113668E-02 0.18767535E+03</pdfrwt>
<totfact> 0.45288100E+03</totfact>
</mgrwt>
</event>
<event>
 4    1  0.7354369E-001  0.1804552E+03  0.7546771E-02  0.1167363E+00
         -2   -1    0    0    0  501 -0.00000000000E+00  0.00000000000E+00  0.29813229158E+02  0.29813229158E+02  0.00000000000E+00 0. -1.
          2   -1    0    0  502    0  0.00000000000E+00 -0.00000000000E+00 -0.12441397955E+04  0.12441397955E+04  0.00000000000E+00 0.  1.
          6    1    1    2  502    0  0.22954726924E+02  0.45914767464E+02 -0.38461459784E+03  0.42484405872E+03  0.17300000000E+03 0. -1.
         -6    1    1    2    0  501 -0.22954726924E+02 -0.45914767464E+02 -0.82971196853E+03  0.84910896596E+03  0.17300000000E+03 0.  1.
<mgrwt>
<rscale>  2 0.18045522E+03</rscale>
<asrwt>0</asrwt>
<pdfrwt beam="1">  1        2 0.19140613E+00 0.18045522E+03</pdfrwt>
<pdfrwt beam="2">  1       -2 0.45866504E-02 0.18045522E+03</pdfrwt>
<totfact> 0.41756479E+03</totfact>
</mgrwt>
</event>
<event>
 4    1  0.7354369E-001  0.2821507E+03  0.7546771E-02  0.1094520E+00
         -2   -1    0    0    0  501 -0.00000000000E+00  0.00000000000E+00  0.51494079116E+02  0.51494079116E+02  0.00000000000E+00 0. -1.
          2   -1    0    0  502    0  0.00000000000E+00 -0.00000000000E+00 -0.19483169643E+04  0.19483169643E+04  0.00000000000E+00 0.  1.
          6    1    1    2  502    0 -0.13134328263E+03  0.18008048488E+03 -0.14027941511E+04  0.14308880003E+04  0.17300000000E+03 0.  1.
         -6    1    1    2    0  501  0.13134328263E+03 -0.18008048488E+03 -0.49402873402E+03  0.56892304310E+03  0.17300000000E+03 0. -1.
<mgrwt>
<rscale>  2 0.28215074E+03</rscale>
<asrwt>0</asrwt>
<pdfrwt beam="1">  1        2 0.29974101E+00 0.28215074E+03</pdfrwt>
<pdfrwt beam="2">  1       -2 0.79221677E-02 0.28215074E+03</pdfrwt>
<totfact> 0.75897533E+02</totfact>
</mgrwt>
</event>
<event>
 4    1  0.7354369E-001  0.2129791E+03  0.7546771E-02  0.1139228E+00
          2   -1    0    0  502    0  0.00000000000E+00  0.00000000000E+00  0.16413063624E+04  0.16413063624E+04  0.00000000000E+00 0.  1.
         -2   -1    0    0    0  501 -0.00000000000E+00 -0.00000000000E+00 -0.37982899226E+02  0.37982899226E+02  0.00000000000E+00 0. -1.
          6    1    1    2  502    0 -0.11329028942E+03 -0.50954855654E+02  0.12398840516E+04  0.12580431425E+04  0.17300000000E+03 0.  1.
         -6    1    1    2    0  501  0.11329028942E+03  0.50954855654E+02  0.36343941159E+03  0.42124611914E+03  0.17300000000E+03 0. -1.
<mgrwt>
<rscale>  2 0.21297908E+03</rscale>
<asrwt>0</asrwt>
<pdfrwt beam="1">  1        2 0.25250862E+00 0.21297908E+03</pdfrwt>
<pdfrwt beam="2">  1       -2 0.58435242E-02 0.21297908E+03</pdfrwt>
<totfact> 0.17738692E+03</totfact>
</mgrwt>
</event>
<event>
 4    1  0.7354369E-001  0.1809374E+03  0.7546771E-02  0.1166899E+00
          2   -1    0    0  502    0  0.00000000000E+00  0.00000000000E+00  0.28269984470E+03  0.28269984470E+03  0.00000000000E+00 0. -1.
         -2   -1    0    0    0  501 -0.00000000000E+00 -0.00000000000E+00 -0.12100553390E+03  0.12100553390E+03  0.00000000000E+00 0.  1.
          6    1    1    2  502    0  0.32061938955E+00  0.53002330943E+02  0.12268915273E+03  0.21861147746E+03  0.17300000000E+03 0. -1.
         -6    1    1    2    0  501 -0.32061938955E+00 -0.53002330943E+02  0.39005158073E+02  0.18509390114E+03  0.17300000000E+03 0.  1.
<mgrwt>
<rscale>  2 0.18093742E+03</rscale>
<asrwt>0</asrwt>
<pdfrwt beam="1">  1        2 0.43492284E-01 0.18093742E+03</pdfrwt>
<pdfrwt beam="2">  1       -2 0.18616236E-01 0.18093742E+03</pdfrwt>
<totfact> 0.27229281E+03</totfact>
</mgrwt>
</event>
<event>
 4    1  0.7354369E-001  0.1988847E+03  0.7546771E-02  0.1150683E+00
          1   -1    0    0  502    0  0.00000000000E+00  0.00000000000E+00  0.15698792756E+04  0.15698792756E+04  0.00000000000E+00 0. -1.
         -1   -1    0    0    0  501 -0.00000000000E+00 -0.00000000000E+00 -0.46326383298E+02  0.46326383298E+02  0.00000000000E+00 0.  1.
          6    1    1    2  502    0 -0.97794844098E+02  0.78930154225E+01  0.21601462472E+03  0.29362807992E+03  0.17300000000E+03 0.  1.
         -6    1    1    2    0  501  0.97794844098E+02 -0.78930154225E+01  0.13075382676E+04  0.13225775790E+04  0.17300000000E+03 0. -1.
<mgrwt>
<rscale>  2 0.19888472E+03</rscale>
<asrwt>0</asrwt>
<pdfrwt beam="1">  1        1 0.24151985E+00 0.19888472E+03</pdfrwt>
<pdfrwt beam="2">  1       -1 0.71271371E-02 0.19888472E+03</pdfrwt>
<totfact> 0.66768570E+02</totfact>
</mgrwt>
</event>
<event>
 4    1  0.7354369E-001  0.2458355E+03  0.7546771E-02  0.1115965E+00
          1   -1    0    0  502    0  0.00000000000E+00  0.00000000000E+00  0.73213788146E+03  0.73213788146E+03  0.00000000000E+00 0.  1.
         -1   -1    0    0    0  501 -0.00000000000E+00 -0.00000000000E+00 -0.82713400214E+02  0.82713400214E+02  0.00000000000E+00 0. -1.
          6    1    1    2  502    0  0.16843913948E+02 -0.17384581936E+03  0.30638570669E+03  0.39281966296E+03  0.17300000000E+03 0.  1.
         -6    1    1    2    0  501 -0.16843913948E+02  0.17384581936E+03  0.34303877456E+03  0.42203161872E+03  0.17300000000E+03 0. -1.
<mgrwt>
<rscale>  2 0.24583549E+03</rscale>
<asrwt>0</asrwt>
<pdfrwt beam="1">  1        1 0.11263659E+00 0.24583549E+03</pdfrwt>
<pdfrwt beam="2">  1       -1 0.12725139E-01 0.24583549E+03</pdfrwt>
<totfact> 0.11027524E+03</totfact>
</mgrwt>
</event>
<event>
 4    1  0.7354369E-001  0.3288377E+03  0.7546771E-02  0.1071652E+00
         -3   -1    0    0    0  501 -0.00000000000E+00  0.00000000000E+00  0.17565629638E+04  0.17565629638E+04  0.00000000000E+00 0.  1.
          3   -1    0    0  502    0  0.00000000000E+00 -0.00000000000E+00 -0.67929828103E+02  0.67929828103E+02  0.00000000000E+00 0. -1.
          6    1    1    2  502    0 -0.27580565955E+03  0.46222018282E+02  0.11236619331E+04  0.11707904923E+04  0.17300000000E+03 0.  1.
         -6    1    1    2    0  501  0.27580565955E+03 -0.46222018282E+02  0.56497120255E+03  0.65370229962E+03  0.17300000000E+03 0. -1.
<mgrwt>
<rscale>  2 0.32883771E+03</rscale>
<asrwt>0</asrwt>
<pdfrwt beam="1">  1        3 0.10450744E-01 0.32883771E+03</pdfrwt>
<pdfrwt beam="2">  1       -3 0.27024042E+00 0.32883771E+03</pdfrwt>
<totfact> 0.10801981E+01</totfact>
</mgrwt>
</event>
<event>
 4    1  0.7354369E-001  0.1924925E+03  0.7546771E-02  0.1156232E+00
          1   -1    0    0  502    0  0.00000000000E+00  0.00000000000E+00  0.25372954153E+03  0.25372954153E+03  0.00000000000E+00 0. -1.
         -1   -1    0    0    0  501 -0.00000000000E+00 -0.00000000000E+00 -0.14621963775E+03  0.14621963775E+03  0.00000000000E+00 0.  1.
          6    1    1    2  502    0  0.80621876365E+02  0.24989647307E+02  0.46647003752E+02  0.19806390984E+03  0.17300000000E+03 0. -1.
         -6    1    1    2    0  501 -0.80621876365E+02 -0.24989647307E+02  0.60862900029E+02  0.20188526945E+03  0.17300000000E+03 0.  1.
<mgrwt>
<rscale>  2 0.19249252E+03</rscale>
<asrwt>0</asrwt>
<pdfrwt beam="1">  1        1 0.39035314E-01 0.19249252E+03</pdfrwt>
<pdfrwt beam="2">  1       -1 0.22495329E-01 0.19249252E+03</pdfrwt>
<totfact> 0.17817774E+03</totfact>
</mgrwt>
</event>
<event>
 4    1  0.7354369E-001  0.2672995E+03  0.7546771E-02  0.1102835E+00
          2   -1    0    0  502    0  0.00000000000E+00  0.00000000000E+00  0.18507002007E+04  0.18507002007E+04  0.00000000000E+00 0.  1.
         -2   -1    0    0    0  501 -0.00000000000E+00 -0.00000000000E+00 -0.45213694159E+02  0.45213694159E+02  0.00000000000E+00 0. -1.
          6    1    1    2  502    0 -0.20147822719E+03 -0.30439523715E+02  0.12651217743E+04  0.12930514856E+04  0.17300000000E+03 0.  1.
         -6    1    1    2    0  501  0.20147822719E+03  0.30439523715E+02  0.54036473228E+03  0.60286240929E+03  0.17300000000E+03 0. -1.
<mgrwt>
<rscale>  2 0.26729953E+03</rscale>
<asrwt>0</asrwt>
<pdfrwt beam="1">  1        2 0.28472305E+00 0.26729953E+03</pdfrwt>
<pdfrwt beam="2">  1       -2 0.69559544E-02 0.26729953E+03</pdfrwt>
<totfact> 0.10484841E+03</totfact>
</mgrwt>
</event>
<event>
 4    1  0.7354369E-001  0.1837712E+03  0.7546771E-02  0.1164202E+00
          2   -1    0    0  502    0  0.00000000000E+00  0.00000000000E+00  0.11464175005E+04  0.11464175005E+04  0.00000000000E+00 0.  1.
         -2   -1    0    0    0  501 -0.00000000000E+00 -0.00000000000E+00 -0.38726257920E+02  0.38726257920E+02  0.00000000000E+00 0. -1.
          6    1    1    2  502    0 -0.61910859068E+02 -0.31450013497E+01  0.84372909321E+03  0.86351064164E+03  0.17300000000E+03 0.  1.
         -6    1    1    2    0  501  0.61910859068E+02  0.31450013497E+01  0.26396214934E+03  0.32163311675E+03  0.17300000000E+03 0. -1.
<mgrwt>
<rscale>  2 0.18377118E+03</rscale>
<asrwt>0</asrwt>
<pdfrwt beam="1">  1        2 0.17637190E+00 0.18377118E+03</pdfrwt>
<pdfrwt beam="2">  1       -2 0.59578867E-02 0.18377118E+03</pdfrwt>
<totfact> 0.31883148E+03</totfact>
</mgrwt>
</event>
<event>
 4    1  0.7354369E-001  0.1762164E+03  0.7546771E-02  0.1171516E+00
          1   -1    0    0  502    0  0.00000000000E+00  0.00000000000E+00  0.12619208161E+04  0.12619208161E+04  0.00000000000E+00 0.  1.
         -1   -1    0    0    0  501 -0.00000000000E+00 -0.00000000000E+00 -0.24607229084E+02  0.24607229084E+02  0.00000000000E+00 0. -1.
          6    1    1    2  502    0  0.70186400578E+01  0.32771307616E+02  0.61722103484E+03  0.64188318700E+03  0.17300000000E+03 0. -1.
         -6    1    1    2    0  501 -0.70186400578E+01 -0.32771307616E+02  0.62009255214E+03  0.64464485814E+03  0.17300000000E+03 0. -1.
<mgrwt>
<rscale>  2 0.17621640E+03</rscale>
<asrwt>0</asrwt>
<pdfrwt beam="1">  1        1 0.19414161E+00 0.17621640E+03</pdfrwt>
<pdfrwt beam="2">  1       -1 0.37857285E-02 0.17621640E+03</pdfrwt>
<totfact> 0.27534964E+03</totfact>
</mgrwt>
</event>
<event>
 4    1  0.7354369E-001  0.1998320E+03  0.7546771E-02  0.1149881E+00
          3   -1    0    0  502    0  0.00000000000E+00  0.00000000000E+00  0.23616971551E+03  0.23616971551E+03  0.00000000000E+00 0. -1.
         -3   -1    0    0    0  501 -0.00000000000E+00 -0.00000000000E+00 -0.21302034205E+03  0.21302034205E+03  0.00000000000E+00 0.  1.
          6    1    1    2  502    0  0.98029369366E+02 -0.19851363703E+02 -0.90424094715E+02  0.21933843896E+03  0.17300000000E+03 0.  1.
         -6    1    1    2    0  501 -0.98029369366E+02  0.19851363703E+02  0.11357346818E+03  0.22985161860E+03  0.17300000000E+03 0. -1.
<mgrwt>
<rscale>  2 0.19983201E+03</rscale>
<asrwt>0</asrwt>
<pdfrwt beam="1">  1        3 0.36333803E-01 0.19983201E+03</pdfrwt>
<pdfrwt beam="2">  1       -3 0.32772360E-01 0.19983201E+03</pdfrwt>
<totfact> 0.16606374E+02</totfact>
</mgrwt>
</event>
<event>
 4    1  0.7354369E-001  0.2013170E+03  0.7546771E-02  0.1148633E+00
         -2   -1    0    0    0  501 -0.00000000000E+00  0.00000000000E+00  0.74762846355E+02  0.74762846355E+02  0.00000000000E+00 0.  1.
          2   -1    0    0  502    0  0.00000000000E+00 -0.00000000000E+00 -0.54881744396E+03  0.54881744396E+03  0.00000000000E+00 0. -1.
          6    1    1    2  502    0 -0.85921602125E+02  0.56718846336E+02 -0.27153522964E+03  0.33802356453E+03  0.17300000000E+03 0. -1.
         -6    1    1    2    0  501  0.85921602125E+02 -0.56718846336E+02 -0.20251936796E+03  0.28555672579E+03  0.17300000000E+03 0. -1.
<mgrwt>
<rscale>  2 0.20131704E+03</rscale>
<asrwt>0</asrwt>
<pdfrwt beam="1">  1        2 0.84433449E-01 0.20131704E+03</pdfrwt>
<pdfrwt beam="2">  1       -2 0.11501977E-01 0.20131704E+03</pdfrwt>
<totfact> 0.29304723E+03</totfact>
</mgrwt>
</event>
<event>
 4    1  0.7354369E-001  0.2595984E+03  0.7546771E-02  0.1107385E+00
         -2   -1    0    0    0  501 -0.00000000000E+00  0.00000000000E+00  0.13033553951E+04  0.13033553951E+04  0.00000000000E+00 0.  1.
          2   -1    0    0  502    0  0.00000000000E+00 -0.00000000000E+00 -0.78320441938E+02  0.78320441938E+02  0.00000000000E+00 0. -1.
          6    1    1    2  502    0  0.10451189829E+02 -0.19326945774E+03  0.10152318963E+04  0.10478965187E+04  0.17300000000E+03 0. -1.
         -6    1    1    2    0  501 -0.10451189829E+02  0.19326945774E+03  0.20980305683E+03  0.33377931829E+03  0.17300000000E+03 0. -1.
<mgrwt>
<rscale>  2 0.25959836E+03</rscale>
<asrwt>0</asrwt>
<pdfrwt beam="1">  1        2 0.12049300E-01 0.25959836E+03</pdfrwt>
<pdfrwt beam="2">  1       -2 0.20051620E+00 0.25959836E+03</pdfrwt>
<totfact> 0.72906072E+01</totfact>
</mgrwt>
</event>
<event>
 4    1  0.7354369E-001  0.3013707E+03  0.7546771E-02  0.1084557E+00
          2   -1    0    0  502    0  0.00000000000E+00  0.00000000000E+00  0.16446323819E+04  0.16446323819E+04  0.00000000000E+00 0.  1.
         -2   -1    0    0    0  501 -0.00000000000E+00 -0.00000000000E+00 -0.58547205893E+02  0.58547205893E+02  0.00000000000E+00 0. -1.
          6    1    1    2  502    0  0.12377419991E+03  0.21348352896E+03  0.59017501509E+03  0.66266946371E+03  0.17300000000E+03 0. -1.
         -6    1    1    2    0  501 -0.12377419991E+03 -0.21348352896E+03  0.99591016092E+03  0.10405101241E+04  0.17300000000E+03 0.  1.
<mgrwt>
<rscale>  2 0.30137065E+03</rscale>
<asrwt>0</asrwt>
<pdfrwt beam="1">  1        2 0.25302033E+00 0.30137065E+03</pdfrwt>
<pdfrwt beam="2">  1       -2 0.90072637E-02 0.30137065E+03</pdfrwt>
<totfact> 0.89455077E+02</totfact>
</mgrwt>
</event>
<event>
 4    1  0.7354369E-001  0.1842665E+03  0.7546771E-02  0.1163737E+00
          2   -1    0    0  502    0  0.00000000000E+00  0.00000000000E+00  0.86116457031E+03  0.86116457031E+03  0.00000000000E+00 0. -1.
         -2   -1    0    0    0  501 -0.00000000000E+00 -0.00000000000E+00 -0.64807525206E+02  0.64807525206E+02  0.00000000000E+00 0.  1.
          6    1    1    2  502    0 -0.54250161609E+02 -0.32894624726E+02  0.68790990828E+03  0.71216162370E+03  0.17300000000E+03 0. -1.
         -6    1    1    2    0  501  0.54250161609E+02  0.32894624726E+02  0.10844713683E+03  0.21381047181E+03  0.17300000000E+03 0. -1.
<mgrwt>
<rscale>  2 0.18426648E+03</rscale>
<asrwt>0</asrwt>
<pdfrwt beam="1">  1        2 0.13248685E+00 0.18426648E+03</pdfrwt>
<pdfrwt beam="2">  1       -2 0.99703891E-02 0.18426648E+03</pdfrwt>
<totfact> 0.21355405E+03</totfact>
</mgrwt>
</event>
<event>
 4    1  0.7354369E-001  0.4450357E+03  0.7546771E-02  0.1029213E+00
         -2   -1    0    0    0  501 -0.00000000000E+00  0.00000000000E+00  0.53403535460E+02  0.53403535460E+02  0.00000000000E+00 0.  1.
          2   -1    0    0  502    0  0.00000000000E+00 -0.00000000000E+00 -0.37263559609E+04  0.37263559609E+04  0.00000000000E+00 0. -1.
          6    1    1    2  502    0  0.21534926935E+03  0.34893049810E+03 -0.17063265850E+04  0.17634078413E+04  0.17300000000E+03 0.  1.
         -6    1    1    2    0  501 -0.21534926935E+03 -0.34893049810E+03 -0.19666258405E+04  0.20163516551E+04  0.17300000000E+03 0.  1.
<mgrwt>
<rscale>  2 0.44503573E+03</rscale>
<asrwt>0</asrwt>
<pdfrwt beam="1">  1        2 0.57328565E+00 0.44503573E+03</pdfrwt>
<pdfrwt beam="2">  1       -2 0.82159269E-02 0.44503573E+03</pdfrwt>
<totfact> 0.60807748E+01</totfact>
</mgrwt>
</event>
<event>
 4    1  0.7354369E-001  0.1944727E+03  0.7546771E-02  0.1154488E+00
          2   -1    0    0  502    0  0.00000000000E+00  0.00000000000E+00  0.18090278315E+03  0.18090278315E+03  0.00000000000E+00 0. -1.
         -2   -1    0    0    0  501 -0.00000000000E+00 -0.00000000000E+00 -0.26980839418E+03  0.26980839418E+03  0.00000000000E+00 0.  1.
          6    1    1    2  502    0 -0.20342737803E+02  0.86468444896E+02 -0.15138447893E+03  0.24644853297E+03  0.17300000000E+03 0.  1.
         -6    1    1    2    0  501  0.20342737803E+02 -0.86468444896E+02  0.62478867908E+02  0.20426264436E+03  0.17300000000E+03 0. -1.
<mgrwt>
<rscale>  2 0.19447267E+03</rscale>
<asrwt>0</asrwt>
<pdfrwt beam="1">  1        2 0.27831197E-01 0.19447267E+03</pdfrwt>
<pdfrwt beam="2">  1       -2 0.41508984E-01 0.19447267E+03</pdfrwt>
<totfact> 0.10510122E+03</totfact>
</mgrwt>
</event>
<event>
 4    1  0.7354369E-001  0.2110984E+03  0.7546771E-02  0.1140699E+00
          2   -1    0    0  502    0  0.00000000000E+00  0.00000000000E+00  0.22345269336E+04  0.22345269336E+04  0.00000000000E+00 0. -1.
         -2   -1    0    0    0  501 -0.00000000000E+00 -0.00000000000E+00 -0.20761031388E+02  0.20761031388E+02  0.00000000000E+00 0.  1.
          6    1    1    2  502    0  0.11362864097E+03 -0.41497756650E+02  0.88300650773E+03  0.90788932395E+03  0.17300000000E+03 0. -1.
         -6    1    1    2    0  501 -0.11362864097E+03  0.41497756650E+02  0.13307593945E+04  0.13473986410E+04  0.17300000000E+03 0. -1.
<mgrwt>
<rscale>  2 0.21109839E+03</rscale>
<asrwt>0</asrwt>
<pdfrwt beam="1">  1        2 0.34377318E+00 0.21109839E+03</pdfrwt>
<pdfrwt beam="2">  1       -2 0.31940066E-02 0.21109839E+03</pdfrwt>
<totfact> 0.21609631E+03</totfact>
</mgrwt>
</event>
<event>
 4    1  0.7354369E-001  0.1785062E+03  0.7546771E-02  0.1169257E+00
          1   -1    0    0  502    0  0.00000000000E+00  0.00000000000E+00  0.64058620227E+03  0.64058620227E+03  0.00000000000E+00 0. -1.
         -1   -1    0    0    0  501 -0.00000000000E+00 -0.00000000000E+00 -0.51037688236E+02  0.51037688236E+02  0.00000000000E+00 0.  1.
          6    1    1    2  502    0  0.14594757333E+02  0.41502318629E+02  0.23968875353E+03  0.29885640024E+03  0.17300000000E+03 0. -1.
         -6    1    1    2    0  501 -0.14594757333E+02 -0.41502318629E+02  0.34985976051E+03  0.39276749027E+03  0.17300000000E+03 0. -1.
<mgrwt>
<rscale>  2 0.17850616E+03</rscale>
<asrwt>0</asrwt>
<pdfrwt beam="1">  1        1 0.98551718E-01 0.17850616E+03</pdfrwt>
<pdfrwt beam="2">  1       -1 0.78519525E-02 0.17850616E+03</pdfrwt>
<totfact> 0.28038391E+03</totfact>
</mgrwt>
</event>
<event>
 4    1  0.7354369E-001  0.1960439E+03  0.7546771E-02  0.1153120E+00
          2   -1    0    0  502    0  0.00000000000E+00  0.00000000000E+00  0.19638814729E+04  0.19638814729E+04  0.00000000000E+00 0.  1.
         -2   -1    0    0    0  501 -0.00000000000E+00 -0.00000000000E+00 -0.19586253689E+02  0.19586253689E+02  0.00000000000E+00 0. -1.
          6    1    1    2  502    0  0.32833617261E+02  0.86175157957E+02  0.10006970075E+04  0.10197194247E+04  0.17300000000E+03 0.  1.
         -6    1    1    2    0  501 -0.32833617261E+02 -0.86175157957E+02  0.94359821171E+03  0.96374830190E+03  0.17300000000E+03 0.  1.
<mgrwt>
<rscale>  2 0.19604388E+03</rscale>
<asrwt>0</asrwt>
<pdfrwt beam="1">  1        2 0.30213546E+00 0.19604388E+03</pdfrwt>
<pdfrwt beam="2">  1       -2 0.30132714E-02 0.19604388E+03</pdfrwt>
<totfact> 0.32670911E+03</totfact>
</mgrwt>
</event>
<event>
 4    1  0.7354369E-001  0.1734137E+03  0.7546771E-02  0.1174334E+00
          2   -1    0    0  502    0  0.00000000000E+00  0.00000000000E+00  0.16745404053E+04  0.16745404053E+04  0.00000000000E+00 0. -1.
         -2   -1    0    0    0  501 -0.00000000000E+00 -0.00000000000E+00 -0.17958911231E+02  0.17958911231E+02  0.00000000000E+00 0.  1.
          6    1    1    2  502    0  0.11433678641E+02 -0.35490771742E+01  0.83206292781E+03  0.84994178670E+03  0.17300000000E+03 0. -1.
         -6    1    1    2    0  501 -0.11433678641E+02  0.35490771742E+01  0.82451856622E+03  0.84255752979E+03  0.17300000000E+03 0.  1.
<mgrwt>
<rscale>  2 0.17341374E+03</rscale>
<asrwt>0</asrwt>
<pdfrwt beam="1">  1        2 0.25762148E+00 0.17341374E+03</pdfrwt>
<pdfrwt beam="2">  1       -2 0.27629107E-02 0.17341374E+03</pdfrwt>
<totfact> 0.52396121E+03</totfact>
</mgrwt>
</event>
<event>
 4    1  0.7354369E-001  0.1874505E+03  0.7546771E-02  0.1160781E+00
          2   -1    0    0  502    0  0.00000000000E+00  0.00000000000E+00  0.12680614950E+04  0.12680614950E+04  0.00000000000E+00 0.  1.
         -2   -1    0    0    0  501 -0.00000000000E+00 -0.00000000000E+00 -0.29434458965E+02  0.29434458965E+02  0.00000000000E+00 0. -1.
          6    1    1    2  502    0 -0.42367024764E+02  0.58426982104E+02  0.46227546434E+03  0.49883492456E+03  0.17300000000E+03 0. -1.
         -6    1    1    2    0  501  0.42367024764E+02 -0.58426982104E+02  0.77635157171E+03  0.79866102943E+03  0.17300000000E+03 0.  1.
<mgrwt>
<rscale>  2 0.18745047E+03</rscale>
<asrwt>0</asrwt>
<pdfrwt beam="1">  1        2 0.19508634E+00 0.18745047E+03</pdfrwt>
<pdfrwt beam="2">  1       -2 0.45283793E-02 0.18745047E+03</pdfrwt>
<totfact> 0.41326197E+03</totfact>
</mgrwt>
</event>
<event>
 4    1  0.7354369E-001  0.1981838E+03  0.7546771E-02  0.1151280E+00
          2   -1    0    0  502    0  0.00000000000E+00  0.00000000000E+00  0.11807518835E+04  0.11807518835E+04  0.00000000000E+00 0.  1.
         -2   -1    0    0    0  501 -0.00000000000E+00 -0.00000000000E+00 -0.33556255165E+02  0.33556255165E+02  0.00000000000E+00 0. -1.
          6    1    1    2  502    0 -0.31256365246E+02 -0.91492406362E+02  0.51695946143E+03  0.55364601105E+03  0.17300000000E+03 0. -1.
         -6    1    1    2    0  501  0.31256365246E+02  0.91492406362E+02  0.63023616691E+03  0.66066212762E+03  0.17300000000E+03 0. -1.
<mgrwt>
<rscale>  2 0.19818381E+03</rscale>
<asrwt>0</asrwt>
<pdfrwt beam="1">  1        2 0.18165410E+00 0.19818381E+03</pdfrwt>
<pdfrwt beam="2">  1       -2 0.51625017E-02 0.19818381E+03</pdfrwt>
<totfact> 0.37965314E+03</totfact>
</mgrwt>
</event>
<event>
 4    1  0.7354369E-001  0.1767476E+03  0.7546771E-02  0.1170988E+00
         -2   -1    0    0    0  501 -0.00000000000E+00  0.00000000000E+00  0.93134893659E+02  0.93134893659E+02  0.00000000000E+00 0.  1.
          2   -1    0    0  502    0  0.00000000000E+00 -0.00000000000E+00 -0.55570704216E+03  0.55570704216E+03  0.00000000000E+00 0. -1.
          6    1    1    2  502    0  0.26103979873E+02 -0.25086110674E+02 -0.27029545795E+02  0.17880248058E+03  0.17300000000E+03 0.  1.
         -6    1    1    2    0  501 -0.26103979873E+02  0.25086110674E+02 -0.43554260271E+03  0.47003945524E+03  0.17300000000E+03 0. -1.
<mgrwt>
<rscale>  2 0.17674765E+03</rscale>
<asrwt>0</asrwt>
<pdfrwt beam="1">  1        2 0.85493393E-01 0.17674765E+03</pdfrwt>
<pdfrwt beam="2">  1       -2 0.14328445E-01 0.17674765E+03</pdfrwt>
<totfact> 0.20169828E+03</totfact>
</mgrwt>
</event>
<event>
 4    1  0.7354369E-001  0.2774551E+03  0.7546771E-02  0.1097087E+00
          2   -1    0    0  502    0  0.00000000000E+00  0.00000000000E+00  0.24775114434E+04  0.24775114434E+04  0.00000000000E+00 0.  1.
         -2   -1    0    0    0  501 -0.00000000000E+00 -0.00000000000E+00 -0.42594676648E+02  0.42594676648E+02  0.00000000000E+00 0. -1.
          6    1    1    2  502    0 -0.19187221594E+03  0.10117993083E+03  0.56208745485E+03  0.62683620872E+03  0.17300000000E+03 0. -1.
         -6    1    1    2    0  501  0.19187221594E+03 -0.10117993083E+03  0.18728293119E+04  0.18932699114E+04  0.17300000000E+03 0.  1.
<mgrwt>
<rscale>  2 0.27745509E+03</rscale>
<asrwt>0</asrwt>
<pdfrwt beam="1">  1        2 0.38115549E+00 0.27745509E+03</pdfrwt>
<pdfrwt beam="2">  1       -2 0.65530291E-02 0.27745509E+03</pdfrwt>
<totfact> 0.53237042E+02</totfact>
</mgrwt>
</event>
<event>
 4    1  0.7354369E-001  0.2637268E+03  0.7546771E-02  0.1104925E+00
         -2   -1    0    0    0  501 -0.00000000000E+00  0.00000000000E+00  0.29437559380E+03  0.29437559380E+03  0.00000000000E+00 0.  1.
          2   -1    0    0  502    0  0.00000000000E+00 -0.00000000000E+00 -0.35829507723E+03  0.35829507723E+03  0.00000000000E+00 0. -1.
          6    1    1    2  502    0 -0.19505735402E+03  0.39691785900E+02  0.15848549490E+03  0.30768402837E+03  0.17300000000E+03 0.  1.
         -6    1    1    2    0  501  0.19505735402E+03 -0.39691785900E+02 -0.22240497833E+03  0.34498664265E+03  0.17300000000E+03 0. -1.
<mgrwt>
<rscale>  2 0.26372677E+03</rscale>
<asrwt>0</asrwt>
<pdfrwt beam="1">  1        2 0.55122320E-01 0.26372677E+03</pdfrwt>
<pdfrwt beam="2">  1       -2 0.45288553E-01 0.26372677E+03</pdfrwt>
<totfact> 0.42370938E+02</totfact>
</mgrwt>
</event>
<event>
 4    1  0.7354369E-001  0.2926319E+03  0.7546771E-02  0.1088983E+00
         -4   -1    0    0    0  501 -0.00000000000E+00  0.00000000000E+00  0.20071654950E+03  0.20071654950E+03  0.00000000000E+00 0.  1.
          4   -1    0    0  502    0  0.00000000000E+00 -0.00000000000E+00 -0.43171862203E+03  0.43171862203E+03  0.00000000000E+00 0. -1.
          6    1    1    2  502    0  0.13575025794E+03  0.19307062945E+03 -0.14980341319E+03  0.32874680697E+03  0.17300000000E+03 0. -1.
         -6    1    1    2    0  501 -0.13575025794E+03 -0.19307062945E+03 -0.81198659337E+02  0.30368836456E+03  0.17300000000E+03 0. -1.
<mgrwt>
<rscale>  2 0.29263185E+03</rscale>
<asrwt>0</asrwt>
<pdfrwt beam="1">  1        4 0.66418249E-01 0.29263185E+03</pdfrwt>
<pdfrwt beam="2">  1       -4 0.30879469E-01 0.29263185E+03</pdfrwt>
<totfact> 0.39735680E+01</totfact>
</mgrwt>
</event>
<event>
 4    1  0.7354369E-001  0.3507694E+03  0.7546771E-02  0.1062300E+00
         -1   -1    0    0    0  501 -0.00000000000E+00  0.00000000000E+00  0.16003349103E+03  0.16003349103E+03  0.00000000000E+00 0.  1.
          1   -1    0    0  502    0  0.00000000000E+00 -0.00000000000E+00 -0.89759607896E+03  0.89759607896E+03  0.00000000000E+00 0. -1.
          6    1    1    2  502    0 -0.58474457160E+02 -0.29948438474E+03 -0.56907044416E+03  0.66849108390E+03  0.17300000000E+03 0. -1.
         -6    1    1    2    0  501  0.58474457160E+02  0.29948438474E+03 -0.16849214377E+03  0.38913848609E+03  0.17300000000E+03 0.  1.
<mgrwt>
<rscale>  2 0.35076938E+03</rscale>
<asrwt>0</asrwt>
<pdfrwt beam="1">  1        1 0.13809170E+00 0.35076938E+03</pdfrwt>
<pdfrwt beam="2">  1       -1 0.24620537E-01 0.35076938E+03</pdfrwt>
<totfact> 0.27368616E+02</totfact>
</mgrwt>
</event>
<event>
 4    1  0.7354369E-001  0.1873705E+03  0.7546771E-02  0.1160855E+00
          3   -1    0    0  502    0  0.00000000000E+00  0.00000000000E+00  0.85296963189E+02  0.85296963189E+02  0.00000000000E+00 0.  1.
         -3   -1    0    0    0  501 -0.00000000000E+00 -0.00000000000E+00 -0.47523312572E+03  0.47523312572E+03  0.00000000000E+00 0. -1.
          6    1    1    2  502    0  0.55560100731E+02 -0.45736120013E+02 -0.29752801139E+03  0.35161148307E+03  0.17300000000E+03 0. -1.
         -6    1    1    2    0  501 -0.55560100731E+02  0.45736120013E+02 -0.92408151143E+02  0.20891860584E+03  0.17300000000E+03 0.  1.
<mgrwt>
<rscale>  2 0.18737054E+03</rscale>
<asrwt>0</asrwt>
<pdfrwt beam="1">  1        3 0.13122610E-01 0.18737054E+03</pdfrwt>
<pdfrwt beam="2">  1       -3 0.73112788E-01 0.18737054E+03</pdfrwt>
<totfact> 0.20521393E+02</totfact>
</mgrwt>
</event>
<event>
 4    1  0.7354369E-001  0.1764129E+03  0.7546771E-02  0.1171320E+00
         -2   -1    0    0    0  501 -0.00000000000E+00  0.00000000000E+00  0.17268498255E+02  0.17268498255E+02  0.00000000000E+00 0. -1.
          2   -1    0    0  502    0  0.00000000000E+00 -0.00000000000E+00 -0.22362864526E+04  0.22362864526E+04  0.00000000000E+00 0.  1.
          6    1    1    2  502    0 -0.32638128355E+02  0.11281573284E+02 -0.16059364235E+04  0.16155968920E+04  0.17300000000E+03 0.  1.
         -6    1    1    2    0  501  0.32638128355E+02 -0.11281573284E+02 -0.61308153091E+03  0.63795805886E+03  0.17300000000E+03 0. -1.
<mgrwt>
<rscale>  2 0.17641293E+03</rscale>
<asrwt>0</asrwt>
<pdfrwt beam="1">  1        2 0.34404411E+00 0.17641293E+03</pdfrwt>
<pdfrwt beam="2">  1       -2 0.26566917E-02 0.17641293E+03</pdfrwt>
<totfact> 0.28394260E+03</totfact>
</mgrwt>
</event>
<event>
 4    1  0.7354369E-001  0.2456611E+03  0.7546771E-02  0.1116078E+00
         -2   -1    0    0    0  501 -0.00000000000E+00  0.00000000000E+00  0.37806892886E+02  0.37806892886E+02  0.00000000000E+00 0.  1.
          2   -1    0    0  502    0  0.00000000000E+00 -0.00000000000E+00 -0.16267285383E+04  0.16267285383E+04  0.00000000000E+00 0. -1.
          6    1    1    2  502    0  0.15441965545E+03 -0.81086127331E+02 -0.68054692700E+03  0.72352851353E+03  0.17300000000E+03 0.  1.
         -6    1    1    2    0  501 -0.15441965545E+03  0.81086127331E+02 -0.90837471841E+03  0.94100691766E+03  0.17300000000E+03 0. -1.
<mgrwt>
<rscale>  2 0.24566113E+03</rscale>
<asrwt>0</asrwt>
<pdfrwt beam="1">  1        2 0.25026594E+00 0.24566113E+03</pdfrwt>
<pdfrwt beam="2">  1       -2 0.58164449E-02 0.24566113E+03</pdfrwt>
<totfact> 0.18156618E+03</totfact>
</mgrwt>
</event>
<event>
 4    1  0.7354369E-001  0.2457001E+03  0.7546771E-02  0.1116053E+00
         -2   -1    0    0    0  501 -0.00000000000E+00  0.00000000000E+00  0.40620927318E+03  0.40620927318E+03  0.00000000000E+00 0. -1.
          2   -1    0    0  502    0  0.00000000000E+00 -0.00000000000E+00 -0.19156022152E+03  0.19156022152E+03  0.00000000000E+00 0.  1.
          6    1    1    2  502    0 -0.17335528280E+03  0.19684844281E+02 -0.34193430360E+02  0.24806801053E+03  0.17300000000E+03 0.  1.
         -6    1    1    2    0  501  0.17335528280E+03 -0.19684844281E+02  0.24884248202E+03  0.34970148417E+03  0.17300000000E+03 0. -1.
<mgrwt>
<rscale>  2 0.24570012E+03</rscale>
<asrwt>0</asrwt>
<pdfrwt beam="1">  1        2 0.29470803E-01 0.24570012E+03</pdfrwt>
<pdfrwt beam="2">  1       -2 0.62493734E-01 0.24570012E+03</pdfrwt>
<totfact> 0.43588426E+02</totfact>
</mgrwt>
</event>
<event>
 4    1  0.7354369E-001  0.1949293E+03  0.7546771E-02  0.1154089E+00
          2   -1    0    0  502    0  0.00000000000E+00  0.00000000000E+00  0.72807419951E+02  0.72807419951E+02  0.00000000000E+00 0. -1.
         -2   -1    0    0    0  501 -0.00000000000E+00 -0.00000000000E+00 -0.58053494419E+03  0.58053494419E+03  0.00000000000E+00 0.  1.
          6    1    1    2  502    0  0.53596651682E+02 -0.72082006144E+02 -0.35769173050E+03  0.40735830758E+03  0.17300000000E+03 0.  1.
         -6    1    1    2    0  501 -0.53596651682E+02  0.72082006144E+02 -0.15003579373E+03  0.24598405656E+03  0.17300000000E+03 0. -1.
<mgrwt>
<rscale>  2 0.19492926E+03</rscale>
<asrwt>0</asrwt>
<pdfrwt beam="1">  1        2 0.11201142E-01 0.19492926E+03</pdfrwt>
<pdfrwt beam="2">  1       -2 0.89313068E-01 0.19492926E+03</pdfrwt>
<totfact> 0.61484867E+02</totfact>
</mgrwt>
</event>
<event>
 4    1  0.7354369E-001  0.3074051E+03  0.7546771E-02  0.1081596E+00
         -2   -1    0    0    0  501 -0.00000000000E+00  0.00000000000E+00  0.20706321832E+03  0.20706321832E+03  0.00000000000E+00 0.  1.
          2   -1    0    0  502    0  0.00000000000E+00 -0.00000000000E+00 -0.60302710908E+03  0.60302710908E+03  0.00000000000E+00 0. -1.
          6    1    1    2  502    0 -0.42688737125E+02  0.25049265436E+03  0.17664610804E+01  0.30741017965E+03  0.17300000000E+03 0.  1.
         -6    1    1    2    0  501  0.42688737125E+02 -0.25049265436E+03 -0.39773035184E+03  0.50268014775E+03  0.17300000000E+03 0. -1.
<mgrwt>
<rscale>  2 0.30740510E+03</rscale>
<asrwt>0</asrwt>
<pdfrwt beam="1">  1        2 0.92773400E-01 0.30740510E+03</pdfrwt>
<pdfrwt beam="2">  1       -2 0.31855880E-01 0.30740510E+03</pdfrwt>
<totfact> 0.46116938E+02</totfact>
</mgrwt>
</event>
<event>
 4    1  0.7354369E-001  0.1885199E+03  0.7546771E-02  0.1159803E+00
          1   -1    0    0  502    0  0.00000000000E+00  0.00000000000E+00  0.46793697908E+03  0.46793697908E+03  0.00000000000E+00 0. -1.
         -1   -1    0    0    0  501 -0.00000000000E+00 -0.00000000000E+00 -0.76157968234E+02  0.76157968234E+02  0.00000000000E+00 0.  1.
          6    1    1    2  502    0  0.42925296269E+02  0.61385336541E+02  0.21011109897E+03  0.28228782211E+03  0.17300000000E+03 0. -1.
         -6    1    1    2    0  501 -0.42925296269E+02 -0.61385336541E+02  0.18166791188E+03  0.26180712521E+03  0.17300000000E+03 0.  1.
<mgrwt>
<rscale>  2 0.18851987E+03</rscale>
<asrwt>0</asrwt>
<pdfrwt beam="1">  1        1 0.71990303E-01 0.18851987E+03</pdfrwt>
<pdfrwt beam="2">  1       -1 0.11716611E-01 0.18851987E+03</pdfrwt>
<totfact> 0.23194635E+03</totfact>
</mgrwt>
</event>
<event>
 4    1  0.7354369E-001  0.1969503E+03  0.7546771E-02  0.1152338E+00
         -1   -1    0    0    0  501 -0.00000000000E+00  0.00000000000E+00  0.55857515091E+02  0.55857515091E+02  0.00000000000E+00 0. -1.
          1   -1    0    0  502    0  0.00000000000E+00 -0.00000000000E+00 -0.73152371698E+03  0.73152371698E+03  0.00000000000E+00 0.  1.
          6    1    1    2  502    0 -0.49861411685E+01 -0.93997580445E+02 -0.42647978012E+03  0.46975994889E+03  0.17300000000E+03 0.  1.
         -6    1    1    2    0  501  0.49861411685E+01  0.93997580445E+02 -0.24918642177E+03  0.31762128318E+03  0.17300000000E+03 0.  1.
<mgrwt>
<rscale>  2 0.19695026E+03</rscale>
<asrwt>0</asrwt>
<pdfrwt beam="1">  1        1 0.11254211E+00 0.19695026E+03</pdfrwt>
<pdfrwt beam="2">  1       -1 0.85934641E-02 0.19695026E+03</pdfrwt>
<totfact> 0.20243068E+03</totfact>
</mgrwt>
</event>
<event>
 4    1  0.7354369E-001  0.2454190E+03  0.7546771E-02  0.1116235E+00
          1   -1    0    0  502    0  0.00000000000E+00  0.00000000000E+00  0.13782826383E+03  0.13782826383E+03  0.00000000000E+00 0.  1.
         -1   -1    0    0    0  501 -0.00000000000E+00 -0.00000000000E+00 -0.45071190271E+03  0.45071190271E+03  0.00000000000E+00 0. -1.
          6    1    1    2  502    0 -0.41990925265E+02  0.16893266922E+03 -0.20777510763E+03  0.32156022746E+03  0.17300000000E+03 0.  1.
         -6    1    1    2    0  501  0.41990925265E+02 -0.16893266922E+03 -0.10510853125E+03  0.26697993909E+03  0.17300000000E+03 0.  1.
<mgrwt>
<rscale>  2 0.24541900E+03</rscale>
<asrwt>0</asrwt>
<pdfrwt beam="1">  1        1 0.21204349E-01 0.24541900E+03</pdfrwt>
<pdfrwt beam="2">  1       -1 0.69340291E-01 0.24541900E+03</pdfrwt>
<totfact> 0.51869142E+02</totfact>
</mgrwt>
</event>
<event>
 4    1  0.7354369E-001  0.2508301E+03  0.7546771E-02  0.1112781E+00
         -2   -1    0    0    0  501 -0.00000000000E+00  0.00000000000E+00  0.22159293914E+03  0.22159293914E+03  0.00000000000E+00 0. -1.
          2   -1    0    0  502    0  0.00000000000E+00 -0.00000000000E+00 -0.41933113866E+03  0.41933113866E+03  0.00000000000E+00 0.  1.
          6    1    1    2  502    0  0.15844913404E+03  0.88772813273E+02  0.83234052397E+02  0.26427948829E+03  0.17300000000E+03 0. -1.
         -6    1    1    2    0  501 -0.15844913404E+03 -0.88772813273E+02 -0.28097225193E+03  0.37664458951E+03  0.17300000000E+03 0.  1.
<mgrwt>
<rscale>  2 0.25083010E+03</rscale>
<asrwt>0</asrwt>
<pdfrwt beam="1">  1        2 0.64512483E-01 0.25083010E+03</pdfrwt>
<pdfrwt beam="2">  1       -2 0.34091221E-01 0.25083010E+03</pdfrwt>
<totfact> 0.61413494E+02</totfact>
</mgrwt>
</event>
<event>
 4    1  0.7354369E-001  0.1829189E+03  0.7546771E-02  0.1165008E+00
          2   -1    0    0  502    0  0.00000000000E+00  0.00000000000E+00  0.54054211415E+03  0.54054211415E+03  0.00000000000E+00 0. -1.
         -2   -1    0    0    0  501 -0.00000000000E+00 -0.00000000000E+00 -0.75495369371E+02  0.75495369371E+02  0.00000000000E+00 0.  1.
          6    1    1    2  502    0 -0.57462343004E+02  0.15112615638E+02  0.10181008840E+03  0.20934327339E+03  0.17300000000E+03 0.  1.
         -6    1    1    2    0  501  0.57462343004E+02 -0.15112615638E+02  0.36323665638E+03  0.40669421013E+03  0.17300000000E+03 0. -1.
<mgrwt>
<rscale>  2 0.18291887E+03</rscale>
<asrwt>0</asrwt>
<pdfrwt beam="1">  1        2 0.83160323E-01 0.18291887E+03</pdfrwt>
<pdfrwt beam="2">  1       -2 0.11614673E-01 0.18291887E+03</pdfrwt>
<totfact> 0.29261974E+03</totfact>
</mgrwt>
</event>
<event>
 4    1  0.7354369E-001  0.1940569E+03  0.7546771E-02  0.1154852E+00
         -2   -1    0    0    0  501 -0.00000000000E+00  0.00000000000E+00  0.28259417466E+03  0.28259417466E+03  0.00000000000E+00 0.  1.
          2   -1    0    0  502    0  0.00000000000E+00 -0.00000000000E+00 -0.20194711606E+03  0.20194711606E+03  0.00000000000E+00 0. -1.
          6    1    1    2  502    0  0.82882528483E+02 -0.29318510168E+02 -0.10097062977E+03  0.21875364372E+03  0.17300000000E+03 0. -1.
         -6    1    1    2    0  501 -0.82882528483E+02  0.29318510168E+02  0.18161768837E+03  0.26578764700E+03  0.17300000000E+03 0.  1.
<mgrwt>
<rscale>  2 0.19405692E+03</rscale>
<asrwt>0</asrwt>
<pdfrwt beam="1">  1        2 0.31068787E-01 0.19405692E+03</pdfrwt>
<pdfrwt beam="2">  1       -2 0.43476027E-01 0.19405692E+03</pdfrwt>
<totfact> 0.85197299E+02</totfact>
</mgrwt>
</event>
<event>
 4    1  0.7354369E-001  0.2837989E+03  0.7546771E-02  0.1093632E+00
          1   -1    0    0  502    0  0.00000000000E+00  0.00000000000E+00  0.52424543946E+03  0.52424543946E+03  0.00000000000E+00 0. -1.
         -1   -1    0    0    0  501 -0.00000000000E+00 -0.00000000000E+00 -0.16463069652E+03  0.16463069652E+03  0.00000000000E+00 0.  1.
          6    1    1    2  502    0  0.18283638464E+03 -0.13108643697E+03  0.90786546334E+02  0.29796643183E+03  0.17300000000E+03 0.  1.
         -6    1    1    2    0  501 -0.18283638464E+03  0.13108643697E+03  0.26882819661E+03  0.39090970414E+03  0.17300000000E+03 0. -1.
<mgrwt>
<rscale>  2 0.28379887E+03</rscale>
<asrwt>0</asrwt>
<pdfrwt beam="1">  1        1 0.80653144E-01 0.28379887E+03</pdfrwt>
<pdfrwt beam="2">  1       -1 0.25327800E-01 0.28379887E+03</pdfrwt>
<totfact> 0.57950891E+02</totfact>
</mgrwt>
</event>
<event>
 4    1  0.7354369E-001  0.2902473E+03  0.7546771E-02  0.1090220E+00
         -2   -1    0    0    0  501 -0.00000000000E+00  0.00000000000E+00  0.22697484133E+03  0.22697484133E+03  0.00000000000E+00 0. -1.
          2   -1    0    0  502    0  0.00000000000E+00 -0.00000000000E+00 -0.76293969872E+03  0.76293969872E+03  0.00000000000E+00 0.  1.
          6    1    1    2  502    0  0.21204206216E+03  0.96709083444E+02  0.86704173381E+02  0.30292094122E+03  0.17300000000E+03 0. -1.
         -6    1    1    2    0  501 -0.21204206216E+03 -0.96709083444E+02 -0.62266903078E+03  0.68699359883E+03  0.17300000000E+03 0.  1.
<mgrwt>
<rscale>  2 0.29024728E+03</rscale>
<asrwt>0</asrwt>
<pdfrwt beam="1">  1        2 0.11737534E+00 0.29024728E+03</pdfrwt>
<pdfrwt beam="2">  1       -2 0.34919206E-01 0.29024728E+03</pdfrwt>
<totfact> 0.29259010E+02</totfact>
</mgrwt>
</event>
<event>
 4    1  0.7354369E-001  0.4151069E+03  0.7546771E-02  0.1038671E+00
          2   -1    0    0  502    0  0.00000000000E+00  0.00000000000E+00  0.23086773406E+04  0.23086773406E+04  0.00000000000E+00 0.  1.
         -2   -1    0    0    0  501 -0.00000000000E+00 -0.00000000000E+00 -0.79404412635E+02  0.79404412635E+02  0.00000000000E+00 0. -1.
          6    1    1    2  502    0 -0.33142446914E+03 -0.18039562879E+03  0.82207420470E+03  0.92093417771E+03  0.17300000000E+03 0.  1.
         -6    1    1    2    0  501  0.33142446914E+03  0.18039562879E+03  0.14071987233E+04  0.14671475756E+04  0.17300000000E+03 0. -1.
<mgrwt>
<rscale>  2 0.41510693E+03</rscale>
<asrwt>0</asrwt>
<pdfrwt beam="1">  1        2 0.35518108E+00 0.41510693E+03</pdfrwt>
<pdfrwt beam="2">  1       -2 0.12216065E-01 0.41510693E+03</pdfrwt>
<totfact> 0.23822065E+02</totfact>
</mgrwt>
</event>
<event>
 4    1  0.7354369E-001  0.2034814E+03  0.7546771E-02  0.1146835E+00
         -1   -1    0    0    0  501 -0.00000000000E+00  0.00000000000E+00  0.29296909813E+02  0.29296909813E+02  0.00000000000E+00 0. -1.
          1   -1    0    0  502    0  0.00000000000E+00 -0.00000000000E+00 -0.14604921605E+04  0.14604921605E+04  0.00000000000E+00 0.  1.
          6    1    1    2  502    0  0.31618456224E+02  0.10235214524E+03 -0.84952818740E+03  0.87355757085E+03  0.17300000000E+03 0.  1.
         -6    1    1    2    0  501 -0.31618456224E+02 -0.10235214524E+03 -0.58166706325E+03  0.61623149942E+03  0.17300000000E+03 0. -1.
<mgrwt>
<rscale>  2 0.20348142E+03</rscale>
<asrwt>0</asrwt>
<pdfrwt beam="1">  1        1 0.22469114E+00 0.20348142E+03</pdfrwt>
<pdfrwt beam="2">  1       -1 0.45072162E-02 0.20348142E+03</pdfrwt>
<totfact> 0.15666502E+03</totfact>
</mgrwt>
</event>
<event>
 4    1  0.7354369E-001  0.4901040E+03  0.7546771E-02  0.1016395E+00
         -2   -1    0    0    0  501 -0.00000000000E+00  0.00000000000E+00  0.76582081000E+03  0.76582081000E+03  0.00000000000E+00 0.  1.
          2   -1    0    0  502    0  0.00000000000E+00 -0.00000000000E+00 -0.30737370440E+04  0.30737370440E+04  0.00000000000E+00 0. -1.
          6    1    1    2  502    0  0.21706707298E+03  0.40392423434E+03 -0.29731521692E+04  0.30132765758E+04  0.17300000000E+03 0. -1.
         -6    1    1    2    0  501 -0.21706707298E+03 -0.40392423434E+03  0.66523593517E+03  0.82628127820E+03  0.17300000000E+03 0.  1.
<mgrwt>
<rscale>  2 0.49010397E+03</rscale>
<asrwt>0</asrwt>
<pdfrwt beam="1">  1        2 0.47288263E+00 0.49010397E+03</pdfrwt>
<pdfrwt beam="2">  1       -2 0.11781858E+00 0.49010397E+03</pdfrwt>
<totfact> 0.10022982E+00</totfact>
</mgrwt>
</event>
<event>
 4    1  0.7354369E-001  0.1735142E+03  0.7546771E-02  0.1174232E+00
          2   -1    0    0  502    0  0.00000000000E+00  0.00000000000E+00  0.38016912771E+03  0.38016912771E+03  0.00000000000E+00 0. -1.
         -2   -1    0    0    0  501 -0.00000000000E+00 -0.00000000000E+00 -0.80426995569E+02  0.80426995569E+02  0.00000000000E+00 0.  1.
          6    1    1    2  502    0 -0.12780959030E+02  0.38525281081E+01  0.12135874339E+03  0.21174309784E+03  0.17300000000E+03 0.  1.
         -6    1    1    2    0  501  0.12780959030E+02 -0.38525281081E+01  0.17838338875E+03  0.24885302543E+03  0.17300000000E+03 0. -1.
<mgrwt>
<rscale>  2 0.17351425E+03</rscale>
<asrwt>0</asrwt>
<pdfrwt beam="1">  1        2 0.58487557E-01 0.17351425E+03</pdfrwt>
<pdfrwt beam="2">  1       -2 0.12373384E-01 0.17351425E+03</pdfrwt>
<totfact> 0.38790722E+03</totfact>
</mgrwt>
</event>
<event>
 4    1  0.7354369E-001  0.1746631E+03  0.7546771E-02  0.1173070E+00
         -1   -1    0    0    0  501 -0.00000000000E+00  0.00000000000E+00  0.30677465764E+02  0.30677465764E+02  0.00000000000E+00 0.  1.
          1   -1    0    0  502    0  0.00000000000E+00 -0.00000000000E+00 -0.10220822315E+04  0.10220822315E+04  0.00000000000E+00 0. -1.
          6    1    1    2  502    0  0.19937894361E+02  0.13441662650E+02 -0.58225223691E+03  0.60788556926E+03  0.17300000000E+03 0. -1.
         -6    1    1    2    0  501 -0.19937894361E+02 -0.13441662650E+02 -0.40915252885E+03  0.44487412803E+03  0.17300000000E+03 0. -1.
<mgrwt>
<rscale>  2 0.17466310E+03</rscale>
<asrwt>0</asrwt>
<pdfrwt beam="1">  1        1 0.15724338E+00 0.17466310E+03</pdfrwt>
<pdfrwt beam="2">  1       -1 0.47196113E-02 0.17466310E+03</pdfrwt>
<totfact> 0.29292358E+03</totfact>
</mgrwt>
</event>
<event>
 4    1  0.7354369E-001  0.2097881E+03  0.7546771E-02  0.1141734E+00
         -1   -1    0    0    0  501 -0.00000000000E+00  0.00000000000E+00  0.10767491474E+03  0.10767491474E+03  0.00000000000E+00 0. -1.
          1   -1    0    0  502    0  0.00000000000E+00 -0.00000000000E+00 -0.46153326958E+03  0.46153326958E+03  0.00000000000E+00 0.  1.
          6    1    1    2  502    0  0.10865379342E+03  0.47711833166E+02 -0.27318524253E+03  0.34444338081E+03  0.17300000000E+03 0.  1.
         -6    1    1    2    0  501 -0.10865379342E+03 -0.47711833166E+02 -0.80673112312E+02  0.22476480351E+03  0.17300000000E+03 0.  1.
<mgrwt>
<rscale>  2 0.20978815E+03</rscale>
<asrwt>0</asrwt>
<pdfrwt beam="1">  1        1 0.71005118E-01 0.20978815E+03</pdfrwt>
<pdfrwt beam="2">  1       -1 0.16565372E-01 0.20978815E+03</pdfrwt>
<totfact> 0.13722516E+03</totfact>
</mgrwt>
</event>
<event>
 4    1  0.7354369E-001  0.1775466E+03  0.7546771E-02  0.1170199E+00
         -2   -1    0    0    0  501 -0.00000000000E+00  0.00000000000E+00  0.22677561242E+03  0.22677561242E+03  0.00000000000E+00 0.  1.
          2   -1    0    0  502    0  0.00000000000E+00 -0.00000000000E+00 -0.19785671559E+03  0.19785671559E+03  0.00000000000E+00 0. -1.
          6    1    1    2  502    0 -0.26549345447E+02 -0.29814879417E+02  0.13025440734E+03  0.22020219211E+03  0.17300000000E+03 0.  1.
         -6    1    1    2    0  501  0.26549345447E+02  0.29814879417E+02 -0.10133551051E+03  0.20443013591E+03  0.17300000000E+03 0. -1.
<mgrwt>
<rscale>  2 0.17754660E+03</rscale>
<asrwt>0</asrwt>
<pdfrwt beam="1">  1        2 0.30439495E-01 0.17754660E+03</pdfrwt>
<pdfrwt beam="2">  1       -2 0.34888556E-01 0.17754660E+03</pdfrwt>
<totfact> 0.13192978E+03</totfact>
</mgrwt>
</event>
<event>
 4    1  0.7354369E-001  0.2895898E+03  0.7546771E-02  0.1090564E+00
         -2   -1    0    0    0  501 -0.00000000000E+00  0.00000000000E+00  0.45821735405E+02  0.45821735405E+02  0.00000000000E+00 0.  1.
          2   -1    0    0  502    0  0.00000000000E+00 -0.00000000000E+00 -0.18524182159E+04  0.18524182159E+04  0.00000000000E+00 0. -1.
          6    1    1    2  502    0  0.23134591373E+03  0.20305621684E+02 -0.10072790798E+04  0.10480808150E+04  0.17300000000E+03 0. -1.
         -6    1    1    2    0  501 -0.23134591373E+03 -0.20305621684E+02 -0.79931740074E+03  0.85015913639E+03  0.17300000000E+03 0.  1.
<mgrwt>
<rscale>  2 0.28958980E+03</rscale>
<asrwt>0</asrwt>
<pdfrwt beam="1">  1        2 0.28498746E+00 0.28958980E+03</pdfrwt>
<pdfrwt beam="2">  1       -2 0.70494967E-02 0.28958980E+03</pdfrwt>
<totfact> 0.10223900E+03</totfact>
</mgrwt>
</event>
<event>
 4    1  0.7354369E-001  0.2264291E+03  0.7546771E-02  0.1129179E+00
          1   -1    0    0  502    0  0.00000000000E+00  0.00000000000E+00  0.11194352489E+03  0.11194352489E+03  0.00000000000E+00 0. -1.
         -1   -1    0    0    0  501 -0.00000000000E+00 -0.00000000000E+00 -0.45808219359E+03  0.45808219359E+03  0.00000000000E+00 0.  1.
          6    1    1    2  502    0  0.13839750824E+03 -0.46768429810E+02 -0.16925609656E+03  0.28269733379E+03  0.17300000000E+03 0. -1.
         -6    1    1    2    0  501 -0.13839750824E+03  0.46768429810E+02 -0.17688257214E+03  0.28732838468E+03  0.17300000000E+03 0.  1.
<mgrwt>
<rscale>  2 0.22642914E+03</rscale>
<asrwt>0</asrwt>
<pdfrwt beam="1">  1        1 0.17222081E-01 0.22642914E+03</pdfrwt>
<pdfrwt beam="2">  1       -1 0.70474184E-01 0.22642914E+03</pdfrwt>
<totfact> 0.65723516E+02</totfact>
</mgrwt>
</event>
<event>
 4    1  0.7354369E-001  0.3593212E+03  0.7546771E-02  0.1058853E+00
          2   -1    0    0  502    0  0.00000000000E+00  0.00000000000E+00  0.50613833244E+03  0.50613833244E+03  0.00000000000E+00 0. -1.
         -2   -1    0    0    0  501 -0.00000000000E+00 -0.00000000000E+00 -0.26049672440E+03  0.26049672440E+03  0.00000000000E+00 0.  1.
          6    1    1    2  502    0  0.30851449573E+03 -0.63257903580E+02  0.67606587353E+02  0.36562604817E+03  0.17300000000E+03 0.  1.
         -6    1    1    2    0  501 -0.30851449573E+03  0.63257903580E+02  0.17803502069E+03  0.40100900867E+03  0.17300000000E+03 0. -1.
<mgrwt>
<rscale>  2 0.35932124E+03</rscale>
<asrwt>0</asrwt>
<pdfrwt beam="1">  1        2 0.77867436E-01 0.35932124E+03</pdfrwt>
<pdfrwt beam="2">  1       -2 0.40076419E-01 0.35932124E+03</pdfrwt>
<totfact> 0.36530093E+02</totfact>
</mgrwt>
</event>
<event>
 4    1  0.7354369E-001  0.2544319E+03  0.7546771E-02  0.1110536E+00
          2   -1    0    0  502    0  0.00000000000E+00  0.00000000000E+00  0.19815417619E+04  0.19815417619E+04  0.00000000000E+00 0. -1.
         -2   -1    0    0    0  501 -0.00000000000E+00 -0.00000000000E+00 -0.45202211391E+02  0.45202211391E+02  0.00000000000E+00 0.  1.
          6    1    1    2  502    0 -0.26391742973E+02  0.18468906207E+03  0.43457064519E+03  0.50357444276E+03  0.17300000000E+03 0.  1.
         -6    1    1    2    0  501  0.26391742973E+02 -0.18468906207E+03  0.15017689053E+04  0.15231695306E+04  0.17300000000E+03 0. -1.
<mgrwt>
<rscale>  2 0.25443186E+03</rscale>
<asrwt>0</asrwt>
<pdfrwt beam="1">  1        2 0.30485251E+00 0.25443186E+03</pdfrwt>
<pdfrwt beam="2">  1       -2 0.69541879E-02 0.25443186E+03</pdfrwt>
<totfact> 0.89688642E+02</totfact>
</mgrwt>
</event>
<event>
 4    1  0.7354369E-001  0.3095591E+03  0.7546771E-02  0.1080557E+00
         -4   -1    0    0    0  501 -0.00000000000E+00  0.00000000000E+00  0.89406458850E+03  0.89406458850E+03  0.00000000000E+00 0.  1.
          4   -1    0    0  502    0  0.00000000000E+00 -0.00000000000E+00 -0.10968430645E+03  0.10968430645E+03  0.00000000000E+00 0. -1.
          6    1    1    2  502    0  0.17693516474E+03 -0.18598871516E+03  0.46800745512E+03  0.56112194106E+03  0.17300000000E+03 0. -1.
         -6    1    1    2    0  501 -0.17693516474E+03  0.18598871516E+03  0.31637282694E+03  0.44262695389E+03  0.17300000000E+03 0.  1.
<mgrwt>
<rscale>  2 0.30955913E+03</rscale>
<asrwt>0</asrwt>
<pdfrwt beam="1">  1        4 0.16874509E-01 0.30955913E+03</pdfrwt>
<pdfrwt beam="2">  1       -4 0.13754839E+00 0.30955913E+03</pdfrwt>
<totfact> 0.22353518E+01</totfact>
</mgrwt>
</event>
<event>
 4    1  0.7354369E-001  0.2451369E+03  0.7546771E-02  0.1116417E+00
          1   -1    0    0  502    0  0.00000000000E+00  0.00000000000E+00  0.81364061019E+03  0.81364061019E+03  0.00000000000E+00 0. -1.
         -1   -1    0    0    0  501 -0.00000000000E+00 -0.00000000000E+00 -0.75594956966E+02  0.75594956966E+02  0.00000000000E+00 0.  1.
          6    1    1    2  502    0 -0.92707540649E+02 -0.14686192894E+03  0.43646076258E+03  0.50058976372E+03  0.17300000000E+03 0. -1.
         -6    1    1    2    0  501  0.92707540649E+02  0.14686192894E+03  0.30158489064E+03  0.38864580344E+03  0.17300000000E+03 0.  1.
<mgrwt>
<rscale>  2 0.24513693E+03</rscale>
<asrwt>0</asrwt>
<pdfrwt beam="1">  1        1 0.12517547E+00 0.24513693E+03</pdfrwt>
<pdfrwt beam="2">  1       -1 0.11629994E-01 0.24513693E+03</pdfrwt>
<totfact> 0.10818602E+03</totfact>
</mgrwt>
</event>
<event>
 4    1  0.7354369E-001  0.1812263E+03  0.7546771E-02  0.1166621E+00
         -2   -1    0    0    0  501 -0.00000000000E+00  0.00000000000E+00  0.20168567122E+02  0.20168567122E+02  0.00000000000E+00 0.  1.
          2   -1    0    0  502    0  0.00000000000E+00 -0.00000000000E+00 -0.16287831992E+04  0.16287831992E+04  0.00000000000E+00 0. -1.
          6    1    1    2  502    0  0.45066889493E+02  0.29714562248E+02 -0.79206441633E+03  0.81253247280E+03  0.17300000000E+03 0.  1.
         -6    1    1    2    0  501 -0.45066889493E+02 -0.29714562248E+02 -0.81655021574E+03  0.83641929351E+03  0.17300000000E+03 0.  1.
<mgrwt>
<rscale>  2 0.18122632E+03</rscale>
<asrwt>0</asrwt>
<pdfrwt beam="1">  1        2 0.25058208E+00 0.18122632E+03</pdfrwt>
<pdfrwt beam="2">  1       -2 0.31028558E-02 0.18122632E+03</pdfrwt>
<totfact> 0.46654792E+03</totfact>
</mgrwt>
</event>
<event>
 4    1  0.7354369E-001  0.1926689E+03  0.7546771E-02  0.1156076E+00
         -2   -1    0    0    0  501 -0.00000000000E+00  0.00000000000E+00  0.11818206617E+04  0.11818206617E+04  0.00000000000E+00 0. -1.
          2   -1    0    0  502    0  0.00000000000E+00 -0.00000000000E+00 -0.32855752570E+02  0.32855752570E+02  0.00000000000E+00 0.  1.
          6    1    1    2  502    0  0.13478088595E+02 -0.83729579691E+02  0.70187145172E+03  0.72783572057E+03  0.17300000000E+03 0. -1.
         -6    1    1    2    0  501 -0.13478088595E+02  0.83729579691E+02  0.44709345736E+03  0.48684069365E+03  0.17300000000E+03 0.  1.
<mgrwt>
<rscale>  2 0.19266889E+03</rscale>
<asrwt>0</asrwt>
<pdfrwt beam="1">  1        2 0.50547321E-02 0.19266889E+03</pdfrwt>
<pdfrwt beam="2">  1       -2 0.18181853E+00 0.19266889E+03</pdfrwt>
<totfact> 0.29165682E+02</totfact>
</mgrwt>
</event>
<event>
 4    1  0.7354369E-001  0.1785719E+03  0.7546771E-02  0.1169192E+00
         -2   -1    0    0    0  501 -0.00000000000E+00  0.00000000000E+00  0.41759438319E+03  0.41759438319E+03  0.00000000000E+00 0. -1.
          2   -1    0    0  502    0  0.00000000000E+00 -0.00000000000E+00 -0.78454086523E+02  0.78454086523E+02  0.00000000000E+00 0.  1.
          6    1    1    2  502    0 -0.17269069719E+02 -0.40751595987E+02  0.21008206064E+03  0.27572157251E+03  0.17300000000E+03 0. -1.
         -6    1    1    2    0  501  0.17269069719E+02  0.40751595987E+02  0.12905823603E+03  0.22032689720E+03  0.17300000000E+03 0. -1.
<mgrwt>
<rscale>  2 0.17857187E+03</rscale>
<asrwt>0</asrwt>
<pdfrwt beam="1">  1        2 0.12069860E-01 0.17857187E+03</pdfrwt>
<pdfrwt beam="2">  1       -2 0.64245288E-01 0.17857187E+03</pdfrwt>
<totfact> 0.11459872E+03</totfact>
</mgrwt>
</event>
<event>
 4    1  0.7354369E-001  0.1752285E+03  0.7546771E-02  0.1172502E+00
          2   -1    0    0  502    0  0.00000000000E+00  0.00000000000E+00  0.38639294244E+03  0.38639294244E+03  0.00000000000E+00 0. -1.
         -2   -1    0    0    0  501 -0.00000000000E+00 -0.00000000000E+00 -0.81686982784E+02  0.81686982784E+02  0.00000000000E+00 0.  1.
          6    1    1    2  502    0 -0.27265640668E+02  0.57120476912E+01  0.19094531833E+03  0.25916241479E+03  0.17300000000E+03 0. -1.
         -6    1    1    2    0  501  0.27265640668E+02 -0.57120476912E+01  0.11376064133E+03  0.20891751043E+03  0.17300000000E+03 0. -1.
<mgrwt>
<rscale>  2 0.17522854E+03</rscale>
<asrwt>0</asrwt>
<pdfrwt beam="1">  1        2 0.59445067E-01 0.17522854E+03</pdfrwt>
<pdfrwt beam="2">  1       -2 0.12567228E-01 0.17522854E+03</pdfrwt>
<totfact> 0.37192125E+03</totfact>
</mgrwt>
</event>
<event>
 4    1  0.7354369E-001  0.1994428E+03  0.7546771E-02  0.1150210E+00
          1   -1    0    0  502    0  0.00000000000E+00  0.00000000000E+00  0.30176239927E+03  0.30176239927E+03  0.00000000000E+00 0. -1.
         -1   -1    0    0    0  501 -0.00000000000E+00 -0.00000000000E+00 -0.29262388419E+03  0.29262388419E+03  0.00000000000E+00 0.  1.
          6    1    1    2  502    0 -0.44980825252E+01 -0.99137214723E+02 -0.21574174656E+03  0.29380592455E+03  0.17300000000E+03 0.  1.
         -6    1    1    2    0  501  0.44980825252E+01  0.99137214723E+02  0.22488026165E+03  0.30058035892E+03  0.17300000000E+03 0. -1.
<mgrwt>
<rscale>  2 0.19944277E+03</rscale>
<asrwt>0</asrwt>
<pdfrwt beam="1">  1        1 0.46424984E-01 0.19944277E+03</pdfrwt>
<pdfrwt beam="2">  1       -1 0.45019059E-01 0.19944277E+03</pdfrwt>
<totfact> 0.43727013E+02</totfact>
</mgrwt>
</event>
<event>
 4    1  0.7354369E-001  0.3290409E+03  0.7546771E-02  0.1071562E+00
         -2   -1    0    0    0  501 -0.00000000000E+00  0.00000000000E+00  0.10510878971E+03  0.10510878971E+03  0.00000000000E+00 0.  1.
          2   -1    0    0  502    0  0.00000000000E+00 -0.00000000000E+00 -0.10469053347E+04  0.10469053347E+04  0.00000000000E+00 0. -1.
          6    1    1    2  502    0 -0.27784814971E+03 -0.33753919580E+02 -0.39782346158E+03  0.51626681858E+03  0.17300000000E+03 0.  1.
         -6    1    1    2    0  501  0.27784814971E+03  0.33753919580E+02 -0.54397308337E+03  0.63574730579E+03  0.17300000000E+03 0. -1.
<mgrwt>
<rscale>  2 0.32904091E+03</rscale>
<asrwt>0</asrwt>
<pdfrwt beam="1">  1        2 0.16106236E+00 0.32904091E+03</pdfrwt>
<pdfrwt beam="2">  1       -2 0.16170583E-01 0.32904091E+03</pdfrwt>
<totfact> 0.74174866E+02</totfact>
</mgrwt>
</event>
<event>
 4    1  0.7354369E-001  0.1745376E+03  0.7546771E-02  0.1173197E+00
          1   -1    0    0  502    0  0.00000000000E+00  0.00000000000E+00  0.17943042032E+03  0.17943042032E+03  0.00000000000E+00 0.  1.
         -1   -1    0    0    0  501 -0.00000000000E+00 -0.00000000000E+00 -0.17010027521E+03  0.17010027521E+03  0.00000000000E+00 0. -1.
          6    1    1    2  502    0 -0.18010219786E+02 -0.14492050897E+02 -0.29387106397E+01  0.17456237732E+03  0.17300000000E+03 0. -1.
         -6    1    1    2    0  501  0.18010219786E+02  0.14492050897E+02  0.12268855745E+02  0.17496831821E+03  0.17300000000E+03 0.  1.
<mgrwt>
<rscale>  2 0.17453764E+03</rscale>
<asrwt>0</asrwt>
<pdfrwt beam="1">  1        1 0.27604680E-01 0.17453764E+03</pdfrwt>
<pdfrwt beam="2">  1       -1 0.26169273E-01 0.17453764E+03</pdfrwt>
<totfact> 0.21357751E+03</totfact>
</mgrwt>
</event>
<event>
 4    1  0.7354369E-001  0.2047751E+03  0.7546771E-02  0.1145772E+00
         -2   -1    0    0    0  501 -0.00000000000E+00  0.00000000000E+00  0.52335012026E+02  0.52335012026E+02  0.00000000000E+00 0. -1.
          2   -1    0    0  502    0  0.00000000000E+00 -0.00000000000E+00 -0.12292893614E+04  0.12292893614E+04  0.00000000000E+00 0.  1.
          6    1    1    2  502    0 -0.85498222565E+02  0.68511880564E+02 -0.96661612529E+03  0.98806859960E+03  0.17300000000E+03 0.  1.
         -6    1    1    2    0  501  0.85498222565E+02 -0.68511880564E+02 -0.21033822410E+03  0.29355577385E+03  0.17300000000E+03 0.  1.
<mgrwt>
<rscale>  2 0.20477506E+03</rscale>
<asrwt>0</asrwt>
<pdfrwt beam="1">  1        2 0.18912144E+00 0.20477506E+03</pdfrwt>
<pdfrwt beam="2">  1       -2 0.80515403E-02 0.20477506E+03</pdfrwt>
<totfact> 0.18005321E+03</totfact>
</mgrwt>
</event>
<event>
 4    1  0.7354369E-001  0.1734719E+03  0.7546771E-02  0.1174275E+00
         -2   -1    0    0    0  501 -0.00000000000E+00  0.00000000000E+00  0.67325439181E+02  0.67325439181E+02  0.00000000000E+00 0. -1.
          2   -1    0    0  502    0  0.00000000000E+00 -0.00000000000E+00 -0.55195222340E+03  0.55195222340E+03  0.00000000000E+00 0.  1.
          6    1    1    2  502    0 -0.46950443826E+01  0.11894173476E+02 -0.37735282824E+03  0.41531635145E+03  0.17300000000E+03 0.  1.
         -6    1    1    2    0  501  0.46950443826E+01 -0.11894173476E+02 -0.10727395598E+03  0.20396131112E+03  0.17300000000E+03 0. -1.
<mgrwt>
<rscale>  2 0.17347194E+03</rscale>
<asrwt>0</asrwt>
<pdfrwt beam="1">  1        2 0.84915723E-01 0.17347194E+03</pdfrwt>
<pdfrwt beam="2">  1       -2 0.10357760E-01 0.17347194E+03</pdfrwt>
<totfact> 0.34244068E+03</totfact>
</mgrwt>
</event>
<event>
 4    1  0.7354369E-001  0.2193162E+03  0.7546771E-02  0.1134394E+00
          1   -1    0    0  502    0  0.00000000000E+00  0.00000000000E+00  0.39245570490E+04  0.39245570490E+04  0.00000000000E+00 0.  1.
         -1   -1    0    0    0  501 -0.00000000000E+00 -0.00000000000E+00 -0.17752188200E+02  0.17752188200E+02  0.00000000000E+00 0. -1.
          6    1    1    2  502    0  0.13200341673E+03  0.27307116235E+02  0.85661255052E+03  0.88424241153E+03  0.17300000000E+03 0. -1.
         -6    1    1    2    0  501 -0.13200341673E+03 -0.27307116235E+02  0.30501923103E+04  0.30580668257E+04  0.17300000000E+03 0.  1.
<mgrwt>
<rscale>  2 0.21931617E+03</rscale>
<asrwt>0</asrwt>
<pdfrwt beam="1">  1        1 0.60377732E+00 0.21931617E+03</pdfrwt>
<pdfrwt beam="2">  1       -1 0.27311090E-02 0.21931617E+03</pdfrwt>
<totfact> 0.64139948E+01</totfact>
</mgrwt>
</event>
<event>
 4    1  0.7354369E-001  0.3046746E+03  0.7546771E-02  0.1082927E+00
         -4   -1    0    0    0  501 -0.00000000000E+00  0.00000000000E+00  0.67772403526E+02  0.67772403526E+02  0.00000000000E+00 0. -1.
          4   -1    0    0  502    0  0.00000000000E+00 -0.00000000000E+00 -0.16872942972E+04  0.16872942972E+04  0.00000000000E+00 0.  1.
          6    1    1    2  502    0  0.22187734634E+03 -0.11691043926E+03 -0.11904910395E+04  0.12288594398E+04  0.17300000000E+03 0.  1.
         -6    1    1    2    0  501 -0.22187734634E+03  0.11691043926E+03 -0.42903085415E+03  0.52620726092E+03  0.17300000000E+03 0. -1.
<mgrwt>
<rscale>  2 0.30467459E+03</rscale>
<asrwt>0</asrwt>
<pdfrwt beam="1">  1        4 0.25958374E+00 0.30467459E+03</pdfrwt>
<pdfrwt beam="2">  1       -4 0.10426524E-01 0.30467459E+03</pdfrwt>
<totfact> 0.81396801E+00</totfact>
</mgrwt>
</event>
<event>
 4    1  0.7354369E-001  0.2573988E+03  0.7546771E-02  0.1108716E+00
         -1   -1    0    0    0  501 -0.00000000000E+00  0.00000000000E+00  0.94126672741E+02  0.94126672741E+02  0.00000000000E+00 0. -1.
          1   -1    0    0  502    0  0.00000000000E+00 -0.00000000000E+00 -0.11032492963E+04  0.11032492963E+04  0.00000000000E+00 0.  1.
          6    1    1    2  502    0  0.13602839616E+03  0.13349684102E+03 -0.86476620838E+03  0.90226089702E+03  0.17300000000E+03 0.  1.
         -6    1    1    2    0  501 -0.13602839616E+03 -0.13349684102E+03 -0.14435641515E+03  0.29511507200E+03  0.17300000000E+03 0. -1.
<mgrwt>
<rscale>  2 0.25739878E+03</rscale>
<asrwt>0</asrwt>
<pdfrwt beam="1">  1        1 0.16973066E+00 0.25739878E+03</pdfrwt>
<pdfrwt beam="2">  1       -1 0.14481026E-01 0.25739878E+03</pdfrwt>
<totfact> 0.45909507E+02</totfact>
</mgrwt>
</event>
<event>
 4    1  0.7354369E-001  0.1851983E+03  0.7546771E-02  0.1162865E+00
          2   -1    0    0  502    0  0.00000000000E+00  0.00000000000E+00  0.19192018522E+03  0.19192018522E+03  0.00000000000E+00 0.  1.
         -2   -1    0    0    0  501 -0.00000000000E+00 -0.00000000000E+00 -0.18306414318E+03  0.18306414318E+03  0.00000000000E+00 0. -1.
          6    1    1    2  502    0 -0.53350798409E+02 -0.39026869253E+02 -0.24481600466E+02  0.18680940280E+03  0.17300000000E+03 0. -1.
         -6    1    1    2    0  501  0.53350798409E+02  0.39026869253E+02  0.33337642500E+02  0.18817492559E+03  0.17300000000E+03 0. -1.
<mgrwt>
<rscale>  2 0.18519828E+03</rscale>
<asrwt>0</asrwt>
<pdfrwt beam="1">  1        2 0.29526182E-01 0.18519828E+03</pdfrwt>
<pdfrwt beam="2">  1       -2 0.28163714E-01 0.18519828E+03</pdfrwt>
<totfact> 0.20177688E+03</totfact>
</mgrwt>
</event>
<event>
 4    1  0.7354369E-001  0.1793216E+03  0.7546771E-02  0.1168461E+00
         -2   -1    0    0    0  501 -0.00000000000E+00  0.00000000000E+00  0.13651941089E+03  0.13651941089E+03  0.00000000000E+00 0.  1.
          2   -1    0    0  502    0  0.00000000000E+00 -0.00000000000E+00 -0.24016289115E+03  0.24016289115E+03  0.00000000000E+00 0. -1.
          6    1    1    2  502    0 -0.11373120367E+02 -0.45802576196E+02 -0.77943175347E+02  0.19552841849E+03  0.17300000000E+03 0. -1.
         -6    1    1    2    0  501  0.11373120367E+02  0.45802576196E+02 -0.25700304909E+02  0.18115388355E+03  0.17300000000E+03 0. -1.
<mgrwt>
<rscale>  2 0.17932157E+03</rscale>
<asrwt>0</asrwt>
<pdfrwt beam="1">  1        2 0.36948137E-01 0.17932157E+03</pdfrwt>
<pdfrwt beam="2">  1       -2 0.21002986E-01 0.17932157E+03</pdfrwt>
<totfact> 0.26409529E+03</totfact>
</mgrwt>
</event>
<event>
 4    1  0.7354369E-001  0.1799189E+03  0.7546771E-02  0.1167882E+00
          2   -1    0    0  502    0  0.00000000000E+00  0.00000000000E+00  0.19491460506E+04  0.19491460506E+04  0.00000000000E+00 0.  1.
         -2   -1    0    0    0  501 -0.00000000000E+00 -0.00000000000E+00 -0.19455941324E+02  0.19455941324E+02  0.00000000000E+00 0. -1.
          6    1    1    2  502    0  0.46402259932E+02 -0.16989598492E+02  0.58823592429E+03  0.61513601651E+03  0.17300000000E+03 0. -1.
         -6    1    1    2    0  501 -0.46402259932E+02  0.16989598492E+02  0.13414541850E+04  0.13534659754E+04  0.17300000000E+03 0.  1.
<mgrwt>
<rscale>  2 0.17991892E+03</rscale>
<asrwt>0</asrwt>
<pdfrwt beam="1">  1        2 0.29986847E+00 0.17991892E+03</pdfrwt>
<pdfrwt beam="2">  1       -2 0.29932233E-02 0.17991892E+03</pdfrwt>
<totfact> 0.33583130E+03</totfact>
</mgrwt>
</event>
<event>
 4    1  0.7354369E-001  0.2261801E+03  0.7546771E-02  0.1129358E+00
          2   -1    0    0  502    0  0.00000000000E+00  0.00000000000E+00  0.75569047059E+02  0.75569047059E+02  0.00000000000E+00 0. -1.
         -2   -1    0    0    0  501 -0.00000000000E+00 -0.00000000000E+00 -0.10107680767E+04  0.10107680767E+04  0.00000000000E+00 0.  1.
          6    1    1    2  502    0  0.14520308254E+03  0.12020304454E+02 -0.15545510715E+03  0.27445165920E+03  0.17300000000E+03 0. -1.
         -6    1    1    2    0  501 -0.14520308254E+03 -0.12020304454E+02 -0.77974392246E+03  0.81188546453E+03  0.17300000000E+03 0.  1.
<mgrwt>
<rscale>  2 0.22618007E+03</rscale>
<asrwt>0</asrwt>
<pdfrwt beam="1">  1        2 0.11626007E-01 0.22618007E+03</pdfrwt>
<pdfrwt beam="2">  1       -2 0.15550279E+00 0.22618007E+03</pdfrwt>
<totfact> 0.15378377E+02</totfact>
</mgrwt>
</event>
<event>
 4    1  0.7354369E-001  0.2257520E+03  0.7546771E-02  0.1129666E+00
          1   -1    0    0  502    0  0.00000000000E+00  0.00000000000E+00  0.14805886502E+04  0.14805886502E+04  0.00000000000E+00 0. -1.
         -1   -1    0    0    0  501 -0.00000000000E+00 -0.00000000000E+00 -0.34549815152E+02  0.34549815152E+02  0.00000000000E+00 0.  1.
          6    1    1    2  502    0 -0.11520083732E+03  0.88112017619E+02  0.76920191762E+03  0.80164552680E+03  0.17300000000E+03 0. -1.
         -6    1    1    2    0  501  0.11520083732E+03 -0.88112017619E+02  0.67683691740E+03  0.71349293853E+03  0.17300000000E+03 0.  1.
<mgrwt>
<rscale>  2 0.22575199E+03</rscale>
<asrwt>0</asrwt>
<pdfrwt beam="1">  1        1 0.22778282E+00 0.22575199E+03</pdfrwt>
<pdfrwt beam="2">  1       -1 0.53153573E-02 0.22575199E+03</pdfrwt>
<totfact> 0.11863634E+03</totfact>
</mgrwt>
</event>
<event>
 4    1  0.7354369E-001  0.2139335E+03  0.7546771E-02  0.1138488E+00
         -1   -1    0    0    0  501 -0.00000000000E+00  0.00000000000E+00  0.54254429075E+03  0.54254429075E+03  0.00000000000E+00 0.  1.
          1   -1    0    0  502    0  0.00000000000E+00 -0.00000000000E+00 -0.95070169758E+02  0.95070169758E+02  0.00000000000E+00 0. -1.
          6    1    1    2  502    0  0.12520326958E+03 -0.12754242604E+02  0.33075596774E+03  0.39391247710E+03  0.17300000000E+03 0.  1.
         -6    1    1    2    0  501 -0.12520326958E+03  0.12754242604E+02  0.11671815325E+03  0.24370198341E+03  0.17300000000E+03 0. -1.
<mgrwt>
<rscale>  2 0.21393347E+03</rscale>
<asrwt>0</asrwt>
<pdfrwt beam="1">  1        1 0.14626180E-01 0.21393347E+03</pdfrwt>
<pdfrwt beam="2">  1       -1 0.83468350E-01 0.21393347E+03</pdfrwt>
<totfact> 0.57542847E+02</totfact>
</mgrwt>
</event>
<event>
 4    1  0.7354369E-001  0.1888371E+03  0.7546771E-02  0.1159514E+00
         -2   -1    0    0    0  501 -0.00000000000E+00  0.00000000000E+00  0.19249422873E+02  0.19249422873E+02  0.00000000000E+00 0. -1.
          2   -1    0    0  502    0  0.00000000000E+00 -0.00000000000E+00 -0.19331086545E+04  0.19331086545E+04  0.00000000000E+00 0.  1.
          6    1    1    2  502    0  0.38001400562E+02 -0.65470300132E+02 -0.75758492754E+03  0.78076525863E+03  0.17300000000E+03 0. -1.
         -6    1    1    2    0  501 -0.38001400562E+02  0.65470300132E+02 -0.11562743041E+04  0.11715928187E+04  0.17300000000E+03 0. -1.
<mgrwt>
<rscale>  2 0.18883714E+03</rscale>
<asrwt>0</asrwt>
<pdfrwt beam="1">  1        2 0.29740132E+00 0.18883714E+03</pdfrwt>
<pdfrwt beam="2">  1       -2 0.29614498E-02 0.18883714E+03</pdfrwt>
<totfact> 0.34777402E+03</totfact>
</mgrwt>
</event>
<event>
 4    1  0.7354369E-001  0.2633088E+03  0.7546771E-02  0.1105171E+00
         -2   -1    0    0    0  501 -0.00000000000E+00  0.00000000000E+00  0.18264609662E+03  0.18264609662E+03  0.00000000000E+00 0.  1.
          2   -1    0    0  502    0  0.00000000000E+00 -0.00000000000E+00 -0.38062252089E+03  0.38062252089E+03  0.00000000000E+00 0. -1.
          6    1    1    2  502    0  0.43022714049E+02  0.19378222716E+03 -0.11362276353E+03  0.28677802894E+03  0.17300000000E+03 0. -1.
         -6    1    1    2    0  501 -0.43022714049E+02 -0.19378222716E+03 -0.84353660736E+02  0.27649058857E+03  0.17300000000E+03 0.  1.
<mgrwt>
<rscale>  2 0.26330876E+03</rscale>
<asrwt>0</asrwt>
<pdfrwt beam="1">  1        2 0.58557310E-01 0.26330876E+03</pdfrwt>
<pdfrwt beam="2">  1       -2 0.28099400E-01 0.26330876E+03</pdfrwt>
<totfact> 0.97274111E+02</totfact>
</mgrwt>
</event>
<event>
 4    1  0.7354369E-001  0.2502846E+03  0.7546771E-02  0.1113125E+00
          1   -1    0    0  502    0  0.00000000000E+00  0.00000000000E+00  0.63420124586E+03  0.63420124586E+03  0.00000000000E+00 0.  1.
         -1   -1    0    0    0  501 -0.00000000000E+00 -0.00000000000E+00 -0.10225819687E+03  0.10225819687E+03  0.00000000000E+00 0. -1.
          6    1    1    2  502    0 -0.96547322909E+01  0.18061059456E+03  0.19799795203E+03  0.31913255825E+03  0.17300000000E+03 0.  1.
         -6    1    1    2    0  501  0.96547322909E+01 -0.18061059456E+03  0.33394509696E+03  0.41732688448E+03  0.17300000000E+03 0.  1.
<mgrwt>
<rscale>  2 0.25028464E+03</rscale>
<asrwt>0</asrwt>
<pdfrwt beam="1">  1        1 0.97569420E-01 0.25028464E+03</pdfrwt>
<pdfrwt beam="2">  1       -1 0.15732031E-01 0.25028464E+03</pdfrwt>
<totfact> 0.97028759E+02</totfact>
</mgrwt>
</event>
<event>
 4    1  0.7354369E-001  0.1887230E+03  0.7546771E-02  0.1159618E+00
          1   -1    0    0  502    0  0.00000000000E+00  0.00000000000E+00  0.78771215442E+02  0.78771215442E+02  0.00000000000E+00 0. -1.
         -1   -1    0    0    0  501 -0.00000000000E+00 -0.00000000000E+00 -0.45935975446E+03  0.45935975446E+03  0.00000000000E+00 0.  1.
          6    1    1    2  502    0  0.47100379478E+02  0.58897650558E+02 -0.22400372411E+03  0.29290620922E+03  0.17300000000E+03 0. -1.
         -6    1    1    2    0  501 -0.47100379478E+02 -0.58897650558E+02 -0.15658481491E+03  0.24522476068E+03  0.17300000000E+03 0.  1.
<mgrwt>
<rscale>  2 0.18872302E+03</rscale>
<asrwt>0</asrwt>
<pdfrwt beam="1">  1        1 0.12118649E-01 0.18872302E+03</pdfrwt>
<pdfrwt beam="2">  1       -1 0.70670730E-01 0.18872302E+03</pdfrwt>
<totfact> 0.10343383E+03</totfact>
</mgrwt>
</event>
<event>
 4    1  0.7354369E-001  0.2129548E+03  0.7546771E-02  0.1139247E+00
         -2   -1    0    0    0  501 -0.00000000000E+00  0.00000000000E+00  0.52641517325E+02  0.52641517325E+02  0.00000000000E+00 0.  1.
          2   -1    0    0  502    0  0.00000000000E+00 -0.00000000000E+00 -0.92307948729E+03  0.92307948729E+03  0.00000000000E+00 0. -1.
          6    1    1    2  502    0 -0.99776119867E+02 -0.73928741396E+02 -0.30919398152E+03  0.37543395039E+03  0.17300000000E+03 0. -1.
         -6    1    1    2    0  501  0.99776119867E+02  0.73928741396E+02 -0.56124398845E+03  0.60028705422E+03  0.17300000000E+03 0. -1.
<mgrwt>
<rscale>  2 0.21295477E+03</rscale>
<asrwt>0</asrwt>
<pdfrwt beam="1">  1        2 0.14201222E+00 0.21295477E+03</pdfrwt>
<pdfrwt beam="2">  1       -2 0.80986952E-02 0.21295477E+03</pdfrwt>
<totfact> 0.27076761E+03</totfact>
</mgrwt>
</event>
<event>
 4    1  0.7354369E-001  0.3266717E+03  0.7546771E-02  0.1072619E+00
         -1   -1    0    0    0  501 -0.00000000000E+00  0.00000000000E+00  0.75013627949E+02  0.75013627949E+02  0.00000000000E+00 0.  1.
          1   -1    0    0  502    0  0.00000000000E+00 -0.00000000000E+00 -0.15976919820E+04  0.15976919820E+04  0.00000000000E+00 0. -1.
          6    1    1    2  502    0  0.25002961534E+03  0.11945967897E+03 -0.10382089335E+04  0.10883897339E+04  0.17300000000E+03 0.  1.
         -6    1    1    2    0  501 -0.25002961534E+03 -0.11945967897E+03 -0.48446942055E+03  0.58431587596E+03  0.17300000000E+03 0. -1.
<mgrwt>
<rscale>  2 0.32667174E+03</rscale>
<asrwt>0</asrwt>
<pdfrwt beam="1">  1        1 0.24579877E+00 0.32667174E+03</pdfrwt>
<pdfrwt beam="2">  1       -1 0.11540558E-01 0.32667174E+03</pdfrwt>
<totfact> 0.29888039E+02</totfact>
</mgrwt>
</event>
<event>
 4    1  0.7354369E-001  0.2843692E+03  0.7546771E-02  0.1093326E+00
         -2   -1    0    0    0  501 -0.00000000000E+00  0.00000000000E+00  0.24986034635E+03  0.24986034635E+03  0.00000000000E+00 0.  1.
          2   -1    0    0  502    0  0.00000000000E+00 -0.00000000000E+00 -0.46630792409E+03  0.46630792409E+03  0.00000000000E+00 0. -1.
          6    1    1    2  502    0  0.75459840899E+02 -0.21270319862E+03  0.89840210245E+02  0.29822324133E+03  0.17300000000E+03 0. -1.
         -6    1    1    2    0  501 -0.75459840899E+02  0.21270319862E+03 -0.30628778798E+03  0.41794502911E+03  0.17300000000E+03 0. -1.
<mgrwt>
<rscale>  2 0.28436919E+03</rscale>
<asrwt>0</asrwt>
<pdfrwt beam="1">  1        2 0.71739680E-01 0.28436919E+03</pdfrwt>
<pdfrwt beam="2">  1       -2 0.38440054E-01 0.28436919E+03</pdfrwt>
<totfact> 0.43534971E+02</totfact>
</mgrwt>
</event>
<event>
 4    1  0.7354369E-001  0.1746400E+03  0.7546771E-02  0.1173094E+00
         -3   -1    0    0    0  501 -0.00000000000E+00  0.00000000000E+00  0.60671799867E+02  0.60671799867E+02  0.00000000000E+00 0. -1.
          3   -1    0    0  502    0  0.00000000000E+00 -0.00000000000E+00 -0.50291029017E+03  0.50291029017E+03  0.00000000000E+00 0.  1.
          6    1    1    2  502    0 -0.33577520403E+01  0.23640368501E+02 -0.22700929693E+03  0.28641292291E+03  0.17300000000E+03 0. -1.
         -6    1    1    2    0  501  0.33577520403E+01 -0.23640368501E+02 -0.21522919338E+03  0.27716916712E+03  0.17300000000E+03 0. -1.
<mgrwt>
<rscale>  2 0.17464003E+03</rscale>
<asrwt>0</asrwt>
<pdfrwt beam="1">  1        3 0.77370815E-01 0.17464003E+03</pdfrwt>
<pdfrwt beam="2">  1       -3 0.93341230E-02 0.17464003E+03</pdfrwt>
<totfact> 0.31932117E+02</totfact>
</mgrwt>
</event>
<event>
 4    1  0.7354369E-001  0.2068502E+03  0.7546771E-02  0.1144085E+00
         -2   -1    0    0    0  501 -0.00000000000E+00  0.00000000000E+00  0.27616551664E+02  0.27616551664E+02  0.00000000000E+00 0.  1.
          2   -1    0    0  502    0  0.00000000000E+00 -0.00000000000E+00 -0.16399837231E+04  0.16399837231E+04  0.00000000000E+00 0. -1.
          6    1    1    2  502    0  0.11151094018E+03 -0.20574552773E+02 -0.10022250893E+04  0.10233484899E+04  0.17300000000E+03 0. -1.
         -6    1    1    2    0  501 -0.11151094018E+03  0.20574552773E+02 -0.61014208207E+03  0.64425178488E+03  0.17300000000E+03 0.  1.
<mgrwt>
<rscale>  2 0.20685019E+03</rscale>
<asrwt>0</asrwt>
<pdfrwt beam="1">  1        2 0.25230519E+00 0.20685019E+03</pdfrwt>
<pdfrwt beam="2">  1       -2 0.42487001E-02 0.20685019E+03</pdfrwt>
<totfact> 0.28820703E+03</totfact>
</mgrwt>
</event>
<event>
 4    1  0.7354369E-001  0.2011150E+03  0.7546771E-02  0.1148802E+00
          2   -1    0    0  502    0  0.00000000000E+00  0.00000000000E+00  0.77214713564E+03  0.77214713564E+03  0.00000000000E+00 0.  1.
         -2   -1    0    0    0  501 -0.00000000000E+00 -0.00000000000E+00 -0.59307169441E+02  0.59307169441E+02  0.00000000000E+00 0. -1.
          6    1    1    2  502    0  0.72050370703E+02  0.72986256231E+02  0.49847091053E+03  0.53751325394E+03  0.17300000000E+03 0.  1.
         -6    1    1    2    0  501 -0.72050370703E+02 -0.72986256231E+02  0.21436905567E+03  0.29394105114E+03  0.17300000000E+03 0. -1.
<mgrwt>
<rscale>  2 0.20111502E+03</rscale>
<asrwt>0</asrwt>
<pdfrwt beam="1">  1        2 0.11879186E+00 0.20111502E+03</pdfrwt>
<pdfrwt beam="2">  1       -2 0.91241805E-02 0.20111502E+03</pdfrwt>
<totfact> 0.28268503E+03</totfact>
</mgrwt>
</event>
<event>
 4    1  0.7354369E-001  0.1946548E+03  0.7546771E-02  0.1154329E+00
         -1   -1    0    0    0  501 -0.00000000000E+00  0.00000000000E+00  0.99949021151E+02  0.99949021151E+02  0.00000000000E+00 0. -1.
          1   -1    0    0  502    0  0.00000000000E+00 -0.00000000000E+00 -0.42800691123E+03  0.42800691123E+03  0.00000000000E+00 0.  1.
          6    1    1    2  502    0  0.51525129215E+02  0.72846707380E+02 -0.74793798074E+02  0.20852959969E+03  0.17300000000E+03 0. -1.
         -6    1    1    2    0  501 -0.51525129215E+02 -0.72846707380E+02 -0.25326409200E+03  0.31942633269E+03  0.17300000000E+03 0. -1.
<mgrwt>
<rscale>  2 0.19465478E+03</rscale>
<asrwt>0</asrwt>
<pdfrwt beam="1">  1        1 0.65847217E-01 0.19465478E+03</pdfrwt>
<pdfrwt beam="2">  1       -1 0.15376773E-01 0.19465478E+03</pdfrwt>
<totfact> 0.17011448E+03</totfact>
</mgrwt>
</event>
<event>
 4    1  0.7354369E-001  0.1943963E+03  0.7546771E-02  0.1154555E+00
         -2   -1    0    0    0  501 -0.00000000000E+00  0.00000000000E+00  0.12364018276E+04  0.12364018276E+04  0.00000000000E+00 0.  1.
          2   -1    0    0  502    0  0.00000000000E+00 -0.00000000000E+00 -0.30598468376E+02  0.30598468376E+02  0.00000000000E+00 0. -1.
          6    1    1    2  502    0  0.83732407766E+02 -0.29151365030E+02  0.58177283683E+03  0.61339184203E+03  0.17300000000E+03 0. -1.
         -6    1    1    2    0  501 -0.83732407766E+02  0.29151365030E+02  0.62403052241E+03  0.65360845397E+03  0.17300000000E+03 0.  1.
<mgrwt>
<rscale>  2 0.19439629E+03</rscale>
<asrwt>0</asrwt>
<pdfrwt beam="1">  1        2 0.47074576E-02 0.19439629E+03</pdfrwt>
<pdfrwt beam="2">  1       -2 0.19021563E+00 0.19439629E+03</pdfrwt>
<totfact> 0.28247069E+02</totfact>
</mgrwt>
</event>
<event>
 4    1  0.7354369E-001  0.2457854E+03  0.7546771E-02  0.1115998E+00
          2   -1    0    0  502    0  0.00000000000E+00  0.00000000000E+00  0.23193997817E+04  0.23193997817E+04  0.00000000000E+00 0. -1.
         -2   -1    0    0    0  501 -0.00000000000E+00 -0.00000000000E+00 -0.28802418872E+02  0.28802418872E+02  0.00000000000E+00 0.  1.
          6    1    1    2  502    0  0.15787402504E+03 -0.74547000367E+02  0.15085312680E+04  0.15284230597E+04  0.17300000000E+03 0. -1.
         -6    1    1    2    0  501 -0.15787402504E+03  0.74547000367E+02  0.78206609483E+03  0.81977914082E+03  0.17300000000E+03 0.  1.
<mgrwt>
<rscale>  2 0.24578540E+03</rscale>
<asrwt>0</asrwt>
<pdfrwt beam="1">  1        2 0.35683059E+00 0.24578540E+03</pdfrwt>
<pdfrwt beam="2">  1       -2 0.44311432E-02 0.24578540E+03</pdfrwt>
<totfact> 0.11867210E+03</totfact>
</mgrwt>
</event>
<event>
 4    1  0.7354369E-001  0.2151192E+03  0.7546771E-02  0.1137575E+00
         -2   -1    0    0    0  501 -0.00000000000E+00  0.00000000000E+00  0.63958012484E+02  0.63958012484E+02  0.00000000000E+00 0.  1.
          2   -1    0    0  502    0  0.00000000000E+00 -0.00000000000E+00 -0.10914851944E+04  0.10914851944E+04  0.00000000000E+00 0. -1.
          6    1    1    2  502    0  0.76385218936E+02  0.10253089927E+03 -0.17833485381E+03  0.27942728403E+03  0.17300000000E+03 0.  1.
         -6    1    1    2    0  501 -0.76385218936E+02 -0.10253089927E+03 -0.84919232806E+03  0.87601592280E+03  0.17300000000E+03 0. -1.
<mgrwt>
<rscale>  2 0.21511924E+03</rscale>
<asrwt>0</asrwt>
<pdfrwt beam="1">  1        2 0.16792080E+00 0.21511924E+03</pdfrwt>
<pdfrwt beam="2">  1       -2 0.98396942E-02 0.21511924E+03</pdfrwt>
<totfact> 0.15745389E+03</totfact>
</mgrwt>
</event>
<event>
 4    1  0.7354369E-001  0.1964092E+03  0.7546771E-02  0.1152804E+00
          1   -1    0    0  502    0  0.00000000000E+00  0.00000000000E+00  0.13909830393E+04  0.13909830393E+04  0.00000000000E+00 0. -1.
         -1   -1    0    0    0  501 -0.00000000000E+00 -0.00000000000E+00 -0.29052722062E+02  0.29052722062E+02  0.00000000000E+00 0.  1.
          6    1    1    2  502    0  0.92561088676E+02  0.89455176988E+01  0.52965625363E+03  0.56490027831E+03  0.17300000000E+03 0. -1.
         -6    1    1    2    0  501 -0.92561088676E+02 -0.89455176988E+01  0.83227406361E+03  0.85513548306E+03  0.17300000000E+03 0.  1.
<mgrwt>
<rscale>  2 0.19640921E+03</rscale>
<asrwt>0</asrwt>
<pdfrwt beam="1">  1        1 0.21399734E+00 0.19640921E+03</pdfrwt>
<pdfrwt beam="2">  1       -1 0.44696506E-02 0.19640921E+03</pdfrwt>
<totfact> 0.17641581E+03</totfact>
</mgrwt>
</event>
<event>
 4    1  0.7354369E-001  0.2257273E+03  0.7546771E-02  0.1129684E+00
          1   -1    0    0  502    0  0.00000000000E+00  0.00000000000E+00  0.10461590921E+03  0.10461590921E+03  0.00000000000E+00 0. -1.
         -1   -1    0    0    0  501 -0.00000000000E+00 -0.00000000000E+00 -0.49773516116E+03  0.49773516116E+03  0.00000000000E+00 0.  1.
          6    1    1    2  502    0  0.68324093741E+02 -0.12788915165E+03 -0.15242481035E+03  0.27237132688E+03  0.17300000000E+03 0.  1.
         -6    1    1    2    0  501 -0.68324093741E+02  0.12788915165E+03 -0.24069444159E+03  0.32997974349E+03  0.17300000000E+03 0. -1.
<mgrwt>
<rscale>  2 0.22572731E+03</rscale>
<asrwt>0</asrwt>
<pdfrwt beam="1">  1        1 0.16094755E-01 0.22572731E+03</pdfrwt>
<pdfrwt beam="2">  1       -1 0.76574640E-01 0.22572731E+03</pdfrwt>
<totfact> 0.60692878E+02</totfact>
</mgrwt>
</event>
<event>
 4    1  0.7354369E-001  0.3276941E+03  0.7546771E-02  0.1072162E+00
         -1   -1    0    0    0  501 -0.00000000000E+00  0.00000000000E+00  0.23740747684E+03  0.23740747684E+03  0.00000000000E+00 0. -1.
          1   -1    0    0  502    0  0.00000000000E+00 -0.00000000000E+00 -0.47501810044E+03  0.47501810044E+03  0.00000000000E+00 0.  1.
          6    1    1    2  502    0  0.80216760048E+02 -0.26649517874E+03 -0.19667690215E+03  0.38218478871E+03  0.17300000000E+03 0.  1.
         -6    1    1    2    0  501 -0.80216760048E+02  0.26649517874E+03 -0.40933721455E+02  0.33024078857E+03  0.17300000000E+03 0.  1.
<mgrwt>
<rscale>  2 0.32769408E+03</rscale>
<asrwt>0</asrwt>
<pdfrwt beam="1">  1        1 0.73079707E-01 0.32769408E+03</pdfrwt>
<pdfrwt beam="2">  1       -1 0.36524227E-01 0.32769408E+03</pdfrwt>
<totfact> 0.35198671E+02</totfact>
</mgrwt>
</event>
<event>
 4    1  0.7354369E-001  0.1771534E+03  0.7546771E-02  0.1170587E+00
          1   -1    0    0  502    0  0.00000000000E+00  0.00000000000E+00  0.16202159432E+04  0.16202159432E+04  0.00000000000E+00 0.  1.
         -1   -1    0    0    0  501 -0.00000000000E+00 -0.00000000000E+00 -0.19382519064E+02  0.19382519064E+02  0.00000000000E+00 0. -1.
          6    1    1    2  502    0 -0.32551633180E+02  0.19867206119E+02  0.77944471094E+03  0.79932307117E+03  0.17300000000E+03 0.  1.
         -6    1    1    2    0  501  0.32551633180E+02 -0.19867206119E+02  0.82138871320E+03  0.84027539109E+03  0.17300000000E+03 0. -1.
<mgrwt>
<rscale>  2 0.17715336E+03</rscale>
<asrwt>0</asrwt>
<pdfrwt beam="1">  1        1 0.24926388E+00 0.17715336E+03</pdfrwt>
<pdfrwt beam="2">  1       -1 0.29819273E-02 0.17715336E+03</pdfrwt>
<totfact> 0.22677332E+03</totfact>
</mgrwt>
</event>
<event>
 4    1  0.7354369E-001  0.2446065E+03  0.7546771E-02  0.1116762E+00
         -1   -1    0    0    0  501 -0.00000000000E+00  0.00000000000E+00  0.40872089627E+02  0.40872089627E+02  0.00000000000E+00 0. -1.
          1   -1    0    0  502    0  0.00000000000E+00 -0.00000000000E+00 -0.15956649044E+04  0.15956649044E+04  0.00000000000E+00 0.  1.
          6    1    1    2  502    0  0.75147378260E+02  0.15574408281E+03 -0.10125421534E+04  0.10416688342E+04  0.17300000000E+03 0.  1.
         -6    1    1    2    0  501 -0.75147378260E+02 -0.15574408281E+03 -0.54225066142E+03  0.59486815985E+03  0.17300000000E+03 0.  1.
<mgrwt>
<rscale>  2 0.24460652E+03</rscale>
<asrwt>0</asrwt>
<pdfrwt beam="1">  1        1 0.24548690E+00 0.24460652E+03</pdfrwt>
<pdfrwt beam="2">  1       -1 0.62880139E-02 0.24460652E+03</pdfrwt>
<totfact> 0.77230367E+02</totfact>
</mgrwt>
</event>
<event>
 4    1  0.7354369E-001  0.2402960E+03  0.7546771E-02  0.1119596E+00
          1   -1    0    0  502    0  0.00000000000E+00  0.00000000000E+00  0.66862616961E+02  0.66862616961E+02  0.00000000000E+00 0.  1.
         -1   -1    0    0    0  501 -0.00000000000E+00 -0.00000000000E+00 -0.86411578538E+03  0.86411578538E+03  0.00000000000E+00 0. -1.
          6    1    1    2  502    0  0.34098298505E+02 -0.16324972849E+03 -0.38719019885E+03  0.45569553202E+03  0.17300000000E+03 0.  1.
         -6    1    1    2    0  501 -0.34098298505E+02  0.16324972849E+03 -0.41006296956E+03  0.47528287032E+03  0.17300000000E+03 0.  1.
<mgrwt>
<rscale>  2 0.24029600E+03</rscale>
<asrwt>0</asrwt>
<pdfrwt beam="1">  1        1 0.10286556E-01 0.24029600E+03</pdfrwt>
<pdfrwt beam="2">  1       -1 0.13294090E+00 0.24029600E+03</pdfrwt>
<totfact> 0.31882820E+02</totfact>
</mgrwt>
</event>
<event>
 4    1  0.7354369E-001  0.2315140E+03  0.7546771E-02  0.1125579E+00
          2   -1    0    0  502    0  0.00000000000E+00  0.00000000000E+00  0.22623732071E+04  0.22623732071E+04  0.00000000000E+00 0. -1.
         -2   -1    0    0    0  501 -0.00000000000E+00 -0.00000000000E+00 -0.43553073871E+02  0.43553073871E+02  0.00000000000E+00 0.  1.
          6    1    1    2  502    0  0.33752082276E+02  0.15010179049E+03  0.33081055945E+03  0.40377515626E+03  0.17300000000E+03 0.  1.
         -6    1    1    2    0  501 -0.33752082276E+02 -0.15010179049E+03  0.18880095738E+04  0.19021511247E+04  0.17300000000E+03 0. -1.
<mgrwt>
<rscale>  2 0.23151404E+03</rscale>
<asrwt>0</asrwt>
<pdfrwt beam="1">  1        2 0.34805733E+00 0.23151404E+03</pdfrwt>
<pdfrwt beam="2">  1       -2 0.67004746E-02 0.23151404E+03</pdfrwt>
<totfact> 0.67794734E+02</totfact>
</mgrwt>
</event>
<event>
 4    1  0.7354369E-001  0.2167645E+03  0.7546771E-02  0.1136319E+00
          1   -1    0    0  502    0  0.00000000000E+00  0.00000000000E+00  0.10275862484E+03  0.10275862484E+03  0.00000000000E+00 0. -1.
         -1   -1    0    0    0  501 -0.00000000000E+00 -0.00000000000E+00 -0.47016608035E+03  0.47016608035E+03  0.00000000000E+00 0.  1.
          6    1    1    2  502    0 -0.12862967276E+03 -0.22632681394E+02 -0.23117530670E+03  0.31690511736E+03  0.17300000000E+03 0.  1.
         -6    1    1    2    0  501  0.12862967276E+03  0.22632681394E+02 -0.13623214881E+03  0.25601958783E+03  0.17300000000E+03 0. -1.
<mgrwt>
<rscale>  2 0.21676446E+03</rscale>
<asrwt>0</asrwt>
<pdfrwt beam="1">  1        1 0.15809019E-01 0.21676446E+03</pdfrwt>
<pdfrwt beam="2">  1       -1 0.72333243E-01 0.21676446E+03</pdfrwt>
<totfact> 0.69726631E+02</totfact>
</mgrwt>
</event>
<event>
 4    1  0.7354369E-001  0.1748918E+03  0.7546771E-02  0.1172840E+00
         -2   -1    0    0    0  501 -0.00000000000E+00  0.00000000000E+00  0.19553551208E+03  0.19553551208E+03  0.00000000000E+00 0. -1.
          2   -1    0    0  502    0  0.00000000000E+00 -0.00000000000E+00 -0.51917582600E+03  0.51917582600E+03  0.00000000000E+00 0.  1.
          6    1    1    2  502    0 -0.31899689718E+01 -0.25454913172E+02 -0.46052768090E+03  0.49261838514E+03  0.17300000000E+03 0.  1.
         -6    1    1    2    0  501  0.31899689718E+01  0.25454913172E+02  0.13688736697E+03  0.22209295294E+03  0.17300000000E+03 0. -1.
<mgrwt>
<rscale>  2 0.17489176E+03</rscale>
<asrwt>0</asrwt>
<pdfrwt beam="1">  1        2 0.79873203E-01 0.17489176E+03</pdfrwt>
<pdfrwt beam="2">  1       -2 0.30082387E-01 0.17489176E+03</pdfrwt>
<totfact> 0.61044137E+02</totfact>
</mgrwt>
</event>
<event>
 4    1  0.7354369E-001  0.1813608E+03  0.7546771E-02  0.1166493E+00
         -1   -1    0    0    0  501 -0.00000000000E+00  0.00000000000E+00  0.56245984274E+02  0.56245984274E+02  0.00000000000E+00 0.  1.
          1   -1    0    0  502    0  0.00000000000E+00 -0.00000000000E+00 -0.66553132088E+03  0.66553132088E+03  0.00000000000E+00 0. -1.
          6    1    1    2  502    0  0.19533746796E+02  0.50805229972E+02 -0.43034798899E+03  0.46700228081E+03  0.17300000000E+03 0. -1.
         -6    1    1    2    0  501 -0.19533746796E+02 -0.50805229972E+02 -0.17893734762E+03  0.25477502434E+03  0.17300000000E+03 0.  1.
<mgrwt>
<rscale>  2 0.18136080E+03</rscale>
<asrwt>0</asrwt>
<pdfrwt beam="1">  1        1 0.10238944E+00 0.18136080E+03</pdfrwt>
<pdfrwt beam="2">  1       -1 0.86532280E-02 0.18136080E+03</pdfrwt>
<totfact> 0.22925545E+03</totfact>
</mgrwt>
</event>
<event>
 4    1  0.7354369E-001  0.2580036E+03  0.7546771E-02  0.1108349E+00
         -1   -1    0    0    0  501 -0.00000000000E+00  0.00000000000E+00  0.10279434235E+03  0.10279434235E+03  0.00000000000E+00 0. -1.
          1   -1    0    0  502    0  0.00000000000E+00 -0.00000000000E+00 -0.86464217923E+03  0.86464217923E+03  0.00000000000E+00 0.  1.
          6    1    1    2  502    0 -0.12535332678E+03 -0.14464922057E+03 -0.62329620607E+03  0.67458432686E+03  0.17300000000E+03 0.  1.
         -6    1    1    2    0  501  0.12535332678E+03  0.14464922057E+03 -0.13855163081E+03  0.29285219471E+03  0.17300000000E+03 0. -1.
<mgrwt>
<rscale>  2 0.25800359E+03</rscale>
<asrwt>0</asrwt>
<pdfrwt beam="1">  1        1 0.13302187E+00 0.25800359E+03</pdfrwt>
<pdfrwt beam="2">  1       -1 0.15814514E-01 0.25800359E+03</pdfrwt>
<totfact> 0.60475501E+02</totfact>
</mgrwt>
</event>
<event>
 4    1  0.7354369E-001  0.2337029E+03  0.7546771E-02  0.1124060E+00
         -2   -1    0    0    0  501 -0.00000000000E+00  0.00000000000E+00  0.79358162600E+02  0.79358162600E+02  0.00000000000E+00 0.  1.
          2   -1    0    0  502    0  0.00000000000E+00 -0.00000000000E+00 -0.12839258779E+04  0.12839258779E+04  0.00000000000E+00 0. -1.
          6    1    1    2  502    0  0.11544034872E+03 -0.10659075594E+03 -0.13798580594E+03  0.27139850037E+03  0.17300000000E+03 0.  1.
         -6    1    1    2    0  501 -0.11544034872E+03  0.10659075594E+03 -0.10665819094E+04  0.10918855402E+04  0.17300000000E+03 0. -1.
<mgrwt>
<rscale>  2 0.23370294E+03</rscale>
<asrwt>0</asrwt>
<pdfrwt beam="1">  1        2 0.19752705E+00 0.23370294E+03</pdfrwt>
<pdfrwt beam="2">  1       -2 0.12208948E-01 0.23370294E+03</pdfrwt>
<totfact> 0.86558113E+02</totfact>
</mgrwt>
</event>
<event>
 4    1  0.7354369E-001  0.1789375E+03  0.7546771E-02  0.1168835E+00
         -1   -1    0    0    0  501 -0.00000000000E+00  0.00000000000E+00  0.38839726602E+02  0.38839726602E+02  0.00000000000E+00 0.  1.
          1   -1    0    0  502    0  0.00000000000E+00 -0.00000000000E+00 -0.85741820588E+03  0.85741820588E+03  0.00000000000E+00 0. -1.
          6    1    1    2  502    0 -0.43963359238E+02  0.12523641091E+02 -0.32132064945E+03  0.36778469014E+03  0.17300000000E+03 0.  1.
         -6    1    1    2    0  501  0.43963359238E+02 -0.12523641091E+02 -0.49725782983E+03  0.52847324234E+03  0.17300000000E+03 0. -1.
<mgrwt>
<rscale>  2 0.17893747E+03</rscale>
<asrwt>0</asrwt>
<pdfrwt beam="1">  1        1 0.13191050E+00 0.17893747E+03</pdfrwt>
<pdfrwt beam="2">  1       -1 0.59753421E-02 0.17893747E+03</pdfrwt>
<totfact> 0.27507285E+03</totfact>
</mgrwt>
</event>
<event>
 4    1  0.7354369E-001  0.1826094E+03  0.7546771E-02  0.1165301E+00
          4   -1    0    0  502    0  0.00000000000E+00  0.00000000000E+00  0.10692045069E+04  0.10692045069E+04  0.00000000000E+00 0. -1.
         -4   -1    0    0    0  501 -0.00000000000E+00 -0.00000000000E+00 -0.32444090889E+02  0.32444090889E+02  0.00000000000E+00 0.  1.
          6    1    1    2  502    0 -0.14584595720E+02  0.56608139730E+02  0.62676825791E+03  0.65282818646E+03  0.17300000000E+03 0. -1.
         -6    1    1    2    0  501  0.14584595720E+02 -0.56608139730E+02  0.40999215806E+03  0.44882041129E+03  0.17300000000E+03 0.  1.
<mgrwt>
<rscale>  2 0.18260940E+03</rscale>
<asrwt>0</asrwt>
<pdfrwt beam="1">  1        4 0.16449297E+00 0.18260940E+03</pdfrwt>
<pdfrwt beam="2">  1       -4 0.49913994E-02 0.18260940E+03</pdfrwt>
<totfact> 0.10507450E+02</totfact>
</mgrwt>
</event>
<event>
 4    1  0.7354369E-001  0.2027878E+03  0.7546771E-02  0.1147408E+00
         -1   -1    0    0    0  501 -0.00000000000E+00  0.00000000000E+00  0.70415982570E+02  0.70415982570E+02  0.00000000000E+00 0.  1.
          1   -1    0    0  502    0  0.00000000000E+00 -0.00000000000E+00 -0.58421532995E+03  0.58421532995E+03  0.00000000000E+00 0. -1.
          6    1    1    2  502    0  0.62174087148E+02 -0.85605358249E+02 -0.25060757827E+03  0.32237719020E+03  0.17300000000E+03 0.  1.
         -6    1    1    2    0  501 -0.62174087148E+02  0.85605358249E+02 -0.26319176911E+03  0.33225412232E+03  0.17300000000E+03 0.  1.
<mgrwt>
<rscale>  2 0.20278781E+03</rscale>
<asrwt>0</asrwt>
<pdfrwt beam="1">  1        1 0.89879280E-01 0.20278781E+03</pdfrwt>
<pdfrwt beam="2">  1       -1 0.10833228E-01 0.20278781E+03</pdfrwt>
<totfact> 0.19511956E+03</totfact>
</mgrwt>
</event>
<event>
 4    1  0.7354369E-001  0.1807235E+03  0.7546771E-02  0.1167105E+00
         -2   -1    0    0    0  501 -0.00000000000E+00  0.00000000000E+00  0.19073045419E+02  0.19073045419E+02  0.00000000000E+00 0.  1.
          2   -1    0    0  502    0  0.00000000000E+00 -0.00000000000E+00 -0.17178336674E+04  0.17178336674E+04  0.00000000000E+00 0. -1.
          6    1    1    2  502    0 -0.51871543840E+02  0.64281793520E+01 -0.80060699630E+03  0.82075120535E+03  0.17300000000E+03 0.  1.
         -6    1    1    2    0  501  0.51871543840E+02 -0.64281793520E+01 -0.89815362567E+03  0.91615550746E+03  0.17300000000E+03 0. -1.
<mgrwt>
<rscale>  2 0.18072349E+03</rscale>
<asrwt>0</asrwt>
<pdfrwt beam="1">  1        2 0.26428218E+00 0.18072349E+03</pdfrwt>
<pdfrwt beam="2">  1       -2 0.29343138E-02 0.18072349E+03</pdfrwt>
<totfact> 0.45554193E+03</totfact>
</mgrwt>
</event>
<event>
 4    1  0.7354369E-001  0.2168566E+03  0.7546771E-02  0.1136248E+00
         -3   -1    0    0    0  501 -0.00000000000E+00  0.00000000000E+00  0.55203183640E+03  0.55203183640E+03  0.00000000000E+00 0. -1.
          3   -1    0    0  502    0  0.00000000000E+00 -0.00000000000E+00 -0.10816651486E+03  0.10816651486E+03  0.00000000000E+00 0.  1.
          6    1    1    2  502    0 -0.12938643062E+03 -0.18893078020E+02  0.69789051751E+02  0.22780980789E+03  0.17300000000E+03 0.  1.
         -6    1    1    2    0  501  0.12938643062E+03  0.18893078020E+02  0.37407626978E+03  0.43238854337E+03  0.17300000000E+03 0.  1.
<mgrwt>
<rscale>  2 0.21685663E+03</rscale>
<asrwt>0</asrwt>
<pdfrwt beam="1">  1        3 0.16641003E-01 0.21685663E+03</pdfrwt>
<pdfrwt beam="2">  1       -3 0.84927973E-01 0.21685663E+03</pdfrwt>
<totfact> 0.99671546E+01</totfact>
</mgrwt>
</event>
<event>
 4    1  0.7354369E-001  0.3855220E+03  0.7546771E-02  0.1048911E+00
         -2   -1    0    0    0  501 -0.00000000000E+00  0.00000000000E+00  0.11431858564E+03  0.11431858564E+03  0.00000000000E+00 0. -1.
          2   -1    0    0  502    0  0.00000000000E+00 -0.00000000000E+00 -0.13982765192E+04  0.13982765192E+04  0.00000000000E+00 0.  1.
          6    1    1    2  502    0 -0.21848427584E+03  0.26638854149E+03 -0.84236536208E+03  0.92639442845E+03  0.17300000000E+03 0.  1.
         -6    1    1    2    0  501  0.21848427584E+03 -0.26638854149E+03 -0.44159257153E+03  0.58620067644E+03  0.17300000000E+03 0. -1.
<mgrwt>
<rscale>  2 0.38552203E+03</rscale>
<asrwt>0</asrwt>
<pdfrwt beam="1">  1        2 0.21511947E+00 0.38552203E+03</pdfrwt>
<pdfrwt beam="2">  1       -2 0.17587474E-01 0.38552203E+03</pdfrwt>
<totfact> 0.40236844E+02</totfact>
</mgrwt>
</event>
<event>
 4    1  0.7354369E-001  0.2079955E+03  0.7546771E-02  0.1143163E+00
         -2   -1    0    0    0  501 -0.00000000000E+00  0.00000000000E+00  0.29666447594E+03  0.29666447594E+03  0.00000000000E+00 0.  1.
          2   -1    0    0  502    0  0.00000000000E+00 -0.00000000000E+00 -0.14660272408E+03  0.14660272408E+03  0.00000000000E+00 0. -1.
          6    1    1    2  502    0 -0.88892633780E+02  0.73696911380E+02  0.91137270599E+02  0.22708618888E+03  0.17300000000E+03 0.  1.
         -6    1    1    2    0  501  0.88892633780E+02 -0.73696911380E+02  0.58924481261E+02  0.21618101114E+03  0.17300000000E+03 0.  1.
<mgrwt>
<rscale>  2 0.20799552E+03</rscale>
<asrwt>0</asrwt>
<pdfrwt beam="1">  1        2 0.22554265E-01 0.20799552E+03</pdfrwt>
<pdfrwt beam="2">  1       -2 0.45640689E-01 0.20799552E+03</pdfrwt>
<totfact> 0.11072290E+03</totfact>
</mgrwt>
</event>
<event>
 4    1  0.7354369E-001  0.1907251E+03  0.7546771E-02  0.1157809E+00
         -2   -1    0    0    0  501 -0.00000000000E+00  0.00000000000E+00  0.18732474338E+03  0.18732474338E+03  0.00000000000E+00 0. -1.
          2   -1    0    0  502    0  0.00000000000E+00 -0.00000000000E+00 -0.30030979631E+03  0.30030979631E+03  0.00000000000E+00 0.  1.
          6    1    1    2  502    0 -0.51361272499E+02 -0.61717660597E+02 -0.20143105178E+03  0.27739956482E+03  0.17300000000E+03 0.  1.
         -6    1    1    2    0  501  0.51361272499E+02  0.61717660597E+02  0.88445998853E+02  0.21023497486E+03  0.17300000000E+03 0. -1.
<mgrwt>
<rscale>  2 0.19072506E+03</rscale>
<asrwt>0</asrwt>
<pdfrwt beam="1">  1        2 0.46201507E-01 0.19072506E+03</pdfrwt>
<pdfrwt beam="2">  1       -2 0.28819192E-01 0.19072506E+03</pdfrwt>
<totfact> 0.11949982E+03</totfact>
</mgrwt>
</event>
<event>
 4    1  0.7354369E-001  0.2663474E+03  0.7546771E-02  0.1103388E+00
         -2   -1    0    0    0  501 -0.00000000000E+00  0.00000000000E+00  0.13811801602E+03  0.13811801602E+03  0.00000000000E+00 0. -1.
          2   -1    0    0  502    0  0.00000000000E+00 -0.00000000000E+00 -0.56743443130E+03  0.56743443130E+03  0.00000000000E+00 0.  1.
          6    1    1    2  502    0  0.11377869692E+03  0.16753012725E+03 -0.10602349071E+03  0.28667388439E+03  0.17300000000E+03 0. -1.
         -6    1    1    2    0  501 -0.11377869692E+03 -0.16753012725E+03 -0.32329292457E+03  0.41887856293E+03  0.17300000000E+03 0.  1.
<mgrwt>
<rscale>  2 0.26634740E+03</rscale>
<asrwt>0</asrwt>
<pdfrwt beam="1">  1        2 0.87297604E-01 0.26634740E+03</pdfrwt>
<pdfrwt beam="2">  1       -2 0.21248926E-01 0.26634740E+03</pdfrwt>
<totfact> 0.10208607E+03</totfact>
</mgrwt>
</event>
<event>
 4    1  0.7354369E-001  0.2783430E+03  0.7546771E-02  0.1096597E+00
          2   -1    0    0  502    0  0.00000000000E+00  0.00000000000E+00  0.26692062732E+04  0.26692062732E+04  0.00000000000E+00 0. -1.
         -2   -1    0    0    0  501 -0.00000000000E+00 -0.00000000000E+00 -0.40493006705E+02  0.40493006705E+02  0.00000000000E+00 0.  1.
          6    1    1    2  502    0  0.13020175013E+03 -0.17490949400E+03  0.59335350566E+03  0.65539546040E+03  0.17300000000E+03 0.  1.
         -6    1    1    2    0  501 -0.13020175013E+03  0.17490949400E+03  0.20353597608E+04  0.20543038195E+04  0.17300000000E+03 0. -1.
<mgrwt>
<rscale>  2 0.27834300E+03</rscale>
<asrwt>0</asrwt>
<pdfrwt beam="1">  1        2 0.41064698E+00 0.27834300E+03</pdfrwt>
<pdfrwt beam="2">  1       -2 0.62296954E-02 0.27834300E+03</pdfrwt>
<totfact> 0.45076748E+02</totfact>
</mgrwt>
</event>
<event>
 4    1  0.7354369E-001  0.1801658E+03  0.7546771E-02  0.1167643E+00
          1   -1    0    0  502    0  0.00000000000E+00  0.00000000000E+00  0.20571824785E+03  0.20571824785E+03  0.00000000000E+00 0.  1.
         -1   -1    0    0    0  501 -0.00000000000E+00 -0.00000000000E+00 -0.15977670132E+03  0.15977670132E+03  0.00000000000E+00 0. -1.
          6    1    1    2  502    0  0.39486947498E+01  0.50151043267E+02  0.43362775513E+02  0.18531068407E+03  0.17300000000E+03 0. -1.
         -6    1    1    2    0  501 -0.39486947498E+01 -0.50151043267E+02  0.25787710208E+01  0.18018426510E+03  0.17300000000E+03 0. -1.
<mgrwt>
<rscale>  2 0.18016581E+03</rscale>
<asrwt>0</asrwt>
<pdfrwt beam="1">  1        1 0.31648961E-01 0.18016581E+03</pdfrwt>
<pdfrwt beam="2">  1       -1 0.24581031E-01 0.18016581E+03</pdfrwt>
<totfact> 0.19978649E+03</totfact>
</mgrwt>
</event>
<event>
 4    1  0.7354369E-001  0.2377033E+03  0.7546771E-02  0.1121332E+00
         -2   -1    0    0    0  501 -0.00000000000E+00  0.00000000000E+00  0.38897019683E+02  0.38897019683E+02  0.00000000000E+00 0. -1.
          2   -1    0    0  502    0  0.00000000000E+00 -0.00000000000E+00 -0.18788271973E+04  0.18788271973E+04  0.00000000000E+00 0.  1.
          6    1    1    2  502    0  0.92772809514E+02  0.13404129882E+03 -0.46327717086E+03  0.52070010660E+03  0.17300000000E+03 0. -1.
         -6    1    1    2    0  501 -0.92772809514E+02 -0.13404129882E+03 -0.13766530067E+04  0.13970241103E+04  0.17300000000E+03 0.  1.
<mgrwt>
<rscale>  2 0.23770331E+03</rscale>
<asrwt>0</asrwt>
<pdfrwt beam="1">  1        2 0.28905026E+00 0.23770331E+03</pdfrwt>
<pdfrwt beam="2">  1       -2 0.59841586E-02 0.23770331E+03</pdfrwt>
<totfact> 0.12827497E+03</totfact>
</mgrwt>
</event>
<event>
 4    1  0.7354369E-001  0.1814990E+03  0.7546771E-02  0.1166360E+00
         -2   -1    0    0    0  501 -0.00000000000E+00  0.00000000000E+00  0.67826014057E+02  0.67826014057E+02  0.00000000000E+00 0. -1.
          2   -1    0    0  502    0  0.00000000000E+00 -0.00000000000E+00 -0.51259733758E+03  0.51259733758E+03  0.00000000000E+00 0.  1.
          6    1    1    2  502    0 -0.50738521728E+02  0.20939710138E+02 -0.15588480638E+03  0.23925288276E+03  0.17300000000E+03 0.  1.
         -6    1    1    2    0  501  0.50738521728E+02 -0.20939710138E+02 -0.28888651714E+03  0.34117046888E+03  0.17300000000E+03 0.  1.
<mgrwt>
<rscale>  2 0.18149895E+03</rscale>
<asrwt>0</asrwt>
<pdfrwt beam="1">  1        2 0.78861128E-01 0.18149895E+03</pdfrwt>
<pdfrwt beam="2">  1       -2 0.10434772E-01 0.18149895E+03</pdfrwt>
<totfact> 0.36831984E+03</totfact>
</mgrwt>
</event>
<event>
 4    1  0.7354369E-001  0.1815474E+03  0.7546771E-02  0.1166314E+00
         -2   -1    0    0    0  501 -0.00000000000E+00  0.00000000000E+00  0.24933861943E+02  0.24933861943E+02  0.00000000000E+00 0. -1.
          2   -1    0    0  502    0  0.00000000000E+00 -0.00000000000E+00 -0.13325930426E+04  0.13325930426E+04  0.00000000000E+00 0.  1.
          6    1    1    2  502    0  0.35421179727E+02  0.42140155991E+02 -0.59295666167E+03  0.62012664460E+03  0.17300000000E+03 0. -1.
         -6    1    1    2    0  501 -0.35421179727E+02 -0.42140155991E+02 -0.71470251895E+03  0.73740025991E+03  0.17300000000E+03 0.  1.
<mgrwt>
<rscale>  2 0.18154738E+03</rscale>
<asrwt>0</asrwt>
<pdfrwt beam="1">  1        2 0.20501432E+00 0.18154738E+03</pdfrwt>
<pdfrwt beam="2">  1       -2 0.38359787E-02 0.18154738E+03</pdfrwt>
<totfact> 0.48837739E+03</totfact>
</mgrwt>
</event>
<event>
 4    1  0.7354369E-001  0.2209844E+03  0.7546771E-02  0.1133151E+00
         -1   -1    0    0    0  501 -0.00000000000E+00  0.00000000000E+00  0.66539593348E+03  0.66539593348E+03  0.00000000000E+00 0.  1.
          1   -1    0    0  502    0  0.00000000000E+00 -0.00000000000E+00 -0.13513197091E+03  0.13513197091E+03  0.00000000000E+00 0. -1.
          6    1    1    2  502    0  0.10474416067E+03  0.89071689115E+02  0.53568599538E+03  0.57947699751E+03  0.17300000000E+03 0.  1.
         -6    1    1    2    0  501 -0.10474416067E+03 -0.89071689115E+02 -0.54220328077E+01  0.22105090689E+03  0.17300000000E+03 0. -1.
<mgrwt>
<rscale>  2 0.22098440E+03</rscale>
<asrwt>0</asrwt>
<pdfrwt beam="1">  1        1 0.20789534E-01 0.22098440E+03</pdfrwt>
<pdfrwt beam="2">  1       -1 0.10236860E+00 0.22098440E+03</pdfrwt>
<totfact> 0.23418103E+02</totfact>
</mgrwt>
</event>
<event>
 4    1  0.7354369E-001  0.1907630E+03  0.7546771E-02  0.1157775E+00
          1   -1    0    0  502    0  0.00000000000E+00  0.00000000000E+00  0.74052028298E+02  0.74052028298E+02  0.00000000000E+00 0. -1.
         -1   -1    0    0    0  501 -0.00000000000E+00 -0.00000000000E+00 -0.59285640955E+03  0.59285640955E+03  0.00000000000E+00 0.  1.
          6    1    1    2  502    0 -0.76484568467E+02  0.24731402073E+02 -0.39733314863E+03  0.44075408388E+03  0.17300000000E+03 0.  1.
         -6    1    1    2    0  501  0.76484568467E+02 -0.24731402073E+02 -0.12147123263E+03  0.22615435397E+03  0.17300000000E+03 0. -1.
<mgrwt>
<rscale>  2 0.19076302E+03</rscale>
<asrwt>0</asrwt>
<pdfrwt beam="1">  1        1 0.11392620E-01 0.19076302E+03</pdfrwt>
<pdfrwt beam="2">  1       -1 0.91208678E-01 0.19076302E+03</pdfrwt>
<totfact> 0.66268262E+02</totfact>
</mgrwt>
</event>
<event>
 4    1  0.7354369E-001  0.4171018E+03  0.7546771E-02  0.1038014E+00
          3   -1    0    0  502    0  0.00000000000E+00  0.00000000000E+00  0.24543018285E+04  0.24543018285E+04  0.00000000000E+00 0.  1.
         -3   -1    0    0    0  501 -0.00000000000E+00 -0.00000000000E+00 -0.93161519107E+02  0.93161519107E+02  0.00000000000E+00 0. -1.
          6    1    1    2  502    0  0.36889492092E+03  0.89227148808E+02  0.18034156209E+04  0.18510218390E+04  0.17300000000E+03 0.  1.
         -6    1    1    2    0  501 -0.36889492092E+03 -0.89227148808E+02  0.55772468854E+03  0.69644150865E+03  0.17300000000E+03 0. -1.
<mgrwt>
<rscale>  2 0.41710184E+03</rscale>
<asrwt>0</asrwt>
<pdfrwt beam="1">  1        3 0.37758485E+00 0.41710184E+03</pdfrwt>
<pdfrwt beam="2">  1       -3 0.14332543E-01 0.41710184E+03</pdfrwt>
<totfact> 0.17066091E+00</totfact>
</mgrwt>
</event>
<event>
 4    1  0.7354369E-001  0.2455411E+03  0.7546771E-02  0.1116156E+00
         -2   -1    0    0    0  501 -0.00000000000E+00  0.00000000000E+00  0.83332007454E+02  0.83332007454E+02  0.00000000000E+00 0.  1.
          2   -1    0    0  502    0  0.00000000000E+00 -0.00000000000E+00 -0.74906705079E+03  0.74906705079E+03  0.00000000000E+00 0. -1.
          6    1    1    2  502    0 -0.11753745480E+03  0.12863270016E+03 -0.40976469069E+03  0.47770024761E+03  0.17300000000E+03 0. -1.
         -6    1    1    2    0  501  0.11753745480E+03 -0.12863270016E+03 -0.25597035265E+03  0.35469881063E+03  0.17300000000E+03 0.  1.
<mgrwt>
<rscale>  2 0.24554109E+03</rscale>
<asrwt>0</asrwt>
<pdfrwt beam="1">  1        2 0.11524108E+00 0.24554109E+03</pdfrwt>
<pdfrwt beam="2">  1       -2 0.12820309E-01 0.24554109E+03</pdfrwt>
<totfact> 0.17089086E+03</totfact>
</mgrwt>
</event>
<event>
 4    1  0.7354369E-001  0.1876803E+03  0.7546771E-02  0.1160570E+00
         -1   -1    0    0    0  501 -0.00000000000E+00  0.00000000000E+00  0.29726247176E+02  0.29726247176E+02  0.00000000000E+00 0. -1.
          1   -1    0    0  502    0  0.00000000000E+00 -0.00000000000E+00 -0.12315866759E+04  0.12315866759E+04  0.00000000000E+00 0.  1.
          6    1    1    2  502    0  0.62843985834E+01 -0.72494183754E+02 -0.47819815489E+03  0.51370942729E+03  0.17300000000E+03 0.  1.
         -6    1    1    2    0  501 -0.62843985834E+01  0.72494183754E+02 -0.72366227383E+03  0.74760349578E+03  0.17300000000E+03 0.  1.
<mgrwt>
<rscale>  2 0.18768031E+03</rscale>
<asrwt>0</asrwt>
<pdfrwt beam="1">  1        1 0.18947488E+00 0.18768031E+03</pdfrwt>
<pdfrwt beam="2">  1       -1 0.45732686E-02 0.18768031E+03</pdfrwt>
<totfact> 0.21846527E+03</totfact>
</mgrwt>
</event>
<event>
 4    1  0.7354369E-001  0.2374310E+03  0.7546771E-02  0.1121516E+00
         -2   -1    0    0    0  501 -0.00000000000E+00  0.00000000000E+00  0.21849345005E+02  0.21849345005E+02  0.00000000000E+00 0. -1.
          2   -1    0    0  502    0  0.00000000000E+00 -0.00000000000E+00 -0.30072323778E+04  0.30072323778E+04  0.00000000000E+00 0.  1.
          6    1    1    2  502    0  0.13349757104E+03  0.92859447530E+02 -0.92189786643E+03  0.95198169867E+03  0.17300000000E+03 0. -1.
         -6    1    1    2    0  501 -0.13349757104E+03 -0.92859447530E+02 -0.20634851664E+04  0.20771000242E+04  0.17300000000E+03 0.  1.
<mgrwt>
<rscale>  2 0.23743100E+03</rscale>
<asrwt>0</asrwt>
<pdfrwt beam="1">  1        2 0.46265090E+00 0.23743100E+03</pdfrwt>
<pdfrwt beam="2">  1       -2 0.33614394E-02 0.23743100E+03</pdfrwt>
<totfact> 0.74223096E+02</totfact>
</mgrwt>
</event>
<event>
 4    1  0.7354369E-001  0.2263840E+03  0.7546771E-02  0.1129211E+00
         -2   -1    0    0    0  501 -0.00000000000E+00  0.00000000000E+00  0.61917695119E+02  0.61917695119E+02  0.00000000000E+00 0.  1.
          2   -1    0    0  502    0  0.00000000000E+00 -0.00000000000E+00 -0.84999695289E+03  0.84999695289E+03  0.00000000000E+00 0. -1.
          6    1    1    2  502    0  0.14593299268E+03 -0.49256722263E+01 -0.32020305877E+03  0.39214754806E+03  0.17300000000E+03 0. -1.
         -6    1    1    2    0  501 -0.14593299268E+03  0.49256722263E+01 -0.46787619900E+03  0.51976709995E+03  0.17300000000E+03 0.  1.
<mgrwt>
<rscale>  2 0.22638397E+03</rscale>
<asrwt>0</asrwt>
<pdfrwt beam="1">  1        2 0.13076875E+00 0.22638397E+03</pdfrwt>
<pdfrwt beam="2">  1       -2 0.95258003E-02 0.22638397E+03</pdfrwt>
<totfact> 0.23420497E+03</totfact>
</mgrwt>
</event>
<event>
 4    1  0.7354369E-001  0.5722741E+03  0.7546771E-02  0.9964659E-01
         -2   -1    0    0    0  501 -0.00000000000E+00  0.00000000000E+00  0.98279879328E+03  0.98279879328E+03  0.00000000000E+00 0.  1.
          2   -1    0    0  502    0  0.00000000000E+00 -0.00000000000E+00 -0.38072299013E+03  0.38072299013E+03  0.00000000000E+00 0. -1.
          6    1    1    2  502    0 -0.35145225477E+03 -0.41719292210E+03  0.60244686576E+02  0.57543639431E+03  0.17300000000E+03 0. -1.
         -6    1    1    2    0  501  0.35145225477E+03  0.41719292210E+03  0.54183111657E+03  0.78808538910E+03  0.17300000000E+03 0.  1.
<mgrwt>
<rscale>  2 0.57227408E+03</rscale>
<asrwt>0</asrwt>
<pdfrwt beam="1">  1        2 0.58572768E-01 0.57227408E+03</pdfrwt>
<pdfrwt beam="2">  1       -2 0.15119981E+00 0.57227408E+03</pdfrwt>
<totfact> 0.25372566E+01</totfact>
</mgrwt>
</event>
<event>
 4    1  0.7354369E-001  0.1807314E+03  0.7546771E-02  0.1167097E+00
          1   -1    0    0  502    0  0.00000000000E+00  0.00000000000E+00  0.40231890155E+03  0.40231890155E+03  0.00000000000E+00 0. -1.
         -1   -1    0    0    0  501 -0.00000000000E+00 -0.00000000000E+00 -0.11432242961E+03  0.11432242961E+03  0.00000000000E+00 0.  1.
          6    1    1    2  502    0 -0.28895452963E+02  0.43587560846E+02  0.49301800053E+01  0.18079858776E+03  0.17300000000E+03 0.  1.
         -6    1    1    2    0  501  0.28895452963E+02 -0.43587560846E+02  0.28306629194E+03  0.33584274340E+03  0.17300000000E+03 0. -1.
<mgrwt>
<rscale>  2 0.18073135E+03</rscale>
<asrwt>0</asrwt>
<pdfrwt beam="1">  1        1 0.61895215E-01 0.18073135E+03</pdfrwt>
<pdfrwt beam="2">  1       -1 0.17588066E-01 0.18073135E+03</pdfrwt>
<totfact> 0.14847444E+03</totfact>
</mgrwt>
</event>
<event>
 4    1  0.7354369E-001  0.1997234E+03  0.7546771E-02  0.1149973E+00
         -1   -1    0    0    0  501 -0.00000000000E+00  0.00000000000E+00  0.41295546603E+02  0.41295546603E+02  0.00000000000E+00 0. -1.
          1   -1    0    0  502    0  0.00000000000E+00 -0.00000000000E+00 -0.96627941521E+03  0.96627941521E+03  0.00000000000E+00 0.  1.
          6    1    1    2  502    0  0.16045895153E+02  0.98503700064E+02 -0.47178813103E+03  0.51232166678E+03  0.17300000000E+03 0.  1.
         -6    1    1    2    0  501 -0.16045895153E+02 -0.98503700064E+02 -0.45319573758E+03  0.49525329503E+03  0.17300000000E+03 0.  1.
<mgrwt>
<rscale>  2 0.19972343E+03</rscale>
<asrwt>0</asrwt>
<pdfrwt beam="1">  1        1 0.14865837E+00 0.19972343E+03</pdfrwt>
<pdfrwt beam="2">  1       -1 0.63531609E-02 0.19972343E+03</pdfrwt>
<totfact> 0.20702043E+03</totfact>
</mgrwt>
</event>
<event>
 4    1  0.7354369E-001  0.2938213E+03  0.7546771E-02  0.1088371E+00
          2   -1    0    0  502    0  0.00000000000E+00  0.00000000000E+00  0.42290053304E+03  0.42290053304E+03  0.00000000000E+00 0. -1.
         -2   -1    0    0    0  501 -0.00000000000E+00 -0.00000000000E+00 -0.20514803562E+03  0.20514803562E+03  0.00000000000E+00 0.  1.
          6    1    1    2  502    0 -0.10813250441E+02  0.23724466246E+03  0.86864913649E+02  0.30639267203E+03  0.17300000000E+03 0. -1.
         -6    1    1    2    0  501  0.10813250441E+02 -0.23724466246E+03  0.13088758376E+03  0.32165589663E+03  0.17300000000E+03 0.  1.
<mgrwt>
<rscale>  2 0.29382130E+03</rscale>
<asrwt>0</asrwt>
<pdfrwt beam="1">  1        2 0.65061620E-01 0.29382130E+03</pdfrwt>
<pdfrwt beam="2">  1       -2 0.31561236E-01 0.29382130E+03</pdfrwt>
<totfact> 0.70167781E+02</totfact>
</mgrwt>
</event>
<event>
 4    1  0.7354369E-001  0.1859013E+03  0.7546771E-02  0.1162211E+00
         -1   -1    0    0    0  501 -0.00000000000E+00  0.00000000000E+00  0.34359452844E+02  0.34359452844E+02  0.00000000000E+00 0.  1.
          1   -1    0    0  502    0  0.00000000000E+00 -0.00000000000E+00 -0.10573937460E+04  0.10573937460E+04  0.00000000000E+00 0. -1.
          6    1    1    2  502    0 -0.67926663936E+02  0.40308450703E+01 -0.39095574923E+03  0.43290377365E+03  0.17300000000E+03 0.  1.
         -6    1    1    2    0  501  0.67926663936E+02 -0.40308450703E+01 -0.63207854396E+03  0.65884942522E+03  0.17300000000E+03 0. -1.
<mgrwt>
<rscale>  2 0.18590126E+03</rscale>
<asrwt>0</asrwt>
<pdfrwt beam="1">  1        1 0.16267594E+00 0.18590126E+03</pdfrwt>
<pdfrwt beam="2">  1       -1 0.52860704E-02 0.18590126E+03</pdfrwt>
<totfact> 0.23344409E+03</totfact>
</mgrwt>
</event>
<event>
 4    1  0.7354369E-001  0.1958458E+03  0.7546771E-02  0.1153292E+00
         -2   -1    0    0    0  501 -0.00000000000E+00  0.00000000000E+00  0.44215682591E+03  0.44215682591E+03  0.00000000000E+00 0. -1.
          2   -1    0    0  502    0  0.00000000000E+00 -0.00000000000E+00 -0.86747007383E+02  0.86747007383E+02  0.00000000000E+00 0.  1.
          6    1    1    2  502    0  0.24551922099E+02  0.88452220030E+02  0.17829246122E+03  0.26484673650E+03  0.17300000000E+03 0. -1.
         -6    1    1    2    0  501 -0.24551922099E+02 -0.88452220030E+02  0.17711735731E+03  0.26405709680E+03  0.17300000000E+03 0.  1.
<mgrwt>
<rscale>  2 0.19584584E+03</rscale>
<asrwt>0</asrwt>
<pdfrwt beam="1">  1        2 0.13345694E-01 0.19584584E+03</pdfrwt>
<pdfrwt beam="2">  1       -2 0.68024126E-01 0.19584584E+03</pdfrwt>
<totfact> 0.90257782E+02</totfact>
</mgrwt>
</event>
<event>
 4    1  0.7354369E-001  0.2937607E+03  0.7546771E-02  0.1088402E+00
          1   -1    0    0  502    0  0.00000000000E+00  0.00000000000E+00  0.15262867198E+03  0.15262867198E+03  0.00000000000E+00 0. -1.
         -1   -1    0    0    0  501 -0.00000000000E+00 -0.00000000000E+00 -0.58869120204E+03  0.58869120204E+03  0.00000000000E+00 0.  1.
          6    1    1    2  502    0  0.93815375432E+02  0.21809402286E+03 -0.29176805711E+03  0.41403372643E+03  0.17300000000E+03 0.  1.
         -6    1    1    2    0  501 -0.93815375432E+02 -0.21809402286E+03 -0.14429447296E+03  0.32728614759E+03  0.17300000000E+03 0. -1.
<mgrwt>
<rscale>  2 0.29376066E+03</rscale>
<asrwt>0</asrwt>
<pdfrwt beam="1">  1        1 0.23481334E-01 0.29376066E+03</pdfrwt>
<pdfrwt beam="2">  1       -1 0.90567877E-01 0.29376066E+03</pdfrwt>
<totfact> 0.26082919E+02</totfact>
</mgrwt>
</event>
<event>
 4    1  0.7354369E-001  0.1881546E+03  0.7546771E-02  0.1160136E+00
          1   -1    0    0  502    0  0.00000000000E+00  0.00000000000E+00  0.48484371977E+02  0.48484371977E+02  0.00000000000E+00 0. -1.
         -1   -1    0    0    0  501 -0.00000000000E+00 -0.00000000000E+00 -0.75697499929E+03  0.75697499929E+03  0.00000000000E+00 0.  1.
          6    1    1    2  502    0 -0.53615699298E+02  0.50975660358E+02 -0.27847028913E+03  0.33607716835E+03  0.17300000000E+03 0. -1.
         -6    1    1    2    0  501  0.53615699298E+02 -0.50975660358E+02 -0.43002033818E+03  0.46938220291E+03  0.17300000000E+03 0.  1.
<mgrwt>
<rscale>  2 0.18815462E+03</rscale>
<asrwt>0</asrwt>
<pdfrwt beam="1">  1        1 0.74591349E-02 0.18815462E+03</pdfrwt>
<pdfrwt beam="2">  1       -1 0.11645768E+00 0.18815462E+03</pdfrwt>
<totfact> 0.67700637E+02</totfact>
</mgrwt>
</event>
<event>
 4    1  0.7354369E-001  0.2810622E+03  0.7546771E-02  0.1095110E+00
         -4   -1    0    0    0  501 -0.00000000000E+00  0.00000000000E+00  0.27590317553E+03  0.27590317553E+03  0.00000000000E+00 0.  1.
          4   -1    0    0  502    0  0.00000000000E+00 -0.00000000000E+00 -0.35311972733E+03  0.35311972733E+03  0.00000000000E+00 0. -1.
          6    1    1    2  502    0  0.18965210590E+03  0.11445108073E+03  0.98186714635E+02  0.29771899853E+03  0.17300000000E+03 0.  1.
         -6    1    1    2    0  501 -0.18965210590E+03 -0.11445108073E+03 -0.17540326644E+03  0.33130390434E+03  0.17300000000E+03 0. -1.
<mgrwt>
<rscale>  2 0.28106222E+03</rscale>
<asrwt>0</asrwt>
<pdfrwt beam="1">  1        4 0.54326112E-01 0.28106222E+03</pdfrwt>
<pdfrwt beam="2">  1       -4 0.42446642E-01 0.28106222E+03</pdfrwt>
<totfact> 0.32482760E+01</totfact>
</mgrwt>
</event>
<event>
 4    1  0.7354369E-001  0.1756676E+03  0.7546771E-02  0.1172063E+00
         -1   -1    0    0    0  501 -0.00000000000E+00  0.00000000000E+00  0.56592897036E+03  0.56592897036E+03  0.00000000000E+00 0.  1.
          1   -1    0    0  502    0  0.00000000000E+00 -0.00000000000E+00 -0.56586106486E+02  0.56586106486E+02  0.00000000000E+00 0. -1.
          6    1    1    2  502    0 -0.30374786774E+02 -0.27348228472E+01  0.31402875088E+03  0.35982379480E+03  0.17300000000E+03 0.  1.
         -6    1    1    2    0  501  0.30374786774E+02  0.27348228472E+01  0.19531411300E+03  0.26269128205E+03  0.17300000000E+03 0. -1.
<mgrwt>
<rscale>  2 0.17566760E+03</rscale>
<asrwt>0</asrwt>
<pdfrwt beam="1">  1        1 0.87055552E-02 0.17566760E+03</pdfrwt>
<pdfrwt beam="2">  1       -1 0.87065991E-01 0.17566760E+03</pdfrwt>
<totfact> 0.10469136E+03</totfact>
</mgrwt>
</event>
<event>
 4    1  0.7354369E-001  0.1899057E+03  0.7546771E-02  0.1158546E+00
          2   -1    0    0  502    0  0.00000000000E+00  0.00000000000E+00  0.31373716945E+03  0.31373716945E+03  0.00000000000E+00 0. -1.
         -2   -1    0    0    0  501 -0.00000000000E+00 -0.00000000000E+00 -0.11975724292E+03  0.11975724292E+03  0.00000000000E+00 0.  1.
          6    1    1    2  502    0  0.78050571221E+02  0.65786367867E+01  0.53565069058E+02  0.19731544986E+03  0.17300000000E+03 0.  1.
         -6    1    1    2    0  501 -0.78050571221E+02 -0.65786367867E+01  0.14041485747E+03  0.23617896250E+03  0.17300000000E+03 0. -1.
<mgrwt>
<rscale>  2 0.18990569E+03</rscale>
<asrwt>0</asrwt>
<pdfrwt beam="1">  1        2 0.48267256E-01 0.18990569E+03</pdfrwt>
<pdfrwt beam="2">  1       -2 0.18424191E-01 0.18990569E+03</pdfrwt>
<totfact> 0.24831237E+03</totfact>
</mgrwt>
</event>
<event>
 4    1  0.7354369E-001  0.1732253E+03  0.7546771E-02  0.1174526E+00
          1   -1    0    0  502    0  0.00000000000E+00  0.00000000000E+00  0.10447363443E+04  0.10447363443E+04  0.00000000000E+00 0.  1.
         -1   -1    0    0    0  501 -0.00000000000E+00 -0.00000000000E+00 -0.34607510169E+02  0.34607510169E+02  0.00000000000E+00 0. -1.
          6    1    1    2  502    0  0.79048143951E+01 -0.39385482101E+01  0.72761761926E+03  0.74795347323E+03  0.17300000000E+03 0.  1.
         -6    1    1    2    0  501 -0.79048143951E+01  0.39385482101E+01  0.28251121487E+03  0.33139038124E+03  0.17300000000E+03 0. -1.
<mgrwt>
<rscale>  2 0.17322528E+03</rscale>
<asrwt>0</asrwt>
<pdfrwt beam="1">  1        1 0.16072864E+00 0.17322528E+03</pdfrwt>
<pdfrwt beam="2">  1       -1 0.53242331E-02 0.17322528E+03</pdfrwt>
<totfact> 0.23563513E+03</totfact>
</mgrwt>
</event>
<event>
 4    1  0.7354369E-001  0.2332626E+03  0.7546771E-02  0.1124364E+00
         -2   -1    0    0    0  501 -0.00000000000E+00  0.00000000000E+00  0.81851438546E+02  0.81851438546E+02  0.00000000000E+00 0.  1.
          2   -1    0    0  502    0  0.00000000000E+00 -0.00000000000E+00 -0.72032301501E+03  0.72032301501E+03  0.00000000000E+00 0. -1.
          6    1    1    2  502    0  0.12531507884E+03 -0.93693956210E+02 -0.43063306526E+03  0.48975122594E+03  0.17300000000E+03 0. -1.
         -6    1    1    2    0  501 -0.12531507884E+03  0.93693956210E+02 -0.20783851121E+03  0.31242322762E+03  0.17300000000E+03 0.  1.
<mgrwt>
<rscale>  2 0.23326257E+03</rscale>
<asrwt>0</asrwt>
<pdfrwt beam="1">  1        2 0.11081893E+00 0.23326257E+03</pdfrwt>
<pdfrwt beam="2">  1       -2 0.12592529E-01 0.23326257E+03</pdfrwt>
<totfact> 0.18454793E+03</totfact>
</mgrwt>
</event>
<event>
 4    1  0.7354369E-001  0.3109326E+03  0.7546771E-02  0.1079900E+00
          1   -1    0    0  502    0  0.00000000000E+00  0.00000000000E+00  0.24573510562E+04  0.24573510562E+04  0.00000000000E+00 0.  1.
         -1   -1    0    0    0  501 -0.00000000000E+00 -0.00000000000E+00 -0.41437488875E+02  0.41437488875E+02  0.00000000000E+00 0. -1.
          6    1    1    2  502    0  0.22896305283E+03  0.11969133622E+03  0.92705045073E+03  0.97780449668E+03  0.17300000000E+03 0. -1.
         -6    1    1    2    0  501 -0.22896305283E+03 -0.11969133622E+03  0.14888631166E+04  0.15209840484E+04  0.17300000000E+03 0.  1.
<mgrwt>
<rscale>  2 0.31093262E+03</rscale>
<asrwt>0</asrwt>
<pdfrwt beam="1">  1        1 0.37805390E+00 0.31093262E+03</pdfrwt>
<pdfrwt beam="2">  1       -1 0.63750002E-02 0.31093262E+03</pdfrwt>
<totfact> 0.20446004E+02</totfact>
</mgrwt>
</event>
<event>
 4    1  0.7354369E-001  0.1954041E+03  0.7546771E-02  0.1153676E+00
         -2   -1    0    0    0  501 -0.00000000000E+00  0.00000000000E+00  0.39361372328E+03  0.39361372328E+03  0.00000000000E+00 0.  1.
          2   -1    0    0  502    0  0.00000000000E+00 -0.00000000000E+00 -0.18235169186E+03  0.18235169186E+03  0.00000000000E+00 0. -1.
          6    1    1    2  502    0 -0.80011615401E+02  0.43033825399E+02 -0.91385718577E+02  0.21571768191E+03  0.17300000000E+03 0. -1.
         -6    1    1    2    0  501  0.80011615401E+02 -0.43033825399E+02  0.30264774999E+03  0.36024773324E+03  0.17300000000E+03 0.  1.
<mgrwt>
<rscale>  2 0.19540412E+03</rscale>
<asrwt>0</asrwt>
<pdfrwt beam="1">  1        2 0.28054107E-01 0.19540412E+03</pdfrwt>
<pdfrwt beam="2">  1       -2 0.60555957E-01 0.19540412E+03</pdfrwt>
<totfact> 0.49081385E+02</totfact>
</mgrwt>
</event>
<event>
 4    1  0.7354369E-001  0.1835207E+03  0.7546771E-02  0.1164439E+00
         -2   -1    0    0    0  501 -0.00000000000E+00  0.00000000000E+00  0.15110564455E+02  0.15110564455E+02  0.00000000000E+00 0. -1.
          2   -1    0    0  502    0  0.00000000000E+00 -0.00000000000E+00 -0.30043326589E+04  0.30043326589E+04  0.00000000000E+00 0.  1.
          6    1    1    2  502    0 -0.41910034070E+02  0.44658760924E+02 -0.72760919610E+03  0.75039656058E+03  0.17300000000E+03 0. -1.
         -6    1    1    2    0  501  0.41910034070E+02 -0.44658760924E+02 -0.22616128984E+04  0.22690466628E+04  0.17300000000E+03 0.  1.
<mgrwt>
<rscale>  2 0.18352072E+03</rscale>
<asrwt>0</asrwt>
<pdfrwt beam="1">  1        2 0.46220504E+00 0.18352072E+03</pdfrwt>
<pdfrwt beam="2">  1       -2 0.23247021E-02 0.18352072E+03</pdfrwt>
<totfact> 0.13033923E+03</totfact>
</mgrwt>
</event>
<event>
 4    1  0.7354369E-001  0.2804389E+03  0.7546771E-02  0.1095449E+00
          3   -1    0    0  502    0  0.00000000000E+00  0.00000000000E+00  0.50410047127E+03  0.50410047127E+03  0.00000000000E+00 0.  1.
         -3   -1    0    0    0  501 -0.00000000000E+00 -0.00000000000E+00 -0.16630645815E+03  0.16630645815E+03  0.00000000000E+00 0. -1.
          6    1    1    2  502    0  0.21821379068E+03  0.33162278363E+02  0.25229282749E+03  0.37722362857E+03  0.17300000000E+03 0. -1.
         -6    1    1    2    0  501 -0.21821379068E+03 -0.33162278363E+02  0.85501185629E+02  0.29318330084E+03  0.17300000000E+03 0. -1.
<mgrwt>
<rscale>  2 0.28043893E+03</rscale>
<asrwt>0</asrwt>
<pdfrwt beam="1">  1        3 0.77553918E-01 0.28043893E+03</pdfrwt>
<pdfrwt beam="2">  1       -3 0.25585609E-01 0.28043893E+03</pdfrwt>
<totfact> 0.57562367E+01</totfact>
</mgrwt>
</event>
<event>
 4    1  0.7354369E-001  0.2199074E+03  0.7546771E-02  0.1133952E+00
          1   -1    0    0  502    0  0.00000000000E+00  0.00000000000E+00  0.19974027470E+03  0.19974027470E+03  0.00000000000E+00 0. -1.
         -1   -1    0    0    0  501 -0.00000000000E+00 -0.00000000000E+00 -0.30117140235E+03  0.30117140235E+03  0.00000000000E+00 0.  1.
          6    1    1    2  502    0 -0.29611606464E+02 -0.13248934439E+03 -0.16162622795E+03  0.27291447594E+03  0.17300000000E+03 0.  1.
         -6    1    1    2    0  501  0.29611606464E+02  0.13248934439E+03  0.60195100296E+02  0.22799720111E+03  0.17300000000E+03 0. -1.
<mgrwt>
<rscale>  2 0.21990742E+03</rscale>
<asrwt>0</asrwt>
<pdfrwt beam="1">  1        1 0.30729273E-01 0.21990742E+03</pdfrwt>
<pdfrwt beam="2">  1       -1 0.46334062E-01 0.21990742E+03</pdfrwt>
<totfact> 0.69611719E+02</totfact>
</mgrwt>
</event>
<event>
 4    1  0.7354369E-001  0.1844625E+03  0.7546771E-02  0.1163553E+00
          2   -1    0    0  502    0  0.00000000000E+00  0.00000000000E+00  0.11455697257E+03  0.11455697257E+03  0.00000000000E+00 0. -1.
         -2   -1    0    0    0  501 -0.00000000000E+00 -0.00000000000E+00 -0.29772258734E+03  0.29772258734E+03  0.00000000000E+00 0.  1.
          6    1    1    2  502    0 -0.61747963549E+02 -0.16869899369E+02 -0.81612015948E+02  0.20171000385E+03  0.17300000000E+03 0.  1.
         -6    1    1    2    0  501  0.61747963549E+02  0.16869899369E+02 -0.10155359882E+03  0.21056955606E+03  0.17300000000E+03 0.  1.
<mgrwt>
<rscale>  2 0.18446247E+03</rscale>
<asrwt>0</asrwt>
<pdfrwt beam="1">  1        2 0.17624150E-01 0.18446247E+03</pdfrwt>
<pdfrwt beam="2">  1       -2 0.45803475E-01 0.18446247E+03</pdfrwt>
<totfact> 0.14526618E+03</totfact>
</mgrwt>
</event>
<event>
 4    1  0.7354369E-001  0.2347430E+03  0.7546771E-02  0.1123345E+00
          2   -1    0    0  502    0  0.00000000000E+00  0.00000000000E+00  0.10700356178E+04  0.10700356178E+04  0.00000000000E+00 0. -1.
         -2   -1    0    0    0  501 -0.00000000000E+00 -0.00000000000E+00 -0.51591981051E+02  0.51591981051E+02  0.00000000000E+00 0.  1.
          6    1    1    2  502    0  0.32169196657E+02  0.15537187617E+03  0.48523643954E+03  0.53903495190E+03  0.17300000000E+03 0.  1.
         -6    1    1    2    0  501 -0.32169196657E+02 -0.15537187617E+03  0.53320719717E+03  0.58259264691E+03  0.17300000000E+03 0. -1.
<mgrwt>
<rscale>  2 0.23474300E+03</rscale>
<asrwt>0</asrwt>
<pdfrwt beam="1">  1        2 0.16462085E+00 0.23474300E+03</pdfrwt>
<pdfrwt beam="2">  1       -2 0.79372287E-02 0.23474300E+03</pdfrwt>
<totfact> 0.22744578E+03</totfact>
</mgrwt>
</event>
<event>
 4    1  0.7354369E-001  0.1974972E+03  0.7546771E-02  0.1151868E+00
          2   -1    0    0  502    0  0.00000000000E+00  0.00000000000E+00  0.30484793321E+04  0.30484793321E+04  0.00000000000E+00 0.  1.
         -2   -1    0    0    0  501 -0.00000000000E+00 -0.00000000000E+00 -0.14321144290E+02  0.14321144290E+02  0.00000000000E+00 0. -1.
          6    1    1    2  502    0  0.35619789983E+02  0.88359316982E+02  0.10171540777E+04  0.10361503540E+04  0.17300000000E+03 0. -1.
         -6    1    1    2    0  501 -0.35619789983E+02 -0.88359316982E+02  0.20170041101E+04  0.20266501223E+04  0.17300000000E+03 0.  1.
<mgrwt>
<rscale>  2 0.19749719E+03</rscale>
<asrwt>0</asrwt>
<pdfrwt beam="1">  1        2 0.46899631E+00 0.19749719E+03</pdfrwt>
<pdfrwt beam="2">  1       -2 0.22032554E-02 0.19749719E+03</pdfrwt>
<totfact> 0.13242441E+03</totfact>
</mgrwt>
</event>
<event>
 4    1  0.7354369E-001  0.2411659E+03  0.7546771E-02  0.1119019E+00
         -1   -1    0    0    0  501 -0.00000000000E+00  0.00000000000E+00  0.10231042698E+03  0.10231042698E+03  0.00000000000E+00 0. -1.
          1   -1    0    0  502    0  0.00000000000E+00 -0.00000000000E+00 -0.59332954806E+03  0.59332954806E+03  0.00000000000E+00 0.  1.
          6    1    1    2  502    0 -0.16207844498E+03 -0.44300905672E+02 -0.31669698536E+03  0.39806779963E+03  0.17300000000E+03 0. -1.
         -6    1    1    2    0  501  0.16207844498E+03  0.44300905672E+02 -0.17432213572E+03  0.29757217540E+03  0.17300000000E+03 0. -1.
<mgrwt>
<rscale>  2 0.24116590E+03</rscale>
<asrwt>0</asrwt>
<pdfrwt beam="1">  1        1 0.91281469E-01 0.24116590E+03</pdfrwt>
<pdfrwt beam="2">  1       -1 0.15740066E-01 0.24116590E+03</pdfrwt>
<totfact> 0.10641832E+03</totfact>
</mgrwt>
</event>
<event>
 4    1  0.7354369E-001  0.2053568E+03  0.7546771E-02  0.1145297E+00
          1   -1    0    0  502    0  0.00000000000E+00  0.00000000000E+00  0.13184210011E+03  0.13184210011E+03  0.00000000000E+00 0.  1.
         -1   -1    0    0    0  501 -0.00000000000E+00 -0.00000000000E+00 -0.45799270237E+03  0.45799270237E+03  0.00000000000E+00 0. -1.
          6    1    1    2  502    0  0.34628753545E+02 -0.10508697664E+03 -0.11127922469E+01  0.20535983429E+03  0.17300000000E+03 0.  1.
         -6    1    1    2    0  501 -0.34628753545E+02  0.10508697664E+03 -0.32503781001E+03  0.38447496819E+03  0.17300000000E+03 0. -1.
<mgrwt>
<rscale>  2 0.20535682E+03</rscale>
<asrwt>0</asrwt>
<pdfrwt beam="1">  1        1 0.20283400E-01 0.20535682E+03</pdfrwt>
<pdfrwt beam="2">  1       -1 0.70460414E-01 0.20535682E+03</pdfrwt>
<totfact> 0.53194453E+02</totfact>
</mgrwt>
</event>
<event>
 4    1  0.7354369E-001  0.2239330E+03  0.7546771E-02  0.1130984E+00
         -1   -1    0    0    0  501 -0.00000000000E+00  0.00000000000E+00  0.29414967491E+02  0.29414967491E+02  0.00000000000E+00 0. -1.
          1   -1    0    0  502    0  0.00000000000E+00 -0.00000000000E+00 -0.18321454668E+04  0.18321454668E+04  0.00000000000E+00 0.  1.
          6    1    1    2  502    0 -0.12606700944E+03 -0.65758007829E+02 -0.11467770478E+04  0.11684363927E+04  0.17300000000E+03 0.  1.
         -6    1    1    2    0  501  0.12606700944E+03  0.65758007829E+02 -0.65595345150E+03  0.69312404157E+03  0.17300000000E+03 0. -1.
<mgrwt>
<rscale>  2 0.22393304E+03</rscale>
<asrwt>0</asrwt>
<pdfrwt beam="1">  1        1 0.28186858E+00 0.22393304E+03</pdfrwt>
<pdfrwt beam="2">  1       -1 0.45253789E-02 0.22393304E+03</pdfrwt>
<totfact> 0.89058173E+02</totfact>
</mgrwt>
</event>
<event>
 4    1  0.7354369E-001  0.2071566E+03  0.7546771E-02  0.1143838E+00
          1   -1    0    0  502    0  0.00000000000E+00  0.00000000000E+00  0.27739201191E+03  0.27739201191E+03  0.00000000000E+00 0.  1.
         -1   -1    0    0    0  501 -0.00000000000E+00 -0.00000000000E+00 -0.15853707264E+03  0.15853707264E+03  0.00000000000E+00 0. -1.
          6    1    1    2  502    0  0.95982346915E+02 -0.61418515957E+02  0.93316169167E+02  0.22720420870E+03  0.17300000000E+03 0. -1.
         -6    1    1    2    0  501 -0.95982346915E+02  0.61418515957E+02  0.25538770096E+02  0.20872487585E+03  0.17300000000E+03 0. -1.
<mgrwt>
<rscale>  2 0.20715657E+03</rscale>
<asrwt>0</asrwt>
<pdfrwt beam="1">  1        1 0.42675694E-01 0.20715657E+03</pdfrwt>
<pdfrwt beam="2">  1       -1 0.24390319E-01 0.20715657E+03</pdfrwt>
<totfact> 0.13973476E+03</totfact>
</mgrwt>
</event>
<event>
 4    1  0.7354369E-001  0.1944066E+03  0.7546771E-02  0.1154546E+00
         -2   -1    0    0    0  501 -0.00000000000E+00  0.00000000000E+00  0.34197404100E+02  0.34197404100E+02  0.00000000000E+00 0.  1.
          2   -1    0    0  502    0  0.00000000000E+00 -0.00000000000E+00 -0.11078593808E+04  0.11078593808E+04  0.00000000000E+00 0. -1.
          6    1    1    2  502    0 -0.86400014249E+02 -0.19999194685E+02 -0.56496790895E+03  0.59748026611E+03  0.17300000000E+03 0. -1.
         -6    1    1    2    0  501  0.86400014249E+02  0.19999194685E+02 -0.50869406773E+03  0.54457651877E+03  0.17300000000E+03 0.  1.
<mgrwt>
<rscale>  2 0.19440661E+03</rscale>
<asrwt>0</asrwt>
<pdfrwt beam="1">  1        2 0.17043993E+00 0.19440661E+03</pdfrwt>
<pdfrwt beam="2">  1       -2 0.52611384E-02 0.19440661E+03</pdfrwt>
<totfact> 0.40595022E+03</totfact>
</mgrwt>
</event>
<event>
 4    1  0.7354369E-001  0.2023166E+03  0.7546771E-02  0.1147799E+00
          2   -1    0    0  502    0  0.00000000000E+00  0.00000000000E+00  0.10012032357E+04  0.10012032357E+04  0.00000000000E+00 0.  1.
         -2   -1    0    0    0  501 -0.00000000000E+00 -0.00000000000E+00 -0.45423976833E+02  0.45423976833E+02  0.00000000000E+00 0. -1.
          6    1    1    2  502    0  0.78766934360E+02  0.69273106611E+02  0.64335365265E+03  0.67441523977E+03  0.17300000000E+03 0. -1.
         -6    1    1    2    0  501 -0.78766934360E+02 -0.69273106611E+02  0.31242560618E+03  0.37221197273E+03  0.17300000000E+03 0.  1.
<mgrwt>
<rscale>  2 0.20231657E+03</rscale>
<asrwt>0</asrwt>
<pdfrwt beam="1">  1        2 0.15403125E+00 0.20231657E+03</pdfrwt>
<pdfrwt beam="2">  1       -2 0.69883049E-02 0.20231657E+03</pdfrwt>
<totfact> 0.30426291E+03</totfact>
</mgrwt>
</event>
<event>
 4    1  0.7354369E-001  0.2172924E+03  0.7546771E-02  0.1135918E+00
          2   -1    0    0  502    0  0.00000000000E+00  0.00000000000E+00  0.41297274952E+03  0.41297274952E+03  0.00000000000E+00 0. -1.
         -2   -1    0    0    0  501 -0.00000000000E+00 -0.00000000000E+00 -0.11579187473E+03  0.11579187473E+03  0.00000000000E+00 0.  1.
          6    1    1    2  502    0  0.11634347339E+03  0.61246968804E+02  0.17827653403E+03  0.28106674932E+03  0.17300000000E+03 0.  1.
         -6    1    1    2    0  501 -0.11634347339E+03 -0.61246968804E+02  0.11890434076E+03  0.24769787492E+03  0.17300000000E+03 0.  1.
<mgrwt>
<rscale>  2 0.21729242E+03</rscale>
<asrwt>0</asrwt>
<pdfrwt beam="1">  1        2 0.63534268E-01 0.21729242E+03</pdfrwt>
<pdfrwt beam="2">  1       -2 0.17814135E-01 0.21729242E+03</pdfrwt>
<totfact> 0.19616609E+03</totfact>
</mgrwt>
</event>
<event>
 4    1  0.7354369E-001  0.2462105E+03  0.7546771E-02  0.1115723E+00
          1   -1    0    0  502    0  0.00000000000E+00  0.00000000000E+00  0.51161145341E+03  0.51161145341E+03  0.00000000000E+00 0. -1.
         -1   -1    0    0    0  501 -0.00000000000E+00 -0.00000000000E+00 -0.14404688627E+03  0.14404688627E+03  0.00000000000E+00 0.  1.
          6    1    1    2  502    0  0.10683204679E+03  0.13884345497E+03  0.45689690887E+02  0.25041393544E+03  0.17300000000E+03 0.  1.
         -6    1    1    2    0  501 -0.10683204679E+03 -0.13884345497E+03  0.32187487625E+03  0.40524440425E+03  0.17300000000E+03 0. -1.
<mgrwt>
<rscale>  2 0.24621046E+03</rscale>
<asrwt>0</asrwt>
<pdfrwt beam="1">  1        1 0.78709454E-01 0.24621046E+03</pdfrwt>
<pdfrwt beam="2">  1       -1 0.22161060E-01 0.24621046E+03</pdfrwt>
<totfact> 0.74816091E+02</totfact>
</mgrwt>
</event>
<event>
 4    1  0.7354369E-001  0.2039849E+03  0.7546771E-02  0.1146420E+00
          2   -1    0    0  502    0  0.00000000000E+00  0.00000000000E+00  0.55281531842E+03  0.55281531842E+03  0.00000000000E+00 0. -1.
         -2   -1    0    0    0  501 -0.00000000000E+00 -0.00000000000E+00 -0.12541100425E+03  0.12541100425E+03  0.00000000000E+00 0.  1.
          6    1    1    2  502    0 -0.69122045723E+02 -0.83084218282E+02  0.42812831246E+03  0.47424012532E+03  0.17300000000E+03 0. -1.
         -6    1    1    2    0  501  0.69122045723E+02  0.83084218282E+02 -0.72399829087E+00  0.20398619734E+03  0.17300000000E+03 0.  1.
<mgrwt>
<rscale>  2 0.20398491E+03</rscale>
<asrwt>0</asrwt>
<pdfrwt beam="1">  1        2 0.85048509E-01 0.20398491E+03</pdfrwt>
<pdfrwt beam="2">  1       -2 0.19294001E-01 0.20398491E+03</pdfrwt>
<totfact> 0.12388432E+03</totfact>
</mgrwt>
</event>
<event>
 4    1  0.7354369E-001  0.1847074E+03  0.7546771E-02  0.1163323E+00
         -1   -1    0    0    0  501 -0.00000000000E+00  0.00000000000E+00  0.14893321503E+02  0.14893321503E+02  0.00000000000E+00 0. -1.
          1   -1    0    0  502    0  0.00000000000E+00 -0.00000000000E+00 -0.24403376113E+04  0.24403376113E+04  0.00000000000E+00 0.  1.
          6    1    1    2  502    0 -0.49893482562E+02 -0.41212284233E+02 -0.90877961680E+03  0.92736034199E+03  0.17300000000E+03 0. -1.
         -6    1    1    2    0  501  0.49893482562E+02  0.41212284233E+02 -0.15166646730E+04  0.15278705909E+04  0.17300000000E+03 0.  1.
<mgrwt>
<rscale>  2 0.18470737E+03</rscale>
<asrwt>0</asrwt>
<pdfrwt beam="1">  1        1 0.37543651E+00 0.18470737E+03</pdfrwt>
<pdfrwt beam="2">  1       -1 0.22912805E-02 0.18470737E+03</pdfrwt>
<totfact> 0.98530327E+02</totfact>
</mgrwt>
</event>
<event>
 4    1  0.7354369E-001  0.1858679E+03  0.7546771E-02  0.1162242E+00
          2   -1    0    0  502    0  0.00000000000E+00  0.00000000000E+00  0.12378540683E+04  0.12378540683E+04  0.00000000000E+00 0. -1.
         -2   -1    0    0    0  501 -0.00000000000E+00 -0.00000000000E+00 -0.28564341407E+02  0.28564341407E+02  0.00000000000E+00 0.  1.
          6    1    1    2  502    0  0.62910702848E+02  0.25692807563E+02  0.70057916135E+03  0.72481586504E+03  0.17300000000E+03 0. -1.
         -6    1    1    2    0  501 -0.62910702848E+02 -0.25692807563E+02  0.50871056550E+03  0.54160254462E+03  0.17300000000E+03 0. -1.
<mgrwt>
<rscale>  2 0.18586790E+03</rscale>
<asrwt>0</asrwt>
<pdfrwt beam="1">  1        2 0.19043905E+00 0.18586790E+03</pdfrwt>
<pdfrwt beam="2">  1       -2 0.43945150E-02 0.18586790E+03</pdfrwt>
<totfact> 0.44922725E+03</totfact>
</mgrwt>
</event>
<event>
 4    1  0.7354369E-001  0.1743243E+03  0.7546771E-02  0.1173412E+00
          2   -1    0    0  502    0  0.00000000000E+00  0.00000000000E+00  0.43362098445E+03  0.43362098445E+03  0.00000000000E+00 0.  1.
         -2   -1    0    0    0  501 -0.00000000000E+00 -0.00000000000E+00 -0.17075592171E+03  0.17075592171E+03  0.00000000000E+00 0. -1.
          6    1    1    2  502    0  0.28995028733E+01  0.21249685152E+02 -0.10059996804E+03  0.20126924704E+03  0.17300000000E+03 0. -1.
         -6    1    1    2    0  501 -0.28995028733E+01 -0.21249685152E+02  0.36346503078E+03  0.40310765912E+03  0.17300000000E+03 0.  1.
<mgrwt>
<rscale>  2 0.17432428E+03</rscale>
<asrwt>0</asrwt>
<pdfrwt beam="1">  1        2 0.66710920E-01 0.17432428E+03</pdfrwt>
<pdfrwt beam="2">  1       -2 0.26270142E-01 0.17432428E+03</pdfrwt>
<totfact> 0.94825098E+02</totfact>
</mgrwt>
</event>
<event>
 4    1  0.7354369E-001  0.1821657E+03  0.7546771E-02  0.1165723E+00
          2   -1    0    0  502    0  0.00000000000E+00  0.00000000000E+00  0.65555860867E+03  0.65555860867E+03  0.00000000000E+00 0.  1.
         -2   -1    0    0    0  501 -0.00000000000E+00 -0.00000000000E+00 -0.56969793844E+02  0.56969793844E+02  0.00000000000E+00 0. -1.
          6    1    1    2  502    0  0.44229432353E+02 -0.36043220263E+02  0.18035364013E+03  0.25634311366E+03  0.17300000000E+03 0. -1.
         -6    1    1    2    0  501 -0.44229432353E+02  0.36043220263E+02  0.41823517469E+03  0.45618528885E+03  0.17300000000E+03 0.  1.
<mgrwt>
<rscale>  2 0.18216574E+03</rscale>
<asrwt>0</asrwt>
<pdfrwt beam="1">  1        2 0.10085517E+00 0.18216574E+03</pdfrwt>
<pdfrwt beam="2">  1       -2 0.87645841E-02 0.18216574E+03</pdfrwt>
<totfact> 0.36607813E+03</totfact>
</mgrwt>
</event>
<event>
 4    1  0.7354369E-001  0.1868107E+03  0.7546771E-02  0.1161370E+00
         -2   -1    0    0    0  501 -0.00000000000E+00  0.00000000000E+00  0.87586236717E+02  0.87586236717E+02  0.00000000000E+00 0.  1.
          2   -1    0    0  502    0  0.00000000000E+00 -0.00000000000E+00 -0.40093338318E+03  0.40093338318E+03  0.00000000000E+00 0. -1.
          6    1    1    2  502    0 -0.24540466432E+02  0.66083315022E+02 -0.13742788791E+03  0.23191520733E+03  0.17300000000E+03 0.  1.
         -6    1    1    2    0  501  0.24540466432E+02 -0.66083315022E+02 -0.17591925855E+03  0.25660441256E+03  0.17300000000E+03 0. -1.
<mgrwt>
<rscale>  2 0.18681070E+03</rscale>
<asrwt>0</asrwt>
<pdfrwt beam="1">  1        2 0.61682060E-01 0.18681070E+03</pdfrwt>
<pdfrwt beam="2">  1       -2 0.13474806E-01 0.18681070E+03</pdfrwt>
<totfact> 0.32004380E+03</totfact>
</mgrwt>
</event>
<event>
 4    1  0.7354369E-001  0.2438652E+03  0.7546771E-02  0.1117244E+00
          2   -1    0    0  502    0  0.00000000000E+00  0.00000000000E+00  0.61014723532E+03  0.61014723532E+03  0.00000000000E+00 0.  1.
         -2   -1    0    0    0  501 -0.00000000000E+00 -0.00000000000E+00 -0.10292428609E+03  0.10292428609E+03  0.00000000000E+00 0. -1.
          6    1    1    2  502    0 -0.37548606181E+02  0.16772394257E+03  0.17152579053E+03  0.29814646662E+03  0.17300000000E+03 0. -1.
         -6    1    1    2    0  501  0.37548606181E+02 -0.16772394257E+03  0.33569715870E+03  0.41492505479E+03  0.17300000000E+03 0.  1.
<mgrwt>
<rscale>  2 0.24386517E+03</rscale>
<asrwt>0</asrwt>
<pdfrwt beam="1">  1        2 0.93868804E-01 0.24386517E+03</pdfrwt>
<pdfrwt beam="2">  1       -2 0.15834506E-01 0.24386517E+03</pdfrwt>
<totfact> 0.15447872E+03</totfact>
</mgrwt>
</event>
<event>
 4    1  0.7354369E-001  0.2337378E+03  0.7546771E-02  0.1124036E+00
         -3   -1    0    0    0  501 -0.00000000000E+00  0.00000000000E+00  0.58340225009E+03  0.58340225009E+03  0.00000000000E+00 0.  1.
          3   -1    0    0  502    0  0.00000000000E+00 -0.00000000000E+00 -0.94224522053E+02  0.94224522053E+02  0.00000000000E+00 0. -1.
          6    1    1    2  502    0  0.14381745592E+03 -0.63410692388E+02  0.21804396934E+03  0.31965066730E+03  0.17300000000E+03 0. -1.
         -6    1    1    2    0  501 -0.14381745592E+03  0.63410692388E+02  0.27113375870E+03  0.35797610485E+03  0.17300000000E+03 0.  1.
<mgrwt>
<rscale>  2 0.23373784E+03</rscale>
<asrwt>0</asrwt>
<pdfrwt beam="1">  1        3 0.14496081E-01 0.23373784E+03</pdfrwt>
<pdfrwt beam="2">  1       -3 0.89754190E-01 0.23373784E+03</pdfrwt>
<totfact> 0.11266870E+02</totfact>
</mgrwt>
</event>
<event>
 4    1  0.7354369E-001  0.2111850E+03  0.7546771E-02  0.1140631E+00
          3   -1    0    0  502    0  0.00000000000E+00  0.00000000000E+00  0.10546767739E+03  0.10546767739E+03  0.00000000000E+00 0. -1.
         -3   -1    0    0    0  501 -0.00000000000E+00 -0.00000000000E+00 -0.44724975978E+03  0.44724975978E+03  0.00000000000E+00 0.  1.
          6    1    1    2  502    0  0.45782633495E+02 -0.11213412480E+03 -0.23541385046E+03  0.31625747811E+03  0.17300000000E+03 0.  1.
         -6    1    1    2    0  501 -0.45782633495E+02  0.11213412480E+03 -0.10636823194E+03  0.23645995906E+03  0.17300000000E+03 0. -1.
<mgrwt>
<rscale>  2 0.21118502E+03</rscale>
<asrwt>0</asrwt>
<pdfrwt beam="1">  1        3 0.16225797E-01 0.21118502E+03</pdfrwt>
<pdfrwt beam="2">  1       -3 0.68807654E-01 0.21118502E+03</pdfrwt>
<totfact> 0.16417256E+02</totfact>
</mgrwt>
</event>
<event>
 4    1  0.7354369E-001  0.2948529E+03  0.7546771E-02  0.1087842E+00
          2   -1    0    0  502    0  0.00000000000E+00  0.00000000000E+00  0.53184888400E+03  0.53184888400E+03  0.00000000000E+00 0. -1.
         -2   -1    0    0    0  501 -0.00000000000E+00 -0.00000000000E+00 -0.21002766834E+03  0.21002766834E+03  0.00000000000E+00 0.  1.
          6    1    1    2  502    0  0.23084956242E+03  0.60972998073E+02  0.33556772088E+03  0.44670339406E+03  0.17300000000E+03 0. -1.
         -6    1    1    2    0  501 -0.23084956242E+03 -0.60972998073E+02 -0.13746505224E+02  0.29517315828E+03  0.17300000000E+03 0.  1.
<mgrwt>
<rscale>  2 0.29485289E+03</rscale>
<asrwt>0</asrwt>
<pdfrwt beam="1">  1        2 0.81822905E-01 0.29485289E+03</pdfrwt>
<pdfrwt beam="2">  1       -2 0.32311949E-01 0.29485289E+03</pdfrwt>
<totfact> 0.51974368E+02</totfact>
</mgrwt>
</event>
<event>
 4    1  0.7354369E-001  0.1919805E+03  0.7546771E-02  0.1156687E+00
         -2   -1    0    0    0  501 -0.00000000000E+00  0.00000000000E+00  0.57666344099E+02  0.57666344099E+02  0.00000000000E+00 0.  1.
          2   -1    0    0  502    0  0.00000000000E+00 -0.00000000000E+00 -0.78780267484E+03  0.78780267484E+03  0.00000000000E+00 0. -1.
          6    1    1    2  502    0  0.79299876988E+02  0.25279591877E+02 -0.54870869330E+03  0.58132414224E+03  0.17300000000E+03 0. -1.
         -6    1    1    2    0  501 -0.79299876988E+02 -0.25279591877E+02 -0.18142763744E+03  0.26414487669E+03  0.17300000000E+03 0. -1.
<mgrwt>
<rscale>  2 0.19198054E+03</rscale>
<asrwt>0</asrwt>
<pdfrwt beam="1">  1        2 0.12120041E+00 0.19198054E+03</pdfrwt>
<pdfrwt beam="2">  1       -2 0.88717454E-02 0.19198054E+03</pdfrwt>
<totfact> 0.28780082E+03</totfact>
</mgrwt>
</event>
<event>
 4    1  0.7354369E-001  0.1802361E+03  0.7546771E-02  0.1167575E+00
         -1   -1    0    0    0  501 -0.00000000000E+00  0.00000000000E+00  0.24565092134E+03  0.24565092134E+03  0.00000000000E+00 0. -1.
          1   -1    0    0  502    0  0.00000000000E+00 -0.00000000000E+00 -0.14156797432E+03  0.14156797432E+03  0.00000000000E+00 0.  1.
          6    1    1    2  502    0 -0.46226814275E+02  0.20472811407E+02  0.23455255745E+01  0.18025136853E+03  0.17300000000E+03 0.  1.
         -6    1    1    2    0  501  0.46226814275E+02 -0.20472811407E+02  0.10173742144E+03  0.20696752713E+03  0.17300000000E+03 0. -1.
<mgrwt>
<rscale>  2 0.18023611E+03</rscale>
<asrwt>0</asrwt>
<pdfrwt beam="1">  1        1 0.21779688E-01 0.18023611E+03</pdfrwt>
<pdfrwt beam="2">  1       -1 0.37792449E-01 0.18023611E+03</pdfrwt>
<totfact> 0.15436669E+03</totfact>
</mgrwt>
</event>
<event>
 4    1  0.7354369E-001  0.1792025E+03  0.7546771E-02  0.1168577E+00
          1   -1    0    0  502    0  0.00000000000E+00  0.00000000000E+00  0.43116604702E+03  0.43116604702E+03  0.00000000000E+00 0.  1.
         -1   -1    0    0    0  501 -0.00000000000E+00 -0.00000000000E+00 -0.75199974607E+02  0.75199974607E+02  0.00000000000E+00 0. -1.
          6    1    1    2  502    0 -0.46652867344E+02  0.28394510318E+01  0.20274417509E+03  0.27058963958E+03  0.17300000000E+03 0. -1.
         -6    1    1    2    0  501  0.46652867344E+02 -0.28394510318E+01  0.15322189733E+03  0.23577638205E+03  0.17300000000E+03 0. -1.
<mgrwt>
<rscale>  2 0.17920255E+03</rscale>
<asrwt>0</asrwt>
<pdfrwt beam="1">  1        1 0.66333237E-01 0.17920255E+03</pdfrwt>
<pdfrwt beam="2">  1       -1 0.11569227E-01 0.17920255E+03</pdfrwt>
<totfact> 0.26255554E+03</totfact>
</mgrwt>
</event>
<event>
 4    1  0.7354369E-001  0.2581397E+03  0.7546771E-02  0.1108266E+00
          2   -1    0    0  502    0  0.00000000000E+00  0.00000000000E+00  0.24105046491E+04  0.24105046491E+04  0.00000000000E+00 0.  1.
         -2   -1    0    0    0  501 -0.00000000000E+00 -0.00000000000E+00 -0.30557137724E+02  0.30557137724E+02  0.00000000000E+00 0. -1.
          6    1    1    2  502    0 -0.86417365272E+02  0.17099458357E+03  0.81312308117E+03  0.85311502962E+03  0.17300000000E+03 0.  1.
         -6    1    1    2    0  501  0.86417365272E+02 -0.17099458357E+03  0.15668244303E+04  0.15879467573E+04  0.17300000000E+03 0. -1.
<mgrwt>
<rscale>  2 0.25813971E+03</rscale>
<asrwt>0</asrwt>
<pdfrwt beam="1">  1        2 0.37084672E+00 0.25813971E+03</pdfrwt>
<pdfrwt beam="2">  1       -2 0.47011000E-02 0.25813971E+03</pdfrwt>
<totfact> 0.96722466E+02</totfact>
</mgrwt>
</event>
<event>
 4    1  0.7354369E-001  0.2658330E+03  0.7546771E-02  0.1103688E+00
         -2   -1    0    0    0  501 -0.00000000000E+00  0.00000000000E+00  0.29606080649E+02  0.29606080649E+02  0.00000000000E+00 0. -1.
          2   -1    0    0  502    0  0.00000000000E+00 -0.00000000000E+00 -0.30041976362E+04  0.30041976362E+04  0.00000000000E+00 0.  1.
          6    1    1    2  502    0  0.12355492973E+02 -0.20145850875E+03 -0.79969656451E+03  0.84272283952E+03  0.17300000000E+03 0. -1.
         -6    1    1    2    0  501 -0.12355492973E+02  0.20145850875E+03 -0.21748949910E+04  0.21910808773E+04  0.17300000000E+03 0.  1.
<mgrwt>
<rscale>  2 0.26583301E+03</rscale>
<asrwt>0</asrwt>
<pdfrwt beam="1">  1        2 0.46218421E+00 0.26583301E+03</pdfrwt>
<pdfrwt beam="2">  1       -2 0.45547821E-02 0.26583301E+03</pdfrwt>
<totfact> 0.46829061E+02</totfact>
</mgrwt>
</event>
<event>
 4    1  0.7354369E-001  0.1776300E+03  0.7546771E-02  0.1170117E+00
          2   -1    0    0  502    0  0.00000000000E+00  0.00000000000E+00  0.87537411940E+03  0.87537411940E+03  0.00000000000E+00 0.  1.
         -2   -1    0    0    0  501 -0.00000000000E+00 -0.00000000000E+00 -0.36061736533E+02  0.36061736533E+02  0.00000000000E+00 0. -1.
          6    1    1    2  502    0 -0.28450216926E+02  0.28530946643E+02  0.40969543123E+03  0.44654537970E+03  0.17300000000E+03 0.  1.
         -6    1    1    2    0  501  0.28450216926E+02 -0.28530946643E+02  0.42961695164E+03  0.46489047623E+03  0.17300000000E+03 0. -1.
<mgrwt>
<rscale>  2 0.17763004E+03</rscale>
<asrwt>0</asrwt>
<pdfrwt beam="1">  1        2 0.13467292E+00 0.17763004E+03</pdfrwt>
<pdfrwt beam="2">  1       -2 0.55479602E-02 0.17763004E+03</pdfrwt>
<totfact> 0.51768143E+03</totfact>
</mgrwt>
</event>
<event>
 4    1  0.7354369E-001  0.1940032E+03  0.7546771E-02  0.1154899E+00
          2   -1    0    0  502    0  0.00000000000E+00  0.00000000000E+00  0.30155398126E+03  0.30155398126E+03  0.00000000000E+00 0. -1.
         -2   -1    0    0    0  501 -0.00000000000E+00 -0.00000000000E+00 -0.15961030067E+03  0.15961030067E+03  0.00000000000E+00 0.  1.
          6    1    1    2  502    0 -0.48869641975E+02  0.72938439734E+02  0.17863828842E+03  0.26372124675E+03  0.17300000000E+03 0. -1.
         -6    1    1    2    0  501  0.48869641975E+02 -0.72938439734E+02 -0.36694607835E+02  0.19744303518E+03  0.17300000000E+03 0.  1.
<mgrwt>
<rscale>  2 0.19400324E+03</rscale>
<asrwt>0</asrwt>
<pdfrwt beam="1">  1        2 0.46392920E-01 0.19400324E+03</pdfrwt>
<pdfrwt beam="2">  1       -2 0.24555431E-01 0.19400324E+03</pdfrwt>
<totfact> 0.15817502E+03</totfact>
</mgrwt>
</event>
<event>
 4    1  0.7354369E-001  0.1734413E+03  0.7546771E-02  0.1174306E+00
         -1   -1    0    0    0  501 -0.00000000000E+00  0.00000000000E+00  0.21547283933E+03  0.21547283933E+03  0.00000000000E+00 0.  1.
          1   -1    0    0  502    0  0.00000000000E+00 -0.00000000000E+00 -0.22661993893E+03  0.22661993893E+03  0.00000000000E+00 0. -1.
          6    1    1    2  502    0 -0.50191225980E+01  0.11299804666E+02 -0.14254249441E+03  0.22449997748E+03  0.17300000000E+03 0. -1.
         -6    1    1    2    0  501  0.50191225980E+01 -0.11299804666E+02  0.13139539481E+03  0.21759280079E+03  0.17300000000E+03 0.  1.
<mgrwt>
<rscale>  2 0.17344128E+03</rscale>
<asrwt>0</asrwt>
<pdfrwt beam="1">  1        1 0.34864606E-01 0.17344128E+03</pdfrwt>
<pdfrwt beam="2">  1       -1 0.33149667E-01 0.17344128E+03</pdfrwt>
<totfact> 0.10699459E+03</totfact>
</mgrwt>
</event>
<event>
 4    1  0.7354369E-001  0.2220589E+03  0.7546771E-02  0.1132357E+00
         -2   -1    0    0    0  501 -0.00000000000E+00  0.00000000000E+00  0.63294305570E+02  0.63294305570E+02  0.00000000000E+00 0. -1.
          2   -1    0    0  502    0  0.00000000000E+00 -0.00000000000E+00 -0.86008135833E+03  0.86008135833E+03  0.00000000000E+00 0.  1.
          6    1    1    2  502    0  0.67391464384E+02 -0.12181771121E+03 -0.25669214654E+03  0.33941276100E+03  0.17300000000E+03 0. -1.
         -6    1    1    2    0  501 -0.67391464384E+02  0.12181771121E+03 -0.54009490622E+03  0.58396290290E+03  0.17300000000E+03 0.  1.
<mgrwt>
<rscale>  2 0.22205892E+03</rscale>
<asrwt>0</asrwt>
<pdfrwt beam="1">  1        2 0.13232020E+00 0.22205892E+03</pdfrwt>
<pdfrwt beam="2">  1       -2 0.97375861E-02 0.22205892E+03</pdfrwt>
<totfact> 0.22266610E+03</totfact>
</mgrwt>
</event>
<event>
 4    1  0.7354369E-001  0.2223445E+03  0.7546771E-02  0.1132147E+00
         -2   -1    0    0    0  501 -0.00000000000E+00  0.00000000000E+00  0.11220656612E+03  0.11220656612E+03  0.00000000000E+00 0. -1.
          2   -1    0    0  502    0  0.00000000000E+00 -0.00000000000E+00 -0.46705729938E+03  0.46705729938E+03  0.00000000000E+00 0.  1.
          6    1    1    2  502    0 -0.94488923591E+02 -0.10285879085E+03 -0.24637253367E+03  0.33186821614E+03  0.17300000000E+03 0. -1.
         -6    1    1    2    0  501  0.94488923591E+02  0.10285879085E+03 -0.10847819959E+03  0.24739564936E+03  0.17300000000E+03 0. -1.
<mgrwt>
<rscale>  2 0.22234452E+03</rscale>
<asrwt>0</asrwt>
<pdfrwt beam="1">  1        2 0.71854968E-01 0.22234452E+03</pdfrwt>
<pdfrwt beam="2">  1       -2 0.17262549E-01 0.22234452E+03</pdfrwt>
<totfact> 0.18078853E+03</totfact>
</mgrwt>
</event>
<event>
 4    1  0.7354369E-001  0.1876607E+03  0.7546771E-02  0.1160588E+00
          1   -1    0    0  502    0  0.00000000000E+00  0.00000000000E+00  0.65889820831E+03  0.65889820831E+03  0.00000000000E+00 0.  1.
         -1   -1    0    0    0  501 -0.00000000000E+00 -0.00000000000E+00 -0.54065401671E+02  0.54065401671E+02  0.00000000000E+00 0. -1.
          6    1    1    2  502    0  0.35454232623E+02 -0.63486428750E+02  0.26430969280E+03  0.32415450476E+03  0.17300000000E+03 0.  1.
         -6    1    1    2    0  501 -0.35454232623E+02  0.63486428750E+02  0.34052311384E+03  0.38880910522E+03  0.17300000000E+03 0.  1.
<mgrwt>
<rscale>  2 0.18766068E+03</rscale>
<asrwt>0</asrwt>
<pdfrwt beam="1">  1        1 0.10136895E+00 0.18766068E+03</pdfrwt>
<pdfrwt beam="2">  1       -1 0.83177546E-02 0.18766068E+03</pdfrwt>
<totfact> 0.24718693E+03</totfact>
</mgrwt>
</event>
<event>
 4    1  0.7354369E-001  0.2078184E+03  0.7546771E-02  0.1143305E+00
          1   -1    0    0  502    0  0.00000000000E+00  0.00000000000E+00  0.11104258655E+03  0.11104258655E+03  0.00000000000E+00 0.  1.
         -1   -1    0    0    0  501 -0.00000000000E+00 -0.00000000000E+00 -0.39013598204E+03  0.39013598204E+03  0.00000000000E+00 0. -1.
          6    1    1    2  502    0  0.81878769350E+02 -0.80965025042E+02 -0.12564948601E+03  0.24285028615E+03  0.17300000000E+03 0.  1.
         -6    1    1    2    0  501 -0.81878769350E+02  0.80965025042E+02 -0.15344390948E+03  0.25832828244E+03  0.17300000000E+03 0. -1.
<mgrwt>
<rscale>  2 0.20781835E+03</rscale>
<asrwt>0</asrwt>
<pdfrwt beam="1">  1        1 0.17083475E-01 0.20781835E+03</pdfrwt>
<pdfrwt beam="2">  1       -1 0.60020921E-01 0.20781835E+03</pdfrwt>
<totfact> 0.90886721E+02</totfact>
</mgrwt>
</event>
<event>
 4    1  0.7354369E-001  0.2512468E+03  0.7546771E-02  0.1112519E+00
         -2   -1    0    0    0  501 -0.00000000000E+00  0.00000000000E+00  0.25214840349E+03  0.25214840349E+03  0.00000000000E+00 0. -1.
          2   -1    0    0  502    0  0.00000000000E+00 -0.00000000000E+00 -0.25163671214E+03  0.25163671214E+03  0.00000000000E+00 0.  1.
          6    1    1    2  502    0  0.16758116147E+03  0.71501926372E+02 -0.17767039942E+02  0.25187425208E+03  0.17300000000E+03 0. -1.
         -6    1    1    2    0  501 -0.16758116147E+03 -0.71501926372E+02  0.18278731292E+02  0.25191086355E+03  0.17300000000E+03 0.  1.
<mgrwt>
<rscale>  2 0.25124683E+03</rscale>
<asrwt>0</asrwt>
<pdfrwt beam="1">  1        2 0.38713340E-01 0.25124683E+03</pdfrwt>
<pdfrwt beam="2">  1       -2 0.38792062E-01 0.25124683E+03</pdfrwt>
<totfact> 0.83770991E+02</totfact>
</mgrwt>
</event>
<event>
 4    1  0.7354369E-001  0.1983316E+03  0.7546771E-02  0.1151154E+00
         -2   -1    0    0    0  501 -0.00000000000E+00  0.00000000000E+00  0.30826572455E+02  0.30826572455E+02  0.00000000000E+00 0. -1.
          2   -1    0    0  502    0  0.00000000000E+00 -0.00000000000E+00 -0.12770998277E+04  0.12770998277E+04  0.00000000000E+00 0.  1.
          6    1    1    2  502    0  0.82920178760E+02 -0.50305870154E+02 -0.60415315878E+03  0.63587457559E+03  0.17300000000E+03 0. -1.
         -6    1    1    2    0  501 -0.82920178760E+02  0.50305870154E+02 -0.64212009647E+03  0.67205182457E+03  0.17300000000E+03 0. -1.
<mgrwt>
<rscale>  2 0.19833163E+03</rscale>
<asrwt>0</asrwt>
<pdfrwt beam="1">  1        2 0.19647692E+00 0.19833163E+03</pdfrwt>
<pdfrwt beam="2">  1       -2 0.47425490E-02 0.19833163E+03</pdfrwt>
<totfact> 0.38143437E+03</totfact>
</mgrwt>
</event>
<event>
 4    1  0.7354369E-001  0.2080312E+03  0.7546771E-02  0.1143135E+00
         -2   -1    0    0    0  501 -0.00000000000E+00  0.00000000000E+00  0.26097192470E+02  0.26097192470E+02  0.00000000000E+00 0. -1.
          2   -1    0    0  502    0  0.00000000000E+00 -0.00000000000E+00 -0.19585265123E+04  0.19585265123E+04  0.00000000000E+00 0.  1.
          6    1    1    2  502    0  0.31570517458E+02  0.11113635336E+03 -0.57769980401E+03  0.61401469866E+03  0.17300000000E+03 0. -1.
         -6    1    1    2    0  501 -0.31570517458E+02 -0.11113635336E+03 -0.13547295159E+04  0.13706090061E+04  0.17300000000E+03 0. -1.
<mgrwt>
<rscale>  2 0.20803122E+03</rscale>
<asrwt>0</asrwt>
<pdfrwt beam="1">  1        2 0.30131186E+00 0.20803122E+03</pdfrwt>
<pdfrwt beam="2">  1       -2 0.40149516E-02 0.20803122E+03</pdfrwt>
<totfact> 0.21417859E+03</totfact>
</mgrwt>
</event>
<event>
 4    1  0.7354369E-001  0.1931524E+03  0.7546771E-02  0.1155648E+00
         -1   -1    0    0    0  501 -0.00000000000E+00  0.00000000000E+00  0.15772094336E+03  0.15772094336E+03  0.00000000000E+00 0.  1.
          1   -1    0    0  502    0  0.00000000000E+00 -0.00000000000E+00 -0.23715722214E+03  0.23715722214E+03  0.00000000000E+00 0. -1.
          6    1    1    2  502    0 -0.76725235231E+02 -0.38627609273E+02 -0.49762525052E+02  0.19945967718E+03  0.17300000000E+03 0. -1.
         -6    1    1    2    0  501  0.76725235231E+02  0.38627609273E+02 -0.29673753733E+02  0.19541848833E+03  0.17300000000E+03 0.  1.
<mgrwt>
<rscale>  2 0.19315241E+03</rscale>
<asrwt>0</asrwt>
<pdfrwt beam="1">  1        1 0.36485726E-01 0.19315241E+03</pdfrwt>
<pdfrwt beam="2">  1       -1 0.24264761E-01 0.19315241E+03</pdfrwt>
<totfact> 0.17119060E+03</totfact>
</mgrwt>
</event>
<event>
 4    1  0.7354369E-001  0.2505219E+03  0.7546771E-02  0.1112975E+00
          1   -1    0    0  502    0  0.00000000000E+00  0.00000000000E+00  0.74313951314E+03  0.74313951314E+03  0.00000000000E+00 0.  1.
         -1   -1    0    0    0  501 -0.00000000000E+00 -0.00000000000E+00 -0.84458295630E+02  0.84458295630E+02  0.00000000000E+00 0. -1.
          6    1    1    2  502    0 -0.17789088716E+03 -0.34453935474E+02  0.33222769243E+03  0.41609672076E+03  0.17300000000E+03 0.  1.
         -6    1    1    2    0  501  0.17789088716E+03  0.34453935474E+02  0.32645352508E+03  0.41150108802E+03  0.17300000000E+03 0.  1.
<mgrwt>
<rscale>  2 0.25052194E+03</rscale>
<asrwt>0</asrwt>
<pdfrwt beam="1">  1        1 0.11432915E+00 0.25052194E+03</pdfrwt>
<pdfrwt beam="2">  1       -1 0.12993584E-01 0.25052194E+03</pdfrwt>
<totfact> 0.10436711E+03</totfact>
</mgrwt>
</event>
<event>
 4    1  0.7354369E-001  0.2003981E+03  0.7546771E-02  0.1149404E+00
         -2   -1    0    0    0  501 -0.00000000000E+00  0.00000000000E+00  0.29546491219E+02  0.29546491219E+02  0.00000000000E+00 0. -1.
          2   -1    0    0  502    0  0.00000000000E+00 -0.00000000000E+00 -0.17063046505E+04  0.17063046505E+04  0.00000000000E+00 0.  1.
          6    1    1    2  502    0  0.81196066375E+02 -0.60312368271E+02 -0.12298403623E+04  0.12460604719E+04  0.17300000000E+03 0.  1.
         -6    1    1    2    0  501 -0.81196066375E+02  0.60312368271E+02 -0.44691779706E+03  0.48979066987E+03  0.17300000000E+03 0. -1.
<mgrwt>
<rscale>  2 0.20039806E+03</rscale>
<asrwt>0</asrwt>
<pdfrwt beam="1">  1        2 0.26250844E+00 0.20039806E+03</pdfrwt>
<pdfrwt beam="2">  1       -2 0.45456135E-02 0.20039806E+03</pdfrwt>
<totfact> 0.24036846E+03</totfact>
</mgrwt>
</event>
<event>
 4    1  0.7354369E-001  0.2442475E+03  0.7546771E-02  0.1116995E+00
         -1   -1    0    0    0  501 -0.00000000000E+00  0.00000000000E+00  0.17589629523E+03  0.17589629523E+03  0.00000000000E+00 0.  1.
          1   -1    0    0  502    0  0.00000000000E+00 -0.00000000000E+00 -0.41060745657E+03  0.41060745657E+03  0.00000000000E+00 0. -1.
          6    1    1    2  502    0 -0.14161757755E+03 -0.98347877780E+02  0.49716827869E+01  0.24429809857E+03  0.17300000000E+03 0.  1.
         -6    1    1    2    0  501  0.14161757755E+03  0.98347877780E+02 -0.23968284412E+03  0.34220565323E+03  0.17300000000E+03 0. -1.
<mgrwt>
<rscale>  2 0.24424750E+03</rscale>
<asrwt>0</asrwt>
<pdfrwt beam="1">  1        1 0.63170377E-01 0.24424750E+03</pdfrwt>
<pdfrwt beam="2">  1       -1 0.27060969E-01 0.24424750E+03</pdfrwt>
<totfact> 0.71607549E+02</totfact>
</mgrwt>
</event>
<event>
 4    1  0.7354369E-001  0.2822288E+03  0.7546771E-02  0.1094478E+00
          1   -1    0    0  502    0  0.00000000000E+00  0.00000000000E+00  0.14660331845E+04  0.14660331845E+04  0.00000000000E+00 0. -1.
         -1   -1    0    0    0  501 -0.00000000000E+00 -0.00000000000E+00 -0.54642909886E+02  0.54642909886E+02  0.00000000000E+00 0.  1.
          6    1    1    2  502    0  0.19274944981E+03 -0.11212379391E+03  0.76301172297E+03  0.81353548475E+03  0.17300000000E+03 0. -1.
         -6    1    1    2    0  501 -0.19274944981E+03  0.11212379391E+03  0.64837855167E+03  0.70714060966E+03  0.17300000000E+03 0.  1.
<mgrwt>
<rscale>  2 0.28222880E+03</rscale>
<asrwt>0</asrwt>
<pdfrwt beam="1">  1        1 0.22554354E+00 0.28222880E+03</pdfrwt>
<pdfrwt beam="2">  1       -1 0.84066026E-02 0.28222880E+03</pdfrwt>
<totfact> 0.60165725E+02</totfact>
</mgrwt>
</event>
<event>
 4    1  0.7354369E-001  0.2096073E+03  0.7546771E-02  0.1141877E+00
          2   -1    0    0  502    0  0.00000000000E+00  0.00000000000E+00  0.34360196210E+04  0.34360196210E+04  0.00000000000E+00 0. -1.
         -2   -1    0    0    0  501 -0.00000000000E+00 -0.00000000000E+00 -0.13867019601E+02  0.13867019601E+02  0.00000000000E+00 0.  1.
          6    1    1    2  502    0 -0.62503491333E+02 -0.10049639401E+03  0.12296081003E+04  0.12473456987E+04  0.17300000000E+03 0.  1.
         -6    1    1    2    0  501  0.62503491333E+02  0.10049639401E+03  0.21925445011E+04  0.22025409419E+04  0.17300000000E+03 0. -1.
<mgrwt>
<rscale>  2 0.20960728E+03</rscale>
<asrwt>0</asrwt>
<pdfrwt beam="1">  1        2 0.52861772E+00 0.20960728E+03</pdfrwt>
<pdfrwt beam="2">  1       -2 0.21333904E-02 0.20960728E+03</pdfrwt>
<totfact> 0.79769714E+02</totfact>
</mgrwt>
</event>
<event>
 4    1  0.7354369E-001  0.1894698E+03  0.7546771E-02  0.1158940E+00
          1   -1    0    0  502    0  0.00000000000E+00  0.00000000000E+00  0.26955649066E+03  0.26955649066E+03  0.00000000000E+00 0. -1.
         -1   -1    0    0    0  501 -0.00000000000E+00 -0.00000000000E+00 -0.13790813478E+03  0.13790813478E+03  0.00000000000E+00 0.  1.
          6    1    1    2  502    0  0.75595745370E+02  0.15971109537E+02  0.28089903535E+02  0.19154068951E+03  0.17300000000E+03 0. -1.
         -6    1    1    2    0  501 -0.75595745370E+02 -0.15971109537E+02  0.10355845234E+03  0.21592393594E+03  0.17300000000E+03 0. -1.
<mgrwt>
<rscale>  2 0.18946977E+03</rscale>
<asrwt>0</asrwt>
<pdfrwt beam="1">  1        1 0.41470229E-01 0.18946977E+03</pdfrwt>
<pdfrwt beam="2">  1       -1 0.21216636E-01 0.18946977E+03</pdfrwt>
<totfact> 0.18170349E+03</totfact>
</mgrwt>
</event>
<event>
 4    1  0.7354369E-001  0.2384004E+03  0.7546771E-02  0.1120863E+00
         -2   -1    0    0    0  501 -0.00000000000E+00  0.00000000000E+00  0.34949059060E+02  0.34949059060E+02  0.00000000000E+00 0.  1.
          2   -1    0    0  502    0  0.00000000000E+00 -0.00000000000E+00 -0.17659634170E+04  0.17659634170E+04  0.00000000000E+00 0. -1.
          6    1    1    2  502    0 -0.15479814978E+03  0.54252204054E+02 -0.11188108248E+04  0.11439285076E+04  0.17300000000E+03 0. -1.
         -6    1    1    2    0  501  0.15479814978E+03 -0.54252204054E+02 -0.61220353314E+03  0.65698396846E+03  0.17300000000E+03 0.  1.
<mgrwt>
<rscale>  2 0.23840044E+03</rscale>
<asrwt>0</asrwt>
<pdfrwt beam="1">  1        2 0.27168666E+00 0.23840044E+03</pdfrwt>
<pdfrwt beam="2">  1       -2 0.53767788E-02 0.23840044E+03</pdfrwt>
<totfact> 0.17311296E+03</totfact>
</mgrwt>
</event>
<event>
 4    1  0.7354369E-001  0.1747920E+03  0.7546771E-02  0.1172941E+00
         -2   -1    0    0    0  501 -0.00000000000E+00  0.00000000000E+00  0.23660156631E+03  0.23660156631E+03  0.00000000000E+00 0.  1.
          2   -1    0    0  502    0  0.00000000000E+00 -0.00000000000E+00 -0.16721868610E+03  0.16721868610E+03  0.00000000000E+00 0. -1.
          6    1    1    2  502    0  0.14946293279E+02  0.19996304477E+02  0.13105581244E+03  0.21846709100E+03  0.17300000000E+03 0.  1.
         -6    1    1    2    0  501 -0.14946293279E+02 -0.19996304477E+02 -0.61672932227E+02  0.18535316141E+03  0.17300000000E+03 0. -1.
<mgrwt>
<rscale>  2 0.17479200E+03</rscale>
<asrwt>0</asrwt>
<pdfrwt beam="1">  1        2 0.25725952E-01 0.17479200E+03</pdfrwt>
<pdfrwt beam="2">  1       -2 0.36400241E-01 0.17479200E+03</pdfrwt>
<totfact> 0.14659568E+03</totfact>
</mgrwt>
</event>
<event>
 4    1  0.7354369E-001  0.2069201E+03  0.7546771E-02  0.1144028E+00
         -2   -1    0    0    0  501 -0.00000000000E+00  0.00000000000E+00  0.73758082130E+03  0.73758082130E+03  0.00000000000E+00 0. -1.
          2   -1    0    0  502    0  0.00000000000E+00 -0.00000000000E+00 -0.11746508213E+03  0.11746508213E+03  0.00000000000E+00 0.  1.
          6    1    1    2  502    0  0.52006341254E+02 -0.10090727337E+03  0.59998161690E+01  0.20700708960E+03  0.17300000000E+03 0.  1.
         -6    1    1    2    0  501 -0.52006341254E+02  0.10090727337E+03  0.61411592300E+03  0.64803881383E+03  0.17300000000E+03 0. -1.
<mgrwt>
<rscale>  2 0.20692012E+03</rscale>
<asrwt>0</asrwt>
<pdfrwt beam="1">  1        2 0.18071552E-01 0.20692012E+03</pdfrwt>
<pdfrwt beam="2">  1       -2 0.11347397E+00 0.20692012E+03</pdfrwt>
<totfact> 0.19957938E+02</totfact>
</mgrwt>
</event>
<event>
 4    1  0.7354369E-001  0.2484063E+03  0.7546771E-02  0.1114316E+00
          2   -1    0    0  502    0  0.00000000000E+00  0.00000000000E+00  0.74138327420E+03  0.74138327420E+03  0.00000000000E+00 0.  1.
         -2   -1    0    0    0  501 -0.00000000000E+00 -0.00000000000E+00 -0.83399338266E+02  0.83399338266E+02  0.00000000000E+00 0. -1.
          6    1    1    2  502    0 -0.53656916359E+02  0.16999296139E+03  0.31043470359E+03  0.39758694243E+03  0.17300000000E+03 0.  1.
         -6    1    1    2    0  501  0.53656916359E+02 -0.16999296139E+03  0.34754923234E+03  0.42719567004E+03  0.17300000000E+03 0. -1.
<mgrwt>
<rscale>  2 0.24840626E+03</rscale>
<asrwt>0</asrwt>
<pdfrwt beam="1">  1        2 0.11405896E+00 0.24840626E+03</pdfrwt>
<pdfrwt beam="2">  1       -2 0.12830668E-01 0.24840626E+03</pdfrwt>
<totfact> 0.17288303E+03</totfact>
</mgrwt>
</event>
<event>
 4    1  0.7354369E-001  0.4884667E+03  0.7546771E-02  0.1016834E+00
          2   -1    0    0  502    0  0.00000000000E+00  0.00000000000E+00  0.80983993996E+03  0.80983993996E+03  0.00000000000E+00 0. -1.
         -2   -1    0    0    0  501 -0.00000000000E+00 -0.00000000000E+00 -0.32207024794E+03  0.32207024794E+03  0.00000000000E+00 0.  1.
          6    1    1    2  502    0  0.30468210316E+03  0.34035205234E+03  0.40909406464E+03  0.63714806540E+03  0.17300000000E+03 0.  1.
         -6    1    1    2    0  501 -0.30468210316E+03 -0.34035205234E+03  0.78675627379E+02  0.49476212250E+03  0.17300000000E+03 0. -1.
<mgrwt>
<rscale>  2 0.48846669E+03</rscale>
<asrwt>0</asrwt>
<pdfrwt beam="1">  1        2 0.12459076E+00 0.48846669E+03</pdfrwt>
<pdfrwt beam="2">  1       -2 0.49549269E-01 0.48846669E+03</pdfrwt>
<totfact> 0.13469936E+02</totfact>
</mgrwt>
</event>
<event>
 4    1  0.7354369E-001  0.1891738E+03  0.7546771E-02  0.1159209E+00
         -2   -1    0    0    0  501 -0.00000000000E+00  0.00000000000E+00  0.79476286711E+02  0.79476286711E+02  0.00000000000E+00 0. -1.
          2   -1    0    0  502    0  0.00000000000E+00 -0.00000000000E+00 -0.23099963818E+04  0.23099963818E+04  0.00000000000E+00 0.  1.
          6    1    1    2  502    0 -0.44968020867E+02 -0.61932206109E+02 -0.21872471900E+04  0.21954127155E+04  0.17300000000E+03 0.  1.
         -6    1    1    2    0  501  0.44968020867E+02  0.61932206109E+02 -0.43272905062E+02  0.19405995302E+03  0.17300000000E+03 0. -1.
<mgrwt>
<rscale>  2 0.18917379E+03</rscale>
<asrwt>0</asrwt>
<pdfrwt beam="1">  1        2 0.35538404E+00 0.18917379E+03</pdfrwt>
<pdfrwt beam="2">  1       -2 0.12227122E-01 0.18917379E+03</pdfrwt>
<totfact> 0.25072541E+02</totfact>
</mgrwt>
</event>
<event>
 4    1  0.7354369E-001  0.1771464E+03  0.7546771E-02  0.1170594E+00
         -2   -1    0    0    0  501 -0.00000000000E+00  0.00000000000E+00  0.47351032816E+02  0.47351032816E+02  0.00000000000E+00 0.  1.
          2   -1    0    0  502    0  0.00000000000E+00 -0.00000000000E+00 -0.66535263245E+03  0.66535263245E+03  0.00000000000E+00 0. -1.
          6    1    1    2  502    0  0.38257682849E+01  0.37910623024E+02 -0.28661908769E+03  0.33694413969E+03  0.17300000000E+03 0.  1.
         -6    1    1    2    0  501 -0.38257682849E+01 -0.37910623024E+02 -0.33138251194E+03  0.37575952557E+03  0.17300000000E+03 0. -1.
<mgrwt>
<rscale>  2 0.17714641E+03</rscale>
<asrwt>0</asrwt>
<pdfrwt beam="1">  1        2 0.10236194E+00 0.17714641E+03</pdfrwt>
<pdfrwt beam="2">  1       -2 0.72847746E-02 0.17714641E+03</pdfrwt>
<totfact> 0.47906030E+03</totfact>
</mgrwt>
</event>
<event>
 4    1  0.7354369E-001  0.2035561E+03  0.7546771E-02  0.1146773E+00
         -1   -1    0    0    0  501 -0.00000000000E+00  0.00000000000E+00  0.27919828626E+02  0.27919828626E+02  0.00000000000E+00 0. -1.
          1   -1    0    0  502    0  0.00000000000E+00 -0.00000000000E+00 -0.14928987379E+04  0.14928987379E+04  0.00000000000E+00 0.  1.
          6    1    1    2  502    0 -0.35340453797E+02  0.10127751547E+03 -0.79095378986E+03  0.81672699264E+03  0.17300000000E+03 0. -1.
         -6    1    1    2    0  501  0.35340453797E+02 -0.10127751547E+03 -0.67402511941E+03  0.70409157388E+03  0.17300000000E+03 0. -1.
<mgrwt>
<rscale>  2 0.20355609E+03</rscale>
<asrwt>0</asrwt>
<pdfrwt beam="1">  1        1 0.22967676E+00 0.20355609E+03</pdfrwt>
<pdfrwt beam="2">  1       -1 0.42953576E-02 0.20355609E+03</pdfrwt>
<totfact> 0.16021726E+03</totfact>
</mgrwt>
</event>
<event>
 4    1  0.7354369E-001  0.1876385E+03  0.7546771E-02  0.1160609E+00
         -1   -1    0    0    0  501 -0.00000000000E+00  0.00000000000E+00  0.30820814071E+03  0.30820814071E+03  0.00000000000E+00 0.  1.
          1   -1    0    0  502    0  0.00000000000E+00 -0.00000000000E+00 -0.11493936706E+03  0.11493936706E+03  0.00000000000E+00 0. -1.
          6    1    1    2  502    0 -0.63798659071E+02  0.34769958909E+02  0.11319456094E+03  0.21913746272E+03  0.17300000000E+03 0. -1.
         -6    1    1    2    0  501  0.63798659071E+02 -0.34769958909E+02  0.80074212712E+02  0.20401004505E+03  0.17300000000E+03 0. -1.
<mgrwt>
<rscale>  2 0.18763853E+03</rscale>
<asrwt>0</asrwt>
<pdfrwt beam="1">  1        1 0.17682980E-01 0.18763853E+03</pdfrwt>
<pdfrwt beam="2">  1       -1 0.47416637E-01 0.18763853E+03</pdfrwt>
<totfact> 0.13472472E+03</totfact>
</mgrwt>
</event>
<event>
 4    1  0.7354369E-001  0.1815046E+03  0.7546771E-02  0.1166355E+00
         -2   -1    0    0    0  501 -0.00000000000E+00  0.00000000000E+00  0.20082403016E+02  0.20082403016E+02  0.00000000000E+00 0.  1.
          2   -1    0    0  502    0  0.00000000000E+00 -0.00000000000E+00 -0.20464305061E+04  0.20464305061E+04  0.00000000000E+00 0. -1.
          6    1    1    2  502    0 -0.37536656556E+02 -0.40074131015E+02 -0.14733973998E+04  0.14845348882E+04  0.17300000000E+03 0. -1.
         -6    1    1    2    0  501  0.37536656556E+02  0.40074131015E+02 -0.55295070331E+03  0.58197802093E+03  0.17300000000E+03 0. -1.
<mgrwt>
<rscale>  2 0.18150465E+03</rscale>
<asrwt>0</asrwt>
<pdfrwt beam="1">  1        2 0.31483531E+00 0.18150465E+03</pdfrwt>
<pdfrwt beam="2">  1       -2 0.30896020E-02 0.18150465E+03</pdfrwt>
<totfact> 0.28531390E+03</totfact>
</mgrwt>
</event>
<event>
 4    1  0.7354369E-001  0.2489904E+03  0.7546771E-02  0.1113945E+00
          2   -1    0    0  502    0  0.00000000000E+00  0.00000000000E+00  0.10938391247E+04  0.10938391247E+04  0.00000000000E+00 0.  1.
         -2   -1    0    0    0  501 -0.00000000000E+00 -0.00000000000E+00 -0.56806393152E+02  0.56806393152E+02  0.00000000000E+00 0. -1.
          6    1    1    2  502    0 -0.91443835626E+02 -0.15396510118E+03  0.49112708772E+03  0.55063785172E+03  0.17300000000E+03 0. -1.
         -6    1    1    2    0  501  0.91443835626E+02  0.15396510118E+03  0.54590564385E+03  0.60000766615E+03  0.17300000000E+03 0.  1.
<mgrwt>
<rscale>  2 0.24899042E+03</rscale>
<asrwt>0</asrwt>
<pdfrwt beam="1">  1        2 0.16828293E+00 0.24899042E+03</pdfrwt>
<pdfrwt beam="2">  1       -2 0.87394459E-02 0.24899042E+03</pdfrwt>
<totfact> 0.18936496E+03</totfact>
</mgrwt>
</event>
<event>
 4    1  0.7354369E-001  0.2084227E+03  0.7546771E-02  0.1142821E+00
          1   -1    0    0  502    0  0.00000000000E+00  0.00000000000E+00  0.97590794805E+03  0.97590794805E+03  0.00000000000E+00 0.  1.
         -1   -1    0    0    0  501 -0.00000000000E+00 -0.00000000000E+00 -0.54102516680E+02  0.54102516680E+02  0.00000000000E+00 0. -1.
          6    1    1    2  502    0  0.51116155283E+02  0.10439420062E+03  0.24407503446E+03  0.32095581145E+03  0.17300000000E+03 0.  1.
         -6    1    1    2    0  501 -0.51116155283E+02 -0.10439420062E+03  0.67773039691E+03  0.70905465329E+03  0.17300000000E+03 0.  1.
<mgrwt>
<rscale>  2 0.20842267E+03</rscale>
<asrwt>0</asrwt>
<pdfrwt beam="1">  1        1 0.15013967E+00 0.20842267E+03</pdfrwt>
<pdfrwt beam="2">  1       -1 0.83234649E-02 0.20842267E+03</pdfrwt>
<totfact> 0.13517164E+03</totfact>
</mgrwt>
</event>
<event>
 4    1  0.7354369E-001  0.2659316E+03  0.7546771E-02  0.1103631E+00
         -2   -1    0    0    0  501 -0.00000000000E+00  0.00000000000E+00  0.56738240501E+02  0.56738240501E+02  0.00000000000E+00 0. -1.
          2   -1    0    0  502    0  0.00000000000E+00 -0.00000000000E+00 -0.16660661414E+04  0.16660661414E+04  0.00000000000E+00 0.  1.
          6    1    1    2  502    0 -0.71511904774E+02 -0.18888263722E+03 -0.37234711350E+03  0.45756089879E+03  0.17300000000E+03 0. -1.
         -6    1    1    2    0  501  0.71511904774E+02  0.18888263722E+03 -0.12369807874E+04  0.12652434831E+04  0.17300000000E+03 0.  1.
<mgrwt>
<rscale>  2 0.26593158E+03</rscale>
<asrwt>0</asrwt>
<pdfrwt beam="1">  1        2 0.25631787E+00 0.26593158E+03</pdfrwt>
<pdfrwt beam="2">  1       -2 0.87289602E-02 0.26593158E+03</pdfrwt>
<totfact> 0.91904294E+02</totfact>
</mgrwt>
</event>
<event>
 4    1  0.7354369E-001  0.1858505E+03  0.7546771E-02  0.1162258E+00
         -2   -1    0    0    0  501 -0.00000000000E+00  0.00000000000E+00  0.35488605456E+02  0.35488605456E+02  0.00000000000E+00 0. -1.
          2   -1    0    0  502    0  0.00000000000E+00 -0.00000000000E+00 -0.99955284110E+03  0.99955284110E+03  0.00000000000E+00 0.  1.
          6    1    1    2  502    0 -0.32244960746E+02 -0.59763438823E+02 -0.56593276248E+03  0.59566794254E+03  0.17300000000E+03 0. -1.
         -6    1    1    2    0  501  0.32244960746E+02  0.59763438823E+02 -0.39813147316E+03  0.43937350402E+03  0.17300000000E+03 0.  1.
<mgrwt>
<rscale>  2 0.18585049E+03</rscale>
<asrwt>0</asrwt>
<pdfrwt beam="1">  1        2 0.15377737E+00 0.18585049E+03</pdfrwt>
<pdfrwt beam="2">  1       -2 0.54597850E-02 0.18585049E+03</pdfrwt>
<totfact> 0.44424659E+03</totfact>
</mgrwt>
</event>
<event>
 4    1  0.7354369E-001  0.2968613E+03  0.7546771E-02  0.1086820E+00
          4   -1    0    0  502    0  0.00000000000E+00  0.00000000000E+00  0.52641084119E+03  0.52641084119E+03  0.00000000000E+00 0.  1.
         -4   -1    0    0    0  501 -0.00000000000E+00 -0.00000000000E+00 -0.27521748351E+03  0.27521748351E+03  0.00000000000E+00 0. -1.
          6    1    1    2  502    0 -0.23221463311E+03 -0.65375872646E+02  0.37645512712E+03  0.47942163415E+03  0.17300000000E+03 0.  1.
         -6    1    1    2    0  501  0.23221463311E+03  0.65375872646E+02 -0.12526176944E+03  0.32220669055E+03  0.17300000000E+03 0. -1.
<mgrwt>
<rscale>  2 0.29686132E+03</rscale>
<asrwt>0</asrwt>
<pdfrwt beam="1">  1        4 0.80986283E-01 0.29686132E+03</pdfrwt>
<pdfrwt beam="2">  1       -4 0.42341151E-01 0.29686132E+03</pdfrwt>
<totfact> 0.13781324E+01</totfact>
</mgrwt>
</event>
<event>
 4    1  0.7354369E-001  0.1801197E+03  0.7546771E-02  0.1167687E+00
         -2   -1    0    0    0  501 -0.00000000000E+00  0.00000000000E+00  0.51324537506E+02  0.51324537506E+02  0.00000000000E+00 0. -1.
          2   -1    0    0  502    0  0.00000000000E+00 -0.00000000000E+00 -0.65946144266E+03  0.65946144266E+03  0.00000000000E+00 0.  1.
          6    1    1    2  502    0  0.50123066570E+02  0.13376123134E+01 -0.23170005625E+03  0.29347576914E+03  0.17300000000E+03 0. -1.
         -6    1    1    2    0  501 -0.50123066570E+02 -0.13376123134E+01 -0.37643684890E+03  0.41731021102E+03  0.17300000000E+03 0.  1.
<mgrwt>
<rscale>  2 0.18011971E+03</rscale>
<asrwt>0</asrwt>
<pdfrwt beam="1">  1        2 0.10145560E+00 0.18011971E+03</pdfrwt>
<pdfrwt beam="2">  1       -2 0.78960834E-02 0.18011971E+03</pdfrwt>
<totfact> 0.42759133E+03</totfact>
</mgrwt>
</event>
<event>
 4    1  0.7354369E-001  0.1953227E+03  0.7546771E-02  0.1153746E+00
         -1   -1    0    0    0  501 -0.00000000000E+00  0.00000000000E+00  0.26381929049E+02  0.26381929049E+02  0.00000000000E+00 0. -1.
          1   -1    0    0  502    0  0.00000000000E+00 -0.00000000000E+00 -0.18255135522E+04  0.18255135522E+04  0.00000000000E+00 0.  1.
          6    1    1    2  502    0 -0.27789508948E+02 -0.86311676043E+02 -0.13216986909E+04  0.13360532893E+04  0.17300000000E+03 0.  1.
         -6    1    1    2    0  501  0.27789508948E+02  0.86311676043E+02 -0.47743293221E+03  0.51584219194E+03  0.17300000000E+03 0. -1.
<mgrwt>
<rscale>  2 0.19532271E+03</rscale>
<asrwt>0</asrwt>
<pdfrwt beam="1">  1        1 0.28084822E+00 0.19532271E+03</pdfrwt>
<pdfrwt beam="2">  1       -1 0.40587586E-02 0.19532271E+03</pdfrwt>
<totfact> 0.10605190E+03</totfact>
</mgrwt>
</event>
<event>
 4    1  0.7354369E-001  0.1844479E+03  0.7546771E-02  0.1163566E+00
         -2   -1    0    0    0  501 -0.00000000000E+00  0.00000000000E+00  0.59153205307E+02  0.59153205307E+02  0.00000000000E+00 0. -1.
          2   -1    0    0  502    0  0.00000000000E+00 -0.00000000000E+00 -0.57545459358E+03  0.57545459358E+03  0.00000000000E+00 0.  1.
          6    1    1    2  502    0 -0.62973709119E+02  0.11240597691E+02 -0.25066514030E+03  0.31121383587E+03  0.17300000000E+03 0. -1.
         -6    1    1    2    0  501  0.62973709119E+02 -0.11240597691E+02 -0.26563624797E+03  0.32339396301E+03  0.17300000000E+03 0.  1.
<mgrwt>
<rscale>  2 0.18444793E+03</rscale>
<asrwt>0</asrwt>
<pdfrwt beam="1">  1        2 0.88531479E-01 0.18444793E+03</pdfrwt>
<pdfrwt beam="2">  1       -2 0.91004928E-02 0.18444793E+03</pdfrwt>
<totfact> 0.40153512E+03</totfact>
</mgrwt>
</event>
<event>
 4    1  0.7354369E-001  0.2422898E+03  0.7546771E-02  0.1118277E+00
          1   -1    0    0  502    0  0.00000000000E+00  0.00000000000E+00  0.19274270306E+04  0.19274270306E+04  0.00000000000E+00 0. -1.
         -1   -1    0    0    0  501 -0.00000000000E+00 -0.00000000000E+00 -0.32191798273E+02  0.32191798273E+02  0.00000000000E+00 0.  1.
          6    1    1    2  502    0  0.93513609100E+02 -0.14152940986E+03  0.11750469425E+04  0.11997665131E+04  0.17300000000E+03 0. -1.
         -6    1    1    2    0  501 -0.93513609100E+02  0.14152940986E+03  0.72018828984E+03  0.75985231576E+03  0.17300000000E+03 0.  1.
<mgrwt>
<rscale>  2 0.24228984E+03</rscale>
<asrwt>0</asrwt>
<pdfrwt beam="1">  1        1 0.29652714E+00 0.24228984E+03</pdfrwt>
<pdfrwt beam="2">  1       -1 0.49525859E-02 0.24228984E+03</pdfrwt>
<totfact> 0.67369003E+02</totfact>
</mgrwt>
</event>
<event>
 4    1  0.7354369E-001  0.1824455E+03  0.7546771E-02  0.1165457E+00
         -2   -1    0    0    0  501 -0.00000000000E+00  0.00000000000E+00  0.15390224797E+03  0.15390224797E+03  0.00000000000E+00 0.  1.
          2   -1    0    0  502    0  0.00000000000E+00 -0.00000000000E+00 -0.23306629795E+03  0.23306629795E+03  0.00000000000E+00 0. -1.
          6    1    1    2  502    0 -0.42830013301E+02 -0.39025208145E+02 -0.91503841537E+02  0.20410617317E+03  0.17300000000E+03 0. -1.
         -6    1    1    2    0  501  0.42830013301E+02  0.39025208145E+02  0.12339791553E+02  0.18286237274E+03  0.17300000000E+03 0.  1.
<mgrwt>
<rscale>  2 0.18244555E+03</rscale>
<asrwt>0</asrwt>
<pdfrwt beam="1">  1        2 0.35856354E-01 0.18244555E+03</pdfrwt>
<pdfrwt beam="2">  1       -2 0.23677269E-01 0.18244555E+03</pdfrwt>
<totfact> 0.22188210E+03</totfact>
</mgrwt>
</event>
<event>
 4    1  0.7354369E-001  0.2224393E+03  0.7546771E-02  0.1132077E+00
          2   -1    0    0  502    0  0.00000000000E+00  0.00000000000E+00  0.12827360369E+04  0.12827360369E+04  0.00000000000E+00 0. -1.
         -2   -1    0    0    0  501 -0.00000000000E+00 -0.00000000000E+00 -0.41384350701E+02  0.41384350701E+02  0.00000000000E+00 0.  1.
          6    1    1    2  502    0 -0.50166667812E+01 -0.13973217186E+03  0.79322811387E+03  0.82382649109E+03  0.17300000000E+03 0.  1.
         -6    1    1    2    0  501  0.50166667812E+01  0.13973217186E+03  0.44812357228E+03  0.50029389646E+03  0.17300000000E+03 0. -1.
<mgrwt>
<rscale>  2 0.22243931E+03</rscale>
<asrwt>0</asrwt>
<pdfrwt beam="1">  1        2 0.19734398E+00 0.22243931E+03</pdfrwt>
<pdfrwt beam="2">  1       -2 0.63668242E-02 0.22243931E+03</pdfrwt>
<totfact> 0.24198251E+03</totfact>
</mgrwt>
</event>
<event>
 4    1  0.7354369E-001  0.1999549E+03  0.7546771E-02  0.1149777E+00
         -2   -1    0    0    0  501 -0.00000000000E+00  0.00000000000E+00  0.36212094052E+02  0.36212094052E+02  0.00000000000E+00 0.  1.
          2   -1    0    0  502    0  0.00000000000E+00 -0.00000000000E+00 -0.19598110663E+04  0.19598110663E+04  0.00000000000E+00 0. -1.
          6    1    1    2  502    0  0.98297630546E+02  0.19761692824E+02 -0.30233589810E+03  0.36247612880E+03  0.17300000000E+03 0.  1.
         -6    1    1    2    0  501 -0.98297630546E+02 -0.19761692824E+02 -0.16212630742E+04  0.16335470316E+04  0.17300000000E+03 0. -1.
<mgrwt>
<rscale>  2 0.19995487E+03</rscale>
<asrwt>0</asrwt>
<pdfrwt beam="1">  1        2 0.30150935E+00 0.19995487E+03</pdfrwt>
<pdfrwt beam="2">  1       -2 0.55710923E-02 0.19995487E+03</pdfrwt>
<totfact> 0.13038749E+03</totfact>
</mgrwt>
</event>
<event>
 4    1  0.7354369E-001  0.1877163E+03  0.7546771E-02  0.1160537E+00
          2   -1    0    0  502    0  0.00000000000E+00  0.00000000000E+00  0.13699419094E+04  0.13699419094E+04  0.00000000000E+00 0. -1.
         -2   -1    0    0    0  501 -0.00000000000E+00 -0.00000000000E+00 -0.42594023319E+02  0.42594023319E+02  0.00000000000E+00 0.  1.
          6    1    1    2  502    0 -0.65079336367E+02  0.32757827274E+02  0.11081835112E+04  0.11239697904E+04  0.17300000000E+03 0. -1.
         -6    1    1    2    0  501  0.65079336367E+02 -0.32757827274E+02  0.21916437489E+03  0.28856614232E+03  0.17300000000E+03 0.  1.
<mgrwt>
<rscale>  2 0.18771626E+03</rscale>
<asrwt>0</asrwt>
<pdfrwt beam="1">  1        2 0.21076026E+00 0.18771626E+03</pdfrwt>
<pdfrwt beam="2">  1       -2 0.65529277E-02 0.18771626E+03</pdfrwt>
<totfact> 0.20735262E+03</totfact>
</mgrwt>
</event>
<event>
 4    1  0.7354369E-001  0.2010667E+03  0.7546771E-02  0.1148842E+00
         -3   -1    0    0    0  501 -0.00000000000E+00  0.00000000000E+00  0.35563932240E+03  0.35563932240E+03  0.00000000000E+00 0.  1.
          3   -1    0    0  502    0  0.00000000000E+00 -0.00000000000E+00 -0.11987643886E+03  0.11987643886E+03  0.00000000000E+00 0. -1.
          6    1    1    2  502    0 -0.74290917861E+02 -0.70566765437E+02  0.17195240767E+03  0.26456651217E+03  0.17300000000E+03 0. -1.
         -6    1    1    2    0  501  0.74290917861E+02  0.70566765437E+02  0.63810475865E+02  0.21094924909E+03  0.17300000000E+03 0. -1.
<mgrwt>
<rscale>  2 0.20106668E+03</rscale>
<asrwt>0</asrwt>
<pdfrwt beam="1">  1        3 0.18442529E-01 0.20106668E+03</pdfrwt>
<pdfrwt beam="2">  1       -3 0.54713741E-01 0.20106668E+03</pdfrwt>
<totfact> 0.21062013E+02</totfact>
</mgrwt>
</event>
<event>
 4    1  0.7354369E-001  0.2174099E+03  0.7546771E-02  0.1135829E+00
          2   -1    0    0  502    0  0.00000000000E+00  0.00000000000E+00  0.39880475486E+03  0.39880475486E+03  0.00000000000E+00 0.  1.
         -2   -1    0    0    0  501 -0.00000000000E+00 -0.00000000000E+00 -0.14781454015E+03  0.14781454015E+03  0.00000000000E+00 0. -1.
          6    1    1    2  502    0 -0.46517276480E+02 -0.12318358117E+03  0.38270736274E+01  0.21744355169E+03  0.17300000000E+03 0. -1.
         -6    1    1    2    0  501  0.46517276480E+02  0.12318358117E+03  0.24716314109E+03  0.32917574332E+03  0.17300000000E+03 0.  1.
<mgrwt>
<rscale>  2 0.21740987E+03</rscale>
<asrwt>0</asrwt>
<pdfrwt beam="1">  1        2 0.61354577E-01 0.21740987E+03</pdfrwt>
<pdfrwt beam="2">  1       -2 0.22740699E-01 0.21740987E+03</pdfrwt>
<totfact> 0.13416434E+03</totfact>
</mgrwt>
</event>
<event>
 4    1  0.7354369E-001  0.2671439E+03  0.7546771E-02  0.1102925E+00
         -1   -1    0    0    0  501 -0.00000000000E+00  0.00000000000E+00  0.61584714867E+02  0.61584714867E+02  0.00000000000E+00 0.  1.
          1   -1    0    0  502    0  0.00000000000E+00 -0.00000000000E+00 -0.25740823533E+04  0.25740823533E+04  0.00000000000E+00 0. -1.
          6    1    1    2  502    0  0.12536626998E+03 -0.16037511767E+03 -0.22334120432E+04  0.22493321752E+04  0.17300000000E+03 0. -1.
         -6    1    1    2    0  501 -0.12536626998E+03  0.16037511767E+03 -0.27908559530E+03  0.38633489296E+03  0.17300000000E+03 0.  1.
<mgrwt>
<rscale>  2 0.26714393E+03</rscale>
<asrwt>0</asrwt>
<pdfrwt beam="1">  1        1 0.39601266E+00 0.26714393E+03</pdfrwt>
<pdfrwt beam="2">  1       -1 0.94745718E-02 0.26714393E+03</pdfrwt>
<totfact> 0.94102184E+01</totfact>
</mgrwt>
</event>
<event>
 4    1  0.7354369E-001  0.1962179E+03  0.7546771E-02  0.1152970E+00
          1   -1    0    0  502    0  0.00000000000E+00  0.00000000000E+00  0.85556295568E+02  0.85556295568E+02  0.00000000000E+00 0.  1.
         -1   -1    0    0    0  501 -0.00000000000E+00 -0.00000000000E+00 -0.51007130496E+03  0.51007130496E+03  0.00000000000E+00 0. -1.
          6    1    1    2  502    0  0.12300302185E+02  0.91766966282E+02 -0.31444899012E+03  0.37064759668E+03  0.17300000000E+03 0. -1.
         -6    1    1    2    0  501 -0.12300302185E+02 -0.91766966282E+02 -0.11006601927E+03  0.22498000385E+03  0.17300000000E+03 0.  1.
<mgrwt>
<rscale>  2 0.19621792E+03</rscale>
<asrwt>0</asrwt>
<pdfrwt beam="1">  1        1 0.13162507E-01 0.19621792E+03</pdfrwt>
<pdfrwt beam="2">  1       -1 0.78472510E-01 0.19621792E+03</pdfrwt>
<totfact> 0.75082806E+02</totfact>
</mgrwt>
</event>
<event>
 4    1  0.7354369E-001  0.2088792E+03  0.7546771E-02  0.1142457E+00
          1   -1    0    0  502    0  0.00000000000E+00  0.00000000000E+00  0.17779107569E+04  0.17779107569E+04  0.00000000000E+00 0.  1.
         -1   -1    0    0    0  501 -0.00000000000E+00 -0.00000000000E+00 -0.53825954049E+02  0.53825954049E+02  0.00000000000E+00 0. -1.
          6    1    1    2  502    0  0.98850398061E+02  0.62690643356E+02  0.15376031710E+04  0.15517261451E+04  0.17300000000E+03 0.  1.
         -6    1    1    2    0  501 -0.98850398061E+02 -0.62690643356E+02  0.18648163185E+03  0.28001056583E+03  0.17300000000E+03 0. -1.
<mgrwt>
<rscale>  2 0.20887919E+03</rscale>
<asrwt>0</asrwt>
<pdfrwt beam="1">  1        1 0.27352469E+00 0.20887919E+03</pdfrwt>
<pdfrwt beam="2">  1       -1 0.82809174E-02 0.20887919E+03</pdfrwt>
<totfact> 0.38888610E+02</totfact>
</mgrwt>
</event>
<event>
 4    1  0.7354369E-001  0.2120666E+03  0.7546771E-02  0.1139940E+00
          2   -1    0    0  502    0  0.00000000000E+00  0.00000000000E+00  0.60869755456E+03  0.60869755456E+03  0.00000000000E+00 0. -1.
         -2   -1    0    0    0  501 -0.00000000000E+00 -0.00000000000E+00 -0.73891193297E+02  0.73891193297E+02  0.00000000000E+00 0.  1.
          6    1    1    2  502    0 -0.10261158788E+03 -0.67187171703E+02  0.27104977643E+03  0.34415147146E+03  0.17300000000E+03 0. -1.
         -6    1    1    2    0  501  0.10261158788E+03  0.67187171703E+02  0.26375658484E+03  0.33843727639E+03  0.17300000000E+03 0.  1.
<mgrwt>
<rscale>  2 0.21206663E+03</rscale>
<asrwt>0</asrwt>
<pdfrwt beam="1">  1        2 0.93645774E-01 0.21206663E+03</pdfrwt>
<pdfrwt beam="2">  1       -2 0.11367876E-01 0.21206663E+03</pdfrwt>
<totfact> 0.26555990E+03</totfact>
</mgrwt>
</event>
<event>
 4    1  0.7354369E-001  0.2248850E+03  0.7546771E-02  0.1130293E+00
          2   -1    0    0  502    0  0.00000000000E+00  0.00000000000E+00  0.22092037147E+04  0.22092037147E+04  0.00000000000E+00 0.  1.
         -2   -1    0    0    0  501 -0.00000000000E+00 -0.00000000000E+00 -0.27132674668E+02  0.27132674668E+02  0.00000000000E+00 0. -1.
          6    1    1    2  502    0 -0.12945602317E+03 -0.62333005972E+02  0.15330884497E+04  0.15494945821E+04  0.17300000000E+03 0.  1.
         -6    1    1    2    0  501  0.12945602317E+03  0.62333005972E+02  0.64898259040E+03  0.68684180727E+03  0.17300000000E+03 0. -1.
<mgrwt>
<rscale>  2 0.22488501E+03</rscale>
<asrwt>0</asrwt>
<pdfrwt beam="1">  1        2 0.33987735E+00 0.22488501E+03</pdfrwt>
<pdfrwt beam="2">  1       -2 0.41742594E-02 0.22488501E+03</pdfrwt>
<totfact> 0.14904920E+03</totfact>
</mgrwt>
</event>
<event>
 4    1  0.7354369E-001  0.2577848E+03  0.7546771E-02  0.1108482E+00
         -2   -1    0    0    0  501 -0.00000000000E+00  0.00000000000E+00  0.21671053433E+02  0.21671053433E+02  0.00000000000E+00 0.  1.
          2   -1    0    0  502    0  0.00000000000E+00 -0.00000000000E+00 -0.31017378565E+04  0.31017378565E+04  0.00000000000E+00 0. -1.
          6    1    1    2  502    0 -0.17924826202E+03  0.66287720660E+02 -0.13734369086E+04  0.13974197449E+04  0.17300000000E+03 0.  1.
         -6    1    1    2    0  501  0.17924826202E+03 -0.66287720660E+02 -0.17066298945E+04  0.17259891651E+04  0.17300000000E+03 0. -1.
<mgrwt>
<rscale>  2 0.25778480E+03</rscale>
<asrwt>0</asrwt>
<pdfrwt beam="1">  1        2 0.47719008E+00 0.25778480E+03</pdfrwt>
<pdfrwt beam="2">  1       -2 0.33340107E-02 0.25778480E+03</pdfrwt>
<totfact> 0.65669063E+02</totfact>
</mgrwt>
</event>
<event>
 4    1  0.7354369E-001  0.2316083E+03  0.7546771E-02  0.1125513E+00
          2   -1    0    0  502    0  0.00000000000E+00  0.00000000000E+00  0.10374884991E+04  0.10374884991E+04  0.00000000000E+00 0. -1.
         -2   -1    0    0    0  501 -0.00000000000E+00 -0.00000000000E+00 -0.59353588543E+02  0.59353588543E+02  0.00000000000E+00 0.  1.
          6    1    1    2  502    0 -0.14491551679E+03 -0.52085488430E+02  0.29218503990E+03  0.37284648671E+03  0.17300000000E+03 0.  1.
         -6    1    1    2    0  501  0.14491551679E+03  0.52085488430E+02  0.68594987062E+03  0.72399560089E+03  0.17300000000E+03 0. -1.
<mgrwt>
<rscale>  2 0.23160830E+03</rscale>
<asrwt>0</asrwt>
<pdfrwt beam="1">  1        2 0.15961360E+00 0.23160830E+03</pdfrwt>
<pdfrwt beam="2">  1       -2 0.91313221E-02 0.23160830E+03</pdfrwt>
<totfact> 0.19082456E+03</totfact>
</mgrwt>
</event>
<event>
 4    1  0.7354369E-001  0.1752836E+03  0.7546771E-02  0.1172447E+00
          2   -1    0    0  502    0  0.00000000000E+00  0.00000000000E+00  0.21295611821E+03  0.21295611821E+03  0.00000000000E+00 0.  1.
         -2   -1    0    0    0  501 -0.00000000000E+00 -0.00000000000E+00 -0.19265321683E+03  0.19265321683E+03  0.00000000000E+00 0. -1.
          6    1    1    2  502    0 -0.20555783252E+02  0.19307772640E+02  0.11177934369E+03  0.20789168330E+03  0.17300000000E+03 0.  1.
         -6    1    1    2    0  501  0.20555783252E+02 -0.19307772640E+02 -0.91476442318E+02  0.19771765174E+03  0.17300000000E+03 0. -1.
<mgrwt>
<rscale>  2 0.17528357E+03</rscale>
<asrwt>0</asrwt>
<pdfrwt beam="1">  1        2 0.32762480E-01 0.17528357E+03</pdfrwt>
<pdfrwt beam="2">  1       -2 0.29638956E-01 0.17528357E+03</pdfrwt>
<totfact> 0.16406473E+03</totfact>
</mgrwt>
</event>
<event>
 4    1  0.7354369E-001  0.3329885E+03  0.7546771E-02  0.1069822E+00
         -1   -1    0    0    0  501 -0.00000000000E+00  0.00000000000E+00  0.42862106432E+03  0.42862106432E+03  0.00000000000E+00 0. -1.
          1   -1    0    0  502    0  0.00000000000E+00 -0.00000000000E+00 -0.28387722251E+03  0.28387722251E+03  0.00000000000E+00 0.  1.
          6    1    1    2  502    0 -0.26214376003E+02  0.28331106196E+03  0.17848066455E+03  0.37780510711E+03  0.17300000000E+03 0. -1.
         -6    1    1    2    0  501  0.26214376003E+02 -0.28331106196E+03 -0.33736822742E+02  0.33469317972E+03  0.17300000000E+03 0.  1.
<mgrwt>
<rscale>  2 0.33298852E+03</rscale>
<asrwt>0</asrwt>
<pdfrwt beam="1">  1        1 0.43673419E-01 0.33298852E+03</pdfrwt>
<pdfrwt beam="2">  1       -1 0.65941702E-01 0.33298852E+03</pdfrwt>
<totfact> 0.22755515E+02</totfact>
</mgrwt>
</event>
<event>
 4    1  0.7354369E-001  0.2001233E+03  0.7546771E-02  0.1149635E+00
          2   -1    0    0  502    0  0.00000000000E+00  0.00000000000E+00  0.16318637363E+04  0.16318637363E+04  0.00000000000E+00 0. -1.
         -2   -1    0    0    0  501 -0.00000000000E+00 -0.00000000000E+00 -0.24640094745E+02  0.24640094745E+02  0.00000000000E+00 0.  1.
          6    1    1    2  502    0 -0.97388534939E+02  0.25215064056E+02  0.85585055347E+03  0.87893657113E+03  0.17300000000E+03 0. -1.
         -6    1    1    2    0  501  0.97388534939E+02 -0.25215064056E+02  0.75137308804E+03  0.77756725987E+03  0.17300000000E+03 0. -1.
<mgrwt>
<rscale>  2 0.20012328E+03</rscale>
<asrwt>0</asrwt>
<pdfrwt beam="1">  1        2 0.25105587E+00 0.20012328E+03</pdfrwt>
<pdfrwt beam="2">  1       -2 0.37907851E-02 0.20012328E+03</pdfrwt>
<totfact> 0.34532826E+03</totfact>
</mgrwt>
</event>
<event>
 4    1  0.7354369E-001  0.2411622E+03  0.7546771E-02  0.1119021E+00
         -1   -1    0    0    0  501 -0.00000000000E+00  0.00000000000E+00  0.19218220856E+03  0.19218220856E+03  0.00000000000E+00 0. -1.
          1   -1    0    0  502    0  0.00000000000E+00 -0.00000000000E+00 -0.31643244704E+03  0.31643244704E+03  0.00000000000E+00 0.  1.
          6    1    1    2  502    0 -0.50446626135E+02 -0.16026644341E+03 -0.90035819265E+01  0.24133018763E+03  0.17300000000E+03 0.  1.
         -6    1    1    2    0  501  0.50446626135E+02  0.16026644341E+03 -0.11524665656E+03  0.26728446798E+03  0.17300000000E+03 0.  1.
<mgrwt>
<rscale>  2 0.24116218E+03</rscale>
<asrwt>0</asrwt>
<pdfrwt beam="1">  1        1 0.48681915E-01 0.24116218E+03</pdfrwt>
<pdfrwt beam="2">  1       -1 0.29566494E-01 0.24116218E+03</pdfrwt>
<totfact> 0.85911995E+02</totfact>
</mgrwt>
</event>
<event>
 4    1  0.7354369E-001  0.2059724E+03  0.7546771E-02  0.1144796E+00
          3   -1    0    0  502    0  0.00000000000E+00  0.00000000000E+00  0.13435709265E+04  0.13435709265E+04  0.00000000000E+00 0. -1.
         -3   -1    0    0    0  501 -0.00000000000E+00 -0.00000000000E+00 -0.35545769170E+02  0.35545769170E+02  0.00000000000E+00 0.  1.
          6    1    1    2  502    0 -0.11078087785E+03 -0.14940927826E+02  0.88445271110E+03  0.90811961348E+03  0.17300000000E+03 0. -1.
         -6    1    1    2    0  501  0.11078087785E+03  0.14940927826E+02  0.42357244620E+03  0.47099708216E+03  0.17300000000E+03 0.  1.
<mgrwt>
<rscale>  2 0.20597241E+03</rscale>
<asrwt>0</asrwt>
<pdfrwt beam="1">  1        3 0.20670318E+00 0.20597241E+03</pdfrwt>
<pdfrwt beam="2">  1       -3 0.54685809E-02 0.20597241E+03</pdfrwt>
<totfact> 0.71059706E+01</totfact>
</mgrwt>
</event>
<event>
 4    1  0.7354369E-001  0.2376178E+03  0.7546771E-02  0.1121390E+00
         -1   -1    0    0    0  501 -0.00000000000E+00  0.00000000000E+00  0.67856406923E+02  0.67856406923E+02  0.00000000000E+00 0. -1.
          1   -1    0    0  502    0  0.00000000000E+00 -0.00000000000E+00 -0.11414983913E+04  0.11414983913E+04  0.00000000000E+00 0.  1.
          6    1    1    2  502    0 -0.15738006363E+03 -0.42008554041E+02 -0.85163686654E+03  0.88416489157E+03  0.17300000000E+03 0.  1.
         -6    1    1    2    0  501  0.15738006363E+03  0.42008554041E+02 -0.22200511783E+03  0.32518990664E+03  0.17300000000E+03 0. -1.
<mgrwt>
<rscale>  2 0.23761777E+03</rscale>
<asrwt>0</asrwt>
<pdfrwt beam="1">  1        1 0.17561511E+00 0.23761777E+03</pdfrwt>
<pdfrwt beam="2">  1       -1 0.10439449E-01 0.23761777E+03</pdfrwt>
<totfact> 0.72154233E+02</totfact>
</mgrwt>
</event>
<event>
 4    1  0.7354369E-001  0.1869487E+03  0.7546771E-02  0.1161243E+00
         -2   -1    0    0    0  501 -0.00000000000E+00  0.00000000000E+00  0.18293227987E+03  0.18293227987E+03  0.00000000000E+00 0. -1.
          2   -1    0    0  502    0  0.00000000000E+00 -0.00000000000E+00 -0.21323388447E+03  0.21323388447E+03  0.00000000000E+00 0.  1.
          6    1    1    2  502    0 -0.62326799245E+02 -0.33707581223E+02  0.48735088637E+02  0.19319663507E+03  0.17300000000E+03 0. -1.
         -6    1    1    2    0  501  0.62326799245E+02  0.33707581223E+02 -0.79036693239E+02  0.20296952928E+03  0.17300000000E+03 0.  1.
<mgrwt>
<rscale>  2 0.18694874E+03</rscale>
<asrwt>0</asrwt>
<pdfrwt beam="1">  1        2 0.32805213E-01 0.18694874E+03</pdfrwt>
<pdfrwt beam="2">  1       -2 0.28143428E-01 0.18694874E+03</pdfrwt>
<totfact> 0.18018359E+03</totfact>
</mgrwt>
</event>
<event>
 4    1  0.7354369E-001  0.1873203E+03  0.7546771E-02  0.1160901E+00
          2   -1    0    0  502    0  0.00000000000E+00  0.00000000000E+00  0.63765744900E+02  0.63765744900E+02  0.00000000000E+00 0. -1.
         -2   -1    0    0    0  501 -0.00000000000E+00 -0.00000000000E+00 -0.68120361819E+03  0.68120361819E+03  0.00000000000E+00 0.  1.
          6    1    1    2  502    0  0.60853480909E+02  0.38167274815E+02 -0.47201745691E+03  0.50782808767E+03  0.17300000000E+03 0. -1.
         -6    1    1    2    0  501 -0.60853480909E+02 -0.38167274815E+02 -0.14542041639E+03  0.23714127542E+03  0.17300000000E+03 0. -1.
<mgrwt>
<rscale>  2 0.18732028E+03</rscale>
<asrwt>0</asrwt>
<pdfrwt beam="1">  1        2 0.98101137E-02 0.18732028E+03</pdfrwt>
<pdfrwt beam="2">  1       -2 0.10480057E+00 0.18732028E+03</pdfrwt>
<totfact> 0.50083876E+02</totfact>
</mgrwt>
</event>
<event>
 4    1  0.7354369E-001  0.1808973E+03  0.7546771E-02  0.1166937E+00
          2   -1    0    0  502    0  0.00000000000E+00  0.00000000000E+00  0.22461047609E+03  0.22461047609E+03  0.00000000000E+00 0. -1.
         -2   -1    0    0    0  501 -0.00000000000E+00 -0.00000000000E+00 -0.17863699851E+03  0.17863699851E+03  0.00000000000E+00 0.  1.
          6    1    1    2  502    0 -0.52368286300E+02  0.72388455043E+01 -0.63600514439E+02  0.19175208925E+03  0.17300000000E+03 0.  1.
         -6    1    1    2    0  501  0.52368286300E+02 -0.72388455043E+01  0.10957399202E+03  0.21149538534E+03  0.17300000000E+03 0. -1.
<mgrwt>
<rscale>  2 0.18089731E+03</rscale>
<asrwt>0</asrwt>
<pdfrwt beam="1">  1        2 0.34555458E-01 0.18089731E+03</pdfrwt>
<pdfrwt beam="2">  1       -2 0.27482615E-01 0.18089731E+03</pdfrwt>
<totfact> 0.17751621E+03</totfact>
</mgrwt>
</event>
<event>
 4    1  0.7354369E-001  0.2257279E+03  0.7546771E-02  0.1129683E+00
          4   -1    0    0  502    0  0.00000000000E+00  0.00000000000E+00  0.18464635326E+03  0.18464635326E+03  0.00000000000E+00 0.  1.
         -4   -1    0    0    0  501 -0.00000000000E+00 -0.00000000000E+00 -0.44451432046E+03  0.44451432046E+03  0.00000000000E+00 0. -1.
          6    1    1    2  502    0 -0.11087951347E+03 -0.93433529952E+02  0.63784923959E+02  0.23456685092E+03  0.17300000000E+03 0.  1.
         -6    1    1    2    0  501  0.11087951347E+03  0.93433529952E+02 -0.32365289116E+03  0.39459382279E+03  0.17300000000E+03 0. -1.
<mgrwt>
<rscale>  2 0.22572791E+03</rscale>
<asrwt>0</asrwt>
<pdfrwt beam="1">  1        4 0.28407132E-01 0.22572791E+03</pdfrwt>
<pdfrwt beam="2">  1       -4 0.68386818E-01 0.22572791E+03</pdfrwt>
<totfact> 0.42575045E+01</totfact>
</mgrwt>
</event>
<event>
 4    1  0.7354369E-001  0.1760886E+03  0.7546771E-02  0.1171643E+00
          2   -1    0    0  502    0  0.00000000000E+00  0.00000000000E+00  0.11277737712E+04  0.11277737712E+04  0.00000000000E+00 0.  1.
         -2   -1    0    0    0  501 -0.00000000000E+00 -0.00000000000E+00 -0.30127531373E+02  0.30127531373E+02  0.00000000000E+00 0. -1.
          6    1    1    2  502    0  0.31346192013E+02 -0.97774614751E+01  0.71998874862E+03  0.74120913422E+03  0.17300000000E+03 0.  1.
         -6    1    1    2    0  501 -0.31346192013E+02  0.97774614751E+01  0.37765749122E+03  0.41669216837E+03  0.17300000000E+03 0. -1.
<mgrwt>
<rscale>  2 0.17608856E+03</rscale>
<asrwt>0</asrwt>
<pdfrwt beam="1">  1        2 0.17350362E+00 0.17608856E+03</pdfrwt>
<pdfrwt beam="2">  1       -2 0.46350057E-02 0.17608856E+03</pdfrwt>
<totfact> 0.47762576E+03</totfact>
</mgrwt>
</event>
<event>
 4    1  0.7354369E-001  0.1946065E+03  0.7546771E-02  0.1154371E+00
         -2   -1    0    0    0  501 -0.00000000000E+00  0.00000000000E+00  0.10718572820E+03  0.10718572820E+03  0.00000000000E+00 0.  1.
          2   -1    0    0  502    0  0.00000000000E+00 -0.00000000000E+00 -0.35333012515E+03  0.35333012515E+03  0.00000000000E+00 0. -1.
          6    1    1    2  502    0  0.77726435711E+02 -0.43603661723E+02 -0.12368544627E+03  0.23058570585E+03  0.17300000000E+03 0.  1.
         -6    1    1    2    0  501 -0.77726435711E+02  0.43603661723E+02 -0.12245895068E+03  0.22993014749E+03  0.17300000000E+03 0.  1.
<mgrwt>
<rscale>  2 0.19460647E+03</rscale>
<asrwt>0</asrwt>
<pdfrwt beam="1">  1        2 0.54358480E-01 0.19460647E+03</pdfrwt>
<pdfrwt beam="2">  1       -2 0.16490112E-01 0.19460647E+03</pdfrwt>
<totfact> 0.26343614E+03</totfact>
</mgrwt>
</event>
<event>
 4    1  0.7354369E-001  0.1803160E+03  0.7546771E-02  0.1167498E+00
          2   -1    0    0  502    0  0.00000000000E+00  0.00000000000E+00  0.12996806766E+04  0.12996806766E+04  0.00000000000E+00 0. -1.
         -2   -1    0    0    0  501 -0.00000000000E+00 -0.00000000000E+00 -0.25554429914E+02  0.25554429914E+02  0.00000000000E+00 0.  1.
          6    1    1    2  502    0 -0.19253619213E+02 -0.47054649676E+02  0.54095180225E+03  0.57021284997E+03  0.17300000000E+03 0. -1.
         -6    1    1    2    0  501  0.19253619213E+02  0.47054649676E+02  0.73317444447E+03  0.75502225658E+03  0.17300000000E+03 0. -1.
<mgrwt>
<rscale>  2 0.18031595E+03</rscale>
<asrwt>0</asrwt>
<pdfrwt beam="1">  1        2 0.19995082E+00 0.18031595E+03</pdfrwt>
<pdfrwt beam="2">  1       -2 0.39314518E-02 0.18031595E+03</pdfrwt>
<totfact> 0.49049446E+03</totfact>
</mgrwt>
</event>
<event>
 4    1  0.7354369E-001  0.2146004E+03  0.7546771E-02  0.1137974E+00
          1   -1    0    0  502    0  0.00000000000E+00  0.00000000000E+00  0.75296930898E+02  0.75296930898E+02  0.00000000000E+00 0. -1.
         -1   -1    0    0    0  501 -0.00000000000E+00 -0.00000000000E+00 -0.61210557933E+03  0.61210557933E+03  0.00000000000E+00 0.  1.
          6    1    1    2  502    0 -0.12199654132E+03 -0.35230065219E+02 -0.25875095709E+03  0.33616271564E+03  0.17300000000E+03 0. -1.
         -6    1    1    2    0  501  0.12199654132E+03  0.35230065219E+02 -0.27805769134E+03  0.35123979459E+03  0.17300000000E+03 0. -1.
<mgrwt>
<rscale>  2 0.21460036E+03</rscale>
<asrwt>0</asrwt>
<pdfrwt beam="1">  1        1 0.11584143E-01 0.21460036E+03</pdfrwt>
<pdfrwt beam="2">  1       -1 0.94170089E-01 0.21460036E+03</pdfrwt>
<totfact> 0.60543851E+02</totfact>
</mgrwt>
</event>
<event>
 4    1  0.7354369E-001  0.2035582E+03  0.7546771E-02  0.1146771E+00
          2   -1    0    0  502    0  0.00000000000E+00  0.00000000000E+00  0.88134471753E+02  0.88134471753E+02  0.00000000000E+00 0.  1.
         -2   -1    0    0    0  501 -0.00000000000E+00 -0.00000000000E+00 -0.47124343041E+03  0.47124343041E+03  0.00000000000E+00 0. -1.
          6    1    1    2  502    0  0.77611085911E+02  0.74050453161E+02 -0.20505990720E+03  0.28893860214E+03  0.17300000000E+03 0.  1.
         -6    1    1    2    0  501 -0.77611085911E+02 -0.74050453161E+02 -0.17804905146E+03  0.27043930002E+03  0.17300000000E+03 0. -1.
<mgrwt>
<rscale>  2 0.20355822E+03</rscale>
<asrwt>0</asrwt>
<pdfrwt beam="1">  1        2 0.13559150E-01 0.20355822E+03</pdfrwt>
<pdfrwt beam="2">  1       -2 0.72498989E-01 0.20355822E+03</pdfrwt>
<totfact> 0.77343920E+02</totfact>
</mgrwt>
</event>
<event>
 4    1  0.7354369E-001  0.3095466E+03  0.7546771E-02  0.1080563E+00
          1   -1    0    0  502    0  0.00000000000E+00  0.00000000000E+00  0.23694252304E+04  0.23694252304E+04  0.00000000000E+00 0.  1.
         -1   -1    0    0    0  501 -0.00000000000E+00 -0.00000000000E+00 -0.48796418654E+02  0.48796418654E+02  0.00000000000E+00 0. -1.
          6    1    1    2  502    0  0.15100137182E+03 -0.20757814418E+03  0.65994905104E+03  0.72893885217E+03  0.17300000000E+03 0. -1.
         -6    1    1    2    0  501 -0.15100137182E+03  0.20757814418E+03  0.16606797607E+04  0.16892827969E+04  0.17300000000E+03 0.  1.
<mgrwt>
<rscale>  2 0.30954660E+03</rscale>
<asrwt>0</asrwt>
<pdfrwt beam="1">  1        1 0.36452687E+00 0.30954660E+03</pdfrwt>
<pdfrwt beam="2">  1       -1 0.75071432E-02 0.30954660E+03</pdfrwt>
<totfact> 0.18221463E+02</totfact>
</mgrwt>
</event>
<event>
 4    1  0.7354369E-001  0.3933606E+03  0.7546771E-02  0.1046103E+00
          2   -1    0    0  502    0  0.00000000000E+00  0.00000000000E+00  0.18242488851E+04  0.18242488851E+04  0.00000000000E+00 0. -1.
         -2   -1    0    0    0  501 -0.00000000000E+00 -0.00000000000E+00 -0.85224955872E+02  0.85224955872E+02  0.00000000000E+00 0.  1.
          6    1    1    2  502    0 -0.35273253629E+03 -0.19578391302E+02  0.80368964200E+03  0.89479025264E+03  0.17300000000E+03 0. -1.
         -6    1    1    2    0  501  0.35273253629E+03  0.19578391302E+02  0.93533428720E+03  0.10146835883E+04  0.17300000000E+03 0.  1.
<mgrwt>
<rscale>  2 0.39336059E+03</rscale>
<asrwt>0</asrwt>
<pdfrwt beam="1">  1        2 0.28065364E+00 0.39336059E+03</pdfrwt>
<pdfrwt beam="2">  1       -2 0.13111533E-01 0.39336059E+03</pdfrwt>
<totfact> 0.38723333E+02</totfact>
</mgrwt>
</event>
<event>
 4    1  0.7354369E-001  0.2875755E+03  0.7546771E-02  0.1091622E+00
         -1   -1    0    0    0  501 -0.00000000000E+00  0.00000000000E+00  0.18203215301E+03  0.18203215301E+03  0.00000000000E+00 0.  1.
          1   -1    0    0  502    0  0.00000000000E+00 -0.00000000000E+00 -0.12114478164E+04  0.12114478164E+04  0.00000000000E+00 0. -1.
          6    1    1    2  502    0 -0.18999647991E+03 -0.12912012172E+03  0.36106001279E+02  0.28983324781E+03  0.17300000000E+03 0.  1.
         -6    1    1    2    0  501  0.18999647991E+03  0.12912012172E+03 -0.10655216647E+04  0.11036467216E+04  0.17300000000E+03 0. -1.
<mgrwt>
<rscale>  2 0.28757550E+03</rscale>
<asrwt>0</asrwt>
<pdfrwt beam="1">  1        1 0.18637658E+00 0.28757550E+03</pdfrwt>
<pdfrwt beam="2">  1       -1 0.28004947E-01 0.28757550E+03</pdfrwt>
<totfact> 0.13012807E+02</totfact>
</mgrwt>
</event>
<event>
 4    1  0.7354369E-001  0.1915402E+03  0.7546771E-02  0.1157079E+00
         -2   -1    0    0    0  501 -0.00000000000E+00  0.00000000000E+00  0.36035269313E+02  0.36035269313E+02  0.00000000000E+00 0. -1.
          2   -1    0    0  502    0  0.00000000000E+00 -0.00000000000E+00 -0.10887677737E+04  0.10887677737E+04  0.00000000000E+00 0.  1.
          6    1    1    2  502    0 -0.41378737899E+02 -0.71038379765E+02 -0.66964352698E+03  0.69649845985E+03  0.17300000000E+03 0.  1.
         -6    1    1    2    0  501  0.41378737899E+02  0.71038379765E+02 -0.38308897745E+03  0.42830458321E+03  0.17300000000E+03 0. -1.
<mgrwt>
<rscale>  2 0.19154021E+03</rscale>
<asrwt>0</asrwt>
<pdfrwt beam="1">  1        2 0.16750274E+00 0.19154021E+03</pdfrwt>
<pdfrwt beam="2">  1       -2 0.55438875E-02 0.19154021E+03</pdfrwt>
<totfact> 0.38447143E+03</totfact>
</mgrwt>
</event>
<event>
 4    1  0.7354369E-001  0.3787527E+03  0.7546771E-02  0.1051396E+00
          1   -1    0    0  502    0  0.00000000000E+00  0.00000000000E+00  0.32291759851E+03  0.32291759851E+03  0.00000000000E+00 0.  1.
         -1   -1    0    0    0  501 -0.00000000000E+00 -0.00000000000E+00 -0.44920028564E+03  0.44920028564E+03  0.00000000000E+00 0. -1.
          6    1    1    2  502    0  0.60270989107E+01  0.33688022558E+03 -0.10370081191E+03  0.39269259059E+03  0.17300000000E+03 0. -1.
         -6    1    1    2    0  501 -0.60270989107E+01 -0.33688022558E+03 -0.22581875218E+02  0.37942529357E+03  0.17300000000E+03 0.  1.
<mgrwt>
<rscale>  2 0.37875271E+03</rscale>
<asrwt>0</asrwt>
<pdfrwt beam="1">  1        1 0.49679631E-01 0.37875271E+03</pdfrwt>
<pdfrwt beam="2">  1       -1 0.69107736E-01 0.37875271E+03</pdfrwt>
<totfact> 0.17515089E+02</totfact>
</mgrwt>
</event>
<event>
 4    1  0.7354369E-001  0.3883236E+03  0.7546771E-02  0.1047899E+00
         -2   -1    0    0    0  501 -0.00000000000E+00  0.00000000000E+00  0.21195790526E+03  0.21195790526E+03  0.00000000000E+00 0. -1.
          2   -1    0    0  502    0  0.00000000000E+00 -0.00000000000E+00 -0.86199804884E+03  0.86199804884E+03  0.00000000000E+00 0.  1.
          6    1    1    2  502    0 -0.34663593799E+03 -0.26641631025E+02 -0.54943713807E+03  0.67281232056E+03  0.17300000000E+03 0. -1.
         -6    1    1    2    0  501  0.34663593799E+03  0.26641631025E+02 -0.10060300551E+03  0.40114363354E+03  0.17300000000E+03 0.  1.
<mgrwt>
<rscale>  2 0.38832364E+03</rscale>
<asrwt>0</asrwt>
<pdfrwt beam="1">  1        2 0.13261508E+00 0.38832364E+03</pdfrwt>
<pdfrwt beam="2">  1       -2 0.32608909E-01 0.38832364E+03</pdfrwt>
<totfact> 0.28131427E+02</totfact>
</mgrwt>
</event>
<event>
 4    1  0.7354369E-001  0.2022371E+03  0.7546771E-02  0.1147865E+00
         -2   -1    0    0    0  501 -0.00000000000E+00  0.00000000000E+00  0.11174192631E+04  0.11174192631E+04  0.00000000000E+00 0.  1.
          2   -1    0    0  502    0  0.00000000000E+00 -0.00000000000E+00 -0.50741998785E+02  0.50741998785E+02  0.00000000000E+00 0. -1.
          6    1    1    2  502    0  0.89782412212E+02  0.53943978536E+02  0.22501063884E+03  0.30253862886E+03  0.17300000000E+03 0. -1.
         -6    1    1    2    0  501 -0.89782412212E+02 -0.53943978536E+02  0.84166662549E+03  0.86562263304E+03  0.17300000000E+03 0. -1.
<mgrwt>
<rscale>  2 0.20223707E+03</rscale>
<asrwt>0</asrwt>
<pdfrwt beam="1">  1        2 0.78064622E-02 0.20223707E+03</pdfrwt>
<pdfrwt beam="2">  1       -2 0.17191064E+00 0.20223707E+03</pdfrwt>
<totfact> 0.19367169E+02</totfact>
</mgrwt>
</event>
<event>
 4    1  0.7354369E-001  0.2154737E+03  0.7546771E-02  0.1137303E+00
         -1   -1    0    0    0  501 -0.00000000000E+00  0.00000000000E+00  0.13271885590E+03  0.13271885590E+03  0.00000000000E+00 0. -1.
          1   -1    0    0  502    0  0.00000000000E+00 -0.00000000000E+00 -0.51478027354E+03  0.51478027354E+03  0.00000000000E+00 0.  1.
          6    1    1    2  502    0  0.38521980979E+02  0.12253965006E+03 -0.37429423547E+03  0.43188549821E+03  0.17300000000E+03 0.  1.
         -6    1    1    2    0  501 -0.38521980979E+02 -0.12253965006E+03 -0.77671821641E+01  0.21561363124E+03  0.17300000000E+03 0. -1.
<mgrwt>
<rscale>  2 0.21547368E+03</rscale>
<asrwt>0</asrwt>
<pdfrwt beam="1">  1        1 0.79196965E-01 0.21547368E+03</pdfrwt>
<pdfrwt beam="2">  1       -1 0.20418286E-01 0.21547368E+03</pdfrwt>
<totfact> 0.84858990E+02</totfact>
</mgrwt>
</event>
<event>
 4    1  0.7354369E-001  0.1835799E+03  0.7546771E-02  0.1164383E+00
         -1   -1    0    0    0  501 -0.00000000000E+00  0.00000000000E+00  0.54781915984E+02  0.54781915984E+02  0.00000000000E+00 0. -1.
          1   -1    0    0  502    0  0.00000000000E+00 -0.00000000000E+00 -0.71580334420E+03  0.71580334420E+03  0.00000000000E+00 0.  1.
          6    1    1    2  502    0  0.33182635250E+02 -0.51686344329E+02 -0.47495842278E+03  0.50920238495E+03  0.17300000000E+03 0.  1.
         -6    1    1    2    0  501 -0.33182635250E+02  0.51686344329E+02 -0.18606300544E+03  0.26138287523E+03  0.17300000000E+03 0. -1.
<mgrwt>
<rscale>  2 0.18357986E+03</rscale>
<asrwt>0</asrwt>
<pdfrwt beam="1">  1        1 0.11012360E+00 0.18357986E+03</pdfrwt>
<pdfrwt beam="2">  1       -1 0.84279867E-02 0.18357986E+03</pdfrwt>
<totfact> 0.21498741E+03</totfact>
</mgrwt>
</event>
<event>
 4    1  0.7354369E-001  0.2108303E+03  0.7546771E-02  0.1140910E+00
         -1   -1    0    0    0  501 -0.00000000000E+00  0.00000000000E+00  0.32766432196E+02  0.32766432196E+02  0.00000000000E+00 0. -1.
          1   -1    0    0  502    0  0.00000000000E+00 -0.00000000000E+00 -0.37617009066E+04  0.37617009066E+04  0.00000000000E+00 0.  1.
          6    1    1    2  502    0 -0.78561683913E+02 -0.91369986444E+02 -0.34741841608E+03  0.40638524633E+03  0.17300000000E+03 0. -1.
         -6    1    1    2    0  501  0.78561683913E+02  0.91369986444E+02 -0.33815160583E+04  0.33880820924E+04  0.17300000000E+03 0.  1.
<mgrwt>
<rscale>  2 0.21083029E+03</rscale>
<asrwt>0</asrwt>
<pdfrwt beam="1">  1        1 0.57872324E+00 0.21083029E+03</pdfrwt>
<pdfrwt beam="2">  1       -1 0.50409894E-02 0.21083029E+03</pdfrwt>
<totfact> 0.35142189E+01</totfact>
</mgrwt>
</event>
<event>
 4    1  0.7354369E-001  0.1899801E+03  0.7546771E-02  0.1158479E+00
         -2   -1    0    0    0  501 -0.00000000000E+00  0.00000000000E+00  0.80249362254E+03  0.80249362254E+03  0.00000000000E+00 0. -1.
          2   -1    0    0  502    0  0.00000000000E+00 -0.00000000000E+00 -0.71728514761E+02  0.71728514761E+02  0.00000000000E+00 0.  1.
          6    1    1    2  502    0 -0.16410058941E+02 -0.76773421689E+02  0.98430481103E+02  0.21396496891E+03  0.17300000000E+03 0.  1.
         -6    1    1    2    0  501  0.16410058941E+02  0.76773421689E+02  0.63233462668E+03  0.66025716839E+03  0.17300000000E+03 0. -1.
<mgrwt>
<rscale>  2 0.18998013E+03</rscale>
<asrwt>0</asrwt>
<pdfrwt beam="1">  1        2 0.11035157E-01 0.18998013E+03</pdfrwt>
<pdfrwt beam="2">  1       -2 0.12346055E+00 0.18998013E+03</pdfrwt>
<totfact> 0.29306868E+02</totfact>
</mgrwt>
</event>
<event>
 4    1  0.7354369E-001  0.1790746E+03  0.7546771E-02  0.1168702E+00
         -2   -1    0    0    0  501 -0.00000000000E+00  0.00000000000E+00  0.42231283100E+03  0.42231283100E+03  0.00000000000E+00 0. -1.
          2   -1    0    0  502    0  0.00000000000E+00 -0.00000000000E+00 -0.20459525483E+03  0.20459525483E+03  0.00000000000E+00 0.  1.
          6    1    1    2  502    0  0.33786877268E+02 -0.31577576673E+02 -0.13971241382E+03  0.22712827873E+03  0.17300000000E+03 0.  1.
         -6    1    1    2    0  501 -0.33786877268E+02  0.31577576673E+02  0.35742998999E+03  0.39977980710E+03  0.17300000000E+03 0. -1.
<mgrwt>
<rscale>  2 0.17907456E+03</rscale>
<asrwt>0</asrwt>
<pdfrwt beam="1">  1        2 0.31476193E-01 0.17907456E+03</pdfrwt>
<pdfrwt beam="2">  1       -2 0.64971205E-01 0.17907456E+03</pdfrwt>
<totfact> 0.37346620E+02</totfact>
</mgrwt>
</event>
<event>
 4    1  0.7354369E-001  0.4920871E+03  0.7546771E-02  0.1015865E+00
          2   -1    0    0  502    0  0.00000000000E+00  0.00000000000E+00  0.50034348911E+04  0.50034348911E+04  0.00000000000E+00 0. -1.
         -2   -1    0    0    0  501 -0.00000000000E+00 -0.00000000000E+00 -0.48441579080E+02  0.48441579080E+02  0.00000000000E+00 0.  1.
          6    1    1    2  502    0  0.37309574655E+03 -0.27022270490E+03  0.24006142615E+04  0.24505302648E+04  0.17300000000E+03 0. -1.
         -6    1    1    2    0  501 -0.37309574655E+03  0.27022270490E+03  0.25543790506E+04  0.26013462054E+04  0.17300000000E+03 0.  1.
<mgrwt>
<rscale>  2 0.49208713E+03</rscale>
<asrwt>0</asrwt>
<pdfrwt beam="1">  1        2 0.76975881E+00 0.49208713E+03</pdfrwt>
<pdfrwt beam="2">  1       -2 0.74525546E-02 0.49208713E+03</pdfrwt>
<totfact> 0.47420025E+00</totfact>
</mgrwt>
</event>
<event>
 4    1  0.7354369E-001  0.1895282E+03  0.7546771E-02  0.1158888E+00
         -2   -1    0    0    0  501 -0.00000000000E+00  0.00000000000E+00  0.18004745177E+03  0.18004745177E+03  0.00000000000E+00 0.  1.
          2   -1    0    0  502    0  0.00000000000E+00 -0.00000000000E+00 -0.20196413904E+03  0.20196413904E+03  0.00000000000E+00 0. -1.
          6    1    1    2  502    0  0.26863275519E+02 -0.72596884334E+02 -0.32021241470E+02  0.19221421147E+03  0.17300000000E+03 0. -1.
         -6    1    1    2    0  501 -0.26863275519E+02  0.72596884334E+02  0.10104554205E+02  0.18979737933E+03  0.17300000000E+03 0.  1.
<mgrwt>
<rscale>  2 0.18952821E+03</rscale>
<asrwt>0</asrwt>
<pdfrwt beam="1">  1        2 0.31071406E-01 0.18952821E+03</pdfrwt>
<pdfrwt beam="2">  1       -2 0.27699608E-01 0.18952821E+03</pdfrwt>
<totfact> 0.19675952E+03</totfact>
</mgrwt>
</event>
<event>
 4    1  0.7354369E-001  0.1770337E+03  0.7546771E-02  0.1170705E+00
         -2   -1    0    0    0  501 -0.00000000000E+00  0.00000000000E+00  0.16792777830E+02  0.16792777830E+02  0.00000000000E+00 0.  1.
          2   -1    0    0  502    0  0.00000000000E+00 -0.00000000000E+00 -0.18747891887E+04  0.18747891887E+04  0.00000000000E+00 0. -1.
          6    1    1    2  502    0 -0.20644508483E+01  0.37518992170E+02 -0.86548358610E+03  0.88340408339E+03  0.17300000000E+03 0.  1.
         -6    1    1    2    0  501  0.20644508483E+01 -0.37518992170E+02 -0.99251282476E+03  0.10081778831E+04  0.17300000000E+03 0.  1.
<mgrwt>
<rscale>  2 0.17703372E+03</rscale>
<asrwt>0</asrwt>
<pdfrwt beam="1">  1        2 0.28842916E+00 0.17703372E+03</pdfrwt>
<pdfrwt beam="2">  1       -2 0.25835038E-02 0.17703372E+03</pdfrwt>
<totfact> 0.45589686E+03</totfact>
</mgrwt>
</event>
<event>
 4    1  0.7354369E-001  0.1854856E+03  0.7546771E-02  0.1162597E+00
          2   -1    0    0  502    0  0.00000000000E+00  0.00000000000E+00  0.84595806452E+03  0.84595806452E+03  0.00000000000E+00 0. -1.
         -2   -1    0    0    0  501 -0.00000000000E+00 -0.00000000000E+00 -0.42133170181E+02  0.42133170181E+02  0.00000000000E+00 0.  1.
          6    1    1    2  502    0 -0.66241210324E+02 -0.93806660866E+01  0.31915607020E+03  0.36914156091E+03  0.17300000000E+03 0.  1.
         -6    1    1    2    0  501  0.66241210324E+02  0.93806660866E+01  0.48466882414E+03  0.51894967380E+03  0.17300000000E+03 0. -1.
<mgrwt>
<rscale>  2 0.18548557E+03</rscale>
<asrwt>0</asrwt>
<pdfrwt beam="1">  1        2 0.13014738E+00 0.18548557E+03</pdfrwt>
<pdfrwt beam="2">  1       -2 0.64820268E-02 0.18548557E+03</pdfrwt>
<totfact> 0.42733901E+03</totfact>
</mgrwt>
</event>
<event>
 4    1  0.7354369E-001  0.4731891E+03  0.7546771E-02  0.1021024E+00
         -2   -1    0    0    0  501 -0.00000000000E+00  0.00000000000E+00  0.22065236163E+03  0.22065236163E+03  0.00000000000E+00 0. -1.
          2   -1    0    0  502    0  0.00000000000E+00 -0.00000000000E+00 -0.14394256744E+04  0.14394256744E+04  0.00000000000E+00 0.  1.
          6    1    1    2  502    0 -0.42461517916E+02  0.43837877284E+03 -0.15853840648E+03  0.49904143647E+03  0.17300000000E+03 0.  1.
         -6    1    1    2    0  501  0.42461517916E+02 -0.43837877284E+03 -0.10602349063E+04  0.11610365995E+04  0.17300000000E+03 0.  1.
<mgrwt>
<rscale>  2 0.47318910E+03</rscale>
<asrwt>0</asrwt>
<pdfrwt beam="1">  1        2 0.22145010E+00 0.47318910E+03</pdfrwt>
<pdfrwt beam="2">  1       -2 0.33946518E-01 0.47318910E+03</pdfrwt>
<totfact> 0.11685691E+02</totfact>
</mgrwt>
</event>
<event>
 4    1  0.7354369E-001  0.2024952E+03  0.7546771E-02  0.1147651E+00
         -2   -1    0    0    0  501 -0.00000000000E+00  0.00000000000E+00  0.73108032914E+03  0.73108032914E+03  0.00000000000E+00 0.  1.
          2   -1    0    0  502    0  0.00000000000E+00 -0.00000000000E+00 -0.61893003832E+02  0.61893003832E+02  0.00000000000E+00 0. -1.
          6    1    1    2  502    0  0.35742728704E+02  0.98983653129E+02  0.45602647084E+03  0.49896337376E+03  0.17300000000E+03 0. -1.
         -6    1    1    2    0  501 -0.35742728704E+02 -0.98983653129E+02  0.21316085447E+03  0.29400995922E+03  0.17300000000E+03 0. -1.
<mgrwt>
<rscale>  2 0.20249520E+03</rscale>
<asrwt>0</asrwt>
<pdfrwt beam="1">  1        2 0.95220011E-02 0.20249520E+03</pdfrwt>
<pdfrwt beam="2">  1       -2 0.11247389E+00 0.20249520E+03</pdfrwt>
<totfact> 0.44053113E+02</totfact>
</mgrwt>
</event>
<event>
 4    1  0.7354369E-001  0.1996849E+03  0.7546771E-02  0.1150005E+00
         -2   -1    0    0    0  501 -0.00000000000E+00  0.00000000000E+00  0.42625742563E+02  0.42625742563E+02  0.00000000000E+00 0.  1.
          2   -1    0    0  502    0  0.00000000000E+00 -0.00000000000E+00 -0.95008435187E+03  0.95008435187E+03  0.00000000000E+00 0. -1.
          6    1    1    2  502    0 -0.98002745208E+01  0.99242289772E+02 -0.51534033424E+03  0.55267507412E+03  0.17300000000E+03 0.  1.
         -6    1    1    2    0  501  0.98002745208E+01 -0.99242289772E+02 -0.39211827506E+03  0.44003502031E+03  0.17300000000E+03 0.  1.
<mgrwt>
<rscale>  2 0.19968495E+03</rscale>
<asrwt>0</asrwt>
<pdfrwt beam="1">  1        2 0.14616684E+00 0.19968495E+03</pdfrwt>
<pdfrwt beam="2">  1       -2 0.65578059E-02 0.19968495E+03</pdfrwt>
<totfact> 0.36069657E+03</totfact>
</mgrwt>
</event>
<event>
 4    1  0.7354369E-001  0.2134070E+03  0.7546771E-02  0.1138896E+00
          1   -1    0    0  502    0  0.00000000000E+00  0.00000000000E+00  0.65019461431E+03  0.65019461431E+03  0.00000000000E+00 0.  1.
         -1   -1    0    0    0  501 -0.00000000000E+00 -0.00000000000E+00 -0.71464652355E+02  0.71464652355E+02  0.00000000000E+00 0. -1.
          6    1    1    2  502    0  0.97058454726E+02  0.78696866797E+02  0.23849895255E+03  0.32003795220E+03  0.17300000000E+03 0.  1.
         -6    1    1    2    0  501 -0.97058454726E+02 -0.78696866797E+02  0.34023100940E+03  0.40162131447E+03  0.17300000000E+03 0.  1.
<mgrwt>
<rscale>  2 0.21340698E+03</rscale>
<asrwt>0</asrwt>
<pdfrwt beam="1">  1        1 0.10002994E+00 0.21340698E+03</pdfrwt>
<pdfrwt beam="2">  1       -1 0.10994562E-01 0.21340698E+03</pdfrwt>
<totfact> 0.16441929E+03</totfact>
</mgrwt>
</event>
<event>
 4    1  0.7354369E-001  0.2916339E+03  0.7546771E-02  0.1089499E+00
         -2   -1    0    0    0  501 -0.00000000000E+00  0.00000000000E+00  0.10546311133E+03  0.10546311133E+03  0.00000000000E+00 0. -1.
          2   -1    0    0  502    0  0.00000000000E+00 -0.00000000000E+00 -0.81987644898E+03  0.81987644898E+03  0.00000000000E+00 0.  1.
          6    1    1    2  502    0 -0.21610752810E+02 -0.23378265268E+03 -0.29799126790E+03  0.41695221438E+03  0.17300000000E+03 0. -1.
         -6    1    1    2    0  501  0.21610752810E+02  0.23378265268E+03 -0.41642206975E+03  0.50838734593E+03  0.17300000000E+03 0.  1.
<mgrwt>
<rscale>  2 0.29163394E+03</rscale>
<asrwt>0</asrwt>
<pdfrwt beam="1">  1        2 0.12613484E+00 0.29163394E+03</pdfrwt>
<pdfrwt beam="2">  1       -2 0.16225094E-01 0.29163394E+03</pdfrwt>
<totfact> 0.10331110E+03</totfact>
</mgrwt>
</event>
<event>
 4    1  0.7354369E-001  0.2144861E+03  0.7546771E-02  0.1138062E+00
          2   -1    0    0  502    0  0.00000000000E+00  0.00000000000E+00  0.82088887098E+03  0.82088887098E+03  0.00000000000E+00 0.  1.
         -2   -1    0    0    0  501 -0.00000000000E+00 -0.00000000000E+00 -0.58845213683E+02  0.58845213683E+02  0.00000000000E+00 0. -1.
          6    1    1    2  502    0 -0.70227899108E+02  0.10556191766E+03  0.47702638862E+03  0.52302815576E+03  0.17300000000E+03 0.  1.
         -6    1    1    2    0  501  0.70227899108E+02 -0.10556191766E+03  0.28501726868E+03  0.35670592891E+03  0.17300000000E+03 0.  1.
<mgrwt>
<rscale>  2 0.21448607E+03</rscale>
<asrwt>0</asrwt>
<pdfrwt beam="1">  1        2 0.12629059E+00 0.21448607E+03</pdfrwt>
<pdfrwt beam="2">  1       -2 0.90531104E-02 0.21448607E+03</pdfrwt>
<totfact> 0.26524323E+03</totfact>
</mgrwt>
</event>
<event>
 4    1  0.7354369E-001  0.1837859E+03  0.7546771E-02  0.1164189E+00
          2   -1    0    0  502    0  0.00000000000E+00  0.00000000000E+00  0.20632698002E+04  0.20632698002E+04  0.00000000000E+00 0.  1.
         -2   -1    0    0    0  501 -0.00000000000E+00 -0.00000000000E+00 -0.17140133449E+02  0.17140133449E+02  0.00000000000E+00 0. -1.
          6    1    1    2  502    0 -0.29536874118E+02 -0.54551054061E+02  0.12434525064E+04  0.12569611689E+04  0.17300000000E+03 0.  1.
         -6    1    1    2    0  501  0.29536874118E+02  0.54551054061E+02  0.80267716038E+03  0.82344876479E+03  0.17300000000E+03 0. -1.
<mgrwt>
<rscale>  2 0.18378587E+03</rscale>
<asrwt>0</asrwt>
<pdfrwt beam="1">  1        2 0.31742593E+00 0.18378587E+03</pdfrwt>
<pdfrwt beam="2">  1       -2 0.26369452E-02 0.18378587E+03</pdfrwt>
<totfact> 0.35338526E+03</totfact>
</mgrwt>
</event>
<event>
 4    1  0.7354369E-001  0.1811170E+03  0.7546771E-02  0.1166726E+00
         -2   -1    0    0    0  501 -0.00000000000E+00  0.00000000000E+00  0.20976981645E+03  0.20976981645E+03  0.00000000000E+00 0. -1.
          2   -1    0    0  502    0  0.00000000000E+00 -0.00000000000E+00 -0.16467870152E+03  0.16467870152E+03  0.00000000000E+00 0.  1.
          6    1    1    2  502    0  0.12378025940E+02 -0.52164672479E+02  0.64579755836E+02  0.19228601989E+03  0.17300000000E+03 0.  1.
         -6    1    1    2    0  501 -0.12378025940E+02  0.52164672479E+02 -0.19488640901E+02  0.18216249808E+03  0.17300000000E+03 0.  1.
<mgrwt>
<rscale>  2 0.18111700E+03</rscale>
<asrwt>0</asrwt>
<pdfrwt beam="1">  1        2 0.25335185E-01 0.18111700E+03</pdfrwt>
<pdfrwt beam="2">  1       -2 0.32272280E-01 0.18111700E+03</pdfrwt>
<totfact> 0.18651377E+03</totfact>
</mgrwt>
</event>
<event>
 4    1  0.7354369E-001  0.1769357E+03  0.7546771E-02  0.1170802E+00
          2   -1    0    0  502    0  0.00000000000E+00  0.00000000000E+00  0.83384031102E+03  0.83384031102E+03  0.00000000000E+00 0. -1.
         -2   -1    0    0    0  501 -0.00000000000E+00 -0.00000000000E+00 -0.37598694594E+02  0.37598694594E+02  0.00000000000E+00 0.  1.
          6    1    1    2  502    0 -0.12401896982E+01  0.37090409326E+02  0.41464142015E+03  0.45081453375E+03  0.17300000000E+03 0. -1.
         -6    1    1    2    0  501  0.12401896982E+01 -0.37090409326E+02  0.38160019627E+03  0.42062447186E+03  0.17300000000E+03 0.  1.
<mgrwt>
<rscale>  2 0.17693568E+03</rscale>
<asrwt>0</asrwt>
<pdfrwt beam="1">  1        2 0.12828311E+00 0.17693568E+03</pdfrwt>
<pdfrwt beam="2">  1       -2 0.57844152E-02 0.17693568E+03</pdfrwt>
<totfact> 0.51724580E+03</totfact>
</mgrwt>
</event>
<event>
 4    1  0.7354369E-001  0.1818817E+03  0.7546771E-02  0.1165994E+00
          2   -1    0    0  502    0  0.00000000000E+00  0.00000000000E+00  0.62654783217E+03  0.62654783217E+03  0.00000000000E+00 0. -1.
         -2   -1    0    0    0  501 -0.00000000000E+00 -0.00000000000E+00 -0.67420352918E+02  0.67420352918E+02  0.00000000000E+00 0.  1.
          6    1    1    2  502    0  0.55922713703E+02  0.49611170486E+01  0.11797500973E+03  0.21679267864E+03  0.17300000000E+03 0.  1.
         -6    1    1    2    0  501 -0.55922713703E+02 -0.49611170486E+01  0.44115246952E+03  0.47717550645E+03  0.17300000000E+03 0. -1.
<mgrwt>
<rscale>  2 0.18188173E+03</rscale>
<asrwt>0</asrwt>
<pdfrwt beam="1">  1        2 0.96391970E-01 0.18188173E+03</pdfrwt>
<pdfrwt beam="2">  1       -2 0.10372362E-01 0.18188173E+03</pdfrwt>
<totfact> 0.29598410E+03</totfact>
</mgrwt>
</event>
<event>
 4    1  0.7354369E-001  0.1934850E+03  0.7546771E-02  0.1155355E+00
          1   -1    0    0  502    0  0.00000000000E+00  0.00000000000E+00  0.19478759902E+03  0.19478759902E+03  0.00000000000E+00 0. -1.
         -1   -1    0    0    0  501 -0.00000000000E+00 -0.00000000000E+00 -0.23944252198E+03  0.23944252198E+03  0.00000000000E+00 0.  1.
          6    1    1    2  502    0  0.66729708110E+02 -0.55268470564E+02 -0.11877616666E+03  0.22703355600E+03  0.17300000000E+03 0.  1.
         -6    1    1    2    0  501 -0.66729708110E+02  0.55268470564E+02  0.74121243702E+02  0.20719656501E+03  0.17300000000E+03 0. -1.
<mgrwt>
<rscale>  2 0.19348503E+03</rscale>
<asrwt>0</asrwt>
<pdfrwt beam="1">  1        1 0.29967323E-01 0.19348503E+03</pdfrwt>
<pdfrwt beam="2">  1       -1 0.36837311E-01 0.19348503E+03</pdfrwt>
<totfact> 0.10796431E+03</totfact>
</mgrwt>
</event>
<event>
 4    1  0.7354369E-001  0.1794576E+03  0.7546771E-02  0.1168329E+00
         -3   -1    0    0    0  501 -0.00000000000E+00  0.00000000000E+00  0.39847160900E+03  0.39847160900E+03  0.00000000000E+00 0. -1.
          3   -1    0    0  502    0  0.00000000000E+00 -0.00000000000E+00 -0.82383939077E+02  0.82383939077E+02  0.00000000000E+00 0.  1.
          6    1    1    2  502    0 -0.33573177971E+02  0.33894851451E+02  0.19115570493E+03  0.26219367414E+03  0.17300000000E+03 0. -1.
         -6    1    1    2    0  501  0.33573177971E+02 -0.33894851451E+02  0.12493196499E+03  0.21866187393E+03  0.17300000000E+03 0.  1.
<mgrwt>
<rscale>  2 0.17945757E+03</rscale>
<asrwt>0</asrwt>
<pdfrwt beam="1">  1        3 0.12674452E-01 0.17945757E+03</pdfrwt>
<pdfrwt beam="2">  1       -3 0.61303323E-01 0.17945757E+03</pdfrwt>
<totfact> 0.31434574E+02</totfact>
</mgrwt>
</event>
<event>
 4    1  0.7354369E-001  0.1783140E+03  0.7546771E-02  0.1169445E+00
          2   -1    0    0  502    0  0.00000000000E+00  0.00000000000E+00  0.11192249426E+03  0.11192249426E+03  0.00000000000E+00 0. -1.
         -2   -1    0    0    0  501 -0.00000000000E+00 -0.00000000000E+00 -0.29213884026E+03  0.29213884026E+03  0.00000000000E+00 0.  1.
          6    1    1    2  502    0 -0.29775452737E+02  0.31309717012E+02 -0.12364592853E+03  0.21698892047E+03  0.17300000000E+03 0. -1.
         -6    1    1    2    0  501  0.29775452737E+02 -0.31309717012E+02 -0.56570417467E+02  0.18707241405E+03  0.17300000000E+03 0. -1.
<mgrwt>
<rscale>  2 0.17831398E+03</rscale>
<asrwt>0</asrwt>
<pdfrwt beam="1">  1        2 0.17218846E-01 0.17831398E+03</pdfrwt>
<pdfrwt beam="2">  1       -2 0.44944435E-01 0.17831398E+03</pdfrwt>
<totfact> 0.15466645E+03</totfact>
</mgrwt>
</event>
<event>
 4    1  0.7354369E-001  0.2121546E+03  0.7546771E-02  0.1139871E+00
          1   -1    0    0  502    0  0.00000000000E+00  0.00000000000E+00  0.10389647176E+04  0.10389647176E+04  0.00000000000E+00 0.  1.
         -1   -1    0    0    0  501 -0.00000000000E+00 -0.00000000000E+00 -0.44701730186E+02  0.44701730186E+02  0.00000000000E+00 0. -1.
          6    1    1    2  502    0  0.30367728646E+02 -0.11898888426E+03  0.59233931721E+03  0.62918631599E+03  0.17300000000E+03 0.  1.
         -6    1    1    2    0  501 -0.30367728646E+02  0.11898888426E+03  0.40192367018E+03  0.45448013177E+03  0.17300000000E+03 0. -1.
<mgrwt>
<rscale>  2 0.21215455E+03</rscale>
<asrwt>0</asrwt>
<pdfrwt beam="1">  1        1 0.15984071E+00 0.21215455E+03</pdfrwt>
<pdfrwt beam="2">  1       -1 0.68771900E-02 0.21215455E+03</pdfrwt>
<totfact> 0.16225841E+03</totfact>
</mgrwt>
</event>
<event>
 4    1  0.7354369E-001  0.2063527E+03  0.7546771E-02  0.1144487E+00
          2   -1    0    0  502    0  0.00000000000E+00  0.00000000000E+00  0.57348728431E+03  0.57348728431E+03  0.00000000000E+00 0. -1.
         -2   -1    0    0    0  501 -0.00000000000E+00 -0.00000000000E+00 -0.96288633533E+02  0.96288633533E+02  0.00000000000E+00 0.  1.
          6    1    1    2  502    0 -0.11155721007E+03  0.14402184292E+02  0.39881473999E+03  0.44903744929E+03  0.17300000000E+03 0. -1.
         -6    1    1    2    0  501  0.11155721007E+03 -0.14402184292E+02  0.78383910791E+02  0.22073846856E+03  0.17300000000E+03 0.  1.
<mgrwt>
<rscale>  2 0.20635269E+03</rscale>
<asrwt>0</asrwt>
<pdfrwt beam="1">  1        2 0.88228811E-01 0.20635269E+03</pdfrwt>
<pdfrwt beam="2">  1       -2 0.14813636E-01 0.20635269E+03</pdfrwt>
<totfact> 0.18485263E+03</totfact>
</mgrwt>
</event>
<event>
 4    1  0.7354369E-001  0.1775812E+03  0.7546771E-02  0.1170165E+00
          2   -1    0    0  502    0  0.00000000000E+00  0.00000000000E+00  0.31225523567E+04  0.31225523567E+04  0.00000000000E+00 0. -1.
         -2   -1    0    0    0  501 -0.00000000000E+00 -0.00000000000E+00 -0.10126527539E+02  0.10126527539E+02  0.00000000000E+00 0.  1.
          6    1    1    2  502    0  0.37016343392E+02  0.15357988692E+02  0.16376781875E+04  0.16472780346E+04  0.17300000000E+03 0.  1.
         -6    1    1    2    0  501 -0.37016343392E+02 -0.15357988692E+02  0.14747476416E+04  0.14854008496E+04  0.17300000000E+03 0.  1.
<mgrwt>
<rscale>  2 0.17758119E+03</rscale>
<asrwt>0</asrwt>
<pdfrwt beam="1">  1        2 0.48039190E+00 0.17758119E+03</pdfrwt>
<pdfrwt beam="2">  1       -2 0.15579298E-02 0.17758119E+03</pdfrwt>
<totfact> 0.19929635E+03</totfact>
</mgrwt>
</event>
<event>
 4    1  0.7354369E-001  0.2028874E+03  0.7546771E-02  0.1147326E+00
          2   -1    0    0  502    0  0.00000000000E+00  0.00000000000E+00  0.11688184959E+03  0.11688184959E+03  0.00000000000E+00 0. -1.
         -2   -1    0    0    0  501 -0.00000000000E+00 -0.00000000000E+00 -0.36180040501E+03  0.36180040501E+03  0.00000000000E+00 0.  1.
          6    1    1    2  502    0  0.97458782701E+02 -0.41666286075E+02 -0.83428282714E+02  0.21937085512E+03  0.17300000000E+03 0. -1.
         -6    1    1    2    0  501 -0.97458782701E+02  0.41666286075E+02 -0.16149027270E+03  0.25931139948E+03  0.17300000000E+03 0. -1.
<mgrwt>
<rscale>  2 0.20288739E+03</rscale>
<asrwt>0</asrwt>
<pdfrwt beam="1">  1        2 0.17981823E-01 0.20288739E+03</pdfrwt>
<pdfrwt beam="2">  1       -2 0.55661601E-01 0.20288739E+03</pdfrwt>
<totfact> 0.96463336E+02</totfact>
</mgrwt>
</event>
<event>
 4    1  0.7354369E-001  0.1785974E+03  0.7546771E-02  0.1169167E+00
          1   -1    0    0  502    0  0.00000000000E+00  0.00000000000E+00  0.76980951862E+02  0.76980951862E+02  0.00000000000E+00 0. -1.
         -1   -1    0    0    0  501 -0.00000000000E+00 -0.00000000000E+00 -0.44001167134E+03  0.44001167134E+03  0.00000000000E+00 0.  1.
          6    1    1    2  502    0  0.34153219187E+02 -0.28312565674E+02 -0.11908925712E+03  0.21466088353E+03  0.17300000000E+03 0. -1.
         -6    1    1    2    0  501 -0.34153219187E+02  0.28312565674E+02 -0.24394146236E+03  0.30233173968E+03  0.17300000000E+03 0. -1.
<mgrwt>
<rscale>  2 0.17859743E+03</rscale>
<asrwt>0</asrwt>
<pdfrwt beam="1">  1        1 0.11843223E-01 0.17859743E+03</pdfrwt>
<pdfrwt beam="2">  1       -1 0.67694105E-01 0.17859743E+03</pdfrwt>
<totfact> 0.11597567E+03</totfact>
</mgrwt>
</event>
<event>
 4    1  0.7354369E-001  0.1760508E+03  0.7546771E-02  0.1171681E+00
          1   -1    0    0  502    0  0.00000000000E+00  0.00000000000E+00  0.64790290899E+03  0.64790290899E+03  0.00000000000E+00 0. -1.
         -1   -1    0    0    0  501 -0.00000000000E+00 -0.00000000000E+00 -0.86234529891E+02  0.86234529891E+02  0.00000000000E+00 0.  1.
          6    1    1    2  502    0  0.32564230008E+02 -0.21068623606E+01  0.35895590855E+02  0.17967292892E+03  0.17300000000E+03 0.  1.
         -6    1    1    2    0  501 -0.32564230008E+02  0.21068623606E+01  0.52577278824E+03  0.55446450995E+03  0.17300000000E+03 0. -1.
<mgrwt>
<rscale>  2 0.17605075E+03</rscale>
<asrwt>0</asrwt>
<pdfrwt beam="1">  1        1 0.99677368E-01 0.17605075E+03</pdfrwt>
<pdfrwt beam="2">  1       -1 0.13266851E-01 0.17605075E+03</pdfrwt>
<totfact> 0.12307430E+03</totfact>
</mgrwt>
</event>
<event>
 4    1  0.7354369E-001  0.1831299E+03  0.7546771E-02  0.1164808E+00
          1   -1    0    0  502    0  0.00000000000E+00  0.00000000000E+00  0.71458430348E+03  0.71458430348E+03  0.00000000000E+00 0. -1.
         -1   -1    0    0    0  501 -0.00000000000E+00 -0.00000000000E+00 -0.53362848493E+02  0.53362848493E+02  0.00000000000E+00 0.  1.
          6    1    1    2  502    0 -0.23118436713E+02  0.55435680660E+02  0.19731081803E+03  0.26919906337E+03  0.17300000000E+03 0.  1.
         -6    1    1    2    0  501  0.23118436713E+02 -0.55435680660E+02  0.46391063696E+03  0.49874808861E+03  0.17300000000E+03 0. -1.
<mgrwt>
<rscale>  2 0.18312995E+03</rscale>
<asrwt>0</asrwt>
<pdfrwt beam="1">  1        1 0.10993604E+00 0.18312995E+03</pdfrwt>
<pdfrwt beam="2">  1       -1 0.82096695E-02 0.18312995E+03</pdfrwt>
<totfact> 0.22429811E+03</totfact>
</mgrwt>
</event>
<event>
 4    1  0.7354369E-001  0.1772550E+03  0.7546771E-02  0.1170486E+00
          1   -1    0    0  502    0  0.00000000000E+00  0.00000000000E+00  0.16683748011E+03  0.16683748011E+03  0.00000000000E+00 0. -1.
         -1   -1    0    0    0  501 -0.00000000000E+00 -0.00000000000E+00 -0.28734149666E+03  0.28734149666E+03  0.00000000000E+00 0.  1.
          6    1    1    2  502    0 -0.33660895010E+01 -0.38458034255E+02  0.73055867612E+02  0.19171987573E+03  0.17300000000E+03 0. -1.
         -6    1    1    2    0  501  0.33660895010E+01  0.38458034255E+02 -0.19355988416E+03  0.26245910103E+03  0.17300000000E+03 0.  1.
<mgrwt>
<rscale>  2 0.17725504E+03</rscale>
<asrwt>0</asrwt>
<pdfrwt beam="1">  1        1 0.25667305E-01 0.17725504E+03</pdfrwt>
<pdfrwt beam="2">  1       -1 0.44206384E-01 0.17725504E+03</pdfrwt>
<totfact> 0.94904516E+02</totfact>
</mgrwt>
</event>
<event>
 4    1  0.7354369E-001  0.1916299E+03  0.7546771E-02  0.1156999E+00
          1   -1    0    0  502    0  0.00000000000E+00  0.00000000000E+00  0.32476792181E+03  0.32476792181E+03  0.00000000000E+00 0.  1.
         -1   -1    0    0    0  501 -0.00000000000E+00 -0.00000000000E+00 -0.12807437852E+03  0.12807437852E+03  0.00000000000E+00 0. -1.
          6    1    1    2  502    0 -0.49226097424E+02  0.66104455713E+02  0.17584158564E+03  0.26008127763E+03  0.17300000000E+03 0.  1.
         -6    1    1    2    0  501  0.49226097424E+02 -0.66104455713E+02  0.20851957646E+02  0.19276102269E+03  0.17300000000E+03 0. -1.
<mgrwt>
<rscale>  2 0.19162987E+03</rscale>
<asrwt>0</asrwt>
<pdfrwt beam="1">  1        1 0.49964295E-01 0.19162987E+03</pdfrwt>
<pdfrwt beam="2">  1       -1 0.19703751E-01 0.19162987E+03</pdfrwt>
<totfact> 0.16232652E+03</totfact>
</mgrwt>
</event>
<event>
 4    1  0.7354369E-001  0.2527939E+03  0.7546771E-02  0.1111552E+00
          2   -1    0    0  502    0  0.00000000000E+00  0.00000000000E+00  0.38041134413E+03  0.38041134413E+03  0.00000000000E+00 0. -1.
         -2   -1    0    0    0  501 -0.00000000000E+00 -0.00000000000E+00 -0.20325706048E+03  0.20325706048E+03  0.00000000000E+00 0.  1.
          6    1    1    2  502    0  0.76558788183E+02 -0.16767379439E+03  0.21014168979E+03  0.32873131759E+03  0.17300000000E+03 0. -1.
         -6    1    1    2    0  501 -0.76558788183E+02  0.16767379439E+03 -0.32987406134E+02  0.25493708702E+03  0.17300000000E+03 0.  1.
<mgrwt>
<rscale>  2 0.25279389E+03</rscale>
<asrwt>0</asrwt>
<pdfrwt beam="1">  1        2 0.58524822E-01 0.25279389E+03</pdfrwt>
<pdfrwt beam="2">  1       -2 0.31270317E-01 0.25279389E+03</pdfrwt>
<totfact> 0.80114450E+02</totfact>
</mgrwt>
</event>
<event>
 4    1  0.7354369E-001  0.2456038E+03  0.7546771E-02  0.1116115E+00
          2   -1    0    0  502    0  0.00000000000E+00  0.00000000000E+00  0.68995769906E+03  0.68995769906E+03  0.00000000000E+00 0.  1.
         -2   -1    0    0    0  501 -0.00000000000E+00 -0.00000000000E+00 -0.89431416496E+02  0.89431416496E+02  0.00000000000E+00 0. -1.
          6    1    1    2  502    0 -0.11135344646E+03  0.13413667758E+03  0.35859759438E+03  0.43464177549E+03  0.17300000000E+03 0.  1.
         -6    1    1    2    0  501  0.11135344646E+03 -0.13413667758E+03  0.24192868818E+03  0.34474734006E+03  0.17300000000E+03 0. -1.
<mgrwt>
<rscale>  2 0.24560382E+03</rscale>
<asrwt>0</asrwt>
<pdfrwt beam="1">  1        2 0.10614733E+00 0.24560382E+03</pdfrwt>
<pdfrwt beam="2">  1       -2 0.13758680E-01 0.24560382E+03</pdfrwt>
<totfact> 0.16839535E+03</totfact>
</mgrwt>
</event>
<event>
 4    1  0.7354369E-001  0.2458442E+03  0.7546771E-02  0.1115960E+00
          2   -1    0    0  502    0  0.00000000000E+00  0.00000000000E+00  0.81402951433E+03  0.81402951433E+03  0.00000000000E+00 0.  1.
         -2   -1    0    0    0  501 -0.00000000000E+00 -0.00000000000E+00 -0.13436649720E+03  0.13436649720E+03  0.00000000000E+00 0. -1.
          6    1    1    2  502    0 -0.17347969128E+03  0.20376162102E+02  0.65702280761E+03  0.70151148315E+03  0.17300000000E+03 0.  1.
         -6    1    1    2    0  501  0.17347969128E+03 -0.20376162102E+02  0.22640209521E+02  0.24688452839E+03  0.17300000000E+03 0. -1.
<mgrwt>
<rscale>  2 0.24584424E+03</rscale>
<asrwt>0</asrwt>
<pdfrwt beam="1">  1        2 0.12523531E+00 0.24584424E+03</pdfrwt>
<pdfrwt beam="2">  1       -2 0.20671769E-01 0.24584424E+03</pdfrwt>
<totfact> 0.69203931E+02</totfact>
</mgrwt>
</event>
<event>
 4    1  0.7354369E-001  0.1768327E+03  0.7546771E-02  0.1170904E+00
          1   -1    0    0  502    0  0.00000000000E+00  0.00000000000E+00  0.40445813618E+04  0.40445813618E+04  0.00000000000E+00 0. -1.
         -1   -1    0    0    0  501 -0.00000000000E+00 -0.00000000000E+00 -0.77353311507E+01  0.77353311507E+01  0.00000000000E+00 0.  1.
          6    1    1    2  502    0 -0.10878019757E+00  0.36616777744E+02  0.19720676036E+04  0.19799799074E+04  0.17300000000E+03 0. -1.
         -6    1    1    2    0  501  0.10878019757E+00 -0.36616777744E+02  0.20647784270E+04  0.20723367856E+04  0.17300000000E+03 0. -1.
<mgrwt>
<rscale>  2 0.17683269E+03</rscale>
<asrwt>0</asrwt>
<pdfrwt beam="1">  1        1 0.62224160E+00 0.17683269E+03</pdfrwt>
<pdfrwt beam="2">  1       -1 0.11900542E-02 0.17683269E+03</pdfrwt>
<totfact> 0.17360617E+02</totfact>
</mgrwt>
</event>
<event>
 4    1  0.7354369E-001  0.2058743E+03  0.7546771E-02  0.1144875E+00
          2   -1    0    0  502    0  0.00000000000E+00  0.00000000000E+00  0.10280345046E+04  0.10280345046E+04  0.00000000000E+00 0.  1.
         -2   -1    0    0    0  501 -0.00000000000E+00 -0.00000000000E+00 -0.42165282488E+02  0.42165282488E+02  0.00000000000E+00 0. -1.
          6    1    1    2  502    0 -0.10680589786E+03 -0.32368824233E+02  0.41317284336E+03  0.46162326533E+03  0.17300000000E+03 0. -1.
         -6    1    1    2    0  501  0.10680589786E+03  0.32368824233E+02  0.57269637872E+03  0.60857652173E+03  0.17300000000E+03 0.  1.
<mgrwt>
<rscale>  2 0.20587433E+03</rscale>
<asrwt>0</asrwt>
<pdfrwt beam="1">  1        2 0.15815914E+00 0.20587433E+03</pdfrwt>
<pdfrwt beam="2">  1       -2 0.64869673E-02 0.20587433E+03</pdfrwt>
<totfact> 0.32888215E+03</totfact>
</mgrwt>
</event>
<event>
 4    1  0.7354369E-001  0.3313810E+03  0.7546771E-02  0.1070527E+00
         -1   -1    0    0    0  501 -0.00000000000E+00  0.00000000000E+00  0.91180511849E+02  0.91180511849E+02  0.00000000000E+00 0. -1.
          1   -1    0    0  502    0  0.00000000000E+00 -0.00000000000E+00 -0.14295128851E+04  0.14295128851E+04  0.00000000000E+00 0.  1.
          6    1    1    2  502    0  0.27971723211E+03 -0.40529162116E+02 -0.97092852820E+03  0.10259218049E+04  0.17300000000E+03 0.  1.
         -6    1    1    2    0  501 -0.27971723211E+03  0.40529162116E+02 -0.36740384501E+03  0.49477159200E+03  0.17300000000E+03 0. -1.
<mgrwt>
<rscale>  2 0.33138096E+03</rscale>
<asrwt>0</asrwt>
<pdfrwt beam="1">  1        1 0.21992505E+00 0.33138096E+03</pdfrwt>
<pdfrwt beam="2">  1       -1 0.14027771E-01 0.33138096E+03</pdfrwt>
<totfact> 0.28405212E+02</totfact>
</mgrwt>
</event>
<event>
 4    1  0.7354369E-001  0.1781472E+03  0.7546771E-02  0.1169608E+00
         -1   -1    0    0    0  501 -0.00000000000E+00  0.00000000000E+00  0.46945159044E+02  0.46945159044E+02  0.00000000000E+00 0. -1.
          1   -1    0    0  502    0  0.00000000000E+00 -0.00000000000E+00 -0.14442763437E+04  0.14442763437E+04  0.00000000000E+00 0.  1.
          6    1    1    2  502    0 -0.66515825266E+01 -0.41990397344E+02 -0.15486878338E+03  0.23605248799E+03  0.17300000000E+03 0. -1.
         -6    1    1    2    0  501  0.66515825266E+01  0.41990397344E+02 -0.12424624013E+04  0.12551690147E+04  0.17300000000E+03 0.  1.
<mgrwt>
<rscale>  2 0.17814723E+03</rscale>
<asrwt>0</asrwt>
<pdfrwt beam="1">  1        1 0.22219634E+00 0.17814723E+03</pdfrwt>
<pdfrwt beam="2">  1       -1 0.72223329E-02 0.17814723E+03</pdfrwt>
<totfact> 0.79301753E+02</totfact>
</mgrwt>
</event>
<event>
 4    1  0.7354369E-001  0.2393398E+03  0.7546771E-02  0.1120233E+00
         -2   -1    0    0    0  501 -0.00000000000E+00  0.00000000000E+00  0.23467112280E+02  0.23467112280E+02  0.00000000000E+00 0. -1.
          2   -1    0    0  502    0  0.00000000000E+00 -0.00000000000E+00 -0.33793417182E+04  0.33793417182E+04  0.00000000000E+00 0.  1.
          6    1    1    2  502    0  0.11590452391E+03  0.11798599503E+03 -0.78139923838E+03  0.81723211111E+03  0.17300000000E+03 0.  1.
         -6    1    1    2    0  501 -0.11590452391E+03 -0.11798599503E+03 -0.25744753675E+04  0.25855767194E+04  0.17300000000E+03 0.  1.
<mgrwt>
<rscale>  2 0.23933983E+03</rscale>
<asrwt>0</asrwt>
<pdfrwt beam="1">  1        2 0.51989874E+00 0.23933983E+03</pdfrwt>
<pdfrwt beam="2">  1       -2 0.36103249E-02 0.23933983E+03</pdfrwt>
<totfact> 0.39375477E+02</totfact>
</mgrwt>
</event>
<event>
 4    1  0.7354369E-001  0.1765510E+03  0.7546771E-02  0.1171183E+00
          2   -1    0    0  502    0  0.00000000000E+00  0.00000000000E+00  0.17539445717E+04  0.17539445717E+04  0.00000000000E+00 0.  1.
         -2   -1    0    0    0  501 -0.00000000000E+00 -0.00000000000E+00 -0.22403776193E+02  0.22403776193E+02  0.00000000000E+00 0. -1.
          6    1    1    2  502    0  0.35069444134E+02  0.33762529320E+01  0.46190773215E+03  0.49449875431E+03  0.17300000000E+03 0. -1.
         -6    1    1    2    0  501 -0.35069444134E+02 -0.33762529320E+01  0.12696330634E+04  0.12818495936E+04  0.17300000000E+03 0.  1.
<mgrwt>
<rscale>  2 0.17655103E+03</rscale>
<asrwt>0</asrwt>
<pdfrwt beam="1">  1        2 0.26983752E+00 0.17655103E+03</pdfrwt>
<pdfrwt beam="2">  1       -2 0.34467362E-02 0.17655103E+03</pdfrwt>
<totfact> 0.34362448E+03</totfact>
</mgrwt>
</event>
<event>
 4    1  0.7354369E-001  0.1814319E+03  0.7546771E-02  0.1166424E+00
         -2   -1    0    0    0  501 -0.00000000000E+00  0.00000000000E+00  0.29586449470E+02  0.29586449470E+02  0.00000000000E+00 0.  1.
          2   -1    0    0  502    0  0.00000000000E+00 -0.00000000000E+00 -0.12987085072E+04  0.12987085072E+04  0.00000000000E+00 0. -1.
          6    1    1    2  502    0 -0.80157406166E+01 -0.54076540378E+02 -0.88598458782E+03  0.90437061770E+03  0.17300000000E+03 0.  1.
         -6    1    1    2    0  501  0.80157406166E+01  0.54076540378E+02 -0.38313746991E+03  0.42392433896E+03  0.17300000000E+03 0.  1.
<mgrwt>
<rscale>  2 0.18143187E+03</rscale>
<asrwt>0</asrwt>
<pdfrwt beam="1">  1        2 0.19980131E+00 0.18143187E+03</pdfrwt>
<pdfrwt beam="2">  1       -2 0.45517614E-02 0.18143187E+03</pdfrwt>
<totfact> 0.39424257E+03</totfact>
</mgrwt>
</event>
<event>
 4    1  0.7354369E-001  0.1871739E+03  0.7546771E-02  0.1161035E+00
         -2   -1    0    0    0  501 -0.00000000000E+00  0.00000000000E+00  0.11442675065E+03  0.11442675065E+03  0.00000000000E+00 0.  1.
          2   -1    0    0  502    0  0.00000000000E+00 -0.00000000000E+00 -0.39867594025E+03  0.39867594025E+03  0.00000000000E+00 0. -1.
          6    1    1    2  502    0 -0.57150734014E+02 -0.42882146957E+02 -0.26570457927E+03  0.32501232033E+03  0.17300000000E+03 0. -1.
         -6    1    1    2    0  501  0.57150734014E+02  0.42882146957E+02 -0.18544610331E+02  0.18809037056E+03  0.17300000000E+03 0.  1.
<mgrwt>
<rscale>  2 0.18717394E+03</rscale>
<asrwt>0</asrwt>
<pdfrwt beam="1">  1        2 0.61334760E-01 0.18717394E+03</pdfrwt>
<pdfrwt beam="2">  1       -2 0.17604115E-01 0.18717394E+03</pdfrwt>
<totfact> 0.20711198E+03</totfact>
</mgrwt>
</event>
<event>
 4    1  0.7354369E-001  0.2022988E+03  0.7546771E-02  0.1147814E+00
         -2   -1    0    0    0  501 -0.00000000000E+00  0.00000000000E+00  0.26638053304E+02  0.26638053304E+02  0.00000000000E+00 0.  1.
          2   -1    0    0  502    0  0.00000000000E+00 -0.00000000000E+00 -0.17231334706E+04  0.17231334706E+04  0.00000000000E+00 0. -1.
          6    1    1    2  502    0  0.28660638185E+02 -0.10086814205E+03 -0.11363093972E+04  0.11541767024E+04  0.17300000000E+03 0. -1.
         -6    1    1    2    0  501 -0.28660638185E+02  0.10086814205E+03 -0.56018602013E+03  0.59559482151E+03  0.17300000000E+03 0.  1.
<mgrwt>
<rscale>  2 0.20229882E+03</rscale>
<asrwt>0</asrwt>
<pdfrwt beam="1">  1        2 0.26509753E+00 0.20229882E+03</pdfrwt>
<pdfrwt beam="2">  1       -2 0.40981609E-02 0.20229882E+03</pdfrwt>
<totfact> 0.27533208E+03</totfact>
</mgrwt>
</event>
<event>
 4    1  0.7354369E-001  0.2931109E+03  0.7546771E-02  0.1088736E+00
          1   -1    0    0  502    0  0.00000000000E+00  0.00000000000E+00  0.79862114030E+03  0.79862114030E+03  0.00000000000E+00 0.  1.
         -1   -1    0    0    0  501 -0.00000000000E+00 -0.00000000000E+00 -0.10757932346E+03  0.10757932346E+03  0.00000000000E+00 0. -1.
          6    1    1    2  502    0 -0.87481562095E+02  0.21984529293E+03  0.34386648752E+03  0.45183861916E+03  0.17300000000E+03 0.  1.
         -6    1    1    2    0  501  0.87481562095E+02 -0.21984529293E+03  0.34717532933E+03  0.45436184459E+03  0.17300000000E+03 0. -1.
<mgrwt>
<rscale>  2 0.29311086E+03</rscale>
<asrwt>0</asrwt>
<pdfrwt beam="1">  1        1 0.12286479E+00 0.29311086E+03</pdfrwt>
<pdfrwt beam="2">  1       -1 0.16550666E-01 0.29311086E+03</pdfrwt>
<totfact> 0.63568478E+02</totfact>
</mgrwt>
</event>
<event>
 4    1  0.7354369E-001  0.2029332E+03  0.7546771E-02  0.1147288E+00
         -2   -1    0    0    0  501 -0.00000000000E+00  0.00000000000E+00  0.97990405676E+01  0.97990405676E+01  0.00000000000E+00 0. -1.
          2   -1    0    0  502    0  0.00000000000E+00 -0.00000000000E+00 -0.42191080032E+04  0.42191080032E+04  0.00000000000E+00 0.  1.
          6    1    1    2  502    0 -0.10277236094E+03 -0.26281359230E+02 -0.19725643446E+04  0.19829755322E+04  0.17300000000E+03 0. -1.
         -6    1    1    2    0  501  0.10277236094E+03  0.26281359230E+02 -0.22367446180E+04  0.22459315115E+04  0.17300000000E+03 0.  1.
<mgrwt>
<rscale>  2 0.20293316E+03</rscale>
<asrwt>0</asrwt>
<pdfrwt beam="1">  1        2 0.64909280E+00 0.20293316E+03</pdfrwt>
<pdfrwt beam="2">  1       -2 0.15075464E-02 0.20293316E+03</pdfrwt>
<totfact> 0.36003176E+02</totfact>
</mgrwt>
</event>
<event>
 4    1  0.7354369E-001  0.2702727E+03  0.7546771E-02  0.1101124E+00
          2   -1    0    0  502    0  0.00000000000E+00  0.00000000000E+00  0.14400621531E+04  0.14400621531E+04  0.00000000000E+00 0.  1.
         -2   -1    0    0    0  501 -0.00000000000E+00 -0.00000000000E+00 -0.67742122660E+02  0.67742122660E+02  0.00000000000E+00 0. -1.
          6    1    1    2  502    0  0.63459618917E+02  0.19771495698E+03  0.30830334706E+03  0.40999790396E+03  0.17300000000E+03 0. -1.
         -6    1    1    2    0  501 -0.63459618917E+02 -0.19771495698E+03  0.10640166834E+04  0.10978063718E+04  0.17300000000E+03 0.  1.
<mgrwt>
<rscale>  2 0.27027269E+03</rscale>
<asrwt>0</asrwt>
<pdfrwt beam="1">  1        2 0.22154800E+00 0.27027269E+03</pdfrwt>
<pdfrwt beam="2">  1       -2 0.10421866E-01 0.27027269E+03</pdfrwt>
<totfact> 0.91477088E+02</totfact>
</mgrwt>
</event>
<event>
 4    1  0.7354369E-001  0.2007722E+03  0.7546771E-02  0.1149089E+00
         -1   -1    0    0    0  501 -0.00000000000E+00  0.00000000000E+00  0.41934136166E+03  0.41934136166E+03  0.00000000000E+00 0.  1.
          1   -1    0    0  502    0  0.00000000000E+00 -0.00000000000E+00 -0.12430215763E+03  0.12430215763E+03  0.00000000000E+00 0. -1.
          6    1    1    2  502    0  0.10165236036E+03  0.68753278653E+01  0.27693568632E+03  0.34205678894E+03  0.17300000000E+03 0.  1.
         -6    1    1    2    0  501 -0.10165236036E+03 -0.68753278653E+01  0.18103517716E+02  0.20158673035E+03  0.17300000000E+03 0. -1.
<mgrwt>
<rscale>  2 0.20077219E+03</rscale>
<asrwt>0</asrwt>
<pdfrwt beam="1">  1        1 0.19123409E-01 0.20077219E+03</pdfrwt>
<pdfrwt beam="2">  1       -1 0.64514055E-01 0.20077219E+03</pdfrwt>
<totfact> 0.68279287E+02</totfact>
</mgrwt>
</event>
<event>
 4    1  0.7354369E-001  0.1843999E+03  0.7546771E-02  0.1163611E+00
         -3   -1    0    0    0  501 -0.00000000000E+00  0.00000000000E+00  0.10122524207E+03  0.10122524207E+03  0.00000000000E+00 0. -1.
          3   -1    0    0  502    0  0.00000000000E+00 -0.00000000000E+00 -0.54003677349E+03  0.54003677349E+03  0.00000000000E+00 0.  1.
          6    1    1    2  502    0 -0.55183514797E+02 -0.32079548102E+02 -0.41652817196E+03  0.45552062055E+03  0.17300000000E+03 0.  1.
         -6    1    1    2    0  501  0.55183514797E+02  0.32079548102E+02 -0.22283359459E+02  0.18574139501E+03  0.17300000000E+03 0. -1.
<mgrwt>
<rscale>  2 0.18439989E+03</rscale>
<asrwt>0</asrwt>
<pdfrwt beam="1">  1        3 0.83082581E-01 0.18439989E+03</pdfrwt>
<pdfrwt beam="2">  1       -3 0.15573114E-01 0.18439989E+03</pdfrwt>
<totfact> 0.11585539E+02</totfact>
</mgrwt>
</event>
<event>
 4    1  0.7354369E-001  0.1983041E+03  0.7546771E-02  0.1151178E+00
          1   -1    0    0  502    0  0.00000000000E+00  0.00000000000E+00  0.21991974510E+03  0.21991974510E+03  0.00000000000E+00 0.  1.
         -1   -1    0    0    0  501 -0.00000000000E+00 -0.00000000000E+00 -0.23674060689E+03  0.23674060689E+03  0.00000000000E+00 0. -1.
          6    1    1    2  502    0  0.23363856711E+02 -0.94072613279E+02 -0.12135606218E+03  0.23249047335E+03  0.17300000000E+03 0. -1.
         -6    1    1    2    0  501 -0.23363856711E+02  0.94072613279E+02  0.10453520039E+03  0.22416987864E+03  0.17300000000E+03 0.  1.
<mgrwt>
<rscale>  2 0.19830413E+03</rscale>
<asrwt>0</asrwt>
<pdfrwt beam="1">  1        1 0.33833807E-01 0.19830413E+03</pdfrwt>
<pdfrwt beam="2">  1       -1 0.36421632E-01 0.19830413E+03</pdfrwt>
<totfact> 0.94596979E+02</totfact>
</mgrwt>
</event>
<event>
 4    1  0.7354369E-001  0.2173065E+03  0.7546771E-02  0.1135907E+00
         -3   -1    0    0    0  501 -0.00000000000E+00  0.00000000000E+00  0.25442324895E+03  0.25442324895E+03  0.00000000000E+00 0. -1.
          3   -1    0    0  502    0  0.00000000000E+00 -0.00000000000E+00 -0.19036587736E+03  0.19036587736E+03  0.00000000000E+00 0.  1.
          6    1    1    2  502    0  0.12488693321E+03  0.41186922145E+02 -0.31430943446E+01  0.21732921498E+03  0.17300000000E+03 0. -1.
         -6    1    1    2    0  501 -0.12488693321E+03 -0.41186922145E+02  0.67200465926E+02  0.22745991133E+03  0.17300000000E+03 0.  1.
<mgrwt>
<rscale>  2 0.21730649E+03</rscale>
<asrwt>0</asrwt>
<pdfrwt beam="1">  1        3 0.29287058E-01 0.21730649E+03</pdfrwt>
<pdfrwt beam="2">  1       -3 0.39142038E-01 0.21730649E+03</pdfrwt>
<totfact> 0.17906503E+02</totfact>
</mgrwt>
</event>
<event>
 4    1  0.7354369E-001  0.1765893E+03  0.7546771E-02  0.1171145E+00
         -4   -1    0    0    0  501 -0.00000000000E+00  0.00000000000E+00  0.18371697538E+03  0.18371697538E+03  0.00000000000E+00 0. -1.
          4   -1    0    0  502    0  0.00000000000E+00 -0.00000000000E+00 -0.17351996760E+03  0.17351996760E+03  0.00000000000E+00 0.  1.
          6    1    1    2  502    0  0.17763766346E+02  0.30646803984E+02 -0.21271027275E+02  0.17786577690E+03  0.17300000000E+03 0. -1.
         -6    1    1    2    0  501 -0.17763766346E+02 -0.30646803984E+02  0.31468035056E+02  0.17937116608E+03  0.17300000000E+03 0.  1.
<mgrwt>
<rscale>  2 0.17658929E+03</rscale>
<asrwt>0</asrwt>
<pdfrwt beam="1">  1        4 0.26695380E-01 0.17658929E+03</pdfrwt>
<pdfrwt beam="2">  1       -4 0.28264150E-01 0.17658929E+03</pdfrwt>
<totfact> 0.27506334E+02</totfact>
</mgrwt>
</event>
<event>
 4    1  0.7354369E-001  0.1842404E+03  0.7546771E-02  0.1163761E+00
         -2   -1    0    0    0  501 -0.00000000000E+00  0.00000000000E+00  0.24976661894E+02  0.24976661894E+02  0.00000000000E+00 0. -1.
          2   -1    0    0  502    0  0.00000000000E+00 -0.00000000000E+00 -0.13728164731E+04  0.13728164731E+04  0.00000000000E+00 0.  1.
          6    1    1    2  502    0 -0.23994049905E+02  0.58649817824E+02 -0.74390871598E+03  0.76638416821E+03  0.17300000000E+03 0.  1.
         -6    1    1    2    0  501  0.23994049905E+02 -0.58649817824E+02 -0.60393109522E+03  0.63140896678E+03  0.17300000000E+03 0.  1.
<mgrwt>
<rscale>  2 0.18424037E+03</rscale>
<asrwt>0</asrwt>
<pdfrwt beam="1">  1        2 0.21120253E+00 0.18424037E+03</pdfrwt>
<pdfrwt beam="2">  1       -2 0.38425634E-02 0.18424037E+03</pdfrwt>
<totfact> 0.46350408E+03</totfact>
</mgrwt>
</event>
<event>
 4    1  0.7354369E-001  0.3072671E+03  0.7546771E-02  0.1081663E+00
          2   -1    0    0  502    0  0.00000000000E+00  0.00000000000E+00  0.41900892902E+04  0.41900892902E+04  0.00000000000E+00 0.  1.
         -2   -1    0    0    0  501 -0.00000000000E+00 -0.00000000000E+00 -0.28337930340E+02  0.28337930340E+02  0.00000000000E+00 0. -1.
          6    1    1    2  502    0  0.18129107333E+03  0.17781335446E+03  0.30355494737E+04  0.30510610695E+04  0.17300000000E+03 0.  1.
         -6    1    1    2    0  501 -0.18129107333E+03 -0.17781335446E+03  0.11262018861E+04  0.11673661510E+04  0.17300000000E+03 0. -1.
<mgrwt>
<rscale>  2 0.30726705E+03</rscale>
<asrwt>0</asrwt>
<pdfrwt beam="1">  1        2 0.64462863E+00 0.30726705E+03</pdfrwt>
<pdfrwt beam="2">  1       -2 0.43596849E-02 0.30726705E+03</pdfrwt>
<totfact> 0.75158723E+01</totfact>
</mgrwt>
</event>
<event>
 4    1  0.7354369E-001  0.2171727E+03  0.7546771E-02  0.1136009E+00
         -1   -1    0    0    0  501 -0.00000000000E+00  0.00000000000E+00  0.14725148313E+03  0.14725148313E+03  0.00000000000E+00 0.  1.
          1   -1    0    0  502    0  0.00000000000E+00 -0.00000000000E+00 -0.45659343582E+03  0.45659343582E+03  0.00000000000E+00 0. -1.
          6    1    1    2  502    0  0.62231907552E+02  0.11559480585E+03 -0.31962975121E+03  0.38642870922E+03  0.17300000000E+03 0. -1.
         -6    1    1    2    0  501 -0.62231907552E+02 -0.11559480585E+03  0.10287798516E+02  0.21741620973E+03  0.17300000000E+03 0.  1.
<mgrwt>
<rscale>  2 0.21717267E+03</rscale>
<asrwt>0</asrwt>
<pdfrwt beam="1">  1        1 0.70245144E-01 0.21717267E+03</pdfrwt>
<pdfrwt beam="2">  1       -1 0.22654074E-01 0.21717267E+03</pdfrwt>
<totfact> 0.83856406E+02</totfact>
</mgrwt>
</event>
<event>
 4    1  0.7354369E-001  0.1867659E+03  0.7546771E-02  0.1161411E+00
         -1   -1    0    0    0  501 -0.00000000000E+00  0.00000000000E+00  0.40931931173E+02  0.40931931173E+02  0.00000000000E+00 0. -1.
          1   -1    0    0  502    0  0.00000000000E+00 -0.00000000000E+00 -0.86464532037E+03  0.86464532037E+03  0.00000000000E+00 0.  1.
          6    1    1    2  502    0 -0.33542925321E+02 -0.61865747446E+02 -0.35749727118E+03  0.40334327495E+03  0.17300000000E+03 0. -1.
         -6    1    1    2    0  501  0.33542925321E+02  0.61865747446E+02 -0.46621611801E+03  0.50223397659E+03  0.17300000000E+03 0.  1.
<mgrwt>
<rscale>  2 0.18676589E+03</rscale>
<asrwt>0</asrwt>
<pdfrwt beam="1">  1        1 0.13302235E+00 0.18676589E+03</pdfrwt>
<pdfrwt beam="2">  1       -1 0.62972205E-02 0.18676589E+03</pdfrwt>
<totfact> 0.25111869E+03</totfact>
</mgrwt>
</event>
<event>
 4    1  0.7354369E-001  0.1794310E+03  0.7546771E-02  0.1168355E+00
         -2   -1    0    0    0  501 -0.00000000000E+00  0.00000000000E+00  0.48370741674E+02  0.48370741674E+02  0.00000000000E+00 0.  1.
          2   -1    0    0  502    0  0.00000000000E+00 -0.00000000000E+00 -0.88999744245E+03  0.88999744245E+03  0.00000000000E+00 0. -1.
          6    1    1    2  502    0  0.47394238761E+02  0.45022169648E+01 -0.18522192059E+03  0.25788106502E+03  0.17300000000E+03 0.  1.
         -6    1    1    2    0  501 -0.47394238761E+02 -0.45022169648E+01 -0.65640478018E+03  0.68048711911E+03  0.17300000000E+03 0. -1.
<mgrwt>
<rscale>  2 0.17943100E+03</rscale>
<asrwt>0</asrwt>
<pdfrwt beam="1">  1        2 0.13692267E+00 0.17943100E+03</pdfrwt>
<pdfrwt beam="2">  1       -2 0.74416532E-02 0.17943100E+03</pdfrwt>
<totfact> 0.32305318E+03</totfact>
</mgrwt>
</event>
<event>
 4    1  0.7354369E-001  0.2734817E+03  0.7546771E-02  0.1099303E+00
         -2   -1    0    0    0  501 -0.00000000000E+00  0.00000000000E+00  0.16525582426E+03  0.16525582426E+03  0.00000000000E+00 0. -1.
          2   -1    0    0  502    0  0.00000000000E+00 -0.00000000000E+00 -0.63787247591E+03  0.63787247591E+03  0.00000000000E+00 0.  1.
          6    1    1    2  502    0 -0.51444899711E+02 -0.20546687955E+03 -0.45273544562E+03  0.52892494744E+03  0.17300000000E+03 0.  1.
         -6    1    1    2    0  501  0.51444899711E+02  0.20546687955E+03 -0.19881206031E+02  0.27420335273E+03  0.17300000000E+03 0. -1.
<mgrwt>
<rscale>  2 0.27348166E+03</rscale>
<asrwt>0</asrwt>
<pdfrwt beam="1">  1        2 0.98134227E-01 0.27348166E+03</pdfrwt>
<pdfrwt beam="2">  1       -2 0.25423973E-01 0.27348166E+03</pdfrwt>
<totfact> 0.65008152E+02</totfact>
</mgrwt>
</event>
<event>
 4    1  0.7354369E-001  0.2200283E+03  0.7546771E-02  0.1133862E+00
          1   -1    0    0  502    0  0.00000000000E+00  0.00000000000E+00  0.42737490285E+03  0.42737490285E+03  0.00000000000E+00 0. -1.
         -1   -1    0    0    0  501 -0.00000000000E+00 -0.00000000000E+00 -0.11422995795E+03  0.11422995795E+03  0.00000000000E+00 0.  1.
          6    1    1    2  502    0 -0.11485619182E+03  0.72742664412E+02  0.18128570353E+03  0.28509111934E+03  0.17300000000E+03 0. -1.
         -6    1    1    2    0  501  0.11485619182E+03 -0.72742664412E+02  0.13185924137E+03  0.25651374146E+03  0.17300000000E+03 0.  1.
<mgrwt>
<rscale>  2 0.22002827E+03</rscale>
<asrwt>0</asrwt>
<pdfrwt beam="1">  1        1 0.65749984E-01 0.22002827E+03</pdfrwt>
<pdfrwt beam="2">  1       -1 0.17573840E-01 0.22002827E+03</pdfrwt>
<totfact> 0.13803013E+03</totfact>
</mgrwt>
</event>
<event>
 4    1  0.7354369E-001  0.2107229E+03  0.7546771E-02  0.1140995E+00
         -2   -1    0    0    0  501 -0.00000000000E+00  0.00000000000E+00  0.25601530614E+02  0.25601530614E+02  0.00000000000E+00 0.  1.
          2   -1    0    0  502    0  0.00000000000E+00 -0.00000000000E+00 -0.18222578522E+04  0.18222578522E+04  0.00000000000E+00 0. -1.
          6    1    1    2  502    0 -0.79269378130E+02  0.90506935375E+02 -0.11011630745E+04  0.11211441728E+04  0.17300000000E+03 0.  1.
         -6    1    1    2    0  501  0.79269378130E+02 -0.90506935375E+02 -0.69549324711E+03  0.72671520999E+03  0.17300000000E+03 0. -1.
<mgrwt>
<rscale>  2 0.21072290E+03</rscale>
<asrwt>0</asrwt>
<pdfrwt beam="1">  1        2 0.28034738E+00 0.21072290E+03</pdfrwt>
<pdfrwt beam="2">  1       -2 0.39386967E-02 0.21072290E+03</pdfrwt>
<totfact> 0.25948367E+03</totfact>
</mgrwt>
</event>
<event>
 4    1  0.7354369E-001  0.1753213E+03  0.7546771E-02  0.1172410E+00
         -2   -1    0    0    0  501 -0.00000000000E+00  0.00000000000E+00  0.16749890702E+02  0.16749890702E+02  0.00000000000E+00 0.  1.
          2   -1    0    0  502    0  0.00000000000E+00 -0.00000000000E+00 -0.20512380013E+04  0.20512380013E+04  0.00000000000E+00 0. -1.
          6    1    1    2  502    0  0.27269618045E+02  0.80568410585E+01 -0.68159431829E+03  0.70378147140E+03  0.17300000000E+03 0.  1.
         -6    1    1    2    0  501 -0.27269618045E+02 -0.80568410585E+01 -0.13528937923E+04  0.13642064206E+04  0.17300000000E+03 0. -1.
<mgrwt>
<rscale>  2 0.17532126E+03</rscale>
<asrwt>0</asrwt>
<pdfrwt beam="1">  1        2 0.31557488E+00 0.17532126E+03</pdfrwt>
<pdfrwt beam="2">  1       -2 0.25769078E-02 0.17532126E+03</pdfrwt>
<totfact> 0.37087538E+03</totfact>
</mgrwt>
</event>
<event>
 4    1  0.7354369E-001  0.2813801E+03  0.7546771E-02  0.1094938E+00
         -1   -1    0    0    0  501 -0.00000000000E+00  0.00000000000E+00  0.90734552525E+02  0.90734552525E+02  0.00000000000E+00 0.  1.
          1   -1    0    0  502    0  0.00000000000E+00 -0.00000000000E+00 -0.90944726682E+03  0.90944726682E+03  0.00000000000E+00 0. -1.
          6    1    1    2  502    0  0.11572058437E+03 -0.18935284047E+03 -0.30869169451E+03  0.41769045249E+03  0.17300000000E+03 0.  1.
         -6    1    1    2    0  501 -0.11572058437E+03  0.18935284047E+03 -0.51002101978E+03  0.58249136685E+03  0.17300000000E+03 0. -1.
<mgrwt>
<rscale>  2 0.28138008E+03</rscale>
<asrwt>0</asrwt>
<pdfrwt beam="1">  1        1 0.13991497E+00 0.28138008E+03</pdfrwt>
<pdfrwt beam="2">  1       -1 0.13959162E-01 0.28138008E+03</pdfrwt>
<totfact> 0.67867956E+02</totfact>
</mgrwt>
</event>
<event>
 4    1  0.7354369E-001  0.2649245E+03  0.7546771E-02  0.1104220E+00
         -2   -1    0    0    0  501 -0.00000000000E+00  0.00000000000E+00  0.76842459088E+02  0.76842459088E+02  0.00000000000E+00 0. -1.
          2   -1    0    0  502    0  0.00000000000E+00 -0.00000000000E+00 -0.10780138310E+04  0.10780138310E+04  0.00000000000E+00 0.  1.
          6    1    1    2  502    0 -0.55336718393E+02  0.19285697356E+03 -0.27491800600E+03  0.38179166397E+03  0.17300000000E+03 0. -1.
         -6    1    1    2    0  501  0.55336718393E+02 -0.19285697356E+03 -0.72625336593E+03  0.77306462613E+03  0.17300000000E+03 0.  1.
<mgrwt>
<rscale>  2 0.26492445E+03</rscale>
<asrwt>0</asrwt>
<pdfrwt beam="1">  1        2 0.16584828E+00 0.26492445E+03</pdfrwt>
<pdfrwt beam="2">  1       -2 0.11821917E-01 0.26492445E+03</pdfrwt>
<totfact> 0.11941401E+03</totfact>
</mgrwt>
</event>
<event>
 4    1  0.7354369E-001  0.2781014E+03  0.7546771E-02  0.1096730E+00
         -1   -1    0    0    0  501 -0.00000000000E+00  0.00000000000E+00  0.16261797027E+03  0.16261797027E+03  0.00000000000E+00 0.  1.
          1   -1    0    0  502    0  0.00000000000E+00 -0.00000000000E+00 -0.51555374073E+03  0.51555374073E+03  0.00000000000E+00 0. -1.
          6    1    1    2  502    0 -0.20692743468E+03  0.67767623485E+02 -0.82067324369E+02  0.28995768613E+03  0.17300000000E+03 0.  1.
         -6    1    1    2    0  501  0.20692743468E+03 -0.67767623485E+02 -0.27086844609E+03  0.38821402487E+03  0.17300000000E+03 0. -1.
<mgrwt>
<rscale>  2 0.27810145E+03</rscale>
<asrwt>0</asrwt>
<pdfrwt beam="1">  1        1 0.79315961E-01 0.27810145E+03</pdfrwt>
<pdfrwt beam="2">  1       -1 0.25018149E-01 0.27810145E+03</pdfrwt>
<totfact> 0.60515652E+02</totfact>
</mgrwt>
</event>
<event>
 4    1  0.7354369E-001  0.1941620E+03  0.7546771E-02  0.1154760E+00
          1   -1    0    0  502    0  0.00000000000E+00  0.00000000000E+00  0.14088909909E+03  0.14088909909E+03  0.00000000000E+00 0.  1.
         -1   -1    0    0    0  501 -0.00000000000E+00 -0.00000000000E+00 -0.30049903913E+03  0.30049903913E+03  0.00000000000E+00 0. -1.
          6    1    1    2  502    0  0.77842087760E+02 -0.41357936127E+02 -0.15285219553E+03  0.24710860606E+03  0.17300000000E+03 0. -1.
         -6    1    1    2    0  501 -0.77842087760E+02  0.41357936127E+02 -0.67577445046E+01  0.19427953217E+03  0.17300000000E+03 0.  1.
<mgrwt>
<rscale>  2 0.19416197E+03</rscale>
<asrwt>0</asrwt>
<pdfrwt beam="1">  1        1 0.21675246E-01 0.19416197E+03</pdfrwt>
<pdfrwt beam="2">  1       -1 0.46230621E-01 0.19416197E+03</pdfrwt>
<totfact> 0.10867788E+03</totfact>
</mgrwt>
</event>
<event>
 4    1  0.7354369E-001  0.1810150E+03  0.7546771E-02  0.1166824E+00
          1   -1    0    0  502    0  0.00000000000E+00  0.00000000000E+00  0.19352007953E+04  0.19352007953E+04  0.00000000000E+00 0.  1.
         -1   -1    0    0    0  501 -0.00000000000E+00 -0.00000000000E+00 -0.17622352641E+02  0.17622352641E+02  0.00000000000E+00 0. -1.
          6    1    1    2  502    0  0.49592269211E+02  0.19443515952E+02  0.76550444936E+03  0.78661522072E+03  0.17300000000E+03 0. -1.
         -6    1    1    2    0  501 -0.49592269211E+02 -0.19443515952E+02  0.11520739933E+04  0.11662079272E+04  0.17300000000E+03 0.  1.
<mgrwt>
<rscale>  2 0.18101504E+03</rscale>
<asrwt>0</asrwt>
<pdfrwt beam="1">  1        1 0.29772303E+00 0.18101504E+03</pdfrwt>
<pdfrwt beam="2">  1       -1 0.27111327E-02 0.18101504E+03</pdfrwt>
<totfact> 0.16350750E+03</totfact>
</mgrwt>
</event>
<event>
 4    1  0.7354369E-001  0.4546609E+03  0.7546771E-02  0.1026341E+00
         -1   -1    0    0    0  501 -0.00000000000E+00  0.00000000000E+00  0.29881070930E+03  0.29881070930E+03  0.00000000000E+00 0.  1.
          1   -1    0    0  502    0  0.00000000000E+00 -0.00000000000E+00 -0.69870934178E+03  0.69870934178E+03  0.00000000000E+00 0. -1.
          6    1    1    2  502    0 -0.18357437911E+03 -0.37826968890E+03 -0.24955590459E+03  0.51864695094E+03  0.17300000000E+03 0.  1.
         -6    1    1    2    0  501  0.18357437911E+03  0.37826968890E+03 -0.15034272789E+03  0.47887310014E+03  0.17300000000E+03 0. -1.
<mgrwt>
<rscale>  2 0.45466087E+03</rscale>
<asrwt>0</asrwt>
<pdfrwt beam="1">  1        1 0.10749374E+00 0.45466087E+03</pdfrwt>
<pdfrwt beam="2">  1       -1 0.45970878E-01 0.45466087E+03</pdfrwt>
<totfact> 0.13391004E+02</totfact>
</mgrwt>
</event>
<event>
 4    1  0.7354369E-001  0.1842700E+03  0.7546771E-02  0.1163733E+00
         -2   -1    0    0    0  501 -0.00000000000E+00  0.00000000000E+00  0.18867672929E+03  0.18867672929E+03  0.00000000000E+00 0. -1.
          2   -1    0    0  502    0  0.00000000000E+00 -0.00000000000E+00 -0.21025359019E+03  0.21025359019E+03  0.00000000000E+00 0.  1.
          6    1    1    2  502    0 -0.48923850531E+02  0.40408804069E+02 -0.86493855565E+02  0.20355982326E+03  0.17300000000E+03 0.  1.
         -6    1    1    2    0  501  0.48923850531E+02 -0.40408804069E+02  0.64916994661E+02  0.19537049622E+03  0.17300000000E+03 0. -1.
<mgrwt>
<rscale>  2 0.18426995E+03</rscale>
<asrwt>0</asrwt>
<pdfrwt beam="1">  1        2 0.32346706E-01 0.18426995E+03</pdfrwt>
<pdfrwt beam="2">  1       -2 0.29027189E-01 0.18426995E+03</pdfrwt>
<totfact> 0.17299756E+03</totfact>
</mgrwt>
</event>
<event>
 4    1  0.7354369E-001  0.2937555E+03  0.7546771E-02  0.1088405E+00
          1   -1    0    0  502    0  0.00000000000E+00  0.00000000000E+00  0.12751015567E+04  0.12751015567E+04  0.00000000000E+00 0. -1.
         -1   -1    0    0    0  501 -0.00000000000E+00 -0.00000000000E+00 -0.71764798872E+02  0.71764798872E+02  0.00000000000E+00 0.  1.
          6    1    1    2  502    0  0.85296370645E+02  0.22155770118E+03  0.76243599721E+03  0.81706850119E+03  0.17300000000E+03 0. -1.
         -6    1    1    2    0  501 -0.85296370645E+02 -0.22155770118E+03  0.44090076064E+03  0.52979785440E+03  0.17300000000E+03 0.  1.
<mgrwt>
<rscale>  2 0.29375549E+03</rscale>
<asrwt>0</asrwt>
<pdfrwt beam="1">  1        1 0.19616945E+00 0.29375549E+03</pdfrwt>
<pdfrwt beam="2">  1       -1 0.11040739E-01 0.29375549E+03</pdfrwt>
<totfact> 0.53053762E+02</totfact>
</mgrwt>
</event>
<event>
 4    1  0.7354369E-001  0.2093498E+03  0.7546771E-02  0.1142082E+00
         -2   -1    0    0    0  501 -0.00000000000E+00  0.00000000000E+00  0.25587604557E+02  0.25587604557E+02  0.00000000000E+00 0. -1.
          2   -1    0    0  502    0  0.00000000000E+00 -0.00000000000E+00 -0.17401043602E+04  0.17401043602E+04  0.00000000000E+00 0.  1.
          6    1    1    2  502    0 -0.64130394686E+02  0.98922271802E+02 -0.74673824676E+03  0.77552906623E+03  0.17300000000E+03 0. -1.
         -6    1    1    2    0  501  0.64130394686E+02 -0.98922271802E+02 -0.96777850889E+03  0.99016289854E+03  0.17300000000E+03 0. -1.
<mgrwt>
<rscale>  2 0.20934976E+03</rscale>
<asrwt>0</asrwt>
<pdfrwt beam="1">  1        2 0.26770839E+00 0.20934976E+03</pdfrwt>
<pdfrwt beam="2">  1       -2 0.39365541E-02 0.20934976E+03</pdfrwt>
<totfact> 0.28657483E+03</totfact>
</mgrwt>
</event>
<event>
 4    1  0.7354369E-001  0.2054510E+03  0.7546771E-02  0.1145220E+00
          1   -1    0    0  502    0  0.00000000000E+00  0.00000000000E+00  0.91707118998E+03  0.91707118998E+03  0.00000000000E+00 0. -1.
         -1   -1    0    0    0  501 -0.00000000000E+00 -0.00000000000E+00 -0.65301994362E+02  0.65301994362E+02  0.00000000000E+00 0.  1.
          6    1    1    2  502    0  0.10383147787E+03 -0.38731360893E+02  0.15902692603E+03  0.25980696164E+03  0.17300000000E+03 0.  1.
         -6    1    1    2    0  501 -0.10383147787E+03  0.38731360893E+02  0.69274226959E+03  0.72256622270E+03  0.17300000000E+03 0. -1.
<mgrwt>
<rscale>  2 0.20545095E+03</rscale>
<asrwt>0</asrwt>
<pdfrwt beam="1">  1        1 0.14108787E+00 0.20545095E+03</pdfrwt>
<pdfrwt beam="2">  1       -1 0.10046461E-01 0.20545095E+03</pdfrwt>
<totfact> 0.11228796E+03</totfact>
</mgrwt>
</event>
<event>
 4    1  0.7354369E-001  0.2646834E+03  0.7546771E-02  0.1104362E+00
         -1   -1    0    0    0  501 -0.00000000000E+00  0.00000000000E+00  0.34144191384E+03  0.34144191384E+03  0.00000000000E+00 0.  1.
          1   -1    0    0  502    0  0.00000000000E+00 -0.00000000000E+00 -0.21879426003E+03  0.21879426003E+03  0.00000000000E+00 0. -1.
          6    1    1    2  502    0 -0.97104681016E+01  0.20008495755E+03 -0.85491736379E+01  0.26482139604E+03  0.17300000000E+03 0. -1.
         -6    1    1    2    0  501  0.97104681016E+01 -0.20008495755E+03  0.13119682746E+03  0.29541477783E+03  0.17300000000E+03 0. -1.
<mgrwt>
<rscale>  2 0.26468336E+03</rscale>
<asrwt>0</asrwt>
<pdfrwt beam="1">  1        1 0.33660655E-01 0.26468336E+03</pdfrwt>
<pdfrwt beam="2">  1       -1 0.52529525E-01 0.26468336E+03</pdfrwt>
<totfact> 0.49209897E+02</totfact>
</mgrwt>
</event>
<event>
 4    1  0.7354369E-001  0.2269387E+03  0.7546771E-02  0.1128813E+00
          2   -1    0    0  502    0  0.00000000000E+00  0.00000000000E+00  0.78170850598E+03  0.78170850598E+03  0.00000000000E+00 0.  1.
         -2   -1    0    0    0  501 -0.00000000000E+00 -0.00000000000E+00 -0.12458926397E+03  0.12458926397E+03  0.00000000000E+00 0. -1.
          6    1    1    2  502    0  0.11404893774E+03 -0.92547325825E+02  0.17500127757E+02  0.22761243856E+03  0.17300000000E+03 0. -1.
         -6    1    1    2    0  501 -0.11404893774E+03  0.92547325825E+02  0.63961911426E+03  0.67868533139E+03  0.17300000000E+03 0. -1.
<mgrwt>
<rscale>  2 0.22693869E+03</rscale>
<asrwt>0</asrwt>
<pdfrwt beam="1">  1        2 0.12026284E+00 0.22693869E+03</pdfrwt>
<pdfrwt beam="2">  1       -2 0.19167580E-01 0.22693869E+03</pdfrwt>
<totfact> 0.82976623E+02</totfact>
</mgrwt>
</event>
<event>
 4    1  0.7354369E-001  0.1903841E+03  0.7546771E-02  0.1158115E+00
          1   -1    0    0  502    0  0.00000000000E+00  0.00000000000E+00  0.15345358313E+03  0.15345358313E+03  0.00000000000E+00 0. -1.
         -1   -1    0    0    0  501 -0.00000000000E+00 -0.00000000000E+00 -0.23621386801E+03  0.23621386801E+03  0.00000000000E+00 0.  1.
          6    1    1    2  502    0 -0.54501177012E+02 -0.57851034472E+02 -0.42731558997E+02  0.19512074882E+03  0.17300000000E+03 0. -1.
         -6    1    1    2    0  501  0.54501177012E+02  0.57851034472E+02 -0.40028725882E+02  0.19454670231E+03  0.17300000000E+03 0.  1.
<mgrwt>
<rscale>  2 0.19038414E+03</rscale>
<asrwt>0</asrwt>
<pdfrwt beam="1">  1        1 0.23608244E-01 0.19038414E+03</pdfrwt>
<pdfrwt beam="2">  1       -1 0.36340595E-01 0.19038414E+03</pdfrwt>
<totfact> 0.14938163E+03</totfact>
</mgrwt>
</event>
<event>
 4    1  0.7354369E-001  0.1905216E+03  0.7546771E-02  0.1157992E+00
         -2   -1    0    0    0  501 -0.00000000000E+00  0.00000000000E+00  0.24987250485E+02  0.24987250485E+02  0.00000000000E+00 0.  1.
          2   -1    0    0  502    0  0.00000000000E+00 -0.00000000000E+00 -0.18541851460E+04  0.18541851460E+04  0.00000000000E+00 0. -1.
          6    1    1    2  502    0  0.76039077652E+02 -0.24239040815E+02 -0.13518247476E+04  0.13651844640E+04  0.17300000000E+03 0. -1.
         -6    1    1    2    0  501 -0.76039077652E+02  0.24239040815E+02 -0.47737314798E+03  0.51398793258E+03  0.17300000000E+03 0.  1.
<mgrwt>
<rscale>  2 0.19052158E+03</rscale>
<asrwt>0</asrwt>
<pdfrwt beam="1">  1        2 0.28525937E+00 0.19052158E+03</pdfrwt>
<pdfrwt beam="2">  1       -2 0.38441908E-02 0.19052158E+03</pdfrwt>
<totfact> 0.25914504E+03</totfact>
</mgrwt>
</event>
<event>
 4    1  0.7354369E-001  0.2677029E+03  0.7546771E-02  0.1102602E+00
          1   -1    0    0  502    0  0.00000000000E+00  0.00000000000E+00  0.14003589994E+04  0.14003589994E+04  0.00000000000E+00 0. -1.
         -1   -1    0    0    0  501 -0.00000000000E+00 -0.00000000000E+00 -0.62324331690E+02  0.62324331690E+02  0.00000000000E+00 0.  1.
          6    1    1    2  502    0 -0.15996997307E+03  0.12706472812E+03  0.97832845442E+03  0.10142935483E+04  0.17300000000E+03 0. -1.
         -6    1    1    2    0  501  0.15996997307E+03 -0.12706472812E+03  0.35970621327E+03  0.44838978276E+03  0.17300000000E+03 0.  1.
<mgrwt>
<rscale>  2 0.26770289E+03</rscale>
<asrwt>0</asrwt>
<pdfrwt beam="1">  1        1 0.21543982E+00 0.26770289E+03</pdfrwt>
<pdfrwt beam="2">  1       -1 0.95883598E-02 0.26770289E+03</pdfrwt>
<totfact> 0.54436392E+02</totfact>
</mgrwt>
</event>
<event>
 4    1  0.7354369E-001  0.1857347E+03  0.7546771E-02  0.1162366E+00
          2   -1    0    0  502    0  0.00000000000E+00  0.00000000000E+00  0.75279387646E+03  0.75279387646E+03  0.00000000000E+00 0. -1.
         -2   -1    0    0    0  501 -0.00000000000E+00 -0.00000000000E+00 -0.46563289427E+02  0.46563289427E+02  0.00000000000E+00 0.  1.
          6    1    1    2  502    0  0.15470319335E+02 -0.65795455959E+02  0.30281501395E+03  0.35523837839E+03  0.17300000000E+03 0.  1.
         -6    1    1    2    0  501 -0.15470319335E+02  0.65795455959E+02  0.40341557309E+03  0.44411878750E+03  0.17300000000E+03 0. -1.
<mgrwt>
<rscale>  2 0.18573468E+03</rscale>
<asrwt>0</asrwt>
<pdfrwt beam="1">  1        2 0.11581443E+00 0.18573468E+03</pdfrwt>
<pdfrwt beam="2">  1       -2 0.71635835E-02 0.18573468E+03</pdfrwt>
<totfact> 0.42437940E+03</totfact>
</mgrwt>
</event>
<event>
 4    1  0.7354369E-001  0.2097849E+03  0.7546771E-02  0.1141736E+00
          2   -1    0    0  502    0  0.00000000000E+00  0.00000000000E+00  0.34762314234E+04  0.34762314234E+04  0.00000000000E+00 0. -1.
         -2   -1    0    0    0  501 -0.00000000000E+00 -0.00000000000E+00 -0.26954431590E+02  0.26954431590E+02  0.00000000000E+00 0.  1.
          6    1    1    2  502    0 -0.11837634229E+03  0.82310823707E+01  0.44908454325E+03  0.49566786876E+03  0.17300000000E+03 0.  1.
         -6    1    1    2    0  501  0.11837634229E+03 -0.82310823707E+01  0.30001924486E+04  0.30075179863E+04  0.17300000000E+03 0. -1.
<mgrwt>
<rscale>  2 0.20978491E+03</rscale>
<asrwt>0</asrwt>
<pdfrwt beam="1">  1        2 0.53480448E+00 0.20978491E+03</pdfrwt>
<pdfrwt beam="2">  1       -2 0.41468384E-02 0.20978491E+03</pdfrwt>
<totfact> 0.27981097E+02</totfact>
</mgrwt>
</event>
<event>
 4    1  0.7354369E-001  0.1882532E+03  0.7546771E-02  0.1160046E+00
          2   -1    0    0  502    0  0.00000000000E+00  0.00000000000E+00  0.38428285586E+03  0.38428285586E+03  0.00000000000E+00 0. -1.
         -2   -1    0    0    0  501 -0.00000000000E+00 -0.00000000000E+00 -0.11718000761E+03  0.11718000761E+03  0.00000000000E+00 0.  1.
          6    1    1    2  502    0  0.20743277343E+02 -0.71274098690E+02  0.17836820445E+02  0.18909635867E+03  0.17300000000E+03 0.  1.
         -6    1    1    2    0  501 -0.20743277343E+02  0.71274098690E+02  0.24926602780E+03  0.31236650479E+03  0.17300000000E+03 0. -1.
<mgrwt>
<rscale>  2 0.18825324E+03</rscale>
<asrwt>0</asrwt>
<pdfrwt beam="1">  1        2 0.59120439E-01 0.18825324E+03</pdfrwt>
<pdfrwt beam="2">  1       -2 0.18027694E-01 0.18825324E+03</pdfrwt>
<totfact> 0.20709648E+03</totfact>
</mgrwt>
</event>
<event>
 4    1  0.7354369E-001  0.2978578E+03  0.7546771E-02  0.1086316E+00
         -2   -1    0    0    0  501 -0.00000000000E+00  0.00000000000E+00  0.23027581165E+03  0.23027581165E+03  0.00000000000E+00 0. -1.
          2   -1    0    0  502    0  0.00000000000E+00 -0.00000000000E+00 -0.58651443442E+03  0.58651443442E+03  0.00000000000E+00 0.  1.
          6    1    1    2  502    0  0.11638229338E+03  0.21270978605E+03  0.61101400961E+02  0.30406031062E+03  0.17300000000E+03 0. -1.
         -6    1    1    2    0  501 -0.11638229338E+03 -0.21270978605E+03 -0.41734002374E+03  0.51272993545E+03  0.17300000000E+03 0.  1.
<mgrwt>
<rscale>  2 0.29785784E+03</rscale>
<asrwt>0</asrwt>
<pdfrwt beam="1">  1        2 0.90232989E-01 0.29785784E+03</pdfrwt>
<pdfrwt beam="2">  1       -2 0.35427048E-01 0.29785784E+03</pdfrwt>
<totfact> 0.39107084E+02</totfact>
</mgrwt>
</event>
<event>
 4    1  0.7354369E-001  0.1779826E+03  0.7546771E-02  0.1169770E+00
          1   -1    0    0  502    0  0.00000000000E+00  0.00000000000E+00  0.57866249674E+02  0.57866249674E+02  0.00000000000E+00 0.  1.
         -1   -1    0    0    0  501 -0.00000000000E+00 -0.00000000000E+00 -0.67051521694E+03  0.67051521694E+03  0.00000000000E+00 0. -1.
          6    1    1    2  502    0 -0.30946463824E+02 -0.28126923702E+02 -0.46236051127E+03  0.49543420334E+03  0.17300000000E+03 0. -1.
         -6    1    1    2    0  501  0.30946463824E+02  0.28126923702E+02 -0.15028845600E+03  0.23294726327E+03  0.17300000000E+03 0.  1.
<mgrwt>
<rscale>  2 0.17798260E+03</rscale>
<asrwt>0</asrwt>
<pdfrwt beam="1">  1        1 0.89025006E-02 0.17798260E+03</pdfrwt>
<pdfrwt beam="2">  1       -1 0.10315618E+00 0.17798260E+03</pdfrwt>
<totfact> 0.70296592E+02</totfact>
</mgrwt>
</event>
<event>
 4    1  0.7354369E-001  0.2091351E+03  0.7546771E-02  0.1142253E+00
          2   -1    0    0  502    0  0.00000000000E+00  0.00000000000E+00  0.10294937175E+04  0.10294937175E+04  0.00000000000E+00 0. -1.
         -2   -1    0    0    0  501 -0.00000000000E+00 -0.00000000000E+00 -0.48374819131E+02  0.48374819131E+02  0.00000000000E+00 0.  1.
          6    1    1    2  502    0 -0.45027506106E+02  0.10854032719E+03  0.67861978803E+03  0.71011428350E+03  0.17300000000E+03 0. -1.
         -6    1    1    2    0  501  0.45027506106E+02 -0.10854032719E+03  0.30249911032E+03  0.36775425311E+03  0.17300000000E+03 0.  1.
<mgrwt>
<rscale>  2 0.20913507E+03</rscale>
<asrwt>0</asrwt>
<pdfrwt beam="1">  1        2 0.15838363E+00 0.20913507E+03</pdfrwt>
<pdfrwt beam="2">  1       -2 0.74422807E-02 0.20913507E+03</pdfrwt>
<totfact> 0.26549881E+03</totfact>
</mgrwt>
</event>
<event>
 4    1  0.7354369E-001  0.2631488E+03  0.7546771E-02  0.1105266E+00
         -1   -1    0    0    0  501 -0.00000000000E+00  0.00000000000E+00  0.21161167478E+03  0.21161167478E+03  0.00000000000E+00 0. -1.
          1   -1    0    0  502    0  0.00000000000E+00 -0.00000000000E+00 -0.42933804159E+03  0.42933804159E+03  0.00000000000E+00 0.  1.
          6    1    1    2  502    0 -0.25304846828E+02 -0.19666715997E+03  0.47418464962E+02  0.26738701895E+03  0.17300000000E+03 0. -1.
         -6    1    1    2    0  501  0.25304846828E+02  0.19666715997E+03 -0.26514483178E+03  0.37356269742E+03  0.17300000000E+03 0.  1.
<mgrwt>
<rscale>  2 0.26314883E+03</rscale>
<asrwt>0</asrwt>
<pdfrwt beam="1">  1        1 0.66052006E-01 0.26314883E+03</pdfrwt>
<pdfrwt beam="2">  1       -1 0.32555643E-01 0.26314883E+03</pdfrwt>
<totfact> 0.49309641E+02</totfact>
</mgrwt>
</event>
<event>
 4    1  0.7354369E-001  0.1772134E+03  0.7546771E-02  0.1170527E+00
         -2   -1    0    0    0  501 -0.00000000000E+00  0.00000000000E+00  0.41968147646E+02  0.41968147646E+02  0.00000000000E+00 0. -1.
          2   -1    0    0  502    0  0.00000000000E+00 -0.00000000000E+00 -0.20361418020E+04  0.20361418020E+04  0.00000000000E+00 0.  1.
          6    1    1    2  502    0 -0.36676542789E+02 -0.11420551693E+02 -0.17073223254E+03  0.24607741265E+03  0.17300000000E+03 0. -1.
         -6    1    1    2    0  501  0.36676542789E+02  0.11420551693E+02 -0.18234414218E+04  0.18320325370E+04  0.17300000000E+03 0.  1.
<mgrwt>
<rscale>  2 0.17721342E+03</rscale>
<asrwt>0</asrwt>
<pdfrwt beam="1">  1        2 0.31325252E+00 0.17721342E+03</pdfrwt>
<pdfrwt beam="2">  1       -2 0.64566395E-02 0.17721342E+03</pdfrwt>
<totfact> 0.95311164E+02</totfact>
</mgrwt>
</event>
<event>
 4    1  0.7354369E-001  0.2091294E+03  0.7546771E-02  0.1142257E+00
         -2   -1    0    0    0  501 -0.00000000000E+00  0.00000000000E+00  0.62427830054E+02  0.62427830054E+02  0.00000000000E+00 0. -1.
          2   -1    0    0  502    0  0.00000000000E+00 -0.00000000000E+00 -0.79049285066E+03  0.79049285066E+03  0.00000000000E+00 0.  1.
          6    1    1    2  502    0  0.40647961263E+02 -0.11024453051E+03 -0.50786693424E+03  0.54923941606E+03  0.17300000000E+03 0.  1.
         -6    1    1    2    0  501 -0.40647961263E+02  0.11024453051E+03 -0.22019808636E+03  0.30368126465E+03  0.17300000000E+03 0. -1.
<mgrwt>
<rscale>  2 0.20912942E+03</rscale>
<asrwt>0</asrwt>
<pdfrwt beam="1">  1        2 0.12161429E+00 0.20912942E+03</pdfrwt>
<pdfrwt beam="2">  1       -2 0.96042808E-02 0.20912942E+03</pdfrwt>
<totfact> 0.25334984E+03</totfact>
</mgrwt>
</event>
<event>
 4    1  0.7354369E-001  0.2315516E+03  0.7546771E-02  0.1125552E+00
         -1   -1    0    0    0  501 -0.00000000000E+00  0.00000000000E+00  0.73942901912E+03  0.73942901912E+03  0.00000000000E+00 0. -1.
          1   -1    0    0  502    0  0.00000000000E+00 -0.00000000000E+00 -0.86675053478E+02  0.86675053478E+02  0.00000000000E+00 0.  1.
          6    1    1    2  502    0 -0.14085730227E+03  0.62019133280E+02  0.15939730519E+03  0.28111146081E+03  0.17300000000E+03 0. -1.
         -6    1    1    2    0  501  0.14085730227E+03 -0.62019133280E+02  0.49335666045E+03  0.54499261179E+03  0.17300000000E+03 0. -1.
<mgrwt>
<rscale>  2 0.23155162E+03</rscale>
<asrwt>0</asrwt>
<pdfrwt beam="1">  1        1 0.13334624E-01 0.23155162E+03</pdfrwt>
<pdfrwt beam="2">  1       -1 0.11375831E+00 0.23155162E+03</pdfrwt>
<totfact> 0.32816098E+02</totfact>
</mgrwt>
</event>
<event>
 4    1  0.7354369E-001  0.2292953E+03  0.7546771E-02  0.1127137E+00
          2   -1    0    0  502    0  0.00000000000E+00  0.00000000000E+00  0.17680626811E+04  0.17680626811E+04  0.00000000000E+00 0.  1.
         -2   -1    0    0    0  501 -0.00000000000E+00 -0.00000000000E+00 -0.30601675446E+02  0.30601675446E+02  0.00000000000E+00 0. -1.
          6    1    1    2  502    0  0.12506972258E+03  0.83695151949E+02  0.10199314353E+04  0.10453881799E+04  0.17300000000E+03 0.  1.
         -6    1    1    2    0  501 -0.12506972258E+03 -0.83695151949E+02  0.71752957032E+03  0.75327617661E+03  0.17300000000E+03 0. -1.
<mgrwt>
<rscale>  2 0.22929525E+03</rscale>
<asrwt>0</asrwt>
<pdfrwt beam="1">  1        2 0.27200956E+00 0.22929525E+03</pdfrwt>
<pdfrwt beam="2">  1       -2 0.47079514E-02 0.22929525E+03</pdfrwt>
<totfact> 0.21145694E+03</totfact>
</mgrwt>
</event>
<event>
 4    1  0.7354369E-001  0.2204534E+03  0.7546771E-02  0.1133546E+00
         -2   -1    0    0    0  501 -0.00000000000E+00  0.00000000000E+00  0.29878836488E+02  0.29878836488E+02  0.00000000000E+00 0.  1.
          2   -1    0    0  502    0  0.00000000000E+00 -0.00000000000E+00 -0.17819513861E+04  0.17819513861E+04  0.00000000000E+00 0. -1.
          6    1    1    2  502    0  0.27945738836E+02 -0.13375245360E+03 -0.11435553685E+04  0.11646109067E+04  0.17300000000E+03 0. -1.
         -6    1    1    2    0  501 -0.27945738836E+02  0.13375245360E+03 -0.60851718116E+03  0.64721931594E+03  0.17300000000E+03 0.  1.
<mgrwt>
<rscale>  2 0.22045336E+03</rscale>
<asrwt>0</asrwt>
<pdfrwt beam="1">  1        2 0.27414639E+00 0.22045336E+03</pdfrwt>
<pdfrwt beam="2">  1       -2 0.45967436E-02 0.22045336E+03</pdfrwt>
<totfact> 0.21570293E+03</totfact>
</mgrwt>
</event>
<event>
 4    1  0.7354369E-001  0.2853895E+03  0.7546771E-02  0.1092781E+00
          1   -1    0    0  502    0  0.00000000000E+00  0.00000000000E+00  0.32583231345E+04  0.32583231345E+04  0.00000000000E+00 0.  1.
         -1   -1    0    0    0  501 -0.00000000000E+00 -0.00000000000E+00 -0.98504875269E+02  0.98504875269E+02  0.00000000000E+00 0. -1.
          6    1    1    2  502    0  0.38572655382E+02 -0.22367459559E+03  0.13000866061E+03  0.31360712091E+03  0.17300000000E+03 0. -1.
         -6    1    1    2    0  501 -0.38572655382E+02  0.22367459559E+03  0.30298095987E+04  0.30432208889E+04  0.17300000000E+03 0.  1.
<mgrwt>
<rscale>  2 0.28538951E+03</rscale>
<asrwt>0</asrwt>
<pdfrwt beam="1">  1        1 0.50128040E+00 0.28538951E+03</pdfrwt>
<pdfrwt beam="2">  1       -1 0.15154599E-01 0.28538951E+03</pdfrwt>
<totfact> 0.14955142E+01</totfact>
</mgrwt>
</event>
<event>
 4    1  0.7354369E-001  0.2515896E+03  0.7546771E-02  0.1112304E+00
         -2   -1    0    0    0  501 -0.00000000000E+00  0.00000000000E+00  0.19267049164E+03  0.19267049164E+03  0.00000000000E+00 0.  1.
          2   -1    0    0  502    0  0.00000000000E+00 -0.00000000000E+00 -0.45250762923E+03  0.45250762923E+03  0.00000000000E+00 0. -1.
          6    1    1    2  502    0  0.18252029642E+03  0.73929509153E+01  0.38936815027E+02  0.25458474010E+03  0.17300000000E+03 0.  1.
         -6    1    1    2    0  501 -0.18252029642E+03 -0.73929509153E+01 -0.29877395263E+03  0.39059338077E+03  0.17300000000E+03 0. -1.
<mgrwt>
<rscale>  2 0.25158958E+03</rscale>
<asrwt>0</asrwt>
<pdfrwt beam="1">  1        2 0.69616557E-01 0.25158958E+03</pdfrwt>
<pdfrwt beam="2">  1       -2 0.29641615E-01 0.25158958E+03</pdfrwt>
<totfact> 0.73034519E+02</totfact>
</mgrwt>
</event>
<event>
 4    1  0.7354369E-001  0.2186792E+03  0.7546771E-02  0.1134872E+00
         -1   -1    0    0    0  501 -0.00000000000E+00  0.00000000000E+00  0.64809845934E+03  0.64809845934E+03  0.00000000000E+00 0. -1.
          1   -1    0    0  502    0  0.00000000000E+00 -0.00000000000E+00 -0.96142497736E+02  0.96142497736E+02  0.00000000000E+00 0.  1.
          6    1    1    2  502    0  0.19865410987E+02 -0.13227599491E+03  0.45542161170E+03  0.50520235331E+03  0.17300000000E+03 0. -1.
         -6    1    1    2    0  501 -0.19865410987E+02  0.13227599491E+03  0.96534349907E+02  0.23903860377E+03  0.17300000000E+03 0.  1.
<mgrwt>
<rscale>  2 0.21867916E+03</rscale>
<asrwt>0</asrwt>
<pdfrwt beam="1">  1        1 0.14791154E-01 0.21867916E+03</pdfrwt>
<pdfrwt beam="2">  1       -1 0.99707453E-01 0.21867916E+03</pdfrwt>
<totfact> 0.38656037E+02</totfact>
</mgrwt>
</event>
<event>
 4    1  0.7354369E-001  0.1878549E+03  0.7546771E-02  0.1160410E+00
          2   -1    0    0  502    0  0.00000000000E+00  0.00000000000E+00  0.66444122608E+02  0.66444122608E+02  0.00000000000E+00 0.  1.
         -2   -1    0    0    0  501 -0.00000000000E+00 -0.00000000000E+00 -0.66225640043E+03  0.66225640043E+03  0.00000000000E+00 0. -1.
          6    1    1    2  502    0  0.73213105563E+02  0.54981009403E+00 -0.13577137712E+03  0.23178293286E+03  0.17300000000E+03 0.  1.
         -6    1    1    2    0  501 -0.73213105563E+02 -0.54981009403E+00 -0.46004090070E+03  0.49691759018E+03  0.17300000000E+03 0.  1.
<mgrwt>
<rscale>  2 0.18785489E+03</rscale>
<asrwt>0</asrwt>
<pdfrwt beam="1">  1        2 0.10222173E-01 0.18785489E+03</pdfrwt>
<pdfrwt beam="2">  1       -2 0.10188560E+00 0.18785489E+03</pdfrwt>
<totfact> 0.50845322E+02</totfact>
</mgrwt>
</event>
<event>
 4    1  0.7354369E-001  0.2972654E+03  0.7546771E-02  0.1086616E+00
          1   -1    0    0  502    0  0.00000000000E+00  0.00000000000E+00  0.20441136472E+04  0.20441136472E+04  0.00000000000E+00 0. -1.
         -1   -1    0    0    0  501 -0.00000000000E+00 -0.00000000000E+00 -0.44386847729E+02  0.44386847729E+02  0.00000000000E+00 0.  1.
          6    1    1    2  502    0 -0.97856888701E+02 -0.22104698213E+03  0.11684575608E+04  0.12056781538E+04  0.17300000000E+03 0. -1.
         -6    1    1    2    0  501  0.97856888701E+02  0.22104698213E+03  0.83126923867E+03  0.88282234121E+03  0.17300000000E+03 0.  1.
<mgrwt>
<rscale>  2 0.29726544E+03</rscale>
<asrwt>0</asrwt>
<pdfrwt beam="1">  1        1 0.31447895E+00 0.29726544E+03</pdfrwt>
<pdfrwt beam="2">  1       -1 0.68287474E-02 0.29726544E+03</pdfrwt>
<totfact> 0.34512328E+02</totfact>
</mgrwt>
</event>
<event>
 4    1  0.7354369E-001  0.2372399E+03  0.7546771E-02  0.1121645E+00
         -2   -1    0    0    0  501 -0.00000000000E+00  0.00000000000E+00  0.50101123177E+02  0.50101123177E+02  0.00000000000E+00 0. -1.
          2   -1    0    0  502    0  0.00000000000E+00 -0.00000000000E+00 -0.11263582856E+04  0.11263582856E+04  0.00000000000E+00 0.  1.
          6    1    1    2  502    0  0.12291783521E+03  0.10604239571E+03 -0.56835757533E+03  0.61588401289E+03  0.17300000000E+03 0.  1.
         -6    1    1    2    0  501 -0.12291783521E+03 -0.10604239571E+03 -0.50789958710E+03  0.56057539589E+03  0.17300000000E+03 0. -1.
<mgrwt>
<rscale>  2 0.23723993E+03</rscale>
<asrwt>0</asrwt>
<pdfrwt beam="1">  1        2 0.17328590E+00 0.23723993E+03</pdfrwt>
<pdfrwt beam="2">  1       -2 0.77078645E-02 0.23723993E+03</pdfrwt>
<totfact> 0.22067875E+03</totfact>
</mgrwt>
</event>
<event>
 4    1  0.7354369E-001  0.1774568E+03  0.7546771E-02  0.1170287E+00
         -2   -1    0    0    0  501 -0.00000000000E+00  0.00000000000E+00  0.64865284773E+02  0.64865284773E+02  0.00000000000E+00 0. -1.
          2   -1    0    0  502    0  0.00000000000E+00 -0.00000000000E+00 -0.75516536788E+03  0.75516536788E+03  0.00000000000E+00 0.  1.
          6    1    1    2  502    0 -0.30820610497E+02  0.24738541170E+02 -0.59017279853E+03  0.61627496913E+03  0.17300000000E+03 0.  1.
         -6    1    1    2    0  501  0.30820610497E+02 -0.24738541170E+02 -0.10012728457E+03  0.20375568352E+03  0.17300000000E+03 0. -1.
<mgrwt>
<rscale>  2 0.17745677E+03</rscale>
<asrwt>0</asrwt>
<pdfrwt beam="1">  1        2 0.11617929E+00 0.17745677E+03</pdfrwt>
<pdfrwt beam="2">  1       -2 0.99792745E-02 0.17745677E+03</pdfrwt>
<totfact> 0.25155991E+03</totfact>
</mgrwt>
</event>
<event>
 4    1  0.7354369E-001  0.2228778E+03  0.7546771E-02  0.1131756E+00
          1   -1    0    0  502    0  0.00000000000E+00  0.00000000000E+00  0.19904964044E+03  0.19904964044E+03  0.00000000000E+00 0. -1.
         -1   -1    0    0    0  501 -0.00000000000E+00 -0.00000000000E+00 -0.24965041968E+03  0.24965041968E+03  0.00000000000E+00 0.  1.
          6    1    1    2  502    0  0.13912662138E+03  0.19730925033E+02 -0.29605714596E+02  0.22483554994E+03  0.17300000000E+03 0. -1.
         -6    1    1    2    0  501 -0.13912662138E+03 -0.19730925033E+02 -0.20995064650E+02  0.22386451018E+03  0.17300000000E+03 0. -1.
<mgrwt>
<rscale>  2 0.22287783E+03</rscale>
<asrwt>0</asrwt>
<pdfrwt beam="1">  1        1 0.30623022E-01 0.22287783E+03</pdfrwt>
<pdfrwt beam="2">  1       -1 0.38407757E-01 0.22287783E+03</pdfrwt>
<totfact> 0.97836287E+02</totfact>
</mgrwt>
</event>
<event>
 4    1  0.7354369E-001  0.2512804E+03  0.7546771E-02  0.1112498E+00
         -1   -1    0    0    0  501 -0.00000000000E+00  0.00000000000E+00  0.15356250731E+03  0.15356250731E+03  0.00000000000E+00 0.  1.
          1   -1    0    0  502    0  0.00000000000E+00 -0.00000000000E+00 -0.57345436669E+03  0.57345436669E+03  0.00000000000E+00 0. -1.
          6    1    1    2  502    0  0.79285264611E+02 -0.16409346159E+03 -0.40331639862E+03  0.47519041943E+03  0.17300000000E+03 0. -1.
         -6    1    1    2    0  501 -0.79285264611E+02  0.16409346159E+03 -0.16575460764E+02  0.25182645457E+03  0.17300000000E+03 0.  1.
<mgrwt>
<rscale>  2 0.25128036E+03</rscale>
<asrwt>0</asrwt>
<pdfrwt beam="1">  1        1 0.88223749E-01 0.25128036E+03</pdfrwt>
<pdfrwt beam="2">  1       -1 0.23625001E-01 0.25128036E+03</pdfrwt>
<totfact> 0.57664748E+02</totfact>
</mgrwt>
</event>
<event>
 4    1  0.7354369E-001  0.1745021E+03  0.7546771E-02  0.1173233E+00
          3   -1    0    0  502    0  0.00000000000E+00  0.00000000000E+00  0.14290929458E+03  0.14290929458E+03  0.00000000000E+00 0.  1.
         -3   -1    0    0    0  501 -0.00000000000E+00 -0.00000000000E+00 -0.39019267791E+03  0.39019267791E+03  0.00000000000E+00 0. -1.
          6    1    1    2  502    0 -0.16418673905E+02 -0.15887386928E+02  0.55941911506E+02  0.18324977320E+03  0.17300000000E+03 0.  1.
         -6    1    1    2    0  501  0.16418673905E+02  0.15887386928E+02 -0.30322529483E+03  0.34985219928E+03  0.17300000000E+03 0. -1.
<mgrwt>
<rscale>  2 0.17450210E+03</rscale>
<asrwt>0</asrwt>
<pdfrwt beam="1">  1        3 0.21986046E-01 0.17450210E+03</pdfrwt>
<pdfrwt beam="2">  1       -3 0.60029641E-01 0.17450210E+03</pdfrwt>
<totfact> 0.12558685E+02</totfact>
</mgrwt>
</event>
<event>
 4    1  0.7354369E-001  0.1828274E+03  0.7546771E-02  0.1165094E+00
          1   -1    0    0  502    0  0.00000000000E+00  0.00000000000E+00  0.11424363084E+04  0.11424363084E+04  0.00000000000E+00 0.  1.
         -1   -1    0    0    0  501 -0.00000000000E+00 -0.00000000000E+00 -0.34800252686E+02  0.34800252686E+02  0.00000000000E+00 0. -1.
          6    1    1    2  502    0  0.59134132983E+02  0.13145582012E+00  0.31892513205E+03  0.36761270764E+03  0.17300000000E+03 0. -1.
         -6    1    1    2    0  501 -0.59134132983E+02 -0.13145582012E+00  0.78871092366E+03  0.80962385344E+03  0.17300000000E+03 0.  1.
<mgrwt>
<rscale>  2 0.18282741E+03</rscale>
<asrwt>0</asrwt>
<pdfrwt beam="1">  1        1 0.17575940E+00 0.18282741E+03</pdfrwt>
<pdfrwt beam="2">  1       -1 0.53538859E-02 0.18282741E+03</pdfrwt>
<totfact> 0.19915675E+03</totfact>
</mgrwt>
</event>
<event>
 4    1  0.7354369E-001  0.1923437E+03  0.7546771E-02  0.1156364E+00
         -1   -1    0    0    0  501 -0.00000000000E+00  0.00000000000E+00  0.91843255376E+02  0.91843255376E+02  0.00000000000E+00 0. -1.
          1   -1    0    0  502    0  0.00000000000E+00 -0.00000000000E+00 -0.49240686564E+03  0.49240686564E+03  0.00000000000E+00 0.  1.
          6    1    1    2  502    0 -0.83785162082E+02 -0.68649568342E+01 -0.32488658988E+03  0.37755446931E+03  0.17300000000E+03 0.  1.
         -6    1    1    2    0  501  0.83785162082E+02  0.68649568342E+01 -0.75677020385E+02  0.20669565170E+03  0.17300000000E+03 0. -1.
<mgrwt>
<rscale>  2 0.19234365E+03</rscale>
<asrwt>0</asrwt>
<pdfrwt beam="1">  1        1 0.75754904E-01 0.19234365E+03</pdfrwt>
<pdfrwt beam="2">  1       -1 0.14129731E-01 0.19234365E+03</pdfrwt>
<totfact> 0.16198352E+03</totfact>
</mgrwt>
</event>
<event>
 4    1  0.7354369E-001  0.3235166E+03  0.7546771E-02  0.1074042E+00
         -1   -1    0    0    0  501 -0.00000000000E+00  0.00000000000E+00  0.40903708077E+02  0.40903708077E+02  0.00000000000E+00 0.  1.
          1   -1    0    0  502    0  0.00000000000E+00 -0.00000000000E+00 -0.35554335762E+04  0.35554335762E+04  0.00000000000E+00 0. -1.
          6    1    1    2  502    0 -0.54631883258E+02 -0.26786070476E+03 -0.27093141381E+04  0.27285611774E+04  0.17300000000E+03 0.  1.
         -6    1    1    2    0  501  0.54631883258E+02  0.26786070476E+03 -0.80521573009E+03  0.86777610696E+03  0.17300000000E+03 0.  1.
<mgrwt>
<rscale>  2 0.32351661E+03</rscale>
<asrwt>0</asrwt>
<pdfrwt beam="1">  1        1 0.54698958E+00 0.32351661E+03</pdfrwt>
<pdfrwt beam="2">  1       -1 0.62928805E-02 0.32351661E+03</pdfrwt>
<totfact> 0.34713441E+01</totfact>
</mgrwt>
</event>
<event>
 4    1  0.7354369E-001  0.1835936E+03  0.7546771E-02  0.1164370E+00
         -2   -1    0    0    0  501 -0.00000000000E+00  0.00000000000E+00  0.46037088711E+02  0.46037088711E+02  0.00000000000E+00 0. -1.
          2   -1    0    0  502    0  0.00000000000E+00 -0.00000000000E+00 -0.78565397555E+03  0.78565397555E+03  0.00000000000E+00 0.  1.
          6    1    1    2  502    0 -0.48419530564E+02  0.37857104110E+02 -0.26130080270E+03  0.31935046699E+03  0.17300000000E+03 0. -1.
         -6    1    1    2    0  501  0.48419530564E+02 -0.37857104110E+02 -0.47831608414E+03  0.51234059727E+03  0.17300000000E+03 0.  1.
<mgrwt>
<rscale>  2 0.18359360E+03</rscale>
<asrwt>0</asrwt>
<pdfrwt beam="1">  1        2 0.12086984E+00 0.18359360E+03</pdfrwt>
<pdfrwt beam="2">  1       -2 0.70826294E-02 0.18359360E+03</pdfrwt>
<totfact> 0.40942282E+03</totfact>
</mgrwt>
</event>
<event>
 4    1  0.7354369E-001  0.1869694E+03  0.7546771E-02  0.1161223E+00
          1   -1    0    0  502    0  0.00000000000E+00  0.00000000000E+00  0.24051826157E+04  0.24051826157E+04  0.00000000000E+00 0.  1.
         -1   -1    0    0    0  501 -0.00000000000E+00 -0.00000000000E+00 -0.18585656042E+02  0.18585656042E+02  0.00000000000E+00 0. -1.
          6    1    1    2  502    0  0.54627459084E+02 -0.45214992540E+02  0.62748357561E+03  0.65474666284E+03  0.17300000000E+03 0. -1.
         -6    1    1    2    0  501 -0.54627459084E+02  0.45214992540E+02  0.17591133841E+04  0.17690216089E+04  0.17300000000E+03 0.  1.
<mgrwt>
<rscale>  2 0.18696940E+03</rscale>
<asrwt>0</asrwt>
<pdfrwt beam="1">  1        1 0.37002785E+00 0.18696940E+03</pdfrwt>
<pdfrwt beam="2">  1       -1 0.28593336E-02 0.18696940E+03</pdfrwt>
<totfact> 0.75129077E+02</totfact>
</mgrwt>
</event>
<event>
 4    1  0.7354369E-001  0.1903880E+03  0.7546771E-02  0.1158112E+00
          2   -1    0    0  502    0  0.00000000000E+00  0.00000000000E+00  0.18752574110E+04  0.18752574110E+04  0.00000000000E+00 0. -1.
         -2   -1    0    0    0  501 -0.00000000000E+00 -0.00000000000E+00 -0.19827310237E+02  0.19827310237E+02  0.00000000000E+00 0.  1.
          6    1    1    2  502    0 -0.37520077176E+02 -0.70077377908E+02  0.10778713452E+04  0.10945566371E+04  0.17300000000E+03 0. -1.
         -6    1    1    2    0  501  0.37520077176E+02  0.70077377908E+02  0.77755875552E+03  0.80052808407E+03  0.17300000000E+03 0. -1.
<mgrwt>
<rscale>  2 0.19038801E+03</rscale>
<asrwt>0</asrwt>
<pdfrwt beam="1">  1        2 0.28850100E+00 0.19038801E+03</pdfrwt>
<pdfrwt beam="2">  1       -2 0.30503569E-02 0.19038801E+03</pdfrwt>
<totfact> 0.35664204E+03</totfact>
</mgrwt>
</event>
<event>
 4    1  0.7354369E-001  0.1777356E+03  0.7546771E-02  0.1170013E+00
         -2   -1    0    0    0  501 -0.00000000000E+00  0.00000000000E+00  0.14721866969E+02  0.14721866969E+02  0.00000000000E+00 0.  1.
          2   -1    0    0  502    0  0.00000000000E+00 -0.00000000000E+00 -0.27424556993E+04  0.27424556993E+04  0.00000000000E+00 0. -1.
          6    1    1    2  502    0 -0.36801571582E+02 -0.17509734108E+02 -0.20068990158E+04  0.20147539815E+04  0.17300000000E+03 0. -1.
         -6    1    1    2    0  501  0.36801571582E+02  0.17509734108E+02 -0.72083481655E+03  0.74242358476E+03  0.17300000000E+03 0. -1.
<mgrwt>
<rscale>  2 0.17773561E+03</rscale>
<asrwt>0</asrwt>
<pdfrwt beam="1">  1        2 0.42191680E+00 0.17773561E+03</pdfrwt>
<pdfrwt beam="2">  1       -2 0.22648997E-02 0.17773561E+03</pdfrwt>
<totfact> 0.19133864E+03</totfact>
</mgrwt>
</event>
<event>
 4    1  0.7354369E-001  0.2680450E+03  0.7546771E-02  0.1102404E+00
          2   -1    0    0  502    0  0.00000000000E+00  0.00000000000E+00  0.22609309747E+04  0.22609309747E+04  0.00000000000E+00 0. -1.
         -2   -1    0    0    0  501 -0.00000000000E+00 -0.00000000000E+00 -0.34703743398E+02  0.34703743398E+02  0.00000000000E+00 0.  1.
          6    1    1    2  502    0  0.10438202476E+03 -0.17613497527E+03  0.77984546500E+03  0.82462542156E+03  0.17300000000E+03 0.  1.
         -6    1    1    2    0  501 -0.10438202476E+03  0.17613497527E+03  0.14463817663E+04  0.14710092966E+04  0.17300000000E+03 0. -1.
<mgrwt>
<rscale>  2 0.26804503E+03</rscale>
<asrwt>0</asrwt>
<pdfrwt beam="1">  1        2 0.34783542E+00 0.26804503E+03</pdfrwt>
<pdfrwt beam="2">  1       -2 0.53390392E-02 0.26804503E+03</pdfrwt>
<totfact> 0.95725119E+02</totfact>
</mgrwt>
</event>
<event>
 4    1  0.7354369E-001  0.2076965E+03  0.7546771E-02  0.1143403E+00
          3   -1    0    0  502    0  0.00000000000E+00  0.00000000000E+00  0.48104477267E+02  0.48104477267E+02  0.00000000000E+00 0.  1.
         -3   -1    0    0    0  501 -0.00000000000E+00 -0.00000000000E+00 -0.91949983240E+03  0.91949983240E+03  0.00000000000E+00 0. -1.
          6    1    1    2  502    0 -0.11171397028E+03 -0.26996719911E+02 -0.35960331443E+03  0.41527385879E+03  0.17300000000E+03 0.  1.
         -6    1    1    2    0  501  0.11171397028E+03  0.26996719911E+02 -0.51179204071E+03  0.55233045088E+03  0.17300000000E+03 0. -1.
<mgrwt>
<rscale>  2 0.20769650E+03</rscale>
<asrwt>0</asrwt>
<pdfrwt beam="1">  1        3 0.74006897E-02 0.20769650E+03</pdfrwt>
<pdfrwt beam="2">  1       -3 0.14146149E+00 0.20769650E+03</pdfrwt>
<totfact> 0.11775672E+02</totfact>
</mgrwt>
</event>
<event>
 4    1  0.7354369E-001  0.1901959E+03  0.7546771E-02  0.1158285E+00
         -2   -1    0    0    0  501 -0.00000000000E+00  0.00000000000E+00  0.67355254788E+02  0.67355254788E+02  0.00000000000E+00 0.  1.
          2   -1    0    0  502    0  0.00000000000E+00 -0.00000000000E+00 -0.53825221946E+03  0.53825221946E+03  0.00000000000E+00 0. -1.
          6    1    1    2  502    0  0.76208469822E+02 -0.20922564629E+02 -0.22125715197E+03  0.29176910714E+03  0.17300000000E+03 0. -1.
         -6    1    1    2    0  501 -0.76208469822E+02  0.20922564629E+02 -0.24963981270E+03  0.31383836710E+03  0.17300000000E+03 0. -1.
<mgrwt>
<rscale>  2 0.19019591E+03</rscale>
<asrwt>0</asrwt>
<pdfrwt beam="1">  1        2 0.82808038E-01 0.19019591E+03</pdfrwt>
<pdfrwt beam="2">  1       -2 0.10362346E-01 0.19019591E+03</pdfrwt>
<totfact> 0.35320557E+03</totfact>
</mgrwt>
</event>
<event>
 4    1  0.7354369E-001  0.3366993E+03  0.7546771E-02  0.1068211E+00
          2   -1    0    0  502    0  0.00000000000E+00  0.00000000000E+00  0.12934768916E+04  0.12934768916E+04  0.00000000000E+00 0. -1.
         -2   -1    0    0    0  501 -0.00000000000E+00 -0.00000000000E+00 -0.96969497295E+02  0.96969497295E+02  0.00000000000E+00 0.  1.
          6    1    1    2  502    0 -0.20900258228E+03 -0.19938736685E+03  0.38266487065E+03  0.50970462495E+03  0.17300000000E+03 0. -1.
         -6    1    1    2    0  501  0.20900258228E+03  0.19938736685E+03  0.81384252361E+03  0.88074176391E+03  0.17300000000E+03 0. -1.
<mgrwt>
<rscale>  2 0.33669927E+03</rscale>
<asrwt>0</asrwt>
<pdfrwt beam="1">  1        2 0.19899643E+00 0.33669927E+03</pdfrwt>
<pdfrwt beam="2">  1       -2 0.14918385E-01 0.33669927E+03</pdfrwt>
<totfact> 0.60989801E+02</totfact>
</mgrwt>
</event>
<event>
 4    1  0.7354369E-001  0.2195437E+03  0.7546771E-02  0.1134224E+00
         -1   -1    0    0    0  501 -0.00000000000E+00  0.00000000000E+00  0.76580386068E+02  0.76580386068E+02  0.00000000000E+00 0. -1.
          1   -1    0    0  502    0  0.00000000000E+00 -0.00000000000E+00 -0.69661350400E+03  0.69661350400E+03  0.00000000000E+00 0.  1.
          6    1    1    2  502    0 -0.14398722546E+02  0.13439910104E+03 -0.43010506238E+03  0.48289730404E+03  0.17300000000E+03 0. -1.
         -6    1    1    2    0  501  0.14398722546E+02 -0.13439910104E+03 -0.18992805556E+03  0.29029658603E+03  0.17300000000E+03 0. -1.
<mgrwt>
<rscale>  2 0.21954371E+03</rscale>
<asrwt>0</asrwt>
<pdfrwt beam="1">  1        1 0.10717131E+00 0.21954371E+03</pdfrwt>
<pdfrwt beam="2">  1       -1 0.11781598E-01 0.21954371E+03</pdfrwt>
<totfact> 0.13378367E+03</totfact>
</mgrwt>
</event>
<event>
 4    1  0.7354369E-001  0.1904724E+03  0.7546771E-02  0.1158036E+00
          1   -1    0    0  502    0  0.00000000000E+00  0.00000000000E+00  0.14441455567E+04  0.14441455567E+04  0.00000000000E+00 0.  1.
         -1   -1    0    0    0  501 -0.00000000000E+00 -0.00000000000E+00 -0.44057965673E+02  0.44057965673E+02  0.00000000000E+00 0. -1.
          6    1    1    2  502    0 -0.39006826230E+02 -0.69492473636E+02  0.11878693448E+04  0.12030433561E+04  0.17300000000E+03 0.  1.
         -6    1    1    2    0  501  0.39006826230E+02  0.69492473636E+02  0.21221824621E+03  0.28516016624E+03  0.17300000000E+03 0. -1.
<mgrwt>
<rscale>  2 0.19047240E+03</rscale>
<asrwt>0</asrwt>
<pdfrwt beam="1">  1        1 0.22217620E+00 0.19047240E+03</pdfrwt>
<pdfrwt beam="2">  1       -1 0.67781496E-02 0.19047240E+03</pdfrwt>
<totfact> 0.87192336E+02</totfact>
</mgrwt>
</event>
<event>
 4    1  0.7354369E-001  0.1855236E+03  0.7546771E-02  0.1162562E+00
          2   -1    0    0  502    0  0.00000000000E+00  0.00000000000E+00  0.47226443967E+03  0.47226443967E+03  0.00000000000E+00 0. -1.
         -2   -1    0    0    0  501 -0.00000000000E+00 -0.00000000000E+00 -0.87247126962E+02  0.87247126962E+02  0.00000000000E+00 0.  1.
          6    1    1    2  502    0  0.26212562764E+02  0.61667805749E+02  0.78987666338E+02  0.20163845900E+03  0.17300000000E+03 0.  1.
         -6    1    1    2    0  501 -0.26212562764E+02 -0.61667805749E+02  0.30602964637E+03  0.35787310764E+03  0.17300000000E+03 0. -1.
<mgrwt>
<rscale>  2 0.18552363E+03</rscale>
<asrwt>0</asrwt>
<pdfrwt beam="1">  1        2 0.72656066E-01 0.18552363E+03</pdfrwt>
<pdfrwt beam="2">  1       -2 0.13422635E-01 0.18552363E+03</pdfrwt>
<totfact> 0.26935459E+03</totfact>
</mgrwt>
</event>
<event>
 4    1  0.7354369E-001  0.3742503E+03  0.7546771E-02  0.1053080E+00
          3   -1    0    0  502    0  0.00000000000E+00  0.00000000000E+00  0.65758289436E+03  0.65758289436E+03  0.00000000000E+00 0. -1.
         -3   -1    0    0    0  501 -0.00000000000E+00 -0.00000000000E+00 -0.22336020278E+03  0.22336020278E+03  0.00000000000E+00 0.  1.
          6    1    1    2  502    0  0.15415798863E+03  0.29388704254E+03  0.31198790346E+03  0.48723683269E+03  0.17300000000E+03 0.  1.
         -6    1    1    2    0  501 -0.15415798863E+03 -0.29388704254E+03  0.12223478813E+03  0.39370626444E+03  0.17300000000E+03 0. -1.
<mgrwt>
<rscale>  2 0.37425029E+03</rscale>
<asrwt>0</asrwt>
<pdfrwt beam="1">  1        3 0.10116660E+00 0.37425029E+03</pdfrwt>
<pdfrwt beam="2">  1       -3 0.34363108E-01 0.37425029E+03</pdfrwt>
<totfact> 0.18429314E+01</totfact>
</mgrwt>
</event>
<event>
 4    1  0.7354369E-001  0.1789446E+03  0.7546771E-02  0.1168828E+00
          3   -1    0    0  502    0  0.00000000000E+00  0.00000000000E+00  0.11150775913E+04  0.11150775913E+04  0.00000000000E+00 0.  1.
         -3   -1    0    0    0  501 -0.00000000000E+00 -0.00000000000E+00 -0.10543283959E+03  0.10543283959E+03  0.00000000000E+00 0. -1.
          6    1    1    2  502    0  0.21542784925E+02  0.40349458083E+02 -0.15733521594E+02  0.17963494663E+03  0.17300000000E+03 0. -1.
         -6    1    1    2    0  501 -0.21542784925E+02 -0.40349458083E+02  0.10253782733E+04  0.10408754843E+04  0.17300000000E+03 0.  1.
<mgrwt>
<rscale>  2 0.17894460E+03</rscale>
<asrwt>0</asrwt>
<pdfrwt beam="1">  1        3 0.17155039E+00 0.17894460E+03</pdfrwt>
<pdfrwt beam="2">  1       -3 0.16220438E-01 0.17894460E+03</pdfrwt>
<totfact> 0.19188672E+01</totfact>
</mgrwt>
</event>
<event>
 4    1  0.7354369E-001  0.2456857E+03  0.7546771E-02  0.1116062E+00
         -1   -1    0    0    0  501 -0.00000000000E+00  0.00000000000E+00  0.12363388215E+03  0.12363388215E+03  0.00000000000E+00 0. -1.
          1   -1    0    0  502    0  0.00000000000E+00 -0.00000000000E+00 -0.58855934480E+03  0.58855934480E+03  0.00000000000E+00 0.  1.
          6    1    1    2  502    0 -0.15587927548E+03  0.78320625586E+02 -0.85437464088E+02  0.26011733734E+03  0.17300000000E+03 0. -1.
         -6    1    1    2    0  501  0.15587927548E+03 -0.78320625586E+02 -0.37948799856E+03  0.45207588961E+03  0.17300000000E+03 0.  1.
<mgrwt>
<rscale>  2 0.24568571E+03</rscale>
<asrwt>0</asrwt>
<pdfrwt beam="1">  1        1 0.90547590E-01 0.24568571E+03</pdfrwt>
<pdfrwt beam="2">  1       -1 0.19020598E-01 0.24568571E+03</pdfrwt>
<totfact> 0.79376267E+02</totfact>
</mgrwt>
</event>
<event>
 4    1  0.7354369E-001  0.3501181E+03  0.7546771E-02  0.1062567E+00
         -2   -1    0    0    0  501 -0.00000000000E+00  0.00000000000E+00  0.12922999804E+03  0.12922999804E+03  0.00000000000E+00 0.  1.
          2   -1    0    0  502    0  0.00000000000E+00 -0.00000000000E+00 -0.11061166792E+04  0.11061166792E+04  0.00000000000E+00 0. -1.
          6    1    1    2  502    0  0.45070015132E+02  0.30103551436E+03 -0.25532641554E+03  0.43332928085E+03  0.17300000000E+03 0. -1.
         -6    1    1    2    0  501 -0.45070015132E+02 -0.30103551436E+03 -0.72156026557E+03  0.80201739634E+03  0.17300000000E+03 0.  1.
<mgrwt>
<rscale>  2 0.35011810E+03</rscale>
<asrwt>0</asrwt>
<pdfrwt beam="1">  1        2 0.17017179E+00 0.35011810E+03</pdfrwt>
<pdfrwt beam="2">  1       -2 0.19881539E-01 0.35011810E+03</pdfrwt>
<totfact> 0.48019249E+02</totfact>
</mgrwt>
</event>
<event>
 4    1  0.7354369E-001  0.1733696E+03  0.7546771E-02  0.1174379E+00
          2   -1    0    0  502    0  0.00000000000E+00  0.00000000000E+00  0.32396709157E+03  0.32396709157E+03  0.00000000000E+00 0.  1.
         -2   -1    0    0    0  501 -0.00000000000E+00 -0.00000000000E+00 -0.13964623437E+03  0.13964623437E+03  0.00000000000E+00 0. -1.
          6    1    1    2  502    0  0.10071926982E+02 -0.51552594824E+01  0.22645256229E+03  0.28519779695E+03  0.17300000000E+03 0.  1.
         -6    1    1    2    0  501 -0.10071926982E+02  0.51552594824E+01 -0.42131705088E+02  0.17841552900E+03  0.17300000000E+03 0. -1.
<mgrwt>
<rscale>  2 0.17336961E+03</rscale>
<asrwt>0</asrwt>
<pdfrwt beam="1">  1        2 0.49841091E-01 0.17336961E+03</pdfrwt>
<pdfrwt beam="2">  1       -2 0.21484036E-01 0.17336961E+03</pdfrwt>
<totfact> 0.18417593E+03</totfact>
</mgrwt>
</event>
<event>
 4    1  0.7354369E-001  0.2048363E+03  0.7546771E-02  0.1145722E+00
          2   -1    0    0  502    0  0.00000000000E+00  0.00000000000E+00  0.50983479709E+03  0.50983479709E+03  0.00000000000E+00 0. -1.
         -2   -1    0    0    0  501 -0.00000000000E+00 -0.00000000000E+00 -0.88529643103E+02  0.88529643103E+02  0.00000000000E+00 0.  1.
          6    1    1    2  502    0 -0.20427345557E+02  0.10775720763E+03  0.13126979280E+03  0.24328923269E+03  0.17300000000E+03 0. -1.
         -6    1    1    2    0  501  0.20427345557E+02 -0.10775720763E+03  0.29003536119E+03  0.35507520750E+03  0.17300000000E+03 0.  1.
<mgrwt>
<rscale>  2 0.20483626E+03</rscale>
<asrwt>0</asrwt>
<pdfrwt beam="1">  1        2 0.78436121E-01 0.20483626E+03</pdfrwt>
<pdfrwt beam="2">  1       -2 0.13619945E-01 0.20483626E+03</pdfrwt>
<totfact> 0.24230373E+03</totfact>
</mgrwt>
</event>
<event>
 4    1  0.7354369E-001  0.1930412E+03  0.7546771E-02  0.1155747E+00
          2   -1    0    0  502    0  0.00000000000E+00  0.00000000000E+00  0.11600576894E+04  0.11600576894E+04  0.00000000000E+00 0. -1.
         -2   -1    0    0    0  501 -0.00000000000E+00 -0.00000000000E+00 -0.38373827768E+02  0.38373827768E+02  0.00000000000E+00 0.  1.
          6    1    1    2  502    0  0.28270402935E+02  0.80849736234E+02  0.31900446700E+03  0.37286558637E+03  0.17300000000E+03 0.  1.
         -6    1    1    2    0  501 -0.28270402935E+02 -0.80849736234E+02  0.80267939464E+03  0.82556593081E+03  0.17300000000E+03 0. -1.
<mgrwt>
<rscale>  2 0.19304118E+03</rscale>
<asrwt>0</asrwt>
<pdfrwt beam="1">  1        2 0.17847039E+00 0.19304118E+03</pdfrwt>
<pdfrwt beam="2">  1       -2 0.59036667E-02 0.19304118E+03</pdfrwt>
<totfact> 0.31784925E+03</totfact>
</mgrwt>
</event>
<event>
 4    1  0.7354369E-001  0.2177514E+03  0.7546771E-02  0.1135571E+00
          1   -1    0    0  502    0  0.00000000000E+00  0.00000000000E+00  0.15522091918E+03  0.15522091918E+03  0.00000000000E+00 0. -1.
         -1   -1    0    0    0  501 -0.00000000000E+00 -0.00000000000E+00 -0.31406425521E+03  0.31406425521E+03  0.00000000000E+00 0.  1.
          6    1    1    2  502    0  0.26071618205E+02  0.12964162461E+03 -0.40611511875E+02  0.22150615116E+03  0.17300000000E+03 0. -1.
         -6    1    1    2    0  501 -0.26071618205E+02 -0.12964162461E+03 -0.11823182416E+03  0.24777902322E+03  0.17300000000E+03 0. -1.
<mgrwt>
<rscale>  2 0.21775142E+03</rscale>
<asrwt>0</asrwt>
<pdfrwt beam="1">  1        1 0.23880141E-01 0.21775142E+03</pdfrwt>
<pdfrwt beam="2">  1       -1 0.48317578E-01 0.21775142E+03</pdfrwt>
<totfact> 0.88748264E+02</totfact>
</mgrwt>
</event>
<event>
 4    1  0.7354369E-001  0.3709363E+03  0.7546771E-02  0.1054336E+00
          1   -1    0    0  502    0  0.00000000000E+00  0.00000000000E+00  0.73395627782E+03  0.73395627782E+03  0.00000000000E+00 0.  1.
         -1   -1    0    0    0  501 -0.00000000000E+00 -0.00000000000E+00 -0.20130350390E+03  0.20130350390E+03  0.00000000000E+00 0. -1.
          6    1    1    2  502    0  0.32100511303E+03 -0.67974071867E+02  0.14373367721E+03  0.39781041590E+03  0.17300000000E+03 0. -1.
         -6    1    1    2    0  501 -0.32100511303E+03  0.67974071867E+02  0.38891909671E+03  0.53744936582E+03  0.17300000000E+03 0.  1.
<mgrwt>
<rscale>  2 0.37093632E+03</rscale>
<asrwt>0</asrwt>
<pdfrwt beam="1">  1        1 0.11291635E+00 0.37093632E+03</pdfrwt>
<pdfrwt beam="2">  1       -1 0.30969770E-01 0.37093632E+03</pdfrwt>
<totfact> 0.25368761E+02</totfact>
</mgrwt>
</event>
<event>
 4    1  0.7354369E-001  0.1784313E+03  0.7546771E-02  0.1169330E+00
          2   -1    0    0  502    0  0.00000000000E+00  0.00000000000E+00  0.47858019633E+04  0.47858019633E+04  0.00000000000E+00 0.  1.
         -2   -1    0    0    0  501 -0.00000000000E+00 -0.00000000000E+00 -0.69283060131E+01  0.69283060131E+01  0.00000000000E+00 0. -1.
          6    1    1    2  502    0  0.12492711583E+02 -0.41864785661E+02  0.28675289870E+04  0.28730750459E+04  0.17300000000E+03 0.  1.
         -6    1    1    2    0  501 -0.12492711583E+02  0.41864785661E+02  0.19113446703E+04  0.19196552234E+04  0.17300000000E+03 0. -1.
<mgrwt>
<rscale>  2 0.17843130E+03</rscale>
<asrwt>0</asrwt>
<pdfrwt beam="1">  1        2 0.73627458E+00 0.17843130E+03</pdfrwt>
<pdfrwt beam="2">  1       -2 0.10658971E-02 0.17843130E+03</pdfrwt>
<totfact> 0.18029204E+02</totfact>
</mgrwt>
</event>
<event>
 4    1  0.7354369E-001  0.3124935E+03  0.7546771E-02  0.1079157E+00
         -2   -1    0    0    0  501 -0.00000000000E+00  0.00000000000E+00  0.27709550136E+03  0.27709550136E+03  0.00000000000E+00 0.  1.
          2   -1    0    0  502    0  0.00000000000E+00 -0.00000000000E+00 -0.37260201770E+03  0.37260201770E+03  0.00000000000E+00 0. -1.
          6    1    1    2  502    0  0.10245775161E+03  0.23921870362E+03  0.27862352942E+02  0.31373315052E+03  0.17300000000E+03 0.  1.
         -6    1    1    2    0  501 -0.10245775161E+03 -0.23921870362E+03 -0.12336886928E+03  0.33596436854E+03  0.17300000000E+03 0. -1.
<mgrwt>
<rscale>  2 0.31249349E+03</rscale>
<asrwt>0</asrwt>
<pdfrwt beam="1">  1        2 0.57323387E-01 0.31249349E+03</pdfrwt>
<pdfrwt beam="2">  1       -2 0.42630077E-01 0.31249349E+03</pdfrwt>
<totfact> 0.45641980E+02</totfact>
</mgrwt>
</event>
<event>
 4    1  0.7354369E-001  0.3445357E+03  0.7546771E-02  0.1064880E+00
         -2   -1    0    0    0  501 -0.00000000000E+00  0.00000000000E+00  0.67040894148E+03  0.67040894148E+03  0.00000000000E+00 0.  1.
          2   -1    0    0  502    0  0.00000000000E+00 -0.00000000000E+00 -0.29104007142E+03  0.29104007142E+03  0.00000000000E+00 0. -1.
          6    1    1    2  502    0 -0.29748542556E+03 -0.16681400420E+02  0.49051915928E+03  0.59942797162E+03  0.17300000000E+03 0.  1.
         -6    1    1    2    0  501  0.29748542556E+03  0.16681400420E+02 -0.11115028922E+03  0.36202104129E+03  0.17300000000E+03 0. -1.
<mgrwt>
<rscale>  2 0.34453570E+03</rscale>
<asrwt>0</asrwt>
<pdfrwt beam="1">  1        2 0.44775396E-01 0.34453570E+03</pdfrwt>
<pdfrwt beam="2">  1       -2 0.10313984E+00 0.34453570E+03</pdfrwt>
<totfact> 0.90275832E+01</totfact>
</mgrwt>
</event>
<event>
 4    1  0.7354369E-001  0.1765905E+03  0.7546771E-02  0.1171144E+00
         -2   -1    0    0    0  501 -0.00000000000E+00  0.00000000000E+00  0.57306987954E+02  0.57306987954E+02  0.00000000000E+00 0.  1.
          2   -1    0    0  502    0  0.00000000000E+00 -0.00000000000E+00 -0.63710819449E+03  0.63710819449E+03  0.00000000000E+00 0. -1.
          6    1    1    2  502    0  0.34833508643E+02  0.64684292342E+01 -0.15728295301E+03  0.23647862739E+03  0.17300000000E+03 0.  1.
         -6    1    1    2    0  501 -0.34833508643E+02 -0.64684292342E+01 -0.42251825353E+03  0.45793655506E+03  0.17300000000E+03 0. -1.
<mgrwt>
<rscale>  2 0.17659053E+03</rscale>
<asrwt>0</asrwt>
<pdfrwt beam="1">  1        2 0.98016643E-01 0.17659053E+03</pdfrwt>
<pdfrwt beam="2">  1       -2 0.88164599E-02 0.17659053E+03</pdfrwt>
<totfact> 0.37465558E+03</totfact>
</mgrwt>
</event>
<event>
 4    1  0.7354369E-001  0.1856933E+03  0.7546771E-02  0.1162404E+00
          2   -1    0    0  502    0  0.00000000000E+00  0.00000000000E+00  0.66296223179E+03  0.66296223179E+03  0.00000000000E+00 0. -1.
         -2   -1    0    0    0  501 -0.00000000000E+00 -0.00000000000E+00 -0.53429227934E+02  0.53429227934E+02  0.00000000000E+00 0.  1.
          6    1    1    2  502    0 -0.63123475738E+02  0.23841780289E+02  0.36310402905E+03  0.40783150883E+03  0.17300000000E+03 0. -1.
         -6    1    1    2    0  501  0.63123475738E+02 -0.23841780289E+02  0.24642897481E+03  0.30855995090E+03  0.17300000000E+03 0.  1.
<mgrwt>
<rscale>  2 0.18569331E+03</rscale>
<asrwt>0</asrwt>
<pdfrwt beam="1">  1        2 0.10199418E+00 0.18569331E+03</pdfrwt>
<pdfrwt beam="2">  1       -2 0.82198817E-02 0.18569331E+03</pdfrwt>
<totfact> 0.39961339E+03</totfact>
</mgrwt>
</event>
<event>
 4    1  0.7354369E-001  0.1787084E+03  0.7546771E-02  0.1169059E+00
         -1   -1    0    0    0  501 -0.00000000000E+00  0.00000000000E+00  0.36135226987E+03  0.36135226987E+03  0.00000000000E+00 0.  1.
          1   -1    0    0  502    0  0.00000000000E+00 -0.00000000000E+00 -0.10395474884E+03  0.10395474884E+03  0.00000000000E+00 0. -1.
          6    1    1    2  502    0  0.44438650816E+02  0.57371084213E+01  0.21874855908E+03  0.28246706038E+03  0.17300000000E+03 0.  1.
         -6    1    1    2    0  501 -0.44438650816E+02 -0.57371084213E+01  0.38648961949E+02  0.18283995832E+03  0.17300000000E+03 0. -1.
<mgrwt>
<rscale>  2 0.17870844E+03</rscale>
<asrwt>0</asrwt>
<pdfrwt beam="1">  1        1 0.15993038E-01 0.17870844E+03</pdfrwt>
<pdfrwt beam="2">  1       -1 0.55592656E-01 0.17870844E+03</pdfrwt>
<totfact> 0.11422383E+03</totfact>
</mgrwt>
</event>
<event>
 4    1  0.7354369E-001  0.1905836E+03  0.7546771E-02  0.1157936E+00
          2   -1    0    0  502    0  0.00000000000E+00  0.00000000000E+00  0.12201923483E+04  0.12201923483E+04  0.00000000000E+00 0. -1.
         -2   -1    0    0    0  501 -0.00000000000E+00 -0.00000000000E+00 -0.48379951632E+02  0.48379951632E+02  0.00000000000E+00 0.  1.
          6    1    1    2  502    0  0.79285121140E+02  0.10342784313E+02  0.19248836899E+03  0.27087612633E+03  0.17300000000E+03 0.  1.
         -6    1    1    2    0  501 -0.79285121140E+02 -0.10342784313E+02  0.97932402763E+03  0.99769617355E+03  0.17300000000E+03 0. -1.
<mgrwt>
<rscale>  2 0.19058359E+03</rscale>
<asrwt>0</asrwt>
<pdfrwt beam="1">  1        2 0.18772188E+00 0.19058359E+03</pdfrwt>
<pdfrwt beam="2">  1       -2 0.74430704E-02 0.19058359E+03</pdfrwt>
<totfact> 0.20580930E+03</totfact>
</mgrwt>
</event>
<event>
 4    1  0.7354369E-001  0.2192530E+03  0.7546771E-02  0.1134441E+00
          1   -1    0    0  502    0  0.00000000000E+00  0.00000000000E+00  0.15848925403E+03  0.15848925403E+03  0.00000000000E+00 0. -1.
         -1   -1    0    0    0  501 -0.00000000000E+00 -0.00000000000E+00 -0.33539247848E+03  0.33539247848E+03  0.00000000000E+00 0.  1.
          6    1    1    2  502    0 -0.13397423477E+03  0.13921184222E+02 -0.16482254321E+03  0.27429612776E+03  0.17300000000E+03 0. -1.
         -6    1    1    2    0  501  0.13397423477E+03 -0.13921184222E+02 -0.12080681245E+02  0.21958560475E+03  0.17300000000E+03 0. -1.
<mgrwt>
<rscale>  2 0.21925304E+03</rscale>
<asrwt>0</asrwt>
<pdfrwt beam="1">  1        1 0.24382962E-01 0.21925304E+03</pdfrwt>
<pdfrwt beam="2">  1       -1 0.51598843E-01 0.21925304E+03</pdfrwt>
<totfact> 0.76556577E+02</totfact>
</mgrwt>
</event>
<event>
 4    1  0.7354369E-001  0.1802619E+03  0.7546771E-02  0.1167550E+00
          2   -1    0    0  502    0  0.00000000000E+00  0.00000000000E+00  0.64109009721E+03  0.64109009721E+03  0.00000000000E+00 0.  1.
         -2   -1    0    0    0  501 -0.00000000000E+00 -0.00000000000E+00 -0.55294539586E+02  0.55294539586E+02  0.00000000000E+00 0. -1.
          6    1    1    2  502    0 -0.11988258736E+02  0.49210233654E+02  0.39341821741E+03  0.43274964960E+03  0.17300000000E+03 0. -1.
         -6    1    1    2    0  501  0.11988258736E+02 -0.49210233654E+02  0.19237734022E+03  0.26363498720E+03  0.17300000000E+03 0. -1.
<mgrwt>
<rscale>  2 0.18026194E+03</rscale>
<asrwt>0</asrwt>
<pdfrwt beam="1">  1        2 0.98629241E-01 0.18026194E+03</pdfrwt>
<pdfrwt beam="2">  1       -2 0.85068527E-02 0.18026194E+03</pdfrwt>
<totfact> 0.39360637E+03</totfact>
</mgrwt>
</event>
<event>
 4    1  0.7354369E-001  0.1876439E+03  0.7546771E-02  0.1160604E+00
          2   -1    0    0  502    0  0.00000000000E+00  0.00000000000E+00  0.14218011169E+04  0.14218011169E+04  0.00000000000E+00 0. -1.
         -2   -1    0    0    0  501 -0.00000000000E+00 -0.00000000000E+00 -0.28993490803E+02  0.28993490803E+02  0.00000000000E+00 0.  1.
          6    1    1    2  502    0 -0.49323349243E+02  0.53370640772E+02  0.97344425764E+03  0.99136468608E+03  0.17300000000E+03 0. -1.
         -6    1    1    2    0  501  0.49323349243E+02 -0.53370640772E+02  0.41936336845E+03  0.45942992161E+03  0.17300000000E+03 0. -1.
<mgrwt>
<rscale>  2 0.18764386E+03</rscale>
<asrwt>0</asrwt>
<pdfrwt beam="1">  1        2 0.21873858E+00 0.18764386E+03</pdfrwt>
<pdfrwt beam="2">  1       -2 0.44605382E-02 0.18764386E+03</pdfrwt>
<totfact> 0.34896648E+03</totfact>
</mgrwt>
</event>
<event>
 4    1  0.7354369E-001  0.2204023E+03  0.7546771E-02  0.1133583E+00
          2   -1    0    0  502    0  0.00000000000E+00  0.00000000000E+00  0.21963652275E+04  0.21963652275E+04  0.00000000000E+00 0. -1.
         -2   -1    0    0    0  501 -0.00000000000E+00 -0.00000000000E+00 -0.27629514436E+02  0.27629514436E+02  0.00000000000E+00 0.  1.
          6    1    1    2  502    0  0.12487743968E+02  0.13598616405E+03  0.15810618868E+04  0.15963501716E+04  0.17300000000E+03 0. -1.
         -6    1    1    2    0  501 -0.12487743968E+02 -0.13598616405E+03  0.58767382628E+03  0.62764457032E+03  0.17300000000E+03 0.  1.
<mgrwt>
<rscale>  2 0.22040232E+03</rscale>
<asrwt>0</asrwt>
<pdfrwt beam="1">  1        2 0.33790221E+00 0.22040232E+03</pdfrwt>
<pdfrwt beam="2">  1       -2 0.42506962E-02 0.22040232E+03</pdfrwt>
<totfact> 0.14738977E+03</totfact>
</mgrwt>
</event>
<event>
 4    1  0.7354369E-001  0.1886748E+03  0.7546771E-02  0.1159662E+00
          1   -1    0    0  502    0  0.00000000000E+00  0.00000000000E+00  0.97081695748E+03  0.97081695748E+03  0.00000000000E+00 0. -1.
         -1   -1    0    0    0  501 -0.00000000000E+00 -0.00000000000E+00 -0.37550414974E+02  0.37550414974E+02  0.00000000000E+00 0.  1.
          6    1    1    2  502    0 -0.63961399798E+02  0.39725734256E+02  0.54390973952E+03  0.57570478492E+03  0.17300000000E+03 0. -1.
         -6    1    1    2    0  501  0.63961399798E+02 -0.39725734256E+02  0.38935680299E+03  0.43266258754E+03  0.17300000000E+03 0.  1.
<mgrwt>
<rscale>  2 0.18867484E+03</rscale>
<asrwt>0</asrwt>
<pdfrwt beam="1">  1        1 0.14935644E+00 0.18867484E+03</pdfrwt>
<pdfrwt beam="2">  1       -1 0.57769876E-02 0.18867484E+03</pdfrwt>
<totfact> 0.23677585E+03</totfact>
</mgrwt>
</event>
<event>
 4    1  0.7354369E-001  0.1964906E+03  0.7546771E-02  0.1152734E+00
         -2   -1    0    0    0  501 -0.00000000000E+00  0.00000000000E+00  0.45986915417E+03  0.45986915417E+03  0.00000000000E+00 0. -1.
          2   -1    0    0  502    0  0.00000000000E+00 -0.00000000000E+00 -0.84207719445E+02  0.84207719445E+02  0.00000000000E+00 0.  1.
          6    1    1    2  502    0 -0.20168403583E+02 -0.90954864709E+02  0.20271850702E+03  0.28231780852E+03  0.17300000000E+03 0.  1.
         -6    1    1    2    0  501  0.20168403583E+02  0.90954864709E+02  0.17294292770E+03  0.26175906509E+03  0.17300000000E+03 0. -1.
<mgrwt>
<rscale>  2 0.19649059E+03</rscale>
<asrwt>0</asrwt>
<pdfrwt beam="1">  1        2 0.12955034E-01 0.19649059E+03</pdfrwt>
<pdfrwt beam="2">  1       -2 0.70749099E-01 0.19649059E+03</pdfrwt>
<totfact> 0.86025848E+02</totfact>
</mgrwt>
</event>
<event>
 4    1  0.7354369E-001  0.1876331E+03  0.7546771E-02  0.1160614E+00
          1   -1    0    0  502    0  0.00000000000E+00  0.00000000000E+00  0.97353325665E+03  0.97353325665E+03  0.00000000000E+00 0.  1.
         -1   -1    0    0    0  501 -0.00000000000E+00 -0.00000000000E+00 -0.38136314671E+02  0.38136314671E+02  0.00000000000E+00 0. -1.
          6    1    1    2  502    0 -0.39094630277E+02 -0.61227303918E+02  0.58275327440E+03  0.61221528214E+03  0.17300000000E+03 0.  1.
         -6    1    1    2    0  501  0.39094630277E+02  0.61227303918E+02  0.35264366758E+03  0.39945428918E+03  0.17300000000E+03 0. -1.
<mgrwt>
<rscale>  2 0.18763308E+03</rscale>
<asrwt>0</asrwt>
<pdfrwt beam="1">  1        1 0.14977433E+00 0.18763308E+03</pdfrwt>
<pdfrwt beam="2">  1       -1 0.58671261E-02 0.18763308E+03</pdfrwt>
<totfact> 0.23023759E+03</totfact>
</mgrwt>
</event>
<event>
 4    1  0.7354369E-001  0.3976358E+03  0.7546771E-02  0.1044601E+00
          1   -1    0    0  502    0  0.00000000000E+00  0.00000000000E+00  0.57791997032E+03  0.57791997032E+03  0.00000000000E+00 0.  1.
         -1   -1    0    0    0  501 -0.00000000000E+00 -0.00000000000E+00 -0.40588485631E+03  0.40588485631E+03  0.00000000000E+00 0. -1.
          6    1    1    2  502    0  0.14490056596E+03 -0.32739741604E+03  0.36684906706E+03  0.54101060992E+03  0.17300000000E+03 0.  1.
         -6    1    1    2    0  501 -0.14490056596E+03  0.32739741604E+03 -0.19481395305E+03  0.44279421671E+03  0.17300000000E+03 0. -1.
<mgrwt>
<rscale>  2 0.39763582E+03</rscale>
<asrwt>0</asrwt>
<pdfrwt beam="1">  1        1 0.88910765E-01 0.39763582E+03</pdfrwt>
<pdfrwt beam="2">  1       -1 0.62443824E-01 0.39763582E+03</pdfrwt>
<totfact> 0.98972724E+01</totfact>
</mgrwt>
</event>
<event>
 4    1  0.7354369E-001  0.2011360E+03  0.7546771E-02  0.1148784E+00
         -2   -1    0    0    0  501 -0.00000000000E+00  0.00000000000E+00  0.46761863542E+02  0.46761863542E+02  0.00000000000E+00 0.  1.
          2   -1    0    0  502    0  0.00000000000E+00 -0.00000000000E+00 -0.10578956877E+04  0.10578956877E+04  0.00000000000E+00 0. -1.
          6    1    1    2  502    0 -0.65449894109E+02  0.79012726819E+02 -0.26980347716E+03  0.33652580276E+03  0.17300000000E+03 0. -1.
         -6    1    1    2    0  501  0.65449894109E+02 -0.79012726819E+02 -0.74133034702E+03  0.76813174850E+03  0.17300000000E+03 0. -1.
<mgrwt>
<rscale>  2 0.20113602E+03</rscale>
<asrwt>0</asrwt>
<pdfrwt beam="1">  1        2 0.16275319E+00 0.20113602E+03</pdfrwt>
<pdfrwt beam="2">  1       -2 0.71941327E-02 0.20113602E+03</pdfrwt>
<totfact> 0.26898406E+03</totfact>
</mgrwt>
</event>
<event>
 4    1  0.7354369E-001  0.1891090E+03  0.7546771E-02  0.1159267E+00
         -1   -1    0    0    0  501 -0.00000000000E+00  0.00000000000E+00  0.97853582932E+02  0.97853582932E+02  0.00000000000E+00 0.  1.
          1   -1    0    0  502    0  0.00000000000E+00 -0.00000000000E+00 -0.59532996407E+03  0.59532996407E+03  0.00000000000E+00 0. -1.
          6    1    1    2  502    0 -0.63760894322E+02  0.42044845013E+02 -0.33373641443E+02  0.19203130104E+03  0.17300000000E+03 0.  1.
         -6    1    1    2    0  501  0.63760894322E+02 -0.42044845013E+02 -0.46410273969E+03  0.50115224596E+03  0.17300000000E+03 0. -1.
<mgrwt>
<rscale>  2 0.18910902E+03</rscale>
<asrwt>0</asrwt>
<pdfrwt beam="1">  1        1 0.91589226E-01 0.18910902E+03</pdfrwt>
<pdfrwt beam="2">  1       -1 0.15054397E-01 0.18910902E+03</pdfrwt>
<totfact> 0.11355661E+03</totfact>
</mgrwt>
</event>
<event>
 4    1  0.7354369E-001  0.1833173E+03  0.7546771E-02  0.1164631E+00
          2   -1    0    0  502    0  0.00000000000E+00  0.00000000000E+00  0.20709882297E+04  0.20709882297E+04  0.00000000000E+00 0. -1.
         -2   -1    0    0    0  501 -0.00000000000E+00 -0.00000000000E+00 -0.16761212141E+02  0.16761212141E+02  0.00000000000E+00 0.  1.
          6    1    1    2  502    0 -0.59897466035E+02  0.94090623298E+01  0.12135314721E+04  0.12272994217E+04  0.17300000000E+03 0.  1.
         -6    1    1    2    0  501  0.59897466035E+02 -0.94090623298E+01  0.84069554548E+03  0.86045002010E+03  0.17300000000E+03 0. -1.
<mgrwt>
<rscale>  2 0.18331731E+03</rscale>
<asrwt>0</asrwt>
<pdfrwt beam="1">  1        2 0.31861337E+00 0.18331731E+03</pdfrwt>
<pdfrwt beam="2">  1       -2 0.25786497E-02 0.18331731E+03</pdfrwt>
<totfact> 0.36186420E+03</totfact>
</mgrwt>
</event>
<event>
 4    1  0.7354369E-001  0.1780126E+03  0.7546771E-02  0.1169740E+00
         -2   -1    0    0    0  501 -0.00000000000E+00  0.00000000000E+00  0.43549566416E+03  0.43549566416E+03  0.00000000000E+00 0. -1.
          2   -1    0    0  502    0  0.00000000000E+00 -0.00000000000E+00 -0.79158086590E+02  0.79158086590E+02  0.00000000000E+00 0.  1.
          6    1    1    2  502    0 -0.41920433553E+02  0.14657238668E+01  0.25130319209E+03  0.30796390284E+03  0.17300000000E+03 0. -1.
         -6    1    1    2    0  501  0.41920433553E+02 -0.14657238668E+01  0.10503438547E+03  0.20668984790E+03  0.17300000000E+03 0.  1.
<mgrwt>
<rscale>  2 0.17801256E+03</rscale>
<asrwt>0</asrwt>
<pdfrwt beam="1">  1        2 0.12178167E-01 0.17801256E+03</pdfrwt>
<pdfrwt beam="2">  1       -2 0.66999332E-01 0.17801256E+03</pdfrwt>
<totfact> 0.10377328E+03</totfact>
</mgrwt>
</event>
<event>
 4    1  0.7354369E-001  0.3029254E+03  0.7546771E-02  0.1083787E+00
         -2   -1    0    0    0  501 -0.00000000000E+00  0.00000000000E+00  0.19161181559E+03  0.19161181559E+03  0.00000000000E+00 0.  1.
          2   -1    0    0  502    0  0.00000000000E+00 -0.00000000000E+00 -0.56861409066E+03  0.56861409066E+03  0.00000000000E+00 0. -1.
          6    1    1    2  502    0  0.18068666590E+01 -0.24865952466E+03 -0.37520067414E+02  0.30524019956E+03  0.17300000000E+03 0. -1.
         -6    1    1    2    0  501 -0.18068666590E+01  0.24865952466E+03 -0.33948220765E+03  0.45498570668E+03  0.17300000000E+03 0. -1.
<mgrwt>
<rscale>  2 0.30292544E+03</rscale>
<asrwt>0</asrwt>
<pdfrwt beam="1">  1        2 0.87479092E-01 0.30292544E+03</pdfrwt>
<pdfrwt beam="2">  1       -2 0.29478741E-01 0.30292544E+03</pdfrwt>
<totfact> 0.56945617E+02</totfact>
</mgrwt>
</event>
<event>
 4    1  0.7354369E-001  0.1828998E+03  0.7546771E-02  0.1165026E+00
          1   -1    0    0  502    0  0.00000000000E+00  0.00000000000E+00  0.17087223843E+04  0.17087223843E+04  0.00000000000E+00 0. -1.
         -1   -1    0    0    0  501 -0.00000000000E+00 -0.00000000000E+00 -0.22908448738E+02  0.22908448738E+02  0.00000000000E+00 0.  1.
          6    1    1    2  502    0 -0.58275142880E+02  0.11283989322E+02  0.51275129402E+03  0.54439527020E+03  0.17300000000E+03 0.  1.
         -6    1    1    2    0  501  0.58275142880E+02 -0.11283989322E+02  0.11730626415E+04  0.11872355628E+04  0.17300000000E+03 0. -1.
<mgrwt>
<rscale>  2 0.18289976E+03</rscale>
<asrwt>0</asrwt>
<pdfrwt beam="1">  1        1 0.26288027E+00 0.18289976E+03</pdfrwt>
<pdfrwt beam="2">  1       -1 0.35243781E-02 0.18289976E+03</pdfrwt>
<totfact> 0.15549631E+03</totfact>
</mgrwt>
</event>
<event>
 4    1  0.7354369E-001  0.1995030E+03  0.7546771E-02  0.1150159E+00
         -1   -1    0    0    0  501 -0.00000000000E+00  0.00000000000E+00  0.25190527124E+03  0.25190527124E+03  0.00000000000E+00 0. -1.
          1   -1    0    0  502    0  0.00000000000E+00 -0.00000000000E+00 -0.16664711801E+03  0.16664711801E+03  0.00000000000E+00 0.  1.
          6    1    1    2  502    0  0.81675489671E+02  0.56582447194E+02 -0.50375193612E+01  0.19956661931E+03  0.17300000000E+03 0.  1.
         -6    1    1    2    0  501 -0.81675489671E+02 -0.56582447194E+02  0.90295672588E+02  0.21898576993E+03  0.17300000000E+03 0. -1.
<mgrwt>
<rscale>  2 0.19950303E+03</rscale>
<asrwt>0</asrwt>
<pdfrwt beam="1">  1        1 0.25638018E-01 0.19950303E+03</pdfrwt>
<pdfrwt beam="2">  1       -1 0.38754657E-01 0.19950303E+03</pdfrwt>
<totfact> 0.12033735E+03</totfact>
</mgrwt>
</event>
<event>
 4    1  0.7354369E-001  0.2088182E+03  0.7546771E-02  0.1142505E+00
          2   -1    0    0  502    0  0.00000000000E+00  0.00000000000E+00  0.25373737668E+04  0.25373737668E+04  0.00000000000E+00 0. -1.
         -2   -1    0    0    0  501 -0.00000000000E+00 -0.00000000000E+00 -0.27479265249E+02  0.27479265249E+02  0.00000000000E+00 0.  1.
          6    1    1    2  502    0 -0.11545109925E+03  0.18630587173E+02  0.20398669395E+04  0.20505272946E+04  0.17300000000E+03 0. -1.
         -6    1    1    2    0  501  0.11545109925E+03 -0.18630587173E+02  0.47002756202E+03  0.51432573741E+03  0.17300000000E+03 0.  1.
<mgrwt>
<rscale>  2 0.20881823E+03</rscale>
<asrwt>0</asrwt>
<pdfrwt beam="1">  1        2 0.39036501E+00 0.20881823E+03</pdfrwt>
<pdfrwt beam="2">  1       -2 0.42275813E-02 0.20881823E+03</pdfrwt>
<totfact> 0.97750326E+02</totfact>
</mgrwt>
</event>
<event>
 4    1  0.7354369E-001  0.2229638E+03  0.7546771E-02  0.1131693E+00
          2   -1    0    0  502    0  0.00000000000E+00  0.00000000000E+00  0.34759039591E+03  0.34759039591E+03  0.00000000000E+00 0.  1.
         -2   -1    0    0    0  501 -0.00000000000E+00 -0.00000000000E+00 -0.14767688269E+03  0.14767688269E+03  0.00000000000E+00 0. -1.
          6    1    1    2  502    0 -0.14015625533E+03  0.11835658034E+02  0.14392474447E+03  0.26538121783E+03  0.17300000000E+03 0. -1.
         -6    1    1    2    0  501  0.14015625533E+03 -0.11835658034E+02  0.55988768752E+02  0.22988606077E+03  0.17300000000E+03 0. -1.
<mgrwt>
<rscale>  2 0.22296381E+03</rscale>
<asrwt>0</asrwt>
<pdfrwt beam="1">  1        2 0.53475445E-01 0.22296381E+03</pdfrwt>
<pdfrwt beam="2">  1       -2 0.22719521E-01 0.22296381E+03</pdfrwt>
<totfact> 0.15600943E+03</totfact>
</mgrwt>
</event>
<event>
 4    1  0.7354369E-001  0.1933092E+03  0.7546771E-02  0.1155510E+00
          2   -1    0    0  502    0  0.00000000000E+00  0.00000000000E+00  0.58706441737E+03  0.58706441737E+03  0.00000000000E+00 0.  1.
         -2   -1    0    0    0  501 -0.00000000000E+00 -0.00000000000E+00 -0.76561254871E+02  0.76561254871E+02  0.00000000000E+00 0. -1.
          6    1    1    2  502    0 -0.67642866458E+02  0.53515191183E+02  0.39149696763E+03  0.43662147076E+03  0.17300000000E+03 0.  1.
         -6    1    1    2    0  501  0.67642866458E+02 -0.53515191183E+02  0.11900619487E+03  0.22700420148E+03  0.17300000000E+03 0. -1.
<mgrwt>
<rscale>  2 0.19330916E+03</rscale>
<asrwt>0</asrwt>
<pdfrwt beam="1">  1        2 0.90317600E-01 0.19330916E+03</pdfrwt>
<pdfrwt beam="2">  1       -2 0.11778655E-01 0.19330916E+03</pdfrwt>
<totfact> 0.26092861E+03</totfact>
</mgrwt>
</event>
<event>
 4    1  0.7354369E-001  0.2055107E+03  0.7546771E-02  0.1145171E+00
         -3   -1    0    0    0  501 -0.00000000000E+00  0.00000000000E+00  0.32191867917E+03  0.32191867917E+03  0.00000000000E+00 0.  1.
          3   -1    0    0  502    0  0.00000000000E+00 -0.00000000000E+00 -0.19416425526E+03  0.19416425526E+03  0.00000000000E+00 0. -1.
          6    1    1    2  502    0 -0.10984004188E+03 -0.15518003637E+02 -0.83070743270E+02  0.22166504376E+03  0.17300000000E+03 0. -1.
         -6    1    1    2    0  501  0.10984004188E+03  0.15518003637E+02  0.21082516718E+03  0.29441789068E+03  0.17300000000E+03 0. -1.
<mgrwt>
<rscale>  2 0.20551069E+03</rscale>
<asrwt>0</asrwt>
<pdfrwt beam="1">  1        3 0.29871424E-01 0.20551069E+03</pdfrwt>
<pdfrwt beam="2">  1       -3 0.49525951E-01 0.20551069E+03</pdfrwt>
<totfact> 0.10791113E+02</totfact>
</mgrwt>
</event>
<event>
 4    1  0.7354369E-001  0.2091250E+03  0.7546771E-02  0.1142261E+00
          2   -1    0    0  502    0  0.00000000000E+00  0.00000000000E+00  0.11752363053E+04  0.11752363053E+04  0.00000000000E+00 0. -1.
         -2   -1    0    0    0  501 -0.00000000000E+00 -0.00000000000E+00 -0.38978260206E+02  0.38978260206E+02  0.00000000000E+00 0.  1.
          6    1    1    2  502    0 -0.10609635239E+03  0.50475904907E+02  0.69735324901E+03  0.72803489399E+03  0.17300000000E+03 0. -1.
         -6    1    1    2    0  501  0.10609635239E+03 -0.50475904907E+02  0.43890479610E+03  0.48617967153E+03  0.17300000000E+03 0.  1.
<mgrwt>
<rscale>  2 0.20912497E+03</rscale>
<asrwt>0</asrwt>
<pdfrwt beam="1">  1        2 0.18080556E+00 0.20912497E+03</pdfrwt>
<pdfrwt beam="2">  1       -2 0.59966563E-02 0.20912497E+03</pdfrwt>
<totfact> 0.30458819E+03</totfact>
</mgrwt>
</event>
<event>
 4    1  0.7354369E-001  0.2865133E+03  0.7546771E-02  0.1092184E+00
          2   -1    0    0  502    0  0.00000000000E+00  0.00000000000E+00  0.13378606631E+04  0.13378606631E+04  0.00000000000E+00 0.  1.
         -2   -1    0    0    0  501 -0.00000000000E+00 -0.00000000000E+00 -0.62309225102E+02  0.62309225102E+02  0.00000000000E+00 0. -1.
          6    1    1    2  502    0 -0.14567398051E+02 -0.22792252480E+03  0.72422706522E+03  0.77884191489E+03  0.17300000000E+03 0.  1.
         -6    1    1    2    0  501  0.14567398051E+02  0.22792252480E+03  0.55132437280E+03  0.62132797332E+03  0.17300000000E+03 0. -1.
<mgrwt>
<rscale>  2 0.28651333E+03</rscale>
<asrwt>0</asrwt>
<pdfrwt beam="1">  1        2 0.20582470E+00 0.28651333E+03</pdfrwt>
<pdfrwt beam="2">  1       -2 0.95860356E-02 0.28651333E+03</pdfrwt>
<totfact> 0.11875318E+03</totfact>
</mgrwt>
</event>
<event>
 4    1  0.7354369E-001  0.2637632E+03  0.7546771E-02  0.1104903E+00
          1   -1    0    0  502    0  0.00000000000E+00  0.00000000000E+00  0.14852766701E+03  0.14852766701E+03  0.00000000000E+00 0. -1.
         -1   -1    0    0    0  501 -0.00000000000E+00 -0.00000000000E+00 -0.65859990165E+03  0.65859990165E+03  0.00000000000E+00 0.  1.
          6    1    1    2  502    0 -0.71913210211E+02 -0.18566230553E+03 -0.38165077294E+02  0.26650998972E+03  0.17300000000E+03 0. -1.
         -6    1    1    2    0  501  0.71913210211E+02  0.18566230553E+03 -0.47190715735E+03  0.54061757893E+03  0.17300000000E+03 0.  1.
<mgrwt>
<rscale>  2 0.26376315E+03</rscale>
<asrwt>0</asrwt>
<pdfrwt beam="1">  1        1 0.22850410E-01 0.26376315E+03</pdfrwt>
<pdfrwt beam="2">  1       -1 0.10132306E+00 0.26376315E+03</pdfrwt>
<totfact> 0.21146081E+02</totfact>
</mgrwt>
</event>
<event>
 4    1  0.7354369E-001  0.1978978E+03  0.7546771E-02  0.1151525E+00
         -1   -1    0    0    0  501 -0.00000000000E+00  0.00000000000E+00  0.20550191647E+03  0.20550191647E+03  0.00000000000E+00 0.  1.
          1   -1    0    0  502    0  0.00000000000E+00 -0.00000000000E+00 -0.54500952687E+03  0.54500952687E+03  0.00000000000E+00 0. -1.
          6    1    1    2  502    0 -0.92471935507E+02  0.26143519334E+02  0.13286313990E+03  0.23836139873E+03  0.17300000000E+03 0.  1.
         -6    1    1    2    0  501  0.92471935507E+02 -0.26143519334E+02 -0.47237075030E+03  0.51215004461E+03  0.17300000000E+03 0. -1.
<mgrwt>
<rscale>  2 0.19789781E+03</rscale>
<asrwt>0</asrwt>
<pdfrwt beam="1">  1        1 0.83847620E-01 0.19789781E+03</pdfrwt>
<pdfrwt beam="2">  1       -1 0.31615679E-01 0.19789781E+03</pdfrwt>
<totfact> 0.38003338E+02</totfact>
</mgrwt>
</event>
<event>
 4    1  0.7354369E-001  0.2235185E+03  0.7546771E-02  0.1131287E+00
         -2   -1    0    0    0  501 -0.00000000000E+00  0.00000000000E+00  0.42461274314E+02  0.42461274314E+02  0.00000000000E+00 0. -1.
          2   -1    0    0  502    0  0.00000000000E+00 -0.00000000000E+00 -0.17400821292E+04  0.17400821292E+04  0.00000000000E+00 0.  1.
          6    1    1    2  502    0 -0.89046549537E+02 -0.11001023496E+03 -0.34163309849E+03  0.40825692127E+03  0.17300000000E+03 0. -1.
         -6    1    1    2    0  501  0.89046549537E+02  0.11001023496E+03 -0.13559877564E+04  0.13742864822E+04  0.17300000000E+03 0.  1.
<mgrwt>
<rscale>  2 0.22351854E+03</rscale>
<asrwt>0</asrwt>
<pdfrwt beam="1">  1        2 0.26770497E+00 0.22351854E+03</pdfrwt>
<pdfrwt beam="2">  1       -2 0.65325030E-02 0.22351854E+03</pdfrwt>
<totfact> 0.13261078E+03</totfact>
</mgrwt>
</event>
<event>
 4    1  0.7354369E-001  0.2026081E+03  0.7546771E-02  0.1147557E+00
          1   -1    0    0  502    0  0.00000000000E+00  0.00000000000E+00  0.12624250622E+03  0.12624250622E+03  0.00000000000E+00 0. -1.
         -1   -1    0    0    0  501 -0.00000000000E+00 -0.00000000000E+00 -0.40165071033E+03  0.40165071033E+03  0.00000000000E+00 0.  1.
          6    1    1    2  502    0  0.88613716236E+02 -0.57172102034E+02 -0.25288304155E+03  0.32403683843E+03  0.17300000000E+03 0. -1.
         -6    1    1    2    0  501 -0.88613716236E+02  0.57172102034E+02 -0.22525162567E+02  0.20385637813E+03  0.17300000000E+03 0. -1.
<mgrwt>
<rscale>  2 0.20260809E+03</rscale>
<asrwt>0</asrwt>
<pdfrwt beam="1">  1        1 0.19421924E-01 0.20260809E+03</pdfrwt>
<pdfrwt beam="2">  1       -1 0.61792417E-01 0.20260809E+03</pdfrwt>
<totfact> 0.72775792E+02</totfact>
</mgrwt>
</event>
<event>
 4    1  0.7354369E-001  0.2695685E+03  0.7546771E-02  0.1101527E+00
         -2   -1    0    0    0  501 -0.00000000000E+00  0.00000000000E+00  0.41810120660E+03  0.41810120660E+03  0.00000000000E+00 0. -1.
          2   -1    0    0  502    0  0.00000000000E+00 -0.00000000000E+00 -0.26826158542E+03  0.26826158542E+03  0.00000000000E+00 0.  1.
          6    1    1    2  502    0 -0.20652851382E+03 -0.91732019418E+01  0.27856098508E+03  0.38763822962E+03  0.17300000000E+03 0. -1.
         -6    1    1    2    0  501  0.20652851382E+03  0.91732019418E+01 -0.12872136390E+03  0.29872456240E+03  0.17300000000E+03 0.  1.
<mgrwt>
<rscale>  2 0.26956850E+03</rscale>
<asrwt>0</asrwt>
<pdfrwt beam="1">  1        2 0.41271013E-01 0.26956850E+03</pdfrwt>
<pdfrwt beam="2">  1       -2 0.64323262E-01 0.26956850E+03</pdfrwt>
<totfact> 0.28388893E+02</totfact>
</mgrwt>
</event>
<event>
 4    1  0.7354369E-001  0.2048028E+03  0.7546771E-02  0.1145749E+00
         -1   -1    0    0    0  501 -0.00000000000E+00  0.00000000000E+00  0.31803483227E+02  0.31803483227E+02  0.00000000000E+00 0. -1.
          1   -1    0    0  502    0  0.00000000000E+00 -0.00000000000E+00 -0.16122213724E+04  0.16122213724E+04  0.00000000000E+00 0.  1.
          6    1    1    2  502    0 -0.10710685522E+03 -0.23309173697E+02 -0.11408565731E+04  0.11590935753E+04  0.17300000000E+03 0. -1.
         -6    1    1    2    0  501  0.10710685522E+03  0.23309173697E+02 -0.43956131611E+03  0.48493128033E+03  0.17300000000E+03 0. -1.
<mgrwt>
<rscale>  2 0.20480282E+03</rscale>
<asrwt>0</asrwt>
<pdfrwt beam="1">  1        1 0.24803408E+00 0.20480282E+03</pdfrwt>
<pdfrwt beam="2">  1       -1 0.48928431E-02 0.20480282E+03</pdfrwt>
<totfact> 0.11023867E+03</totfact>
</mgrwt>
</event>
<event>
 4    1  0.7354369E-001  0.4212086E+03  0.7546771E-02  0.1036674E+00
         -2   -1    0    0    0  501 -0.00000000000E+00  0.00000000000E+00  0.14875111919E+03  0.14875111919E+03  0.00000000000E+00 0. -1.
          2   -1    0    0  502    0  0.00000000000E+00 -0.00000000000E+00 -0.14091284122E+04  0.14091284122E+04  0.00000000000E+00 0.  1.
          6    1    1    2  502    0  0.13921471871E+03  0.35792030664E+03 -0.93545396799E+03  0.10259097475E+04  0.17300000000E+03 0.  1.
         -6    1    1    2    0  501 -0.13921471871E+03 -0.35792030664E+03 -0.32492332500E+03  0.53196978386E+03  0.17300000000E+03 0. -1.
<mgrwt>
<rscale>  2 0.42120860E+03</rscale>
<asrwt>0</asrwt>
<pdfrwt beam="1">  1        2 0.21678898E+00 0.42120860E+03</pdfrwt>
<pdfrwt beam="2">  1       -2 0.22884788E-01 0.42120860E+03</pdfrwt>
<totfact> 0.25053755E+02</totfact>
</mgrwt>
</event>
<event>
 4    1  0.7354369E-001  0.2148264E+03  0.7546771E-02  0.1137800E+00
          2   -1    0    0  502    0  0.00000000000E+00  0.00000000000E+00  0.67432354579E+03  0.67432354579E+03  0.00000000000E+00 0.  1.
         -2   -1    0    0    0  501 -0.00000000000E+00 -0.00000000000E+00 -0.68557772275E+02  0.68557772275E+02  0.00000000000E+00 0. -1.
          6    1    1    2  502    0  0.10876923435E+02  0.12689790617E+03  0.31830872628E+03  0.38401931108E+03  0.17300000000E+03 0.  1.
         -6    1    1    2    0  501 -0.10876923435E+02 -0.12689790617E+03  0.28745704723E+03  0.35886200699E+03  0.17300000000E+03 0. -1.
<mgrwt>
<rscale>  2 0.21482641E+03</rscale>
<asrwt>0</asrwt>
<pdfrwt beam="1">  1        2 0.10374208E+00 0.21482641E+03</pdfrwt>
<pdfrwt beam="2">  1       -2 0.10547350E-01 0.21482641E+03</pdfrwt>
<totfact> 0.26544921E+03</totfact>
</mgrwt>
</event>
<event>
 4    1  0.7354369E-001  0.2271955E+03  0.7546771E-02  0.1128629E+00
          2   -1    0    0  502    0  0.00000000000E+00  0.00000000000E+00  0.28317908003E+04  0.28317908003E+04  0.00000000000E+00 0. -1.
         -2   -1    0    0    0  501 -0.00000000000E+00 -0.00000000000E+00 -0.20323365031E+02  0.20323365031E+02  0.00000000000E+00 0.  1.
          6    1    1    2  502    0 -0.14466306490E+03  0.27593387270E+02  0.18636352218E+04  0.18774328316E+04  0.17300000000E+03 0.  1.
         -6    1    1    2    0  501  0.14466306490E+03 -0.27593387270E+02  0.94783221355E+03  0.97468133377E+03  0.17300000000E+03 0. -1.
<mgrwt>
<rscale>  2 0.22719550E+03</rscale>
<asrwt>0</asrwt>
<pdfrwt beam="1">  1        2 0.43565981E+00 0.22719550E+03</pdfrwt>
<pdfrwt beam="2">  1       -2 0.31266738E-02 0.22719550E+03</pdfrwt>
<totfact> 0.10481281E+03</totfact>
</mgrwt>
</event>
<event>
 4    1  0.7354369E-001  0.1907181E+03  0.7546771E-02  0.1157815E+00
          2   -1    0    0  502    0  0.00000000000E+00  0.00000000000E+00  0.28911701200E+04  0.28911701200E+04  0.00000000000E+00 0.  1.
         -2   -1    0    0    0  501 -0.00000000000E+00 -0.00000000000E+00 -0.16220435773E+02  0.16220435773E+02  0.00000000000E+00 0. -1.
          6    1    1    2  502    0  0.62985991257E+02 -0.49771090540E+02  0.21260759376E+04  0.21346129131E+04  0.17300000000E+03 0.  1.
         -6    1    1    2    0  501 -0.62985991257E+02  0.49771090540E+02  0.74887374662E+03  0.77277764261E+03  0.17300000000E+03 0. -1.
<mgrwt>
<rscale>  2 0.19071811E+03</rscale>
<asrwt>0</asrwt>
<pdfrwt beam="1">  1        2 0.44479499E+00 0.19071811E+03</pdfrwt>
<pdfrwt beam="2">  1       -2 0.24954540E-02 0.19071811E+03</pdfrwt>
<totfact> 0.13636033E+03</totfact>
</mgrwt>
</event>
<event>
 4    1  0.7354369E-001  0.2986481E+03  0.7546771E-02  0.1085918E+00
         -1   -1    0    0    0  501 -0.00000000000E+00  0.00000000000E+00  0.26805798040E+03  0.26805798040E+03  0.00000000000E+00 0.  1.
          1   -1    0    0  502    0  0.00000000000E+00 -0.00000000000E+00 -0.52965676173E+03  0.52965676173E+03  0.00000000000E+00 0. -1.
          6    1    1    2  502    0 -0.20938092709E+03  0.12418252873E+03 -0.37400511684E+03  0.47861310105E+03  0.17300000000E+03 0. -1.
         -6    1    1    2    0  501  0.20938092709E+03 -0.12418252873E+03  0.11240633552E+03  0.31910164107E+03  0.17300000000E+03 0. -1.
<mgrwt>
<rscale>  2 0.29864808E+03</rscale>
<asrwt>0</asrwt>
<pdfrwt beam="1">  1        1 0.81485655E-01 0.29864808E+03</pdfrwt>
<pdfrwt beam="2">  1       -1 0.41239689E-01 0.29864808E+03</pdfrwt>
<totfact> 0.24566107E+02</totfact>
</mgrwt>
</event>
<event>
 4    1  0.7354369E-001  0.6609145E+03  0.7546771E-02  0.9786512E-01
         -2   -1    0    0    0  501 -0.00000000000E+00  0.00000000000E+00  0.41025747282E+03  0.41025747282E+03  0.00000000000E+00 0.  1.
          2   -1    0    0  502    0  0.00000000000E+00 -0.00000000000E+00 -0.12414772561E+04  0.12414772561E+04  0.00000000000E+00 0. -1.
          6    1    1    2  502    0 -0.28191962053E+03 -0.57218907294E+03 -0.72723577696E+03  0.98269012558E+03  0.17300000000E+03 0. -1.
         -6    1    1    2    0  501  0.28191962053E+03  0.57218907294E+03 -0.10398400629E+03  0.66904460330E+03  0.17300000000E+03 0.  1.
<mgrwt>
<rscale>  2 0.66091452E+03</rscale>
<asrwt>0</asrwt>
<pdfrwt beam="1">  1        2 0.19099650E+00 0.66091452E+03</pdfrwt>
<pdfrwt beam="2">  1       -2 0.63116535E-01 0.66091452E+03</pdfrwt>
<totfact> 0.42785327E+01</totfact>
</mgrwt>
</event>
<event>
 4    1  0.7354369E-001  0.1940736E+03  0.7546771E-02  0.1154838E+00
         -2   -1    0    0    0  501 -0.00000000000E+00  0.00000000000E+00  0.15147951318E+02  0.15147951318E+02  0.00000000000E+00 0. -1.
          2   -1    0    0  502    0  0.00000000000E+00 -0.00000000000E+00 -0.26630938534E+04  0.26630938534E+04  0.00000000000E+00 0.  1.
          6    1    1    2  502    0  0.76133594439E+02 -0.44036565500E+02 -0.16688643235E+04  0.16801109111E+04  0.17300000000E+03 0.  1.
         -6    1    1    2    0  501 -0.76133594439E+02  0.44036565500E+02 -0.97908157861E+03  0.99813089366E+03  0.17300000000E+03 0. -1.
<mgrwt>
<rscale>  2 0.19407355E+03</rscale>
<asrwt>0</asrwt>
<pdfrwt beam="1">  1        2 0.40970656E+00 0.19407355E+03</pdfrwt>
<pdfrwt beam="2">  1       -2 0.23304551E-02 0.19407355E+03</pdfrwt>
<totfact> 0.20261557E+03</totfact>
</mgrwt>
</event>
<event>
 4    1  0.7354369E-001  0.2983996E+03  0.7546771E-02  0.1086043E+00
          1   -1    0    0  502    0  0.00000000000E+00  0.00000000000E+00  0.24583597259E+04  0.24583597259E+04  0.00000000000E+00 0. -1.
         -1   -1    0    0    0  501 -0.00000000000E+00 -0.00000000000E+00 -0.38690528876E+02  0.38690528876E+02  0.00000000000E+00 0.  1.
          6    1    1    2  502    0 -0.24801192976E+02  0.24186408473E+03  0.89435562354E+03  0.94282252625E+03  0.17300000000E+03 0.  1.
         -6    1    1    2    0  501  0.24801192976E+02 -0.24186408473E+03  0.15253135735E+04  0.15542277285E+04  0.17300000000E+03 0. -1.
<mgrwt>
<rscale>  2 0.29839962E+03</rscale>
<asrwt>0</asrwt>
<pdfrwt beam="1">  1        1 0.37820907E+00 0.29839962E+03</pdfrwt>
<pdfrwt beam="2">  1       -1 0.59523910E-02 0.29839962E+03</pdfrwt>
<totfact> 0.22717692E+02</totfact>
</mgrwt>
</event>
<event>
 4    1  0.7354369E-001  0.1738699E+03  0.7546771E-02  0.1173871E+00
          2   -1    0    0  502    0  0.00000000000E+00  0.00000000000E+00  0.74806487350E+03  0.74806487350E+03  0.00000000000E+00 0. -1.
         -2   -1    0    0    0  501 -0.00000000000E+00 -0.00000000000E+00 -0.41484819817E+02  0.41484819817E+02  0.00000000000E+00 0.  1.
          6    1    1    2  502    0 -0.12182010263E+02 -0.12382673435E+02  0.28980284683E+03  0.33795920169E+03  0.17300000000E+03 0. -1.
         -6    1    1    2    0  501  0.12182010263E+02  0.12382673435E+02  0.41677720685E+03  0.45159049162E+03  0.17300000000E+03 0. -1.
<mgrwt>
<rscale>  2 0.17386987E+03</rscale>
<asrwt>0</asrwt>
<pdfrwt beam="1">  1        2 0.11508689E+00 0.17386987E+03</pdfrwt>
<pdfrwt beam="2">  1       -2 0.63822805E-02 0.17386987E+03</pdfrwt>
<totfact> 0.50953354E+03</totfact>
</mgrwt>
</event>
<event>
 4    1  0.7354369E-001  0.2197691E+03  0.7546771E-02  0.1134055E+00
         -2   -1    0    0    0  501 -0.00000000000E+00  0.00000000000E+00  0.16793099482E+03  0.16793099482E+03  0.00000000000E+00 0.  1.
          2   -1    0    0  502    0  0.00000000000E+00 -0.00000000000E+00 -0.76358334337E+03  0.76358334337E+03  0.00000000000E+00 0. -1.
          6    1    1    2  502    0 -0.11238306890E+03 -0.75759492421E+02  0.69898799673E+02  0.23061720895E+03  0.17300000000E+03 0.  1.
         -6    1    1    2    0  501  0.11238306890E+03  0.75759492421E+02 -0.66555114822E+03  0.70089712924E+03  0.17300000000E+03 0. -1.
<mgrwt>
<rscale>  2 0.21976909E+03</rscale>
<asrwt>0</asrwt>
<pdfrwt beam="1">  1        2 0.11747436E+00 0.21976909E+03</pdfrwt>
<pdfrwt beam="2">  1       -2 0.25835537E-01 0.21976909E+03</pdfrwt>
<totfact> 0.50905530E+02</totfact>
</mgrwt>
</event>
<event>
 4    1  0.7354369E-001  0.2232025E+03  0.7546771E-02  0.1131518E+00
         -2   -1    0    0    0  501 -0.00000000000E+00  0.00000000000E+00  0.43111303218E+02  0.43111303218E+02  0.00000000000E+00 0.  1.
          2   -1    0    0  502    0  0.00000000000E+00 -0.00000000000E+00 -0.11672847191E+04  0.11672847191E+04  0.00000000000E+00 0. -1.
          6    1    1    2  502    0  0.63808952187E+02  0.12577272122E+03 -0.50153239958E+03  0.54895729125E+03  0.17300000000E+03 0. -1.
         -6    1    1    2    0  501 -0.63808952187E+02 -0.12577272122E+03 -0.62264101633E+03  0.66143873110E+03  0.17300000000E+03 0.  1.
<mgrwt>
<rscale>  2 0.22320251E+03</rscale>
<asrwt>0</asrwt>
<pdfrwt beam="1">  1        2 0.17958224E+00 0.22320251E+03</pdfrwt>
<pdfrwt beam="2">  1       -2 0.66325090E-02 0.22320251E+03</pdfrwt>
<totfact> 0.26379492E+03</totfact>
</mgrwt>
</event>
<event>
 4    1  0.7354369E-001  0.2108237E+03  0.7546771E-02  0.1140915E+00
         -2   -1    0    0    0  501 -0.00000000000E+00  0.00000000000E+00  0.61115363428E+02  0.61115363428E+02  0.00000000000E+00 0.  1.
          2   -1    0    0  502    0  0.00000000000E+00 -0.00000000000E+00 -0.79421425136E+03  0.79421425136E+03  0.00000000000E+00 0. -1.
          6    1    1    2  502    0  0.91966858702E+02  0.77844169288E+02 -0.24237527584E+03  0.32123572673E+03  0.17300000000E+03 0.  1.
         -6    1    1    2    0  501 -0.91966858702E+02 -0.77844169288E+02 -0.49072361209E+03  0.53409388805E+03  0.17300000000E+03 0. -1.
<mgrwt>
<rscale>  2 0.21082367E+03</rscale>
<asrwt>0</asrwt>
<pdfrwt beam="1">  1        2 0.12218680E+00 0.21082367E+03</pdfrwt>
<pdfrwt beam="2">  1       -2 0.94023644E-02 0.21082367E+03</pdfrwt>
<totfact> 0.26049788E+03</totfact>
</mgrwt>
</event>
<event>
 4    1  0.7354369E-001  0.2981615E+03  0.7546771E-02  0.1086163E+00
          1   -1    0    0  502    0  0.00000000000E+00  0.00000000000E+00  0.21044271403E+04  0.21044271403E+04  0.00000000000E+00 0. -1.
         -1   -1    0    0    0  501 -0.00000000000E+00 -0.00000000000E+00 -0.43863200964E+02  0.43863200964E+02  0.00000000000E+00 0.  1.
          6    1    1    2  502    0 -0.20343490901E+03  0.13261034297E+03  0.12366342777E+04  0.12720709894E+04  0.17300000000E+03 0. -1.
         -6    1    1    2    0  501  0.20343490901E+03 -0.13261034297E+03  0.82392966159E+03  0.87621935182E+03  0.17300000000E+03 0.  1.
<mgrwt>
<rscale>  2 0.29816148E+03</rscale>
<asrwt>0</asrwt>
<pdfrwt beam="1">  1        1 0.32375794E+00 0.29816148E+03</pdfrwt>
<pdfrwt beam="2">  1       -1 0.67481864E-02 0.29816148E+03</pdfrwt>
<totfact> 0.32093467E+02</totfact>
</mgrwt>
</event>
<event>
 4    1  0.7354369E-001  0.1919823E+03  0.7546771E-02  0.1156685E+00
         -2   -1    0    0    0  501 -0.00000000000E+00  0.00000000000E+00  0.12840347977E+03  0.12840347977E+03  0.00000000000E+00 0.  1.
          2   -1    0    0  502    0  0.00000000000E+00 -0.00000000000E+00 -0.29191678414E+03  0.29191678414E+03  0.00000000000E+00 0. -1.
          6    1    1    2  502    0 -0.15248994694E+02  0.81827163135E+02 -0.54599146354E+02  0.19959529866E+03  0.17300000000E+03 0.  1.
         -6    1    1    2    0  501  0.15248994694E+02 -0.81827163135E+02 -0.10891415802E+03  0.22072496525E+03  0.17300000000E+03 0.  1.
<mgrwt>
<rscale>  2 0.19198233E+03</rscale>
<asrwt>0</asrwt>
<pdfrwt beam="1">  1        2 0.44910274E-01 0.19198233E+03</pdfrwt>
<pdfrwt beam="2">  1       -2 0.19754382E-01 0.19198233E+03</pdfrwt>
<totfact> 0.23844928E+03</totfact>
</mgrwt>
</event>
<event>
 4    1  0.7354369E-001  0.1858592E+03  0.7546771E-02  0.1162250E+00
          1   -1    0    0  502    0  0.00000000000E+00  0.00000000000E+00  0.60764263351E+03  0.60764263351E+03  0.00000000000E+00 0.  1.
         -1   -1    0    0    0  501 -0.00000000000E+00 -0.00000000000E+00 -0.68217744409E+02  0.68217744409E+02  0.00000000000E+00 0. -1.
          6    1    1    2  502    0  0.67926805052E+02 -0.75696283343E+00  0.40766904800E+03  0.44803758384E+03  0.17300000000E+03 0.  1.
         -6    1    1    2    0  501 -0.67926805052E+02  0.75696283343E+00  0.13175584110E+03  0.22782279408E+03  0.17300000000E+03 0. -1.
<mgrwt>
<rscale>  2 0.18585915E+03</rscale>
<asrwt>0</asrwt>
<pdfrwt beam="1">  1        1 0.93483479E-01 0.18585915E+03</pdfrwt>
<pdfrwt beam="2">  1       -1 0.10495038E-01 0.18585915E+03</pdfrwt>
<totfact> 0.19379887E+03</totfact>
</mgrwt>
</event>
<event>
 4    1  0.7354369E-001  0.2003341E+03  0.7546771E-02  0.1149457E+00
         -2   -1    0    0    0  501 -0.00000000000E+00  0.00000000000E+00  0.12797233401E+03  0.12797233401E+03  0.00000000000E+00 0.  1.
          2   -1    0    0  502    0  0.00000000000E+00 -0.00000000000E+00 -0.35676270347E+03  0.35676270347E+03  0.00000000000E+00 0. -1.
          6    1    1    2  502    0 -0.22830936507E+02 -0.98404707011E+02 -0.30105282436E+02  0.20258347922E+03  0.17300000000E+03 0.  1.
         -6    1    1    2    0  501  0.22830936507E+02  0.98404707011E+02 -0.19868508702E+03  0.28215155826E+03  0.17300000000E+03 0. -1.
<mgrwt>
<rscale>  2 0.20033407E+03</rscale>
<asrwt>0</asrwt>
<pdfrwt beam="1">  1        2 0.54886570E-01 0.20033407E+03</pdfrwt>
<pdfrwt beam="2">  1       -2 0.19688051E-01 0.20033407E+03</pdfrwt>
<totfact> 0.19361040E+03</totfact>
</mgrwt>
</event>
<event>
 4    1  0.7354369E-001  0.1735024E+03  0.7546771E-02  0.1174244E+00
         -2   -1    0    0    0  501 -0.00000000000E+00  0.00000000000E+00  0.61268699905E+02  0.61268699905E+02  0.00000000000E+00 0. -1.
          2   -1    0    0  502    0  0.00000000000E+00 -0.00000000000E+00 -0.13251320404E+04  0.13251320404E+04  0.00000000000E+00 0.  1.
          6    1    1    2  502    0  0.97389187737E+01  0.89010105944E+01 -0.82060427544E+02  0.19192964413E+03  0.17300000000E+03 0. -1.
         -6    1    1    2    0  501 -0.97389187737E+01 -0.89010105944E+01 -0.11818029130E+04  0.11944710962E+04  0.17300000000E+03 0.  1.
<mgrwt>
<rscale>  2 0.17350238E+03</rscale>
<asrwt>0</asrwt>
<pdfrwt beam="1">  1        2 0.20386644E+00 0.17350238E+03</pdfrwt>
<pdfrwt beam="2">  1       -2 0.94259552E-02 0.17350238E+03</pdfrwt>
<totfact> 0.12466781E+03</totfact>
</mgrwt>
</event>
<event>
 4    1  0.7354369E-001  0.3323530E+03  0.7546771E-02  0.1070100E+00
          2   -1    0    0  502    0  0.00000000000E+00  0.00000000000E+00  0.12666440124E+04  0.12666440124E+04  0.00000000000E+00 0.  1.
         -2   -1    0    0    0  501 -0.00000000000E+00 -0.00000000000E+00 -0.13865671107E+03  0.13865671107E+03  0.00000000000E+00 0. -1.
          6    1    1    2  502    0 -0.11624769771E+03 -0.25887446464E+03  0.13597175062E+03  0.35909167719E+03  0.17300000000E+03 0. -1.
         -6    1    1    2    0  501  0.11624769771E+03  0.25887446464E+03  0.99201555066E+03  0.10462090462E+04  0.17300000000E+03 0.  1.
<mgrwt>
<rscale>  2 0.33235300E+03</rscale>
<asrwt>0</asrwt>
<pdfrwt beam="1">  1        2 0.19486830E+00 0.33235300E+03</pdfrwt>
<pdfrwt beam="2">  1       -2 0.21331803E-01 0.33235300E+03</pdfrwt>
<totfact> 0.34389975E+02</totfact>
</mgrwt>
</event>
<event>
 4    1  0.7354369E-001  0.2047292E+03  0.7546771E-02  0.1145809E+00
         -2   -1    0    0    0  501 -0.00000000000E+00  0.00000000000E+00  0.29666037855E+03  0.29666037855E+03  0.00000000000E+00 0. -1.
          2   -1    0    0  502    0  0.00000000000E+00 -0.00000000000E+00 -0.15364196191E+03  0.15364196191E+03  0.00000000000E+00 0.  1.
          6    1    1    2  502    0  0.36809274451E+02  0.10310248511E+03  0.76604552636E+01  0.20487246691E+03  0.17300000000E+03 0.  1.
         -6    1    1    2    0  501 -0.36809274451E+02 -0.10310248511E+03  0.13535796138E+03  0.24542987355E+03  0.17300000000E+03 0.  1.
<mgrwt>
<rscale>  2 0.20472920E+03</rscale>
<asrwt>0</asrwt>
<pdfrwt beam="1">  1        2 0.23637225E-01 0.20472920E+03</pdfrwt>
<pdfrwt beam="2">  1       -2 0.45640058E-01 0.20472920E+03</pdfrwt>
<totfact> 0.10499315E+03</totfact>
</mgrwt>
</event>
<event>
 4    1  0.7354369E-001  0.2615753E+03  0.7546771E-02  0.1106200E+00
          2   -1    0    0  502    0  0.00000000000E+00  0.00000000000E+00  0.48153895475E+03  0.48153895475E+03  0.00000000000E+00 0.  1.
         -2   -1    0    0    0  501 -0.00000000000E+00 -0.00000000000E+00 -0.17020973434E+03  0.17020973434E+03  0.00000000000E+00 0. -1.
          6    1    1    2  502    0  0.49807079943E+02 -0.18976803811E+03  0.28811921269E+03  0.38914564654E+03  0.17300000000E+03 0.  1.
         -6    1    1    2    0  501 -0.49807079943E+02  0.18976803811E+03  0.23210007723E+02  0.26260304256E+03  0.17300000000E+03 0. -1.
<mgrwt>
<rscale>  2 0.26157533E+03</rscale>
<asrwt>0</asrwt>
<pdfrwt beam="1">  1        2 0.74082916E-01 0.26157533E+03</pdfrwt>
<pdfrwt beam="2">  1       -2 0.26186113E-01 0.26157533E+03</pdfrwt>
<totfact> 0.85197031E+02</totfact>
</mgrwt>
</event>
<event>
 4    1  0.7354369E-001  0.1857637E+03  0.7546771E-02  0.1162339E+00
          1   -1    0    0  502    0  0.00000000000E+00  0.00000000000E+00  0.22082253256E+03  0.22082253256E+03  0.00000000000E+00 0. -1.
         -1   -1    0    0    0  501 -0.00000000000E+00 -0.00000000000E+00 -0.49373482981E+03  0.49373482981E+03  0.00000000000E+00 0.  1.
          6    1    1    2  502    0 -0.66218852521E+02 -0.13936423360E+02 -0.43183121265E+03  0.47009185969E+03  0.17300000000E+03 0.  1.
         -6    1    1    2    0  501  0.66218852521E+02  0.13936423360E+02  0.15891891541E+03  0.24446550268E+03  0.17300000000E+03 0. -1.
<mgrwt>
<rscale>  2 0.18576372E+03</rscale>
<asrwt>0</asrwt>
<pdfrwt beam="1">  1        1 0.33972698E-01 0.18576372E+03</pdfrwt>
<pdfrwt beam="2">  1       -1 0.75959204E-01 0.18576372E+03</pdfrwt>
<totfact> 0.23825325E+02</totfact>
</mgrwt>
</event>
<event>
 4    1  0.7354369E-001  0.2045127E+03  0.7546771E-02  0.1145987E+00
          2   -1    0    0  502    0  0.00000000000E+00  0.00000000000E+00  0.14840483955E+04  0.14840483955E+04  0.00000000000E+00 0. -1.
         -2   -1    0    0    0  501 -0.00000000000E+00 -0.00000000000E+00 -0.28268482202E+02  0.28268482202E+02  0.00000000000E+00 0.  1.
          6    1    1    2  502    0 -0.92365257498E+02  0.58009466677E+02  0.76938885417E+03  0.79610592759E+03  0.17300000000E+03 0. -1.
         -6    1    1    2    0  501  0.92365257498E+02 -0.58009466677E+02  0.68639105914E+03  0.71621095013E+03  0.17300000000E+03 0.  1.
<mgrwt>
<rscale>  2 0.20451269E+03</rscale>
<asrwt>0</asrwt>
<pdfrwt beam="1">  1        2 0.22831508E+00 0.20451269E+03</pdfrwt>
<pdfrwt beam="2">  1       -2 0.43489984E-02 0.20451269E+03</pdfrwt>
<totfact> 0.33619153E+03</totfact>
</mgrwt>
</event>
<event>
 4    1  0.7354369E-001  0.1974688E+03  0.7546771E-02  0.1151892E+00
          1   -1    0    0  502    0  0.00000000000E+00  0.00000000000E+00  0.76849171882E+03  0.76849171882E+03  0.00000000000E+00 0. -1.
         -1   -1    0    0    0  501 -0.00000000000E+00 -0.00000000000E+00 -0.63373320496E+02  0.63373320496E+02  0.00000000000E+00 0.  1.
          6    1    1    2  502    0  0.39539164144E+01  0.95127820833E+02  0.53825988482E+03  0.57333902654E+03  0.17300000000E+03 0. -1.
         -6    1    1    2    0  501 -0.39539164144E+01 -0.95127820833E+02  0.16685851351E+03  0.25852601277E+03  0.17300000000E+03 0.  1.
<mgrwt>
<rscale>  2 0.19746882E+03</rscale>
<asrwt>0</asrwt>
<pdfrwt beam="1">  1        1 0.11822949E+00 0.19746882E+03</pdfrwt>
<pdfrwt beam="2">  1       -1 0.97497421E-02 0.19746882E+03</pdfrwt>
<totfact> 0.15502841E+03</totfact>
</mgrwt>
</event>
<event>
 4    1  0.7354369E-001  0.1991611E+03  0.7546771E-02  0.1150449E+00
          2   -1    0    0  502    0  0.00000000000E+00  0.00000000000E+00  0.69721744988E+03  0.69721744988E+03  0.00000000000E+00 0.  1.
         -2   -1    0    0    0  501 -0.00000000000E+00 -0.00000000000E+00 -0.56908565726E+02  0.56908565726E+02  0.00000000000E+00 0. -1.
          6    1    1    2  502    0  0.86073890763E+02 -0.48243434249E+02  0.32684744828E+03  0.38274586617E+03  0.17300000000E+03 0.  1.
         -6    1    1    2    0  501 -0.86073890763E+02  0.48243434249E+02  0.31346143588E+03  0.37138014944E+03  0.17300000000E+03 0. -1.
<mgrwt>
<rscale>  2 0.19916110E+03</rscale>
<asrwt>0</asrwt>
<pdfrwt beam="1">  1        2 0.10726422E+00 0.19916110E+03</pdfrwt>
<pdfrwt beam="2">  1       -2 0.87551644E-02 0.19916110E+03</pdfrwt>
<totfact> 0.34172231E+03</totfact>
</mgrwt>
</event>
<event>
 4    1  0.7354369E-001  0.1781020E+03  0.7546771E-02  0.1169653E+00
          1   -1    0    0  502    0  0.00000000000E+00  0.00000000000E+00  0.48157909382E+03  0.48157909382E+03  0.00000000000E+00 0.  1.
         -1   -1    0    0    0  501 -0.00000000000E+00 -0.00000000000E+00 -0.68923753175E+02  0.68923753175E+02  0.00000000000E+00 0. -1.
          6    1    1    2  502    0 -0.28988665822E+02  0.30837684591E+02  0.14836407287E+03  0.23180207863E+03  0.17300000000E+03 0. -1.
         -6    1    1    2    0  501  0.28988665822E+02 -0.30837684591E+02  0.26429126777E+03  0.31870076837E+03  0.17300000000E+03 0.  1.
<mgrwt>
<rscale>  2 0.17810195E+03</rscale>
<asrwt>0</asrwt>
<pdfrwt beam="1">  1        1 0.74089089E-01 0.17810195E+03</pdfrwt>
<pdfrwt beam="2">  1       -1 0.10603655E-01 0.17810195E+03</pdfrwt>
<totfact> 0.26027961E+03</totfact>
</mgrwt>
</event>
<event>
 4    1  0.7354369E-001  0.2737311E+03  0.7546771E-02  0.1099163E+00
         -1   -1    0    0    0  501 -0.00000000000E+00  0.00000000000E+00  0.91305284813E+02  0.91305284813E+02  0.00000000000E+00 0. -1.
          1   -1    0    0  502    0  0.00000000000E+00 -0.00000000000E+00 -0.82101513840E+03  0.82101513840E+03  0.00000000000E+00 0.  1.
          6    1    1    2  502    0  0.20481318460E+03  0.55238106871E+02 -0.37461703200E+03  0.46396832834E+03  0.17300000000E+03 0. -1.
         -6    1    1    2    0  501 -0.20481318460E+03 -0.55238106871E+02 -0.35509282159E+03  0.44835209488E+03  0.17300000000E+03 0.  1.
<mgrwt>
<rscale>  2 0.27373105E+03</rscale>
<asrwt>0</asrwt>
<pdfrwt beam="1">  1        1 0.12631002E+00 0.27373105E+03</pdfrwt>
<pdfrwt beam="2">  1       -1 0.14046967E-01 0.27373105E+03</pdfrwt>
<totfact> 0.79195553E+02</totfact>
</mgrwt>
</event>
<event>
 4    1  0.7354369E-001  0.1850087E+03  0.7546771E-02  0.1163042E+00
         -4   -1    0    0    0  501 -0.00000000000E+00  0.00000000000E+00  0.25165583214E+03  0.25165583214E+03  0.00000000000E+00 0.  1.
          4   -1    0    0  502    0  0.00000000000E+00 -0.00000000000E+00 -0.16441751164E+03  0.16441751164E+03  0.00000000000E+00 0. -1.
          6    1    1    2  502    0  0.56905841241E+02 -0.32572251993E+02 -0.42851099809E+02  0.18990640622E+03  0.17300000000E+03 0. -1.
         -6    1    1    2    0  501 -0.56905841241E+02  0.32572251993E+02  0.13008942031E+03  0.22616693756E+03  0.17300000000E+03 0.  1.
<mgrwt>
<rscale>  2 0.18500872E+03</rscale>
<asrwt>0</asrwt>
<pdfrwt beam="1">  1        4 0.25295002E-01 0.18500872E+03</pdfrwt>
<pdfrwt beam="2">  1       -4 0.38716282E-01 0.18500872E+03</pdfrwt>
<totfact> 0.16710305E+02</totfact>
</mgrwt>
</event>
<event>
 4    1  0.7354369E-001  0.2329689E+03  0.7546771E-02  0.1124567E+00
         -1   -1    0    0    0  501 -0.00000000000E+00  0.00000000000E+00  0.51649393684E+03  0.51649393684E+03  0.00000000000E+00 0. -1.
          1   -1    0    0  502    0  0.00000000000E+00 -0.00000000000E+00 -0.17118422060E+03  0.17118422060E+03  0.00000000000E+00 0.  1.
          6    1    1    2  502    0  0.57590874558E+02 -0.14501318157E+03  0.38631788947E+03  0.45112752453E+03  0.17300000000E+03 0. -1.
         -6    1    1    2    0  501 -0.57590874558E+02  0.14501318157E+03 -0.41008173233E+02  0.23655063292E+03  0.17300000000E+03 0.  1.
<mgrwt>
<rscale>  2 0.23296895E+03</rscale>
<asrwt>0</asrwt>
<pdfrwt beam="1">  1        1 0.26336034E-01 0.23296895E+03</pdfrwt>
<pdfrwt beam="2">  1       -1 0.79460605E-01 0.23296895E+03</pdfrwt>
<totfact> 0.29822477E+02</totfact>
</mgrwt>
</event>
<event>
 4    1  0.7354369E-001  0.2670628E+03  0.7546771E-02  0.1102972E+00
         -2   -1    0    0    0  501 -0.00000000000E+00  0.00000000000E+00  0.68697524536E+02  0.68697524536E+02  0.00000000000E+00 0.  1.
          2   -1    0    0  502    0  0.00000000000E+00 -0.00000000000E+00 -0.10797621520E+04  0.10797621520E+04  0.00000000000E+00 0. -1.
          6    1    1    2  502    0  0.20180645902E+03 -0.25840257915E+02 -0.39288776417E+03  0.47506142873E+03  0.17300000000E+03 0.  1.
         -6    1    1    2    0  501 -0.20180645902E+03  0.25840257915E+02 -0.61817686325E+03  0.67339824776E+03  0.17300000000E+03 0. -1.
<mgrwt>
<rscale>  2 0.26706285E+03</rscale>
<asrwt>0</asrwt>
<pdfrwt beam="1">  1        2 0.16611725E+00 0.26706285E+03</pdfrwt>
<pdfrwt beam="2">  1       -2 0.10568850E-01 0.26706285E+03</pdfrwt>
<totfact> 0.14268661E+03</totfact>
</mgrwt>
</event>
<event>
 4    1  0.7354369E-001  0.1906921E+03  0.7546771E-02  0.1157839E+00
         -1   -1    0    0    0  501 -0.00000000000E+00  0.00000000000E+00  0.59576075359E+02  0.59576075359E+02  0.00000000000E+00 0. -1.
          1   -1    0    0  502    0  0.00000000000E+00 -0.00000000000E+00 -0.71539180756E+03  0.71539180756E+03  0.00000000000E+00 0.  1.
          6    1    1    2  502    0 -0.46957144865E+02 -0.65034519541E+02 -0.17944391364E+03  0.26184648237E+03  0.17300000000E+03 0. -1.
         -6    1    1    2    0  501  0.46957144865E+02  0.65034519541E+02 -0.47637181856E+03  0.51312140055E+03  0.17300000000E+03 0.  1.
<mgrwt>
<rscale>  2 0.19069206E+03</rscale>
<asrwt>0</asrwt>
<pdfrwt beam="1">  1        1 0.11006028E+00 0.19069206E+03</pdfrwt>
<pdfrwt beam="2">  1       -1 0.91655495E-02 0.19069206E+03</pdfrwt>
<totfact> 0.18941680E+03</totfact>
</mgrwt>
</event>
<event>
 4    1  0.7354369E-001  0.2197859E+03  0.7546771E-02  0.1134043E+00
         -1   -1    0    0    0  501 -0.00000000000E+00  0.00000000000E+00  0.35948058525E+03  0.35948058525E+03  0.00000000000E+00 0. -1.
          1   -1    0    0  502    0  0.00000000000E+00 -0.00000000000E+00 -0.13542998764E+03  0.13542998764E+03  0.00000000000E+00 0.  1.
          6    1    1    2  502    0  0.11447144564E+03 -0.72616435912E+02  0.90203645613E+02  0.23757642205E+03  0.17300000000E+03 0. -1.
         -6    1    1    2    0  501 -0.11447144564E+03  0.72616435912E+02  0.13384695200E+03  0.25733415084E+03  0.17300000000E+03 0.  1.
<mgrwt>
<rscale>  2 0.21978594E+03</rscale>
<asrwt>0</asrwt>
<pdfrwt beam="1">  1        1 0.20835383E-01 0.21978594E+03</pdfrwt>
<pdfrwt beam="2">  1       -1 0.55304705E-01 0.21978594E+03</pdfrwt>
<totfact> 0.82221019E+02</totfact>
</mgrwt>
</event>
<event>
 4    1  0.7354369E-001  0.2657503E+03  0.7546771E-02  0.1103737E+00
         -2   -1    0    0    0  501 -0.00000000000E+00  0.00000000000E+00  0.19464066477E+03  0.19464066477E+03  0.00000000000E+00 0.  1.
          2   -1    0    0  502    0  0.00000000000E+00 -0.00000000000E+00 -0.47747915254E+03  0.47747915254E+03  0.00000000000E+00 0. -1.
          6    1    1    2  502    0  0.87851262052E+02  0.18159402475E+03  0.23248213282E+02  0.26676527789E+03  0.17300000000E+03 0. -1.
         -6    1    1    2    0  501 -0.87851262052E+02 -0.18159402475E+03 -0.30608670105E+03  0.40535453942E+03  0.17300000000E+03 0.  1.
<mgrwt>
<rscale>  2 0.26575032E+03</rscale>
<asrwt>0</asrwt>
<pdfrwt beam="1">  1        2 0.73458331E-01 0.26575032E+03</pdfrwt>
<pdfrwt beam="2">  1       -2 0.29944718E-01 0.26575032E+03</pdfrwt>
<totfact> 0.67538750E+02</totfact>
</mgrwt>
</event>
<event>
 4    1  0.7354369E-001  0.2051332E+03  0.7546771E-02  0.1145479E+00
          1   -1    0    0  502    0  0.00000000000E+00  0.00000000000E+00  0.50748183302E+03  0.50748183302E+03  0.00000000000E+00 0. -1.
         -1   -1    0    0    0  501 -0.00000000000E+00 -0.00000000000E+00 -0.10813925924E+03  0.10813925924E+03  0.00000000000E+00 0.  1.
          6    1    1    2  502    0  0.67147086608E+02  0.87417928697E+02  0.51019205287E+02  0.21138255559E+03  0.17300000000E+03 0.  1.
         -6    1    1    2    0  501 -0.67147086608E+02 -0.87417928697E+02  0.34832336850E+03  0.40423853668E+03  0.17300000000E+03 0. -1.
<mgrwt>
<rscale>  2 0.20513319E+03</rscale>
<asrwt>0</asrwt>
<pdfrwt beam="1">  1        1 0.78074126E-01 0.20513319E+03</pdfrwt>
<pdfrwt beam="2">  1       -1 0.16636809E-01 0.20513319E+03</pdfrwt>
<totfact> 0.12026244E+03</totfact>
</mgrwt>
</event>
<event>
 4    1  0.7354369E-001  0.1998128E+03  0.7546771E-02  0.1149897E+00
          2   -1    0    0  502    0  0.00000000000E+00  0.00000000000E+00  0.17362815399E+03  0.17362815399E+03  0.00000000000E+00 0.  1.
         -2   -1    0    0    0  501 -0.00000000000E+00 -0.00000000000E+00 -0.26519564601E+03  0.26519564601E+03  0.00000000000E+00 0. -1.
          6    1    1    2  502    0 -0.99965724656E+02 -0.17299578836E+01  0.34209434920E+02  0.20272006388E+03  0.17300000000E+03 0.  1.
         -6    1    1    2    0  501  0.99965724656E+02  0.17299578836E+01 -0.12577692694E+03  0.23610373612E+03  0.17300000000E+03 0. -1.
<mgrwt>
<rscale>  2 0.19981276E+03</rscale>
<asrwt>0</asrwt>
<pdfrwt beam="1">  1        2 0.26712024E-01 0.19981276E+03</pdfrwt>
<pdfrwt beam="2">  1       -2 0.40799330E-01 0.19981276E+03</pdfrwt>
<totfact> 0.11373948E+03</totfact>
</mgrwt>
</event>
<event>
 4    1  0.7354369E-001  0.2153080E+03  0.7546771E-02  0.1137430E+00
         -1   -1    0    0    0  501 -0.00000000000E+00  0.00000000000E+00  0.15282638845E+03  0.15282638845E+03  0.00000000000E+00 0.  1.
          1   -1    0    0  502    0  0.00000000000E+00 -0.00000000000E+00 -0.31132386499E+03  0.31132386499E+03  0.00000000000E+00 0. -1.
          6    1    1    2  502    0  0.71065703972E+02 -0.10666861979E+03 -0.42071572380E+02  0.21937991232E+03  0.17300000000E+03 0.  1.
         -6    1    1    2    0  501 -0.71065703972E+02  0.10666861979E+03 -0.11642590417E+03  0.24477034111E+03  0.17300000000E+03 0. -1.
<mgrwt>
<rscale>  2 0.21530799E+03</rscale>
<asrwt>0</asrwt>
<pdfrwt beam="1">  1        1 0.47895979E-01 0.21530799E+03</pdfrwt>
<pdfrwt beam="2">  1       -1 0.23511752E-01 0.21530799E+03</pdfrwt>
<totfact> 0.12854692E+03</totfact>
</mgrwt>
</event>
<event>
 4    1  0.7354369E-001  0.1736306E+03  0.7546771E-02  0.1174114E+00
         -2   -1    0    0    0  501 -0.00000000000E+00  0.00000000000E+00  0.46959086732E+02  0.46959086732E+02  0.00000000000E+00 0. -1.
          2   -1    0    0  502    0  0.00000000000E+00 -0.00000000000E+00 -0.88082866637E+03  0.88082866637E+03  0.00000000000E+00 0.  1.
          6    1    1    2  502    0  0.12608417518E+01 -0.14731032014E+02 -0.65849136852E+03  0.68099814643E+03  0.17300000000E+03 0.  1.
         -6    1    1    2    0  501 -0.12608417518E+01  0.14731032014E+02 -0.17537821112E+03  0.24678960667E+03  0.17300000000E+03 0. -1.
<mgrwt>
<rscale>  2 0.17363062E+03</rscale>
<asrwt>0</asrwt>
<pdfrwt beam="1">  1        2 0.13551210E+00 0.17363062E+03</pdfrwt>
<pdfrwt beam="2">  1       -2 0.72244751E-02 0.17363062E+03</pdfrwt>
<totfact> 0.34251340E+03</totfact>
</mgrwt>
</event>
<event>
 4    1  0.7354369E-001  0.1984701E+03  0.7546771E-02  0.1151036E+00
         -2   -1    0    0    0  501 -0.00000000000E+00  0.00000000000E+00  0.21188026680E+02  0.21188026680E+02  0.00000000000E+00 0. -1.
          2   -1    0    0  502    0  0.00000000000E+00 -0.00000000000E+00 -0.18590952346E+04  0.18590952346E+04  0.00000000000E+00 0.  1.
          6    1    1    2  502    0 -0.58033585689E+02  0.78060778355E+02 -0.92094788241E+03  0.94209096392E+03  0.17300000000E+03 0. -1.
         -6    1    1    2    0  501  0.58033585689E+02 -0.78060778355E+02 -0.91695932549E+03  0.93819229734E+03  0.17300000000E+03 0. -1.
<mgrwt>
<rscale>  2 0.19847010E+03</rscale>
<asrwt>0</asrwt>
<pdfrwt beam="1">  1        2 0.28601472E+00 0.19847010E+03</pdfrwt>
<pdfrwt beam="2">  1       -2 0.32596957E-02 0.19847010E+03</pdfrwt>
<totfact> 0.32947453E+03</totfact>
</mgrwt>
</event>
<event>
 4    1  0.7354369E-001  0.2060625E+03  0.7546771E-02  0.1144723E+00
          2   -1    0    0  502    0  0.00000000000E+00  0.00000000000E+00  0.15220818624E+04  0.15220818624E+04  0.00000000000E+00 0.  1.
         -2   -1    0    0    0  501 -0.00000000000E+00 -0.00000000000E+00 -0.28558418275E+02  0.28558418275E+02  0.00000000000E+00 0. -1.
          6    1    1    2  502    0  0.15380467740E+02 -0.11088812253E+03  0.86474088759E+03  0.88895361925E+03  0.17300000000E+03 0. -1.
         -6    1    1    2    0  501 -0.15380467740E+02  0.11088812253E+03  0.62878255652E+03  0.66168666141E+03  0.17300000000E+03 0. -1.
<mgrwt>
<rscale>  2 0.20606245E+03</rscale>
<asrwt>0</asrwt>
<pdfrwt beam="1">  1        2 0.23416638E+00 0.20606245E+03</pdfrwt>
<pdfrwt beam="2">  1       -2 0.43936040E-02 0.20606245E+03</pdfrwt>
<totfact> 0.31606127E+03</totfact>
</mgrwt>
</event>
<event>
 4    1  0.7354369E-001  0.1879703E+03  0.7546771E-02  0.1160305E+00
          1   -1    0    0  502    0  0.00000000000E+00  0.00000000000E+00  0.43588092197E+02  0.43588092197E+02  0.00000000000E+00 0.  1.
         -1   -1    0    0    0  501 -0.00000000000E+00 -0.00000000000E+00 -0.81998647846E+03  0.81998647846E+03  0.00000000000E+00 0. -1.
          6    1    1    2  502    0  0.73238193747E+02 -0.63251623134E+01 -0.34202057311E+03  0.39027030778E+03  0.17300000000E+03 0.  1.
         -6    1    1    2    0  501 -0.73238193747E+02  0.63251623134E+01 -0.43437781315E+03  0.47330426287E+03  0.17300000000E+03 0. -1.
<mgrwt>
<rscale>  2 0.18797032E+03</rscale>
<asrwt>0</asrwt>
<pdfrwt beam="1">  1        1 0.67058612E-02 0.18797032E+03</pdfrwt>
<pdfrwt beam="2">  1       -1 0.12615175E+00 0.18797032E+03</pdfrwt>
<totfact> 0.64696948E+02</totfact>
</mgrwt>
</event>
<event>
 4    1  0.7354369E-001  0.1760410E+03  0.7546771E-02  0.1171691E+00
          2   -1    0    0  502    0  0.00000000000E+00  0.00000000000E+00  0.15396112767E+04  0.15396112767E+04  0.00000000000E+00 0. -1.
         -2   -1    0    0    0  501 -0.00000000000E+00 -0.00000000000E+00 -0.21523860151E+02  0.21523860151E+02  0.00000000000E+00 0.  1.
          6    1    1    2  502    0 -0.19032005457E+02 -0.26442377174E+02  0.95777126951E+03  0.97381529114E+03  0.17300000000E+03 0. -1.
         -6    1    1    2    0  501  0.19032005457E+02  0.26442377174E+02  0.56031614701E+03  0.58731984569E+03  0.17300000000E+03 0.  1.
<mgrwt>
<rscale>  2 0.17604095E+03</rscale>
<asrwt>0</asrwt>
<pdfrwt beam="1">  1        2 0.23686319E+00 0.17604095E+03</pdfrwt>
<pdfrwt beam="2">  1       -2 0.33113643E-02 0.17604095E+03</pdfrwt>
<totfact> 0.47139997E+03</totfact>
</mgrwt>
</event>
<event>
 4    1  0.7354369E-001  0.2265519E+03  0.7546771E-02  0.1129090E+00
         -2   -1    0    0    0  501 -0.00000000000E+00  0.00000000000E+00  0.15864208170E+02  0.15864208170E+02  0.00000000000E+00 0. -1.
          2   -1    0    0  502    0  0.00000000000E+00 -0.00000000000E+00 -0.36219349428E+04  0.36219349428E+04  0.00000000000E+00 0.  1.
          6    1    1    2  502    0 -0.26759462802E+02 -0.14380782847E+03 -0.23972984680E+04  0.24079795899E+04  0.17300000000E+03 0. -1.
         -6    1    1    2    0  501  0.26759462802E+02  0.14380782847E+03 -0.12087722666E+04  0.12298195611E+04  0.17300000000E+03 0. -1.
<mgrwt>
<rscale>  2 0.22655189E+03</rscale>
<asrwt>0</asrwt>
<pdfrwt beam="1">  1        2 0.55722061E+00 0.22655189E+03</pdfrwt>
<pdfrwt beam="2">  1       -2 0.24406481E-02 0.22655189E+03</pdfrwt>
<totfact> 0.48995803E+02</totfact>
</mgrwt>
</event>
<event>
 4    1  0.7354369E-001  0.1840498E+03  0.7546771E-02  0.1163940E+00
         -2   -1    0    0    0  501 -0.00000000000E+00  0.00000000000E+00  0.15266820227E+03  0.15266820227E+03  0.00000000000E+00 0.  1.
          2   -1    0    0  502    0  0.00000000000E+00 -0.00000000000E+00 -0.31322832548E+03  0.31322832548E+03  0.00000000000E+00 0. -1.
          6    1    1    2  502    0 -0.61255006770E+02 -0.13898554603E+02  0.45518072426E+02  0.18959493820E+03  0.17300000000E+03 0.  1.
         -6    1    1    2    0  501  0.61255006770E+02  0.13898554603E+02 -0.20607819563E+03  0.27630158955E+03  0.17300000000E+03 0. -1.
<mgrwt>
<rscale>  2 0.18404985E+03</rscale>
<asrwt>0</asrwt>
<pdfrwt beam="1">  1        2 0.48188972E-01 0.18404985E+03</pdfrwt>
<pdfrwt beam="2">  1       -2 0.23487416E-01 0.18404985E+03</pdfrwt>
<totfact> 0.16392176E+03</totfact>
</mgrwt>
</event>
<event>
 4    1  0.7354369E-001  0.2060407E+03  0.7546771E-02  0.1144740E+00
          2   -1    0    0  502    0  0.00000000000E+00  0.00000000000E+00  0.15204495144E+04  0.15204495144E+04  0.00000000000E+00 0. -1.
         -2   -1    0    0    0  501 -0.00000000000E+00 -0.00000000000E+00 -0.29355983570E+02  0.29355983570E+02  0.00000000000E+00 0.  1.
          6    1    1    2  502    0  0.89228458311E+02  0.67543000537E+02  0.91686047128E+03  0.93972650196E+03  0.17300000000E+03 0.  1.
         -6    1    1    2    0  501 -0.89228458311E+02 -0.67543000537E+02  0.57423305959E+03  0.61007899605E+03  0.17300000000E+03 0.  1.
<mgrwt>
<rscale>  2 0.20604071E+03</rscale>
<asrwt>0</asrwt>
<pdfrwt beam="1">  1        2 0.23391525E+00 0.20604071E+03</pdfrwt>
<pdfrwt beam="2">  1       -2 0.45163063E-02 0.20604071E+03</pdfrwt>
<totfact> 0.30380082E+03</totfact>
</mgrwt>
</event>
<event>
 4    1  0.7354369E-001  0.2276145E+03  0.7546771E-02  0.1128330E+00
         -1   -1    0    0    0  501 -0.00000000000E+00  0.00000000000E+00  0.15859710159E+03  0.15859710159E+03  0.00000000000E+00 0.  1.
          1   -1    0    0  502    0  0.00000000000E+00 -0.00000000000E+00 -0.32978010310E+03  0.32978010310E+03  0.00000000000E+00 0. -1.
          6    1    1    2  502    0 -0.13595959062E+03  0.58261175680E+02 -0.61864748999E+02  0.23587204591E+03  0.17300000000E+03 0.  1.
         -6    1    1    2    0  501  0.13595959062E+03 -0.58261175680E+02 -0.10931825252E+03  0.25250515877E+03  0.17300000000E+03 0.  1.
<mgrwt>
<rscale>  2 0.22761453E+03</rscale>
<asrwt>0</asrwt>
<pdfrwt beam="1">  1        1 0.50735400E-01 0.22761453E+03</pdfrwt>
<pdfrwt beam="2">  1       -1 0.24399554E-01 0.22761453E+03</pdfrwt>
<totfact> 0.11252417E+03</totfact>
</mgrwt>
</event>
