<event>
 4    1  0.8749406E-009  0.2523858E+03  0.7818608E-02  0.1111806E+00
          1   -1    0    0  501    0  0.00000000000E+00  0.00000000000E+00  0.28550768706E+03  0.28550768711E+03  0.50400000000E-02 0. -1.
         -1   -1    0    0    0  501 -0.00000000000E+00 -0.00000000000E+00 -0.15846531076E+04  0.15846531076E+04  0.50400000000E-02 0.  1.
    8880022    1    1    2    0    0 -0.98529340941E+02  0.17492548184E+03  0.21718579630E+03  0.33296888496E+03  0.15294330000E+03 0.  0.
    8880022    1    1    2    0    0  0.98529340941E+02 -0.17492548184E+03 -0.15163312168E+04  0.15371919097E+04  0.15294330000E+03 0.  1.
<mgrwt>
<rscale>  0 0.25238583E+03</rscale>
<asrwt>0</asrwt>
<pdfrwt beam="1">  1        1 0.43924260E-01 0.25238583E+03</pdfrwt>
<pdfrwt beam="2">  1       -1 0.24379278E+00 0.25238583E+03</pdfrwt>
<totfact> 0.82545172E+00</totfact>
</mgrwt>
</event>
<event>
 4    1  0.8749406E-009  0.1107989E+04  0.7818608E-02  0.9197440E-01
          1   -1    0    0  501    0  0.00000000000E+00  0.00000000000E+00  0.23414220172E+04  0.23414220172E+04  0.50400000000E-02 0. -1.
         -1   -1    0    0    0  501 -0.00000000000E+00 -0.00000000000E+00 -0.14795749043E+04  0.14795749043E+04  0.50400000000E-02 0.  1.
    8880022    1    1    2    0    0 -0.92831171065E+03 -0.58522322573E+03  0.19660324924E+04  0.22567508215E+04  0.15294330000E+03 0.  0.
    8880022    1    1    2    0    0  0.92831171065E+03  0.58522322573E+03 -0.11041853795E+04  0.15642461000E+04  0.15294330000E+03 0.  0.
<mgrwt>
<rscale>  0 0.11079894E+04</rscale>
<asrwt>0</asrwt>
<pdfrwt beam="1">  1        1 0.36021877E+00 0.11079894E+04</pdfrwt>
<pdfrwt beam="2">  1       -1 0.22762691E+00 0.11079894E+04</pdfrwt>
<totfact> 0.17057769E-01</totfact>
</mgrwt>
</event>
<event>
 4    1  0.8749406E-009  0.2302803E+03  0.7818608E-02  0.1126443E+00
          1   -1    0    0  501    0  0.00000000000E+00  0.00000000000E+00  0.13104069601E+04  0.13104069601E+04  0.50400000000E-02 0. -1.
         -1   -1    0    0    0  501 -0.00000000000E+00 -0.00000000000E+00 -0.53135984266E+03  0.53135984268E+03  0.50400000000E-02 0.  1.
    8880022    1    1    2    0    0 -0.15112060695E+03  0.82461583855E+02  0.12746460407E+04  0.12952804842E+04  0.15294330000E+03 0.  0.
    8880022    1    1    2    0    0  0.15112060695E+03 -0.82461583855E+02 -0.49559892326E+03  0.54648631859E+03  0.15294330000E+03 0.  1.
<mgrwt>
<rscale>  0 0.23028027E+03</rscale>
<asrwt>0</asrwt>
<pdfrwt beam="1">  1        1 0.20160107E+00 0.23028027E+03</pdfrwt>
<pdfrwt beam="2">  1       -1 0.81747668E-01 0.23028027E+03</pdfrwt>
<totfact> 0.15529282E+01</totfact>
</mgrwt>
</event>
<event>
 4    1  0.8749406E-009  0.4602014E+03  0.7818608E-02  0.1024723E+00
          1   -1    0    0  501    0  0.00000000000E+00  0.00000000000E+00  0.45842308688E+03  0.45842308691E+03  0.50400000000E-02 0. -1.
         -1   -1    0    0    0  501 -0.00000000000E+00 -0.00000000000E+00 -0.10178727447E+04  0.10178727447E+04  0.50400000000E-02 0.  1.
    8880022    1    1    2    0    0 -0.36337364909E+03 -0.23738837102E+03 -0.82521835304E+03  0.94486540352E+03  0.15294330000E+03 0.  0.
    8880022    1    1    2    0    0  0.36337364909E+03  0.23738837102E+03  0.26576869522E+03  0.53143042811E+03  0.15294330000E+03 0.  0.
<mgrwt>
<rscale>  0 0.46020137E+03</rscale>
<asrwt>0</asrwt>
<pdfrwt beam="1">  1        1 0.70526629E-01 0.46020137E+03</pdfrwt>
<pdfrwt beam="2">  1       -1 0.15659581E+00 0.46020137E+03</pdfrwt>
<totfact> 0.16582813E+01</totfact>
</mgrwt>
</event>
<event>
 4    1  0.8749406E-009  0.8728463E+03  0.7818608E-02  0.9460176E-01
         -1   -1    0    0    0  501 -0.00000000000E+00  0.00000000000E+00  0.73516062979E+03  0.73516062981E+03  0.50400000000E-02 0.  1.
          1   -1    0    0  501    0  0.00000000000E+00 -0.00000000000E+00 -0.25509591084E+04  0.25509591084E+04  0.50400000000E-02 0. -1.
    8880022    1    1    2    0    0  0.45785468589E+03  0.72721258518E+03  0.35816694402E+03  0.94347457318E+03  0.15294330000E+03 0.  0.
    8880022    1    1    2    0    0 -0.45785468589E+03 -0.72721258518E+03 -0.21739654226E+04  0.23426451650E+04  0.15294330000E+03 0.  0.
<mgrwt>
<rscale>  0 0.87284633E+03</rscale>
<asrwt>0</asrwt>
<pdfrwt beam="1">  1        1 0.39245524E+00 0.87284633E+03</pdfrwt>
<pdfrwt beam="2">  1       -1 0.11310164E+00 0.87284633E+03</pdfrwt>
<totfact> 0.92958886E-01</totfact>
</mgrwt>
</event>
<event>
 4    1  0.1992565E-008  0.1944052E+04  0.7818608E-02  0.8633234E-01
          1   -1    0    0  501    0  0.00000000000E+00  0.00000000000E+00  0.13145329358E+04  0.13145329358E+04  0.50400000000E-02 0. -1.
         -1   -1    0    0    0  501 -0.00000000000E+00 -0.00000000000E+00 -0.53307677711E+04  0.53307677711E+04  0.50400000000E-02 0.  1.
    8880022    1    1    2    0    0  0.10993082093E+04  0.15960786546E+04  0.24705475405E+03  0.19596870452E+04  0.15294330000E+03 0.  0.
    8880022    1    1    2    0    0 -0.10993082093E+04 -0.15960786546E+04 -0.42632895894E+04  0.46856136617E+04  0.15294330000E+03 0.  0.
<mgrwt>
<rscale>  0 0.19440518E+04</rscale>
<asrwt>0</asrwt>
<pdfrwt beam="1">  1        1 0.20223584E+00 0.19440518E+04</pdfrwt>
<pdfrwt beam="2">  1       -1 0.82011811E+00 0.19440518E+04</pdfrwt>
<totfact> 0.41290881E-04</totfact>
</mgrwt>
</event>
<event>
 4    1  0.8749406E-009  0.1014152E+04  0.7818608E-02  0.9293158E-01
          1   -1    0    0  501    0  0.00000000000E+00  0.00000000000E+00  0.17096400484E+04  0.17096400484E+04  0.50400000000E-02 0. -1.
         -1   -1    0    0    0  501 -0.00000000000E+00 -0.00000000000E+00 -0.68888960353E+03  0.68888960355E+03  0.50400000000E-02 0.  1.
    8880022    1    1    2    0    0 -0.87934474130E+03  0.48152471580E+03  0.83458912575E+02  0.10175805959E+04  0.15294330000E+03 0.  0.
    8880022    1    1    2    0    0  0.87934474130E+03 -0.48152471580E+03  0.93729153230E+03  0.13809490561E+04  0.15294330000E+03 0.  0.
<mgrwt>
<rscale>  0 0.10141523E+04</rscale>
<asrwt>0</asrwt>
<pdfrwt beam="1">  1        1 0.26302154E+00 0.10141523E+04</pdfrwt>
<pdfrwt beam="2">  1       -1 0.10598302E+00 0.10141523E+04</pdfrwt>
<totfact> 0.39331042E+00</totfact>
</mgrwt>
</event>
<event>
 4    1  0.8749406E-009  0.4270152E+03  0.7818608E-02  0.1034807E+00
         -1   -1    0    0    0  501 -0.00000000000E+00  0.00000000000E+00  0.27668755754E+03  0.27668755758E+03  0.50400000000E-02 0.  1.
          1   -1    0    0  501    0  0.00000000000E+00 -0.00000000000E+00 -0.19806998362E+04  0.19806998362E+04  0.50400000000E-02 0. -1.
    8880022    1    1    2    0    0  0.38406172152E+03  0.10699026320E+03 -0.17740048003E+04  0.18246739454E+04  0.15294330000E+03 0.  0.
    8880022    1    1    2    0    0 -0.38406172152E+03 -0.10699026320E+03  0.69992521634E+02  0.43271344844E+03  0.15294330000E+03 0.  0.
<mgrwt>
<rscale>  0 0.42701519E+03</rscale>
<asrwt>0</asrwt>
<pdfrwt beam="1">  1        1 0.30472304E+00 0.42701519E+03</pdfrwt>
<pdfrwt beam="2">  1       -1 0.42567318E-01 0.42701519E+03</pdfrwt>
<totfact> 0.18477702E+01</totfact>
</mgrwt>
</event>
<event>
 4    1  0.8749406E-009  0.1256556E+04  0.7818608E-02  0.9064745E-01
          1   -1    0    0  501    0  0.00000000000E+00  0.00000000000E+00  0.14640735221E+04  0.14640735221E+04  0.50400000000E-02 0. -1.
         -1   -1    0    0    0  501 -0.00000000000E+00 -0.00000000000E+00 -0.14231183777E+04  0.14231183778E+04  0.50400000000E-02 0.  1.
    8880022    1    1    2    0    0 -0.11556773114E+04 -0.46898885387E+03  0.73091352839E+03  0.14536735645E+04  0.15294330000E+03 0.  0.
    8880022    1    1    2    0    0  0.11556773114E+04  0.46898885387E+03 -0.68995838407E+03  0.14335183354E+04  0.15294330000E+03 0.  0.
<mgrwt>
<rscale>  0 0.12565557E+04</rscale>
<asrwt>0</asrwt>
<pdfrwt beam="1">  1        1 0.22524208E+00 0.12565557E+04</pdfrwt>
<pdfrwt beam="2">  1       -1 0.21894129E+00 0.12565557E+04</pdfrwt>
<totfact> 0.75420940E-01</totfact>
</mgrwt>
</event>
<event>
 4    1  0.8749406E-009  0.9228906E+03  0.7818608E-02  0.9397411E-01
         -1   -1    0    0    0  501 -0.00000000000E+00  0.00000000000E+00  0.98280755204E+03  0.98280755206E+03  0.50400000000E-02 0.  1.
          1   -1    0    0  501    0  0.00000000000E+00 -0.00000000000E+00 -0.22931404984E+04  0.22931404984E+04  0.50400000000E-02 0. -1.
    8880022    1    1    2    0    0  0.78056276628E+03  0.46803550278E+03 -0.19470688278E+04  0.21547167185E+04  0.15294330000E+03 0.  0.
    8880022    1    1    2    0    0 -0.78056276628E+03 -0.46803550278E+03  0.63673588144E+03  0.11212313319E+04  0.15294330000E+03 0.  0.
<mgrwt>
<rscale>  0 0.92289063E+03</rscale>
<asrwt>0</asrwt>
<pdfrwt beam="1">  1        1 0.35279084E+00 0.92289063E+03</pdfrwt>
<pdfrwt beam="2">  1       -1 0.15120116E+00 0.92289063E+03</pdfrwt>
<totfact> 0.66107015E-01</totfact>
</mgrwt>
</event>
<event>
 4    1  0.8749406E-009  0.1150542E+04  0.7818608E-02  0.9157283E-01
         -1   -1    0    0    0  501 -0.00000000000E+00  0.00000000000E+00  0.59959737266E+03  0.59959737268E+03  0.50400000000E-02 0.  1.
          1   -1    0    0  501    0  0.00000000000E+00 -0.00000000000E+00 -0.23592924054E+04  0.23592924054E+04  0.50400000000E-02 0. -1.
    8880022    1    1    2    0    0  0.98022901377E+03 -0.58267268222E+03 -0.50486913203E+03  0.12564397588E+04  0.15294330000E+03 0.  0.
    8880022    1    1    2    0    0 -0.98022901377E+03  0.58267268222E+03 -0.12548259007E+04  0.17024500193E+04  0.15294330000E+03 0.  0.
<mgrwt>
<rscale>  0 0.11505425E+04</rscale>
<asrwt>0</asrwt>
<pdfrwt beam="1">  1        1 0.36296806E+00 0.11505425E+04</pdfrwt>
<pdfrwt beam="2">  1       -1 0.92245751E-01 0.11505425E+04</pdfrwt>
<totfact> 0.19296884E+00</totfact>
</mgrwt>
</event>
<event>
 4    1  0.8749406E-009  0.3503619E+03  0.7818608E-02  0.1062467E+00
         -1   -1    0    0    0  501 -0.00000000000E+00  0.00000000000E+00  0.36739230421E+03  0.36739230424E+03  0.50400000000E-02 0.  1.
          1   -1    0    0  501    0  0.00000000000E+00 -0.00000000000E+00 -0.98760467769E+03  0.98760467771E+03  0.50400000000E-02 0. -1.
    8880022    1    1    2    0    0  0.24452336439E+03  0.19892238777E+03  0.24099858402E+03  0.42524553214E+03  0.15294330000E+03 0.  0.
    8880022    1    1    2    0    0 -0.24452336439E+03 -0.19892238777E+03 -0.86121095750E+03  0.92975144981E+03  0.15294330000E+03 0.  0.
<mgrwt>
<rscale>  0 0.35036188E+03</rscale>
<asrwt>0</asrwt>
<pdfrwt beam="1">  1        1 0.15193918E+00 0.35036188E+03</pdfrwt>
<pdfrwt beam="2">  1       -1 0.56521893E-01 0.35036188E+03</pdfrwt>
<totfact> 0.53089435E+01</totfact>
</mgrwt>
</event>
<event>
 4    1  0.8749406E-009  0.9722497E+03  0.7818608E-02  0.9339516E-01
          1   -1    0    0  501    0  0.00000000000E+00  0.00000000000E+00  0.13937154729E+04  0.13937154729E+04  0.50400000000E-02 0. -1.
         -1   -1    0    0    0  501 -0.00000000000E+00 -0.00000000000E+00 -0.13682839857E+04  0.13682839857E+04  0.50400000000E-02 0.  1.
    8880022    1    1    2    0    0 -0.94584857473E+03  0.16507083492E+03 -0.96800365827E+03  0.13719696215E+04  0.15294330000E+03 0.  0.
    8880022    1    1    2    0    0  0.94584857473E+03 -0.16507083492E+03  0.99343514548E+03  0.13900298371E+04  0.15294330000E+03 0.  0.
<mgrwt>
<rscale>  0 0.97224974E+03</rscale>
<asrwt>0</asrwt>
<pdfrwt beam="1">  1        1 0.21441776E+00 0.97224974E+03</pdfrwt>
<pdfrwt beam="2">  1       -1 0.21050523E+00 0.97224974E+03</pdfrwt>
<totfact> 0.10011499E+00</totfact>
</mgrwt>
</event>
<event>
 4    1  0.8749406E-009  0.4319380E+03  0.7818608E-02  0.1033250E+00
         -1   -1    0    0    0  501 -0.00000000000E+00  0.00000000000E+00  0.15099853914E+03  0.15099853923E+03  0.50400000000E-02 0.  1.
          1   -1    0    0  501    0  0.00000000000E+00 -0.00000000000E+00 -0.22031458460E+04  0.22031458460E+04  0.50400000000E-02 0. -1.
    8880022    1    1    2    0    0 -0.31682106037E+03  0.25060560469E+03 -0.24602392711E+03  0.49708970933E+03  0.15294330000E+03 0.  0.
    8880022    1    1    2    0    0  0.31682106037E+03 -0.25060560469E+03 -0.18061233797E+04  0.18570546759E+04  0.15294330000E+03 0.  0.
<mgrwt>
<rscale>  0 0.43193797E+03</rscale>
<asrwt>0</asrwt>
<pdfrwt beam="1">  1        1 0.33894549E+00 0.43193797E+03</pdfrwt>
<pdfrwt beam="2">  1       -1 0.23230546E-01 0.43193797E+03</pdfrwt>
<totfact> 0.37731501E+01</totfact>
</mgrwt>
</event>
<event>
 4    1  0.8869034E-009  0.6406108E+03  0.7818608E-02  0.9824559E-01
         -1   -1    0    0    0  501 -0.00000000000E+00  0.00000000000E+00  0.77950582242E+03  0.77950582244E+03  0.50400000000E-02 0.  1.
          1   -1    0    0  501    0  0.00000000000E+00 -0.00000000000E+00 -0.21819599768E+04  0.21819599768E+04  0.50400000000E-02 0. -1.
    8880022    1    1    2    0    0  0.61587986699E+03 -0.87650147543E+02 -0.19910120819E+04  0.20915332467E+04  0.15294330000E+03 0.  0.
    8880022    1    1    2    0    0 -0.61587986699E+03  0.87650147543E+02  0.58855792750E+03  0.86993255253E+03  0.15294330000E+03 0.  0.
<mgrwt>
<rscale>  0 0.64061081E+03</rscale>
<asrwt>0</asrwt>
<pdfrwt beam="1">  1        1 0.33568615E+00 0.64061081E+03</pdfrwt>
<pdfrwt beam="2">  1       -1 0.11992397E+00 0.64061081E+03</pdfrwt>
<totfact> 0.15090352E+00</totfact>
</mgrwt>
</event>
<event>
 4    1  0.8749406E-009  0.6788593E+03  0.7818608E-02  0.9754085E-01
         -1   -1    0    0    0  501 -0.00000000000E+00  0.00000000000E+00  0.39338969841E+03  0.39338969844E+03  0.50400000000E-02 0.  1.
          1   -1    0    0  501    0  0.00000000000E+00 -0.00000000000E+00 -0.12499789599E+04  0.12499789599E+04  0.50400000000E-02 0. -1.
    8880022    1    1    2    0    0 -0.65136937192E+03 -0.11478791394E+03 -0.63420245778E+03  0.92901169762E+03  0.15294330000E+03 0.  0.
    8880022    1    1    2    0    0  0.65136937192E+03  0.11478791394E+03 -0.22238680371E+03  0.71435696073E+03  0.15294330000E+03 0.  0.
<mgrwt>
<rscale>  0 0.67885932E+03</rscale>
<asrwt>0</asrwt>
<pdfrwt beam="1">  1        1 0.19230445E+00 0.67885932E+03</pdfrwt>
<pdfrwt beam="2">  1       -1 0.60521493E-01 0.67885932E+03</pdfrwt>
<totfact> 0.28266072E+01</totfact>
</mgrwt>
</event>
<event>
 4    1  0.8749406E-009  0.4608659E+03  0.7818608E-02  0.1024530E+00
         -1   -1    0    0    0  501 -0.00000000000E+00  0.00000000000E+00  0.30790723991E+03  0.30790723995E+03  0.50400000000E-02 0.  1.
          1   -1    0    0  501    0  0.00000000000E+00 -0.00000000000E+00 -0.19646220052E+04  0.19646220052E+04  0.50400000000E-02 0. -1.
    8880022    1    1    2    0    0  0.10370496693E+03 -0.42219778156E+03  0.86941938445E+02  0.46899492598E+03  0.15294330000E+03 0.  0.
    8880022    1    1    2    0    0 -0.10370496693E+03  0.42219778156E+03 -0.17436567037E+04  0.18035343191E+04  0.15294330000E+03 0.  0.
<mgrwt>
<rscale>  0 0.46086586E+03</rscale>
<asrwt>0</asrwt>
<pdfrwt beam="1">  1        1 0.30224953E+00 0.46086586E+03</pdfrwt>
<pdfrwt beam="2">  1       -1 0.47370346E-01 0.46086586E+03</pdfrwt>
<totfact> 0.15424811E+01</totfact>
</mgrwt>
</event>
<event>
 4    1  0.8749406E-009  0.4439634E+03  0.7818608E-02  0.1029538E+00
         -1   -1    0    0    0  501 -0.00000000000E+00  0.00000000000E+00  0.96283504730E+03  0.96283504731E+03  0.50400000000E-02 0.  1.
          1   -1    0    0  501    0  0.00000000000E+00 -0.00000000000E+00 -0.28716027623E+03  0.28716027627E+03  0.50400000000E-02 0. -1.
    8880022    1    1    2    0    0  0.18073669207E+03  0.37556105864E+03  0.29428770914E+01  0.44397316829E+03  0.15294330000E+03 0.  0.
    8880022    1    1    2    0    0 -0.18073669207E+03 -0.37556105864E+03  0.67273189398E+03  0.80602215529E+03  0.15294330000E+03 0.  0.
<mgrwt>
<rscale>  0 0.44396341E+03</rscale>
<asrwt>0</asrwt>
<pdfrwt beam="1">  1        1 0.44178504E-01 0.44396341E+03</pdfrwt>
<pdfrwt beam="2">  1       -1 0.14812847E+00 0.44396341E+03</pdfrwt>
<totfact> 0.35437723E+01</totfact>
</mgrwt>
</event>
<event>
 4    1  0.8749406E-009  0.3480067E+03  0.7818608E-02  0.1063436E+00
         -1   -1    0    0    0  501 -0.00000000000E+00  0.00000000000E+00  0.17865608026E+04  0.17865608026E+04  0.50400000000E-02 0.  1.
          1   -1    0    0  501    0  0.00000000000E+00 -0.00000000000E+00 -0.96598329876E+03  0.96598329877E+03  0.50400000000E-02 0. -1.
    8880022    1    1    2    0    0 -0.90777547829E+02 -0.29912612233E+03  0.17373919581E+04  0.17719027822E+04  0.15294330000E+03 0.  0.
    8880022    1    1    2    0    0  0.90777547829E+02  0.29912612233E+03 -0.91681445431E+03  0.98064131919E+03  0.15294330000E+03 0.  0.
<mgrwt>
<rscale>  0 0.34800669E+03</rscale>
<asrwt>0</asrwt>
<pdfrwt beam="1">  1        1 0.14861282E+00 0.34800669E+03</pdfrwt>
<pdfrwt beam="2">  1       -1 0.27485551E+00 0.34800669E+03</pdfrwt>
<totfact> 0.92147892E-01</totfact>
</mgrwt>
</event>
<event>
 4    1  0.8749406E-009  0.2067275E+03  0.7818608E-02  0.1144184E+00
         -1   -1    0    0    0  501 -0.00000000000E+00  0.00000000000E+00  0.15065107128E+03  0.15065107136E+03  0.50400000000E-02 0.  1.
          1   -1    0    0  501    0  0.00000000000E+00 -0.00000000000E+00 -0.74971416487E+03  0.74971416488E+03  0.50400000000E-02 0. -1.
    8880022    1    1    2    0    0  0.19897280680E+02  0.13765422875E+03  0.55405349909E+02  0.21402334986E+03  0.15294330000E+03 0.  0.
    8880022    1    1    2    0    0 -0.19897280680E+02 -0.13765422875E+03 -0.65446844350E+03  0.68634188639E+03  0.15294330000E+03 0. -1.
<mgrwt>
<rscale>  0 0.20672746E+03</rscale>
<asrwt>0</asrwt>
<pdfrwt beam="1">  1        1 0.11534064E+00 0.20672746E+03</pdfrwt>
<pdfrwt beam="2">  1       -1 0.23177088E-01 0.20672746E+03</pdfrwt>
<totfact> 0.40734398E+02</totfact>
</mgrwt>
</event>
<event>
 4    1  0.8749406E-009  0.6680568E+03  0.7818608E-02  0.9773475E-01
         -1   -1    0    0    0  501 -0.00000000000E+00  0.00000000000E+00  0.89245582060E+03  0.89245582061E+03  0.50400000000E-02 0.  1.
          1   -1    0    0  501    0  0.00000000000E+00 -0.00000000000E+00 -0.28706165786E+04  0.28706165786E+04  0.50400000000E-02 0. -1.
    8880022    1    1    2    0    0 -0.60726192632E+03 -0.23268254616E+03  0.72073121225E+03  0.98272750433E+03  0.15294330000E+03 0.  0.
    8880022    1    1    2    0    0  0.60726192632E+03  0.23268254616E+03 -0.26988919702E+04  0.27803448948E+04  0.15294330000E+03 0.  0.
<mgrwt>
<rscale>  0 0.66805678E+03</rscale>
<asrwt>0</asrwt>
<pdfrwt beam="1">  1        1 0.44163332E+00 0.66805678E+03</pdfrwt>
<pdfrwt beam="2">  1       -1 0.13730090E+00 0.66805678E+03</pdfrwt>
<totfact> 0.36151645E-01</totfact>
</mgrwt>
</event>
<event>
 4    1  0.8749406E-009  0.2121240E+04  0.7818608E-02  0.8551944E-01
          1   -1    0    0  501    0  0.00000000000E+00  0.00000000000E+00  0.17462555828E+04  0.17462555828E+04  0.50400000000E-02 0. -1.
         -1   -1    0    0    0  501 -0.00000000000E+00 -0.00000000000E+00 -0.35974702244E+04  0.35974702244E+04  0.50400000000E-02 0.  1.
    8880022    1    1    2    0    0  0.20082865803E+04  0.66562300485E+03 -0.23488184987E+04  0.31649026788E+04  0.15294330000E+03 0.  0.
    8880022    1    1    2    0    0 -0.20082865803E+04 -0.66562300485E+03  0.49760385716E+03  0.21788231284E+04  0.15294330000E+03 0.  0.
<mgrwt>
<rscale>  0 0.21212404E+04</rscale>
<asrwt>0</asrwt>
<pdfrwt beam="1">  1        1 0.26865470E+00 0.21212404E+04</pdfrwt>
<pdfrwt beam="2">  1       -1 0.55345696E+00 0.21212404E+04</pdfrwt>
<totfact> 0.27450370E-03</totfact>
</mgrwt>
</event>
<event>
 4    1  0.8749406E-009  0.8932191E+03  0.7818608E-02  0.9434098E-01
         -1   -1    0    0    0  501 -0.00000000000E+00  0.00000000000E+00  0.89587194505E+03  0.89587194506E+03  0.50400000000E-02 0.  1.
          1   -1    0    0  501    0  0.00000000000E+00 -0.00000000000E+00 -0.16787107728E+04  0.16787107728E+04  0.50400000000E-02 0. -1.
    8880022    1    1    2    0    0  0.82930407563E+03  0.29445454187E+03 -0.12734622449E+04  0.15554891415E+04  0.15294330000E+03 0.  0.
    8880022    1    1    2    0    0 -0.82930407563E+03 -0.29445454187E+03  0.49062341710E+03  0.10190935764E+04  0.15294330000E+03 0.  0.
<mgrwt>
<rscale>  0 0.89321911E+03</rscale>
<asrwt>0</asrwt>
<pdfrwt beam="1">  1        1 0.25826320E+00 0.89321911E+03</pdfrwt>
<pdfrwt beam="2">  1       -1 0.13782645E+00 0.89321911E+03</pdfrwt>
<totfact> 0.22017303E+00</totfact>
</mgrwt>
</event>
<event>
 4    1  0.1938657E-008  0.1161716E+04  0.7818608E-02  0.9147043E-01
          1   -1    0    0  501    0  0.00000000000E+00  0.00000000000E+00  0.38559782002E+04  0.38559782002E+04  0.50400000000E-02 0. -1.
         -1   -1    0    0    0  501 -0.00000000000E+00 -0.00000000000E+00 -0.14298494687E+04  0.14298494687E+04  0.50400000000E-02 0.  1.
    8880022    1    1    2    0    0 -0.11471890580E+04  0.10074012486E+03 -0.10837185301E+04  0.15887192367E+04  0.15294330000E+03 0.  0.
    8880022    1    1    2    0    0  0.11471890580E+04 -0.10074012486E+03  0.35098472616E+04  0.36971084323E+04  0.15294330000E+03 0.  0.
<mgrwt>
<rscale>  0 0.11617155E+04</rscale>
<asrwt>0</asrwt>
<pdfrwt beam="1">  1        1 0.59322741E+00 0.11617155E+04</pdfrwt>
<pdfrwt beam="2">  1       -1 0.21997684E+00 0.11617155E+04</pdfrwt>
<totfact> 0.14285732E-02</totfact>
</mgrwt>
</event>
<event>
 4    1  0.8749406E-009  0.1142951E+04  0.7818608E-02  0.9164311E-01
         -1   -1    0    0    0  501 -0.00000000000E+00  0.00000000000E+00  0.18569142480E+04  0.18569142480E+04  0.50400000000E-02 0.  1.
          1   -1    0    0  501    0  0.00000000000E+00 -0.00000000000E+00 -0.12903416089E+04  0.12903416089E+04  0.50400000000E-02 0. -1.
    8880022    1    1    2    0    0 -0.11326542320E+04 -0.63215174384E+01 -0.77794618075E+03  0.13825836264E+04  0.15294330000E+03 0.  0.
    8880022    1    1    2    0    0  0.11326542320E+04  0.63215174384E+01  0.13445188199E+04  0.17646722305E+04  0.15294330000E+03 0.  0.
<mgrwt>
<rscale>  0 0.11429511E+04</rscale>
<asrwt>0</asrwt>
<pdfrwt beam="1">  1        1 0.19851409E+00 0.11429511E+04</pdfrwt>
<pdfrwt beam="2">  1       -1 0.28567911E+00 0.11429511E+04</pdfrwt>
<totfact> 0.37253376E-01</totfact>
</mgrwt>
</event>
<event>
 4    1  0.8749406E-009  0.6137365E+03  0.7818608E-02  0.9877310E-01
         -1   -1    0    0    0  501 -0.00000000000E+00  0.00000000000E+00  0.15689119179E+04  0.15689119179E+04  0.50400000000E-02 0.  1.
          1   -1    0    0  501    0  0.00000000000E+00 -0.00000000000E+00 -0.29313638400E+03  0.29313638405E+03  0.50400000000E-02 0. -1.
    8880022    1    1    2    0    0  0.52068877332E+03 -0.28664275382E+03  0.10339593229E+04  0.12023911183E+04  0.15294330000E+03 0.  0.
    8880022    1    1    2    0    0 -0.52068877332E+03  0.28664275382E+03  0.24181621094E+03  0.65965718359E+03  0.15294330000E+03 0.  0.
<mgrwt>
<rscale>  0 0.61373652E+03</rscale>
<asrwt>0</asrwt>
<pdfrwt beam="1">  1        1 0.45097903E-01 0.61373652E+03</pdfrwt>
<pdfrwt beam="2">  1       -1 0.24137108E+00 0.61373652E+03</pdfrwt>
<totfact> 0.75794755E+00</totfact>
</mgrwt>
</event>
<event>
 4    1  0.8749406E-009  0.6632804E+03  0.7818608E-02  0.9782174E-01
          1   -1    0    0  501    0  0.00000000000E+00  0.00000000000E+00  0.77644198825E+03  0.77644198827E+03  0.50400000000E-02 0. -1.
         -1   -1    0    0    0  501 -0.00000000000E+00 -0.00000000000E+00 -0.20315438264E+04  0.20315438264E+04  0.50400000000E-02 0.  1.
    8880022    1    1    2    0    0  0.12161635592E+03  0.63384432849E+03  0.56468066611E+03  0.87109418462E+03  0.15294330000E+03 0.  0.
    8880022    1    1    2    0    0 -0.12161635592E+03 -0.63384432849E+03 -0.18197825043E+04  0.19368916301E+04  0.15294330000E+03 0.  0.
<mgrwt>
<rscale>  0 0.66328035E+03</rscale>
<asrwt>0</asrwt>
<pdfrwt beam="1">  1        1 0.11945261E+00 0.66328035E+03</pdfrwt>
<pdfrwt beam="2">  1       -1 0.31254520E+00 0.66328035E+03</pdfrwt>
<totfact> 0.68646025E-01</totfact>
</mgrwt>
</event>
<event>
 4    1  0.8749406E-009  0.3799793E+03  0.7818608E-02  0.1050941E+00
         -1   -1    0    0    0  501 -0.00000000000E+00  0.00000000000E+00  0.45583851613E+03  0.45583851616E+03  0.50400000000E-02 0.  1.
          1   -1    0    0  501    0  0.00000000000E+00 -0.00000000000E+00 -0.10166012079E+04  0.10166012079E+04  0.50400000000E-02 0. -1.
    8880022    1    1    2    0    0 -0.31177015236E+03  0.15424663480E+03 -0.89123448430E+03  0.96885665156E+03  0.15294330000E+03 0.  0.
    8880022    1    1    2    0    0  0.31177015236E+03 -0.15424663480E+03  0.33047179253E+03  0.50358307251E+03  0.15294330000E+03 0.  0.
<mgrwt>
<rscale>  0 0.37997935E+03</rscale>
<asrwt>0</asrwt>
<pdfrwt beam="1">  1        1 0.15640018E+00 0.37997935E+03</pdfrwt>
<pdfrwt beam="2">  1       -1 0.70129003E-01 0.37997935E+03</pdfrwt>
<totfact> 0.32815754E+01</totfact>
</mgrwt>
</event>
<event>
 4    1  0.8749406E-009  0.8917901E+03  0.7818608E-02  0.9435903E-01
         -1   -1    0    0    0  501 -0.00000000000E+00  0.00000000000E+00  0.17666831468E+04  0.17666831468E+04  0.50400000000E-02 0.  1.
          1   -1    0    0  501    0  0.00000000000E+00 -0.00000000000E+00 -0.75524453884E+03  0.75524453886E+03  0.50400000000E-02 0. -1.
    8880022    1    1    2    0    0  0.73869585519E+03 -0.47563263048E+03 -0.29571720830E+03  0.93954152966E+03  0.15294330000E+03 0.  0.
    8880022    1    1    2    0    0 -0.73869585519E+03  0.47563263048E+03  0.13071558162E+04  0.15823861560E+04  0.15294330000E+03 0.  0.
<mgrwt>
<rscale>  0 0.89179012E+03</rscale>
<asrwt>0</asrwt>
<pdfrwt beam="1">  1        1 0.11619147E+00 0.89179012E+03</pdfrwt>
<pdfrwt beam="2">  1       -1 0.27179740E+00 0.89179012E+03</pdfrwt>
<totfact> 0.12508722E+00</totfact>
</mgrwt>
</event>
<event>
 4    1  0.8749406E-009  0.1064335E+04  0.7818608E-02  0.9240668E-01
         -1   -1    0    0    0  501 -0.00000000000E+00  0.00000000000E+00  0.91183919142E+03  0.91183919143E+03  0.50400000000E-02 0.  1.
          1   -1    0    0  501    0  0.00000000000E+00 -0.00000000000E+00 -0.14889572945E+04  0.14889572945E+04  0.50400000000E-02 0. -1.
    8880022    1    1    2    0    0 -0.40711253335E+03 -0.97142981112E+03  0.19998298498E+03  0.10829595283E+04  0.15294330000E+03 0.  0.
    8880022    1    1    2    0    0  0.40711253335E+03  0.97142981112E+03 -0.77710108810E+03  0.13178369576E+04  0.15294330000E+03 0.  0.
<mgrwt>
<rscale>  0 0.10643346E+04</rscale>
<asrwt>0</asrwt>
<pdfrwt beam="1">  1        1 0.22907035E+00 0.10643346E+04</pdfrwt>
<pdfrwt beam="2">  1       -1 0.14028295E+00 0.10643346E+04</pdfrwt>
<totfact> 0.27679794E+00</totfact>
</mgrwt>
</event>
<event>
 4    1  0.8749406E-009  0.9768101E+03  0.7818608E-02  0.9334351E-01
         -1   -1    0    0    0  501 -0.00000000000E+00  0.00000000000E+00  0.41306629029E+03  0.41306629032E+03  0.50400000000E-02 0.  1.
          1   -1    0    0  501    0  0.00000000000E+00 -0.00000000000E+00 -0.26934216563E+04  0.26934216563E+04  0.50400000000E-02 0. -1.
    8880022    1    1    2    0    0 -0.90902787249E+03  0.32316356438E+03 -0.55409315754E+03  0.11230214791E+04  0.15294330000E+03 0.  0.
    8880022    1    1    2    0    0  0.90902787249E+03 -0.32316356438E+03 -0.17262622085E+04  0.19834664675E+04  0.15294330000E+03 0.  0.
<mgrwt>
<rscale>  0 0.97681012E+03</rscale>
<asrwt>0</asrwt>
<pdfrwt beam="1">  1        1 0.41437255E+00 0.97681012E+03</pdfrwt>
<pdfrwt beam="2">  1       -1 0.63548662E-01 0.97681012E+03</pdfrwt>
<totfact> 0.25552590E+00</totfact>
</mgrwt>
</event>
<event>
 4    1  0.8749406E-009  0.1596254E+04  0.7818608E-02  0.8822852E-01
          1   -1    0    0  501    0  0.00000000000E+00  0.00000000000E+00  0.25121383233E+04  0.25121383233E+04  0.50400000000E-02 0. -1.
         -1   -1    0    0    0  501 -0.00000000000E+00 -0.00000000000E+00 -0.14509332399E+04  0.14509332399E+04  0.50400000000E-02 0.  1.
    8880022    1    1    2    0    0  0.24976866319E+03 -0.15691564536E+04 -0.55643191272E+03  0.16904568872E+04  0.15294330000E+03 0.  0.
    8880022    1    1    2    0    0 -0.24976866319E+03  0.15691564536E+04  0.16176369962E+04  0.22726146760E+04  0.15294330000E+03 0.  0.
<mgrwt>
<rscale>  0 0.15962544E+04</rscale>
<asrwt>0</asrwt>
<pdfrwt beam="1">  1        1 0.38648282E+00 0.15962544E+04</pdfrwt>
<pdfrwt beam="2">  1       -1 0.22322050E+00 0.15962544E+04</pdfrwt>
<totfact> 0.12985363E-01</totfact>
</mgrwt>
</event>
<event>
 4    1  0.8749406E-009  0.2700685E+03  0.7818608E-02  0.1101240E+00
         -1   -1    0    0    0  501 -0.00000000000E+00  0.00000000000E+00  0.13510084916E+04  0.13510084916E+04  0.50400000000E-02 0.  1.
          1   -1    0    0  501    0  0.00000000000E+00 -0.00000000000E+00 -0.86656494756E+02  0.86656494903E+02  0.50400000000E-02 0. -1.
    8880022    1    1    2    0    0 -0.71187969750E+01  0.22247402193E+03  0.19081115760E+03  0.33067494399E+03  0.15294330000E+03 0.  0.
    8880022    1    1    2    0    0  0.71187969750E+01 -0.22247402193E+03  0.10735408392E+04  0.11069900425E+04  0.15294330000E+03 0.  0.
<mgrwt>
<rscale>  0 0.27006855E+03</rscale>
<asrwt>0</asrwt>
<pdfrwt beam="1">  1        1 0.13331769E-01 0.27006855E+03</pdfrwt>
<pdfrwt beam="2">  1       -1 0.20784746E+00 0.27006855E+03</pdfrwt>
<totfact> 0.64764509E+01</totfact>
</mgrwt>
</event>
<event>
 4    1  0.8749406E-009  0.7620253E+03  0.7818608E-02  0.9616671E-01
         -1   -1    0    0    0  501 -0.00000000000E+00  0.00000000000E+00  0.89942926186E+03  0.89942926187E+03  0.50400000000E-02 0.  1.
          1   -1    0    0  501    0  0.00000000000E+00 -0.00000000000E+00 -0.17943973274E+04  0.17943973274E+04  0.50400000000E-02 0. -1.
    8880022    1    1    2    0    0 -0.66793146939E+03 -0.33340426633E+03  0.63022056262E+03  0.98886827392E+03  0.15294330000E+03 0.  0.
    8880022    1    1    2    0    0  0.66793146939E+03  0.33340426633E+03 -0.15251886281E+04  0.17049583153E+04  0.15294330000E+03 0.  0.
<mgrwt>
<rscale>  0 0.76202527E+03</rscale>
<asrwt>0</asrwt>
<pdfrwt beam="1">  1        1 0.27606113E+00 0.76202527E+03</pdfrwt>
<pdfrwt beam="2">  1       -1 0.13837373E+00 0.76202527E+03</pdfrwt>
<totfact> 0.18634068E+00</totfact>
</mgrwt>
</event>
<event>
 4    1  0.8749406E-009  0.1478739E+04  0.7818608E-02  0.8898716E-01
          1   -1    0    0  501    0  0.00000000000E+00  0.00000000000E+00  0.36241386952E+04  0.36241386952E+04  0.50400000000E-02 0. -1.
         -1   -1    0    0    0  501 -0.00000000000E+00 -0.00000000000E+00 -0.72171734737E+03  0.72171734739E+03  0.50400000000E-02 0.  1.
    8880022    1    1    2    0    0 -0.13895615943E+04 -0.48207418823E+03  0.57126635918E+03  0.15852488301E+04  0.15294330000E+03 0.  0.
    8880022    1    1    2    0    0  0.13895615943E+04  0.48207418823E+03  0.23311549886E+04  0.27606072124E+04  0.15294330000E+03 0.  0.
<mgrwt>
<rscale>  0 0.14787389E+04</rscale>
<asrwt>0</asrwt>
<pdfrwt beam="1">  1        1 0.55755981E+00 0.14787389E+04</pdfrwt>
<pdfrwt beam="2">  1       -1 0.11103344E+00 0.14787389E+04</pdfrwt>
<totfact> 0.14333563E-01</totfact>
</mgrwt>
</event>
<event>
 4    1  0.8749406E-009  0.6351895E+03  0.7818608E-02  0.9834974E-01
         -1   -1    0    0    0  501 -0.00000000000E+00  0.00000000000E+00  0.22507757666E+04  0.22507757666E+04  0.50400000000E-02 0.  1.
          1   -1    0    0  501    0  0.00000000000E+00 -0.00000000000E+00 -0.25366545707E+03  0.25366545712E+03  0.50400000000E-02 0. -1.
    8880022    1    1    2    0    0  0.37137192356E+03 -0.49209447177E+03  0.16767639003E+04  0.17930429178E+04  0.15294330000E+03 0.  0.
    8880022    1    1    2    0    0 -0.37137192356E+03  0.49209447177E+03  0.32034640924E+03  0.71139830593E+03  0.15294330000E+03 0.  0.
<mgrwt>
<rscale>  0 0.63518952E+03</rscale>
<asrwt>0</asrwt>
<pdfrwt beam="1">  1        1 0.39025456E-01 0.63518952E+03</pdfrwt>
<pdfrwt beam="2">  1       -1 0.34627318E+00 0.63518952E+03</pdfrwt>
<totfact> 0.19367124E+00</totfact>
</mgrwt>
</event>
<event>
 4    1  0.8749406E-009  0.5630615E+03  0.7818608E-02  0.9985151E-01
          1   -1    0    0  501    0  0.00000000000E+00  0.00000000000E+00  0.16256388208E+04  0.16256388208E+04  0.50400000000E-02 0. -1.
         -1   -1    0    0    0  501 -0.00000000000E+00 -0.00000000000E+00 -0.63591157734E+03  0.63591157736E+03  0.50400000000E-02 0.  1.
    8880022    1    1    2    0    0 -0.72724125140E+02 -0.53698955812E+03 -0.44668325142E+03  0.71872398319E+03  0.15294330000E+03 0.  0.
    8880022    1    1    2    0    0  0.72724125140E+02  0.53698955812E+03  0.14364104948E+04  0.15428264149E+04  0.15294330000E+03 0.  0.
<mgrwt>
<rscale>  0 0.56306149E+03</rscale>
<asrwt>0</asrwt>
<pdfrwt beam="1">  1        1 0.25009828E+00 0.56306149E+03</pdfrwt>
<pdfrwt beam="2">  1       -1 0.97832551E-01 0.56306149E+03</pdfrwt>
<totfact> 0.58062791E+00</totfact>
</mgrwt>
</event>
<event>
 4    1  0.8749406E-009  0.1402140E+04  0.7818608E-02  0.8952271E-01
         -1   -1    0    0    0  501 -0.00000000000E+00  0.00000000000E+00  0.93071840998E+03  0.93071841000E+03  0.50400000000E-02 0.  1.
          1   -1    0    0  501    0  0.00000000000E+00 -0.00000000000E+00 -0.26798821054E+04  0.26798821054E+04  0.50400000000E-02 0. -1.
    8880022    1    1    2    0    0 -0.43836975569E+03  0.13230403067E+04 -0.43794304329E+02  0.14028233281E+04  0.15294330000E+03 0.  0.
    8880022    1    1    2    0    0  0.43836975569E+03 -0.13230403067E+04 -0.17053693911E+04  0.22077771873E+04  0.15294330000E+03 0.  0.
<mgrwt>
<rscale>  0 0.14021396E+04</rscale>
<asrwt>0</asrwt>
<pdfrwt beam="1">  1        1 0.41228955E+00 0.14021396E+04</pdfrwt>
<pdfrwt beam="2">  1       -1 0.14318745E+00 0.14021396E+04</pdfrwt>
<totfact> 0.38556640E-01</totfact>
</mgrwt>
</event>
<event>
 4    1  0.8749406E-009  0.1555653E+04  0.7818608E-02  0.8848265E-01
          1   -1    0    0  501    0  0.00000000000E+00  0.00000000000E+00  0.29462599736E+04  0.29462599736E+04  0.50400000000E-02 0. -1.
         -1   -1    0    0    0  501 -0.00000000000E+00 -0.00000000000E+00 -0.91010494253E+03  0.91010494255E+03  0.50400000000E-02 0.  1.
    8880022    1    1    2    0    0  0.12667817613E+04 -0.88990400145E+03  0.16200508263E+04  0.22460234851E+04  0.15294330000E+03 0.  0.
    8880022    1    1    2    0    0 -0.12667817613E+04  0.88990400145E+03  0.41610420476E+03  0.16103414311E+04  0.15294330000E+03 0.  0.
<mgrwt>
<rscale>  0 0.15556532E+04</rscale>
<asrwt>0</asrwt>
<pdfrwt beam="1">  1        1 0.45327077E+00 0.15556532E+04</pdfrwt>
<pdfrwt beam="2">  1       -1 0.14001614E+00 0.15556532E+04</pdfrwt>
<totfact> 0.25945501E-01</totfact>
</mgrwt>
</event>
<event>
 4    1  0.8749406E-009  0.1027731E+04  0.7818608E-02  0.9278642E-01
          1   -1    0    0  501    0  0.00000000000E+00  0.00000000000E+00  0.19265229585E+04  0.19265229585E+04  0.50400000000E-02 0. -1.
         -1   -1    0    0    0  501 -0.00000000000E+00 -0.00000000000E+00 -0.16822473621E+04  0.16822473621E+04  0.50400000000E-02 0.  1.
    8880022    1    1    2    0    0 -0.67153076609E+03  0.76281462193E+03  0.16035940607E+04  0.19046640863E+04  0.15294330000E+03 0.  0.
    8880022    1    1    2    0    0  0.67153076609E+03 -0.76281462193E+03 -0.13593184643E+04  0.17041062343E+04  0.15294330000E+03 0.  0.
<mgrwt>
<rscale>  0 0.10277312E+04</rscale>
<asrwt>0</asrwt>
<pdfrwt beam="1">  1        1 0.29638815E+00 0.10277312E+04</pdfrwt>
<pdfrwt beam="2">  1       -1 0.25880729E+00 0.10277312E+04</pdfrwt>
<totfact> 0.20652459E-01</totfact>
</mgrwt>
</event>
<event>
 4    1  0.8749406E-009  0.2554330E+03  0.7818608E-02  0.1109919E+00
          1   -1    0    0  501    0  0.00000000000E+00  0.00000000000E+00  0.43146903248E+03  0.43146903251E+03  0.50400000000E-02 0. -1.
         -1   -1    0    0    0  501 -0.00000000000E+00 -0.00000000000E+00 -0.41579619074E+03  0.41579619078E+03  0.50400000000E-02 0.  1.
    8880022    1    1    2    0    0  0.15972805989E+03  0.12783304547E+03  0.34576579570E+03  0.42988368092E+03  0.15294330000E+03 0.  0.
    8880022    1    1    2    0    0 -0.15972805989E+03 -0.12783304547E+03 -0.33009295397E+03  0.41738154236E+03  0.15294330000E+03 0.  1.
<mgrwt>
<rscale>  0 0.25543295E+03</rscale>
<asrwt>0</asrwt>
<pdfrwt beam="1">  1        1 0.66379851E-01 0.25543295E+03</pdfrwt>
<pdfrwt beam="2">  1       -1 0.63968644E-01 0.25543295E+03</pdfrwt>
<totfact> 0.14263782E+02</totfact>
</mgrwt>
</event>
<event>
 4    1  0.8749406E-009  0.1427213E+04  0.7818608E-02  0.8934352E-01
          1   -1    0    0  501    0  0.00000000000E+00  0.00000000000E+00  0.14806079885E+04  0.14806079885E+04  0.50400000000E-02 0. -1.
         -1   -1    0    0    0  501 -0.00000000000E+00 -0.00000000000E+00 -0.16270896867E+04  0.16270896868E+04  0.50400000000E-02 0.  1.
    8880022    1    1    2    0    0  0.11371769860E+04  0.84874858330E+03  0.53747456908E+03  0.15250626940E+04  0.15294330000E+03 0.  0.
    8880022    1    1    2    0    0 -0.11371769860E+04 -0.84874858330E+03 -0.68395626737E+03  0.15826349812E+04  0.15294330000E+03 0.  0.
<mgrwt>
<rscale>  0 0.14272131E+04</rscale>
<asrwt>0</asrwt>
<pdfrwt beam="1">  1        1 0.22778584E+00 0.14272131E+04</pdfrwt>
<pdfrwt beam="2">  1       -1 0.25032149E+00 0.14272131E+04</pdfrwt>
<totfact> 0.44647530E-01</totfact>
</mgrwt>
</event>
<event>
 4    1  0.8749406E-009  0.1312166E+04  0.7818608E-02  0.9019973E-01
         -1   -1    0    0    0  501 -0.00000000000E+00  0.00000000000E+00  0.14909555801E+04  0.14909555801E+04  0.50400000000E-02 0.  1.
          1   -1    0    0  501    0  0.00000000000E+00 -0.00000000000E+00 -0.15656141788E+04  0.15656141788E+04  0.50400000000E-02 0. -1.
    8880022    1    1    2    0    0  0.10005130177E+04  0.83508132585E+03 -0.82017542452E+03  0.15474063782E+04  0.15294330000E+03 0.  0.
    8880022    1    1    2    0    0 -0.10005130177E+04 -0.83508132585E+03  0.74551682581E+03  0.15091633808E+04  0.15294330000E+03 0.  0.
<mgrwt>
<rscale>  0 0.13121657E+04</rscale>
<asrwt>0</asrwt>
<pdfrwt beam="1">  1        1 0.24086372E+00 0.13121657E+04</pdfrwt>
<pdfrwt beam="2">  1       -1 0.22937778E+00 0.13121657E+04</pdfrwt>
<totfact> 0.54263637E-01</totfact>
</mgrwt>
</event>
<event>
 4    1  0.8749406E-009  0.9848846E+03  0.7818608E-02  0.9325280E-01
          1   -1    0    0  501    0  0.00000000000E+00  0.00000000000E+00  0.27555041071E+04  0.27555041071E+04  0.50400000000E-02 0. -1.
         -1   -1    0    0    0  501 -0.00000000000E+00 -0.00000000000E+00 -0.43890101623E+03  0.43890101625E+03  0.50400000000E-02 0.  1.
    8880022    1    1    2    0    0  0.79234936347E+03 -0.56461366875E+03  0.18689166408E+04  0.21125451882E+04  0.15294330000E+03 0.  0.
    8880022    1    1    2    0    0 -0.79234936347E+03  0.56461366875E+03  0.44768645001E+03  0.10818599351E+04  0.15294330000E+03 0.  0.
<mgrwt>
<rscale>  0 0.98488464E+03</rscale>
<asrwt>0</asrwt>
<pdfrwt beam="1">  1        1 0.42392371E+00 0.98488464E+03</pdfrwt>
<pdfrwt beam="2">  1       -1 0.67523234E-01 0.98488464E+03</pdfrwt>
<totfact> 0.20424996E+00</totfact>
</mgrwt>
</event>
<event>
 4    1  0.8749406E-009  0.2878608E+03  0.7818608E-02  0.1091471E+00
          1   -1    0    0  501    0  0.00000000000E+00  0.00000000000E+00  0.34002536061E+04  0.34002536061E+04  0.50400000000E-02 0. -1.
         -1   -1    0    0    0  501 -0.00000000000E+00 -0.00000000000E+00 -0.38777294595E+03  0.38777294598E+03  0.50400000000E-02 0.  1.
    8880022    1    1    2    0    0 -0.27770670682E+01  0.24385341163E+03 -0.32729188731E+03  0.43587134682E+03  0.15294330000E+03 0.  0.
    8880022    1    1    2    0    0  0.27770670682E+01 -0.24385341163E+03  0.33397725475E+04  0.33521552053E+04  0.15294330000E+03 0.  0.
<mgrwt>
<rscale>  0 0.28786082E+03</rscale>
<asrwt>0</asrwt>
<pdfrwt beam="1">  1        1 0.52311594E+00 0.28786082E+03</pdfrwt>
<pdfrwt beam="2">  1       -1 0.59657377E-01 0.28786082E+03</pdfrwt>
<totfact> 0.11011046E+00</totfact>
</mgrwt>
</event>
<event>
 4    1  0.8749406E-009  0.9474076E+03  0.7818608E-02  0.9368186E-01
         -1   -1    0    0    0  501 -0.00000000000E+00  0.00000000000E+00  0.19382458995E+04  0.19382458995E+04  0.50400000000E-02 0.  1.
          1   -1    0    0  501    0  0.00000000000E+00 -0.00000000000E+00 -0.76691749723E+03  0.76691749725E+03  0.50400000000E-02 0. -1.
    8880022    1    1    2    0    0  0.93497888492E+03  0.19943823560E+01  0.14370044085E+04  0.17212096955E+04  0.15294330000E+03 0.  0.
    8880022    1    1    2    0    0 -0.93497888492E+03 -0.19943823560E+01 -0.26567600628E+03  0.98395370122E+03  0.15294330000E+03 0.  0.
<mgrwt>
<rscale>  0 0.94740759E+03</rscale>
<asrwt>0</asrwt>
<pdfrwt beam="1">  1        1 0.11798731E+00 0.94740759E+03</pdfrwt>
<pdfrwt beam="2">  1       -1 0.29819167E+00 0.94740759E+03</pdfrwt>
<totfact> 0.81979856E-01</totfact>
</mgrwt>
</event>
<event>
 4    1  0.8749406E-009  0.1428651E+04  0.7818608E-02  0.8933336E-01
          1   -1    0    0  501    0  0.00000000000E+00  0.00000000000E+00  0.77038443145E+03  0.77038443146E+03  0.50400000000E-02 0. -1.
         -1   -1    0    0    0  501 -0.00000000000E+00 -0.00000000000E+00 -0.27708799393E+04  0.27708799393E+04  0.50400000000E-02 0.  1.
    8880022    1    1    2    0    0 -0.24441339826E+03 -0.13992552449E+04 -0.13710129436E+04  0.19800811332E+04  0.15294330000E+03 0.  0.
    8880022    1    1    2    0    0  0.24441339826E+03  0.13992552449E+04 -0.62948256432E+03  0.15611832376E+04  0.15294330000E+03 0.  0.
<mgrwt>
<rscale>  0 0.14286514E+04</rscale>
<asrwt>0</asrwt>
<pdfrwt beam="1">  1        1 0.11852068E+00 0.14286514E+04</pdfrwt>
<pdfrwt beam="2">  1       -1 0.42628922E+00 0.14286514E+04</pdfrwt>
<totfact> 0.10688419E-01</totfact>
</mgrwt>
</event>
<event>
 4    1  0.8749406E-009  0.6567147E+03  0.7818608E-02  0.9794260E-01
         -1   -1    0    0    0  501 -0.00000000000E+00  0.00000000000E+00  0.99544732831E+03  0.99544732832E+03  0.50400000000E-02 0.  1.
          1   -1    0    0  501    0  0.00000000000E+00 -0.00000000000E+00 -0.11082574207E+04  0.11082574207E+04  0.50400000000E-02 0. -1.
    8880022    1    1    2    0    0  0.21518950105E+02  0.63829422644E+03  0.76449411782E+03  0.10078320762E+04  0.15294330000E+03 0.  0.
    8880022    1    1    2    0    0 -0.21518950105E+02 -0.63829422644E+03 -0.87730421021E+03  0.10958726728E+04  0.15294330000E+03 0.  0.
<mgrwt>
<rscale>  0 0.65671473E+03</rscale>
<asrwt>0</asrwt>
<pdfrwt beam="1">  1        1 0.17050114E+00 0.65671473E+03</pdfrwt>
<pdfrwt beam="2">  1       -1 0.15314574E+00 0.65671473E+03</pdfrwt>
<totfact> 0.43502689E+00</totfact>
</mgrwt>
</event>
<event>
 4    1  0.8749406E-009  0.7384828E+03  0.7818608E-02  0.9653594E-01
          1   -1    0    0  501    0  0.00000000000E+00  0.00000000000E+00  0.63337916314E+03  0.63337916316E+03  0.50400000000E-02 0. -1.
         -1   -1    0    0    0  501 -0.00000000000E+00 -0.00000000000E+00 -0.13130789775E+04  0.13130789775E+04  0.50400000000E-02 0.  1.
    8880022    1    1    2    0    0  0.63354075955E+03  0.34726267774E+03 -0.91088601063E+03  0.11726338895E+04  0.15294330000E+03 0.  0.
    8880022    1    1    2    0    0 -0.63354075955E+03 -0.34726267774E+03  0.23118619628E+03  0.77382425119E+03  0.15294330000E+03 0.  0.
<mgrwt>
<rscale>  0 0.73848285E+03</rscale>
<asrwt>0</asrwt>
<pdfrwt beam="1">  1        1 0.97442949E-01 0.73848285E+03</pdfrwt>
<pdfrwt beam="2">  1       -1 0.20201215E+00 0.73848285E+03</pdfrwt>
<totfact> 0.47900881E+00</totfact>
</mgrwt>
</event>
<event>
 4    1  0.8749406E-009  0.9807157E+03  0.7818608E-02  0.9329952E-01
          1   -1    0    0  501    0  0.00000000000E+00  0.00000000000E+00  0.11543775998E+04  0.11543775998E+04  0.50400000000E-02 0. -1.
         -1   -1    0    0    0  501 -0.00000000000E+00 -0.00000000000E+00 -0.15236796522E+04  0.15236796522E+04  0.50400000000E-02 0.  1.
    8880022    1    1    2    0    0  0.62436354048E+03 -0.74066306875E+03 -0.10860665841E+04  0.14633331439E+04  0.15294330000E+03 0.  0.
    8880022    1    1    2    0    0 -0.62436354048E+03  0.74066306875E+03  0.71676453160E+03  0.12147241081E+04  0.15294330000E+03 0.  0.
<mgrwt>
<rscale>  0 0.98071569E+03</rscale>
<asrwt>0</asrwt>
<pdfrwt beam="1">  1        1 0.17759655E+00 0.98071569E+03</pdfrwt>
<pdfrwt beam="2">  1       -1 0.23441225E+00 0.98071569E+03</pdfrwt>
<totfact> 0.10293661E+00</totfact>
</mgrwt>
</event>
<event>
 4    1  0.8749406E-009  0.1180337E+04  0.7818608E-02  0.9130244E-01
         -1   -1    0    0    0  501 -0.00000000000E+00  0.00000000000E+00  0.93415267248E+03  0.93415267249E+03  0.50400000000E-02 0.  1.
          1   -1    0    0  501    0  0.00000000000E+00 -0.00000000000E+00 -0.30544796800E+04  0.30544796800E+04  0.50400000000E-02 0. -1.
    8880022    1    1    2    0    0 -0.11669634668E+04  0.89437390864E+02 -0.24868090296E+04  0.27527102250E+04  0.15294330000E+03 0.  0.
    8880022    1    1    2    0    0  0.11669634668E+04 -0.89437390864E+02  0.36648202209E+03  0.12359221275E+04  0.15294330000E+03 0.  0.
<mgrwt>
<rscale>  0 0.11803366E+04</rscale>
<asrwt>0</asrwt>
<pdfrwt beam="1">  1        1 0.46991995E+00 0.11803366E+04</pdfrwt>
<pdfrwt beam="2">  1       -1 0.14371580E+00 0.11803366E+04</pdfrwt>
<totfact> 0.21266220E-01</totfact>
</mgrwt>
</event>
<event>
 4    1  0.8749406E-009  0.7368394E+03  0.7818608E-02  0.9656227E-01
          1   -1    0    0  501    0  0.00000000000E+00  0.00000000000E+00  0.32660034458E+04  0.32660034458E+04  0.50400000000E-02 0. -1.
         -1   -1    0    0    0  501 -0.00000000000E+00 -0.00000000000E+00 -0.18140736686E+03  0.18140736693E+03  0.50400000000E-02 0.  1.
    8880022    1    1    2    0    0  0.67570517307E+03 -0.25092451643E+03  0.20407536322E+04  0.21697021995E+04  0.15294330000E+03 0. -1.
    8880022    1    1    2    0    0 -0.67570517307E+03  0.25092451643E+03  0.10438424467E+04  0.12777086132E+04  0.15294330000E+03 0.  0.
<mgrwt>
<rscale>  0 0.73683936E+03</rscale>
<asrwt>0</asrwt>
<pdfrwt beam="1">  1        1 0.50246204E+00 0.73683936E+03</pdfrwt>
<pdfrwt beam="2">  1       -1 0.27908828E-01 0.73683936E+03</pdfrwt>
<totfact> 0.47224361E+00</totfact>
</mgrwt>
</event>
<event>
 4    1  0.8749406E-009  0.6546446E+03  0.7818608E-02  0.9798103E-01
          1   -1    0    0  501    0  0.00000000000E+00  0.00000000000E+00  0.23677501125E+04  0.23677501125E+04  0.50400000000E-02 0. -1.
         -1   -1    0    0    0  501 -0.00000000000E+00 -0.00000000000E+00 -0.50736258708E+03  0.50736258710E+03  0.50400000000E-02 0.  1.
    8880022    1    1    2    0    0 -0.12124469207E+03 -0.62487412487E+03 -0.22277285212E+03  0.69151091383E+03  0.15294330000E+03 0.  1.
    8880022    1    1    2    0    0  0.12124469207E+03  0.62487412487E+03  0.20831603776E+04  0.21836017858E+04  0.15294330000E+03 0.  0.
<mgrwt>
<rscale>  0 0.65464464E+03</rscale>
<asrwt>0</asrwt>
<pdfrwt beam="1">  1        1 0.36426924E+00 0.65464464E+03</pdfrwt>
<pdfrwt beam="2">  1       -1 0.78055784E-01 0.65464464E+03</pdfrwt>
<totfact> 0.29699194E+00</totfact>
</mgrwt>
</event>
<event>
 4    1  0.8749406E-009  0.1446816E+04  0.7818608E-02  0.8920611E-01
         -1   -1    0    0    0  501 -0.00000000000E+00  0.00000000000E+00  0.15983374413E+04  0.15983374413E+04  0.50400000000E-02 0.  1.
          1   -1    0    0  501    0  0.00000000000E+00 -0.00000000000E+00 -0.16703335732E+04  0.16703335732E+04  0.50400000000E-02 0. -1.
    8880022    1    1    2    0    0 -0.22924077782E+03 -0.14203284642E+04  0.72344947768E+03  0.16176078264E+04  0.15294330000E+03 0.  0.
    8880022    1    1    2    0    0  0.22924077782E+03  0.14203284642E+04 -0.79544560953E+03  0.16510631881E+04  0.15294330000E+03 0.  0.
<mgrwt>
<rscale>  0 0.14468158E+04</rscale>
<asrwt>0</asrwt>
<pdfrwt beam="1">  1        1 0.25697440E+00 0.14468158E+04</pdfrwt>
<pdfrwt beam="2">  1       -1 0.24589807E+00 0.14468158E+04</pdfrwt>
<totfact> 0.35203976E-01</totfact>
</mgrwt>
</event>
<event>
 4    1  0.8749406E-009  0.1156456E+04  0.7818608E-02  0.9151848E-01
          1   -1    0    0  501    0  0.00000000000E+00  0.00000000000E+00  0.17492182605E+04  0.17492182605E+04  0.50400000000E-02 0. -1.
         -1   -1    0    0    0  501 -0.00000000000E+00 -0.00000000000E+00 -0.10365107030E+04  0.10365107030E+04  0.50400000000E-02 0.  1.
    8880022    1    1    2    0    0  0.45261720704E+03  0.10531559213E+04 -0.35709520030E+03  0.12103339894E+04  0.15294330000E+03 0.  0.
    8880022    1    1    2    0    0 -0.45261720704E+03 -0.10531559213E+04  0.10698027578E+04  0.15753949741E+04  0.15294330000E+03 0.  0.
<mgrwt>
<rscale>  0 0.11564564E+04</rscale>
<asrwt>0</asrwt>
<pdfrwt beam="1">  1        1 0.26911050E+00 0.11564564E+04</pdfrwt>
<pdfrwt beam="2">  1       -1 0.15946319E+00 0.11564564E+04</pdfrwt>
<totfact> 0.12839817E+00</totfact>
</mgrwt>
</event>
<event>
 4    1  0.8749406E-009  0.9837135E+03  0.7818608E-02  0.9326590E-01
          1   -1    0    0  501    0  0.00000000000E+00  0.00000000000E+00  0.13865719057E+04  0.13865719058E+04  0.50400000000E-02 0. -1.
         -1   -1    0    0    0  501 -0.00000000000E+00 -0.00000000000E+00 -0.10353865128E+04  0.10353865129E+04  0.50400000000E-02 0.  1.
    8880022    1    1    2    0    0 -0.88256924340E+03 -0.40665974682E+03 -0.51577950095E+03  0.11107298347E+04  0.15294330000E+03 0.  0.
    8880022    1    1    2    0    0  0.88256924340E+03  0.40665974682E+03  0.86696489385E+03  0.13112285839E+04  0.15294330000E+03 0.  0.
<mgrwt>
<rscale>  0 0.98371351E+03</rscale>
<asrwt>0</asrwt>
<pdfrwt beam="1">  1        1 0.21331876E+00 0.98371351E+03</pdfrwt>
<pdfrwt beam="2">  1       -1 0.15929023E+00 0.98371351E+03</pdfrwt>
<totfact> 0.23395701E+00</totfact>
</mgrwt>
</event>
<event>
 4    1  0.8749406E-009  0.1138938E+04  0.7818608E-02  0.9168050E-01
          1   -1    0    0  501    0  0.00000000000E+00  0.00000000000E+00  0.23437256794E+04  0.23437256794E+04  0.50400000000E-02 0. -1.
         -1   -1    0    0    0  501 -0.00000000000E+00 -0.00000000000E+00 -0.15962589890E+04  0.15962589890E+04  0.50400000000E-02 0.  1.
    8880022    1    1    2    0    0 -0.11293857047E+03 -0.11229570818E+04 -0.12185167962E+04  0.16679216300E+04  0.15294330000E+03 0.  0.
    8880022    1    1    2    0    0  0.11293857047E+03  0.11229570818E+04  0.19659834865E+04  0.22720630384E+04  0.15294330000E+03 0.  0.
<mgrwt>
<rscale>  0 0.11389378E+04</rscale>
<asrwt>0</asrwt>
<pdfrwt beam="1">  1        1 0.36057318E+00 0.11389378E+04</pdfrwt>
<pdfrwt beam="2">  1       -1 0.24557831E+00 0.11389378E+04</pdfrwt>
<totfact> 0.12883917E-01</totfact>
</mgrwt>
</event>
<event>
 4    1  0.8749406E-009  0.2689912E+03  0.7818608E-02  0.1101858E+00
         -1   -1    0    0    0  501 -0.00000000000E+00  0.00000000000E+00  0.13288278014E+03  0.13288278024E+03  0.50400000000E-02 0.  1.
          1   -1    0    0  501    0  0.00000000000E+00 -0.00000000000E+00 -0.11321369081E+04  0.11321369081E+04  0.50400000000E-02 0. -1.
    8880022    1    1    2    0    0 -0.17424683562E+03 -0.13639146183E+03 -0.43938655028E+02  0.27255613918E+03  0.15294330000E+03 0.  0.
    8880022    1    1    2    0    0  0.17424683562E+03  0.13639146183E+03 -0.95531547295E+03  0.99246354919E+03  0.15294330000E+03 0.  0.
<mgrwt>
<rscale>  0 0.26899116E+03</rscale>
<asrwt>0</asrwt>
<pdfrwt beam="1">  1        1 0.17417490E+00 0.26899116E+03</pdfrwt>
<pdfrwt beam="2">  1       -1 0.20443505E-01 0.26899116E+03</pdfrwt>
<totfact> 0.25082017E+02</totfact>
</mgrwt>
</event>
<event>
 4    1  0.8749406E-009  0.1572634E+04  0.7818608E-02  0.8837539E-01
         -1   -1    0    0    0  501 -0.00000000000E+00  0.00000000000E+00  0.19154163320E+04  0.19154163320E+04  0.50400000000E-02 0.  1.
          1   -1    0    0  501    0  0.00000000000E+00 -0.00000000000E+00 -0.13992282384E+04  0.13992282384E+04  0.50400000000E-02 0. -1.
    8880022    1    1    2    0    0  0.12475064207E+04 -0.94525868675E+03  0.71860437530E+03  0.17290373495E+04  0.15294330000E+03 0.  0.
    8880022    1    1    2    0    0 -0.12475064207E+04  0.94525868675E+03 -0.20241628171E+03  0.15856072208E+04  0.15294330000E+03 0.  0.
<mgrwt>
<rscale>  0 0.15726341E+04</rscale>
<asrwt>0</asrwt>
<pdfrwt beam="1">  1        1 0.21526588E+00 0.15726341E+04</pdfrwt>
<pdfrwt beam="2">  1       -1 0.29467944E+00 0.15726341E+04</pdfrwt>
<totfact> 0.25823406E-01</totfact>
</mgrwt>
</event>
<event>
 4    1  0.8749406E-009  0.5159205E+03  0.7818608E-02  0.1009705E+00
          1   -1    0    0  501    0  0.00000000000E+00  0.00000000000E+00  0.18812166346E+04  0.18812166346E+04  0.50400000000E-02 0. -1.
         -1   -1    0    0    0  501 -0.00000000000E+00 -0.00000000000E+00 -0.90657248250E+03  0.90657248251E+03  0.50400000000E-02 0.  1.
    8880022    1    1    2    0    0 -0.21443522006E+03 -0.44362126147E+03  0.17678312531E+04  0.18415757599E+04  0.15294330000E+03 0.  0.
    8880022    1    1    2    0    0  0.21443522006E+03  0.44362126147E+03 -0.79318710095E+03  0.94621335720E+03  0.15294330000E+03 0.  1.
<mgrwt>
<rscale>  0 0.51592048E+03</rscale>
<asrwt>0</asrwt>
<pdfrwt beam="1">  1        1 0.28941794E+00 0.51592048E+03</pdfrwt>
<pdfrwt beam="2">  1       -1 0.13947269E+00 0.51592048E+03</pdfrwt>
<totfact> 0.16950358E+00</totfact>
</mgrwt>
</event>
<event>
 4    1  0.8749406E-009  0.8858851E+03  0.7818608E-02  0.9443400E-01
          1   -1    0    0  501    0  0.00000000000E+00  0.00000000000E+00  0.18773943421E+04  0.18773943421E+04  0.50400000000E-02 0. -1.
         -1   -1    0    0    0  501 -0.00000000000E+00 -0.00000000000E+00 -0.50878790345E+03  0.50878790348E+03  0.50400000000E-02 0.  1.
    8880022    1    1    2    0    0  0.31225150624E+03  0.81480040963E+03  0.11882286842E+04  0.14821200254E+04  0.15294330000E+03 0.  0.
    8880022    1    1    2    0    0 -0.31225150624E+03 -0.81480040963E+03  0.18037775446E+03  0.90406222021E+03  0.15294330000E+03 0.  0.
<mgrwt>
<rscale>  0 0.88588507E+03</rscale>
<asrwt>0</asrwt>
<pdfrwt beam="1">  1        1 0.28882990E+00 0.88588507E+03</pdfrwt>
<pdfrwt beam="2">  1       -1 0.78275062E-01 0.88588507E+03</pdfrwt>
<totfact> 0.60454026E+00</totfact>
</mgrwt>
</event>
<event>
 4    1  0.8749406E-009  0.7209971E+03  0.7818608E-02  0.9681983E-01
          1   -1    0    0  501    0  0.00000000000E+00  0.00000000000E+00  0.19894598040E+04  0.19894598040E+04  0.50400000000E-02 0. -1.
         -1   -1    0    0    0  501 -0.00000000000E+00 -0.00000000000E+00 -0.10175429358E+04  0.10175429358E+04  0.50400000000E-02 0.  1.
    8880022    1    1    2    0    0 -0.41700660111E+03 -0.56793539886E+03 -0.81020400184E+03  0.10845585739E+04  0.15294330000E+03 0.  0.
    8880022    1    1    2    0    0  0.41700660111E+03  0.56793539886E+03  0.17821208700E+04  0.19224441659E+04  0.15294330000E+03 0.  0.
<mgrwt>
<rscale>  0 0.72099707E+03</rscale>
<asrwt>0</asrwt>
<pdfrwt beam="1">  1        1 0.30607073E+00 0.72099707E+03</pdfrwt>
<pdfrwt beam="2">  1       -1 0.15654507E+00 0.72099707E+03</pdfrwt>
<totfact> 0.10020674E+00</totfact>
</mgrwt>
</event>
<event>
 4    1  0.8749406E-009  0.1403659E+04  0.7818608E-02  0.8951174E-01
         -1   -1    0    0    0  501 -0.00000000000E+00  0.00000000000E+00  0.15794837458E+04  0.15794837458E+04  0.50400000000E-02 0.  1.
          1   -1    0    0  501    0  0.00000000000E+00 -0.00000000000E+00 -0.18802029297E+04  0.18802029297E+04  0.50400000000E-02 0. -1.
    8880022    1    1    2    0    0  0.76309323500E+03 -0.11681422112E+04  0.85318397476E+03  0.16426143975E+04  0.15294330000E+03 0.  0.
    8880022    1    1    2    0    0 -0.76309323500E+03  0.11681422112E+04 -0.11539031587E+04  0.18170722780E+04  0.15294330000E+03 0.  0.
<mgrwt>
<rscale>  0 0.14036592E+04</rscale>
<asrwt>0</asrwt>
<pdfrwt beam="1">  1        1 0.28926199E+00 0.14036592E+04</pdfrwt>
<pdfrwt beam="2">  1       -1 0.24299750E+00 0.14036592E+04</pdfrwt>
<totfact> 0.26591962E-01</totfact>
</mgrwt>
</event>
<event>
 4    1  0.8749406E-009  0.7226676E+03  0.7818608E-02  0.9679234E-01
          1   -1    0    0  501    0  0.00000000000E+00  0.00000000000E+00  0.64373227660E+03  0.64373227662E+03  0.50400000000E-02 0. -1.
         -1   -1    0    0    0  501 -0.00000000000E+00 -0.00000000000E+00 -0.12510940798E+04  0.12510940798E+04  0.50400000000E-02 0.  1.
    8880022    1    1    2    0    0  0.46368219409E+03  0.53278102604E+03  0.25804956657E+03  0.76735782438E+03  0.15294330000E+03 0.  0.
    8880022    1    1    2    0    0 -0.46368219409E+03 -0.53278102604E+03 -0.86541136979E+03  0.11274685321E+04  0.15294330000E+03 0.  0.
<mgrwt>
<rscale>  0 0.72266759E+03</rscale>
<asrwt>0</asrwt>
<pdfrwt beam="1">  1        1 0.99035735E-01 0.72266759E+03</pdfrwt>
<pdfrwt beam="2">  1       -1 0.19247601E+00 0.72266759E+03</pdfrwt>
<totfact> 0.54527258E+00</totfact>
</mgrwt>
</event>
<event>
 4    1  0.8749406E-009  0.4159749E+03  0.7818608E-02  0.1038384E+00
          1   -1    0    0  501    0  0.00000000000E+00  0.00000000000E+00  0.85656687037E+03  0.85656687039E+03  0.50400000000E-02 0. -1.
         -1   -1    0    0    0  501 -0.00000000000E+00 -0.00000000000E+00 -0.57162198925E+03  0.57162198927E+03  0.50400000000E-02 0.  1.
    8880022    1    1    2    0    0  0.22371721938E+03 -0.31558522361E+03 -0.43174212173E+03  0.59953009957E+03  0.15294330000E+03 0.  0.
    8880022    1    1    2    0    0 -0.22371721938E+03  0.31558522361E+03  0.71668700285E+03  0.82865876009E+03  0.15294330000E+03 0. -1.
<mgrwt>
<rscale>  0 0.41597486E+03</rscale>
<asrwt>0</asrwt>
<pdfrwt beam="1">  1        1 0.13177952E+00 0.41597486E+03</pdfrwt>
<pdfrwt beam="2">  1       -1 0.87941844E-01 0.41597486E+03</pdfrwt>
<totfact> 0.27111421E+01</totfact>
</mgrwt>
</event>
<event>
 4    1  0.8749406E-009  0.5825189E+03  0.7818608E-02  0.9942352E-01
         -1   -1    0    0    0  501 -0.00000000000E+00  0.00000000000E+00  0.25940882329E+04  0.25940882330E+04  0.50400000000E-02 0.  1.
          1   -1    0    0  501    0  0.00000000000E+00 -0.00000000000E+00 -0.32528853522E+03  0.32528853526E+03  0.50400000000E-02 0. -1.
    8880022    1    1    2    0    0  0.41033054295E+03  0.38414255444E+03  0.57389157327E+01  0.58254720390E+03  0.15294330000E+03 0.  0.
    8880022    1    1    2    0    0 -0.41033054295E+03 -0.38414255444E+03  0.22630607820E+04  0.23368295643E+04  0.15294330000E+03 0.  0.
<mgrwt>
<rscale>  0 0.58251893E+03</rscale>
<asrwt>0</asrwt>
<pdfrwt beam="1">  1        1 0.50044390E-01 0.58251893E+03</pdfrwt>
<pdfrwt beam="2">  1       -1 0.39909050E+00 0.58251893E+03</pdfrwt>
<totfact> 0.63479084E-01</totfact>
</mgrwt>
</event>
<event>
 4    1  0.8749406E-009  0.4847825E+03  0.7818608E-02  0.1017829E+00
         -1   -1    0    0    0  501 -0.00000000000E+00  0.00000000000E+00  0.71543147870E+03  0.71543147872E+03  0.50400000000E-02 0.  1.
          1   -1    0    0  501    0  0.00000000000E+00 -0.00000000000E+00 -0.11754916255E+04  0.11754916255E+04  0.50400000000E-02 0. -1.
    8880022    1    1    2    0    0  0.22202306608E+03  0.40289974835E+03  0.57252621595E+03  0.75020021998E+03  0.15294330000E+03 0.  0.
    8880022    1    1    2    0    0 -0.22202306608E+03 -0.40289974835E+03 -0.10325863628E+04  0.11407228843E+04  0.15294330000E+03 0.  0.
<mgrwt>
<rscale>  0 0.48478253E+03</rscale>
<asrwt>0</asrwt>
<pdfrwt beam="1">  1        1 0.18084487E+00 0.48478253E+03</pdfrwt>
<pdfrwt beam="2">  1       -1 0.11006638E+00 0.48478253E+03</pdfrwt>
<totfact> 0.92190680E+00</totfact>
</mgrwt>
</event>
<event>
 4    1  0.8749406E-009  0.3297189E+03  0.7818608E-02  0.1071261E+00
          1   -1    0    0  501    0  0.00000000000E+00  0.00000000000E+00  0.32581172599E+04  0.32581172599E+04  0.50400000000E-02 0. -1.
         -1   -1    0    0    0  501 -0.00000000000E+00 -0.00000000000E+00 -0.14811123846E+04  0.14811123846E+04  0.50400000000E-02 0.  1.
    8880022    1    1    2    0    0 -0.33909261721E+02  0.29012596518E+03 -0.14542683550E+04  0.14911777275E+04  0.15294330000E+03 0.  0.
    8880022    1    1    2    0    0  0.33909261721E+02 -0.29012596518E+03  0.32312732302E+04  0.32480519170E+04  0.15294330000E+03 0. -1.
<mgrwt>
<rscale>  0 0.32971892E+03</rscale>
<asrwt>0</asrwt>
<pdfrwt beam="1">  1        1 0.50124881E+00 0.32971892E+03</pdfrwt>
<pdfrwt beam="2">  1       -1 0.22786344E+00 0.32971892E+03</pdfrwt>
<totfact> 0.50554512E-02</totfact>
</mgrwt>
</event>
<event>
 4    1  0.8749406E-009  0.1134849E+04  0.7818608E-02  0.9171876E-01
         -1   -1    0    0    0  501 -0.00000000000E+00  0.00000000000E+00  0.21734209340E+04  0.21734209340E+04  0.50400000000E-02 0.  1.
          1   -1    0    0  501    0  0.00000000000E+00 -0.00000000000E+00 -0.12873729579E+04  0.12873729579E+04  0.50400000000E-02 0. -1.
    8880022    1    1    2    0    0 -0.10776829145E+04  0.32107531227E+03  0.17142642043E+04  0.20558655684E+04  0.15294330000E+03 0.  0.
    8880022    1    1    2    0    0  0.10776829145E+04 -0.32107531227E+03 -0.82821622815E+03  0.14049283234E+04  0.15294330000E+03 0.  0.
<mgrwt>
<rscale>  0 0.11348487E+04</rscale>
<asrwt>0</asrwt>
<pdfrwt beam="1">  1        1 0.19805738E+00 0.11348487E+04</pdfrwt>
<pdfrwt beam="2">  1       -1 0.33437245E+00 0.11348487E+04</pdfrwt>
<totfact> 0.18141820E-01</totfact>
</mgrwt>
</event>
<event>
 4    1  0.8749406E-009  0.7274055E+03  0.7818608E-02  0.9671480E-01
          1   -1    0    0  501    0  0.00000000000E+00  0.00000000000E+00  0.20033430808E+04  0.20033430808E+04  0.50400000000E-02 0. -1.
         -1   -1    0    0    0  501 -0.00000000000E+00 -0.00000000000E+00 -0.92911547605E+03  0.92911547607E+03  0.50400000000E-02 0.  1.
    8880022    1    1    2    0    0 -0.67855701438E+03 -0.21280873635E+03  0.17775575114E+04  0.19206325883E+04  0.15294330000E+03 0.  0.
    8880022    1    1    2    0    0  0.67855701438E+03  0.21280873635E+03 -0.70332990664E+03  0.10118259685E+04  0.15294330000E+03 0.  0.
<mgrwt>
<rscale>  0 0.72740555E+03</rscale>
<asrwt>0</asrwt>
<pdfrwt beam="1">  1        1 0.30820662E+00 0.72740555E+03</pdfrwt>
<pdfrwt beam="2">  1       -1 0.14294084E+00 0.72740555E+03</pdfrwt>
<totfact> 0.12497960E+00</totfact>
</mgrwt>
</event>
<event>
 4    1  0.8749406E-009  0.1426529E+04  0.7818608E-02  0.8934836E-01
          1   -1    0    0  501    0  0.00000000000E+00  0.00000000000E+00  0.21463328187E+04  0.21463328187E+04  0.50400000000E-02 0. -1.
         -1   -1    0    0    0  501 -0.00000000000E+00 -0.00000000000E+00 -0.16834726012E+04  0.16834726012E+04  0.50400000000E-02 0.  1.
    8880022    1    1    2    0    0 -0.13957668518E+04  0.25184777792E+03  0.14970144501E+04  0.20678579072E+04  0.15294330000E+03 0.  0.
    8880022    1    1    2    0    0  0.13957668518E+04 -0.25184777792E+03 -0.10341542325E+04  0.17619475127E+04  0.15294330000E+03 0.  0.
<mgrwt>
<rscale>  0 0.14265287E+04</rscale>
<asrwt>0</asrwt>
<pdfrwt beam="1">  1        1 0.33020505E+00 0.14265287E+04</pdfrwt>
<pdfrwt beam="2">  1       -1 0.25899578E+00 0.14265287E+04</pdfrwt>
<totfact> 0.13745970E-01</totfact>
</mgrwt>
</event>
<event>
 4    1  0.8749406E-009  0.8926945E+03  0.7818608E-02  0.9434760E-01
         -1   -1    0    0    0  501 -0.00000000000E+00  0.00000000000E+00  0.14091135645E+04  0.14091135645E+04  0.50400000000E-02 0.  1.
          1   -1    0    0  501    0  0.00000000000E+00 -0.00000000000E+00 -0.10859484322E+04  0.10859484323E+04  0.50400000000E-02 0. -1.
    8880022    1    1    2    0    0 -0.84215006625E+03  0.25356478620E+03  0.10251989252E+04  0.13593882168E+04  0.15294330000E+03 0.  0.
    8880022    1    1    2    0    0  0.84215006625E+03 -0.25356478620E+03 -0.70203379295E+03  0.11356737799E+04  0.15294330000E+03 0.  0.
<mgrwt>
<rscale>  0 0.89269451E+03</rscale>
<asrwt>0</asrwt>
<pdfrwt beam="1">  1        1 0.16706899E+00 0.89269451E+03</pdfrwt>
<pdfrwt beam="2">  1       -1 0.21678670E+00 0.89269451E+03</pdfrwt>
<totfact> 0.15352100E+00</totfact>
</mgrwt>
</event>
<event>
 4    1  0.8749406E-009  0.4822476E+03  0.7818608E-02  0.1018519E+00
         -1   -1    0    0    0  501 -0.00000000000E+00  0.00000000000E+00  0.11916734696E+04  0.11916734696E+04  0.50400000000E-02 0.  1.
          1   -1    0    0  501    0  0.00000000000E+00 -0.00000000000E+00 -0.51360216548E+03  0.51360216551E+03  0.50400000000E-02 0. -1.
    8880022    1    1    2    0    0  0.30277032181E+03 -0.34278452562E+03 -0.33234509060E+03  0.58567568759E+03  0.15294330000E+03 0. -1.
    8880022    1    1    2    0    0 -0.30277032181E+03  0.34278452562E+03  0.10104163947E+04  0.11195999475E+04  0.15294330000E+03 0.  0.
<mgrwt>
<rscale>  0 0.48224760E+03</rscale>
<asrwt>0</asrwt>
<pdfrwt beam="1">  1        1 0.79015718E-01 0.48224760E+03</pdfrwt>
<pdfrwt beam="2">  1       -1 0.18333438E+00 0.48224760E+03</pdfrwt>
<totfact> 0.90603409E+00</totfact>
</mgrwt>
</event>
<event>
 4    1  0.8749406E-009  0.6769828E+03  0.7818608E-02  0.9757425E-01
          1   -1    0    0  501    0  0.00000000000E+00  0.00000000000E+00  0.13148573531E+04  0.13148573531E+04  0.50400000000E-02 0. -1.
         -1   -1    0    0    0  501 -0.00000000000E+00 -0.00000000000E+00 -0.64772683098E+03  0.64772683100E+03  0.50400000000E-02 0.  1.
    8880022    1    1    2    0    0 -0.88457295445E+02 -0.65352069687E+03  0.10004636148E+04  0.12079872069E+04  0.15294330000E+03 0.  0.
    8880022    1    1    2    0    0  0.88457295445E+02  0.65352069687E+03 -0.33333309270E+03  0.75459697724E+03  0.15294330000E+03 0.  0.
<mgrwt>
<rscale>  0 0.67698275E+03</rscale>
<asrwt>0</asrwt>
<pdfrwt beam="1">  1        1 0.20228575E+00 0.67698275E+03</pdfrwt>
<pdfrwt beam="2">  1       -1 0.99650282E-01 0.67698275E+03</pdfrwt>
<totfact> 0.88931694E+00</totfact>
</mgrwt>
</event>
<event>
 4    1  0.8749406E-009  0.3256295E+03  0.7818608E-02  0.1073087E+00
         -1   -1    0    0    0  501 -0.00000000000E+00  0.00000000000E+00  0.23660269167E+03  0.23660269173E+03  0.50400000000E-02 0.  1.
          1   -1    0    0  501    0  0.00000000000E+00 -0.00000000000E+00 -0.16313236458E+04  0.16313236458E+04  0.50400000000E-02 0. -1.
    8880022    1    1    2    0    0 -0.26292212675E+03 -0.11625359005E+03  0.98034924585E+02  0.34006681900E+03  0.15294330000E+03 0.  1.
    8880022    1    1    2    0    0  0.26292212675E+03  0.11625359005E+03 -0.14927558787E+04  0.15278595185E+04  0.15294330000E+03 0.  0.
<mgrwt>
<rscale>  0 0.32562954E+03</rscale>
<asrwt>0</asrwt>
<pdfrwt beam="1">  1        1 0.25097286E+00 0.32562954E+03</pdfrwt>
<pdfrwt beam="2">  1       -1 0.36400415E-01 0.32562954E+03</pdfrwt>
<totfact> 0.42650122E+01</totfact>
</mgrwt>
</event>
<event>
 4    1  0.8749406E-009  0.9996623E+03  0.7818608E-02  0.9308915E-01
         -1   -1    0    0    0  501 -0.00000000000E+00  0.00000000000E+00  0.71697742470E+03  0.71697742472E+03  0.50400000000E-02 0.  1.
          1   -1    0    0  501    0  0.00000000000E+00 -0.00000000000E+00 -0.18860049945E+04  0.18860049945E+04  0.50400000000E-02 0. -1.
    8880022    1    1    2    0    0  0.90730351684E+03  0.39081119719E+03  0.80364049349E+02  0.10028873800E+04  0.15294330000E+03 0.  0.
    8880022    1    1    2    0    0 -0.90730351684E+03 -0.39081119719E+03 -0.12493916191E+04  0.16000950392E+04  0.15294330000E+03 0.  0.
<mgrwt>
<rscale>  0 0.99966230E+03</rscale>
<asrwt>0</asrwt>
<pdfrwt beam="1">  1        1 0.29015461E+00 0.99966230E+03</pdfrwt>
<pdfrwt beam="2">  1       -1 0.11030422E+00 0.99966230E+03</pdfrwt>
<totfact> 0.27261600E+00</totfact>
</mgrwt>
</event>
<event>
 4    1  0.8749406E-009  0.5104163E+03  0.7818608E-02  0.1011095E+00
          1   -1    0    0  501    0  0.00000000000E+00  0.00000000000E+00  0.27029361627E+04  0.27029361627E+04  0.50400000000E-02 0. -1.
         -1   -1    0    0    0  501 -0.00000000000E+00 -0.00000000000E+00 -0.36623340773E+03  0.36623340776E+03  0.50400000000E-02 0.  1.
    8880022    1    1    2    0    0  0.47852470238E+03 -0.90262166554E+02  0.24856103154E+04  0.25374758014E+04  0.15294330000E+03 0.  0.
    8880022    1    1    2    0    0 -0.47852470238E+03  0.90262166554E+02 -0.14890756045E+03  0.53169376908E+03  0.15294330000E+03 0.  0.
<mgrwt>
<rscale>  0 0.51041630E+03</rscale>
<asrwt>0</asrwt>
<pdfrwt beam="1">  1        1 0.41583632E+00 0.51041630E+03</pdfrwt>
<pdfrwt beam="2">  1       -1 0.56343603E-01 0.51041630E+03</pdfrwt>
<totfact> 0.35088823E+00</totfact>
</mgrwt>
</event>
<event>
 4    1  0.8749406E-009  0.1230741E+04  0.7818608E-02  0.9086367E-01
         -1   -1    0    0    0  501 -0.00000000000E+00  0.00000000000E+00  0.83311000194E+03  0.83311000195E+03  0.50400000000E-02 0.  1.
          1   -1    0    0  501    0  0.00000000000E+00 -0.00000000000E+00 -0.29690335952E+04  0.29690335952E+04  0.50400000000E-02 0. -1.
    8880022    1    1    2    0    0 -0.57410524491E+03  0.10778377351E+04  0.11564055989E+03  0.12361615621E+04  0.15294330000E+03 0.  0.
    8880022    1    1    2    0    0  0.57410524491E+03 -0.10778377351E+04 -0.22515641531E+04  0.25659820350E+04  0.15294330000E+03 0.  0.
<mgrwt>
<rscale>  0 0.12307407E+04</rscale>
<asrwt>0</asrwt>
<pdfrwt beam="1">  1        1 0.45677439E+00 0.12307407E+04</pdfrwt>
<pdfrwt beam="2">  1       -1 0.12817077E+00 0.12307407E+04</pdfrwt>
<totfact> 0.32730042E-01</totfact>
</mgrwt>
</event>
<event>
 4    1  0.8749406E-009  0.1023871E+04  0.7818608E-02  0.9282745E-01
         -1   -1    0    0    0  501 -0.00000000000E+00  0.00000000000E+00  0.17126720919E+04  0.17126720919E+04  0.50400000000E-02 0.  1.
          1   -1    0    0  501    0  0.00000000000E+00 -0.00000000000E+00 -0.84112589375E+03  0.84112589376E+03  0.50400000000E-02 0. -1.
    8880022    1    1    2    0    0  0.52410798770E+03  0.86615836801E+03  0.11020839410E+04  0.15042939098E+04  0.15294330000E+03 0.  0.
    8880022    1    1    2    0    0 -0.52410798770E+03 -0.86615836801E+03 -0.23053774283E+03  0.10495040758E+04  0.15294330000E+03 0.  0.
<mgrwt>
<rscale>  0 0.10238707E+04</rscale>
<asrwt>0</asrwt>
<pdfrwt beam="1">  1        1 0.12940398E+00 0.10238707E+04</pdfrwt>
<pdfrwt beam="2">  1       -1 0.26348801E+00 0.10238707E+04</pdfrwt>
<totfact> 0.11675754E+00</totfact>
</mgrwt>
</event>
<event>
 4    1  0.8749406E-009  0.2874882E+03  0.7818608E-02  0.1091668E+00
         -1   -1    0    0    0  501 -0.00000000000E+00  0.00000000000E+00  0.36418764148E+03  0.36418764152E+03  0.50400000000E-02 0.  1.
          1   -1    0    0  501    0  0.00000000000E+00 -0.00000000000E+00 -0.71348285665E+03  0.71348285667E+03  0.50400000000E-02 0. -1.
    8880022    1    1    2    0    0 -0.92465341364E+02 -0.22518435563E+03  0.27031535886E+03  0.39461358267E+03  0.15294330000E+03 0.  1.
    8880022    1    1    2    0    0  0.92465341364E+02  0.22518435563E+03 -0.61961057403E+03  0.68305691552E+03  0.15294330000E+03 0.  0.
<mgrwt>
<rscale>  0 0.28748824E+03</rscale>
<asrwt>0</asrwt>
<pdfrwt beam="1">  1        1 0.10976659E+00 0.28748824E+03</pdfrwt>
<pdfrwt beam="2">  1       -1 0.56028868E-01 0.28748824E+03</pdfrwt>
<totfact> 0.91791410E+01</totfact>
</mgrwt>
</event>
<event>
 4    1  0.8749406E-009  0.2902293E+03  0.7818608E-02  0.1090229E+00
          1   -1    0    0  501    0  0.00000000000E+00  0.00000000000E+00  0.77881932563E+03  0.77881932564E+03  0.50400000000E-02 0. -1.
         -1   -1    0    0    0  501 -0.00000000000E+00 -0.00000000000E+00 -0.28603262814E+03  0.28603262819E+03  0.50400000000E-02 0.  1.
    8880022    1    1    2    0    0  0.18934814838E+03 -0.15807804428E+03  0.66626095263E+03  0.72673014207E+03  0.15294330000E+03 0.  0.
    8880022    1    1    2    0    0 -0.18934814838E+03  0.15807804428E+03 -0.17347425514E+03  0.33812181176E+03  0.15294330000E+03 0.  0.
<mgrwt>
<rscale>  0 0.29022929E+03</rscale>
<asrwt>0</asrwt>
<pdfrwt beam="1">  1        1 0.11981836E+00 0.29022929E+03</pdfrwt>
<pdfrwt beam="2">  1       -1 0.44005019E-01 0.29022929E+03</pdfrwt>
<totfact> 0.12592577E+02</totfact>
</mgrwt>
</event>
<event>
 4    1  0.8749406E-009  0.1427134E+04  0.7818608E-02  0.8934408E-01
         -1   -1    0    0    0  501 -0.00000000000E+00  0.00000000000E+00  0.11186115626E+04  0.11186115626E+04  0.50400000000E-02 0.  1.
          1   -1    0    0  501    0  0.00000000000E+00 -0.00000000000E+00 -0.25393437119E+04  0.25393437119E+04  0.50400000000E-02 0. -1.
    8880022    1    1    2    0    0 -0.10889954939E+04  0.90962076643E+03  0.26258084649E+03  0.14510897555E+04  0.15294330000E+03 0.  0.
    8880022    1    1    2    0    0  0.10889954939E+04 -0.90962076643E+03 -0.16833129958E+04  0.22068655191E+04  0.15294330000E+03 0.  0.
<mgrwt>
<rscale>  0 0.14271345E+04</rscale>
<asrwt>0</asrwt>
<pdfrwt beam="1">  1        1 0.39066826E+00 0.14271345E+04</pdfrwt>
<pdfrwt beam="2">  1       -1 0.17209409E+00 0.14271345E+04</pdfrwt>
<totfact> 0.28890726E-01</totfact>
</mgrwt>
</event>
<event>
 4    1  0.8749406E-009  0.4241590E+03  0.7818608E-02  0.1035721E+00
          1   -1    0    0  501    0  0.00000000000E+00  0.00000000000E+00  0.19598353658E+04  0.19598353658E+04  0.50400000000E-02 0. -1.
         -1   -1    0    0    0  501 -0.00000000000E+00 -0.00000000000E+00 -0.52204885214E+03  0.52204885217E+03  0.50400000000E-02 0.  1.
    8880022    1    1    2    0    0  0.27180574707E+03  0.28747318889E+03  0.18454584616E+04  0.18935753972E+04  0.15294330000E+03 0.  0.
    8880022    1    1    2    0    0 -0.27180574707E+03 -0.28747318889E+03 -0.40767194791E+03  0.58830882077E+03  0.15294330000E+03 0.  0.
<mgrwt>
<rscale>  0 0.42415899E+03</rscale>
<asrwt>0</asrwt>
<pdfrwt beam="1">  1        1 0.30151313E+00 0.42415899E+03</pdfrwt>
<pdfrwt beam="2">  1       -1 0.80315208E-01 0.42415899E+03</pdfrwt>
<totfact> 0.55531843E+00</totfact>
</mgrwt>
</event>
<event>
 4    1  0.8749406E-009  0.1187892E+04  0.7818608E-02  0.9123521E-01
         -1   -1    0    0    0  501 -0.00000000000E+00  0.00000000000E+00  0.15790402782E+04  0.15790402782E+04  0.50400000000E-02 0.  1.
          1   -1    0    0  501    0  0.00000000000E+00 -0.00000000000E+00 -0.21097699775E+04  0.21097699775E+04  0.50400000000E-02 0. -1.
    8880022    1    1    2    0    0  0.10847193923E+04  0.45943354513E+03  0.11349622891E+04  0.16429322546E+04  0.15294330000E+03 0.  0.
    8880022    1    1    2    0    0 -0.10847193923E+04 -0.45943354513E+03 -0.16656919884E+04  0.20458780012E+04  0.15294330000E+03 0.  0.
<mgrwt>
<rscale>  0 0.11878918E+04</rscale>
<asrwt>0</asrwt>
<pdfrwt beam="1">  1        1 0.32458000E+00 0.11878918E+04</pdfrwt>
<pdfrwt beam="2">  1       -1 0.24292927E+00 0.11878918E+04</pdfrwt>
<totfact> 0.19176750E-01</totfact>
</mgrwt>
</event>
<event>
 4    1  0.8749406E-009  0.2485879E+03  0.7818608E-02  0.1114200E+00
         -1   -1    0    0    0  501 -0.00000000000E+00  0.00000000000E+00  0.39057291379E+03  0.39057291382E+03  0.50400000000E-02 0.  1.
          1   -1    0    0  501    0  0.00000000000E+00 -0.00000000000E+00 -0.18382634286E+04  0.18382634286E+04  0.50400000000E-02 0. -1.
    8880022    1    1    2    0    0  0.71363921579E+02 -0.18251433454E+03  0.34153521311E+03  0.42242424934E+03  0.15294330000E+03 0.  1.
    8880022    1    1    2    0    0 -0.71363921579E+02  0.18251433454E+03 -0.17892257279E+04  0.18064120931E+04  0.15294330000E+03 0.  0.
<mgrwt>
<rscale>  0 0.24858790E+03</rscale>
<asrwt>0</asrwt>
<pdfrwt beam="1">  1        1 0.28280975E+00 0.24858790E+03</pdfrwt>
<pdfrwt beam="2">  1       -1 0.60088142E-01 0.24858790E+03</pdfrwt>
<totfact> 0.12798309E+01</totfact>
</mgrwt>
</event>
<event>
 4    1  0.8749406E-009  0.1532586E+04  0.7818608E-02  0.8863068E-01
         -1   -1    0    0    0  501 -0.00000000000E+00  0.00000000000E+00  0.10487195343E+04  0.10487195343E+04  0.50400000000E-02 0.  1.
          1   -1    0    0  501    0  0.00000000000E+00 -0.00000000000E+00 -0.29834039064E+04  0.29834039064E+04  0.50400000000E-02 0. -1.
    8880022    1    1    2    0    0  0.14504548169E+04  0.47075421989E+03 -0.19739190188E+04  0.24990351452E+04  0.15294330000E+03 0.  0.
    8880022    1    1    2    0    0 -0.14504548169E+04 -0.47075421989E+03  0.39234646670E+02  0.15330882955E+04  0.15294330000E+03 0.  0.
<mgrwt>
<rscale>  0 0.15325862E+04</rscale>
<asrwt>0</asrwt>
<pdfrwt beam="1">  1        1 0.45898521E+00 0.15325862E+04</pdfrwt>
<pdfrwt beam="2">  1       -1 0.16134147E+00 0.15325862E+04</pdfrwt>
<totfact> 0.16613863E-01</totfact>
</mgrwt>
</event>
<event>
 4    1  0.8749406E-009  0.2171328E+04  0.7818608E-02  0.8530458E-01
          1   -1    0    0  501    0  0.00000000000E+00  0.00000000000E+00  0.38184469145E+04  0.38184469145E+04  0.50400000000E-02 0. -1.
         -1   -1    0    0    0  501 -0.00000000000E+00 -0.00000000000E+00 -0.14694914642E+04  0.14694914642E+04  0.50400000000E-02 0.  1.
    8880022    1    1    2    0    0  0.21173534537E+04  0.45616685008E+03  0.11764327414E+03  0.21745126893E+04  0.15294330000E+03 0.  0.
    8880022    1    1    2    0    0 -0.21173534537E+04 -0.45616685008E+03  0.22313121761E+04  0.31134256894E+04  0.15294330000E+03 0.  0.
<mgrwt>
<rscale>  0 0.21713280E+04</rscale>
<asrwt>0</asrwt>
<pdfrwt beam="1">  1        1 0.58745336E+00 0.21713280E+04</pdfrwt>
<pdfrwt beam="2">  1       -1 0.22607561E+00 0.21713280E+04</pdfrwt>
<totfact> 0.12062837E-02</totfact>
</mgrwt>
</event>
<event>
 4    1  0.8749406E-009  0.1036256E+04  0.7818608E-02  0.9269650E-01
          1   -1    0    0  501    0  0.00000000000E+00  0.00000000000E+00  0.13102617946E+04  0.13102617946E+04  0.50400000000E-02 0. -1.
         -1   -1    0    0    0  501 -0.00000000000E+00 -0.00000000000E+00 -0.11787453850E+04  0.11787453850E+04  0.50400000000E-02 0.  1.
    8880022    1    1    2    0    0 -0.67917052739E+03 -0.76756942754E+03 -0.62123206848E+03  0.12082037772E+04  0.15294330000E+03 0.  0.
    8880022    1    1    2    0    0  0.67917052739E+03  0.76756942754E+03  0.75274847808E+03  0.12808034024E+04  0.15294330000E+03 0.  0.
<mgrwt>
<rscale>  0 0.10362563E+04</rscale>
<asrwt>0</asrwt>
<pdfrwt beam="1">  1        1 0.20157874E+00 0.10362563E+04</pdfrwt>
<pdfrwt beam="2">  1       -1 0.18134544E+00 0.10362563E+04</pdfrwt>
<totfact> 0.18101047E+00</totfact>
</mgrwt>
</event>
<event>
 4    1  0.8749406E-009  0.1121534E+04  0.7818608E-02  0.9184454E-01
          1   -1    0    0  501    0  0.00000000000E+00  0.00000000000E+00  0.14901389744E+04  0.14901389744E+04  0.50400000000E-02 0. -1.
         -1   -1    0    0    0  501 -0.00000000000E+00 -0.00000000000E+00 -0.27665598862E+04  0.27665598862E+04  0.50400000000E-02 0.  1.
    8880022    1    1    2    0    0  0.83234196855E+03 -0.73597155053E+03 -0.24124023078E+04  0.26603615964E+04  0.15294330000E+03 0.  0.
    8880022    1    1    2    0    0 -0.83234196855E+03  0.73597155053E+03  0.11359813961E+04  0.15963372642E+04  0.15294330000E+03 0.  0.
<mgrwt>
<rscale>  0 0.11215342E+04</rscale>
<asrwt>0</asrwt>
<pdfrwt beam="1">  1        1 0.22925215E+00 0.11215342E+04</pdfrwt>
<pdfrwt beam="2">  1       -1 0.42562460E+00 0.11215342E+04</pdfrwt>
<totfact> 0.31856112E-02</totfact>
</mgrwt>
</event>
<event>
 4    1  0.8749406E-009  0.9062389E+03  0.7818608E-02  0.9417816E-01
          1   -1    0    0  501    0  0.00000000000E+00  0.00000000000E+00  0.17825457437E+04  0.17825457437E+04  0.50400000000E-02 0. -1.
         -1   -1    0    0    0  501 -0.00000000000E+00 -0.00000000000E+00 -0.66445291523E+03  0.66445291525E+03  0.50400000000E-02 0.  1.
    8880022    1    1    2    0    0  0.60647779082E+03  0.65579113416E+03 -0.11842903164E+03  0.91394442443E+03  0.15294330000E+03 0.  0.
    8880022    1    1    2    0    0 -0.60647779082E+03 -0.65579113416E+03  0.12365218601E+04  0.15330542345E+04  0.15294330000E+03 0.  0.
<mgrwt>
<rscale>  0 0.90623892E+03</rscale>
<asrwt>0</asrwt>
<pdfrwt beam="1">  1        1 0.27423780E+00 0.90623892E+03</pdfrwt>
<pdfrwt beam="2">  1       -1 0.10222353E+00 0.90623892E+03</pdfrwt>
<totfact> 0.38752003E+00</totfact>
</mgrwt>
</event>
<event>
 4    1  0.8749406E-009  0.7266819E+03  0.7818608E-02  0.9672660E-01
         -1   -1    0    0    0  501 -0.00000000000E+00  0.00000000000E+00  0.70732442186E+03  0.70732442187E+03  0.50400000000E-02 0.  1.
          1   -1    0    0  501    0  0.00000000000E+00 -0.00000000000E+00 -0.12292421483E+04  0.12292421483E+04  0.50400000000E-02 0. -1.
    8880022    1    1    2    0    0 -0.68778988420E+03 -0.17782016312E+03  0.34579174203E+03  0.80475991271E+03  0.15294330000E+03 0.  0.
    8880022    1    1    2    0    0  0.68778988420E+03  0.17782016312E+03 -0.86770946849E+03  0.11318066575E+04  0.15294330000E+03 0.  0.
<mgrwt>
<rscale>  0 0.72668190E+03</rscale>
<asrwt>0</asrwt>
<pdfrwt beam="1">  1        1 0.18911418E+00 0.72668190E+03</pdfrwt>
<pdfrwt beam="2">  1       -1 0.10881914E+00 0.72668190E+03</pdfrwt>
<totfact> 0.82799253E+00</totfact>
</mgrwt>
</event>
<event>
 4    1  0.8749406E-009  0.4056505E+03  0.7818608E-02  0.1041840E+00
         -1   -1    0    0    0  501 -0.00000000000E+00  0.00000000000E+00  0.67777525815E+03  0.67777525817E+03  0.50400000000E-02 0.  1.
          1   -1    0    0  501    0  0.00000000000E+00 -0.00000000000E+00 -0.85649718708E+03  0.85649718709E+03  0.50400000000E-02 0. -1.
    8880022    1    1    2    0    0 -0.29572714778E+03  0.23174586572E+03  0.56000957623E+03  0.69149336273E+03  0.15294330000E+03 0.  0.
    8880022    1    1    2    0    0  0.29572714778E+03 -0.23174586572E+03 -0.73873150516E+03  0.84277908253E+03  0.15294330000E+03 0.  0.
<mgrwt>
<rscale>  0 0.40565052E+03</rscale>
<asrwt>0</asrwt>
<pdfrwt beam="1">  1        1 0.13176880E+00 0.40565052E+03</pdfrwt>
<pdfrwt beam="2">  1       -1 0.10427312E+00 0.40565052E+03</pdfrwt>
<totfact> 0.18615947E+01</totfact>
</mgrwt>
</event>
<event>
 4    1  0.8749406E-009  0.7729557E+03  0.7818608E-02  0.9600009E-01
          1   -1    0    0  501    0  0.00000000000E+00  0.00000000000E+00  0.16651286758E+04  0.16651286758E+04  0.50400000000E-02 0. -1.
         -1   -1    0    0    0  501 -0.00000000000E+00 -0.00000000000E+00 -0.62353838054E+03  0.62353838056E+03  0.50400000000E-02 0.  1.
    8880022    1    1    2    0    0  0.73816724219E+03 -0.17081573768E+03  0.12664251659E+04  0.14836755870E+04  0.15294330000E+03 0.  0.
    8880022    1    1    2    0    0 -0.73816724219E+03  0.17081573768E+03 -0.22483487062E+03  0.80499146936E+03  0.15294330000E+03 0.  0.
<mgrwt>
<rscale>  0 0.77295572E+03</rscale>
<asrwt>0</asrwt>
<pdfrwt beam="1">  1        1 0.25617364E+00 0.77295572E+03</pdfrwt>
<pdfrwt beam="2">  1       -1 0.95928981E-01 0.77295572E+03</pdfrwt>
<totfact> 0.54850162E+00</totfact>
</mgrwt>
</event>
<event>
 4    1  0.8749406E-009  0.4247884E+03  0.7818608E-02  0.1035519E+00
         -1   -1    0    0    0  501 -0.00000000000E+00  0.00000000000E+00  0.86874368592E+03  0.86874368594E+03  0.50400000000E-02 0.  1.
          1   -1    0    0  501    0  0.00000000000E+00 -0.00000000000E+00 -0.49792956809E+03  0.49792956812E+03  0.50400000000E-02 0. -1.
    8880022    1    1    2    0    0  0.30321354690E+03  0.25517653222E+03  0.70710058609E+03  0.82488569480E+03  0.15294330000E+03 0.  0.
    8880022    1    1    2    0    0 -0.30321354690E+03 -0.25517653222E+03 -0.33628646826E+03  0.54178755926E+03  0.15294330000E+03 0.  0.
<mgrwt>
<rscale>  0 0.42478838E+03</rscale>
<asrwt>0</asrwt>
<pdfrwt beam="1">  1        1 0.76604550E-01 0.42478838E+03</pdfrwt>
<pdfrwt beam="2">  1       -1 0.13365287E+00 0.42478838E+03</pdfrwt>
<totfact> 0.22602808E+01</totfact>
</mgrwt>
</event>
<event>
 4    1  0.8749406E-009  0.9159687E+03  0.7818608E-02  0.9405837E-01
         -1   -1    0    0    0  501 -0.00000000000E+00  0.00000000000E+00  0.14513658473E+04  0.14513658473E+04  0.50400000000E-02 0.  1.
          1   -1    0    0  501    0  0.00000000000E+00 -0.00000000000E+00 -0.70362767613E+03  0.70362767614E+03  0.50400000000E-02 0. -1.
    8880022    1    1    2    0    0 -0.39461120887E+01  0.90310100821E+03  0.82902175521E+03  0.12354253221E+04  0.15294330000E+03 0.  0.
    8880022    1    1    2    0    0  0.39461120887E+01 -0.90310100821E+03 -0.81283584077E+02  0.91956820132E+03  0.15294330000E+03 0.  0.
<mgrwt>
<rscale>  0 0.91596870E+03</rscale>
<asrwt>0</asrwt>
<pdfrwt beam="1">  1        1 0.10825041E+00 0.91596870E+03</pdfrwt>
<pdfrwt beam="2">  1       -1 0.22328705E+00 0.91596870E+03</pdfrwt>
<totfact> 0.28740088E+00</totfact>
</mgrwt>
</event>
<event>
 4    1  0.8749406E-009  0.1031022E+04  0.7818608E-02  0.9275159E-01
         -1   -1    0    0    0  501 -0.00000000000E+00  0.00000000000E+00  0.86012456020E+03  0.86012456022E+03  0.50400000000E-02 0.  1.
          1   -1    0    0  501    0  0.00000000000E+00 -0.00000000000E+00 -0.20500324079E+04  0.20500324079E+04  0.50400000000E-02 0. -1.
    8880022    1    1    2    0    0 -0.68100275636E+03 -0.75884844039E+03  0.32202627819E+03  0.10801427158E+04  0.15294330000E+03 0.  0.
    8880022    1    1    2    0    0  0.68100275636E+03  0.75884844039E+03 -0.15119341259E+04  0.18300142523E+04  0.15294330000E+03 0.  0.
<mgrwt>
<rscale>  0 0.10310225E+04</rscale>
<asrwt>0</asrwt>
<pdfrwt beam="1">  1        1 0.31538960E+00 0.10310225E+04</pdfrwt>
<pdfrwt beam="2">  1       -1 0.13232686E+00 0.10310225E+04</pdfrwt>
<totfact> 0.13452134E+00</totfact>
</mgrwt>
</event>
<event>
 4    1  0.8749406E-009  0.5888128E+03  0.7818608E-02  0.9928892E-01
          1   -1    0    0  501    0  0.00000000000E+00  0.00000000000E+00  0.62985509525E+03  0.62985509527E+03  0.50400000000E-02 0. -1.
         -1   -1    0    0    0  501 -0.00000000000E+00 -0.00000000000E+00 -0.11105524839E+04  0.11105524839E+04  0.50400000000E-02 0.  1.
    8880022    1    1    2    0    0  0.56480909815E+03  0.65570621273E+02 -0.85834685505E+03  0.10408937507E+04  0.15294330000E+03 0.  0.
    8880022    1    1    2    0    0 -0.56480909815E+03 -0.65570621273E+02  0.37764946639E+03  0.69951382846E+03  0.15294330000E+03 0.  0.
<mgrwt>
<rscale>  0 0.58881277E+03</rscale>
<asrwt>0</asrwt>
<pdfrwt beam="1">  1        1 0.96900784E-01 0.58881277E+03</pdfrwt>
<pdfrwt beam="2">  1       -1 0.17085423E+00 0.58881277E+03</pdfrwt>
<totfact> 0.81849567E+00</totfact>
</mgrwt>
</event>
<event>
 4    1  0.8749406E-009  0.5821917E+03  0.7818608E-02  0.9943057E-01
         -1   -1    0    0    0  501 -0.00000000000E+00  0.00000000000E+00  0.47453439539E+03  0.47453439542E+03  0.50400000000E-02 0.  1.
          1   -1    0    0  501    0  0.00000000000E+00 -0.00000000000E+00 -0.17632948244E+04  0.17632948245E+04  0.50400000000E-02 0. -1.
    8880022    1    1    2    0    0  0.53128530745E+03  0.18245929351E+03 -0.15074118824E+04  0.16159324577E+04  0.15294330000E+03 0.  0.
    8880022    1    1    2    0    0 -0.53128530745E+03 -0.18245929351E+03  0.21865145335E+03  0.62189676214E+03  0.15294330000E+03 0.  0.
<mgrwt>
<rscale>  0 0.58219166E+03</rscale>
<asrwt>0</asrwt>
<pdfrwt beam="1">  1        1 0.27127612E+00 0.58219166E+03</pdfrwt>
<pdfrwt beam="2">  1       -1 0.73005293E-01 0.58219166E+03</pdfrwt>
<totfact> 0.87751525E+00</totfact>
</mgrwt>
</event>
<event>
 4    1  0.8749406E-009  0.8079827E+03  0.7818608E-02  0.9548534E-01
         -1   -1    0    0    0  501 -0.00000000000E+00  0.00000000000E+00  0.48011275180E+03  0.48011275182E+03  0.50400000000E-02 0.  1.
          1   -1    0    0  501    0  0.00000000000E+00 -0.00000000000E+00 -0.25880912893E+04  0.25880912893E+04  0.50400000000E-02 0. -1.
    8880022    1    1    2    0    0 -0.77618507925E+03  0.16425927543E+03 -0.21108626701E+04  0.22602161958E+04  0.15294330000E+03 0.  0.
    8880022    1    1    2    0    0  0.77618507925E+03 -0.16425927543E+03  0.28841326667E+01  0.80798784524E+03  0.15294330000E+03 0.  0.
<mgrwt>
<rscale>  0 0.80798270E+03</rscale>
<asrwt>0</asrwt>
<pdfrwt beam="1">  1        1 0.39816788E+00 0.80798270E+03</pdfrwt>
<pdfrwt beam="2">  1       -1 0.73863502E-01 0.80798270E+03</pdfrwt>
<totfact> 0.22867898E+00</totfact>
</mgrwt>
</event>
<event>
 4    1  0.8749406E-009  0.3549540E+03  0.7818608E-02  0.1060600E+00
          1   -1    0    0  501    0  0.00000000000E+00  0.00000000000E+00  0.26285123873E+04  0.26285123873E+04  0.50400000000E-02 0. -1.
         -1   -1    0    0    0  501 -0.00000000000E+00 -0.00000000000E+00 -0.31880174201E+03  0.31880174205E+03  0.50400000000E-02 0.  1.
    8880022    1    1    2    0    0  0.19982829844E+03 -0.25033840569E+03  0.25132175087E+04  0.25381596809E+04  0.15294330000E+03 0.  0.
    8880022    1    1    2    0    0 -0.19982829844E+03  0.25033840569E+03 -0.20350686348E+03  0.40915444849E+03  0.15294330000E+03 0.  0.
<mgrwt>
<rscale>  0 0.35495397E+03</rscale>
<asrwt>0</asrwt>
<pdfrwt beam="1">  1        1 0.40438653E+00 0.35495397E+03</pdfrwt>
<pdfrwt beam="2">  1       -1 0.49046420E-01 0.35495397E+03</pdfrwt>
<totfact> 0.54086263E+00</totfact>
</mgrwt>
</event>
<event>
 4    1  0.8749406E-009  0.7747395E+03  0.7818608E-02  0.9597318E-01
          1   -1    0    0  501    0  0.00000000000E+00  0.00000000000E+00  0.16050196037E+04  0.16050196037E+04  0.50400000000E-02 0. -1.
         -1   -1    0    0    0  501 -0.00000000000E+00 -0.00000000000E+00 -0.34289330401E+04  0.34289330401E+04  0.50400000000E-02 0.  1.
    8880022    1    1    2    0    0  0.71078507298E+03 -0.26760841690E+03 -0.32877188485E+04  0.33777679856E+04  0.15294330000E+03 0.  0.
    8880022    1    1    2    0    0 -0.71078507298E+03  0.26760841690E+03  0.14638054121E+04  0.16561846583E+04  0.15294330000E+03 0.  0.
<mgrwt>
<rscale>  0 0.77473953E+03</rscale>
<asrwt>0</asrwt>
<pdfrwt beam="1">  1        1 0.24692609E+00 0.77473953E+03</pdfrwt>
<pdfrwt beam="2">  1       -1 0.52752816E+00 0.77473953E+03</pdfrwt>
<totfact> 0.59648336E-03</totfact>
</mgrwt>
</event>
<event>
 4    1  0.8749406E-009  0.9272892E+03  0.7818608E-02  0.9392097E-01
          1   -1    0    0  501    0  0.00000000000E+00  0.00000000000E+00  0.11732578652E+04  0.11732578652E+04  0.50400000000E-02 0. -1.
         -1   -1    0    0    0  501 -0.00000000000E+00 -0.00000000000E+00 -0.85476832743E+03  0.85476832745E+03  0.50400000000E-02 0.  1.
    8880022    1    1    2    0    0 -0.90975600878E+03 -0.93901834820E+02 -0.22365781444E+03  0.95388050670E+03  0.15294330000E+03 0.  0.
    8880022    1    1    2    0    0  0.90975600878E+03  0.93901834820E+02  0.54214735216E+03  0.10741456859E+04  0.15294330000E+03 0.  0.
<mgrwt>
<rscale>  0 0.92728917E+03</rscale>
<asrwt>0</asrwt>
<pdfrwt beam="1">  1        1 0.18050121E+00 0.92728917E+03</pdfrwt>
<pdfrwt beam="2">  1       -1 0.13150282E+00 0.92728917E+03</pdfrwt>
<totfact> 0.55730057E+00</totfact>
</mgrwt>
</event>
<event>
 4    1  0.8749406E-009  0.8184381E+03  0.7818608E-02  0.9533706E-01
          1   -1    0    0  501    0  0.00000000000E+00  0.00000000000E+00  0.64043000318E+03  0.64043000320E+03  0.50400000000E-02 0. -1.
         -1   -1    0    0    0  501 -0.00000000000E+00 -0.00000000000E+00 -0.11791292340E+04  0.11791292340E+04  0.50400000000E-02 0.  1.
    8880022    1    1    2    0    0  0.60360100332E+03  0.53114512633E+03  0.36435614455E+02  0.81924875554E+03  0.15294330000E+03 0.  0.
    8880022    1    1    2    0    0 -0.60360100332E+03 -0.53114512633E+03 -0.57513484524E+03  0.10003104816E+04  0.15294330000E+03 0.  0.
<mgrwt>
<rscale>  0 0.81843813E+03</rscale>
<asrwt>0</asrwt>
<pdfrwt beam="1">  1        1 0.98527693E-01 0.81843813E+03</pdfrwt>
<pdfrwt beam="2">  1       -1 0.18140450E+00 0.81843813E+03</pdfrwt>
<totfact> 0.64848261E+00</totfact>
</mgrwt>
</event>
<event>
 4    1  0.8749406E-009  0.1615078E+04  0.7818608E-02  0.8811338E-01
         -1   -1    0    0    0  501 -0.00000000000E+00  0.00000000000E+00  0.11151410218E+04  0.11151410219E+04  0.50400000000E-02 0.  1.
          1   -1    0    0  501    0  0.00000000000E+00 -0.00000000000E+00 -0.28723911112E+04  0.28723911112E+04  0.50400000000E-02 0. -1.
    8880022    1    1    2    0    0  0.12246522691E+03  0.16031489469E+04 -0.17376711754E+04  0.23723357782E+04  0.15294330000E+03 0.  0.
    8880022    1    1    2    0    0 -0.12246522691E+03 -0.16031489469E+04 -0.19578913887E+02  0.16151963548E+04  0.15294330000E+03 0.  0.
<mgrwt>
<rscale>  0 0.16150777E+04</rscale>
<asrwt>0</asrwt>
<pdfrwt beam="1">  1        1 0.44190632E+00 0.16150777E+04</pdfrwt>
<pdfrwt beam="2">  1       -1 0.17156016E+00 0.16150777E+04</pdfrwt>
<totfact> 0.16591600E-01</totfact>
</mgrwt>
</event>
<event>
 4    1  0.8749406E-009  0.5189523E+03  0.7818608E-02  0.1008947E+00
         -1   -1    0    0    0  501 -0.00000000000E+00  0.00000000000E+00  0.79397132539E+03  0.79397132540E+03  0.50400000000E-02 0.  1.
          1   -1    0    0  501    0  0.00000000000E+00 -0.00000000000E+00 -0.17772965855E+04  0.17772965855E+04  0.50400000000E-02 0. -1.
    8880022    1    1    2    0    0 -0.36234197992E+03  0.33856771085E+03  0.66480131164E+03  0.84336957629E+03  0.15294330000E+03 0.  0.
    8880022    1    1    2    0    0  0.36234197992E+03 -0.33856771085E+03 -0.16481265717E+04  0.17278983346E+04  0.15294330000E+03 0.  0.
<mgrwt>
<rscale>  0 0.51895227E+03</rscale>
<asrwt>0</asrwt>
<pdfrwt beam="1">  1        1 0.27343024E+00 0.51895227E+03</pdfrwt>
<pdfrwt beam="2">  1       -1 0.12214943E+00 0.51895227E+03</pdfrwt>
<totfact> 0.27666848E+00</totfact>
</mgrwt>
</event>
<event>
 4    1  0.8749406E-009  0.2002745E+03  0.7818608E-02  0.1149508E+00
         -1   -1    0    0    0  501 -0.00000000000E+00  0.00000000000E+00  0.37765537029E+03  0.37765537032E+03  0.50400000000E-02 0.  1.
          1   -1    0    0  501    0  0.00000000000E+00 -0.00000000000E+00 -0.76751100853E+03  0.76751100855E+03  0.50400000000E-02 0. -1.
    8880022    1    1    2    0    0  0.93478925779E+02 -0.89330366508E+02 -0.72641973313E+03  0.75352206712E+03  0.15294330000E+03 0. -1.
    8880022    1    1    2    0    0 -0.93478925779E+02  0.89330366508E+02  0.33656409488E+03  0.39164431175E+03  0.15294330000E+03 0.  0.
<mgrwt>
<rscale>  0 0.20027450E+03</rscale>
<asrwt>0</asrwt>
<pdfrwt beam="1">  1        1 0.11807862E+00 0.20027450E+03</pdfrwt>
<pdfrwt beam="2">  1       -1 0.58100827E-01 0.20027450E+03</pdfrwt>
<totfact> 0.78485311E+01</totfact>
</mgrwt>
</event>
<event>
 4    1  0.8749406E-009  0.6615748E+03  0.7818608E-02  0.9785299E-01
          1   -1    0    0  501    0  0.00000000000E+00  0.00000000000E+00  0.61276981099E+03  0.61276981101E+03  0.50400000000E-02 0. -1.
         -1   -1    0    0    0  501 -0.00000000000E+00 -0.00000000000E+00 -0.10183175049E+04  0.10183175050E+04  0.50400000000E-02 0.  1.
    8880022    1    1    2    0    0  0.57464123980E+03  0.28996029582E+03  0.24286040190E+03  0.70474275835E+03  0.15294330000E+03 0.  0.
    8880022    1    1    2    0    0 -0.57464123980E+03 -0.28996029582E+03 -0.64840809586E+03  0.92634455761E+03  0.15294330000E+03 0.  0.
<mgrwt>
<rscale>  0 0.66157477E+03</rscale>
<asrwt>0</asrwt>
<pdfrwt beam="1">  1        1 0.94272278E-01 0.66157477E+03</pdfrwt>
<pdfrwt beam="2">  1       -1 0.15666423E+00 0.66157477E+03</pdfrwt>
<totfact> 0.10730368E+01</totfact>
</mgrwt>
</event>
<event>
 4    1  0.8749406E-009  0.1120463E+04  0.7818608E-02  0.9185474E-01
          1   -1    0    0  501    0  0.00000000000E+00  0.00000000000E+00  0.17092676076E+04  0.17092676076E+04  0.50400000000E-02 0. -1.
         -1   -1    0    0    0  501 -0.00000000000E+00 -0.00000000000E+00 -0.26877502631E+04  0.26877502631E+04  0.50400000000E-02 0.  1.
    8880022    1    1    2    0    0 -0.86972577172E+03 -0.68965398800E+03 -0.23634330535E+04  0.26155789020E+04  0.15294330000E+03 0.  0.
    8880022    1    1    2    0    0  0.86972577172E+03  0.68965398800E+03  0.13849503981E+04  0.17814389687E+04  0.15294330000E+03 0.  0.
<mgrwt>
<rscale>  0 0.11204629E+04</rscale>
<asrwt>0</asrwt>
<pdfrwt beam="1">  1        1 0.26296425E+00 0.11204629E+04</pdfrwt>
<pdfrwt beam="2">  1       -1 0.41350004E+00 0.11204629E+04</pdfrwt>
<totfact> 0.27323731E-02</totfact>
</mgrwt>
</event>
<event>
 4    1  0.8749406E-009  0.2291076E+03  0.7818608E-02  0.1127269E+00
         -1   -1    0    0    0  501 -0.00000000000E+00  0.00000000000E+00  0.77141547294E+03  0.77141547296E+03  0.50400000000E-02 0.  1.
          1   -1    0    0  501    0  0.00000000000E+00 -0.00000000000E+00 -0.21524064499E+04  0.21524064499E+04  0.50400000000E-02 0. -1.
    8880022    1    1    2    0    0  0.15727996912E+03  0.66042838915E+02  0.74812216865E+03  0.78241745731E+03  0.15294330000E+03 0.  1.
    8880022    1    1    2    0    0 -0.15727996912E+03 -0.66042838915E+02 -0.21291131456E+04  0.21414044656E+04  0.15294330000E+03 0.  0.
<mgrwt>
<rscale>  0 0.22910761E+03</rscale>
<asrwt>0</asrwt>
<pdfrwt beam="1">  1        1 0.33113945E+00 0.22910761E+03</pdfrwt>
<pdfrwt beam="2">  1       -1 0.11867930E+00 0.22910761E+03</pdfrwt>
<totfact> 0.19135935E+00</totfact>
</mgrwt>
</event>
<event>
 4    1  0.8749406E-009  0.6235224E+03  0.7818608E-02  0.9857772E-01
         -1   -1    0    0    0  501 -0.00000000000E+00  0.00000000000E+00  0.73811260397E+03  0.73811260399E+03  0.50400000000E-02 0.  1.
          1   -1    0    0  501    0  0.00000000000E+00 -0.00000000000E+00 -0.85538407362E+03  0.85538407363E+03  0.50400000000E-02 0. -1.
    8880022    1    1    2    0    0 -0.18235681048E+03  0.57631112645E+03  0.43523734963E+03  0.76040234371E+03  0.15294330000E+03 0.  0.
    8880022    1    1    2    0    0  0.18235681048E+03 -0.57631112645E+03 -0.55250881928E+03  0.83309433391E+03  0.15294330000E+03 0.  0.
<mgrwt>
<rscale>  0 0.62352239E+03</rscale>
<asrwt>0</asrwt>
<pdfrwt beam="1">  1        1 0.13159755E+00 0.62352239E+03</pdfrwt>
<pdfrwt beam="2">  1       -1 0.11355579E+00 0.62352239E+03</pdfrwt>
<totfact> 0.14690539E+01</totfact>
</mgrwt>
</event>
<event>
 4    1  0.8749406E-009  0.1138662E+04  0.7818608E-02  0.9168308E-01
         -1   -1    0    0    0  501 -0.00000000000E+00  0.00000000000E+00  0.17770147076E+04  0.17770147076E+04  0.50400000000E-02 0.  1.
          1   -1    0    0  501    0  0.00000000000E+00 -0.00000000000E+00 -0.11061361048E+04  0.11061361048E+04  0.50400000000E-02 0. -1.
    8880022    1    1    2    0    0 -0.34163652213E+03 -0.10753807197E+04 -0.50561320698E+03  0.12458714114E+04  0.15294330000E+03 0.  0.
    8880022    1    1    2    0    0  0.34163652213E+03  0.10753807197E+04  0.11764918098E+04  0.16372794010E+04  0.15294330000E+03 0.  0.
<mgrwt>
<rscale>  0 0.11386619E+04</rscale>
<asrwt>0</asrwt>
<pdfrwt beam="1">  1        1 0.17017479E+00 0.11386619E+04</pdfrwt>
<pdfrwt beam="2">  1       -1 0.27338688E+00 0.11386619E+04</pdfrwt>
<totfact> 0.61062187E-01</totfact>
</mgrwt>
</event>
<event>
 4    1  0.8749406E-009  0.3742412E+03  0.7818608E-02  0.1053083E+00
          1   -1    0    0  501    0  0.00000000000E+00  0.00000000000E+00  0.89474718998E+03  0.89474718999E+03  0.50400000000E-02 0. -1.
         -1   -1    0    0    0  501 -0.00000000000E+00 -0.00000000000E+00 -0.32239356140E+04  0.32239356140E+04  0.50400000000E-02 0.  1.
    8880022    1    1    2    0    0  0.34021565614E+03  0.30300168466E+02  0.84413152012E+03  0.92337125208E+03  0.15294330000E+03 0. -1.
    8880022    1    1    2    0    0 -0.34021565614E+03 -0.30300168466E+02 -0.31733199441E+04  0.31953115519E+04  0.15294330000E+03 0.  0.
<mgrwt>
<rscale>  0 0.37424116E+03</rscale>
<asrwt>0</asrwt>
<pdfrwt beam="1">  1        1 0.13765342E+00 0.37424116E+03</pdfrwt>
<pdfrwt beam="2">  1       -1 0.49599009E+00 0.37424116E+03</pdfrwt>
<totfact> 0.35921893E-02</totfact>
</mgrwt>
</event>
<event>
 4    1  0.8749406E-009  0.1173775E+04  0.7818608E-02  0.9136126E-01
         -1   -1    0    0    0  501 -0.00000000000E+00  0.00000000000E+00  0.16092877458E+04  0.16092877458E+04  0.50400000000E-02 0.  1.
          1   -1    0    0  501    0  0.00000000000E+00 -0.00000000000E+00 -0.10132801368E+04  0.10132801368E+04  0.50400000000E-02 0. -1.
    8880022    1    1    2    0    0  0.93755037042E+03  0.68946071117E+03  0.81441884955E+03  0.14286449821E+04  0.15294330000E+03 0.  0.
    8880022    1    1    2    0    0 -0.93755037042E+03 -0.68946071117E+03 -0.21841124057E+03  0.11939229005E+04  0.15294330000E+03 0.  0.
<mgrwt>
<rscale>  0 0.11737753E+04</rscale>
<asrwt>0</asrwt>
<pdfrwt beam="1">  1        1 0.15588925E+00 0.11737753E+04</pdfrwt>
<pdfrwt beam="2">  1       -1 0.24758273E+00 0.11737753E+04</pdfrwt>
<totfact> 0.10523862E+00</totfact>
</mgrwt>
</event>
<event>
 4    1  0.8749406E-009  0.2217955E+03  0.7818608E-02  0.1132551E+00
          1   -1    0    0  501    0  0.00000000000E+00  0.00000000000E+00  0.14572100962E+04  0.14572100962E+04  0.50400000000E-02 0. -1.
         -1   -1    0    0    0  501 -0.00000000000E+00 -0.00000000000E+00 -0.11837952773E+03  0.11837952784E+03  0.50400000000E-02 0.  1.
    8880022    1    1    2    0    0 -0.12931420124E+03 -0.95286030038E+02  0.13354761758E+04  0.13537687613E+04  0.15294330000E+03 0. -1.
    8880022    1    1    2    0    0  0.12931420124E+03  0.95286030038E+02  0.33543927101E+01  0.22182086270E+03  0.15294330000E+03 0.  0.
<mgrwt>
<rscale>  0 0.22179550E+03</rscale>
<asrwt>0</asrwt>
<pdfrwt beam="1">  1        1 0.22418615E+00 0.22179550E+03</pdfrwt>
<pdfrwt beam="2">  1       -1 0.18212237E-01 0.22179550E+03</pdfrwt>
<totfact> 0.18289729E+02</totfact>
</mgrwt>
</event>
<event>
 4    1  0.8749406E-009  0.6758679E+03  0.7818608E-02  0.9759415E-01
         -1   -1    0    0    0  501 -0.00000000000E+00  0.00000000000E+00  0.11225162257E+04  0.11225162257E+04  0.50400000000E-02 0.  1.
          1   -1    0    0  501    0  0.00000000000E+00 -0.00000000000E+00 -0.16025976979E+04  0.16025976979E+04  0.50400000000E-02 0. -1.
    8880022    1    1    2    0    0 -0.37419197186E+03 -0.54165130866E+03 -0.14169574572E+04  0.15698935826E+04  0.15294330000E+03 0.  0.
    8880022    1    1    2    0    0  0.37419197186E+03  0.54165130866E+03  0.93687598505E+03  0.11552203410E+04  0.15294330000E+03 0.  0.
<mgrwt>
<rscale>  0 0.67586790E+03</rscale>
<asrwt>0</asrwt>
<pdfrwt beam="1">  1        1 0.24655349E+00 0.67586790E+03</pdfrwt>
<pdfrwt beam="2">  1       -1 0.17269480E+00 0.67586790E+03</pdfrwt>
<totfact> 0.13953156E+00</totfact>
</mgrwt>
</event>
<event>
 4    1  0.8749406E-009  0.6476434E+03  0.7818608E-02  0.9811211E-01
         -1   -1    0    0    0  501 -0.00000000000E+00  0.00000000000E+00  0.59289406317E+03  0.59289406319E+03  0.50400000000E-02 0.  1.
          1   -1    0    0  501    0  0.00000000000E+00 -0.00000000000E+00 -0.10978551029E+04  0.10978551029E+04  0.50400000000E-02 0. -1.
    8880022    1    1    2    0    0 -0.39817446811E+03 -0.48734735133E+03  0.25164103229E+03  0.69481307562E+03  0.15294330000E+03 0.  0.
    8880022    1    1    2    0    0  0.39817446811E+03  0.48734735133E+03 -0.75660207199E+03  0.99593609045E+03  0.15294330000E+03 0.  0.
<mgrwt>
<rscale>  0 0.64764342E+03</rscale>
<asrwt>0</asrwt>
<pdfrwt beam="1">  1        1 0.16890078E+00 0.64764342E+03</pdfrwt>
<pdfrwt beam="2">  1       -1 0.91214472E-01 0.64764342E+03</pdfrwt>
<totfact> 0.15613267E+01</totfact>
</mgrwt>
</event>
<event>
 4    1  0.8749406E-009  0.7712208E+03  0.7818608E-02  0.9602634E-01
         -1   -1    0    0    0  501 -0.00000000000E+00  0.00000000000E+00  0.20988234659E+04  0.20988234660E+04  0.50400000000E-02 0.  1.
          1   -1    0    0  501    0  0.00000000000E+00 -0.00000000000E+00 -0.56906314876E+03  0.56906314878E+03  0.50400000000E-02 0. -1.
    8880022    1    1    2    0    0 -0.36851078759E+03 -0.65999215121E+03  0.17100140415E+04  0.18758809971E+04  0.15294330000E+03 0.  0.
    8880022    1    1    2    0    0  0.36851078759E+03  0.65999215121E+03 -0.18025372428E+03  0.79200561763E+03  0.15294330000E+03 0.  0.
<mgrwt>
<rscale>  0 0.77122078E+03</rscale>
<asrwt>0</asrwt>
<pdfrwt beam="1">  1        1 0.87548174E-01 0.77122078E+03</pdfrwt>
<pdfrwt beam="2">  1       -1 0.32289593E+00 0.77122078E+03</pdfrwt>
<totfact> 0.91406104E-01</totfact>
</mgrwt>
</event>
<event>
 4    1  0.8749406E-009  0.7001935E+03  0.7818608E-02  0.9716901E-01
          1   -1    0    0  501    0  0.00000000000E+00  0.00000000000E+00  0.20593602413E+04  0.20593602413E+04  0.50400000000E-02 0. -1.
         -1   -1    0    0    0  501 -0.00000000000E+00 -0.00000000000E+00 -0.41998283116E+03  0.41998283119E+03  0.50400000000E-02 0.  1.
    8880022    1    1    2    0    0  0.56436328807E+03 -0.38519263074E+03  0.16355626832E+04  0.17791391816E+04  0.15294330000E+03 0.  0.
    8880022    1    1    2    0    0 -0.56436328807E+03  0.38519263074E+03  0.38147269252E+01  0.70020389092E+03  0.15294330000E+03 0.  0.
<mgrwt>
<rscale>  0 0.70019350E+03</rscale>
<asrwt>0</asrwt>
<pdfrwt beam="1">  1        1 0.31682465E+00 0.70019350E+03</pdfrwt>
<pdfrwt beam="2">  1       -1 0.64612744E-01 0.70019350E+03</pdfrwt>
<totfact> 0.69799837E+00</totfact>
</mgrwt>
</event>
<event>
 4    1  0.8749406E-009  0.1323425E+04  0.7818608E-02  0.9011192E-01
          1   -1    0    0  501    0  0.00000000000E+00  0.00000000000E+00  0.28379982657E+04  0.28379982657E+04  0.50400000000E-02 0. -1.
         -1   -1    0    0    0  501 -0.00000000000E+00 -0.00000000000E+00 -0.12139388667E+04  0.12139388667E+04  0.50400000000E-02 0.  1.
    8880022    1    1    2    0    0 -0.73822773495E+03  0.10876957467E+04  0.22325478868E+04  0.25953273292E+04  0.15294330000E+03 0.  0.
    8880022    1    1    2    0    0  0.73822773495E+03 -0.10876957467E+04 -0.60848848781E+03  0.14566098032E+04  0.15294330000E+03 0.  0.
<mgrwt>
<rscale>  0 0.13234251E+04</rscale>
<asrwt>0</asrwt>
<pdfrwt beam="1">  1        1 0.43661511E+00 0.13234251E+04</pdfrwt>
<pdfrwt beam="2">  1       -1 0.18675983E+00 0.13234251E+04</pdfrwt>
<totfact> 0.14155344E-01</totfact>
</mgrwt>
</event>
<event>
 4    1  0.8749406E-009  0.6401432E+03  0.7818608E-02  0.9825453E-01
          1   -1    0    0  501    0  0.00000000000E+00  0.00000000000E+00  0.12475957639E+04  0.12475957639E+04  0.50400000000E-02 0. -1.
         -1   -1    0    0    0  501 -0.00000000000E+00 -0.00000000000E+00 -0.12862889841E+04  0.12862889841E+04  0.50400000000E-02 0.  1.
    8880022    1    1    2    0    0  0.54858672646E+03 -0.29230844168E+03 -0.11126279682E+04  0.12836371256E+04  0.15294330000E+03 0.  0.
    8880022    1    1    2    0    0 -0.54858672646E+03  0.29230844168E+03  0.10739347480E+04  0.12502476225E+04  0.15294330000E+03 0. -1.
<mgrwt>
<rscale>  0 0.64014317E+03</rscale>
<asrwt>0</asrwt>
<pdfrwt beam="1">  1        1 0.19193781E+00 0.64014317E+03</pdfrwt>
<pdfrwt beam="2">  1       -1 0.19789061E+00 0.64014317E+03</pdfrwt>
<totfact> 0.16449529E+00</totfact>
</mgrwt>
</event>
<event>
 4    1  0.8749406E-009  0.9769902E+03  0.7818608E-02  0.9334148E-01
          1   -1    0    0  501    0  0.00000000000E+00  0.00000000000E+00  0.22952770824E+04  0.22952770824E+04  0.50400000000E-02 0. -1.
         -1   -1    0    0    0  501 -0.00000000000E+00 -0.00000000000E+00 -0.12693049143E+04  0.12693049143E+04  0.50400000000E-02 0.  1.
    8880022    1    1    2    0    0 -0.88730064825E+03  0.37923058570E+03 -0.94846345077E+03  0.13616507805E+04  0.15294330000E+03 0.  0.
    8880022    1    1    2    0    0  0.88730064825E+03 -0.37923058570E+03  0.19744356189E+04  0.22029312163E+04  0.15294330000E+03 0.  0.
<mgrwt>
<rscale>  0 0.97699024E+03</rscale>
<asrwt>0</asrwt>
<pdfrwt beam="1">  1        1 0.35311954E+00 0.97699024E+03</pdfrwt>
<pdfrwt beam="2">  1       -1 0.19527768E+00 0.97699024E+03</pdfrwt>
<totfact> 0.31071533E-01</totfact>
</mgrwt>
</event>
<event>
 4    1  0.8749406E-009  0.6005574E+03  0.7818608E-02  0.9904250E-01
         -1   -1    0    0    0  501 -0.00000000000E+00  0.00000000000E+00  0.28904960805E+03  0.28904960810E+03  0.50400000000E-02 0.  1.
          1   -1    0    0  501    0  0.00000000000E+00 -0.00000000000E+00 -0.38909088441E+04  0.38909088441E+04  0.50400000000E-02 0. -1.
    8880022    1    1    2    0    0 -0.21997110132E+03 -0.53748513439E+03 -0.78363406198E+02  0.60564843891E+03  0.15294330000E+03 0.  0.
    8880022    1    1    2    0    0  0.21997110132E+03  0.53748513439E+03 -0.35234958299E+04  0.35743100133E+04  0.15294330000E+03 0.  0.
<mgrwt>
<rscale>  0 0.60055741E+03</rscale>
<asrwt>0</asrwt>
<pdfrwt beam="1">  1        1 0.59860132E+00 0.60055741E+03</pdfrwt>
<pdfrwt beam="2">  1       -1 0.44469173E-01 0.60055741E+03</pdfrwt>
<totfact> 0.68782727E-01</totfact>
</mgrwt>
</event>
<event>
 4    1  0.8749406E-009  0.8145101E+03  0.7818608E-02  0.9539249E-01
         -1   -1    0    0    0  501 -0.00000000000E+00  0.00000000000E+00  0.71894570751E+03  0.71894570753E+03  0.50400000000E-02 0.  1.
          1   -1    0    0  501    0  0.00000000000E+00 -0.00000000000E+00 -0.20179546934E+04  0.20179546934E+04  0.50400000000E-02 0. -1.
    8880022    1    1    2    0    0  0.65398272155E+03  0.46080551494E+03  0.35862316092E+03  0.88996480113E+03  0.15294330000E+03 0.  0.
    8880022    1    1    2    0    0 -0.65398272155E+03 -0.46080551494E+03 -0.16576321468E+04  0.18469355998E+04  0.15294330000E+03 0.  0.
<mgrwt>
<rscale>  0 0.81451014E+03</rscale>
<asrwt>0</asrwt>
<pdfrwt beam="1">  1        1 0.31045457E+00 0.81451014E+03</pdfrwt>
<pdfrwt beam="2">  1       -1 0.11060703E+00 0.81451014E+03</pdfrwt>
<totfact> 0.22734957E+00</totfact>
</mgrwt>
</event>
<event>
 4    1  0.8749406E-009  0.3850148E+03  0.7818608E-02  0.1049096E+00
          1   -1    0    0  501    0  0.00000000000E+00  0.00000000000E+00  0.83054939226E+03  0.83054939228E+03  0.50400000000E-02 0. -1.
         -1   -1    0    0    0  501 -0.00000000000E+00 -0.00000000000E+00 -0.34057401695E+03  0.34057401699E+03  0.50400000000E-02 0.  1.
    8880022    1    1    2    0    0 -0.21119260885E+03 -0.28327094142E+03 -0.15898359841E+03  0.41654793466E+03  0.15294330000E+03 0.  1.
    8880022    1    1    2    0    0  0.21119260885E+03  0.28327094142E+03  0.64895897373E+03  0.75457547461E+03  0.15294330000E+03 0.  0.
<mgrwt>
<rscale>  0 0.38501480E+03</rscale>
<asrwt>0</asrwt>
<pdfrwt beam="1">  1        1 0.12777683E+00 0.38501480E+03</pdfrwt>
<pdfrwt beam="2">  1       -1 0.52396003E-01 0.38501480E+03</pdfrwt>
<totfact> 0.81174721E+01</totfact>
</mgrwt>
</event>
<event>
 4    1  0.8749406E-009  0.8441678E+03  0.7818608E-02  0.9498198E-01
          1   -1    0    0  501    0  0.00000000000E+00  0.00000000000E+00  0.57515480424E+03  0.57515480427E+03  0.50400000000E-02 0. -1.
         -1   -1    0    0    0  501 -0.00000000000E+00 -0.00000000000E+00 -0.17124173356E+04  0.17124173356E+04  0.50400000000E-02 0.  1.
    8880022    1    1    2    0    0  0.82462096525E+03  0.96061685422E+02 -0.11700267077E+04  0.14427687734E+04  0.15294330000E+03 0.  0.
    8880022    1    1    2    0    0 -0.82462096525E+03 -0.96061685422E+02  0.32764176341E+02  0.84480336647E+03  0.15294330000E+03 0.  0.
<mgrwt>
<rscale>  0 0.84416778E+03</rscale>
<asrwt>0</asrwt>
<pdfrwt beam="1">  1        1 0.88485355E-01 0.84416778E+03</pdfrwt>
<pdfrwt beam="2">  1       -1 0.26344882E+00 0.84416778E+03</pdfrwt>
<totfact> 0.21390353E+00</totfact>
</mgrwt>
</event>
<event>
 4    1  0.8749406E-009  0.6894337E+03  0.7818608E-02  0.9735475E-01
         -1   -1    0    0    0  501 -0.00000000000E+00  0.00000000000E+00  0.12380166061E+04  0.12380166061E+04  0.50400000000E-02 0.  1.
          1   -1    0    0  501    0  0.00000000000E+00 -0.00000000000E+00 -0.13557121391E+04  0.13557121391E+04  0.50400000000E-02 0. -1.
    8880022    1    1    2    0    0 -0.36143756220E+03 -0.56682454875E+03  0.10391311195E+04  0.12470414255E+04  0.15294330000E+03 0.  1.
    8880022    1    1    2    0    0  0.36143756220E+03  0.56682454875E+03 -0.11568266524E+04  0.13466873197E+04  0.15294330000E+03 0.  0.
<mgrwt>
<rscale>  0 0.68943370E+03</rscale>
<asrwt>0</asrwt>
<pdfrwt beam="1">  1        1 0.20857110E+00 0.68943370E+03</pdfrwt>
<pdfrwt beam="2">  1       -1 0.19046409E+00 0.68943370E+03</pdfrwt>
<totfact> 0.15364783E+00</totfact>
</mgrwt>
</event>
<event>
 4    1  0.8749406E-009  0.9262688E+03  0.7818608E-02  0.9393327E-01
          1   -1    0    0  501    0  0.00000000000E+00  0.00000000000E+00  0.22055213166E+04  0.22055213167E+04  0.50400000000E-02 0. -1.
         -1   -1    0    0    0  501 -0.00000000000E+00 -0.00000000000E+00 -0.11719069452E+04  0.11719069452E+04  0.50400000000E-02 0.  1.
    8880022    1    1    2    0    0 -0.83935857501E+03  0.36063758536E+03 -0.86345426329E+03  0.12663045460E+04  0.15294330000E+03 0.  0.
    8880022    1    1    2    0    0  0.83935857501E+03 -0.36063758536E+03  0.18970686348E+04  0.21111237158E+04  0.15294330000E+03 0.  0.
<mgrwt>
<rscale>  0 0.92626883E+03</rscale>
<asrwt>0</asrwt>
<pdfrwt beam="1">  1        1 0.33931097E+00 0.92626883E+03</pdfrwt>
<pdfrwt beam="2">  1       -1 0.18029338E+00 0.92626883E+03</pdfrwt>
<totfact> 0.45995566E-01</totfact>
</mgrwt>
</event>
<event>
 4    1  0.8749406E-009  0.5172949E+03  0.7818608E-02  0.1009361E+00
          1   -1    0    0  501    0  0.00000000000E+00  0.00000000000E+00  0.37077068899E+04  0.37077068900E+04  0.50400000000E-02 0. -1.
         -1   -1    0    0    0  501 -0.00000000000E+00 -0.00000000000E+00 -0.12088951988E+04  0.12088951988E+04  0.50400000000E-02 0.  1.
    8880022    1    1    2    0    0 -0.15639448953E+03  0.46876761446E+03 -0.11343843637E+04  0.12467645529E+04  0.15294330000E+03 0.  0.
    8880022    1    1    2    0    0  0.15639448953E+03 -0.46876761446E+03  0.36331960549E+04  0.36698375358E+04  0.15294330000E+03 0.  0.
<mgrwt>
<rscale>  0 0.51729485E+03</rscale>
<asrwt>0</asrwt>
<pdfrwt beam="1">  1        1 0.57041645E+00 0.51729485E+03</pdfrwt>
<pdfrwt beam="2">  1       -1 0.18598388E+00 0.51729485E+03</pdfrwt>
<totfact> 0.39191656E-02</totfact>
</mgrwt>
</event>
<event>
 4    1  0.8749406E-009  0.3017054E+03  0.7818608E-02  0.1084391E+00
         -1   -1    0    0    0  501 -0.00000000000E+00  0.00000000000E+00  0.79297052457E+03  0.79297052459E+03  0.50400000000E-02 0.  1.
          1   -1    0    0  501    0  0.00000000000E+00 -0.00000000000E+00 -0.18215566742E+03  0.18215566749E+03  0.50400000000E-02 0. -1.
    8880022    1    1    2    0    0 -0.54578858601E+02 -0.25427475504E+03  0.89076019572E+01  0.30183687853E+03  0.15294330000E+03 0.  0.
    8880022    1    1    2    0    0  0.54578858601E+02  0.25427475504E+03  0.60190725520E+03  0.67328931354E+03  0.15294330000E+03 0.  1.
<mgrwt>
<rscale>  0 0.30170541E+03</rscale>
<asrwt>0</asrwt>
<pdfrwt beam="1">  1        1 0.28023949E-01 0.30170541E+03</pdfrwt>
<pdfrwt beam="2">  1       -1 0.12199547E+00 0.30170541E+03</pdfrwt>
<totfact> 0.10536303E+02</totfact>
</mgrwt>
</event>
<event>
 4    1  0.8749406E-009  0.7982029E+03  0.7818608E-02  0.9562622E-01
         -1   -1    0    0    0  501 -0.00000000000E+00  0.00000000000E+00  0.79624277662E+03  0.79624277664E+03  0.50400000000E-02 0.  1.
          1   -1    0    0  501    0  0.00000000000E+00 -0.00000000000E+00 -0.11928524527E+04  0.11928524527E+04  0.50400000000E-02 0. -1.
    8880022    1    1    2    0    0 -0.59891818524E+03 -0.50500813417E+03 -0.76893425839E+03  0.11083265561E+04  0.15294330000E+03 0.  0.
    8880022    1    1    2    0    0  0.59891818524E+03  0.50500813417E+03  0.37232458231E+03  0.88076867326E+03  0.15294330000E+03 0.  0.
<mgrwt>
<rscale>  0 0.79820289E+03</rscale>
<asrwt>0</asrwt>
<pdfrwt beam="1">  1        1 0.18351576E+00 0.79820289E+03</pdfrwt>
<pdfrwt beam="2">  1       -1 0.12249889E+00 0.79820289E+03</pdfrwt>
<totfact> 0.65506197E+00</totfact>
</mgrwt>
</event>
<event>
 4    1  0.8749406E-009  0.8316592E+03  0.7818608E-02  0.9515289E-01
          1   -1    0    0  501    0  0.00000000000E+00  0.00000000000E+00  0.26303660563E+04  0.26303660563E+04  0.50400000000E-02 0. -1.
         -1   -1    0    0    0  501 -0.00000000000E+00 -0.00000000000E+00 -0.55466127794E+03  0.55466127796E+03  0.50400000000E-02 0.  1.
    8880022    1    1    2    0    0 -0.98562919793E+02  0.81151139450E+03  0.21927545815E+04  0.23451715716E+04  0.15294330000E+03 0.  0.
    8880022    1    1    2    0    0  0.98562919793E+02 -0.81151139450E+03 -0.11704980319E+03  0.83985576262E+03  0.15294330000E+03 0.  0.
<mgrwt>
<rscale>  0 0.83165921E+03</rscale>
<asrwt>0</asrwt>
<pdfrwt beam="1">  1        1 0.40467170E+00 0.83165921E+03</pdfrwt>
<pdfrwt beam="2">  1       -1 0.85332504E-01 0.83165921E+03</pdfrwt>
<totfact> 0.15671444E+00</totfact>
</mgrwt>
</event>
<event>
 4    1  0.8749406E-009  0.9818980E+03  0.7818608E-02  0.9328625E-01
         -1   -1    0    0    0  501 -0.00000000000E+00  0.00000000000E+00  0.15602810935E+04  0.15602810935E+04  0.50400000000E-02 0.  1.
          1   -1    0    0  501    0  0.00000000000E+00 -0.00000000000E+00 -0.19851456565E+04  0.19851456565E+04  0.50400000000E-02 0. -1.
    8880022    1    1    2    0    0 -0.95174790922E+03 -0.18683653629E+03 -0.16836026477E+04  0.19490103905E+04  0.15294330000E+03 0.  0.
    8880022    1    1    2    0    0  0.95174790922E+03  0.18683653629E+03  0.12587380847E+04  0.15964163595E+04  0.15294330000E+03 0.  0.
<mgrwt>
<rscale>  0 0.98189797E+03</rscale>
<asrwt>0</asrwt>
<pdfrwt beam="1">  1        1 0.30540703E+00 0.98189797E+03</pdfrwt>
<pdfrwt beam="2">  1       -1 0.24004324E+00 0.98189797E+03</pdfrwt>
<totfact> 0.25181673E-01</totfact>
</mgrwt>
</event>
<event>
 4    1  0.8749406E-009  0.5643597E+03  0.7818608E-02  0.9982238E-01
          1   -1    0    0  501    0  0.00000000000E+00  0.00000000000E+00  0.22420862314E+04  0.22420862314E+04  0.50400000000E-02 0. -1.
         -1   -1    0    0    0  501 -0.00000000000E+00 -0.00000000000E+00 -0.47296921146E+03  0.47296921149E+03  0.50400000000E-02 0.  1.
    8880022    1    1    2    0    0 -0.21083818411E+02  0.54283116629E+03  0.20200641848E+04  0.20974177376E+04  0.15294330000E+03 0.  0.
    8880022    1    1    2    0    0  0.21083818411E+02 -0.54283116629E+03 -0.25094716479E+03  0.61763770531E+03  0.15294330000E+03 0.  0.
<mgrwt>
<rscale>  0 0.56435969E+03</rscale>
<asrwt>0</asrwt>
<pdfrwt beam="1">  1        1 0.34493634E+00 0.56435969E+03</pdfrwt>
<pdfrwt beam="2">  1       -1 0.72764494E-01 0.56435969E+03</pdfrwt>
<totfact> 0.42624539E+00</totfact>
</mgrwt>
</event>
<event>
 4    1  0.8749406E-009  0.3510934E+03  0.7818608E-02  0.1062167E+00
          1   -1    0    0  501    0  0.00000000000E+00  0.00000000000E+00  0.63715708929E+03  0.63715708931E+03  0.50400000000E-02 0. -1.
         -1   -1    0    0    0  501 -0.00000000000E+00 -0.00000000000E+00 -0.32003683485E+03  0.32003683489E+03  0.50400000000E-02 0.  1.
    8880022    1    1    2    0    0  0.15972979414E+03 -0.27269266015E+03 -0.14242242285E+03  0.37888084351E+03  0.15294330000E+03 0.  1.
    8880022    1    1    2    0    0 -0.15972979414E+03  0.27269266015E+03  0.45954267729E+03  0.57831308069E+03  0.15294330000E+03 0. -1.
<mgrwt>
<rscale>  0 0.35109336E+03</rscale>
<asrwt>0</asrwt>
<pdfrwt beam="1">  1        1 0.98024167E-01 0.35109336E+03</pdfrwt>
<pdfrwt beam="2">  1       -1 0.49236437E-01 0.35109336E+03</pdfrwt>
<totfact> 0.13657361E+02</totfact>
</mgrwt>
</event>
<event>
 4    1  0.8749406E-009  0.5624360E+03  0.7818608E-02  0.9986558E-01
         -1   -1    0    0    0  501 -0.00000000000E+00  0.00000000000E+00  0.49224465687E+03  0.49224465690E+03  0.50400000000E-02 0.  1.
          1   -1    0    0  501    0  0.00000000000E+00 -0.00000000000E+00 -0.30775832865E+04  0.30775832865E+04  0.50400000000E-02 0. -1.
    8880022    1    1    2    0    0 -0.70885170993E+02 -0.53657982846E+03  0.29498935390E+03  0.63510077287E+03  0.15294330000E+03 0.  0.
    8880022    1    1    2    0    0  0.70885170993E+02  0.53657982846E+03 -0.28803279835E+04  0.29347271705E+04  0.15294330000E+03 0.  0.
<mgrwt>
<rscale>  0 0.56243602E+03</rscale>
<asrwt>0</asrwt>
<pdfrwt beam="1">  1        1 0.47347434E+00 0.56243602E+03</pdfrwt>
<pdfrwt beam="2">  1       -1 0.75729949E-01 0.56243602E+03</pdfrwt>
<totfact> 0.10427796E+00</totfact>
</mgrwt>
</event>
<event>
 4    1  0.8749406E-009  0.7401147E+03  0.7818608E-02  0.9650988E-01
          1   -1    0    0  501    0  0.00000000000E+00  0.00000000000E+00  0.98285246490E+03  0.98285246491E+03  0.50400000000E-02 0. -1.
         -1   -1    0    0    0  501 -0.00000000000E+00 -0.00000000000E+00 -0.88522781511E+03  0.88522781512E+03  0.50400000000E-02 0.  1.
    8880022    1    1    2    0    0  0.71758893752E+03 -0.97181310734E+02 -0.51966033269E+03  0.90433213190E+03  0.15294330000E+03 0.  0.
    8880022    1    1    2    0    0 -0.71758893752E+03  0.97181310734E+02  0.61728498248E+03  0.96374814813E+03  0.15294330000E+03 0.  0.
<mgrwt>
<rscale>  0 0.74011468E+03</rscale>
<asrwt>0</asrwt>
<pdfrwt beam="1">  1        1 0.15120807E+00 0.74011468E+03</pdfrwt>
<pdfrwt beam="2">  1       -1 0.13618889E+00 0.74011468E+03</pdfrwt>
<totfact> 0.72799242E+00</totfact>
</mgrwt>
</event>
<event>
 4    1  0.8749406E-009  0.1054098E+04  0.7818608E-02  0.9251123E-01
         -1   -1    0    0    0  501 -0.00000000000E+00  0.00000000000E+00  0.10117570234E+04  0.10117570234E+04  0.50400000000E-02 0.  1.
          1   -1    0    0  501    0  0.00000000000E+00 -0.00000000000E+00 -0.17758836803E+04  0.17758836803E+04  0.50400000000E-02 0. -1.
    8880022    1    1    2    0    0 -0.30480724552E+03  0.99740858434E+03 -0.12430757895E+04  0.16298344740E+04  0.15294330000E+03 0.  0.
    8880022    1    1    2    0    0  0.30480724552E+03 -0.99740858434E+03  0.47894913256E+03  0.11578062297E+04  0.15294330000E+03 0.  0.
<mgrwt>
<rscale>  0 0.10540982E+04</rscale>
<asrwt>0</asrwt>
<pdfrwt beam="1">  1        1 0.27321287E+00 0.10540982E+04</pdfrwt>
<pdfrwt beam="2">  1       -1 0.15565493E+00 0.10540982E+04</pdfrwt>
<totfact> 0.13352096E+00</totfact>
</mgrwt>
</event>
<event>
 4    1  0.8749406E-009  0.6488134E+03  0.7818608E-02  0.9809008E-01
         -1   -1    0    0    0  501 -0.00000000000E+00  0.00000000000E+00  0.80701513616E+03  0.80701513618E+03  0.50400000000E-02 0.  1.
          1   -1    0    0  501    0  0.00000000000E+00 -0.00000000000E+00 -0.67532399448E+03  0.67532399450E+03  0.50400000000E-02 0. -1.
    8880022    1    1    2    0    0 -0.29032031236E+03 -0.55971539532E+03 -0.28774259230E+03  0.70975676113E+03  0.15294330000E+03 0.  0.
    8880022    1    1    2    0    0  0.29032031236E+03  0.55971539532E+03  0.41943373398E+03  0.77258236955E+03  0.15294330000E+03 0.  0.
<mgrwt>
<rscale>  0 0.64881343E+03</rscale>
<asrwt>0</asrwt>
<pdfrwt beam="1">  1        1 0.10389600E+00 0.64881343E+03</pdfrwt>
<pdfrwt beam="2">  1       -1 0.12415618E+00 0.64881343E+03</pdfrwt>
<totfact> 0.17039227E+01</totfact>
</mgrwt>
</event>
<event>
 4    1  0.8749406E-009  0.1146958E+04  0.7818608E-02  0.9160595E-01
          1   -1    0    0  501    0  0.00000000000E+00  0.00000000000E+00  0.27227009895E+04  0.27227009895E+04  0.50400000000E-02 0. -1.
         -1   -1    0    0    0  501 -0.00000000000E+00 -0.00000000000E+00 -0.79581083882E+03  0.79581083884E+03  0.50400000000E-02 0.  1.
    8880022    1    1    2    0    0  0.58171187111E+03 -0.97659204417E+03  0.20661283587E+04  0.23631332526E+04  0.15294330000E+03 0.  0.
    8880022    1    1    2    0    0 -0.58171187111E+03  0.97659204417E+03 -0.13923820805E+03  0.11553785758E+04  0.15294330000E+03 0.  0.
<mgrwt>
<rscale>  0 0.11469579E+04</rscale>
<asrwt>0</asrwt>
<pdfrwt beam="1">  1        1 0.41887708E+00 0.11469579E+04</pdfrwt>
<pdfrwt beam="2">  1       -1 0.12243243E+00 0.11469579E+04</pdfrwt>
<totfact> 0.55646599E-01</totfact>
</mgrwt>
</event>
<event>
 4    1  0.8749406E-009  0.1751935E+04  0.7818608E-02  0.8732286E-01
          1   -1    0    0  501    0  0.00000000000E+00  0.00000000000E+00  0.27273485912E+04  0.27273485912E+04  0.50400000000E-02 0. -1.
         -1   -1    0    0    0  501 -0.00000000000E+00 -0.00000000000E+00 -0.15954423488E+04  0.15954423488E+04  0.50400000000E-02 0.  1.
    8880022    1    1    2    0    0 -0.64410587599E+03 -0.16220394397E+04 -0.60725776426E+03  0.18541946954E+04  0.15294330000E+03 0.  0.
    8880022    1    1    2    0    0  0.64410587599E+03  0.16220394397E+04  0.17391640067E+04  0.24685962446E+04  0.15294330000E+03 0.  0.
<mgrwt>
<rscale>  0 0.17519349E+04</rscale>
<asrwt>0</asrwt>
<pdfrwt beam="1">  1        1 0.41959209E+00 0.17519349E+04</pdfrwt>
<pdfrwt beam="2">  1       -1 0.24545267E+00 0.17519349E+04</pdfrwt>
<totfact> 0.64118110E-02</totfact>
</mgrwt>
</event>
<event>
 4    1  0.8749406E-009  0.4105197E+03  0.7818608E-02  0.1040197E+00
         -1   -1    0    0    0  501 -0.00000000000E+00  0.00000000000E+00  0.25374559718E+03  0.25374559723E+03  0.50400000000E-02 0.  1.
          1   -1    0    0  501    0  0.00000000000E+00 -0.00000000000E+00 -0.28800666877E+04  0.28800666877E+04  0.50400000000E-02 0. -1.
    8880022    1    1    2    0    0  0.37668372163E+03  0.56957192139E+02 -0.26875757075E+04  0.27187477972E+04  0.15294330000E+03 0.  0.
    8880022    1    1    2    0    0 -0.37668372163E+03 -0.56957192139E+02  0.61254617025E+02  0.41506448776E+03  0.15294330000E+03 0.  0.
<mgrwt>
<rscale>  0 0.41051967E+03</rscale>
<asrwt>0</asrwt>
<pdfrwt beam="1">  1        1 0.44308716E+00 0.41051967E+03</pdfrwt>
<pdfrwt beam="2">  1       -1 0.39037786E-01 0.41051967E+03</pdfrwt>
<totfact> 0.53942710E+00</totfact>
</mgrwt>
</event>
<event>
 4    1  0.8749406E-009  0.2175095E+03  0.7818608E-02  0.1135754E+00
         -1   -1    0    0    0  501 -0.00000000000E+00  0.00000000000E+00  0.18996771973E+03  0.18996771979E+03  0.50400000000E-02 0.  1.
          1   -1    0    0  501    0  0.00000000000E+00 -0.00000000000E+00 -0.25330766825E+04  0.25330766825E+04  0.50400000000E-02 0. -1.
    8880022    1    1    2    0    0  0.29850173699E+02 -0.15174877463E+03  0.12130608120E+03  0.24904927589E+03  0.15294330000E+03 0.  0.
    8880022    1    1    2    0    0 -0.29850173699E+02  0.15174877463E+03 -0.24644150440E+04  0.24739951264E+04  0.15294330000E+03 0. -1.
<mgrwt>
<rscale>  0 0.21750949E+03</rscale>
<asrwt>0</asrwt>
<pdfrwt beam="1">  1        1 0.38970408E+00 0.21750949E+03</pdfrwt>
<pdfrwt beam="2">  1       -1 0.29225805E-01 0.21750949E+03</pdfrwt>
<totfact> 0.16732532E+01</totfact>
</mgrwt>
</event>
<event>
 4    1  0.8749406E-009  0.1069843E+04  0.7818608E-02  0.9235094E-01
          1   -1    0    0  501    0  0.00000000000E+00  0.00000000000E+00  0.23973711388E+04  0.23973711388E+04  0.50400000000E-02 0. -1.
         -1   -1    0    0    0  501 -0.00000000000E+00 -0.00000000000E+00 -0.10607274735E+04  0.10607274735E+04  0.50400000000E-02 0.  1.
    8880022    1    1    2    0    0  0.22209796596E+03 -0.10352994031E+04 -0.61386855978E+03  0.12334498864E+04  0.15294330000E+03 0.  0.
    8880022    1    1    2    0    0 -0.22209796596E+03  0.10352994031E+04  0.19505122250E+04  0.22246487259E+04  0.15294330000E+03 0.  0.
<mgrwt>
<rscale>  0 0.10698430E+04</rscale>
<asrwt>0</asrwt>
<pdfrwt beam="1">  1        1 0.36882633E+00 0.10698430E+04</pdfrwt>
<pdfrwt beam="2">  1       -1 0.16318884E+00 0.10698430E+04</pdfrwt>
<totfact> 0.44335090E-01</totfact>
</mgrwt>
</event>
<event>
 4    1  0.8749406E-009  0.8174918E+03  0.7818608E-02  0.9535038E-01
         -1   -1    0    0    0  501 -0.00000000000E+00  0.00000000000E+00  0.67861300754E+03  0.67861300756E+03  0.50400000000E-02 0.  1.
          1   -1    0    0  501    0  0.00000000000E+00 -0.00000000000E+00 -0.20299868574E+04  0.20299868574E+04  0.50400000000E-02 0. -1.
    8880022    1    1    2    0    0  0.80286799932E+03  0.17438737631E+02  0.29609057021E+03  0.86946098974E+03  0.15294330000E+03 0.  0.
    8880022    1    1    2    0    0 -0.80286799932E+03 -0.17438737631E+02 -0.16474644200E+04  0.18391388752E+04  0.15294330000E+03 0.  0.
<mgrwt>
<rscale>  0 0.81749177E+03</rscale>
<asrwt>0</asrwt>
<pdfrwt beam="1">  1        1 0.31230567E+00 0.81749177E+03</pdfrwt>
<pdfrwt beam="2">  1       -1 0.10440200E+00 0.81749177E+03</pdfrwt>
<totfact> 0.25535368E+00</totfact>
</mgrwt>
</event>
<event>
 4    1  0.8749406E-009  0.1190807E+04  0.7818608E-02  0.9120941E-01
          1   -1    0    0  501    0  0.00000000000E+00  0.00000000000E+00  0.14840388726E+04  0.14840388726E+04  0.50400000000E-02 0. -1.
         -1   -1    0    0    0  501 -0.00000000000E+00 -0.00000000000E+00 -0.14565965407E+04  0.14565965407E+04  0.50400000000E-02 0.  1.
    8880022    1    1    2    0    0 -0.52344516781E+03 -0.10586006098E+04 -0.84865282881E+03  0.14622699381E+04  0.15294330000E+03 0.  0.
    8880022    1    1    2    0    0  0.52344516781E+03  0.10586006098E+04  0.87609516066E+03  0.14783654753E+04  0.15294330000E+03 0.  0.
<mgrwt>
<rscale>  0 0.11908072E+04</rscale>
<asrwt>0</asrwt>
<pdfrwt beam="1">  1        1 0.22831367E+00 0.11908072E+04</pdfrwt>
<pdfrwt beam="2">  1       -1 0.22409178E+00 0.11908072E+04</pdfrwt>
<totfact> 0.68048143E-01</totfact>
</mgrwt>
</event>
<event>
 4    1  0.8749406E-009  0.1431114E+04  0.7818608E-02  0.8931599E-01
         -1   -1    0    0    0  501 -0.00000000000E+00  0.00000000000E+00  0.18100135961E+04  0.18100135961E+04  0.50400000000E-02 0.  1.
          1   -1    0    0  501    0  0.00000000000E+00 -0.00000000000E+00 -0.24060834287E+04  0.24060834287E+04  0.50400000000E-02 0. -1.
    8880022    1    1    2    0    0  0.11709011747E+04  0.80850894729E+03 -0.18323126317E+04  0.23249639808E+04  0.15294330000E+03 0.  0.
    8880022    1    1    2    0    0 -0.11709011747E+04 -0.80850894729E+03  0.12362427992E+04  0.18911330440E+04  0.15294330000E+03 0.  0.
<mgrwt>
<rscale>  0 0.14311142E+04</rscale>
<asrwt>0</asrwt>
<pdfrwt beam="1">  1        1 0.37016668E+00 0.14311142E+04</pdfrwt>
<pdfrwt beam="2">  1       -1 0.27846363E+00 0.14311142E+04</pdfrwt>
<totfact> 0.68232678E-02</totfact>
</mgrwt>
</event>
<event>
 4    1  0.8749406E-009  0.4036468E+03  0.7818608E-02  0.1042524E+00
         -1   -1    0    0    0  501 -0.00000000000E+00  0.00000000000E+00  0.48622032954E+03  0.48622032956E+03  0.50400000000E-02 0.  1.
          1   -1    0    0  501    0  0.00000000000E+00 -0.00000000000E+00 -0.17098713637E+04  0.17098713637E+04  0.50400000000E-02 0. -1.
    8880022    1    1    2    0    0  0.24234236299E+03  0.28426976763E+03  0.37276246676E+03  0.54943846911E+03  0.15294330000E+03 0.  0.
    8880022    1    1    2    0    0 -0.24234236299E+03 -0.28426976763E+03 -0.15964135009E+04  0.16466532241E+04  0.15294330000E+03 0.  0.
<mgrwt>
<rscale>  0 0.40364684E+03</rscale>
<asrwt>0</asrwt>
<pdfrwt beam="1">  1        1 0.26305713E+00 0.40364684E+03</pdfrwt>
<pdfrwt beam="2">  1       -1 0.74803128E-01 0.40364684E+03</pdfrwt>
<totfact> 0.94665553E+00</totfact>
</mgrwt>
</event>
<event>
 4    1  0.8749406E-009  0.1755583E+04  0.7818608E-02  0.8730283E-01
         -1   -1    0    0    0  501 -0.00000000000E+00  0.00000000000E+00  0.33427202491E+04  0.33427202491E+04  0.50400000000E-02 0.  1.
          1   -1    0    0  501    0  0.00000000000E+00 -0.00000000000E+00 -0.12258825637E+04  0.12258825637E+04  0.50400000000E-02 0. -1.
    8880022    1    1    2    0    0  0.33193868253E+03 -0.17171182242E+04 -0.78853197802E+02  0.17573524873E+04  0.15294330000E+03 0.  0.
    8880022    1    1    2    0    0 -0.33193868253E+03  0.17171182242E+04  0.21956908833E+04  0.28112503255E+04  0.15294330000E+03 0.  0.
<mgrwt>
<rscale>  0 0.17555825E+04</rscale>
<asrwt>0</asrwt>
<pdfrwt beam="1">  1        1 0.18859732E+00 0.17555825E+04</pdfrwt>
<pdfrwt beam="2">  1       -1 0.51426465E+00 0.17555825E+04</pdfrwt>
<totfact> 0.11264477E-02</totfact>
</mgrwt>
</event>
<event>
 4    1  0.8749406E-009  0.8512674E+03  0.7818608E-02  0.9488637E-01
         -1   -1    0    0    0  501 -0.00000000000E+00  0.00000000000E+00  0.13905342410E+04  0.13905342410E+04  0.50400000000E-02 0.  1.
          1   -1    0    0  501    0  0.00000000000E+00 -0.00000000000E+00 -0.82673643080E+03  0.82673643082E+03  0.50400000000E-02 0. -1.
    8880022    1    1    2    0    0  0.83254461102E+03 -0.90188974787E+02 -0.39213661417E+03  0.93724455597E+03  0.15294330000E+03 0.  0.
    8880022    1    1    2    0    0 -0.83254461102E+03  0.90188974787E+02  0.95593442432E+03  0.12800261158E+04  0.15294330000E+03 0.  0.
<mgrwt>
<rscale>  0 0.85126743E+03</rscale>
<asrwt>0</asrwt>
<pdfrwt beam="1">  1        1 0.12719022E+00 0.85126743E+03</pdfrwt>
<pdfrwt beam="2">  1       -1 0.21392834E+00 0.85126743E+03</pdfrwt>
<totfact> 0.25986335E+00</totfact>
</mgrwt>
</event>
<event>
 4    1  0.8749406E-009  0.1006283E+04  0.7818608E-02  0.9301680E-01
         -1   -1    0    0    0  501 -0.00000000000E+00  0.00000000000E+00  0.74740837867E+03  0.74740837869E+03  0.50400000000E-02 0.  1.
          1   -1    0    0  501    0  0.00000000000E+00 -0.00000000000E+00 -0.20552657368E+04  0.20552657368E+04  0.50400000000E-02 0. -1.
    8880022    1    1    2    0    0 -0.63704842072E+03  0.76379586478E+03 -0.14720067779E+04  0.17830901325E+04  0.15294330000E+03 0.  0.
    8880022    1    1    2    0    0  0.63704842072E+03 -0.76379586478E+03  0.16414941975E+03  0.10195839830E+04  0.15294330000E+03 0.  0.
<mgrwt>
<rscale>  0 0.10062835E+04</rscale>
<asrwt>0</asrwt>
<pdfrwt beam="1">  1        1 0.31619473E+00 0.10062835E+04</pdfrwt>
<pdfrwt beam="2">  1       -1 0.11498591E+00 0.10062835E+04</pdfrwt>
<totfact> 0.18969759E+00</totfact>
</mgrwt>
</event>
<event>
 4    1  0.8749406E-009  0.1148363E+04  0.7818608E-02  0.9159296E-01
          1   -1    0    0  501    0  0.00000000000E+00  0.00000000000E+00  0.21724202760E+04  0.21724202760E+04  0.50400000000E-02 0. -1.
         -1   -1    0    0    0  501 -0.00000000000E+00 -0.00000000000E+00 -0.10182378519E+04  0.10182378519E+04  0.50400000000E-02 0.  1.
    8880022    1    1    2    0    0 -0.10732771167E+04 -0.37870967544E+03 -0.43671139108E+03  0.12285980952E+04  0.15294330000E+03 0.  0.
    8880022    1    1    2    0    0  0.10732771167E+04  0.37870967544E+03  0.15908938153E+04  0.19620600327E+04  0.15294330000E+03 0.  0.
<mgrwt>
<rscale>  0 0.11483625E+04</rscale>
<asrwt>0</asrwt>
<pdfrwt beam="1">  1        1 0.33421850E+00 0.11483625E+04</pdfrwt>
<pdfrwt beam="2">  1       -1 0.15665198E+00 0.11483625E+04</pdfrwt>
<totfact> 0.69861827E-01</totfact>
</mgrwt>
</event>
<event>
 4    1  0.8749406E-009  0.1352590E+04  0.7818608E-02  0.8988870E-01
         -1   -1    0    0    0  501 -0.00000000000E+00  0.00000000000E+00  0.10563817975E+04  0.10563817975E+04  0.50400000000E-02 0.  1.
          1   -1    0    0  501    0  0.00000000000E+00 -0.00000000000E+00 -0.20705658835E+04  0.20705658835E+04  0.50400000000E-02 0. -1.
    8880022    1    1    2    0    0  0.12240668013E+04 -0.55476906741E+03 -0.11394467927E+04  0.17685697325E+04  0.15294330000E+03 0. -1.
    8880022    1    1    2    0    0 -0.12240668013E+04  0.55476906741E+03  0.12526270677E+03  0.13583779485E+04  0.15294330000E+03 0.  0.
<mgrwt>
<rscale>  0 0.13525901E+04</rscale>
<asrwt>0</asrwt>
<pdfrwt beam="1">  1        1 0.31854860E+00 0.13525901E+04</pdfrwt>
<pdfrwt beam="2">  1       -1 0.16252028E+00 0.13525901E+04</pdfrwt>
<totfact> 0.71967913E-01</totfact>
</mgrwt>
</event>
<event>
 4    1  0.8749406E-009  0.1002336E+04  0.7818608E-02  0.9305986E-01
          1   -1    0    0  501    0  0.00000000000E+00  0.00000000000E+00  0.29406485119E+04  0.29406485119E+04  0.50400000000E-02 0. -1.
         -1   -1    0    0    0  501 -0.00000000000E+00 -0.00000000000E+00 -0.84683871362E+03  0.84683871363E+03  0.50400000000E-02 0.  1.
    8880022    1    1    2    0    0  0.35466622361E+03  0.92493126055E+03  0.25095767716E+04  0.27023421680E+04  0.15294330000E+03 0. -1.
    8880022    1    1    2    0    0 -0.35466622361E+03 -0.92493126055E+03 -0.41576697333E+03  0.10851450576E+04  0.15294330000E+03 0.  0.
<mgrwt>
<rscale>  0 0.10023361E+04</rscale>
<asrwt>0</asrwt>
<pdfrwt beam="1">  1        1 0.45240746E+00 0.10023361E+04</pdfrwt>
<pdfrwt beam="2">  1       -1 0.13028288E+00 0.10023361E+04</pdfrwt>
<totfact> 0.34169516E-01</totfact>
</mgrwt>
</event>
<event>
 4    1  0.8749406E-009  0.9860602E+03  0.7818608E-02  0.9323967E-01
         -1   -1    0    0    0  501 -0.00000000000E+00  0.00000000000E+00  0.45199922595E+03  0.45199922598E+03  0.50400000000E-02 0.  1.
          1   -1    0    0  501    0  0.00000000000E+00 -0.00000000000E+00 -0.43379660287E+04  0.43379660287E+04  0.50400000000E-02 0. -1.
    8880022    1    1    2    0    0  0.72542209134E+03  0.65014292347E+03 -0.24252435697E+03  0.10154470682E+04  0.15294330000E+03 0.  0.
    8880022    1    1    2    0    0 -0.72542209134E+03 -0.65014292347E+03 -0.36434424457E+04  0.37745181865E+04  0.15294330000E+03 0.  0.
<mgrwt>
<rscale>  0 0.98606018E+03</rscale>
<asrwt>0</asrwt>
<pdfrwt beam="1">  1        1 0.66737936E+00 0.98606018E+03</pdfrwt>
<pdfrwt beam="2">  1       -1 0.69538345E-01 0.98606018E+03</pdfrwt>
<totfact> 0.10465011E-01</totfact>
</mgrwt>
</event>
<event>
 4    1  0.8749406E-009  0.9112308E+03  0.7818608E-02  0.9411650E-01
          1   -1    0    0  501    0  0.00000000000E+00  0.00000000000E+00  0.11809256857E+04  0.11809256857E+04  0.50400000000E-02 0. -1.
         -1   -1    0    0    0  501 -0.00000000000E+00 -0.00000000000E+00 -0.16400879491E+04  0.16400879491E+04  0.50400000000E-02 0.  1.
    8880022    1    1    2    0    0 -0.58980616618E+02 -0.89636559222E+03 -0.12956915520E+04  0.15840322720E+04  0.15294330000E+03 0.  0.
    8880022    1    1    2    0    0  0.58980616618E+02  0.89636559222E+03  0.83652928863E+03  0.12369813628E+04  0.15294330000E+03 0.  0.
<mgrwt>
<rscale>  0 0.91123084E+03</rscale>
<asrwt>0</asrwt>
<pdfrwt beam="1">  1        1 0.18168087E+00 0.91123084E+03</pdfrwt>
<pdfrwt beam="2">  1       -1 0.25232122E+00 0.91123084E+03</pdfrwt>
<totfact> 0.76067806E-01</totfact>
</mgrwt>
</event>
<event>
 4    1  0.8749406E-009  0.6771135E+03  0.7818608E-02  0.9757192E-01
         -1   -1    0    0    0  501 -0.00000000000E+00  0.00000000000E+00  0.38079754492E+03  0.38079754495E+03  0.50400000000E-02 0.  1.
          1   -1    0    0  501    0  0.00000000000E+00 -0.00000000000E+00 -0.26642193962E+04  0.26642193962E+04  0.50400000000E-02 0. -1.
    8880022    1    1    2    0    0  0.65129229519E+03  0.10444793891E+03 -0.22688638194E+04  0.23677469691E+04  0.15294330000E+03 0.  0.
    8880022    1    1    2    0    0 -0.65129229519E+03 -0.10444793891E+03 -0.14558031861E+02  0.67726997204E+03  0.15294330000E+03 0.  0.
<mgrwt>
<rscale>  0 0.67711349E+03</rscale>
<asrwt>0</asrwt>
<pdfrwt beam="1">  1        1 0.40987990E+00 0.67711349E+03</pdfrwt>
<pdfrwt beam="2">  1       -1 0.58584239E-01 0.67711349E+03</pdfrwt>
<totfact> 0.33183120E+00</totfact>
</mgrwt>
</event>
<event>
 4    1  0.8749406E-009  0.8723851E+03  0.7818608E-02  0.9460775E-01
         -1   -1    0    0    0  501 -0.00000000000E+00  0.00000000000E+00  0.14204389853E+04  0.14204389853E+04  0.50400000000E-02 0.  1.
          1   -1    0    0  501    0  0.00000000000E+00 -0.00000000000E+00 -0.74856628040E+03  0.74856628041E+03  0.50400000000E-02 0. -1.
    8880022    1    1    2    0    0  0.72454689428E+03 -0.46118972656E+03  0.91413615409E+03  0.12636062390E+04  0.15294330000E+03 0.  0.
    8880022    1    1    2    0    0 -0.72454689428E+03  0.46118972656E+03 -0.24226344917E+03  0.90539902679E+03  0.15294330000E+03 0.  0.
<mgrwt>
<rscale>  0 0.87238513E+03</rscale>
<asrwt>0</asrwt>
<pdfrwt beam="1">  1        1 0.11516404E+00 0.87238513E+03</pdfrwt>
<pdfrwt beam="2">  1       -1 0.21852907E+00 0.87238513E+03</pdfrwt>
<totfact> 0.28266011E+00</totfact>
</mgrwt>
</event>
<event>
 4    1  0.8749406E-009  0.7342694E+03  0.7818608E-02  0.9660358E-01
         -1   -1    0    0    0  501 -0.00000000000E+00  0.00000000000E+00  0.13857331037E+04  0.13857331037E+04  0.50400000000E-02 0.  1.
          1   -1    0    0  501    0  0.00000000000E+00 -0.00000000000E+00 -0.25716591182E+04  0.25716591183E+04  0.50400000000E-02 0. -1.
    8880022    1    1    2    0    0 -0.10392479521E+03  0.71060506451E+03  0.12299169799E+04  0.14324270840E+04  0.15294330000E+03 0.  1.
    8880022    1    1    2    0    0  0.10392479521E+03 -0.71060506451E+03 -0.24158429944E+04  0.25249651379E+04  0.15294330000E+03 0.  0.
<mgrwt>
<rscale>  0 0.73426941E+03</rscale>
<asrwt>0</asrwt>
<pdfrwt beam="1">  1        1 0.39563986E+00 0.73426941E+03</pdfrwt>
<pdfrwt beam="2">  1       -1 0.21318971E+00 0.73426941E+03</pdfrwt>
<totfact> 0.16060018E-01</totfact>
</mgrwt>
</event>
<event>
 4    1  0.8749406E-009  0.1806357E+04  0.7818608E-02  0.8702926E-01
         -1   -1    0    0    0  501 -0.00000000000E+00  0.00000000000E+00  0.23526484986E+04  0.23526484986E+04  0.50400000000E-02 0.  1.
          1   -1    0    0  501    0  0.00000000000E+00 -0.00000000000E+00 -0.21054152100E+04  0.21054152100E+04  0.50400000000E-02 0. -1.
    8880022    1    1    2    0    0 -0.12613332682E+04  0.12839678061E+04 -0.11785316554E+04  0.21568179006E+04  0.15294330000E+03 0.  0.
    8880022    1    1    2    0    0  0.12613332682E+04 -0.12839678061E+04  0.14257649440E+04  0.23012458081E+04  0.15294330000E+03 0.  0.
<mgrwt>
<rscale>  0 0.18063573E+04</rscale>
<asrwt>0</asrwt>
<pdfrwt beam="1">  1        1 0.32391003E+00 0.18063573E+04</pdfrwt>
<pdfrwt beam="2">  1       -1 0.36194592E+00 0.18063573E+04</pdfrwt>
<totfact> 0.29663801E-02</totfact>
</mgrwt>
</event>
<event>
 4    1  0.8749406E-009  0.8738144E+03  0.7818608E-02  0.9458920E-01
          1   -1    0    0  501    0  0.00000000000E+00  0.00000000000E+00  0.16081546497E+04  0.16081546497E+04  0.50400000000E-02 0. -1.
         -1   -1    0    0    0  501 -0.00000000000E+00 -0.00000000000E+00 -0.59733931613E+03  0.59733931615E+03  0.50400000000E-02 0.  1.
    8880022    1    1    2    0    0 -0.50406438556E+03 -0.69719369121E+03  0.10048706469E+04  0.13316593476E+04  0.15294330000E+03 0.  0.
    8880022    1    1    2    0    0  0.50406438556E+03  0.69719369121E+03  0.59446866586E+01  0.87383461832E+03  0.15294330000E+03 0.  0.
<mgrwt>
<rscale>  0 0.87381440E+03</rscale>
<asrwt>0</asrwt>
<pdfrwt beam="1">  1        1 0.24740841E+00 0.87381440E+03</pdfrwt>
<pdfrwt beam="2">  1       -1 0.91898356E-01 0.87381440E+03</pdfrwt>
<totfact> 0.64994129E+00</totfact>
</mgrwt>
</event>
<event>
 4    1  0.8749406E-009  0.1011471E+04  0.7818608E-02  0.9296052E-01
         -1   -1    0    0    0  501 -0.00000000000E+00  0.00000000000E+00  0.98197148504E+03  0.98197148505E+03  0.50400000000E-02 0.  1.
          1   -1    0    0  501    0  0.00000000000E+00 -0.00000000000E+00 -0.14598101080E+04  0.14598101080E+04  0.50400000000E-02 0. -1.
    8880022    1    1    2    0    0  0.80630197235E+03  0.59123588822E+03  0.41434981494E+03  0.10930508535E+04  0.15294330000E+03 0.  0.
    8880022    1    1    2    0    0 -0.80630197235E+03 -0.59123588822E+03 -0.89218843788E+03  0.13487307396E+04  0.15294330000E+03 0.  0.
<mgrwt>
<rscale>  0 0.10114714E+04</rscale>
<asrwt>0</asrwt>
<pdfrwt beam="1">  1        1 0.22458617E+00 0.10114714E+04</pdfrwt>
<pdfrwt beam="2">  1       -1 0.15107254E+00 0.10114714E+04</pdfrwt>
<totfact> 0.23964361E+00</totfact>
</mgrwt>
</event>
<event>
 4    1  0.8749406E-009  0.8130237E+03  0.7818608E-02  0.9541355E-01
         -1   -1    0    0    0  501 -0.00000000000E+00  0.00000000000E+00  0.55311405121E+03  0.55311405123E+03  0.50400000000E-02 0.  1.
          1   -1    0    0  501    0  0.00000000000E+00 -0.00000000000E+00 -0.16252825031E+04  0.16252825031E+04  0.50400000000E-02 0. -1.
    8880022    1    1    2    0    0 -0.26632423600E+03 -0.75278631877E+03 -0.10964689983E+04  0.13650098013E+04  0.15294330000E+03 0.  0.
    8880022    1    1    2    0    0  0.26632423600E+03  0.75278631877E+03  0.24300546419E+02  0.81338675302E+03  0.15294330000E+03 0.  0.
<mgrwt>
<rscale>  0 0.81302367E+03</rscale>
<asrwt>0</asrwt>
<pdfrwt beam="1">  1        1 0.25004346E+00 0.81302367E+03</pdfrwt>
<pdfrwt beam="2">  1       -1 0.85094470E-01 0.81302367E+03</pdfrwt>
<totfact> 0.75551363E+00</totfact>
</mgrwt>
</event>
<event>
 4    1  0.8749406E-009  0.9172497E+03  0.7818608E-02  0.9404272E-01
          1   -1    0    0  501    0  0.00000000000E+00  0.00000000000E+00  0.14996959674E+04  0.14996959675E+04  0.50400000000E-02 0. -1.
         -1   -1    0    0    0  501 -0.00000000000E+00 -0.00000000000E+00 -0.71624990976E+03  0.71624990978E+03  0.50400000000E-02 0.  1.
    8880022    1    1    2    0    0 -0.62712153157E+03 -0.65167013211E+03  0.90754060187E+03  0.12903398674E+04  0.15294330000E+03 0.  0.
    8880022    1    1    2    0    0  0.62712153157E+03  0.65167013211E+03 -0.12409454419E+03  0.92560600979E+03  0.15294330000E+03 0.  0.
<mgrwt>
<rscale>  0 0.91724971E+03</rscale>
<asrwt>0</asrwt>
<pdfrwt beam="1">  1        1 0.23072245E+00 0.91724971E+03</pdfrwt>
<pdfrwt beam="2">  1       -1 0.11019230E+00 0.91724971E+03</pdfrwt>
<totfact> 0.50549292E+00</totfact>
</mgrwt>
</event>
<event>
 4    1  0.8749406E-009  0.9015866E+03  0.7818608E-02  0.9423600E-01
          1   -1    0    0  501    0  0.00000000000E+00  0.00000000000E+00  0.25154814193E+04  0.25154814193E+04  0.50400000000E-02 0. -1.
         -1   -1    0    0    0  501 -0.00000000000E+00 -0.00000000000E+00 -0.57514879539E+03  0.57514879542E+03  0.50400000000E-02 0.  1.
    8880022    1    1    2    0    0  0.80603849011E+03  0.37385658847E+03  0.19930654467E+04  0.21875027598E+04  0.15294330000E+03 0.  0.
    8880022    1    1    2    0    0 -0.80603849011E+03 -0.37385658847E+03 -0.52732822751E+02  0.90312745496E+03  0.15294330000E+03 0.  0.
<mgrwt>
<rscale>  0 0.90158663E+03</rscale>
<asrwt>0</asrwt>
<pdfrwt beam="1">  1        1 0.38699714E+00 0.90158663E+03</pdfrwt>
<pdfrwt beam="2">  1       -1 0.88484429E-01 0.90158663E+03</pdfrwt>
<totfact> 0.17157012E+00</totfact>
</mgrwt>
</event>
<event>
 4    1  0.8749406E-009  0.6660851E+03  0.7818608E-02  0.9777056E-01
          1   -1    0    0  501    0  0.00000000000E+00  0.00000000000E+00  0.42546359160E+03  0.42546359163E+03  0.50400000000E-02 0. -1.
         -1   -1    0    0    0  501 -0.00000000000E+00 -0.00000000000E+00 -0.11169483969E+04  0.11169483969E+04  0.50400000000E-02 0.  1.
    8880022    1    1    2    0    0  0.60588840771E+03  0.23060112785E+03 -0.54445857014E+03  0.86029322349E+03  0.15294330000E+03 0.  0.
    8880022    1    1    2    0    0 -0.60588840771E+03 -0.23060112785E+03 -0.14702623514E+03  0.68211876503E+03  0.15294330000E+03 0.  0.
<mgrwt>
<rscale>  0 0.66608505E+03</rscale>
<asrwt>0</asrwt>
<pdfrwt beam="1">  1        1 0.65455938E-01 0.66608505E+03</pdfrwt>
<pdfrwt beam="2">  1       -1 0.17183821E+00 0.66608505E+03</pdfrwt>
<totfact> 0.13691156E+01</totfact>
</mgrwt>
</event>
<event>
 4    1  0.8749406E-009  0.1244724E+04  0.7818608E-02  0.9074586E-01
          1   -1    0    0  501    0  0.00000000000E+00  0.00000000000E+00  0.34267940982E+04  0.34267940982E+04  0.50400000000E-02 0. -1.
         -1   -1    0    0    0  501 -0.00000000000E+00 -0.00000000000E+00 -0.69421806393E+03  0.69421806395E+03  0.50400000000E-02 0.  1.
    8880022    1    1    2    0    0  0.12319257835E+04 -0.91127458953E+02  0.14949217946E+03  0.12536685825E+04  0.15294330000E+03 0.  0.
    8880022    1    1    2    0    0 -0.12319257835E+04  0.91127458953E+02  0.25830838548E+04  0.28673435797E+04  0.15294330000E+03 0.  0.
<mgrwt>
<rscale>  0 0.12447237E+04</rscale>
<asrwt>0</asrwt>
<pdfrwt beam="1">  1        1 0.52719909E+00 0.12447237E+04</pdfrwt>
<pdfrwt beam="2">  1       -1 0.10680278E+00 0.12447237E+04</pdfrwt>
<totfact> 0.23224678E-01</totfact>
</mgrwt>
</event>
<event>
 4    1  0.8749406E-009  0.9495006E+03  0.7818608E-02  0.9365735E-01
         -1   -1    0    0    0  501 -0.00000000000E+00  0.00000000000E+00  0.15584155663E+04  0.15584155663E+04  0.50400000000E-02 0.  1.
          1   -1    0    0  501    0  0.00000000000E+00 -0.00000000000E+00 -0.11139182493E+04  0.11139182493E+04  0.50400000000E-02 0. -1.
    8880022    1    1    2    0    0 -0.59607964264E+03 -0.72308278796E+03  0.11486060674E+04  0.14902507204E+04  0.15294330000E+03 0.  0.
    8880022    1    1    2    0    0  0.59607964264E+03  0.72308278796E+03 -0.70410875038E+03  0.11820830952E+04  0.15294330000E+03 0.  0.
<mgrwt>
<rscale>  0 0.94950056E+03</rscale>
<asrwt>0</asrwt>
<pdfrwt beam="1">  1        1 0.17137204E+00 0.94950056E+03</pdfrwt>
<pdfrwt beam="2">  1       -1 0.23975624E+00 0.94950056E+03</pdfrwt>
<totfact> 0.10226387E+00</totfact>
</mgrwt>
</event>
<event>
 4    1  0.8749406E-009  0.1087097E+04  0.7818608E-02  0.9217860E-01
          1   -1    0    0  501    0  0.00000000000E+00  0.00000000000E+00  0.24612287189E+04  0.24612287189E+04  0.50400000000E-02 0. -1.
         -1   -1    0    0    0  501 -0.00000000000E+00 -0.00000000000E+00 -0.64098818412E+03  0.64098818414E+03  0.50400000000E-02 0.  1.
    8880022    1    1    2    0    0 -0.89839514341E+03 -0.59268329078E+03  0.16870840256E+04  0.20069956351E+04  0.15294330000E+03 0.  0.
    8880022    1    1    2    0    0  0.89839514341E+03  0.59268329078E+03  0.13315650923E+03  0.10952212680E+04  0.15294330000E+03 0.  0.
<mgrwt>
<rscale>  0 0.10870966E+04</rscale>
<asrwt>0</asrwt>
<pdfrwt beam="1">  1        1 0.37865058E+00 0.10870966E+04</pdfrwt>
<pdfrwt beam="2">  1       -1 0.98613565E-01 0.10870966E+04</pdfrwt>
<totfact> 0.14252471E+00</totfact>
</mgrwt>
</event>
<event>
 4    1  0.8749406E-009  0.8498864E+03  0.7818608E-02  0.9490489E-01
          1   -1    0    0  501    0  0.00000000000E+00  0.00000000000E+00  0.38718332495E+04  0.38718332495E+04  0.50400000000E-02 0. -1.
         -1   -1    0    0    0  501 -0.00000000000E+00 -0.00000000000E+00 -0.25604545822E+03  0.25604545827E+03  0.50400000000E-02 0.  1.
    8880022    1    1    2    0    0  0.82721406845E+03 -0.12096325839E+03  0.73265892307E+03  0.11220944593E+04  0.15294330000E+03 0.  0.
    8880022    1    1    2    0    0 -0.82721406845E+03  0.12096325839E+03  0.28831288682E+04  0.30057842485E+04  0.15294330000E+03 0.  0.
<mgrwt>
<rscale>  0 0.84988639E+03</rscale>
<asrwt>0</asrwt>
<pdfrwt beam="1">  1        1 0.59566659E+00 0.84988639E+03</pdfrwt>
<pdfrwt beam="2">  1       -1 0.39391613E-01 0.84988639E+03</pdfrwt>
<totfact> 0.83757481E-01</totfact>
</mgrwt>
</event>
<event>
 4    1  0.8749406E-009  0.1347849E+04  0.7818608E-02  0.8992458E-01
          1   -1    0    0  501    0  0.00000000000E+00  0.00000000000E+00  0.23699301737E+04  0.23699301737E+04  0.50400000000E-02 0. -1.
         -1   -1    0    0    0  501 -0.00000000000E+00 -0.00000000000E+00 -0.12596104354E+04  0.12596104355E+04  0.50400000000E-02 0.  1.
    8880022    1    1    2    0    0 -0.11342652166E+04 -0.71186290159E+03 -0.58023886041E+03  0.14674382987E+04  0.15294330000E+03 0.  0.
    8880022    1    1    2    0    0  0.11342652166E+04  0.71186290159E+03  0.16905585986E+04  0.21621023104E+04  0.15294330000E+03 0.  0.
<mgrwt>
<rscale>  0 0.13478494E+04</rscale>
<asrwt>0</asrwt>
<pdfrwt beam="1">  1        1 0.36460464E+00 0.13478494E+04</pdfrwt>
<pdfrwt beam="2">  1       -1 0.19378622E+00 0.13478494E+04</pdfrwt>
<totfact> 0.26703231E-01</totfact>
</mgrwt>
</event>
<event>
 4    1  0.8749406E-009  0.6254626E+03  0.7818608E-02  0.9853943E-01
         -1   -1    0    0    0  501 -0.00000000000E+00  0.00000000000E+00  0.19252563506E+04  0.19252563506E+04  0.50400000000E-02 0.  1.
          1   -1    0    0  501    0  0.00000000000E+00 -0.00000000000E+00 -0.87552244966E+03  0.87552244967E+03  0.50400000000E-02 0. -1.
    8880022    1    1    2    0    0 -0.25475173186E+03  0.55037565395E+03 -0.70230501759E+03  0.94044446731E+03  0.15294330000E+03 0.  0.
    8880022    1    1    2    0    0  0.25475173186E+03 -0.55037565395E+03  0.17520389185E+04  0.18603343330E+04  0.15294330000E+03 0.  0.
<mgrwt>
<rscale>  0 0.62546260E+03</rscale>
<asrwt>0</asrwt>
<pdfrwt beam="1">  1        1 0.13469576E+00 0.62546260E+03</pdfrwt>
<pdfrwt beam="2">  1       -1 0.29619329E+00 0.62546260E+03</pdfrwt>
<totfact> 0.72598307E-01</totfact>
</mgrwt>
</event>
<event>
 4    1  0.8749406E-009  0.7995508E+03  0.7818608E-02  0.9560668E-01
         -1   -1    0    0    0  501 -0.00000000000E+00  0.00000000000E+00  0.33744313476E+03  0.33744313480E+03  0.50400000000E-02 0.  1.
          1   -1    0    0  501    0  0.00000000000E+00 -0.00000000000E+00 -0.22298638801E+04  0.22298638801E+04  0.50400000000E-02 0. -1.
    8880022    1    1    2    0    0 -0.24174579378E+03  0.74662494512E+03 -0.44838678851E+03  0.91669635246E+03  0.15294330000E+03 0.  0.
    8880022    1    1    2    0    0  0.24174579378E+03 -0.74662494512E+03 -0.14440339568E+04  0.16506106624E+04  0.15294330000E+03 0.  0.
<mgrwt>
<rscale>  0 0.79955081E+03</rscale>
<asrwt>0</asrwt>
<pdfrwt beam="1">  1        1 0.34305597E+00 0.79955081E+03</pdfrwt>
<pdfrwt beam="2">  1       -1 0.51914330E-01 0.79955081E+03</pdfrwt>
<totfact> 0.80948954E+00</totfact>
</mgrwt>
</event>
<event>
 4    1  0.8749406E-009  0.7329920E+03  0.7818608E-02  0.9662418E-01
         -1   -1    0    0    0  501 -0.00000000000E+00  0.00000000000E+00  0.58306608952E+03  0.58306608954E+03  0.50400000000E-02 0.  1.
          1   -1    0    0  501    0  0.00000000000E+00 -0.00000000000E+00 -0.26913337884E+04  0.26913337884E+04  0.50400000000E-02 0. -1.
    8880022    1    1    2    0    0 -0.71619809337E+03 -0.30755434842E+02 -0.23817972908E+04  0.24920344286E+04  0.15294330000E+03 0.  0.
    8880022    1    1    2    0    0  0.71619809337E+03  0.30755434842E+02  0.27352959191E+03  0.78236544938E+03  0.15294330000E+03 0.  0.
<mgrwt>
<rscale>  0 0.73299199E+03</rscale>
<asrwt>0</asrwt>
<pdfrwt beam="1">  1        1 0.41405135E+00 0.73299199E+03</pdfrwt>
<pdfrwt beam="2">  1       -1 0.89702476E-01 0.73299199E+03</pdfrwt>
<totfact> 0.13010667E+00</totfact>
</mgrwt>
</event>
<event>
 4    1  0.8749406E-009  0.5146701E+03  0.7818608E-02  0.1010019E+00
          1   -1    0    0  501    0  0.00000000000E+00  0.00000000000E+00  0.10975894353E+04  0.10975894354E+04  0.50400000000E-02 0. -1.
         -1   -1    0    0    0  501 -0.00000000000E+00 -0.00000000000E+00 -0.39478985763E+03  0.39478985766E+03  0.50400000000E-02 0.  1.
    8880022    1    1    2    0    0 -0.41908212339E+03  0.25663948021E+03 -0.11382024432E+03  0.52710563456E+03  0.15294330000E+03 0.  1.
    8880022    1    1    2    0    0  0.41908212339E+03 -0.25663948021E+03  0.81661982204E+03  0.96527365846E+03  0.15294330000E+03 0.  0.
<mgrwt>
<rscale>  0 0.51467009E+03</rscale>
<asrwt>0</asrwt>
<pdfrwt beam="1">  1        1 0.16885991E+00 0.51467009E+03</pdfrwt>
<pdfrwt beam="2">  1       -1 0.60736903E-01 0.51467009E+03</pdfrwt>
<totfact> 0.37066392E+01</totfact>
</mgrwt>
</event>
<event>
 4    1  0.8749406E-009  0.5820986E+03  0.7818608E-02  0.9943258E-01
         -1   -1    0    0    0  501 -0.00000000000E+00  0.00000000000E+00  0.53054683191E+03  0.53054683194E+03  0.50400000000E-02 0.  1.
          1   -1    0    0  501    0  0.00000000000E+00 -0.00000000000E+00 -0.16018590739E+04  0.16018590739E+04  0.50400000000E-02 0. -1.
    8880022    1    1    2    0    0  0.56095094912E+03  0.27948867735E+02  0.29111609844E+03  0.65083587971E+03  0.15294330000E+03 0.  0.
    8880022    1    1    2    0    0 -0.56095094912E+03 -0.27948867735E+02 -0.13624283404E+04  0.14815700261E+04  0.15294330000E+03 0.  0.
<mgrwt>
<rscale>  0 0.58209858E+03</rscale>
<asrwt>0</asrwt>
<pdfrwt beam="1">  1        1 0.24643986E+00 0.58209858E+03</pdfrwt>
<pdfrwt beam="2">  1       -1 0.81622590E-01 0.58209858E+03</pdfrwt>
<totfact> 0.89119133E+00</totfact>
</mgrwt>
</event>
<event>
 4    1  0.8749406E-009  0.1037199E+04  0.7818608E-02  0.9268661E-01
          1   -1    0    0  501    0  0.00000000000E+00  0.00000000000E+00  0.21352939415E+04  0.21352939415E+04  0.50400000000E-02 0. -1.
         -1   -1    0    0    0  501 -0.00000000000E+00 -0.00000000000E+00 -0.96879668086E+03  0.96879668088E+03  0.50400000000E-02 0.  1.
    8880022    1    1    2    0    0  0.41495914633E+03  0.93818907505E+03 -0.49199911409E+03  0.11479741351E+04  0.15294330000E+03 0.  0.
    8880022    1    1    2    0    0 -0.41495914633E+03 -0.93818907505E+03  0.16584963747E+04  0.19561164872E+04  0.15294330000E+03 0.  0.
<mgrwt>
<rscale>  0 0.10371989E+04</rscale>
<asrwt>0</asrwt>
<pdfrwt beam="1">  1        1 0.32850676E+00 0.10371989E+04</pdfrwt>
<pdfrwt beam="2">  1       -1 0.14904564E+00 0.10371989E+04</pdfrwt>
<totfact> 0.86184024E-01</totfact>
</mgrwt>
</event>
<event>
 4    1  0.8749406E-009  0.1090158E+04  0.7818608E-02  0.9214838E-01
          1   -1    0    0  501    0  0.00000000000E+00  0.00000000000E+00  0.21292687570E+04  0.21292687570E+04  0.50400000000E-02 0. -1.
         -1   -1    0    0    0  501 -0.00000000000E+00 -0.00000000000E+00 -0.10310243160E+04  0.10310243160E+04  0.50400000000E-02 0.  1.
    8880022    1    1    2    0    0  0.26455256770E+03  0.10464536684E+04  0.16192537128E+04  0.19520316546E+04  0.15294330000E+03 0.  0.
    8880022    1    1    2    0    0 -0.26455256770E+03 -0.10464536684E+04 -0.52100927174E+03  0.12082614185E+04  0.15294330000E+03 0.  0.
<mgrwt>
<rscale>  0 0.10901582E+04</rscale>
<asrwt>0</asrwt>
<pdfrwt beam="1">  1        1 0.32757981E+00 0.10901582E+04</pdfrwt>
<pdfrwt beam="2">  1       -1 0.15861913E+00 0.10901582E+04</pdfrwt>
<totfact> 0.72788701E-01</totfact>
</mgrwt>
</event>
<event>
 4    1  0.8749406E-009  0.4294640E+03  0.7818608E-02  0.1034029E+00
         -1   -1    0    0    0  501 -0.00000000000E+00  0.00000000000E+00  0.61656904983E+03  0.61656904985E+03  0.50400000000E-02 0.  1.
          1   -1    0    0  501    0  0.00000000000E+00 -0.00000000000E+00 -0.43538933296E+03  0.43538933299E+03  0.50400000000E-02 0. -1.
    8880022    1    1    2    0    0 -0.40701938460E+02  0.39923809826E+03 -0.20364879284E+03  0.47530220990E+03  0.15294330000E+03 0.  0.
    8880022    1    1    2    0    0  0.40701938460E+02 -0.39923809826E+03  0.38482850971E+03  0.57665617294E+03  0.15294330000E+03 0.  0.
<mgrwt>
<rscale>  0 0.42946404E+03</rscale>
<asrwt>0</asrwt>
<pdfrwt beam="1">  1        1 0.66982975E-01 0.42946404E+03</pdfrwt>
<pdfrwt beam="2">  1       -1 0.94856777E-01 0.42946404E+03</pdfrwt>
<totfact> 0.60632680E+01</totfact>
</mgrwt>
</event>
<event>
 4    1  0.8749406E-009  0.6858970E+03  0.7818608E-02  0.9741659E-01
          1   -1    0    0  501    0  0.00000000000E+00  0.00000000000E+00  0.79584189587E+03  0.79584189589E+03  0.50400000000E-02 0. -1.
         -1   -1    0    0    0  501 -0.00000000000E+00 -0.00000000000E+00 -0.14569797074E+04  0.14569797074E+04  0.50400000000E-02 0.  1.
    8880022    1    1    2    0    0 -0.65397954443E+03  0.13918967806E+03  0.53776865691E+03  0.87157890772E+03  0.15294330000E+03 0.  0.
    8880022    1    1    2    0    0  0.65397954443E+03 -0.13918967806E+03 -0.11989064684E+04  0.13812426956E+04  0.15294330000E+03 0.  0.
<mgrwt>
<rscale>  0 0.68589698E+03</rscale>
<asrwt>0</asrwt>
<pdfrwt beam="1">  1        1 0.12243722E+00 0.68589698E+03</pdfrwt>
<pdfrwt beam="2">  1       -1 0.22415072E+00 0.68589698E+03</pdfrwt>
<totfact> 0.24282408E+00</totfact>
</mgrwt>
</event>
<event>
 4    1  0.8749406E-009  0.3855986E+03  0.7818608E-02  0.1048884E+00
          1   -1    0    0  501    0  0.00000000000E+00  0.00000000000E+00  0.27264168186E+03  0.27264168191E+03  0.50400000000E-02 0. -1.
         -1   -1    0    0    0  501 -0.00000000000E+00 -0.00000000000E+00 -0.56618668273E+03  0.56618668275E+03  0.50400000000E-02 0.  1.
    8880022    1    1    2    0    0 -0.19387573474E+03 -0.29615338778E+03 -0.66321037919E+02  0.39126047935E+03  0.15294330000E+03 0.  1.
    8880022    1    1    2    0    0  0.19387573474E+03  0.29615338778E+03 -0.22722396295E+03  0.44756788532E+03  0.15294330000E+03 0.  0.
<mgrwt>
<rscale>  0 0.38559860E+03</rscale>
<asrwt>0</asrwt>
<pdfrwt beam="1">  1        1 0.41944874E-01 0.38559860E+03</pdfrwt>
<pdfrwt beam="2">  1       -1 0.87105643E-01 0.38559860E+03</pdfrwt>
<totfact> 0.13428901E+02</totfact>
</mgrwt>
</event>
<event>
 4    1  0.8749406E-009  0.4434465E+03  0.7818608E-02  0.1029695E+00
         -1   -1    0    0    0  501 -0.00000000000E+00  0.00000000000E+00  0.19593831524E+03  0.19593831531E+03  0.50400000000E-02 0.  1.
          1   -1    0    0  501    0  0.00000000000E+00 -0.00000000000E+00 -0.14545338723E+04  0.14545338723E+04  0.50400000000E-02 0. -1.
    8880022    1    1    2    0    0  0.18697781361E+03  0.37187696064E+03 -0.16981426689E+03  0.47484914962E+03  0.15294330000E+03 0.  0.
    8880022    1    1    2    0    0 -0.18697781361E+03 -0.37187696064E+03 -0.10887812901E+04  0.11756230380E+04  0.15294330000E+03 0.  0.
<mgrwt>
<rscale>  0 0.44344654E+03</rscale>
<asrwt>0</asrwt>
<pdfrwt beam="1">  1        1 0.22377443E+00 0.44344654E+03</pdfrwt>
<pdfrwt beam="2">  1       -1 0.30144357E-01 0.44344654E+03</pdfrwt>
<totfact> 0.75833373E+01</totfact>
</mgrwt>
</event>
<event>
 4    1  0.8749406E-009  0.3632130E+03  0.7818608E-02  0.1057319E+00
         -1   -1    0    0    0  501 -0.00000000000E+00  0.00000000000E+00  0.61784923171E+03  0.61784923173E+03  0.50400000000E-02 0.  1.
          1   -1    0    0  501    0  0.00000000000E+00 -0.00000000000E+00 -0.43397181958E+03  0.43397181961E+03  0.50400000000E-02 0. -1.
    8880022    1    1    2    0    0 -0.25088676815E+03  0.21351313524E+03  0.46677110483E+03  0.59143803282E+03  0.15294330000E+03 0.  0.
    8880022    1    1    2    0    0  0.25088676815E+03 -0.21351313524E+03 -0.28289369270E+03  0.46038301852E+03  0.15294330000E+03 0.  0.
<mgrwt>
<rscale>  0 0.36321300E+03</rscale>
<asrwt>0</asrwt>
<pdfrwt beam="1">  1        1 0.66764895E-01 0.36321300E+03</pdfrwt>
<pdfrwt beam="2">  1       -1 0.95053728E-01 0.36321300E+03</pdfrwt>
<totfact> 0.61208299E+01</totfact>
</mgrwt>
</event>
<event>
 4    1  0.8749406E-009  0.3855527E+03  0.7818608E-02  0.1048900E+00
          1   -1    0    0  501    0  0.00000000000E+00  0.00000000000E+00  0.21524587358E+04  0.21524587359E+04  0.50400000000E-02 0. -1.
         -1   -1    0    0    0  501 -0.00000000000E+00 -0.00000000000E+00 -0.19043371343E+03  0.19043371349E+03  0.50400000000E-02 0.  1.
    8880022    1    1    2    0    0  0.28258517538E+03 -0.21308414808E+03  0.45798460634E+02  0.38826329664E+03  0.15294330000E+03 0.  0.
    8880022    1    1    2    0    0 -0.28258517538E+03  0.21308414808E+03  0.19162265618E+04  0.19546291527E+04  0.15294330000E+03 0.  0.
<mgrwt>
<rscale>  0 0.38555271E+03</rscale>
<asrwt>0</asrwt>
<pdfrwt beam="1">  1        1 0.33114752E+00 0.38555271E+03</pdfrwt>
<pdfrwt beam="2">  1       -1 0.29297493E-01 0.38555271E+03</pdfrwt>
<totfact> 0.27830555E+01</totfact>
</mgrwt>
</event>
<event>
 4    1  0.8749406E-009  0.2695359E+03  0.7818608E-02  0.1101546E+00
         -1   -1    0    0    0  501 -0.00000000000E+00  0.00000000000E+00  0.36581177536E+03  0.36581177540E+03  0.50400000000E-02 0.  1.
          1   -1    0    0  501    0  0.00000000000E+00 -0.00000000000E+00 -0.78106214823E+03  0.78106214825E+03  0.50400000000E-02 0. -1.
    8880022    1    1    2    0    0  0.96281594339E+02 -0.19996948101E+03 -0.70282147328E+03  0.75273342896E+03  0.15294330000E+03 0.  0.
    8880022    1    1    2    0    0 -0.96281594339E+02  0.19996948101E+03  0.28757110042E+03  0.39414049469E+03  0.15294330000E+03 0.  0.
<mgrwt>
<rscale>  0 0.26953588E+03</rscale>
<asrwt>0</asrwt>
<pdfrwt beam="1">  1        1 0.12016341E+00 0.26953588E+03</pdfrwt>
<pdfrwt beam="2">  1       -1 0.56278735E-01 0.26953588E+03</pdfrwt>
<totfact> 0.79747809E+01</totfact>
</mgrwt>
</event>
<event>
 4    1  0.8749406E-009  0.1980554E+04  0.7818608E-02  0.8615767E-01
         -1   -1    0    0    0  501 -0.00000000000E+00  0.00000000000E+00  0.24720702735E+04  0.24720702735E+04  0.50400000000E-02 0.  1.
          1   -1    0    0  501    0  0.00000000000E+00 -0.00000000000E+00 -0.20677182859E+04  0.20677182859E+04  0.50400000000E-02 0. -1.
    8880022    1    1    2    0    0  0.12640508276E+04  0.15170293855E+04 -0.89256516388E+03  0.21723873678E+04  0.15294330000E+03 0.  0.
    8880022    1    1    2    0    0 -0.12640508276E+04 -0.15170293855E+04  0.12969171515E+04  0.23674011916E+04  0.15294330000E+03 0.  0.
<mgrwt>
<rscale>  0 0.19805540E+04</rscale>
<asrwt>0</asrwt>
<pdfrwt beam="1">  1        1 0.31811051E+00 0.19805540E+04</pdfrwt>
<pdfrwt beam="2">  1       -1 0.38031850E+00 0.19805540E+04</pdfrwt>
<totfact> 0.23212126E-02</totfact>
</mgrwt>
</event>
<event>
 4    1  0.8749406E-009  0.7894234E+03  0.7818608E-02  0.9575454E-01
          1   -1    0    0  501    0  0.00000000000E+00  0.00000000000E+00  0.37861437995E+04  0.37861437995E+04  0.50400000000E-02 0. -1.
         -1   -1    0    0    0  501 -0.00000000000E+00 -0.00000000000E+00 -0.34163288519E+03  0.34163288523E+03  0.50400000000E-02 0.  1.
    8880022    1    1    2    0    0  0.77011958854E+03 -0.81935364027E+02  0.32079741492E+04  0.33036778565E+04  0.15294330000E+03 0.  0.
    8880022    1    1    2    0    0 -0.77011958854E+03  0.81935364027E+02  0.23653676518E+03  0.82409882831E+03  0.15294330000E+03 0.  0.
<mgrwt>
<rscale>  0 0.78942336E+03</rscale>
<asrwt>0</asrwt>
<pdfrwt beam="1">  1        1 0.58248366E+00 0.78942336E+03</pdfrwt>
<pdfrwt beam="2">  1       -1 0.52558905E-01 0.78942336E+03</pdfrwt>
<totfact> 0.58368706E-01</totfact>
</mgrwt>
</event>
<event>
 4    1  0.8749406E-009  0.1456179E+04  0.7818608E-02  0.8914128E-01
         -1   -1    0    0    0  501 -0.00000000000E+00  0.00000000000E+00  0.13855569738E+04  0.13855569738E+04  0.50400000000E-02 0.  1.
          1   -1    0    0  501    0  0.00000000000E+00 -0.00000000000E+00 -0.21301781053E+04  0.21301781053E+04  0.50400000000E-02 0. -1.
    8880022    1    1    2    0    0  0.12025420330E+04  0.80682042901E+03  0.56045610656E+03  0.15603106249E+04  0.15294330000E+03 0.  0.
    8880022    1    1    2    0    0 -0.12025420330E+04 -0.80682042901E+03 -0.13050772381E+04  0.19554244542E+04  0.15294330000E+03 0.  0.
<mgrwt>
<rscale>  0 0.14561793E+04</rscale>
<asrwt>0</asrwt>
<pdfrwt beam="1">  1        1 0.32771971E+00 0.14561793E+04</pdfrwt>
<pdfrwt beam="2">  1       -1 0.21316261E+00 0.14561793E+04</pdfrwt>
<totfact> 0.28241619E-01</totfact>
</mgrwt>
</event>
<event>
 4    1  0.8749406E-009  0.1200053E+04  0.7818608E-02  0.9112810E-01
          1   -1    0    0  501    0  0.00000000000E+00  0.00000000000E+00  0.17964865793E+04  0.17964865793E+04  0.50400000000E-02 0. -1.
         -1   -1    0    0    0  501 -0.00000000000E+00 -0.00000000000E+00 -0.12866311306E+04  0.12866311306E+04  0.50400000000E-02 0.  1.
    8880022    1    1    2    0    0 -0.16515890436E+03 -0.11787527767E+04 -0.69153179462E+03  0.13850427605E+04  0.15294330000E+03 0.  0.
    8880022    1    1    2    0    0  0.16515890436E+03  0.11787527767E+04  0.12013872434E+04  0.16980749494E+04  0.15294330000E+03 0.  0.
<mgrwt>
<rscale>  0 0.12000530E+04</rscale>
<asrwt>0</asrwt>
<pdfrwt beam="1">  1        1 0.27638255E+00 0.12000530E+04</pdfrwt>
<pdfrwt beam="2">  1       -1 0.19794325E+00 0.12000530E+04</pdfrwt>
<totfact> 0.62474633E-01</totfact>
</mgrwt>
</event>
<event>
 4    1  0.8749406E-009  0.1130688E+04  0.7818608E-02  0.9175787E-01
         -1   -1    0    0    0  501 -0.00000000000E+00  0.00000000000E+00  0.14842281800E+04  0.14842281800E+04  0.50400000000E-02 0.  1.
          1   -1    0    0  501    0  0.00000000000E+00 -0.00000000000E+00 -0.10896470282E+04  0.10896470282E+04  0.50400000000E-02 0. -1.
    8880022    1    1    2    0    0 -0.38329317569E+02  0.11196399686E+04  0.78634497602E+03  0.13772410356E+04  0.15294330000E+03 0.  0.
    8880022    1    1    2    0    0  0.38329317569E+02 -0.11196399686E+04 -0.39176382419E+03  0.11966341725E+04  0.15294330000E+03 0.  0.
<mgrwt>
<rscale>  0 0.11306876E+04</rscale>
<asrwt>0</asrwt>
<pdfrwt beam="1">  1        1 0.16763800E+00 0.11306876E+04</pdfrwt>
<pdfrwt beam="2">  1       -1 0.22834280E+00 0.11306876E+04</pdfrwt>
<totfact> 0.12363388E+00</totfact>
</mgrwt>
</event>
<event>
 4    1  0.8749406E-009  0.5393057E+03  0.7818608E-02  0.1004000E+00
         -1   -1    0    0    0  501 -0.00000000000E+00  0.00000000000E+00  0.66380240481E+03  0.66380240483E+03  0.50400000000E-02 0.  1.
          1   -1    0    0  501    0  0.00000000000E+00 -0.00000000000E+00 -0.15063116968E+04  0.15063116968E+04  0.50400000000E-02 0. -1.
    8880022    1    1    2    0    0  0.14718687052E+03 -0.49577720227E+03  0.49246281150E+03  0.73032204052E+03  0.15294330000E+03 0.  0.
    8880022    1    1    2    0    0 -0.14718687052E+03  0.49577720227E+03 -0.13349721035E+04  0.14397920612E+04  0.15294330000E+03 0.  0.
<mgrwt>
<rscale>  0 0.53930572E+03</rscale>
<asrwt>0</asrwt>
<pdfrwt beam="1">  1        1 0.23174026E+00 0.53930572E+03</pdfrwt>
<pdfrwt beam="2">  1       -1 0.10212345E+00 0.53930572E+03</pdfrwt>
<totfact> 0.63742627E+00</totfact>
</mgrwt>
</event>
<event>
 4    1  0.8749406E-009  0.3759813E+03  0.7818608E-02  0.1052429E+00
          1   -1    0    0  501    0  0.00000000000E+00  0.00000000000E+00  0.11149418909E+04  0.11149418909E+04  0.50400000000E-02 0. -1.
         -1   -1    0    0    0  501 -0.00000000000E+00 -0.00000000000E+00 -0.21900469493E+03  0.21900469499E+03  0.50400000000E-02 0.  1.
    8880022    1    1    2    0    0 -0.37628386750E+02 -0.34140057441E+03  0.15170703768E+02  0.37628719213E+03  0.15294330000E+03 0.  0.
    8880022    1    1    2    0    0  0.37628386750E+02  0.34140057441E+03  0.88076649223E+03  0.95765939381E+03  0.15294330000E+03 0.  0.
<mgrwt>
<rscale>  0 0.37598125E+03</rscale>
<asrwt>0</asrwt>
<pdfrwt beam="1">  1        1 0.17152952E+00 0.37598125E+03</pdfrwt>
<pdfrwt beam="2">  1       -1 0.33693030E-01 0.37598125E+03</pdfrwt>
<totfact> 0.10914812E+02</totfact>
</mgrwt>
</event>
<event>
 4    1  0.8749406E-009  0.5504603E+03  0.7818608E-02  0.1001387E+00
          1   -1    0    0  501    0  0.00000000000E+00  0.00000000000E+00  0.33661879392E+04  0.33661879392E+04  0.50400000000E-02 0. -1.
         -1   -1    0    0    0  501 -0.00000000000E+00 -0.00000000000E+00 -0.11070112301E+03  0.11070112313E+03  0.50400000000E-02 0.  1.
    8880022    1    1    2    0    0  0.29544716465E+03  0.43854972649E+03  0.23792400998E+04  0.24420872211E+04  0.15294330000E+03 0.  0.
    8880022    1    1    2    0    0 -0.29544716465E+03 -0.43854972649E+03  0.87624671633E+03  0.10348018412E+04  0.15294330000E+03 0.  0.
<mgrwt>
<rscale>  0 0.55046030E+03</rscale>
<asrwt>0</asrwt>
<pdfrwt beam="1">  1        1 0.51787495E+00 0.55046030E+03</pdfrwt>
<pdfrwt beam="2">  1       -1 0.17030946E-01 0.55046030E+03</pdfrwt>
<totfact> 0.94690967E+00</totfact>
</mgrwt>
</event>
<event>
 4    1  0.8749406E-009  0.5132984E+03  0.7818608E-02  0.1010365E+00
          1   -1    0    0  501    0  0.00000000000E+00  0.00000000000E+00  0.11300662998E+04  0.11300662999E+04  0.50400000000E-02 0. -1.
         -1   -1    0    0    0  501 -0.00000000000E+00 -0.00000000000E+00 -0.49655282853E+03  0.49655282855E+03  0.50400000000E-02 0.  1.
    8880022    1    1    2    0    0  0.12431118156E+03 -0.47395180763E+03 -0.27559976866E+03  0.58260661798E+03  0.15294330000E+03 0.  0.
    8880022    1    1    2    0    0 -0.12431118156E+03  0.47395180763E+03  0.90911323998E+03  0.10440125104E+04  0.15294330000E+03 0.  0.
<mgrwt>
<rscale>  0 0.51329839E+03</rscale>
<asrwt>0</asrwt>
<pdfrwt beam="1">  1        1 0.17385635E+00 0.51329839E+03</pdfrwt>
<pdfrwt beam="2">  1       -1 0.76392743E-01 0.51329839E+03</pdfrwt>
<totfact> 0.22088596E+01</totfact>
</mgrwt>
</event>
<event>
 4    1  0.8749406E-009  0.1566115E+03  0.7818608E-02  0.1192576E+00
         -1   -1    0    0    0  501 -0.00000000000E+00  0.00000000000E+00  0.63810781510E+03  0.63810781512E+03  0.50400000000E-02 0.  1.
          1   -1    0    0  501    0  0.00000000000E+00 -0.00000000000E+00 -0.55527402138E+03  0.55527402140E+03  0.50400000000E-02 0. -1.
    8880022    1    1    2    0    0 -0.19198619581E+02  0.27693346549E+02  0.61708533390E+03  0.63664862426E+03  0.15294330000E+03 0.  0.
    8880022    1    1    2    0    0  0.19198619581E+02 -0.27693346549E+02 -0.53425154018E+03  0.55673321226E+03  0.15294330000E+03 0. -1.
<mgrwt>
<rscale>  0 0.15661150E+03</rscale>
<asrwt>0</asrwt>
<pdfrwt beam="1">  1        1 0.85426772E-01 0.15661150E+03</pdfrwt>
<pdfrwt beam="2">  1       -1 0.98170433E-01 0.15661150E+03</pdfrwt>
<totfact> 0.43374234E+01</totfact>
</mgrwt>
</event>
<event>
 4    1  0.8749406E-009  0.2525305E+03  0.7818608E-02  0.1111716E+00
          1   -1    0    0  501    0  0.00000000000E+00  0.00000000000E+00  0.32902520428E+04  0.32902520428E+04  0.50400000000E-02 0. -1.
         -1   -1    0    0    0  501 -0.00000000000E+00 -0.00000000000E+00 -0.57272807899E+02  0.57272808121E+02  0.50400000000E-02 0.  1.
    8880022    1    1    2    0    0  0.19625601149E+03  0.43169281792E+02  0.25508720894E+03  0.35894448891E+03  0.15294330000E+03 0.  1.
    8880022    1    1    2    0    0 -0.19625601149E+03 -0.43169281792E+02  0.29778920260E+04  0.29885803620E+04  0.15294330000E+03 0.  0.
<mgrwt>
<rscale>  0 0.25253052E+03</rscale>
<asrwt>0</asrwt>
<pdfrwt beam="1">  1        1 0.50619266E+00 0.25253052E+03</pdfrwt>
<pdfrwt beam="2">  1       -1 0.88112005E-02 0.25253052E+03</pdfrwt>
<totfact> 0.33624873E+01</totfact>
</mgrwt>
</event>
<event>
 4    1  0.8749406E-009  0.5242335E+03  0.7818608E-02  0.1007640E+00
          1   -1    0    0  501    0  0.00000000000E+00  0.00000000000E+00  0.19070224582E+04  0.19070224582E+04  0.50400000000E-02 0. -1.
         -1   -1    0    0    0  501 -0.00000000000E+00 -0.00000000000E+00 -0.31616651564E+03  0.31616651568E+03  0.50400000000E-02 0.  1.
    8880022    1    1    2    0    0 -0.14231982407E+03 -0.48080576392E+03 -0.24591504808E+02  0.52480997520E+03  0.15294330000E+03 0.  1.
    8880022    1    1    2    0    0  0.14231982407E+03  0.48080576392E+03  0.16154474473E+04  0.16983789987E+04  0.15294330000E+03 0.  0.
<mgrwt>
<rscale>  0 0.52423351E+03</rscale>
<asrwt>0</asrwt>
<pdfrwt beam="1">  1        1 0.29338808E+00 0.52423351E+03</pdfrwt>
<pdfrwt beam="2">  1       -1 0.48641002E-01 0.52423351E+03</pdfrwt>
<totfact> 0.15796491E+01</totfact>
</mgrwt>
</event>
<event>
 4    1  0.8749406E-009  0.9302142E+03  0.7818608E-02  0.9388581E-01
          1   -1    0    0  501    0  0.00000000000E+00  0.00000000000E+00  0.14742028537E+04  0.14742028537E+04  0.50400000000E-02 0. -1.
         -1   -1    0    0    0  501 -0.00000000000E+00 -0.00000000000E+00 -0.68869378518E+03  0.68869378520E+03  0.50400000000E-02 0.  1.
    8880022    1    1    2    0    0 -0.69964227485E+03 -0.59363921089E+03 -0.22892563188E+02  0.93049586132E+03  0.15294330000E+03 0.  0.
    8880022    1    1    2    0    0  0.69964227485E+03  0.59363921089E+03  0.80840163175E+03  0.12324007776E+04  0.15294330000E+03 0.  0.
<mgrwt>
<rscale>  0 0.93021421E+03</rscale>
<asrwt>0</asrwt>
<pdfrwt beam="1">  1        1 0.22680044E+00 0.93021421E+03</pdfrwt>
<pdfrwt beam="2">  1       -1 0.10595289E+00 0.93021421E+03</pdfrwt>
<totfact> 0.57629058E+00</totfact>
</mgrwt>
</event>
<event>
 4    1  0.8749406E-009  0.5888345E+03  0.7818608E-02  0.9928846E-01
          1   -1    0    0  501    0  0.00000000000E+00  0.00000000000E+00  0.22831200326E+03  0.22831200331E+03  0.50400000000E-02 0. -1.
         -1   -1    0    0    0  501 -0.00000000000E+00 -0.00000000000E+00 -0.16388355278E+04  0.16388355278E+04  0.50400000000E-02 0.  1.
    8880022    1    1    2    0    0 -0.38339316750E+03  0.41993337098E+03 -0.95807927305E+03  0.11245629833E+04  0.15294330000E+03 0.  0.
    8880022    1    1    2    0    0  0.38339316750E+03 -0.41993337098E+03 -0.45244425151E+03  0.74258454784E+03  0.15294330000E+03 0.  0.
<mgrwt>
<rscale>  0 0.58883445E+03</rscale>
<asrwt>0</asrwt>
<pdfrwt beam="1">  1        1 0.35124925E-01 0.58883445E+03</pdfrwt>
<pdfrwt beam="2">  1       -1 0.25212854E+00 0.58883445E+03</pdfrwt>
<totfact> 0.89515590E+00</totfact>
</mgrwt>
</event>
<event>
 4    1  0.8749406E-009  0.5638581E+03  0.7818608E-02  0.9983363E-01
          1   -1    0    0  501    0  0.00000000000E+00  0.00000000000E+00  0.14345197448E+04  0.14345197448E+04  0.50400000000E-02 0. -1.
         -1   -1    0    0    0  501 -0.00000000000E+00 -0.00000000000E+00 -0.28053267703E+03  0.28053267707E+03  0.50400000000E-02 0.  1.
    8880022    1    1    2    0    0 -0.30084777610E+03 -0.45170224626E+03  0.96992299628E+03  0.11219120177E+04  0.15294330000E+03 0.  0.
    8880022    1    1    2    0    0  0.30084777610E+03  0.45170224626E+03  0.18406407147E+03  0.59314040419E+03  0.15294330000E+03 0.  0.
<mgrwt>
<rscale>  0 0.56385810E+03</rscale>
<asrwt>0</asrwt>
<pdfrwt beam="1">  1        1 0.22069534E+00 0.56385810E+03</pdfrwt>
<pdfrwt beam="2">  1       -1 0.43158874E-01 0.56385810E+03</pdfrwt>
<totfact> 0.40568342E+01</totfact>
</mgrwt>
</event>
<event>
 4    1  0.8749406E-009  0.5455482E+03  0.7818608E-02  0.1002530E+00
         -1   -1    0    0    0  501 -0.00000000000E+00  0.00000000000E+00  0.58142176360E+03  0.58142176362E+03  0.50400000000E-02 0.  1.
          1   -1    0    0  501    0  0.00000000000E+00 -0.00000000000E+00 -0.26986141685E+04  0.26986141685E+04  0.50400000000E-02 0. -1.
    8880022    1    1    2    0    0 -0.43924769546E+03  0.28511865910E+03 -0.25348988743E+04  0.25929394794E+04  0.15294330000E+03 0.  0.
    8880022    1    1    2    0    0  0.43924769546E+03 -0.28511865910E+03  0.41770646942E+03  0.68709645273E+03  0.15294330000E+03 0.  0.
<mgrwt>
<rscale>  0 0.54554820E+03</rscale>
<asrwt>0</asrwt>
<pdfrwt beam="1">  1        1 0.41517140E+00 0.54554820E+03</pdfrwt>
<pdfrwt beam="2">  1       -1 0.89449503E-01 0.54554820E+03</pdfrwt>
<totfact> 0.13585347E+00</totfact>
</mgrwt>
</event>
<event>
 4    1  0.8749406E-009  0.2628443E+03  0.7818608E-02  0.1105446E+00
          1   -1    0    0  501    0  0.00000000000E+00  0.00000000000E+00  0.24974354239E+04  0.24974354239E+04  0.50400000000E-02 0. -1.
         -1   -1    0    0    0  501 -0.00000000000E+00 -0.00000000000E+00 -0.11173407220E+03  0.11173407231E+03  0.50400000000E-02 0.  1.
    8880022    1    1    2    0    0 -0.13989646142E+03  0.16163056010E+03  0.61226537416E+02  0.26988108451E+03  0.15294330000E+03 0.  0.
    8880022    1    1    2    0    0  0.13989646142E+03 -0.16163056010E+03  0.23244748142E+04  0.23392884117E+04  0.15294330000E+03 0.  0.
<mgrwt>
<rscale>  0 0.26284427E+03</rscale>
<asrwt>0</asrwt>
<pdfrwt beam="1">  1        1 0.38422087E+00 0.26284427E+03</pdfrwt>
<pdfrwt beam="2">  1       -1 0.17189856E-01 0.26284427E+03</pdfrwt>
<totfact> 0.41473060E+01</totfact>
</mgrwt>
</event>
<event>
 4    1  0.8749406E-009  0.5186174E+03  0.7818608E-02  0.1009031E+00
          1   -1    0    0  501    0  0.00000000000E+00  0.00000000000E+00  0.23595336716E+04  0.23595336716E+04  0.50400000000E-02 0. -1.
         -1   -1    0    0    0  501 -0.00000000000E+00 -0.00000000000E+00 -0.85449657787E+03  0.85449657789E+03  0.50400000000E-02 0.  1.
    8880022    1    1    2    0    0 -0.40194894006E+03 -0.28984367594E+03 -0.74347311048E+03  0.90648564573E+03  0.15294330000E+03 0.  1.
    8880022    1    1    2    0    0  0.40194894006E+03  0.28984367594E+03  0.22485102042E+04  0.23075446038E+04  0.15294330000E+03 0.  0.
<mgrwt>
<rscale>  0 0.51861735E+03</rscale>
<asrwt>0</asrwt>
<pdfrwt beam="1">  1        1 0.36300517E+00 0.51861735E+03</pdfrwt>
<pdfrwt beam="2">  1       -1 0.13146101E+00 0.51861735E+03</pdfrwt>
<totfact> 0.94710427E-01</totfact>
</mgrwt>
</event>
<event>
 4    1  0.8749406E-009  0.4696863E+03  0.7818608E-02  0.1022009E+00
         -1   -1    0    0    0  501 -0.00000000000E+00  0.00000000000E+00  0.10748378530E+04  0.10748378530E+04  0.50400000000E-02 0.  1.
          1   -1    0    0  501    0  0.00000000000E+00 -0.00000000000E+00 -0.94741528987E+03  0.94741528988E+03  0.50400000000E-02 0. -1.
    8880022    1    1    2    0    0 -0.13290986599E+03  0.42373165731E+03 -0.83121462813E+03  0.95473711614E+03  0.15294330000E+03 0. -1.
    8880022    1    1    2    0    0  0.13290986599E+03 -0.42373165731E+03  0.95863719127E+03  0.10675160268E+04  0.15294330000E+03 0.  0.
<mgrwt>
<rscale>  0 0.46968628E+03</rscale>
<asrwt>0</asrwt>
<pdfrwt beam="1">  1        1 0.14575620E+00 0.46968628E+03</pdfrwt>
<pdfrwt beam="2">  1       -1 0.16535967E+00 0.46968628E+03</pdfrwt>
<totfact> 0.48624471E+00</totfact>
</mgrwt>
</event>
<event>
 4    1  0.8749406E-009  0.6581015E+03  0.7818608E-02  0.9791695E-01
          1   -1    0    0  501    0  0.00000000000E+00  0.00000000000E+00  0.16470935373E+04  0.16470935373E+04  0.50400000000E-02 0. -1.
         -1   -1    0    0    0  501 -0.00000000000E+00 -0.00000000000E+00 -0.47199424872E+03  0.47199424875E+03  0.50400000000E-02 0.  1.
    8880022    1    1    2    0    0  0.61513139602E+02  0.63712009600E+03  0.12926863330E+04  0.14505638530E+04  0.15294330000E+03 0. -1.
    8880022    1    1    2    0    0 -0.61513139602E+02 -0.63712009600E+03 -0.11758704440E+03  0.66852393308E+03  0.15294330000E+03 0.  0.
<mgrwt>
<rscale>  0 0.65810146E+03</rscale>
<asrwt>0</asrwt>
<pdfrwt beam="1">  1        1 0.25339901E+00 0.65810146E+03</pdfrwt>
<pdfrwt beam="2">  1       -1 0.72614500E-01 0.65810146E+03</pdfrwt>
<totfact> 0.10462201E+01</totfact>
</mgrwt>
</event>
<event>
 4    1  0.8749406E-009  0.6348590E+03  0.7818608E-02  0.9835612E-01
          1   -1    0    0  501    0  0.00000000000E+00  0.00000000000E+00  0.58286678155E+03  0.58286678158E+03  0.50400000000E-02 0. -1.
         -1   -1    0    0    0  501 -0.00000000000E+00 -0.00000000000E+00 -0.71850864121E+03  0.71850864122E+03  0.50400000000E-02 0.  1.
    8880022    1    1    2    0    0 -0.57047925881E+03 -0.23282554754E+03 -0.19400261452E+03  0.66383957985E+03  0.15294330000E+03 0.  0.
    8880022    1    1    2    0    0  0.57047925881E+03  0.23282554754E+03  0.58360754866E+02  0.63753584295E+03  0.15294330000E+03 0.  0.
<mgrwt>
<rscale>  0 0.63485902E+03</rscale>
<asrwt>0</asrwt>
<pdfrwt beam="1">  1        1 0.89671812E-01 0.63485902E+03</pdfrwt>
<pdfrwt beam="2">  1       -1 0.11053979E+00 0.63485902E+03</pdfrwt>
<totfact> 0.27956330E+01</totfact>
</mgrwt>
</event>
<event>
 4    1  0.8749406E-009  0.2711841E+03  0.7818608E-02  0.1100604E+00
          1   -1    0    0  501    0  0.00000000000E+00  0.00000000000E+00  0.10341416830E+04  0.10341416830E+04  0.50400000000E-02 0. -1.
         -1   -1    0    0    0  501 -0.00000000000E+00 -0.00000000000E+00 -0.36190846706E+03  0.36190846709E+03  0.50400000000E-02 0.  1.
    8880022    1    1    2    0    0  0.16519455642E+03 -0.15119495922E+03  0.96181573034E+03  0.99931491998E+03  0.15294330000E+03 0. -1.
    8880022    1    1    2    0    0 -0.16519455642E+03  0.15119495922E+03 -0.28958251439E+03  0.39673523012E+03  0.15294330000E+03 0.  0.
<mgrwt>
<rscale>  0 0.27118409E+03</rscale>
<asrwt>0</asrwt>
<pdfrwt beam="1">  1        1 0.15909872E+00 0.27118409E+03</pdfrwt>
<pdfrwt beam="2">  1       -1 0.55678227E-01 0.27118409E+03</pdfrwt>
<totfact> 0.51391659E+01</totfact>
</mgrwt>
</event>
<event>
 4    1  0.8749406E-009  0.1232605E+04  0.7818608E-02  0.9084787E-01
          1   -1    0    0  501    0  0.00000000000E+00  0.00000000000E+00  0.21607964050E+04  0.21607964050E+04  0.50400000000E-02 0. -1.
         -1   -1    0    0    0  501 -0.00000000000E+00 -0.00000000000E+00 -0.77065994355E+03  0.77065994356E+03  0.50400000000E-02 0.  1.
    8880022    1    1    2    0    0  0.97601897620E+03  0.73709547951E+03  0.11289582537E+04  0.16714847231E+04  0.15294330000E+03 0.  0.
    8880022    1    1    2    0    0 -0.97601897620E+03 -0.73709547951E+03  0.26117820773E+03  0.12599716255E+04  0.15294330000E+03 0.  0.
<mgrwt>
<rscale>  0 0.12326047E+04</rscale>
<asrwt>0</asrwt>
<pdfrwt beam="1">  1        1 0.33243021E+00 0.12326047E+04</pdfrwt>
<pdfrwt beam="2">  1       -1 0.11856307E+00 0.12326047E+04</pdfrwt>
<totfact> 0.14504198E+00</totfact>
</mgrwt>
</event>
<event>
 4    1  0.8749406E-009  0.5841732E+03  0.7818608E-02  0.9938797E-01
          1   -1    0    0  501    0  0.00000000000E+00  0.00000000000E+00  0.10447894131E+04  0.10447894131E+04  0.50400000000E-02 0. -1.
         -1   -1    0    0    0  501 -0.00000000000E+00 -0.00000000000E+00 -0.41664164104E+03  0.41664164107E+03  0.50400000000E-02 0.  1.
    8880022    1    1    2    0    0 -0.15105260135E+03  0.54318482795E+03 -0.25566452668E+02  0.58473236802E+03  0.15294330000E+03 0.  0.
    8880022    1    1    2    0    0  0.15105260135E+03 -0.54318482795E+03  0.65371422473E+03  0.87669868617E+03  0.15294330000E+03 0.  0.
<mgrwt>
<rscale>  0 0.58417318E+03</rscale>
<asrwt>0</asrwt>
<pdfrwt beam="1">  1        1 0.16073683E+00 0.58417318E+03</pdfrwt>
<pdfrwt beam="2">  1       -1 0.64098715E-01 0.58417318E+03</pdfrwt>
<totfact> 0.36111786E+01</totfact>
</mgrwt>
</event>
<event>
 4    1  0.8749406E-009  0.1455826E+04  0.7818608E-02  0.8914372E-01
          1   -1    0    0  501    0  0.00000000000E+00  0.00000000000E+00  0.11249904093E+04  0.11249904093E+04  0.50400000000E-02 0. -1.
         -1   -1    0    0    0  501 -0.00000000000E+00 -0.00000000000E+00 -0.23529752252E+04  0.23529752252E+04  0.50400000000E-02 0.  1.
    8880022    1    1    2    0    0  0.98088740066E+03  0.10648460285E+04  0.16240383710E+03  0.14648562444E+04  0.15294330000E+03 0.  0.
    8880022    1    1    2    0    0 -0.98088740066E+03 -0.10648460285E+04 -0.13903886530E+04  0.20131093901E+04  0.15294330000E+03 0.  0.
<mgrwt>
<rscale>  0 0.14558258E+04</rscale>
<asrwt>0</asrwt>
<pdfrwt beam="1">  1        1 0.17307545E+00 0.14558258E+04</pdfrwt>
<pdfrwt beam="2">  1       -1 0.36199619E+00 0.14558258E+04</pdfrwt>
<totfact> 0.15003560E-01</totfact>
</mgrwt>
</event>
<event>
 4    1  0.8749406E-009  0.6884973E+03  0.7818608E-02  0.9737108E-01
          1   -1    0    0  501    0  0.00000000000E+00  0.00000000000E+00  0.14338295050E+04  0.14338295050E+04  0.50400000000E-02 0. -1.
         -1   -1    0    0    0  501 -0.00000000000E+00 -0.00000000000E+00 -0.13184805821E+04  0.13184805822E+04  0.50400000000E-02 0.  1.
    8880022    1    1    2    0    0 -0.30036484407E+03  0.60034813991E+03 -0.11335182419E+04  0.13262323274E+04  0.15294330000E+03 0.  0.
    8880022    1    1    2    0    0  0.30036484407E+03 -0.60034813991E+03  0.12488671647E+04  0.14260777597E+04  0.15294330000E+03 0. -1.
<mgrwt>
<rscale>  0 0.68849734E+03</rscale>
<asrwt>0</asrwt>
<pdfrwt beam="1">  1        1 0.22058915E+00 0.68849734E+03</pdfrwt>
<pdfrwt beam="2">  1       -1 0.20284317E+00 0.68849734E+03</pdfrwt>
<totfact> 0.11152366E+00</totfact>
</mgrwt>
</event>
<event>
 4    1  0.8749406E-009  0.1315582E+04  0.7818608E-02  0.9017299E-01
          1   -1    0    0  501    0  0.00000000000E+00  0.00000000000E+00  0.30263058445E+04  0.30263058445E+04  0.50400000000E-02 0. -1.
         -1   -1    0    0    0  501 -0.00000000000E+00 -0.00000000000E+00 -0.15137426040E+04  0.15137426040E+04  0.50400000000E-02 0.  1.
    8880022    1    1    2    0    0 -0.10666069538E+04  0.75479482635E+03 -0.10342939414E+04  0.16734757943E+04  0.15294330000E+03 0.  0.
    8880022    1    1    2    0    0  0.10666069538E+04 -0.75479482635E+03  0.25468571819E+04  0.28665726542E+04  0.15294330000E+03 0.  0.
<mgrwt>
<rscale>  0 0.13155825E+04</rscale>
<asrwt>0</asrwt>
<pdfrwt beam="1">  1        1 0.46558552E+00 0.13155825E+04</pdfrwt>
<pdfrwt beam="2">  1       -1 0.23288348E+00 0.13155825E+04</pdfrwt>
<totfact> 0.50260456E-02</totfact>
</mgrwt>
</event>
<event>
 4    1  0.8749406E-009  0.1327961E+04  0.7818608E-02  0.9007681E-01
          1   -1    0    0  501    0  0.00000000000E+00  0.00000000000E+00  0.16312672938E+04  0.16312672938E+04  0.50400000000E-02 0. -1.
         -1   -1    0    0    0  501 -0.00000000000E+00 -0.00000000000E+00 -0.17387515666E+04  0.17387515666E+04  0.50400000000E-02 0.  1.
    8880022    1    1    2    0    0 -0.99567554688E+03  0.86528612480E+03  0.98258770325E+03  0.16519564522E+04  0.15294330000E+03 0.  0.
    8880022    1    1    2    0    0  0.99567554688E+03 -0.86528612480E+03 -0.10900719760E+04  0.17180624082E+04  0.15294330000E+03 0.  0.
<mgrwt>
<rscale>  0 0.13279614E+04</rscale>
<asrwt>0</asrwt>
<pdfrwt beam="1">  1        1 0.25096420E+00 0.13279614E+04</pdfrwt>
<pdfrwt beam="2">  1       -1 0.26750024E+00 0.13279614E+04</pdfrwt>
<totfact> 0.27485854E-01</totfact>
</mgrwt>
</event>
<event>
 4    1  0.8749406E-009  0.7211331E+03  0.7818608E-02  0.9681759E-01
         -1   -1    0    0    0  501 -0.00000000000E+00  0.00000000000E+00  0.65383035804E+03  0.65383035806E+03  0.50400000000E-02 0.  1.
          1   -1    0    0  501    0  0.00000000000E+00 -0.00000000000E+00 -0.25645673952E+04  0.25645673952E+04  0.50400000000E-02 0. -1.
    8880022    1    1    2    0    0  0.47581572885E+03  0.51984680576E+03 -0.22919381088E+04  0.24027095656E+04  0.15294330000E+03 0.  0.
    8880022    1    1    2    0    0 -0.47581572885E+03 -0.51984680576E+03  0.38120107169E+03  0.81568818757E+03  0.15294330000E+03 0.  0.
<mgrwt>
<rscale>  0 0.72113311E+03</rscale>
<asrwt>0</asrwt>
<pdfrwt beam="1">  1        1 0.39454882E+00 0.72113311E+03</pdfrwt>
<pdfrwt beam="2">  1       -1 0.10058929E+00 0.72113311E+03</pdfrwt>
<totfact> 0.12344340E+00</totfact>
</mgrwt>
</event>
<event>
 4    1  0.8749406E-009  0.1320505E+04  0.7818608E-02  0.9013460E-01
          1   -1    0    0  501    0  0.00000000000E+00  0.00000000000E+00  0.24126444913E+04  0.24126444913E+04  0.50400000000E-02 0. -1.
         -1   -1    0    0    0  501 -0.00000000000E+00 -0.00000000000E+00 -0.90692993248E+03  0.90692993249E+03  0.50400000000E-02 0.  1.
    8880022    1    1    2    0    0 -0.78918692291E+03 -0.10476291356E+04  0.15008352820E+04  0.19990600296E+04  0.15294330000E+03 0.  0.
    8880022    1    1    2    0    0  0.78918692291E+03  0.10476291356E+04  0.48792768042E+01  0.13205143942E+04  0.15294330000E+03 0.  0.
<mgrwt>
<rscale>  0 0.13205054E+04</rscale>
<asrwt>0</asrwt>
<pdfrwt beam="1">  1        1 0.37117607E+00 0.13205054E+04</pdfrwt>
<pdfrwt beam="2">  1       -1 0.13952768E+00 0.13205054E+04</pdfrwt>
<totfact> 0.63943918E-01</totfact>
</mgrwt>
</event>
<event>
 4    1  0.8749406E-009  0.1182213E+04  0.7818608E-02  0.9128569E-01
          1   -1    0    0  501    0  0.00000000000E+00  0.00000000000E+00  0.23143284486E+04  0.23143284486E+04  0.50400000000E-02 0. -1.
         -1   -1    0    0    0  501 -0.00000000000E+00 -0.00000000000E+00 -0.11449116244E+04  0.11449116244E+04  0.50400000000E-02 0.  1.
    8880022    1    1    2    0    0  0.41385142465E+03  0.10967967735E+04  0.17736682356E+04  0.21315550256E+04  0.15294330000E+03 0.  0.
    8880022    1    1    2    0    0 -0.41385142465E+03 -0.10967967735E+04 -0.60425141136E+03  0.13276850475E+04  0.15294330000E+03 0.  0.
<mgrwt>
<rscale>  0 0.11822131E+04</rscale>
<asrwt>0</asrwt>
<pdfrwt beam="1">  1        1 0.35605053E+00 0.11822131E+04</pdfrwt>
<pdfrwt beam="2">  1       -1 0.17614025E+00 0.11822131E+04</pdfrwt>
<totfact> 0.39845164E-01</totfact>
</mgrwt>
</event>
<event>
 4    1  0.8749406E-009  0.1473016E+04  0.7818608E-02  0.8902598E-01
          1   -1    0    0  501    0  0.00000000000E+00  0.00000000000E+00  0.16263967873E+04  0.16263967873E+04  0.50400000000E-02 0. -1.
         -1   -1    0    0    0  501 -0.00000000000E+00 -0.00000000000E+00 -0.17261597268E+04  0.17261597268E+04  0.50400000000E-02 0.  1.
    8880022    1    1    2    0    0 -0.13378188292E+04  0.59718048486E+03  0.74899922362E+03  0.16525057462E+04  0.15294330000E+03 0.  0.
    8880022    1    1    2    0    0  0.13378188292E+04 -0.59718048486E+03 -0.84876216311E+03  0.17000507680E+04  0.15294330000E+03 0.  0.
<mgrwt>
<rscale>  0 0.14730158E+04</rscale>
<asrwt>0</asrwt>
<pdfrwt beam="1">  1        1 0.25021489E+00 0.14730158E+04</pdfrwt>
<pdfrwt beam="2">  1       -1 0.26556303E+00 0.14730158E+04</pdfrwt>
<totfact> 0.28003912E-01</totfact>
</mgrwt>
</event>
<event>
 4    1  0.8749406E-009  0.1323811E+04  0.7818608E-02  0.9010893E-01
         -1   -1    0    0    0  501 -0.00000000000E+00  0.00000000000E+00  0.10254757274E+04  0.10254757274E+04  0.50400000000E-02 0.  1.
          1   -1    0    0  501    0  0.00000000000E+00 -0.00000000000E+00 -0.23163908457E+04  0.23163908457E+04  0.50400000000E-02 0. -1.
    8880022    1    1    2    0    0  0.12661972845E+04  0.35472182931E+03 -0.15011335626E+04  0.20014686520E+04  0.15294330000E+03 0.  0.
    8880022    1    1    2    0    0 -0.12661972845E+04 -0.35472182931E+03  0.21021844434E+03  0.13403979210E+04  0.15294330000E+03 0.  0.
<mgrwt>
<rscale>  0 0.13238107E+04</rscale>
<asrwt>0</asrwt>
<pdfrwt beam="1">  1        1 0.35636782E+00 0.13238107E+04</pdfrwt>
<pdfrwt beam="2">  1       -1 0.15776550E+00 0.13238107E+04</pdfrwt>
<totfact> 0.53395478E-01</totfact>
</mgrwt>
</event>
<event>
 4    1  0.8749406E-009  0.4402136E+03  0.7818608E-02  0.1030681E+00
         -1   -1    0    0    0  501 -0.00000000000E+00  0.00000000000E+00  0.16869925140E+04  0.16869925140E+04  0.50400000000E-02 0.  1.
          1   -1    0    0  501    0  0.00000000000E+00 -0.00000000000E+00 -0.10960577123E+04  0.10960577123E+04  0.50400000000E-02 0. -1.
    8880022    1    1    2    0    0  0.39142102981E+03 -0.13109518897E+03 -0.10211208306E+04  0.11119693228E+04  0.15294330000E+03 0.  0.
    8880022    1    1    2    0    0 -0.39142102981E+03  0.13109518897E+03  0.16120556323E+04  0.16710809035E+04  0.15294330000E+03 0.  0.
<mgrwt>
<rscale>  0 0.44021361E+03</rscale>
<asrwt>0</asrwt>
<pdfrwt beam="1">  1        1 0.16862426E+00 0.44021361E+03</pdfrwt>
<pdfrwt beam="2">  1       -1 0.25953731E+00 0.44021361E+03</pdfrwt>
<totfact> 0.88528505E-01</totfact>
</mgrwt>
</event>
<event>
 4    1  0.8749406E-009  0.3473743E+03  0.7818608E-02  0.1063698E+00
          1   -1    0    0  501    0  0.00000000000E+00  0.00000000000E+00  0.85955117701E+03  0.85955117702E+03  0.50400000000E-02 0. -1.
         -1   -1    0    0    0  501 -0.00000000000E+00 -0.00000000000E+00 -0.31423812731E+03  0.31423812735E+03  0.50400000000E-02 0.  1.
    8880022    1    1    2    0    0  0.26190227132E+03  0.16936487567E+03  0.70919323647E+03  0.78969865171E+03  0.15294330000E+03 0. -1.
    8880022    1    1    2    0    0 -0.26190227132E+03 -0.16936487567E+03 -0.16388018678E+03  0.38409065267E+03  0.15294330000E+03 0.  0.
<mgrwt>
<rscale>  0 0.34737431E+03</rscale>
<asrwt>0</asrwt>
<pdfrwt beam="1">  1        1 0.13223864E+00 0.34737431E+03</pdfrwt>
<pdfrwt beam="2">  1       -1 0.48344328E-01 0.34737431E+03</pdfrwt>
<totfact> 0.89878066E+01</totfact>
</mgrwt>
</event>
<event>
 4    1  0.8749406E-009  0.8472087E+03  0.7818608E-02  0.9494091E-01
         -1   -1    0    0    0  501 -0.00000000000E+00  0.00000000000E+00  0.42243025783E+03  0.42243025786E+03  0.50400000000E-02 0.  1.
          1   -1    0    0  501    0  0.00000000000E+00 -0.00000000000E+00 -0.30272566689E+04  0.30272566689E+04  0.50400000000E-02 0. -1.
    8880022    1    1    2    0    0 -0.81525451696E+03  0.17242684797E+03 -0.24448845785E+04  0.25875129372E+04  0.15294330000E+03 0. -1.
    8880022    1    1    2    0    0  0.81525451696E+03 -0.17242684797E+03 -0.15994183256E+03  0.86217398949E+03  0.15294330000E+03 0.  0.
<mgrwt>
<rscale>  0 0.84720871E+03</rscale>
<asrwt>0</asrwt>
<pdfrwt beam="1">  1        1 0.46573178E+00 0.84720871E+03</pdfrwt>
<pdfrwt beam="2">  1       -1 0.64989272E-01 0.84720871E+03</pdfrwt>
<totfact> 0.14475773E+00</totfact>
</mgrwt>
</event>
<event>
 4    1  0.8749406E-009  0.5574651E+03  0.7818608E-02  0.9997807E-01
         -1   -1    0    0    0  501 -0.00000000000E+00  0.00000000000E+00  0.11420926059E+04  0.11420926059E+04  0.50400000000E-02 0.  1.
          1   -1    0    0  501    0  0.00000000000E+00 -0.00000000000E+00 -0.98070214205E+03  0.98070214206E+03  0.50400000000E-02 0. -1.
    8880022    1    1    2    0    0  0.10279267658E+02  0.53597573610E+03 -0.82151890677E+03  0.99280442194E+03  0.15294330000E+03 0.  0.
    8880022    1    1    2    0    0 -0.10279267658E+02 -0.53597573610E+03  0.98290937059E+03  0.11299903260E+04  0.15294330000E+03 0.  0.
<mgrwt>
<rscale>  0 0.55746507E+03</rscale>
<asrwt>0</asrwt>
<pdfrwt beam="1">  1        1 0.15087725E+00 0.55746507E+03</pdfrwt>
<pdfrwt beam="2">  1       -1 0.17570655E+00 0.55746507E+03</pdfrwt>
<totfact> 0.37742610E+00</totfact>
</mgrwt>
</event>
<event>
 4    1  0.8749406E-009  0.7453803E+03  0.7818608E-02  0.9642626E-01
          1   -1    0    0  501    0  0.00000000000E+00  0.00000000000E+00  0.25737547101E+04  0.25737547102E+04  0.50400000000E-02 0. -1.
         -1   -1    0    0    0  501 -0.00000000000E+00 -0.00000000000E+00 -0.46543511948E+03  0.46543511951E+03  0.50400000000E-02 0.  1.
    8880022    1    1    2    0    0 -0.46422963257E+03 -0.56275303150E+03  0.21668948544E+04  0.22915115293E+04  0.15294330000E+03 0.  0.
    8880022    1    1    2    0    0  0.46422963257E+03  0.56275303150E+03 -0.58575263705E+02  0.74767830031E+03  0.15294330000E+03 0.  0.
<mgrwt>
<rscale>  0 0.74538029E+03</rscale>
<asrwt>0</asrwt>
<pdfrwt beam="1">  1        1 0.39596226E+00 0.74538029E+03</pdfrwt>
<pdfrwt beam="2">  1       -1 0.71605403E-01 0.74538029E+03</pdfrwt>
<totfact> 0.25245764E+00</totfact>
</mgrwt>
</event>
<event>
 4    1  0.8749406E-009  0.7415406E+03  0.7818608E-02  0.9648716E-01
          1   -1    0    0  501    0  0.00000000000E+00  0.00000000000E+00  0.15608639199E+04  0.15608639199E+04  0.50400000000E-02 0. -1.
         -1   -1    0    0    0  501 -0.00000000000E+00 -0.00000000000E+00 -0.71138112859E+03  0.71138112861E+03  0.50400000000E-02 0.  1.
    8880022    1    1    2    0    0 -0.59870232842E+03 -0.40993459784E+03  0.12319283016E+04  0.14378907628E+04  0.15294330000E+03 0.  0.
    8880022    1    1    2    0    0  0.59870232842E+03  0.40993459784E+03 -0.38244551033E+03  0.83435428563E+03  0.15294330000E+03 0.  0.
<mgrwt>
<rscale>  0 0.74154063E+03</rscale>
<asrwt>0</asrwt>
<pdfrwt beam="1">  1        1 0.24013291E+00 0.74154063E+03</pdfrwt>
<pdfrwt beam="2">  1       -1 0.10944325E+00 0.74154063E+03</pdfrwt>
<totfact> 0.47901544E+00</totfact>
</mgrwt>
</event>
<event>
 4    1  0.8749406E-009  0.9021302E+03  0.7818608E-02  0.9422923E-01
         -1   -1    0    0    0  501 -0.00000000000E+00  0.00000000000E+00  0.14274059226E+04  0.14274059226E+04  0.50400000000E-02 0.  1.
          1   -1    0    0  501    0  0.00000000000E+00 -0.00000000000E+00 -0.81471886711E+03  0.81471886713E+03  0.50400000000E-02 0. -1.
    8880022    1    1    2    0    0 -0.26899006683E+03 -0.84740283024E+03 -0.30787707802E+03  0.95321936664E+03  0.15294330000E+03 0.  0.
    8880022    1    1    2    0    0  0.26899006683E+03  0.84740283024E+03  0.92056413347E+03  0.12889054231E+04  0.15294330000E+03 0.  0.
<mgrwt>
<rscale>  0 0.90213018E+03</rscale>
<asrwt>0</asrwt>
<pdfrwt beam="1">  1        1 0.12534136E+00 0.90213018E+03</pdfrwt>
<pdfrwt beam="2">  1       -1 0.21960091E+00 0.90213018E+03</pdfrwt>
<totfact> 0.24208696E+00</totfact>
</mgrwt>
</event>
<event>
 4    1  0.8749406E-009  0.1268105E+04  0.7818608E-02  0.9055248E-01
          1   -1    0    0  501    0  0.00000000000E+00  0.00000000000E+00  0.22080220177E+04  0.22080220177E+04  0.50400000000E-02 0. -1.
         -1   -1    0    0    0  501 -0.00000000000E+00 -0.00000000000E+00 -0.21138145171E+04  0.21138145172E+04  0.50400000000E-02 0.  1.
    8880022    1    1    2    0    0 -0.85148706047E+02 -0.12559650246E+04  0.17965931635E+04  0.21990536813E+04  0.15294330000E+03 0.  0.
    8880022    1    1    2    0    0  0.85148706047E+02  0.12559650246E+04 -0.17023856629E+04  0.21227828536E+04  0.15294330000E+03 0.  0.
<mgrwt>
<rscale>  0 0.12681049E+04</rscale>
<asrwt>0</asrwt>
<pdfrwt beam="1">  1        1 0.33969569E+00 0.12681049E+04</pdfrwt>
<pdfrwt beam="2">  1       -1 0.32520223E+00 0.12681049E+04</pdfrwt>
<totfact> 0.47593624E-02</totfact>
</mgrwt>
</event>
<event>
 4    1  0.8749406E-009  0.7876550E+03  0.7818608E-02  0.9578060E-01
         -1   -1    0    0    0  501 -0.00000000000E+00  0.00000000000E+00  0.37627822615E+03  0.37627822619E+03  0.50400000000E-02 0.  1.
          1   -1    0    0  501    0  0.00000000000E+00 -0.00000000000E+00 -0.24273937978E+04  0.24273937978E+04  0.50400000000E-02 0. -1.
    8880022    1    1    2    0    0 -0.65378531765E+02  0.76989244624E+03 -0.18194981217E+04  0.19826683533E+04  0.15294330000E+03 0.  0.
    8880022    1    1    2    0    0  0.65378531765E+02 -0.76989244624E+03 -0.23161744994E+03  0.82100367071E+03  0.15294330000E+03 0.  0.
<mgrwt>
<rscale>  0 0.78765499E+03</rscale>
<asrwt>0</asrwt>
<pdfrwt beam="1">  1        1 0.37344519E+00 0.78765499E+03</pdfrwt>
<pdfrwt beam="2">  1       -1 0.57888960E-01 0.78765499E+03</pdfrwt>
<totfact> 0.48308363E+00</totfact>
</mgrwt>
</event>
<event>
 4    1  0.8749406E-009  0.7508705E+03  0.7818608E-02  0.9633986E-01
         -1   -1    0    0    0  501 -0.00000000000E+00  0.00000000000E+00  0.53661382142E+03  0.53661382145E+03  0.50400000000E-02 0.  1.
          1   -1    0    0  501    0  0.00000000000E+00 -0.00000000000E+00 -0.11974679814E+04  0.11974679814E+04  0.50400000000E-02 0. -1.
    8880022    1    1    2    0    0  0.72144089393E+03 -0.14120163191E+03 -0.63399847997E+03  0.98273118904E+03  0.15294330000E+03 0.  0.
    8880022    1    1    2    0    0 -0.72144089393E+03  0.14120163191E+03 -0.26855679980E+02  0.75135061379E+03  0.15294330000E+03 0.  0.
<mgrwt>
<rscale>  0 0.75087051E+03</rscale>
<asrwt>0</asrwt>
<pdfrwt beam="1">  1        1 0.18422584E+00 0.75087051E+03</pdfrwt>
<pdfrwt beam="2">  1       -1 0.82555973E-01 0.75087051E+03</pdfrwt>
<totfact> 0.16151267E+01</totfact>
</mgrwt>
</event>
<event>
 4    1  0.8749406E-009  0.6476261E+03  0.7818608E-02  0.9811244E-01
          1   -1    0    0  501    0  0.00000000000E+00  0.00000000000E+00  0.13640732681E+04  0.13640732682E+04  0.50400000000E-02 0. -1.
         -1   -1    0    0    0  501 -0.00000000000E+00 -0.00000000000E+00 -0.13708767473E+04  0.13708767473E+04  0.50400000000E-02 0.  1.
    8880022    1    1    2    0    0  0.54795911613E+03  0.30946519566E+03 -0.12077960887E+04  0.13704710668E+04  0.15294330000E+03 0.  0.
    8880022    1    1    2    0    0 -0.54795911613E+03 -0.30946519566E+03  0.12009926095E+04  0.13644789486E+04  0.15294330000E+03 0.  0.
<mgrwt>
<rscale>  0 0.64762609E+03</rscale>
<asrwt>0</asrwt>
<pdfrwt beam="1">  1        1 0.20985743E+00 0.64762609E+03</pdfrwt>
<pdfrwt beam="2">  1       -1 0.21090411E+00 0.64762609E+03</pdfrwt>
<totfact> 0.11102355E+00</totfact>
</mgrwt>
</event>
<event>
 4    1  0.8749406E-009  0.9403621E+03  0.7818608E-02  0.9376487E-01
          1   -1    0    0  501    0  0.00000000000E+00  0.00000000000E+00  0.27274218349E+04  0.27274218349E+04  0.50400000000E-02 0. -1.
         -1   -1    0    0    0  501 -0.00000000000E+00 -0.00000000000E+00 -0.34852030578E+03  0.34852030582E+03  0.50400000000E-02 0.  1.
    8880022    1    1    2    0    0  0.20033431861E+03  0.90595546888E+03  0.78333225711E+03  0.12238832579E+04  0.15294330000E+03 0.  0.
    8880022    1    1    2    0    0 -0.20033431861E+03 -0.90595546888E+03  0.15955692720E+04  0.18520588828E+04  0.15294330000E+03 0.  0.
<mgrwt>
<rscale>  0 0.94036206E+03</rscale>
<asrwt>0</asrwt>
<pdfrwt beam="1">  1        1 0.41960337E+00 0.94036206E+03</pdfrwt>
<pdfrwt beam="2">  1       -1 0.53618507E-01 0.94036206E+03</pdfrwt>
<totfact> 0.33981181E+00</totfact>
</mgrwt>
</event>
<event>
 4    1  0.8749406E-009  0.7158799E+03  0.7818608E-02  0.9690454E-01
          1   -1    0    0  501    0  0.00000000000E+00  0.00000000000E+00  0.34682220585E+04  0.34682220585E+04  0.50400000000E-02 0. -1.
         -1   -1    0    0    0  501 -0.00000000000E+00 -0.00000000000E+00 -0.46687887988E+03  0.46687887991E+03  0.50400000000E-02 0.  1.
    8880022    1    1    2    0    0 -0.21437393683E+03 -0.66568480395E+03  0.31273292771E+04  0.32082195223E+04  0.15294330000E+03 0.  0.
    8880022    1    1    2    0    0  0.21437393683E+03  0.66568480395E+03 -0.12598609850E+03  0.72688141607E+03  0.15294330000E+03 0.  0.
<mgrwt>
<rscale>  0 0.71587995E+03</rscale>
<asrwt>0</asrwt>
<pdfrwt beam="1">  1        1 0.53357260E+00 0.71587995E+03</pdfrwt>
<pdfrwt beam="2">  1       -1 0.71827523E-01 0.71587995E+03</pdfrwt>
<totfact> 0.57135831E-01</totfact>
</mgrwt>
</event>
<event>
 4    1  0.8749406E-009  0.5725589E+03  0.7818608E-02  0.9964032E-01
          1   -1    0    0  501    0  0.00000000000E+00  0.00000000000E+00  0.11287455710E+04  0.11287455711E+04  0.50400000000E-02 0. -1.
         -1   -1    0    0    0  501 -0.00000000000E+00 -0.00000000000E+00 -0.77611976953E+03  0.77611976955E+03  0.50400000000E-02 0.  1.
    8880022    1    1    2    0    0 -0.51329113244E+03  0.20239620588E+03 -0.57712690662E+03  0.81295702848E+03  0.15294330000E+03 0.  0.
    8880022    1    1    2    0    0  0.51329113244E+03 -0.20239620588E+03  0.92975270813E+03  0.10919083121E+04  0.15294330000E+03 0. -1.
<mgrwt>
<rscale>  0 0.57255887E+03</rscale>
<asrwt>0</asrwt>
<pdfrwt beam="1">  1        1 0.17365316E+00 0.57255887E+03</pdfrwt>
<pdfrwt beam="2">  1       -1 0.11940304E+00 0.57255887E+03</pdfrwt>
<totfact> 0.80645138E+00</totfact>
</mgrwt>
</event>
<event>
 4    1  0.8749406E-009  0.1646880E+04  0.7818608E-02  0.8792254E-01
         -1   -1    0    0    0  501 -0.00000000000E+00  0.00000000000E+00  0.16082561436E+04  0.16082561436E+04  0.50400000000E-02 0.  1.
          1   -1    0    0  501    0  0.00000000000E+00 -0.00000000000E+00 -0.27833367481E+04  0.27833367481E+04  0.50400000000E-02 0. -1.
    8880022    1    1    2    0    0 -0.15823953304E+04 -0.42993771766E+03  0.79091868688E+03  0.18269552390E+04  0.15294330000E+03 0.  0.
    8880022    1    1    2    0    0  0.15823953304E+04  0.42993771766E+03 -0.19659992914E+04  0.25646376527E+04  0.15294330000E+03 0.  0.
<mgrwt>
<rscale>  0 0.16468798E+04</rscale>
<asrwt>0</asrwt>
<pdfrwt beam="1">  1        1 0.42820565E+00 0.16468798E+04</pdfrwt>
<pdfrwt beam="2">  1       -1 0.24742402E+00 0.16468798E+04</pdfrwt>
<totfact> 0.57514705E-02</totfact>
</mgrwt>
</event>
<event>
 4    1  0.8749406E-009  0.6770084E+03  0.7818608E-02  0.9757379E-01
          1   -1    0    0  501    0  0.00000000000E+00  0.00000000000E+00  0.45003817787E+04  0.45003817787E+04  0.50400000000E-02 0. -1.
         -1   -1    0    0    0  501 -0.00000000000E+00 -0.00000000000E+00 -0.41428323614E+03  0.41428323618E+03  0.50400000000E-02 0.  1.
    8880022    1    1    2    0    0  0.50414744327E+03 -0.42518708631E+03 -0.90965852836E+02  0.68309233806E+03  0.15294330000E+03 0.  1.
    8880022    1    1    2    0    0 -0.50414744327E+03  0.42518708631E+03  0.41770643954E+04  0.42315726768E+04  0.15294330000E+03 0.  0.
<mgrwt>
<rscale>  0 0.67700839E+03</rscale>
<asrwt>0</asrwt>
<pdfrwt beam="1">  1        1 0.69236638E+00 0.67700839E+03</pdfrwt>
<pdfrwt beam="2">  1       -1 0.63735887E-01 0.67700839E+03</pdfrwt>
<totfact> 0.93920856E-02</totfact>
</mgrwt>
</event>
<event>
 4    1  0.8749406E-009  0.5824292E+03  0.7818608E-02  0.9942546E-01
         -1   -1    0    0    0  501 -0.00000000000E+00  0.00000000000E+00  0.13107971567E+04  0.13107971567E+04  0.50400000000E-02 0.  1.
          1   -1    0    0  501    0  0.00000000000E+00 -0.00000000000E+00 -0.63802203993E+03  0.63802203995E+03  0.50400000000E-02 0. -1.
    8880022    1    1    2    0    0  0.14039535271E+03 -0.54417020240E+03 -0.41484624624E+03  0.71506721731E+03  0.15294330000E+03 0.  0.
    8880022    1    1    2    0    0 -0.14039535271E+03  0.54417020240E+03  0.10876213630E+04  0.12337519793E+04  0.15294330000E+03 0.  0.
<mgrwt>
<rscale>  0 0.58242915E+03</rscale>
<asrwt>0</asrwt>
<pdfrwt beam="1">  1        1 0.98157237E-01 0.58242915E+03</pdfrwt>
<pdfrwt beam="2">  1       -1 0.20166110E+00 0.58242915E+03</pdfrwt>
<totfact> 0.48934235E+00</totfact>
</mgrwt>
</event>
<event>
 4    1  0.8749406E-009  0.5801411E+03  0.7818608E-02  0.9947486E-01
          1   -1    0    0  501    0  0.00000000000E+00  0.00000000000E+00  0.19400151149E+04  0.19400151149E+04  0.50400000000E-02 0. -1.
         -1   -1    0    0    0  501 -0.00000000000E+00 -0.00000000000E+00 -0.88647193127E+03  0.88647193128E+03  0.50400000000E-02 0.  1.
    8880022    1    1    2    0    0 -0.37790337717E+03 -0.41274814311E+03  0.17942053627E+04  0.18856660703E+04  0.15294330000E+03 0.  0.
    8880022    1    1    2    0    0  0.37790337717E+03  0.41274814311E+03 -0.74066217908E+03  0.94082097588E+03  0.15294330000E+03 0.  1.
<mgrwt>
<rscale>  0 0.58014106E+03</rscale>
<asrwt>0</asrwt>
<pdfrwt beam="1">  1        1 0.29846386E+00 0.58014106E+03</pdfrwt>
<pdfrwt beam="2">  1       -1 0.13638030E+00 0.58014106E+03</pdfrwt>
<totfact> 0.16117853E+00</totfact>
</mgrwt>
</event>
<event>
 4    1  0.8749406E-009  0.6700698E+03  0.7818608E-02  0.9769832E-01
          1   -1    0    0  501    0  0.00000000000E+00  0.00000000000E+00  0.99785096616E+03  0.99785096617E+03  0.50400000000E-02 0. -1.
         -1   -1    0    0    0  501 -0.00000000000E+00 -0.00000000000E+00 -0.60517627426E+03  0.60517627429E+03  0.50400000000E-02 0.  1.
    8880022    1    1    2    0    0 -0.24160784179E+03  0.60599306032E+03 -0.20958016554E+03  0.70208079106E+03  0.15294330000E+03 0.  0.
    8880022    1    1    2    0    0  0.24160784179E+03 -0.60599306032E+03  0.60225485744E+03  0.90094644940E+03  0.15294330000E+03 0.  0.
<mgrwt>
<rscale>  0 0.67006984E+03</rscale>
<asrwt>0</asrwt>
<pdfrwt beam="1">  1        1 0.15351553E+00 0.67006984E+03</pdfrwt>
<pdfrwt beam="2">  1       -1 0.93104043E-01 0.67006984E+03</pdfrwt>
<totfact> 0.17708372E+01</totfact>
</mgrwt>
</event>
<event>
 4    1  0.8749406E-009  0.3805645E+03  0.7818608E-02  0.1050725E+00
         -1   -1    0    0    0  501 -0.00000000000E+00  0.00000000000E+00  0.31799014448E+03  0.31799014452E+03  0.50400000000E-02 0.  1.
          1   -1    0    0  501    0  0.00000000000E+00 -0.00000000000E+00 -0.17142495463E+04  0.17142495463E+04  0.50400000000E-02 0. -1.
    8880022    1    1    2    0    0 -0.33257247189E+03 -0.10408285979E+03  0.17260490151E+03  0.41787772829E+03  0.15294330000E+03 0.  0.
    8880022    1    1    2    0    0  0.33257247189E+03  0.10408285979E+03 -0.15688643033E+04  0.16143619625E+04  0.15294330000E+03 0.  0.
<mgrwt>
<rscale>  0 0.38056451E+03</rscale>
<asrwt>0</asrwt>
<pdfrwt beam="1">  1        1 0.26373069E+00 0.38056451E+03</pdfrwt>
<pdfrwt beam="2">  1       -1 0.48921562E-01 0.38056451E+03</pdfrwt>
<totfact> 0.21691774E+01</totfact>
</mgrwt>
</event>
<event>
 4    1  0.8749406E-009  0.1540737E+04  0.7818608E-02  0.8857806E-01
         -1   -1    0    0    0  501 -0.00000000000E+00  0.00000000000E+00  0.17086500554E+04  0.17086500554E+04  0.50400000000E-02 0.  1.
          1   -1    0    0  501    0  0.00000000000E+00 -0.00000000000E+00 -0.26067383167E+04  0.26067383167E+04  0.50400000000E-02 0. -1.
    8880022    1    1    2    0    0 -0.14886132851E+04 -0.36675708289E+03 -0.19235958897E+04  0.24645675219E+04  0.15294330000E+03 0.  0.
    8880022    1    1    2    0    0  0.14886132851E+04  0.36675708289E+03  0.10255076284E+04  0.18508208501E+04  0.15294330000E+03 0.  0.
<mgrwt>
<rscale>  0 0.15407375E+04</rscale>
<asrwt>0</asrwt>
<pdfrwt beam="1">  1        1 0.40103666E+00 0.15407375E+04</pdfrwt>
<pdfrwt beam="2">  1       -1 0.26286924E+00 0.15407375E+04</pdfrwt>
<totfact> 0.61564615E-02</totfact>
</mgrwt>
</event>
<event>
 4    1  0.8749406E-009  0.3210913E+03  0.7818608E-02  0.1075148E+00
         -1   -1    0    0    0  501 -0.00000000000E+00  0.00000000000E+00  0.15499537733E+04  0.15499537733E+04  0.50400000000E-02 0.  1.
          1   -1    0    0  501    0  0.00000000000E+00 -0.00000000000E+00 -0.37848669895E+03  0.37848669898E+03  0.50400000000E-02 0. -1.
    8880022    1    1    2    0    0 -0.16482884666E+03  0.22921483954E+03  0.14611334981E+04  0.14959982432E+04  0.15294330000E+03 0.  1.
    8880022    1    1    2    0    0  0.16482884666E+03 -0.22921483954E+03 -0.28966642381E+03  0.43244222904E+03  0.15294330000E+03 0.  0.
<mgrwt>
<rscale>  0 0.32109133E+03</rscale>
<asrwt>0</asrwt>
<pdfrwt beam="1">  1        1 0.58228724E-01 0.32109133E+03</pdfrwt>
<pdfrwt beam="2">  1       -1 0.23845442E+00 0.32109133E+03</pdfrwt>
<totfact> 0.60820315E+00</totfact>
</mgrwt>
</event>
<event>
 4    1  0.8749406E-009  0.1234557E+04  0.7818608E-02  0.9083135E-01
         -1   -1    0    0    0  501 -0.00000000000E+00  0.00000000000E+00  0.10229121950E+04  0.10229121950E+04  0.50400000000E-02 0.  1.
          1   -1    0    0  501    0  0.00000000000E+00 -0.00000000000E+00 -0.20210173494E+04  0.20210173494E+04  0.50400000000E-02 0. -1.
    8880022    1    1    2    0    0  0.98379402710E+03 -0.72999285495E+03  0.28109513197E+03  0.12661541700E+04  0.15294330000E+03 0.  0.
    8880022    1    1    2    0    0 -0.98379402710E+03  0.72999285495E+03 -0.12792002863E+04  0.17777753744E+04  0.15294330000E+03 0.  0.
<mgrwt>
<rscale>  0 0.12345574E+04</rscale>
<asrwt>0</asrwt>
<pdfrwt beam="1">  1        1 0.31092574E+00 0.12345574E+04</pdfrwt>
<pdfrwt beam="2">  1       -1 0.15737111E+00 0.12345574E+04</pdfrwt>
<totfact> 0.86330618E-01</totfact>
</mgrwt>
</event>
<event>
 4    1  0.8749406E-009  0.7882633E+03  0.7818608E-02  0.9577163E-01
          1   -1    0    0  501    0  0.00000000000E+00  0.00000000000E+00  0.14393631711E+04  0.14393631711E+04  0.50400000000E-02 0. -1.
         -1   -1    0    0    0  501 -0.00000000000E+00 -0.00000000000E+00 -0.43970375038E+03  0.43970375041E+03  0.50400000000E-02 0.  1.
    8880022    1    1    2    0    0 -0.76337606148E+03 -0.12338700356E+03  0.37299332161E+03  0.87205678419E+03  0.15294330000E+03 0.  0.
    8880022    1    1    2    0    0  0.76337606148E+03  0.12338700356E+03  0.62666609913E+03  0.10070101373E+04  0.15294330000E+03 0.  0.
<mgrwt>
<rscale>  0 0.78826329E+03</rscale>
<asrwt>0</asrwt>
<pdfrwt beam="1">  1        1 0.22144049E+00 0.78826329E+03</pdfrwt>
<pdfrwt beam="2">  1       -1 0.67646731E-01 0.78826329E+03</pdfrwt>
<totfact> 0.16429819E+01</totfact>
</mgrwt>
</event>
<event>
 4    1  0.8749406E-009  0.2777435E+03  0.7818608E-02  0.1096928E+00
          1   -1    0    0  501    0  0.00000000000E+00  0.00000000000E+00  0.49138432919E+03  0.49138432921E+03  0.50400000000E-02 0. -1.
         -1   -1    0    0    0  501 -0.00000000000E+00 -0.00000000000E+00 -0.21387331335E+03  0.21387331341E+03  0.50400000000E-02 0.  1.
    8880022    1    1    2    0    0 -0.98795210009E+02  0.20973629794E+03  0.32061645284E+03  0.42418907464E+03  0.15294330000E+03 0.  0.
    8880022    1    1    2    0    0  0.98795210009E+02 -0.20973629794E+03 -0.43105437000E+02  0.28106856798E+03  0.15294330000E+03 0.  0.
<mgrwt>
<rscale>  0 0.27774352E+03</rscale>
<asrwt>0</asrwt>
<pdfrwt beam="1">  1        1 0.75597589E-01 0.27774352E+03</pdfrwt>
<pdfrwt beam="2">  1       -1 0.32903587E-01 0.27774352E+03</pdfrwt>
<totfact> 0.40509402E+02</totfact>
</mgrwt>
</event>
<event>
 4    1  0.8749406E-009  0.1493244E+04  0.7818608E-02  0.8888958E-01
         -1   -1    0    0    0  501 -0.00000000000E+00  0.00000000000E+00  0.14043967000E+04  0.14043967000E+04  0.50400000000E-02 0.  1.
          1   -1    0    0  501    0  0.00000000000E+00 -0.00000000000E+00 -0.29134832545E+04  0.29134832545E+04  0.50400000000E-02 0. -1.
    8880022    1    1    2    0    0  0.11679385655E+04  0.91777198477E+03 -0.22109027881E+04  0.26679334137E+04  0.15294330000E+03 0.  0.
    8880022    1    1    2    0    0 -0.11679385655E+04 -0.91777198477E+03  0.70181623360E+03  0.16499465408E+04  0.15294330000E+03 0.  0.
<mgrwt>
<rscale>  0 0.14932440E+04</rscale>
<asrwt>0</asrwt>
<pdfrwt beam="1">  1        1 0.44822819E+00 0.14932440E+04</pdfrwt>
<pdfrwt beam="2">  1       -1 0.21606103E+00 0.14932440E+04</pdfrwt>
<totfact> 0.76529626E-02</totfact>
</mgrwt>
</event>
<event>
 4    1  0.8749406E-009  0.1257321E+04  0.7818608E-02  0.9064112E-01
         -1   -1    0    0    0  501 -0.00000000000E+00  0.00000000000E+00  0.54620309303E+03  0.54620309306E+03  0.50400000000E-02 0.  1.
          1   -1    0    0  501    0  0.00000000000E+00 -0.00000000000E+00 -0.32180128505E+04  0.32180128505E+04  0.50400000000E-02 0. -1.
    8880022    1    1    2    0    0  0.37848935439E+03  0.11892054523E+04 -0.19328788210E+04  0.23058352042E+04  0.15294330000E+03 0.  0.
    8880022    1    1    2    0    0 -0.37848935439E+03 -0.11892054523E+04 -0.73893093652E+03  0.14583807394E+04  0.15294330000E+03 0.  0.
<mgrwt>
<rscale>  0 0.12573207E+04</rscale>
<asrwt>0</asrwt>
<pdfrwt beam="1">  1        1 0.49507889E+00 0.12573207E+04</pdfrwt>
<pdfrwt beam="2">  1       -1 0.84031247E-01 0.12573207E+04</pdfrwt>
<totfact> 0.57410007E-01</totfact>
</mgrwt>
</event>
<event>
 4    1  0.8749406E-009  0.9609444E+03  0.7818608E-02  0.9352449E-01
          1   -1    0    0  501    0  0.00000000000E+00  0.00000000000E+00  0.54374781882E+03  0.54374781884E+03  0.50400000000E-02 0. -1.
         -1   -1    0    0    0  501 -0.00000000000E+00 -0.00000000000E+00 -0.24272364872E+04  0.24272364872E+04  0.50400000000E-02 0.  1.
    8880022    1    1    2    0    0 -0.79531947993E+03 -0.51719372900E+03 -0.17558432029E+04  0.20015992193E+04  0.15294330000E+03 0.  0.
    8880022    1    1    2    0    0  0.79531947993E+03  0.51719372900E+03 -0.12764546543E+03  0.96938508671E+03  0.15294330000E+03 0. -1.
<mgrwt>
<rscale>  0 0.96094437E+03</rscale>
<asrwt>0</asrwt>
<pdfrwt beam="1">  1        1 0.83653512E-01 0.96094437E+03</pdfrwt>
<pdfrwt beam="2">  1       -1 0.37342099E+00 0.96094437E+03</pdfrwt>
<totfact> 0.43994387E-01</totfact>
</mgrwt>
</event>
<event>
 4    1  0.8749406E-009  0.8840392E+03  0.7818608E-02  0.9445756E-01
          1   -1    0    0  501    0  0.00000000000E+00  0.00000000000E+00  0.16067670306E+04  0.16067670306E+04  0.50400000000E-02 0. -1.
         -1   -1    0    0    0  501 -0.00000000000E+00 -0.00000000000E+00 -0.91560360895E+03  0.91560360896E+03  0.50400000000E-02 0.  1.
    8880022    1    1    2    0    0 -0.85956398475E+03 -0.13886490978E+03 -0.51791118665E+03  0.10245766723E+04  0.15294330000E+03 0.  0.
    8880022    1    1    2    0    0  0.85956398475E+03  0.13886490978E+03  0.12090746083E+04  0.14977939673E+04  0.15294330000E+03 0.  0.
<mgrwt>
<rscale>  0 0.88403923E+03</rscale>
<asrwt>0</asrwt>
<pdfrwt beam="1">  1        1 0.24719493E+00 0.88403923E+03</pdfrwt>
<pdfrwt beam="2">  1       -1 0.14086209E+00 0.88403923E+03</pdfrwt>
<totfact> 0.23310133E+00</totfact>
</mgrwt>
</event>
<event>
 4    1  0.8749406E-009  0.3114468E+03  0.7818608E-02  0.1079654E+00
         -1   -1    0    0    0  501 -0.00000000000E+00  0.00000000000E+00  0.49427507661E+03  0.49427507664E+03  0.50400000000E-02 0.  1.
          1   -1    0    0  501    0  0.00000000000E+00 -0.00000000000E+00 -0.12369516039E+04  0.12369516039E+04  0.50400000000E-02 0. -1.
    8880022    1    1    2    0    0 -0.22583219810E+03 -0.15035707190E+03 -0.11653221925E+04  0.12062234023E+04  0.15294330000E+03 0. -1.
    8880022    1    1    2    0    0  0.22583219810E+03  0.15035707190E+03  0.42264566528E+03  0.52500327824E+03  0.15294330000E+03 0.  0.
<mgrwt>
<rscale>  0 0.31144676E+03</rscale>
<asrwt>0</asrwt>
<pdfrwt beam="1">  1        1 0.19030025E+00 0.31144676E+03</pdfrwt>
<pdfrwt beam="2">  1       -1 0.76042319E-01 0.31144676E+03</pdfrwt>
<totfact> 0.19635532E+01</totfact>
</mgrwt>
</event>
<event>
 4    1  0.8749406E-009  0.4779447E+03  0.7818608E-02  0.1019702E+00
         -1   -1    0    0    0  501 -0.00000000000E+00  0.00000000000E+00  0.62265595860E+03  0.62265595862E+03  0.50400000000E-02 0.  1.
          1   -1    0    0  501    0  0.00000000000E+00 -0.00000000000E+00 -0.48033228296E+03  0.48033228299E+03  0.50400000000E-02 0. -1.
    8880022    1    1    2    0    0 -0.12960947588E+03  0.43386738650E+03  0.33920441793E+03  0.58608089498E+03  0.15294330000E+03 0.  0.
    8880022    1    1    2    0    0  0.12960947588E+03 -0.43386738650E+03 -0.19688074229E+03  0.51690734663E+03  0.15294330000E+03 0.  0.
<mgrwt>
<rscale>  0 0.47794474E+03</rscale>
<asrwt>0</asrwt>
<pdfrwt beam="1">  1        1 0.73897274E-01 0.47794474E+03</pdfrwt>
<pdfrwt beam="2">  1       -1 0.95793225E-01 0.47794474E+03</pdfrwt>
<totfact> 0.51705243E+01</totfact>
</mgrwt>
</event>
<event>
 4    1  0.8749406E-009  0.7890904E+03  0.7818608E-02  0.9575944E-01
         -1   -1    0    0    0  501 -0.00000000000E+00  0.00000000000E+00  0.14833364901E+04  0.14833364901E+04  0.50400000000E-02 0.  1.
          1   -1    0    0  501    0  0.00000000000E+00 -0.00000000000E+00 -0.53608687262E+03  0.53608687265E+03  0.50400000000E-02 0. -1.
    8880022    1    1    2    0    0 -0.42552303390E+03 -0.64668552415E+03  0.33012534605E+01  0.78909731390E+03  0.15294330000E+03 0.  0.
    8880022    1    1    2    0    0  0.42552303390E+03  0.64668552415E+03  0.94394836397E+03  0.12303260488E+04  0.15294330000E+03 0.  0.
<mgrwt>
<rscale>  0 0.78909041E+03</rscale>
<asrwt>0</asrwt>
<pdfrwt beam="1">  1        1 0.82474905E-01 0.78909041E+03</pdfrwt>
<pdfrwt beam="2">  1       -1 0.22820561E+00 0.78909041E+03</pdfrwt>
<totfact> 0.40320428E+00</totfact>
</mgrwt>
</event>
<event>
 4    1  0.8749406E-009  0.3896144E+03  0.7818608E-02  0.1047436E+00
          1   -1    0    0  501    0  0.00000000000E+00  0.00000000000E+00  0.13904606389E+04  0.13904606389E+04  0.50400000000E-02 0. -1.
         -1   -1    0    0    0  501 -0.00000000000E+00 -0.00000000000E+00 -0.16340551261E+03  0.16340551268E+03  0.50400000000E-02 0.  1.
    8880022    1    1    2    0    0 -0.22330303512E+03  0.28025606864E+03  0.16593367854E+03  0.42347768323E+03  0.15294330000E+03 0.  1.
    8880022    1    1    2    0    0  0.22330303512E+03 -0.28025606864E+03  0.10611214477E+04  0.11303884683E+04  0.15294330000E+03 0.  0.
<mgrwt>
<rscale>  0 0.38961438E+03</rscale>
<asrwt>0</asrwt>
<pdfrwt beam="1">  1        1 0.21391702E+00 0.38961438E+03</pdfrwt>
<pdfrwt beam="2">  1       -1 0.25139310E-01 0.38961438E+03</pdfrwt>
<totfact> 0.11529145E+02</totfact>
</mgrwt>
</event>
<event>
 4    1  0.8749406E-009  0.2500934E+04  0.7818608E-02  0.8402653E-01
         -1   -1    0    0    0  501 -0.00000000000E+00  0.00000000000E+00  0.43260710208E+04  0.43260710208E+04  0.50400000000E-02 0.  1.
          1   -1    0    0  501    0  0.00000000000E+00 -0.00000000000E+00 -0.19684736694E+04  0.19684736694E+04  0.50400000000E-02 0. -1.
    8880022    1    1    2    0    0 -0.85294501317E+03 -0.23460106984E+04 -0.44294059107E+03  0.25398561795E+04  0.15294330000E+03 0.  0.
    8880022    1    1    2    0    0  0.85294501317E+03  0.23460106984E+04  0.28005379425E+04  0.37546885107E+04  0.15294330000E+03 0.  0.
<mgrwt>
<rscale>  0 0.25009344E+04</rscale>
<asrwt>0</asrwt>
<pdfrwt beam="1">  1        1 0.30284210E+00 0.25009344E+04</pdfrwt>
<pdfrwt beam="2">  1       -1 0.66554938E+00 0.25009344E+04</pdfrwt>
<totfact> 0.66929577E-04</totfact>
</mgrwt>
</event>
<event>
 4    1  0.8749406E-009  0.3093308E+03  0.7818608E-02  0.1080667E+00
          1   -1    0    0  501    0  0.00000000000E+00  0.00000000000E+00  0.15709357644E+04  0.15709357644E+04  0.50400000000E-02 0. -1.
         -1   -1    0    0    0  501 -0.00000000000E+00 -0.00000000000E+00 -0.71423605861E+03  0.71423605863E+03  0.50400000000E-02 0.  1.
    8880022    1    1    2    0    0  0.25651628900E+03 -0.80580807742E+02  0.15211305258E+04  0.15522640248E+04  0.15294330000E+03 0.  0.
    8880022    1    1    2    0    0 -0.25651628900E+03  0.80580807742E+02 -0.66443082003E+03  0.73290779824E+03  0.15294330000E+03 0.  0.
<mgrwt>
<rscale>  0 0.30933077E+03</rscale>
<asrwt>0</asrwt>
<pdfrwt beam="1">  1        1 0.24168242E+00 0.30933077E+03</pdfrwt>
<pdfrwt beam="2">  1       -1 0.10988247E+00 0.30933077E+03</pdfrwt>
<totfact> 0.52376185E+00</totfact>
</mgrwt>
</event>
<event>
 4    1  0.8749406E-009  0.1136228E+04  0.7818608E-02  0.9170584E-01
          1   -1    0    0  501    0  0.00000000000E+00  0.00000000000E+00  0.21650788312E+04  0.21650788312E+04  0.50400000000E-02 0. -1.
         -1   -1    0    0    0  501 -0.00000000000E+00 -0.00000000000E+00 -0.66570309940E+03  0.66570309942E+03  0.50400000000E-02 0.  1.
    8880022    1    1    2    0    0 -0.62482327315E+03 -0.93659883079E+03  0.12067332422E+04  0.16574734578E+04  0.15294330000E+03 0.  0.
    8880022    1    1    2    0    0  0.62482327315E+03  0.93659883079E+03  0.29264248951E+03  0.11733084727E+04  0.15294330000E+03 0.  0.
<mgrwt>
<rscale>  0 0.11362276E+04</rscale>
<asrwt>0</asrwt>
<pdfrwt beam="1">  1        1 0.33308905E+00 0.11362276E+04</pdfrwt>
<pdfrwt beam="2">  1       -1 0.10241586E+00 0.11362276E+04</pdfrwt>
<totfact> 0.20654195E+00</totfact>
</mgrwt>
</event>
<event>
 4    1  0.8749406E-009  0.1705412E+04  0.7818608E-02  0.8758283E-01
          1   -1    0    0  501    0  0.00000000000E+00  0.00000000000E+00  0.36187493971E+04  0.36187493971E+04  0.50400000000E-02 0. -1.
         -1   -1    0    0    0  501 -0.00000000000E+00 -0.00000000000E+00 -0.83162650913E+03  0.83162650915E+03  0.50400000000E-02 0.  1.
    8880022    1    1    2    0    0  0.13863169884E+04  0.98140981772E+03  0.98588190902E+03  0.19698717761E+04  0.15294330000E+03 0.  0.
    8880022    1    1    2    0    0 -0.13863169884E+04 -0.98140981772E+03  0.18012409789E+04  0.24805041302E+04  0.15294330000E+03 0.  0.
<mgrwt>
<rscale>  0 0.17054125E+04</rscale>
<asrwt>0</asrwt>
<pdfrwt beam="1">  1        1 0.55673066E+00 0.17054125E+04</pdfrwt>
<pdfrwt beam="2">  1       -1 0.12794254E+00 0.17054125E+04</pdfrwt>
<totfact> 0.99292327E-02</totfact>
</mgrwt>
</event>
<event>
 4    1  0.8749406E-009  0.8684458E+03  0.7818608E-02  0.9465909E-01
          1   -1    0    0  501    0  0.00000000000E+00  0.00000000000E+00  0.32400415363E+04  0.32400415363E+04  0.50400000000E-02 0. -1.
         -1   -1    0    0    0  501 -0.00000000000E+00 -0.00000000000E+00 -0.24022131183E+03  0.24022131188E+03  0.50400000000E-02 0.  1.
    8880022    1    1    2    0    0  0.84568858493E+03 -0.12496881435E+03  0.18062972632E+04  0.20042225034E+04  0.15294330000E+03 0.  0.
    8880022    1    1    2    0    0 -0.84568858493E+03  0.12496881435E+03  0.11935229613E+04  0.14760403448E+04  0.15294330000E+03 0.  0.
<mgrwt>
<rscale>  0 0.86844576E+03</rscale>
<asrwt>0</asrwt>
<pdfrwt beam="1">  1        1 0.49846791E+00 0.86844576E+03</pdfrwt>
<pdfrwt beam="2">  1       -1 0.36957126E-01 0.86844576E+03</pdfrwt>
<totfact> 0.29389397E+00</totfact>
</mgrwt>
</event>
<event>
 4    1  0.8749406E-009  0.1648977E+04  0.7818608E-02  0.8791012E-01
          1   -1    0    0  501    0  0.00000000000E+00  0.00000000000E+00  0.27876256359E+04  0.27876256359E+04  0.50400000000E-02 0. -1.
         -1   -1    0    0    0  501 -0.00000000000E+00 -0.00000000000E+00 -0.18357943959E+04  0.18357943959E+04  0.50400000000E-02 0.  1.
    8880022    1    1    2    0    0 -0.53522447008E+03  0.15521821896E+04 -0.11066553867E+04  0.19859034672E+04  0.15294330000E+03 0.  0.
    8880022    1    1    2    0    0  0.53522447008E+03 -0.15521821896E+04  0.20584866268E+04  0.26375165646E+04  0.15294330000E+03 0.  0.
<mgrwt>
<rscale>  0 0.16489774E+04</rscale>
<asrwt>0</asrwt>
<pdfrwt beam="1">  1        1 0.42886548E+00 0.16489774E+04</pdfrwt>
<pdfrwt beam="2">  1       -1 0.28242991E+00 0.16489774E+04</pdfrwt>
<totfact> 0.33772695E-02</totfact>
</mgrwt>
</event>
<event>
 4    1  0.8749406E-009  0.1316663E+04  0.7818608E-02  0.9016454E-01
         -1   -1    0    0    0  501 -0.00000000000E+00  0.00000000000E+00  0.15365362915E+04  0.15365362915E+04  0.50400000000E-02 0.  1.
          1   -1    0    0  501    0  0.00000000000E+00 -0.00000000000E+00 -0.22036539230E+04  0.22036539230E+04  0.50400000000E-02 0. -1.
    8880022    1    1    2    0    0 -0.12742569124E+04  0.29407552457E+03 -0.16399614905E+04  0.21031111327E+04  0.15294330000E+03 0.  0.
    8880022    1    1    2    0    0  0.12742569124E+04 -0.29407552457E+03  0.97284385899E+03  0.16370790818E+04  0.15294330000E+03 0.  0.
<mgrwt>
<rscale>  0 0.13166635E+04</rscale>
<asrwt>0</asrwt>
<pdfrwt beam="1">  1        1 0.33902368E+00 0.13166635E+04</pdfrwt>
<pdfrwt beam="2">  1       -1 0.23639020E+00 0.13166635E+04</pdfrwt>
<totfact> 0.17932115E-01</totfact>
</mgrwt>
</event>
<event>
 4    1  0.8749406E-009  0.3495336E+03  0.7818608E-02  0.1062807E+00
          1   -1    0    0  501    0  0.00000000000E+00  0.00000000000E+00  0.84083631547E+03  0.84083631549E+03  0.50400000000E-02 0. -1.
         -1   -1    0    0    0  501 -0.00000000000E+00 -0.00000000000E+00 -0.43873031705E+03  0.43873031708E+03  0.50400000000E-02 0.  1.
    8880022    1    1    2    0    0  0.12043400570E+03 -0.29030633503E+03  0.72427543157E+03  0.80420685876E+03  0.15294330000E+03 0. -1.
    8880022    1    1    2    0    0 -0.12043400570E+03  0.29030633503E+03 -0.32216943315E+03  0.47535977381E+03  0.15294330000E+03 0.  0.
<mgrwt>
<rscale>  0 0.34953365E+03</rscale>
<asrwt>0</asrwt>
<pdfrwt beam="1">  1        1 0.12935943E+00 0.34953365E+03</pdfrwt>
<pdfrwt beam="2">  1       -1 0.67496973E-01 0.34953365E+03</pdfrwt>
<totfact> 0.49018713E+01</totfact>
</mgrwt>
</event>
<event>
 4    1  0.8749406E-009  0.5420880E+03  0.7818608E-02  0.1003342E+00
          1   -1    0    0  501    0  0.00000000000E+00  0.00000000000E+00  0.65755736632E+03  0.65755736634E+03  0.50400000000E-02 0. -1.
         -1   -1    0    0    0  501 -0.00000000000E+00 -0.00000000000E+00 -0.10960975959E+04  0.10960975959E+04  0.50400000000E-02 0.  1.
    8880022    1    1    2    0    0 -0.33219860639E+03 -0.40013982396E+03 -0.89407697301E+03  0.10455778687E+04  0.15294330000E+03 0.  0.
    8880022    1    1    2    0    0  0.33219860639E+03  0.40013982396E+03  0.45553674343E+03  0.70807709357E+03  0.15294330000E+03 0.  0.
<mgrwt>
<rscale>  0 0.54208804E+03</rscale>
<asrwt>0</asrwt>
<pdfrwt beam="1">  1        1 0.10116267E+00 0.54208804E+03</pdfrwt>
<pdfrwt beam="2">  1       -1 0.16863040E+00 0.54208804E+03</pdfrwt>
<totfact> 0.80469675E+00</totfact>
</mgrwt>
</event>
<event>
 4    1  0.8749406E-009  0.2560225E+03  0.7818608E-02  0.1109557E+00
         -1   -1    0    0    0  501 -0.00000000000E+00  0.00000000000E+00  0.41558508168E+03  0.41558508171E+03  0.50400000000E-02 0.  1.
          1   -1    0    0  501    0  0.00000000000E+00 -0.00000000000E+00 -0.40320637547E+03  0.40320637550E+03  0.50400000000E-02 0. -1.
    8880022    1    1    2    0    0 -0.14356981780E+03  0.14677727743E+03 -0.31325134991E+03  0.40456633942E+03  0.15294330000E+03 0. -1.
    8880022    1    1    2    0    0  0.14356981780E+03 -0.14677727743E+03  0.32563005612E+03  0.41422511780E+03  0.15294330000E+03 0.  0.
<mgrwt>
<rscale>  0 0.25602249E+03</rscale>
<asrwt>0</asrwt>
<pdfrwt beam="1">  1        1 0.62031750E-01 0.25602249E+03</pdfrwt>
<pdfrwt beam="2">  1       -1 0.63936167E-01 0.25602249E+03</pdfrwt>
<totfact> 0.15584263E+02</totfact>
</mgrwt>
</event>
<event>
 4    1  0.8749406E-009  0.6048351E+03  0.7818608E-02  0.9895425E-01
         -1   -1    0    0    0  501 -0.00000000000E+00  0.00000000000E+00  0.28130401252E+03  0.28130401256E+03  0.50400000000E-02 0.  1.
          1   -1    0    0  501    0  0.00000000000E+00 -0.00000000000E+00 -0.13371203981E+04  0.13371203981E+04  0.50400000000E-02 0. -1.
    8880022    1    1    2    0    0  0.15645984183E+03  0.56387426629E+03 -0.66189333891E+03  0.89662049686E+03  0.15294330000E+03 0.  0.
    8880022    1    1    2    0    0 -0.15645984183E+03 -0.56387426629E+03 -0.39392304667E+03  0.72180391381E+03  0.15294330000E+03 0.  0.
<mgrwt>
<rscale>  0 0.60483512E+03</rscale>
<asrwt>0</asrwt>
<pdfrwt beam="1">  1        1 0.20571083E+00 0.60483512E+03</pdfrwt>
<pdfrwt beam="2">  1       -1 0.43277541E-01 0.60483512E+03</pdfrwt>
<totfact> 0.46854477E+01</totfact>
</mgrwt>
</event>
<event>
 4    1  0.8749406E-009  0.1188908E+04  0.7818608E-02  0.9122621E-01
         -1   -1    0    0    0  501 -0.00000000000E+00  0.00000000000E+00  0.22617150474E+04  0.22617150474E+04  0.50400000000E-02 0.  1.
          1   -1    0    0  501    0  0.00000000000E+00 -0.00000000000E+00 -0.94843350430E+03  0.94843350431E+03  0.50400000000E-02 0. -1.
    8880022    1    1    2    0    0  0.30841432645E+03 -0.11379771714E+04 -0.28071534915E+03  0.12215990339E+04  0.15294330000E+03 0.  0.
    8880022    1    1    2    0    0 -0.30841432645E+03  0.11379771714E+04  0.15939968923E+04  0.19885495179E+04  0.15294330000E+03 0.  0.
<mgrwt>
<rscale>  0 0.11889084E+04</rscale>
<asrwt>0</asrwt>
<pdfrwt beam="1">  1        1 0.14591285E+00 0.11889084E+04</pdfrwt>
<pdfrwt beam="2">  1       -1 0.34795616E+00 0.11889084E+04</pdfrwt>
<totfact> 0.26403735E-01</totfact>
</mgrwt>
</event>
<event>
 4    1  0.8749406E-009  0.8100496E+03  0.7818608E-02  0.9545584E-01
          1   -1    0    0  501    0  0.00000000000E+00  0.00000000000E+00  0.29640268554E+04  0.29640268555E+04  0.50400000000E-02 0. -1.
         -1   -1    0    0    0  501 -0.00000000000E+00 -0.00000000000E+00 -0.10437766779E+04  0.10437766780E+04  0.50400000000E-02 0.  1.
    8880022    1    1    2    0    0  0.16193165110E+03 -0.77882402230E+03  0.27388670147E+04  0.28561465114E+04  0.15294330000E+03 0.  0.
    8880022    1    1    2    0    0 -0.16193165110E+03  0.77882402230E+03 -0.81861683715E+03  0.11516570220E+04  0.15294330000E+03 0.  0.
<mgrwt>
<rscale>  0 0.81004961E+03</rscale>
<asrwt>0</asrwt>
<pdfrwt beam="1">  1        1 0.45600412E+00 0.81004961E+03</pdfrwt>
<pdfrwt beam="2">  1       -1 0.16058103E+00 0.81004961E+03</pdfrwt>
<totfact> 0.19666223E-01</totfact>
</mgrwt>
</event>
<event>
 4    1  0.8749406E-009  0.5622534E+03  0.7818608E-02  0.9986969E-01
          1   -1    0    0  501    0  0.00000000000E+00  0.00000000000E+00  0.18968540105E+04  0.18968540105E+04  0.50400000000E-02 0. -1.
         -1   -1    0    0    0  501 -0.00000000000E+00 -0.00000000000E+00 -0.33621690621E+03  0.33621690625E+03  0.50400000000E-02 0.  1.
    8880022    1    1    2    0    0  0.60226397160E+02 -0.53768954282E+03  0.15732232841E+04  0.16706766348E+04  0.15294330000E+03 0.  0.
    8880022    1    1    2    0    0 -0.60226397160E+02  0.53768954282E+03 -0.12586179875E+02  0.56239428190E+03  0.15294330000E+03 0.  0.
<mgrwt>
<rscale>  0 0.56225343E+03</rscale>
<asrwt>0</asrwt>
<pdfrwt beam="1">  1        1 0.29182369E+00 0.56225343E+03</pdfrwt>
<pdfrwt beam="2">  1       -1 0.51725679E-01 0.56225343E+03</pdfrwt>
<totfact> 0.14177136E+01</totfact>
</mgrwt>
</event>
<event>
 4    1  0.8749406E-009  0.7029636E+03  0.7818608E-02  0.9712177E-01
          1   -1    0    0  501    0  0.00000000000E+00  0.00000000000E+00  0.62824508185E+03  0.62824508187E+03  0.50400000000E-02 0. -1.
         -1   -1    0    0    0  501 -0.00000000000E+00 -0.00000000000E+00 -0.12110568364E+04  0.12110568364E+04  0.50400000000E-02 0.  1.
    8880022    1    1    2    0    0  0.32864002339E+03 -0.60229718299E+03 -0.83587546619E+03  0.10921747157E+04  0.15294330000E+03 0.  0.
    8880022    1    1    2    0    0 -0.32864002339E+03  0.60229718299E+03  0.25306371167E+03  0.74712720255E+03  0.15294330000E+03 0.  0.
<mgrwt>
<rscale>  0 0.70296359E+03</rscale>
<asrwt>0</asrwt>
<pdfrwt beam="1">  1        1 0.96653090E-01 0.70296359E+03</pdfrwt>
<pdfrwt beam="2">  1       -1 0.18631644E+00 0.70296359E+03</pdfrwt>
<totfact> 0.62561503E+00</totfact>
</mgrwt>
</event>
<event>
 4    1  0.8749406E-009  0.6660925E+03  0.7818608E-02  0.9777043E-01
          1   -1    0    0  501    0  0.00000000000E+00  0.00000000000E+00  0.24230565294E+04  0.24230565294E+04  0.50400000000E-02 0. -1.
         -1   -1    0    0    0  501 -0.00000000000E+00 -0.00000000000E+00 -0.12104983423E+04  0.12104983423E+04  0.50400000000E-02 0.  1.
    8880022    1    1    2    0    0 -0.47245387138E+03 -0.44393116968E+03 -0.10674591042E+04  0.12582321471E+04  0.15294330000E+03 0.  0.
    8880022    1    1    2    0    0  0.47245387138E+03  0.44393116968E+03  0.22800172913E+04  0.23753227245E+04  0.15294330000E+03 0.  0.
<mgrwt>
<rscale>  0 0.66609248E+03</rscale>
<asrwt>0</asrwt>
<pdfrwt beam="1">  1        1 0.37277792E+00 0.66609248E+03</pdfrwt>
<pdfrwt beam="2">  1       -1 0.18623052E+00 0.66609248E+03</pdfrwt>
<totfact> 0.31603600E-01</totfact>
</mgrwt>
</event>
<event>
 4    1  0.8749406E-009  0.1221248E+04  0.7818608E-02  0.9094459E-01
          1   -1    0    0  501    0  0.00000000000E+00  0.00000000000E+00  0.12741898895E+04  0.12741898895E+04  0.50400000000E-02 0. -1.
         -1   -1    0    0    0  501 -0.00000000000E+00 -0.00000000000E+00 -0.27658284992E+04  0.27658284992E+04  0.50400000000E-02 0.  1.
    8880022    1    1    2    0    0  0.61293827990E+03 -0.10451611394E+04  0.78832064726E+03  0.14535804891E+04  0.15294330000E+03 0.  0.
    8880022    1    1    2    0    0 -0.61293827990E+03  0.10451611394E+04 -0.22799592569E+04  0.25864378996E+04  0.15294330000E+03 0.  0.
<mgrwt>
<rscale>  0 0.12212480E+04</rscale>
<asrwt>0</asrwt>
<pdfrwt beam="1">  1        1 0.19602921E+00 0.12212480E+04</pdfrwt>
<pdfrwt beam="2">  1       -1 0.42551208E+00 0.12212480E+04</pdfrwt>
<totfact> 0.44540807E-02</totfact>
</mgrwt>
</event>
<event>
 4    1  0.8749406E-009  0.5829783E+03  0.7818608E-02  0.9941364E-01
          1   -1    0    0  501    0  0.00000000000E+00  0.00000000000E+00  0.18270597238E+04  0.18270597238E+04  0.50400000000E-02 0. -1.
         -1   -1    0    0    0  501 -0.00000000000E+00 -0.00000000000E+00 -0.19043457079E+03  0.19043457085E+03  0.50400000000E-02 0.  1.
    8880022    1    1    2    0    0  0.98329920363E+02  0.55389829537E+03  0.66466967337E+03  0.88410945169E+03  0.15294330000E+03 0.  0.
    8880022    1    1    2    0    0 -0.98329920363E+02 -0.55389829537E+03  0.97195547962E+03  0.11333848429E+04  0.15294330000E+03 0.  0.
<mgrwt>
<rscale>  0 0.58297834E+03</rscale>
<asrwt>0</asrwt>
<pdfrwt beam="1">  1        1 0.28108612E+00 0.58297834E+03</pdfrwt>
<pdfrwt beam="2">  1       -1 0.29297625E-01 0.58297834E+03</pdfrwt>
<totfact> 0.43862128E+01</totfact>
</mgrwt>
</event>
<event>
 4    1  0.8749406E-009  0.1389318E+04  0.7818608E-02  0.8961587E-01
         -1   -1    0    0    0  501 -0.00000000000E+00  0.00000000000E+00  0.18267243021E+04  0.18267243021E+04  0.50400000000E-02 0.  1.
          1   -1    0    0  501    0  0.00000000000E+00 -0.00000000000E+00 -0.17983015594E+04  0.17983015594E+04  0.50400000000E-02 0. -1.
    8880022    1    1    2    0    0 -0.97393418527E+03  0.97890975721E+03  0.11782047955E+04  0.18216394548E+04  0.15294330000E+03 0.  0.
    8880022    1    1    2    0    0  0.97393418527E+03 -0.97890975721E+03 -0.11497820529E+04  0.18033864068E+04  0.15294330000E+03 0.  0.
<mgrwt>
<rscale>  0 0.13893177E+04</rscale>
<asrwt>0</asrwt>
<pdfrwt beam="1">  1        1 0.27666178E+00 0.13893177E+04</pdfrwt>
<pdfrwt beam="2">  1       -1 0.28103451E+00 0.13893177E+04</pdfrwt>
<totfact> 0.17137151E-01</totfact>
</mgrwt>
</event>
<event>
 4    1  0.8749406E-009  0.1437438E+04  0.7818608E-02  0.8927156E-01
          1   -1    0    0  501    0  0.00000000000E+00  0.00000000000E+00  0.28459435011E+04  0.28459435011E+04  0.50400000000E-02 0. -1.
         -1   -1    0    0    0  501 -0.00000000000E+00 -0.00000000000E+00 -0.15418763255E+04  0.15418763255E+04  0.50400000000E-02 0.  1.
    8880022    1    1    2    0    0 -0.37281624719E+03  0.13797986701E+04  0.22479103812E+04  0.26682070870E+04  0.15294330000E+03 0.  0.
    8880022    1    1    2    0    0  0.37281624719E+03 -0.13797986701E+04 -0.94384320557E+03  0.17196127395E+04  0.15294330000E+03 0.  0.
<mgrwt>
<rscale>  0 0.14374380E+04</rscale>
<asrwt>0</asrwt>
<pdfrwt beam="1">  1        1 0.43783746E+00 0.14374380E+04</pdfrwt>
<pdfrwt beam="2">  1       -1 0.23721174E+00 0.14374380E+04</pdfrwt>
<totfact> 0.62309367E-02</totfact>
</mgrwt>
</event>
<event>
 4    1  0.8749406E-009  0.8254819E+03  0.7818608E-02  0.9523848E-01
          1   -1    0    0  501    0  0.00000000000E+00  0.00000000000E+00  0.25976568516E+04  0.25976568516E+04  0.50400000000E-02 0. -1.
         -1   -1    0    0    0  501 -0.00000000000E+00 -0.00000000000E+00 -0.49637905728E+03  0.49637905731E+03  0.50400000000E-02 0.  1.
    8880022    1    1    2    0    0  0.34956411711E+02  0.81043617029E+03  0.21129464458E+04  0.22684715278E+04  0.15294330000E+03 0.  0.
    8880022    1    1    2    0    0 -0.34956411711E+02 -0.81043617029E+03 -0.11668651480E+02  0.82556438107E+03  0.15294330000E+03 0.  0.
<mgrwt>
<rscale>  0 0.82548191E+03</rscale>
<asrwt>0</asrwt>
<pdfrwt beam="1">  1        1 0.39963951E+00 0.82548191E+03</pdfrwt>
<pdfrwt beam="2">  1       -1 0.76366010E-01 0.82548191E+03</pdfrwt>
<totfact> 0.20941445E+00</totfact>
</mgrwt>
</event>
<event>
 4    1  0.8749406E-009  0.9431647E+03  0.7818608E-02  0.9373176E-01
         -1   -1    0    0    0  501 -0.00000000000E+00  0.00000000000E+00  0.98612959947E+03  0.98612959948E+03  0.50400000000E-02 0.  1.
          1   -1    0    0  501    0  0.00000000000E+00 -0.00000000000E+00 -0.10301081964E+04  0.10301081965E+04  0.50400000000E-02 0. -1.
    8880022    1    1    2    0    0  0.33939641989E+03 -0.86658996190E+03  0.33342670860E+03  0.10003664903E+04  0.15294330000E+03 0.  0.
    8880022    1    1    2    0    0 -0.33939641989E+03  0.86658996190E+03 -0.37740530558E+03  0.10158713056E+04  0.15294330000E+03 0.  0.
<mgrwt>
<rscale>  0 0.94316475E+03</rscale>
<asrwt>0</asrwt>
<pdfrwt beam="1">  1        1 0.15847818E+00 0.94316475E+03</pdfrwt>
<pdfrwt beam="2">  1       -1 0.15171225E+00 0.94316475E+03</pdfrwt>
<totfact> 0.48968121E+00</totfact>
</mgrwt>
</event>
<event>
 4    1  0.8749406E-009  0.1163494E+04  0.7818608E-02  0.9145424E-01
          1   -1    0    0  501    0  0.00000000000E+00  0.00000000000E+00  0.12575421085E+04  0.12575421085E+04  0.50400000000E-02 0. -1.
         -1   -1    0    0    0  501 -0.00000000000E+00 -0.00000000000E+00 -0.11569748616E+04  0.11569748616E+04  0.50400000000E-02 0.  1.
    8880022    1    1    2    0    0  0.43150826637E+03 -0.10696387894E+04 -0.26815372379E+03  0.11939952246E+04  0.15294330000E+03 0.  0.
    8880022    1    1    2    0    0 -0.43150826637E+03  0.10696387894E+04  0.36872097069E+03  0.12205217454E+04  0.15294330000E+03 0.  0.
<mgrwt>
<rscale>  0 0.11634940E+04</rscale>
<asrwt>0</asrwt>
<pdfrwt beam="1">  1        1 0.19346802E+00 0.11634940E+04</pdfrwt>
<pdfrwt beam="2">  1       -1 0.17799613E+00 0.11634940E+04</pdfrwt>
<totfact> 0.20550542E+00</totfact>
</mgrwt>
</event>
<event>
 4    1  0.8749406E-009  0.1023400E+04  0.7818608E-02  0.9283246E-01
         -1   -1    0    0    0  501 -0.00000000000E+00  0.00000000000E+00  0.67252522412E+03  0.67252522413E+03  0.50400000000E-02 0.  1.
          1   -1    0    0  501    0  0.00000000000E+00 -0.00000000000E+00 -0.31529320838E+04  0.31529320838E+04  0.50400000000E-02 0. -1.
    8880022    1    1    2    0    0  0.18527229454E+03  0.99480118127E+03 -0.26008887962E+04  0.27949900531E+04  0.15294330000E+03 0.  0.
    8880022    1    1    2    0    0 -0.18527229454E+03 -0.99480118127E+03  0.12048193652E+03  0.10304672549E+04  0.15294330000E+03 0.  0.
<mgrwt>
<rscale>  0 0.10233997E+04</rscale>
<asrwt>0</asrwt>
<pdfrwt beam="1">  1        1 0.48506647E+00 0.10233997E+04</pdfrwt>
<pdfrwt beam="2">  1       -1 0.10346542E+00 0.10233997E+04</pdfrwt>
<totfact> 0.41706855E-01</totfact>
</mgrwt>
</event>
<event>
 4    1  0.8749406E-009  0.3942279E+03  0.7818608E-02  0.1045797E+00
         -1   -1    0    0    0  501 -0.00000000000E+00  0.00000000000E+00  0.35497418265E+03  0.35497418269E+03  0.50400000000E-02 0.  1.
          1   -1    0    0  501    0  0.00000000000E+00 -0.00000000000E+00 -0.17121041698E+04  0.17121041698E+04  0.50400000000E-02 0. -1.
    8880022    1    1    2    0    0  0.34055945694E+03  0.12666181755E+03 -0.15702153816E+04  0.16189477932E+04  0.15294330000E+03 0.  0.
    8880022    1    1    2    0    0 -0.34055945694E+03 -0.12666181755E+03  0.21308539447E+03  0.44813055920E+03  0.15294330000E+03 0.  0.
<mgrwt>
<rscale>  0 0.39422787E+03</rscale>
<asrwt>0</asrwt>
<pdfrwt beam="1">  1        1 0.26340064E+00 0.39422787E+03</pdfrwt>
<pdfrwt beam="2">  1       -1 0.54611414E-01 0.39422787E+03</pdfrwt>
<totfact> 0.17624800E+01</totfact>
</mgrwt>
</event>
<event>
 4    1  0.8749406E-009  0.4182978E+03  0.7818608E-02  0.1037622E+00
          1   -1    0    0  501    0  0.00000000000E+00  0.00000000000E+00  0.97005682922E+03  0.97005682923E+03  0.50400000000E-02 0. -1.
         -1   -1    0    0    0  501 -0.00000000000E+00 -0.00000000000E+00 -0.56309185421E+03  0.56309185424E+03  0.50400000000E-02 0.  1.
    8880022    1    1    2    0    0 -0.30611158091E+03 -0.24057652300E+03  0.83546349383E+03  0.93432984856E+03  0.15294330000E+03 0.  0.
    8880022    1    1    2    0    0  0.30611158091E+03  0.24057652300E+03 -0.42849851882E+03  0.59881883490E+03  0.15294330000E+03 0.  0.
<mgrwt>
<rscale>  0 0.41829776E+03</rscale>
<asrwt>0</asrwt>
<pdfrwt beam="1">  1        1 0.14923951E+00 0.41829776E+03</pdfrwt>
<pdfrwt beam="2">  1       -1 0.86629517E-01 0.41829776E+03</pdfrwt>
<totfact> 0.22742789E+01</totfact>
</mgrwt>
</event>
<event>
 4    1  0.8749406E-009  0.5300875E+03  0.7818608E-02  0.1006211E+00
         -1   -1    0    0    0  501 -0.00000000000E+00  0.00000000000E+00  0.12306985617E+04  0.12306985617E+04  0.50400000000E-02 0.  1.
          1   -1    0    0  501    0  0.00000000000E+00 -0.00000000000E+00 -0.65916322367E+03  0.65916322369E+03  0.50400000000E-02 0. -1.
    8880022    1    1    2    0    0 -0.50159171227E+03  0.77504057550E+02 -0.47817950143E+03  0.71389664053E+03  0.15294330000E+03 0.  0.
    8880022    1    1    2    0    0  0.50159171227E+03 -0.77504057550E+02  0.10497148395E+04  0.11759651449E+04  0.15294330000E+03 0.  0.
<mgrwt>
<rscale>  0 0.53008752E+03</rscale>
<asrwt>0</asrwt>
<pdfrwt beam="1">  1        1 0.10140973E+00 0.53008752E+03</pdfrwt>
<pdfrwt beam="2">  1       -1 0.18933824E+00 0.53008752E+03</pdfrwt>
<totfact> 0.57280785E+00</totfact>
</mgrwt>
</event>
<event>
 4    1  0.8749406E-009  0.6182489E+03  0.7818608E-02  0.9868252E-01
         -1   -1    0    0    0  501 -0.00000000000E+00  0.00000000000E+00  0.13312172236E+03  0.13312172246E+03  0.50400000000E-02 0.  1.
          1   -1    0    0  501    0  0.00000000000E+00 -0.00000000000E+00 -0.33746208146E+04  0.33746208146E+04  0.50400000000E-02 0. -1.
    8880022    1    1    2    0    0  0.51810525774E+02 -0.59678782007E+03 -0.22980946382E+04  0.23798047508E+04  0.15294330000E+03 0. -1.
    8880022    1    1    2    0    0 -0.51810525774E+02  0.59678782007E+03 -0.94340445402E+03  0.11279377862E+04  0.15294330000E+03 0.  0.
<mgrwt>
<rscale>  0 0.61824889E+03</rscale>
<asrwt>0</asrwt>
<pdfrwt beam="1">  1        1 0.51917237E+00 0.61824889E+03</pdfrwt>
<pdfrwt beam="2">  1       -1 0.20480267E-01 0.61824889E+03</pdfrwt>
<totfact> 0.67787646E+00</totfact>
</mgrwt>
</event>
<event>
 4    1  0.8749406E-009  0.1236014E+04  0.7818608E-02  0.9081905E-01
          1   -1    0    0  501    0  0.00000000000E+00  0.00000000000E+00  0.34397492399E+04  0.34397492399E+04  0.50400000000E-02 0. -1.
         -1   -1    0    0    0  501 -0.00000000000E+00 -0.00000000000E+00 -0.12601359574E+04  0.12601359574E+04  0.50400000000E-02 0.  1.
    8880022    1    1    2    0    0 -0.10614071079E+04  0.61461626745E+03  0.29808112361E+04  0.32269126861E+04  0.15294330000E+03 0.  0.
    8880022    1    1    2    0    0  0.10614071079E+04 -0.61461626745E+03 -0.80119795365E+03  0.14729725113E+04  0.15294330000E+03 0.  0.
<mgrwt>
<rscale>  0 0.12360137E+04</rscale>
<asrwt>0</asrwt>
<pdfrwt beam="1">  1        1 0.52919219E+00 0.12360137E+04</pdfrwt>
<pdfrwt beam="2">  1       -1 0.19386707E+00 0.12360137E+04</pdfrwt>
<totfact> 0.45892041E-02</totfact>
</mgrwt>
</event>
<event>
 4    1  0.8749406E-009  0.8308734E+03  0.7818608E-02  0.9516374E-01
         -1   -1    0    0    0  501 -0.00000000000E+00  0.00000000000E+00  0.40633772411E+03  0.40633772414E+03  0.50400000000E-02 0.  1.
          1   -1    0    0  501    0  0.00000000000E+00 -0.00000000000E+00 -0.18247087684E+04  0.18247087684E+04  0.50400000000E-02 0. -1.
    8880022    1    1    2    0    0  0.81626872505E+03  0.25774574767E+02 -0.10020304142E+04  0.13016971861E+04  0.15294330000E+03 0.  0.
    8880022    1    1    2    0    0 -0.81626872505E+03 -0.25774574767E+02 -0.41634063008E+03  0.92934930649E+03  0.15294330000E+03 0.  0.
<mgrwt>
<rscale>  0 0.83087340E+03</rscale>
<asrwt>0</asrwt>
<pdfrwt beam="1">  1        1 0.28072442E+00 0.83087340E+03</pdfrwt>
<pdfrwt beam="2">  1       -1 0.62513497E-01 0.83087340E+03</pdfrwt>
<totfact> 0.10484740E+01</totfact>
</mgrwt>
</event>
<event>
 4    1  0.8749406E-009  0.4086720E+03  0.7818608E-02  0.1040818E+00
         -1   -1    0    0    0  501 -0.00000000000E+00  0.00000000000E+00  0.11876977775E+04  0.11876977775E+04  0.50400000000E-02 0.  1.
          1   -1    0    0  501    0  0.00000000000E+00 -0.00000000000E+00 -0.21055984647E+03  0.21055984653E+03  0.50400000000E-02 0. -1.
    8880022    1    1    2    0    0  0.37735141254E+03 -0.35029930190E+02  0.89150393445E+03  0.98070999929E+03  0.15294330000E+03 0.  1.
    8880022    1    1    2    0    0 -0.37735141254E+03  0.35029930190E+02  0.85633996579E+02  0.41754762475E+03  0.15294330000E+03 0.  0.
<mgrwt>
<rscale>  0 0.40867204E+03</rscale>
<asrwt>0</asrwt>
<pdfrwt beam="1">  1        1 0.32393822E-01 0.40867204E+03</pdfrwt>
<pdfrwt beam="2">  1       -1 0.18272274E+00 0.40867204E+03</pdfrwt>
<totfact> 0.29518186E+01</totfact>
</mgrwt>
</event>
<event>
 4    1  0.8749406E-009  0.5559315E+03  0.7818608E-02  0.1000130E+00
          1   -1    0    0  501    0  0.00000000000E+00  0.00000000000E+00  0.11633289068E+04  0.11633289068E+04  0.50400000000E-02 0. -1.
         -1   -1    0    0    0  501 -0.00000000000E+00 -0.00000000000E+00 -0.10446785186E+04  0.10446785187E+04  0.50400000000E-02 0.  1.
    8880022    1    1    2    0    0 -0.21641133851E+03  0.48870677862E+03  0.10126715821E+04  0.11552331233E+04  0.15294330000E+03 0.  0.
    8880022    1    1    2    0    0  0.21641133851E+03 -0.48870677862E+03 -0.89402119401E+03  0.10527743021E+04  0.15294330000E+03 0.  0.
<mgrwt>
<rscale>  0 0.55593150E+03</rscale>
<asrwt>0</asrwt>
<pdfrwt beam="1">  1        1 0.17897368E+00 0.55593150E+03</pdfrwt>
<pdfrwt beam="2">  1       -1 0.16071977E+00 0.55593150E+03</pdfrwt>
<totfact> 0.35474029E+00</totfact>
</mgrwt>
</event>
<event>
 4    1  0.8749406E-009  0.8435947E+03  0.7818608E-02  0.9498974E-01
         -1   -1    0    0    0  501 -0.00000000000E+00  0.00000000000E+00  0.11798488553E+04  0.11798488553E+04  0.50400000000E-02 0.  1.
          1   -1    0    0  501    0  0.00000000000E+00 -0.00000000000E+00 -0.18019823243E+04  0.18019823243E+04  0.50400000000E-02 0. -1.
    8880022    1    1    2    0    0 -0.14894142857E+03 -0.81613530900E+03 -0.15271211007E+04  0.17446348904E+04  0.15294330000E+03 0.  0.
    8880022    1    1    2    0    0  0.14894142857E+03  0.81613530900E+03  0.90498763159E+03  0.12371962892E+04  0.15294330000E+03 0.  0.
<mgrwt>
<rscale>  0 0.84359472E+03</rscale>
<asrwt>0</asrwt>
<pdfrwt beam="1">  1        1 0.27722805E+00 0.84359472E+03</pdfrwt>
<pdfrwt beam="2">  1       -1 0.18151521E+00 0.84359472E+03</pdfrwt>
<totfact> 0.85497731E-01</totfact>
</mgrwt>
</event>
<event>
 4    1  0.8749406E-009  0.1027299E+04  0.7818608E-02  0.9279100E-01
          1   -1    0    0  501    0  0.00000000000E+00  0.00000000000E+00  0.16526985110E+04  0.16526985110E+04  0.50400000000E-02 0. -1.
         -1   -1    0    0    0  501 -0.00000000000E+00 -0.00000000000E+00 -0.12731423881E+04  0.12731423881E+04  0.50400000000E-02 0.  1.
    8880022    1    1    2    0    0 -0.90857480048E+03 -0.45436028797E+03 -0.84304772330E+03  0.13289366261E+04  0.15294330000E+03 0.  0.
    8880022    1    1    2    0    0  0.90857480048E+03  0.45436028797E+03  0.12226038462E+04  0.15969042730E+04  0.15294330000E+03 0.  0.
<mgrwt>
<rscale>  0 0.10272989E+04</rscale>
<asrwt>0</asrwt>
<pdfrwt beam="1">  1        1 0.25426131E+00 0.10272989E+04</pdfrwt>
<pdfrwt beam="2">  1       -1 0.19586806E+00 0.10272989E+04</pdfrwt>
<totfact> 0.82887257E-01</totfact>
</mgrwt>
</event>
<event>
 4    1  0.8749406E-009  0.7222867E+03  0.7818608E-02  0.9679860E-01
         -1   -1    0    0    0  501 -0.00000000000E+00  0.00000000000E+00  0.54802983603E+03  0.54802983605E+03  0.50400000000E-02 0.  1.
          1   -1    0    0  501    0  0.00000000000E+00 -0.00000000000E+00 -0.25189762930E+04  0.25189762930E+04  0.50400000000E-02 0. -1.
    8880022    1    1    2    0    0  0.38902032193E+02  0.70483546644E+03 -0.21949860695E+04  0.23107708457E+04  0.15294330000E+03 0.  0.
    8880022    1    1    2    0    0 -0.38902032193E+02 -0.70483546644E+03  0.22403961252E+03  0.75623528340E+03  0.15294330000E+03 0.  1.
<mgrwt>
<rscale>  0 0.72228669E+03</rscale>
<asrwt>0</asrwt>
<pdfrwt beam="1">  1        1 0.38753481E+00 0.72228669E+03</pdfrwt>
<pdfrwt beam="2">  1       -1 0.84312284E-01 0.72228669E+03</pdfrwt>
<totfact> 0.19607057E+00</totfact>
</mgrwt>
</event>
<event>
 4    1  0.8749406E-009  0.8530350E+03  0.7818608E-02  0.9486272E-01
          1   -1    0    0  501    0  0.00000000000E+00  0.00000000000E+00  0.25557222011E+04  0.25557222011E+04  0.50400000000E-02 0. -1.
         -1   -1    0    0    0  501 -0.00000000000E+00 -0.00000000000E+00 -0.64564907454E+03  0.64564907456E+03  0.50400000000E-02 0.  1.
    8880022    1    1    2    0    0 -0.60647015458E+02 -0.83701793788E+03 -0.24175326096E+03  0.88663035196E+03  0.15294330000E+03 0.  0.
    8880022    1    1    2    0    0  0.60647015458E+02  0.83701793788E+03  0.21518263875E+04  0.23147409237E+04  0.15294330000E+03 0.  0.
<mgrwt>
<rscale>  0 0.85303502E+03</rscale>
<asrwt>0</asrwt>
<pdfrwt beam="1">  1        1 0.39318803E+00 0.85303502E+03</pdfrwt>
<pdfrwt beam="2">  1       -1 0.99330628E-01 0.85303502E+03</pdfrwt>
<totfact> 0.12539210E+00</totfact>
</mgrwt>
</event>
<event>
 4    1  0.8749406E-009  0.5704454E+03  0.7818608E-02  0.9968694E-01
          1   -1    0    0  501    0  0.00000000000E+00  0.00000000000E+00  0.23597612636E+04  0.23597612636E+04  0.50400000000E-02 0. -1.
         -1   -1    0    0    0  501 -0.00000000000E+00 -0.00000000000E+00 -0.35474962695E+03  0.35474962698E+03  0.50400000000E-02 0.  1.
    8880022    1    1    2    0    0 -0.42661379253E+03 -0.34643464563E+03 -0.58655201457E+02  0.57345302976E+03  0.15294330000E+03 0.  0.
    8880022    1    1    2    0    0  0.42661379253E+03  0.34643464563E+03  0.20636668381E+04  0.21410578609E+04  0.15294330000E+03 0.  0.
<mgrwt>
<rscale>  0 0.57044539E+03</rscale>
<asrwt>0</asrwt>
<pdfrwt beam="1">  1        1 0.36304020E+00 0.57044539E+03</pdfrwt>
<pdfrwt beam="2">  1       -1 0.54576865E-01 0.57044539E+03</pdfrwt>
<totfact> 0.62819194E+00</totfact>
</mgrwt>
</event>
<event>
 4    1  0.8749406E-009  0.1347377E+04  0.7818608E-02  0.8992816E-01
         -1   -1    0    0    0  501 -0.00000000000E+00  0.00000000000E+00  0.85405432809E+03  0.85405432810E+03  0.50400000000E-02 0.  1.
          1   -1    0    0  501    0  0.00000000000E+00 -0.00000000000E+00 -0.31938125507E+04  0.31938125507E+04  0.50400000000E-02 0. -1.
    8880022    1    1    2    0    0  0.10531041536E+04 -0.82644132273E+03  0.58761459717E+00  0.13473773104E+04  0.15294330000E+03 0.  0.
    8880022    1    1    2    0    0 -0.10531041536E+04  0.82644132273E+03 -0.23403458372E+04  0.27004895684E+04  0.15294330000E+03 0.  0.
<mgrwt>
<rscale>  0 0.13473772E+04</rscale>
<asrwt>0</asrwt>
<pdfrwt beam="1">  1        1 0.49135577E+00 0.13473772E+04</pdfrwt>
<pdfrwt beam="2">  1       -1 0.13139298E+00 0.13473772E+04</pdfrwt>
<totfact> 0.20680701E-01</totfact>
</mgrwt>
</event>
<event>
 4    1  0.8749406E-009  0.1062356E+04  0.7818608E-02  0.9242679E-01
         -1   -1    0    0    0  501 -0.00000000000E+00  0.00000000000E+00  0.13627619429E+04  0.13627619429E+04  0.50400000000E-02 0.  1.
          1   -1    0    0  501    0  0.00000000000E+00 -0.00000000000E+00 -0.10802623266E+04  0.10802623266E+04  0.50400000000E-02 0. -1.
    8880022    1    1    2    0    0  0.10253868329E+04  0.23192870762E+03 -0.44883115972E+03  0.11532780000E+04  0.15294330000E+03 0.  0.
    8880022    1    1    2    0    0 -0.10253868329E+04 -0.23192870762E+03  0.73133077602E+03  0.12897462694E+04  0.15294330000E+03 0.  0.
<mgrwt>
<rscale>  0 0.10623562E+04</rscale>
<asrwt>0</asrwt>
<pdfrwt beam="1">  1        1 0.16619421E+00 0.10623562E+04</pdfrwt>
<pdfrwt beam="2">  1       -1 0.20965568E+00 0.10623562E+04</pdfrwt>
<totfact> 0.16908210E+00</totfact>
</mgrwt>
</event>
<event>
 4    1  0.8749406E-009  0.3079269E+03  0.7818608E-02  0.1081344E+00
         -1   -1    0    0    0  501 -0.00000000000E+00  0.00000000000E+00  0.35139811413E+03  0.35139811417E+03  0.50400000000E-02 0.  1.
          1   -1    0    0  501    0  0.00000000000E+00 -0.00000000000E+00 -0.49460053393E+03  0.49460053395E+03  0.50400000000E-02 0. -1.
    8880022    1    1    2    0    0  0.14693541778E+03 -0.22324269841E+03 -0.35675471842E+03  0.47126733551E+03  0.15294330000E+03 0.  0.
    8880022    1    1    2    0    0 -0.14693541778E+03  0.22324269841E+03  0.21355229862E+03  0.37473131261E+03  0.15294330000E+03 0.  1.
<mgrwt>
<rscale>  0 0.30792689E+03</rscale>
<asrwt>0</asrwt>
<pdfrwt beam="1">  1        1 0.76092390E-01 0.30792689E+03</pdfrwt>
<pdfrwt beam="2">  1       -1 0.54061248E-01 0.30792689E+03</pdfrwt>
<totfact> 0.16349645E+02</totfact>
</mgrwt>
</event>
<event>
 4    1  0.8749406E-009  0.6811738E+03  0.7818608E-02  0.9749980E-01
         -1   -1    0    0    0  501 -0.00000000000E+00  0.00000000000E+00  0.15766510934E+04  0.15766510934E+04  0.50400000000E-02 0.  1.
          1   -1    0    0  501    0  0.00000000000E+00 -0.00000000000E+00 -0.16386364145E+04  0.16386364145E+04  0.50400000000E-02 0. -1.
    8880022    1    1    2    0    0  0.40775178246E+03 -0.52377907211E+03 -0.14871342209E+04  0.16357157077E+04  0.15294330000E+03 0.  0.
    8880022    1    1    2    0    0 -0.40775178246E+03  0.52377907211E+03  0.14251488998E+04  0.15795718002E+04  0.15294330000E+03 0.  0.
<mgrwt>
<rscale>  0 0.68117376E+03</rscale>
<asrwt>0</asrwt>
<pdfrwt beam="1">  1        1 0.25209791E+00 0.68117376E+03</pdfrwt>
<pdfrwt beam="2">  1       -1 0.24256171E+00 0.68117376E+03</pdfrwt>
<totfact> 0.44277334E-01</totfact>
</mgrwt>
</event>
<event>
 4    1  0.8749406E-009  0.1258294E+04  0.7818608E-02  0.9063309E-01
          1   -1    0    0  501    0  0.00000000000E+00  0.00000000000E+00  0.41795454854E+04  0.41795454854E+04  0.50400000000E-02 0. -1.
         -1   -1    0    0    0  501 -0.00000000000E+00 -0.00000000000E+00 -0.41828340019E+03  0.41828340022E+03  0.50400000000E-02 0.  1.
    8880022    1    1    2    0    0 -0.14261256479E+03  0.12407951262E+04  0.25867459322E+04  0.28765529823E+04  0.15294330000E+03 0.  0.
    8880022    1    1    2    0    0  0.14261256479E+03 -0.12407951262E+04  0.11745161530E+04  0.17212759034E+04  0.15294330000E+03 0.  0.
<mgrwt>
<rscale>  0 0.12582935E+04</rscale>
<asrwt>0</asrwt>
<pdfrwt beam="1">  1        1 0.64300701E+00 0.12582935E+04</pdfrwt>
<pdfrwt beam="2">  1       -1 0.64351291E-01 0.12582935E+04</pdfrwt>
<totfact> 0.16395266E-01</totfact>
</mgrwt>
</event>
<event>
 4    1  0.8749406E-009  0.9356916E+03  0.7818608E-02  0.9382033E-01
         -1   -1    0    0    0  501 -0.00000000000E+00  0.00000000000E+00  0.90948426361E+03  0.90948426362E+03  0.50400000000E-02 0.  1.
          1   -1    0    0  501    0  0.00000000000E+00 -0.00000000000E+00 -0.10390574006E+04  0.10390574006E+04  0.50400000000E-02 0. -1.
    8880022    1    1    2    0    0 -0.92110318349E+03 -0.60795708063E+02 -0.32897616299E+03  0.99183877802E+03  0.15294330000E+03 0.  0.
    8880022    1    1    2    0    0  0.92110318349E+03  0.60795708063E+02  0.19940302597E+03  0.95670288624E+03  0.15294330000E+03 0.  0.
<mgrwt>
<rscale>  0 0.93569164E+03</rscale>
<asrwt>0</asrwt>
<pdfrwt beam="1">  1        1 0.15985499E+00 0.93569164E+03</pdfrwt>
<pdfrwt beam="2">  1       -1 0.13992066E+00 0.93569164E+03</pdfrwt>
<totfact> 0.59830769E+00</totfact>
</mgrwt>
</event>
<event>
 4    1  0.8749406E-009  0.4589110E+03  0.7818608E-02  0.1025098E+00
         -1   -1    0    0    0  501 -0.00000000000E+00  0.00000000000E+00  0.94504390747E+03  0.94504390748E+03  0.50400000000E-02 0.  1.
          1   -1    0    0  501    0  0.00000000000E+00 -0.00000000000E+00 -0.24677964600E+03  0.24677964605E+03  0.50400000000E-02 0. -1.
    8880022    1    1    2    0    0 -0.21411002284E+03  0.37598480820E+03  0.53471205763E+03  0.70463913847E+03  0.15294330000E+03 0.  0.
    8880022    1    1    2    0    0  0.21411002284E+03 -0.37598480820E+03  0.16355220384E+03  0.48718441506E+03  0.15294330000E+03 0.  0.
<mgrwt>
<rscale>  0 0.45891103E+03</rscale>
<asrwt>0</asrwt>
<pdfrwt beam="1">  1        1 0.37966099E-01 0.45891103E+03</pdfrwt>
<pdfrwt beam="2">  1       -1 0.14539137E+00 0.45891103E+03</pdfrwt>
<totfact> 0.45084514E+01</totfact>
</mgrwt>
</event>
<event>
 4    1  0.8749406E-009  0.7079235E+03  0.7818608E-02  0.9703777E-01
         -1   -1    0    0    0  501 -0.00000000000E+00  0.00000000000E+00  0.76279289032E+03  0.76279289034E+03  0.50400000000E-02 0.  1.
          1   -1    0    0  501    0  0.00000000000E+00 -0.00000000000E+00 -0.13952726137E+04  0.13952726138E+04  0.50400000000E-02 0. -1.
    8880022    1    1    2    0    0  0.25344462102E+03 -0.64306288693E+03  0.46865804696E+03  0.84899709685E+03  0.15294330000E+03 0.  0.
    8880022    1    1    2    0    0 -0.25344462102E+03  0.64306288693E+03 -0.11011377704E+04  0.13090684072E+04  0.15294330000E+03 0.  0.
<mgrwt>
<rscale>  0 0.70792352E+03</rscale>
<asrwt>0</asrwt>
<pdfrwt beam="1">  1        1 0.21465732E+00 0.70792352E+03</pdfrwt>
<pdfrwt beam="2">  1       -1 0.11735275E+00 0.70792352E+03</pdfrwt>
<totfact> 0.53017181E+00</totfact>
</mgrwt>
</event>
<event>
 4    1  0.8749406E-009  0.5575021E+03  0.7818608E-02  0.9997723E-01
          1   -1    0    0  501    0  0.00000000000E+00  0.00000000000E+00  0.17989422121E+04  0.17989422121E+04  0.50400000000E-02 0. -1.
         -1   -1    0    0    0  501 -0.00000000000E+00 -0.00000000000E+00 -0.88150741907E+03  0.88150741908E+03  0.50400000000E-02 0.  1.
    8880022    1    1    2    0    0 -0.27087442366E+03 -0.46264888595E+03 -0.74301131940E+03  0.92891033950E+03  0.15294330000E+03 0.  0.
    8880022    1    1    2    0    0  0.27087442366E+03  0.46264888595E+03  0.16604461125E+04  0.17515392917E+04  0.15294330000E+03 0.  0.
<mgrwt>
<rscale>  0 0.55750211E+03</rscale>
<asrwt>0</asrwt>
<pdfrwt beam="1">  1        1 0.27676034E+00 0.55750211E+03</pdfrwt>
<pdfrwt beam="2">  1       -1 0.13561653E+00 0.55750211E+03</pdfrwt>
<totfact> 0.20410671E+00</totfact>
</mgrwt>
</event>
<event>
 4    1  0.8749406E-009  0.3681943E+03  0.7818608E-02  0.1055386E+00
          1   -1    0    0  501    0  0.00000000000E+00  0.00000000000E+00  0.53284856648E+03  0.53284856650E+03  0.50400000000E-02 0. -1.
         -1   -1    0    0    0  501 -0.00000000000E+00 -0.00000000000E+00 -0.66973206643E+03  0.66973206645E+03  0.50400000000E-02 0.  1.
    8880022    1    1    2    0    0  0.13452177432E+03  0.30672342803E+03  0.40505962250E+03  0.54739411749E+03  0.15294330000E+03 0.  0.
    8880022    1    1    2    0    0 -0.13452177432E+03 -0.30672342803E+03 -0.54194312245E+03  0.65518651547E+03  0.15294330000E+03 0.  0.
<mgrwt>
<rscale>  0 0.36819427E+03</rscale>
<asrwt>0</asrwt>
<pdfrwt beam="1">  1        1 0.81976703E-01 0.36819427E+03</pdfrwt>
<pdfrwt beam="2">  1       -1 0.10303570E+00 0.36819427E+03</pdfrwt>
<totfact> 0.38789155E+01</totfact>
</mgrwt>
</event>
<event>
 4    1  0.8749406E-009  0.1154965E+04  0.7818608E-02  0.9153215E-01
         -1   -1    0    0    0  501 -0.00000000000E+00  0.00000000000E+00  0.13463706694E+04  0.13463706694E+04  0.50400000000E-02 0.  1.
          1   -1    0    0  501    0  0.00000000000E+00 -0.00000000000E+00 -0.16589020989E+04  0.16589020989E+04  0.50400000000E-02 0. -1.
    8880022    1    1    2    0    0  0.60240086218E+03 -0.97348129022E+03 -0.11098839438E+04  0.16018073052E+04  0.15294330000E+03 0.  0.
    8880022    1    1    2    0    0 -0.60240086218E+03  0.97348129022E+03  0.79735251433E+03  0.14034654632E+04  0.15294330000E+03 0.  0.
<mgrwt>
<rscale>  0 0.11549651E+04</rscale>
<asrwt>0</asrwt>
<pdfrwt beam="1">  1        1 0.25521571E+00 0.11549651E+04</pdfrwt>
<pdfrwt beam="2">  1       -1 0.20713395E+00 0.11549651E+04</pdfrwt>
<totfact> 0.67424036E-01</totfact>
</mgrwt>
</event>
<event>
 4    1  0.8749406E-009  0.1751408E+03  0.7818608E-02  0.1172590E+00
         -1   -1    0    0    0  501 -0.00000000000E+00  0.00000000000E+00  0.34898202473E+03  0.34898202476E+03  0.50400000000E-02 0.  1.
          1   -1    0    0  501    0  0.00000000000E+00 -0.00000000000E+00 -0.32969293898E+03  0.32969293901E+03  0.50400000000E-02 0. -1.
    8880022    1    1    2    0    0  0.16476776212E+01 -0.85322418145E+02  0.30024881890E+03  0.34759694496E+03  0.15294330000E+03 0.  0.
    8880022    1    1    2    0    0 -0.16476776212E+01  0.85322418145E+02 -0.28095973315E+03  0.33107801882E+03  0.15294330000E+03 0. -1.
<mgrwt>
<rscale>  0 0.17514075E+03</rscale>
<asrwt>0</asrwt>
<pdfrwt beam="1">  1        1 0.50721991E-01 0.17514075E+03</pdfrwt>
<pdfrwt beam="2">  1       -1 0.53689542E-01 0.17514075E+03</pdfrwt>
<totfact> 0.28382480E+02</totfact>
</mgrwt>
</event>
<event>
 4    1  0.8749406E-009  0.5305969E+03  0.7818608E-02  0.1006087E+00
          1   -1    0    0  501    0  0.00000000000E+00  0.00000000000E+00  0.17306459184E+04  0.17306459184E+04  0.50400000000E-02 0. -1.
         -1   -1    0    0    0  501 -0.00000000000E+00 -0.00000000000E+00 -0.70146044280E+03  0.70146044282E+03  0.50400000000E-02 0.  1.
    8880022    1    1    2    0    0  0.50611652905E+03  0.44581266121E+02 -0.55116585250E+03  0.76506005009E+03  0.15294330000E+03 0.  0.
    8880022    1    1    2    0    0 -0.50611652905E+03 -0.44581266121E+02  0.15803513281E+04  0.16670463112E+04  0.15294330000E+03 0.  0.
<mgrwt>
<rscale>  0 0.53059691E+03</rscale>
<asrwt>0</asrwt>
<pdfrwt beam="1">  1        1 0.26625322E+00 0.53059691E+03</pdfrwt>
<pdfrwt beam="2">  1       -1 0.10791699E+00 0.53059691E+03</pdfrwt>
<totfact> 0.39772773E+00</totfact>
</mgrwt>
</event>
<event>
 4    1  0.8749406E-009  0.1201607E+04  0.7818608E-02  0.9111451E-01
          1   -1    0    0  501    0  0.00000000000E+00  0.00000000000E+00  0.10277468104E+04  0.10277468104E+04  0.50400000000E-02 0. -1.
         -1   -1    0    0    0  501 -0.00000000000E+00 -0.00000000000E+00 -0.19450853491E+04  0.19450853491E+04  0.50400000000E-02 0.  1.
    8880022    1    1    2    0    0  0.11542874706E+04 -0.29679626337E+03 -0.12420108288E+04  0.17281348728E+04  0.15294330000E+03 0.  0.
    8880022    1    1    2    0    0 -0.11542874706E+04  0.29679626337E+03  0.32467229008E+03  0.12446972868E+04  0.15294330000E+03 0.  0.
<mgrwt>
<rscale>  0 0.12016069E+04</rscale>
<asrwt>0</asrwt>
<pdfrwt beam="1">  1        1 0.15811489E+00 0.12016069E+04</pdfrwt>
<pdfrwt beam="2">  1       -1 0.29924390E+00 0.12016069E+04</pdfrwt>
<totfact> 0.47357658E-01</totfact>
</mgrwt>
</event>
<event>
 4    1  0.8749406E-009  0.6659726E+03  0.7818608E-02  0.9777261E-01
          1   -1    0    0  501    0  0.00000000000E+00  0.00000000000E+00  0.96356238821E+03  0.96356238822E+03  0.50400000000E-02 0. -1.
         -1   -1    0    0    0  501 -0.00000000000E+00 -0.00000000000E+00 -0.51808420313E+03  0.51808420316E+03  0.50400000000E-02 0.  1.
    8880022    1    1    2    0    0 -0.20151794093E+02 -0.64785940351E+03 -0.24690162269E+02  0.66643016037E+03  0.15294330000E+03 0.  0.
    8880022    1    1    2    0    0  0.20151794093E+02  0.64785940351E+03  0.47016834734E+03  0.81521643101E+03  0.15294330000E+03 0.  0.
<mgrwt>
<rscale>  0 0.66597264E+03</rscale>
<asrwt>0</asrwt>
<pdfrwt beam="1">  1        1 0.14824037E+00 0.66597264E+03</pdfrwt>
<pdfrwt beam="2">  1       -1 0.79705263E-01 0.66597264E+03</pdfrwt>
<totfact> 0.26381477E+01</totfact>
</mgrwt>
</event>
<event>
 4    1  0.8749406E-009  0.6670593E+03  0.7818608E-02  0.9775285E-01
          1   -1    0    0  501    0  0.00000000000E+00  0.00000000000E+00  0.12771060991E+04  0.12771060991E+04  0.50400000000E-02 0. -1.
         -1   -1    0    0    0  501 -0.00000000000E+00 -0.00000000000E+00 -0.18119304351E+04  0.18119304351E+04  0.50400000000E-02 0.  1.
    8880022    1    1    2    0    0  0.62795176354E+03  0.16508495887E+03  0.11206865063E+04  0.13041880077E+04  0.15294330000E+03 0.  0.
    8880022    1    1    2    0    0 -0.62795176354E+03 -0.16508495887E+03 -0.16555108422E+04  0.17848485266E+04  0.15294330000E+03 0.  0.
<mgrwt>
<rscale>  0 0.66705930E+03</rscale>
<asrwt>0</asrwt>
<pdfrwt beam="1">  1        1 0.19647786E+00 0.66705930E+03</pdfrwt>
<pdfrwt beam="2">  1       -1 0.27875853E+00 0.66705930E+03</pdfrwt>
<totfact> 0.46183433E-01</totfact>
</mgrwt>
</event>
<event>
 4    1  0.8749406E-009  0.3453100E+03  0.7818608E-02  0.1064557E+00
         -1   -1    0    0    0  501 -0.00000000000E+00  0.00000000000E+00  0.14882056651E+03  0.14882056659E+03  0.50400000000E-02 0.  1.
          1   -1    0    0  501    0  0.00000000000E+00 -0.00000000000E+00 -0.19938021551E+04  0.19938021551E+04  0.50400000000E-02 0. -1.
    8880022    1    1    2    0    0  0.62498783317E+02 -0.30321809944E+03 -0.17510387840E+04  0.17847621101E+04  0.15294330000E+03 0.  0.
    8880022    1    1    2    0    0 -0.62498783317E+02  0.30321809944E+03 -0.93942804585E+02  0.35786061154E+03  0.15294330000E+03 0.  0.
<mgrwt>
<rscale>  0 0.34530996E+03</rscale>
<asrwt>0</asrwt>
<pdfrwt beam="1">  1        1 0.30673877E+00 0.34530996E+03</pdfrwt>
<pdfrwt beam="2">  1       -1 0.22895473E-01 0.34530996E+03</pdfrwt>
<totfact> 0.54209889E+01</totfact>
</mgrwt>
</event>
<event>
 4    1  0.8749406E-009  0.1045101E+04  0.7818608E-02  0.9260416E-01
          1   -1    0    0  501    0  0.00000000000E+00  0.00000000000E+00  0.20998854591E+04  0.20998854591E+04  0.50400000000E-02 0. -1.
         -1   -1    0    0    0  501 -0.00000000000E+00 -0.00000000000E+00 -0.74722566155E+03  0.74722566156E+03  0.50400000000E-02 0.  1.
    8880022    1    1    2    0    0 -0.64270411160E+03  0.80980032192E+03 -0.10843995518E+03  0.10507121458E+04  0.15294330000E+03 0.  0.
    8880022    1    1    2    0    0  0.64270411160E+03 -0.80980032192E+03  0.14610997527E+04  0.17963989749E+04  0.15294330000E+03 0.  0.
<mgrwt>
<rscale>  0 0.10451013E+04</rscale>
<asrwt>0</asrwt>
<pdfrwt beam="1">  1        1 0.32305930E+00 0.10451013E+04</pdfrwt>
<pdfrwt beam="2">  1       -1 0.11495780E+00 0.10451013E+04</pdfrwt>
<totfact> 0.17611478E+00</totfact>
</mgrwt>
</event>
<event>
 4    1  0.8749406E-009  0.7778999E+03  0.7818608E-02  0.9592569E-01
         -1   -1    0    0    0  501 -0.00000000000E+00  0.00000000000E+00  0.75390401078E+03  0.75390401079E+03  0.50400000000E-02 0.  1.
          1   -1    0    0  501    0  0.00000000000E+00 -0.00000000000E+00 -0.12072560940E+04  0.12072560940E+04  0.50400000000E-02 0. -1.
    8880022    1    1    2    0    0  0.64835417298E+03  0.40171310033E+03  0.34099203622E+03  0.84935491426E+03  0.15294330000E+03 0.  0.
    8880022    1    1    2    0    0 -0.64835417298E+03 -0.40171310033E+03 -0.79434411941E+03  0.11118051905E+04  0.15294330000E+03 0.  0.
<mgrwt>
<rscale>  0 0.77789987E+03</rscale>
<asrwt>0</asrwt>
<pdfrwt beam="1">  1        1 0.18573171E+00 0.77789987E+03</pdfrwt>
<pdfrwt beam="2">  1       -1 0.11598523E+00 0.77789987E+03</pdfrwt>
<totfact> 0.73255798E+00</totfact>
</mgrwt>
</event>
<event>
 4    1  0.8749406E-009  0.4279927E+03  0.7818608E-02  0.1034496E+00
         -1   -1    0    0    0  501 -0.00000000000E+00  0.00000000000E+00  0.25286449540E+03  0.25286449545E+03  0.50400000000E-02 0.  1.
          1   -1    0    0  501    0  0.00000000000E+00 -0.00000000000E+00 -0.47490202722E+04  0.47490202722E+04  0.50400000000E-02 0. -1.
    8880022    1    1    2    0    0  0.43554507510E+02 -0.39735256658E+03  0.54230842628E+02  0.43141475937E+03  0.15294330000E+03 0.  0.
    8880022    1    1    2    0    0 -0.43554507510E+02  0.39735256658E+03 -0.45503866195E+04  0.45704700083E+04  0.15294330000E+03 0. -1.
<mgrwt>
<rscale>  0 0.42799265E+03</rscale>
<asrwt>0</asrwt>
<pdfrwt beam="1">  1        1 0.73061844E+00 0.42799265E+03</pdfrwt>
<pdfrwt beam="2">  1       -1 0.38902233E-01 0.42799265E+03</pdfrwt>
<totfact> 0.14489318E-01</totfact>
</mgrwt>
</event>
<event>
 4    1  0.8749406E-009  0.1259481E+04  0.7818608E-02  0.9062329E-01
          1   -1    0    0  501    0  0.00000000000E+00  0.00000000000E+00  0.14499674752E+04  0.14499674752E+04  0.50400000000E-02 0. -1.
         -1   -1    0    0    0  501 -0.00000000000E+00 -0.00000000000E+00 -0.14376213750E+04  0.14376213750E+04  0.50400000000E-02 0.  1.
    8880022    1    1    2    0    0  0.20408337523E+03  0.12333894466E+04 -0.69967547407E+03  0.14407765174E+04  0.15294330000E+03 0.  0.
    8880022    1    1    2    0    0 -0.20408337523E+03 -0.12333894466E+04  0.71202157422E+03  0.14468123328E+04  0.15294330000E+03 0.  0.
<mgrwt>
<rscale>  0 0.12594805E+04</rscale>
<asrwt>0</asrwt>
<pdfrwt beam="1">  1        1 0.22307192E+00 0.12594805E+04</pdfrwt>
<pdfrwt beam="2">  1       -1 0.22117252E+00 0.12594805E+04</pdfrwt>
<totfact> 0.74512639E-01</totfact>
</mgrwt>
</event>
<event>
 4    1  0.8749406E-009  0.7248234E+03  0.7818608E-02  0.9675698E-01
         -1   -1    0    0    0  501 -0.00000000000E+00  0.00000000000E+00  0.13606557686E+04  0.13606557686E+04  0.50400000000E-02 0.  1.
          1   -1    0    0  501    0  0.00000000000E+00 -0.00000000000E+00 -0.78513730052E+03  0.78513730053E+03  0.50400000000E-02 0. -1.
    8880022    1    1    2    0    0  0.56557289765E+03 -0.42673719030E+03 -0.47710414563E+03  0.86775419960E+03  0.15294330000E+03 0.  0.
    8880022    1    1    2    0    0 -0.56557289765E+03  0.42673719030E+03  0.10526226137E+04  0.12780388695E+04  0.15294330000E+03 0.  0.
<mgrwt>
<rscale>  0 0.72482342E+03</rscale>
<asrwt>0</asrwt>
<pdfrwt beam="1">  1        1 0.12079036E+00 0.72482342E+03</pdfrwt>
<pdfrwt beam="2">  1       -1 0.20933165E+00 0.72482342E+03</pdfrwt>
<totfact> 0.30919170E+00</totfact>
</mgrwt>
</event>
<event>
 4    1  0.8749406E-009  0.8922319E+03  0.7818608E-02  0.9435344E-01
          1   -1    0    0  501    0  0.00000000000E+00  0.00000000000E+00  0.21805348446E+04  0.21805348446E+04  0.50400000000E-02 0. -1.
         -1   -1    0    0    0  501 -0.00000000000E+00 -0.00000000000E+00 -0.53814582068E+03  0.53814582071E+03  0.50400000000E-02 0.  1.
    8880022    1    1    2    0    0 -0.44689514978E+02 -0.87788889729E+03  0.50327906969E+02  0.89365016643E+03  0.15294330000E+03 0.  0.
    8880022    1    1    2    0    0  0.44689514978E+02  0.87788889729E+03  0.15920611169E+04  0.18250304989E+04  0.15294330000E+03 0.  0.
<mgrwt>
<rscale>  0 0.89223188E+03</rscale>
<asrwt>0</asrwt>
<pdfrwt beam="1">  1        1 0.33546689E+00 0.89223188E+03</pdfrwt>
<pdfrwt beam="2">  1       -1 0.82791667E-01 0.89223188E+03</pdfrwt>
<totfact> 0.33525913E+00</totfact>
</mgrwt>
</event>
<event>
 4    1  0.8749406E-009  0.4597040E+03  0.7818608E-02  0.1024867E+00
         -1   -1    0    0    0  501 -0.00000000000E+00  0.00000000000E+00  0.30785795978E+03  0.30785795982E+03  0.50400000000E-02 0.  1.
          1   -1    0    0  501    0  0.00000000000E+00 -0.00000000000E+00 -0.93191410994E+03  0.93191410996E+03  0.50400000000E-02 0. -1.
    8880022    1    1    2    0    0  0.32583357842E+03  0.28595202974E+03  0.61145173643E+01  0.45974462964E+03  0.15294330000E+03 0.  0.
    8880022    1    1    2    0    0 -0.32583357842E+03 -0.28595202974E+03 -0.63017066753E+03  0.78002744014E+03  0.15294330000E+03 0.  0.
<mgrwt>
<rscale>  0 0.45970397E+03</rscale>
<asrwt>0</asrwt>
<pdfrwt beam="1">  1        1 0.14337140E+00 0.45970397E+03</pdfrwt>
<pdfrwt beam="2">  1       -1 0.47362763E-01 0.45970397E+03</pdfrwt>
<totfact> 0.80297095E+01</totfact>
</mgrwt>
</event>
<event>
 4    1  0.8749406E-009  0.1493228E+04  0.7818608E-02  0.8888968E-01
         -1   -1    0    0    0  501 -0.00000000000E+00  0.00000000000E+00  0.11717663867E+04  0.11717663867E+04  0.50400000000E-02 0.  1.
          1   -1    0    0  501    0  0.00000000000E+00 -0.00000000000E+00 -0.21082701352E+04  0.21082701352E+04  0.50400000000E-02 0. -1.
    8880022    1    1    2    0    0 -0.17007832482E+03  0.14756059787E+04 -0.98013984051E+03  0.17861705968E+04  0.15294330000E+03 0.  0.
    8880022    1    1    2    0    0  0.17007832482E+03 -0.14756059787E+04  0.43636092026E+02  0.14938659252E+04  0.15294330000E+03 0.  0.
<mgrwt>
<rscale>  0 0.14932285E+04</rscale>
<asrwt>0</asrwt>
<pdfrwt beam="1">  1        1 0.32434925E+00 0.14932285E+04</pdfrwt>
<pdfrwt beam="2">  1       -1 0.18027175E+00 0.14932285E+04</pdfrwt>
<totfact> 0.49379248E-01</totfact>
</mgrwt>
</event>
<event>
 4    1  0.8749406E-009  0.1566824E+04  0.7818608E-02  0.8841193E-01
         -1   -1    0    0    0  501 -0.00000000000E+00  0.00000000000E+00  0.53066591550E+03  0.53066591552E+03  0.50400000000E-02 0.  1.
          1   -1    0    0  501    0  0.00000000000E+00 -0.00000000000E+00 -0.48264143883E+04  0.48264143883E+04  0.50400000000E-02 0. -1.
    8880022    1    1    2    0    0  0.13136462367E+04 -0.84016593348E+03 -0.16022491321E+04  0.22410129775E+04  0.15294330000E+03 0.  0.
    8880022    1    1    2    0    0 -0.13136462367E+04  0.84016593348E+03 -0.26934993407E+04  0.31160673263E+04  0.15294330000E+03 0.  0.
<mgrwt>
<rscale>  0 0.15668238E+04</rscale>
<asrwt>0</asrwt>
<pdfrwt beam="1">  1        1 0.74252526E+00 0.15668238E+04</pdfrwt>
<pdfrwt beam="2">  1       -1 0.81640914E-01 0.15668238E+04</pdfrwt>
<totfact> 0.20660419E-02</totfact>
</mgrwt>
</event>
<event>
 4    1  0.8749406E-009  0.1463936E+04  0.7818608E-02  0.8908796E-01
          1   -1    0    0  501    0  0.00000000000E+00  0.00000000000E+00  0.22830117474E+04  0.22830117474E+04  0.50400000000E-02 0. -1.
         -1   -1    0    0    0  501 -0.00000000000E+00 -0.00000000000E+00 -0.10560665156E+04  0.10560665156E+04  0.50400000000E-02 0.  1.
    8880022    1    1    2    0    0  0.21820045788E+03  0.14394804845E+04  0.56944145758E+02  0.14650425911E+04  0.15294330000E+03 0.  0.
    8880022    1    1    2    0    0 -0.21820045788E+03 -0.14394804845E+04  0.11700010860E+04  0.18740356719E+04  0.15294330000E+03 0.  0.
<mgrwt>
<rscale>  0 0.14639355E+04</rscale>
<asrwt>0</asrwt>
<pdfrwt beam="1">  1        1 0.35123257E+00 0.14639355E+04</pdfrwt>
<pdfrwt beam="2">  1       -1 0.16247177E+00 0.14639355E+04</pdfrwt>
<totfact> 0.50957653E-01</totfact>
</mgrwt>
</event>
<event>
 4    1  0.8749406E-009  0.9043632E+03  0.7818608E-02  0.9420144E-01
          1   -1    0    0  501    0  0.00000000000E+00  0.00000000000E+00  0.11306186253E+04  0.11306186253E+04  0.50400000000E-02 0. -1.
         -1   -1    0    0    0  501 -0.00000000000E+00 -0.00000000000E+00 -0.23867561832E+04  0.23867561832E+04  0.50400000000E-02 0.  1.
    8880022    1    1    2    0    0 -0.88919276682E+03  0.61785212213E+02  0.84011079769E+03  0.12343658268E+04  0.15294330000E+03 0.  0.
    8880022    1    1    2    0    0  0.88919276682E+03 -0.61785212213E+02 -0.20962483556E+04  0.22830089817E+04  0.15294330000E+03 0.  0.
<mgrwt>
<rscale>  0 0.90436322E+03</rscale>
<asrwt>0</asrwt>
<pdfrwt beam="1">  1        1 0.17394133E+00 0.90436322E+03</pdfrwt>
<pdfrwt beam="2">  1       -1 0.36719326E+00 0.90436322E+03</pdfrwt>
<totfact> 0.14956660E-01</totfact>
</mgrwt>
</event>
<event>
 4    1  0.8749406E-009  0.5009219E+03  0.7818608E-02  0.1013539E+00
         -1   -1    0    0    0  501 -0.00000000000E+00  0.00000000000E+00  0.21309748356E+04  0.21309748356E+04  0.50400000000E-02 0.  1.
          1   -1    0    0  501    0  0.00000000000E+00 -0.00000000000E+00 -0.16330360040E+03  0.16330360048E+03  0.50400000000E-02 0. -1.
    8880022    1    1    2    0    0 -0.28758785296E+03 -0.38055791685E+03  0.37796686270E+03  0.62752028140E+03  0.15294330000E+03 0.  0.
    8880022    1    1    2    0    0  0.28758785296E+03  0.38055791685E+03  0.15897043725E+04  0.16667581547E+04  0.15294330000E+03 0.  0.
<mgrwt>
<rscale>  0 0.50092190E+03</rscale>
<asrwt>0</asrwt>
<pdfrwt beam="1">  1        1 0.25123632E-01 0.50092190E+03</pdfrwt>
<pdfrwt beam="2">  1       -1 0.32784227E+00 0.50092190E+03</pdfrwt>
<totfact> 0.46236581E+00</totfact>
</mgrwt>
</event>
<event>
 4    1  0.8749406E-009  0.5015131E+03  0.7818608E-02  0.1013385E+00
          1   -1    0    0  501    0  0.00000000000E+00  0.00000000000E+00  0.10369096129E+04  0.10369096129E+04  0.50400000000E-02 0. -1.
         -1   -1    0    0    0  501 -0.00000000000E+00 -0.00000000000E+00 -0.43568319668E+03  0.43568319671E+03  0.50400000000E-02 0.  1.
    8880022    1    1    2    0    0  0.18358401190E+03  0.44093153097E+03 -0.18959628526E+03  0.53615492988E+03  0.15294330000E+03 0.  0.
    8880022    1    1    2    0    0 -0.18358401190E+03 -0.44093153097E+03  0.79082270149E+03  0.93643787975E+03  0.15294330000E+03 0.  0.
<mgrwt>
<rscale>  0 0.50151307E+03</rscale>
<asrwt>0</asrwt>
<pdfrwt beam="1">  1        1 0.15952455E+00 0.50151307E+03</pdfrwt>
<pdfrwt beam="2">  1       -1 0.67028185E-01 0.50151307E+03</pdfrwt>
<totfact> 0.33901683E+01</totfact>
</mgrwt>
</event>
<event>
 4    1  0.8749406E-009  0.1054219E+04  0.7818608E-02  0.9250999E-01
          1   -1    0    0  501    0  0.00000000000E+00  0.00000000000E+00  0.18164979724E+04  0.18164979724E+04  0.50400000000E-02 0. -1.
         -1   -1    0    0    0  501 -0.00000000000E+00 -0.00000000000E+00 -0.93941815406E+03  0.93941815407E+03  0.50400000000E-02 0.  1.
    8880022    1    1    2    0    0 -0.78098993029E+03  0.69140554867E+03  0.12522581468E+04  0.16369267006E+04  0.15294330000E+03 0.  0.
    8880022    1    1    2    0    0  0.78098993029E+03 -0.69140554867E+03 -0.37517832849E+03  0.11189894258E+04  0.15294330000E+03 0.  0.
<mgrwt>
<rscale>  0 0.10542194E+04</rscale>
<asrwt>0</asrwt>
<pdfrwt beam="1">  1        1 0.27946122E+00 0.10542194E+04</pdfrwt>
<pdfrwt beam="2">  1       -1 0.14452587E+00 0.10542194E+04</pdfrwt>
<totfact> 0.15315076E+00</totfact>
</mgrwt>
</event>
<event>
 4    1  0.8749406E-009  0.3827997E+03  0.7818608E-02  0.1049904E+00
          1   -1    0    0  501    0  0.00000000000E+00  0.00000000000E+00  0.45977586237E+03  0.45977586240E+03  0.50400000000E-02 0. -1.
         -1   -1    0    0    0  501 -0.00000000000E+00 -0.00000000000E+00 -0.59299723773E+03  0.59299723775E+03  0.50400000000E-02 0.  1.
    8880022    1    1    2    0    0  0.30719909728E+03  0.16962513909E+03 -0.42460856799E+03  0.57168878090E+03  0.15294330000E+03 0.  1.
    8880022    1    1    2    0    0 -0.30719909728E+03 -0.16962513909E+03  0.29138719263E+03  0.48108431925E+03  0.15294330000E+03 0.  0.
<mgrwt>
<rscale>  0 0.38279972E+03</rscale>
<asrwt>0</asrwt>
<pdfrwt beam="1">  1        1 0.70734748E-01 0.38279972E+03</pdfrwt>
<pdfrwt beam="2">  1       -1 0.91230344E-01 0.38279972E+03</pdfrwt>
<totfact> 0.61867108E+01</totfact>
</mgrwt>
</event>
<event>
 4    1  0.8749406E-009  0.2100958E+04  0.7818608E-02  0.8560821E-01
          1   -1    0    0  501    0  0.00000000000E+00  0.00000000000E+00  0.41391848016E+04  0.41391848016E+04  0.50400000000E-02 0. -1.
         -1   -1    0    0    0  501 -0.00000000000E+00 -0.00000000000E+00 -0.15511753429E+04  0.15511753429E+04  0.50400000000E-02 0.  1.
    8880022    1    1    2    0    0  0.19415302681E+04  0.78809525125E+03 -0.29655394081E+03  0.21217845790E+04  0.15294330000E+03 0.  0.
    8880022    1    1    2    0    0 -0.19415302681E+04 -0.78809525125E+03  0.28845633995E+04  0.35685755654E+04  0.15294330000E+03 0.  0.
<mgrwt>
<rscale>  0 0.21009582E+04</rscale>
<asrwt>0</asrwt>
<pdfrwt beam="1">  1        1 0.63679767E+00 0.21009582E+04</pdfrwt>
<pdfrwt beam="2">  1       -1 0.23864236E+00 0.21009582E+04</pdfrwt>
<totfact> 0.52485569E-03</totfact>
</mgrwt>
</event>
<event>
 4    1  0.8749406E-009  0.7752321E+03  0.7818608E-02  0.9596576E-01
          1   -1    0    0  501    0  0.00000000000E+00  0.00000000000E+00  0.94675007093E+03  0.94675007095E+03  0.50400000000E-02 0. -1.
         -1   -1    0    0    0  501 -0.00000000000E+00 -0.00000000000E+00 -0.13513687862E+04  0.13513687862E+04  0.50400000000E-02 0.  1.
    8880022    1    1    2    0    0  0.15766211446E+03 -0.74346209283E+03  0.63442644908E+03  0.10017393863E+04  0.15294330000E+03 0.  0.
    8880022    1    1    2    0    0 -0.15766211446E+03  0.74346209283E+03 -0.10390451643E+04  0.12963794708E+04  0.15294330000E+03 0.  0.
<mgrwt>
<rscale>  0 0.77523215E+03</rscale>
<asrwt>0</asrwt>
<pdfrwt beam="1">  1        1 0.14565386E+00 0.77523215E+03</pdfrwt>
<pdfrwt beam="2">  1       -1 0.20790289E+00 0.77523215E+03</pdfrwt>
<totfact> 0.23002292E+00</totfact>
</mgrwt>
</event>
<event>
 4    1  0.8749406E-009  0.1020228E+04  0.7818608E-02  0.9286633E-01
         -1   -1    0    0    0  501 -0.00000000000E+00  0.00000000000E+00  0.90667805830E+03  0.90667805831E+03  0.50400000000E-02 0.  1.
          1   -1    0    0  501    0  0.00000000000E+00 -0.00000000000E+00 -0.14971074516E+04  0.14971074516E+04  0.50400000000E-02 0. -1.
    8880022    1    1    2    0    0 -0.42594755102E+03 -0.91435373868E+03 -0.87560381154E+03  0.13444507293E+04  0.15294330000E+03 0.  0.
    8880022    1    1    2    0    0  0.42594755102E+03  0.91435373868E+03  0.28517441823E+03  0.10593347806E+04  0.15294330000E+03 0.  0.
<mgrwt>
<rscale>  0 0.10202283E+04</rscale>
<asrwt>0</asrwt>
<pdfrwt beam="1">  1        1 0.23032422E+00 0.10202283E+04</pdfrwt>
<pdfrwt beam="2">  1       -1 0.13948893E+00 0.10202283E+04</pdfrwt>
<totfact> 0.27888015E+00</totfact>
</mgrwt>
</event>
<event>
 4    1  0.8749406E-009  0.3988784E+03  0.7818608E-02  0.1044169E+00
         -1   -1    0    0    0  501 -0.00000000000E+00  0.00000000000E+00  0.73694142687E+03  0.73694142688E+03  0.50400000000E-02 0.  1.
          1   -1    0    0  501    0  0.00000000000E+00 -0.00000000000E+00 -0.89524731935E+03  0.89524731936E+03  0.50400000000E-02 0. -1.
    8880022    1    1    2    0    0 -0.22365010263E+03  0.29273362567E+03  0.63175852259E+03  0.74714311071E+03  0.15294330000E+03 0.  0.
    8880022    1    1    2    0    0  0.22365010263E+03 -0.29273362567E+03 -0.79006441507E+03  0.88504563553E+03  0.15294330000E+03 0.  0.
<mgrwt>
<rscale>  0 0.39887842E+03</rscale>
<asrwt>0</asrwt>
<pdfrwt beam="1">  1        1 0.13773036E+00 0.39887842E+03</pdfrwt>
<pdfrwt beam="2">  1       -1 0.11337560E+00 0.39887842E+03</pdfrwt>
<totfact> 0.14285895E+01</totfact>
</mgrwt>
</event>
<event>
 4    1  0.8749406E-009  0.6210063E+03  0.7818608E-02  0.9862758E-01
         -1   -1    0    0    0  501 -0.00000000000E+00  0.00000000000E+00  0.85119857243E+03  0.85119857245E+03  0.50400000000E-02 0.  1.
          1   -1    0    0  501    0  0.00000000000E+00 -0.00000000000E+00 -0.97005705554E+03  0.97005705556E+03  0.50400000000E-02 0. -1.
    8880022    1    1    2    0    0  0.15398363774E+03 -0.58184728578E+03  0.60535989232E+03  0.86724245566E+03  0.15294330000E+03 0.  0.
    8880022    1    1    2    0    0 -0.15398363774E+03  0.58184728578E+03 -0.72421837543E+03  0.95401317234E+03  0.15294330000E+03 0.  0.
<mgrwt>
<rscale>  0 0.62100634E+03</rscale>
<asrwt>0</asrwt>
<pdfrwt beam="1">  1        1 0.14923955E+00 0.62100634E+03</pdfrwt>
<pdfrwt beam="2">  1       -1 0.13095363E+00 0.62100634E+03</pdfrwt>
<totfact> 0.83868970E+00</totfact>
</mgrwt>
</event>
<event>
 4    1  0.8749406E-009  0.8668109E+03  0.7818608E-02  0.9468048E-01
          1   -1    0    0  501    0  0.00000000000E+00  0.00000000000E+00  0.17329044476E+04  0.17329044476E+04  0.50400000000E-02 0. -1.
         -1   -1    0    0    0  501 -0.00000000000E+00 -0.00000000000E+00 -0.97952115599E+03  0.97952115601E+03  0.50400000000E-02 0.  1.
    8880022    1    1    2    0    0 -0.81059340326E+03 -0.26628533607E+03 -0.63580104919E+03  0.10749903129E+04  0.15294330000E+03 0.  0.
    8880022    1    1    2    0    0  0.81059340326E+03  0.26628533607E+03  0.13891843408E+04  0.16374352907E+04  0.15294330000E+03 0.  0.
<mgrwt>
<rscale>  0 0.86681094E+03</rscale>
<asrwt>0</asrwt>
<pdfrwt beam="1">  1        1 0.26660068E+00 0.86681094E+03</pdfrwt>
<pdfrwt beam="2">  1       -1 0.15069557E+00 0.86681094E+03</pdfrwt>
<totfact> 0.16049077E+00</totfact>
</mgrwt>
</event>
<event>
 4    1  0.8749406E-009  0.7523944E+03  0.7818608E-02  0.9631601E-01
         -1   -1    0    0    0  501 -0.00000000000E+00  0.00000000000E+00  0.42494641041E+03  0.42494641044E+03  0.50400000000E-02 0.  1.
          1   -1    0    0  501    0  0.00000000000E+00 -0.00000000000E+00 -0.18575246275E+04  0.18575246275E+04  0.50400000000E-02 0. -1.
    8880022    1    1    2    0    0 -0.67169843912E+03 -0.30253408683E+03 -0.13232178631E+04  0.15221704350E+04  0.15294330000E+03 0.  0.
    8880022    1    1    2    0    0  0.67169843912E+03  0.30253408683E+03 -0.10936035394E+03  0.76030060294E+03  0.15294330000E+03 0.  0.
<mgrwt>
<rscale>  0 0.75239439E+03</rscale>
<asrwt>0</asrwt>
<pdfrwt beam="1">  1        1 0.28577302E+00 0.75239439E+03</pdfrwt>
<pdfrwt beam="2">  1       -1 0.65376372E-01 0.75239439E+03</pdfrwt>
<totfact> 0.92177492E+00</totfact>
</mgrwt>
</event>
<event>
 4    1  0.8749406E-009  0.1121483E+04  0.7818608E-02  0.9184502E-01
         -1   -1    0    0    0  501 -0.00000000000E+00  0.00000000000E+00  0.75791420947E+03  0.75791420949E+03  0.50400000000E-02 0.  1.
          1   -1    0    0  501    0  0.00000000000E+00 -0.00000000000E+00 -0.24134906242E+04  0.24134906242E+04  0.50400000000E-02 0. -1.
    8880022    1    1    2    0    0  0.17373962716E+03 -0.10973367566E+04  0.58540070911E+02  0.11230102441E+04  0.15294330000E+03 0.  0.
    8880022    1    1    2    0    0 -0.17373962716E+03  0.10973367566E+04 -0.17141164857E+04  0.20483945896E+04  0.15294330000E+03 0.  0.
<mgrwt>
<rscale>  0 0.11214834E+04</rscale>
<asrwt>0</asrwt>
<pdfrwt beam="1">  1        1 0.37130625E+00 0.11214834E+04</pdfrwt>
<pdfrwt beam="2">  1       -1 0.11660219E+00 0.11214834E+04</pdfrwt>
<totfact> 0.10310222E+00</totfact>
</mgrwt>
</event>
<event>
 4    1  0.8749406E-009  0.1447338E+04  0.7818608E-02  0.8920248E-01
          1   -1    0    0  501    0  0.00000000000E+00  0.00000000000E+00  0.11367736291E+04  0.11367736292E+04  0.50400000000E-02 0. -1.
         -1   -1    0    0    0  501 -0.00000000000E+00 -0.00000000000E+00 -0.23190323585E+04  0.23190323585E+04  0.50400000000E-02 0.  1.
    8880022    1    1    2    0    0  0.13334352063E+04 -0.54161480916E+03 -0.13741964381E+04  0.19957964712E+04  0.15294330000E+03 0.  0.
    8880022    1    1    2    0    0 -0.13334352063E+04  0.54161480916E+03  0.19193770879E+03  0.14600095164E+04  0.15294330000E+03 0.  0.
<mgrwt>
<rscale>  0 0.14473381E+04</rscale>
<asrwt>0</asrwt>
<pdfrwt beam="1">  1        1 0.17488825E+00 0.14473381E+04</pdfrwt>
<pdfrwt beam="2">  1       -1 0.35677421E+00 0.14473381E+04</pdfrwt>
<totfact> 0.15943211E-01</totfact>
</mgrwt>
</event>
<event>
 4    1  0.8749406E-009  0.8234599E+03  0.7818608E-02  0.9526667E-01
          1   -1    0    0  501    0  0.00000000000E+00  0.00000000000E+00  0.26082854971E+04  0.26082854971E+04  0.50400000000E-02 0. -1.
         -1   -1    0    0    0  501 -0.00000000000E+00 -0.00000000000E+00 -0.29793742209E+03  0.29793742213E+03  0.50400000000E-02 0.  1.
    8880022    1    1    2    0    0  0.69749744747E+02  0.80612003186E+03  0.16738780136E+04  0.18654634250E+04  0.15294330000E+03 0.  0.
    8880022    1    1    2    0    0 -0.69749744747E+02 -0.80612003186E+03  0.63647006135E+03  0.10407594942E+04  0.15294330000E+03 0.  0.
<mgrwt>
<rscale>  0 0.82345989E+03</rscale>
<asrwt>0</asrwt>
<pdfrwt beam="1">  1        1 0.40127469E+00 0.82345989E+03</pdfrwt>
<pdfrwt beam="2">  1       -1 0.45836526E-01 0.82345989E+03</pdfrwt>
<totfact> 0.56376561E+00</totfact>
</mgrwt>
</event>
<event>
 4    1  0.8749406E-009  0.1148361E+04  0.7818608E-02  0.9159297E-01
          1   -1    0    0  501    0  0.00000000000E+00  0.00000000000E+00  0.13464506262E+04  0.13464506263E+04  0.50400000000E-02 0. -1.
         -1   -1    0    0    0  501 -0.00000000000E+00 -0.00000000000E+00 -0.10968021387E+04  0.10968021387E+04  0.50400000000E-02 0.  1.
    8880022    1    1    2    0    0 -0.86757816025E+03 -0.73664672463E+03 -0.27483264289E+03  0.11807899456E+04  0.15294330000E+03 0.  0.
    8880022    1    1    2    0    0  0.86757816025E+03  0.73664672463E+03  0.52448113044E+03  0.12624628194E+04  0.15294330000E+03 0.  0.
<mgrwt>
<rscale>  0 0.11483605E+04</rscale>
<asrwt>0</asrwt>
<pdfrwt beam="1">  1        1 0.20714625E+00 0.11483605E+04</pdfrwt>
<pdfrwt beam="2">  1       -1 0.16873879E+00 0.11483605E+04</pdfrwt>
<totfact> 0.20779296E+00</totfact>
</mgrwt>
</event>
<event>
 4    1  0.8749406E-009  0.1430208E+04  0.7818608E-02  0.8932238E-01
          1   -1    0    0  501    0  0.00000000000E+00  0.00000000000E+00  0.18469728268E+04  0.18469728268E+04  0.50400000000E-02 0. -1.
         -1   -1    0    0    0  501 -0.00000000000E+00 -0.00000000000E+00 -0.16585191749E+04  0.16585191749E+04  0.50400000000E-02 0.  1.
    8880022    1    1    2    0    0  0.12164495396E+04 -0.73644710080E+03 -0.91606732828E+03  0.16984330477E+04  0.15294330000E+03 0.  0.
    8880022    1    1    2    0    0 -0.12164495396E+04  0.73644710080E+03  0.11045209801E+04  0.18070589540E+04  0.15294330000E+03 0.  0.
<mgrwt>
<rscale>  0 0.14302082E+04</rscale>
<asrwt>0</asrwt>
<pdfrwt beam="1">  1        1 0.28414967E+00 0.14302082E+04</pdfrwt>
<pdfrwt beam="2">  1       -1 0.25515680E+00 0.14302082E+04</pdfrwt>
<totfact> 0.23246928E-01</totfact>
</mgrwt>
</event>
<event>
 4    1  0.8749406E-009  0.3226625E+03  0.7818608E-02  0.1074430E+00
          1   -1    0    0  501    0  0.00000000000E+00  0.00000000000E+00  0.36330990230E+04  0.36330990230E+04  0.50400000000E-02 0. -1.
         -1   -1    0    0    0  501 -0.00000000000E+00 -0.00000000000E+00 -0.24458814673E+03  0.24458814679E+03  0.50400000000E-02 0.  1.
    8880022    1    1    2    0    0 -0.13736122527E+03  0.24869930204E+03 -0.12747217264E+03  0.34692975781E+03  0.15294330000E+03 0.  0.
    8880022    1    1    2    0    0  0.13736122527E+03 -0.24869930204E+03  0.35159830489E+04  0.35307574120E+04  0.15294330000E+03 0.  0.
<mgrwt>
<rscale>  0 0.32266252E+03</rscale>
<asrwt>0</asrwt>
<pdfrwt beam="1">  1        1 0.55893832E+00 0.32266252E+03</pdfrwt>
<pdfrwt beam="2">  1       -1 0.37628945E-01 0.32266252E+03</pdfrwt>
<totfact> 0.16782189E+00</totfact>
</mgrwt>
</event>
<event>
 4    1  0.8749406E-009  0.4346908E+03  0.7818608E-02  0.1032388E+00
          1   -1    0    0  501    0  0.00000000000E+00  0.00000000000E+00  0.96564977824E+03  0.96564977826E+03  0.50400000000E-02 0. -1.
         -1   -1    0    0    0  501 -0.00000000000E+00 -0.00000000000E+00 -0.34366957489E+03  0.34366957493E+03  0.50400000000E-02 0.  1.
    8880022    1    1    2    0    0  0.40649894025E+03 -0.17973237182E+02 -0.11860968718E+03  0.45058221956E+03  0.15294330000E+03 0.  0.
    8880022    1    1    2    0    0 -0.40649894025E+03  0.17973237182E+02  0.74058989053E+03  0.85873713362E+03  0.15294330000E+03 0. -1.
<mgrwt>
<rscale>  0 0.43469079E+03</rscale>
<asrwt>0</asrwt>
<pdfrwt beam="1">  1        1 0.14856150E+00 0.43469079E+03</pdfrwt>
<pdfrwt beam="2">  1       -1 0.52872243E-01 0.43469079E+03</pdfrwt>
<totfact> 0.61705784E+01</totfact>
</mgrwt>
</event>
<event>
 4    1  0.8749406E-009  0.9112243E+03  0.7818608E-02  0.9411658E-01
          1   -1    0    0  501    0  0.00000000000E+00  0.00000000000E+00  0.12522926860E+04  0.12522926860E+04  0.50400000000E-02 0. -1.
         -1   -1    0    0    0  501 -0.00000000000E+00 -0.00000000000E+00 -0.94786400308E+03  0.94786400309E+03  0.50400000000E-02 0.  1.
    8880022    1    1    2    0    0  0.52126626894E+03  0.73158705651E+03  0.75523614513E+03  0.11835165535E+04  0.15294330000E+03 0.  0.
    8880022    1    1    2    0    0 -0.52126626894E+03 -0.73158705651E+03 -0.45080746222E+03  0.10166401356E+04  0.15294330000E+03 0.  0.
<mgrwt>
<rscale>  0 0.91122434E+03</rscale>
<asrwt>0</asrwt>
<pdfrwt beam="1">  1        1 0.19266041E+00 0.91122434E+03</pdfrwt>
<pdfrwt beam="2">  1       -1 0.14582523E+00 0.91122434E+03</pdfrwt>
<totfact> 0.37406683E+00</totfact>
</mgrwt>
</event>
<event>
 4    1  0.8749406E-009  0.5599540E+03  0.7818608E-02  0.9992159E-01
         -1   -1    0    0    0  501 -0.00000000000E+00  0.00000000000E+00  0.43240597564E+03  0.43240597567E+03  0.50400000000E-02 0.  1.
          1   -1    0    0  501    0  0.00000000000E+00 -0.00000000000E+00 -0.17544913117E+04  0.17544913117E+04  0.50400000000E-02 0. -1.
    8880022    1    1    2    0    0  0.15390915403E+03  0.51620618221E+03 -0.14985867921E+04  0.15997846345E+04  0.15294330000E+03 0.  0.
    8880022    1    1    2    0    0 -0.15390915403E+03 -0.51620618221E+03  0.17650145600E+03  0.58711265293E+03  0.15294330000E+03 0.  0.
<mgrwt>
<rscale>  0 0.55995402E+03</rscale>
<asrwt>0</asrwt>
<pdfrwt beam="1">  1        1 0.26992174E+00 0.55995402E+03</pdfrwt>
<pdfrwt beam="2">  1       -1 0.66523997E-01 0.55995402E+03</pdfrwt>
<totfact> 0.10795645E+01</totfact>
</mgrwt>
</event>
<event>
 4    1  0.8749406E-009  0.7607565E+03  0.7818608E-02  0.9618625E-01
          1   -1    0    0  501    0  0.00000000000E+00  0.00000000000E+00  0.14966458160E+04  0.14966458160E+04  0.50400000000E-02 0. -1.
         -1   -1    0    0    0  501 -0.00000000000E+00 -0.00000000000E+00 -0.53084730850E+03  0.53084730852E+03  0.50400000000E-02 0.  1.
    8880022    1    1    2    0    0 -0.25569924964E+03 -0.69998336613E+03  0.10111624254E+04  0.12653852863E+04  0.15294330000E+03 0.  0.
    8880022    1    1    2    0    0  0.25569924964E+03  0.69998336613E+03 -0.45363917883E+02  0.76210783829E+03  0.15294330000E+03 0.  0.
<mgrwt>
<rscale>  0 0.76075651E+03</rscale>
<asrwt>0</asrwt>
<pdfrwt beam="1">  1        1 0.23025320E+00 0.76075651E+03</pdfrwt>
<pdfrwt beam="2">  1       -1 0.81668819E-01 0.76075651E+03</pdfrwt>
<totfact> 0.10175839E+01</totfact>
</mgrwt>
</event>
<event>
 4    1  0.8749406E-009  0.5255135E+03  0.7818608E-02  0.1007326E+00
         -1   -1    0    0    0  501 -0.00000000000E+00  0.00000000000E+00  0.79136084129E+03  0.79136084131E+03  0.50400000000E-02 0.  1.
          1   -1    0    0  501    0  0.00000000000E+00 -0.00000000000E+00 -0.72915172529E+03  0.72915172531E+03  0.50400000000E-02 0. -1.
    8880022    1    1    2    0    0 -0.32132992094E+03 -0.38667804432E+03 -0.51786000370E+03  0.73779635707E+03  0.15294330000E+03 0. -1.
    8880022    1    1    2    0    0  0.32132992094E+03  0.38667804432E+03  0.58006911970E+03  0.78271620955E+03  0.15294330000E+03 0.  0.
<mgrwt>
<rscale>  0 0.52551354E+03</rscale>
<asrwt>0</asrwt>
<pdfrwt beam="1">  1        1 0.11217719E+00 0.52551354E+03</pdfrwt>
<pdfrwt beam="2">  1       -1 0.12174782E+00 0.52551354E+03</pdfrwt>
<totfact> 0.16234096E+01</totfact>
</mgrwt>
</event>
<event>
 4    1  0.8749406E-009  0.1073747E+04  0.7818608E-02  0.9231165E-01
          1   -1    0    0  501    0  0.00000000000E+00  0.00000000000E+00  0.11432827442E+04  0.11432827442E+04  0.50400000000E-02 0. -1.
         -1   -1    0    0    0  501 -0.00000000000E+00 -0.00000000000E+00 -0.15546915383E+04  0.15546915383E+04  0.50400000000E-02 0.  1.
    8880022    1    1    2    0    0  0.70543941557E+03 -0.79491877193E+03 -0.10053212717E+04  0.14709191464E+04  0.15294330000E+03 0.  0.
    8880022    1    1    2    0    0 -0.70543941557E+03  0.79491877193E+03  0.59391247758E+03  0.12270551361E+04  0.15294330000E+03 0.  0.
<mgrwt>
<rscale>  0 0.10737468E+04</rscale>
<asrwt>0</asrwt>
<pdfrwt beam="1">  1        1 0.17588965E+00 0.10737468E+04</pdfrwt>
<pdfrwt beam="2">  1       -1 0.23918332E+00 0.10737468E+04</pdfrwt>
<totfact> 0.96313404E-01</totfact>
</mgrwt>
</event>
<event>
 4    1  0.8749406E-009  0.3519580E+03  0.7818608E-02  0.1061814E+00
          1   -1    0    0  501    0  0.00000000000E+00  0.00000000000E+00  0.12595306696E+04  0.12595306696E+04  0.50400000000E-02 0. -1.
         -1   -1    0    0    0  501 -0.00000000000E+00 -0.00000000000E+00 -0.48295554597E+03  0.48295554600E+03  0.50400000000E-02 0.  1.
    8880022    1    1    2    0    0  0.27321273996E+03 -0.16074075193E+03 -0.38920049460E+03  0.52473942926E+03  0.15294330000E+03 0.  0.
    8880022    1    1    2    0    0 -0.27321273996E+03  0.16074075193E+03  0.11657756182E+04  0.12177467863E+04  0.15294330000E+03 0.  0.
<mgrwt>
<rscale>  0 0.35195801E+03</rscale>
<asrwt>0</asrwt>
<pdfrwt beam="1">  1        1 0.19377395E+00 0.35195801E+03</pdfrwt>
<pdfrwt beam="2">  1       -1 0.74300854E-01 0.35195801E+03</pdfrwt>
<totfact> 0.19615201E+01</totfact>
</mgrwt>
</event>
<event>
 4    1  0.8749406E-009  0.5762626E+03  0.7818608E-02  0.9955915E-01
         -1   -1    0    0    0  501 -0.00000000000E+00  0.00000000000E+00  0.23176222675E+03  0.23176222680E+03  0.50400000000E-02 0.  1.
          1   -1    0    0  501    0  0.00000000000E+00 -0.00000000000E+00 -0.32468310890E+04  0.32468310890E+04  0.50400000000E-02 0. -1.
    8880022    1    1    2    0    0 -0.54615759072E+03 -0.10197457846E+03 -0.20748104594E+03  0.61247609422E+03  0.15294330000E+03 0.  0.
    8880022    1    1    2    0    0  0.54615759072E+03  0.10197457846E+03 -0.28075878163E+04  0.28661172216E+04  0.15294330000E+03 0.  0.
<mgrwt>
<rscale>  0 0.57626260E+03</rscale>
<asrwt>0</asrwt>
<pdfrwt beam="1">  1        1 0.49951244E+00 0.57626260E+03</pdfrwt>
<pdfrwt beam="2">  1       -1 0.35655729E-01 0.57626260E+03</pdfrwt>
<totfact> 0.32934426E+00</totfact>
</mgrwt>
</event>
<event>
 4    1  0.8749406E-009  0.4795383E+03  0.7818608E-02  0.1019262E+00
          1   -1    0    0  501    0  0.00000000000E+00  0.00000000000E+00  0.69977742537E+03  0.69977742539E+03  0.50400000000E-02 0. -1.
         -1   -1    0    0    0  501 -0.00000000000E+00 -0.00000000000E+00 -0.58579722817E+03  0.58579722820E+03  0.50400000000E-02 0.  1.
    8880022    1    1    2    0    0 -0.23390927646E+03  0.38968166708E+03 -0.36891668205E+03  0.60502605116E+03  0.15294330000E+03 0.  0.
    8880022    1    1    2    0    0  0.23390927646E+03 -0.38968166708E+03  0.48289687924E+03  0.68054860243E+03  0.15294330000E+03 0. -1.
<mgrwt>
<rscale>  0 0.47953832E+03</rscale>
<asrwt>0</asrwt>
<pdfrwt beam="1">  1        1 0.10765806E+00 0.47953832E+03</pdfrwt>
<pdfrwt beam="2">  1       -1 0.90122651E-01 0.47953832E+03</pdfrwt>
<totfact> 0.34774840E+01</totfact>
</mgrwt>
</event>
<event>
 4    1  0.8749406E-009  0.3205475E+03  0.7818608E-02  0.1075398E+00
          1   -1    0    0  501    0  0.00000000000E+00  0.00000000000E+00  0.35953846281E+04  0.35953846281E+04  0.50400000000E-02 0. -1.
         -1   -1    0    0    0  501 -0.00000000000E+00 -0.00000000000E+00 -0.15657948939E+03  0.15657948947E+03  0.50400000000E-02 0.  1.
    8880022    1    1    2    0    0  0.27898199174E+03 -0.39090669183E+02  0.23238283672E+02  0.32138871009E+03  0.15294330000E+03 0.  0.
    8880022    1    1    2    0    0 -0.27898199174E+03  0.39090669183E+02  0.34155668551E+04  0.34305754075E+04  0.15294330000E+03 0.  0.
<mgrwt>
<rscale>  0 0.32054748E+03</rscale>
<asrwt>0</asrwt>
<pdfrwt beam="1">  1        1 0.55313605E+00 0.32054748E+03</pdfrwt>
<pdfrwt beam="2">  1       -1 0.24089154E-01 0.32054748E+03</pdfrwt>
<totfact> 0.38642987E+00</totfact>
</mgrwt>
</event>
<event>
 4    1  0.8749406E-009  0.2673490E+03  0.7818608E-02  0.1102806E+00
          1   -1    0    0  501    0  0.00000000000E+00  0.00000000000E+00  0.13070628684E+04  0.13070628684E+04  0.50400000000E-02 0. -1.
         -1   -1    0    0    0  501 -0.00000000000E+00 -0.00000000000E+00 -0.34593365792E+03  0.34593365796E+03  0.50400000000E-02 0.  1.
    8880022    1    1    2    0    0 -0.50939536587E+02  0.21328149019E+03 -0.27780027878E+03  0.38554957963E+03  0.15294330000E+03 0.  1.
    8880022    1    1    2    0    0  0.50939536587E+02 -0.21328149019E+03  0.12389294892E+04  0.12674469467E+04  0.15294330000E+03 0.  0.
<mgrwt>
<rscale>  0 0.26734899E+03</rscale>
<asrwt>0</asrwt>
<pdfrwt beam="1">  1        1 0.20108659E+00 0.26734899E+03</pdfrwt>
<pdfrwt beam="2">  1       -1 0.53220564E-01 0.26734899E+03</pdfrwt>
<totfact> 0.35895765E+01</totfact>
</mgrwt>
</event>
<event>
 4    1  0.8749406E-009  0.7792359E+03  0.7818608E-02  0.9590568E-01
          1   -1    0    0  501    0  0.00000000000E+00  0.00000000000E+00  0.12127124963E+04  0.12127124963E+04  0.50400000000E-02 0. -1.
         -1   -1    0    0    0  501 -0.00000000000E+00 -0.00000000000E+00 -0.10822032588E+04  0.10822032589E+04  0.50400000000E-02 0.  1.
    8880022    1    1    2    0    0 -0.40486212908E+03  0.64799969484E+03  0.90637343014E+03  0.11952913435E+04  0.15294330000E+03 0.  0.
    8880022    1    1    2    0    0  0.40486212908E+03 -0.64799969484E+03 -0.77586419269E+03  0.10996244116E+04  0.15294330000E+03 0.  0.
<mgrwt>
<rscale>  0 0.77923591E+03</rscale>
<asrwt>0</asrwt>
<pdfrwt beam="1">  1        1 0.18657115E+00 0.77923591E+03</pdfrwt>
<pdfrwt beam="2">  1       -1 0.16649281E+00 0.77923591E+03</pdfrwt>
<totfact> 0.28327902E+00</totfact>
</mgrwt>
</event>
<event>
 4    1  0.8749406E-009  0.5441124E+03  0.7818608E-02  0.1002866E+00
         -1   -1    0    0    0  501 -0.00000000000E+00  0.00000000000E+00  0.47542298841E+03  0.47542298844E+03  0.50400000000E-02 0.  1.
          1   -1    0    0  501    0  0.00000000000E+00 -0.00000000000E+00 -0.16044756972E+04  0.16044756972E+04  0.50400000000E-02 0. -1.
    8880022    1    1    2    0    0  0.42757723785E+03 -0.29974047244E+03  0.24895196271E+03  0.59836057516E+03  0.15294330000E+03 0.  0.
    8880022    1    1    2    0    0 -0.42757723785E+03  0.29974047244E+03 -0.13780046715E+04  0.14815381105E+04  0.15294330000E+03 0.  0.
<mgrwt>
<rscale>  0 0.54411239E+03</rscale>
<asrwt>0</asrwt>
<pdfrwt beam="1">  1        1 0.24684241E+00 0.54411239E+03</pdfrwt>
<pdfrwt beam="2">  1       -1 0.73141999E-01 0.54411239E+03</pdfrwt>
<totfact> 0.11251704E+01</totfact>
</mgrwt>
</event>
<event>
 4    1  0.8749406E-009  0.6236509E+03  0.7818608E-02  0.9857518E-01
          1   -1    0    0  501    0  0.00000000000E+00  0.00000000000E+00  0.13001850230E+04  0.13001850231E+04  0.50400000000E-02 0. -1.
         -1   -1    0    0    0  501 -0.00000000000E+00 -0.00000000000E+00 -0.64508167100E+03  0.64508167102E+03  0.50400000000E-02 0.  1.
    8880022    1    1    2    0    0 -0.59872328425E+03  0.84137836726E+02  0.10398169487E+04  0.12125014171E+04  0.15294330000E+03 0.  0.
    8880022    1    1    2    0    0  0.59872328425E+03 -0.84137836726E+02 -0.38471359665E+03  0.73276527697E+03  0.15294330000E+03 0.  0.
<mgrwt>
<rscale>  0 0.62365086E+03</rscale>
<asrwt>0</asrwt>
<pdfrwt beam="1">  1        1 0.20002846E+00 0.62365086E+03</pdfrwt>
<pdfrwt beam="2">  1       -1 0.99243335E-01 0.62365086E+03</pdfrwt>
<totfact> 0.92765434E+00</totfact>
</mgrwt>
</event>
<event>
 4    1  0.8749406E-009  0.7263682E+03  0.7818608E-02  0.9673172E-01
         -1   -1    0    0    0  501 -0.00000000000E+00  0.00000000000E+00  0.86482985817E+03  0.86482985818E+03  0.50400000000E-02 0.  1.
          1   -1    0    0  501    0  0.00000000000E+00 -0.00000000000E+00 -0.77052307437E+03  0.77052307438E+03  0.50400000000E-02 0. -1.
    8880022    1    1    2    0    0 -0.65090335625E+03 -0.28380267910E+03 -0.32597334604E+03  0.79615916448E+03  0.15294330000E+03 0.  0.
    8880022    1    1    2    0    0  0.65090335625E+03  0.28380267910E+03  0.42028012985E+03  0.83919376809E+03  0.15294330000E+03 0.  0.
<mgrwt>
<rscale>  0 0.72636822E+03</rscale>
<asrwt>0</asrwt>
<pdfrwt beam="1">  1        1 0.11854201E+00 0.72636822E+03</pdfrwt>
<pdfrwt beam="2">  1       -1 0.13305075E+00 0.72636822E+03</pdfrwt>
<totfact> 0.11597753E+01</totfact>
</mgrwt>
</event>
<event>
 4    1  0.8749406E-009  0.7674372E+03  0.7818608E-02  0.9608384E-01
         -1   -1    0    0    0  501 -0.00000000000E+00  0.00000000000E+00  0.25234551871E+04  0.25234551871E+04  0.50400000000E-02 0.  1.
          1   -1    0    0  501    0  0.00000000000E+00 -0.00000000000E+00 -0.62053273561E+03  0.62053273563E+03  0.50400000000E-02 0. -1.
    8880022    1    1    2    0    0 -0.11717809849E+03  0.74285769206E+03 -0.29019595008E+03  0.82047157165E+03  0.15294330000E+03 0.  0.
    8880022    1    1    2    0    0  0.11717809849E+03 -0.74285769206E+03  0.21931184016E+04  0.23235163511E+04  0.15294330000E+03 0.  0.
<mgrwt>
<rscale>  0 0.76743724E+03</rscale>
<asrwt>0</asrwt>
<pdfrwt beam="1">  1        1 0.95466577E-01 0.76743724E+03</pdfrwt>
<pdfrwt beam="2">  1       -1 0.38822387E+00 0.76743724E+03</pdfrwt>
<totfact> 0.30026876E-01</totfact>
</mgrwt>
</event>
<event>
 4    1  0.8749406E-009  0.1267892E+04  0.7818608E-02  0.9055422E-01
         -1   -1    0    0    0  501 -0.00000000000E+00  0.00000000000E+00  0.52969353994E+03  0.52969353997E+03  0.50400000000E-02 0.  1.
          1   -1    0    0  501    0  0.00000000000E+00 -0.00000000000E+00 -0.36337075161E+04  0.36337075161E+04  0.50400000000E-02 0. -1.
    8880022    1    1    2    0    0 -0.12041708883E+04 -0.36623742439E+03 -0.70692442870E+03  0.14516511910E+04  0.15294330000E+03 0.  0.
    8880022    1    1    2    0    0  0.12041708883E+04  0.36623742439E+03 -0.23970895474E+04  0.27117498651E+04  0.15294330000E+03 0.  0.
<mgrwt>
<rscale>  0 0.12678916E+04</rscale>
<asrwt>0</asrwt>
<pdfrwt beam="1">  1        1 0.55903191E+00 0.12678916E+04</pdfrwt>
<pdfrwt beam="2">  1       -1 0.81491316E-01 0.12678916E+04</pdfrwt>
<totfact> 0.29245538E-01</totfact>
</mgrwt>
</event>
<event>
 4    1  0.8749406E-009  0.1439983E+04  0.7818608E-02  0.8925375E-01
         -1   -1    0    0    0  501 -0.00000000000E+00  0.00000000000E+00  0.22037426596E+04  0.22037426596E+04  0.50400000000E-02 0.  1.
          1   -1    0    0  501    0  0.00000000000E+00 -0.00000000000E+00 -0.12395897166E+04  0.12395897166E+04  0.50400000000E-02 0. -1.
    8880022    1    1    2    0    0  0.11890081915E+04 -0.79775841129E+03  0.13271682752E+04  0.19582967717E+04  0.15294330000E+03 0.  0.
    8880022    1    1    2    0    0 -0.11890081915E+04  0.79775841129E+03 -0.36301533216E+03  0.14850356045E+04  0.15294330000E+03 0.  0.
<mgrwt>
<rscale>  0 0.14399829E+04</rscale>
<asrwt>0</asrwt>
<pdfrwt beam="1">  1        1 0.19070611E+00 0.14399829E+04</pdfrwt>
<pdfrwt beam="2">  1       -1 0.33903733E+00 0.14399829E+04</pdfrwt>
<totfact> 0.17546272E-01</totfact>
</mgrwt>
</event>
<event>
 4    1  0.8749406E-009  0.1491435E+04  0.7818608E-02  0.8890169E-01
         -1   -1    0    0    0  501 -0.00000000000E+00  0.00000000000E+00  0.98486670555E+03  0.98486670556E+03  0.50400000000E-02 0.  1.
          1   -1    0    0  501    0  0.00000000000E+00 -0.00000000000E+00 -0.26756311507E+04  0.26756311507E+04  0.50400000000E-02 0. -1.
    8880022    1    1    2    0    0  0.57210446440E+03 -0.13688250770E+04 -0.15679920282E+04  0.21640185450E+04  0.15294330000E+03 0.  0.
    8880022    1    1    2    0    0 -0.57210446440E+03  0.13688250770E+04 -0.12277241698E+03  0.14964793113E+04  0.15294330000E+03 0.  0.
<mgrwt>
<rscale>  0 0.14914346E+04</rscale>
<asrwt>0</asrwt>
<pdfrwt beam="1">  1        1 0.41163556E+00 0.14914346E+04</pdfrwt>
<pdfrwt beam="2">  1       -1 0.15151796E+00 0.14914346E+04</pdfrwt>
<totfact> 0.32975427E-01</totfact>
</mgrwt>
</event>
<event>
 4    1  0.8749406E-009  0.7545271E+03  0.7818608E-02  0.9628275E-01
         -1   -1    0    0    0  501 -0.00000000000E+00  0.00000000000E+00  0.71184414107E+03  0.71184414109E+03  0.50400000000E-02 0.  1.
          1   -1    0    0  501    0  0.00000000000E+00 -0.00000000000E+00 -0.81751100619E+03  0.81751100620E+03  0.50400000000E-02 0. -1.
    8880022    1    1    2    0    0 -0.33840085142E+03 -0.65681382317E+03 -0.16548249221E+03  0.77246077104E+03  0.15294330000E+03 0. -1.
    8880022    1    1    2    0    0  0.33840085142E+03  0.65681382317E+03  0.59815627095E+02  0.75689437626E+03  0.15294330000E+03 0.  1.
<mgrwt>
<rscale>  0 0.75452713E+03</rscale>
<asrwt>0</asrwt>
<pdfrwt beam="1">  1        1 0.12577092E+00 0.75452713E+03</pdfrwt>
<pdfrwt beam="2">  1       -1 0.10951448E+00 0.75452713E+03</pdfrwt>
<totfact> 0.16924590E+01</totfact>
</mgrwt>
</event>
<event>
 4    1  0.8749406E-009  0.7884159E+03  0.7818608E-02  0.9576938E-01
          1   -1    0    0  501    0  0.00000000000E+00  0.00000000000E+00  0.83658775114E+03  0.83658775116E+03  0.50400000000E-02 0. -1.
         -1   -1    0    0    0  501 -0.00000000000E+00 -0.00000000000E+00 -0.10961780594E+04  0.10961780594E+04  0.50400000000E-02 0.  1.
    8880022    1    1    2    0    0  0.16538178301E+03 -0.75555070193E+03 -0.67831779191E+03  0.10400551318E+04  0.15294330000E+03 0.  0.
    8880022    1    1    2    0    0 -0.16538178301E+03  0.75555070193E+03  0.41872748368E+03  0.89271067874E+03  0.15294330000E+03 0.  0.
<mgrwt>
<rscale>  0 0.78841591E+03</rscale>
<asrwt>0</asrwt>
<pdfrwt beam="1">  1        1 0.12870581E+00 0.78841591E+03</pdfrwt>
<pdfrwt beam="2">  1       -1 0.16864278E+00 0.78841591E+03</pdfrwt>
<totfact> 0.53302712E+00</totfact>
</mgrwt>
</event>
<event>
 4    1  0.8749406E-009  0.1687505E+04  0.7818608E-02  0.8768523E-01
         -1   -1    0    0    0  501 -0.00000000000E+00  0.00000000000E+00  0.17011399868E+04  0.17011399868E+04  0.50400000000E-02 0.  1.
          1   -1    0    0  501    0  0.00000000000E+00 -0.00000000000E+00 -0.21442175145E+04  0.21442175145E+04  0.50400000000E-02 0. -1.
    8880022    1    1    2    0    0  0.16282702099E+04 -0.41595308990E+03  0.67885283799E+03  0.18189320158E+04  0.15294330000E+03 0.  0.
    8880022    1    1    2    0    0 -0.16282702099E+04  0.41595308990E+03 -0.11219303657E+04  0.20264254854E+04  0.15294330000E+03 0.  0.
<mgrwt>
<rscale>  0 0.16875048E+04</rscale>
<asrwt>0</asrwt>
<pdfrwt beam="1">  1        1 0.32987962E+00 0.16875048E+04</pdfrwt>
<pdfrwt beam="2">  1       -1 0.26171384E+00 0.16875048E+04</pdfrwt>
<totfact> 0.12826669E-01</totfact>
</mgrwt>
</event>
<event>
 4    1  0.8749406E-009  0.9264274E+03  0.7818608E-02  0.9393136E-01
         -1   -1    0    0    0  501 -0.00000000000E+00  0.00000000000E+00  0.14826861745E+04  0.14826861745E+04  0.50400000000E-02 0.  1.
          1   -1    0    0  501    0  0.00000000000E+00 -0.00000000000E+00 -0.17624866505E+04  0.17624866505E+04  0.50400000000E-02 0. -1.
    8880022    1    1    2    0    0  0.46433499099E+03 -0.78693657820E+03 -0.14695959630E+04  0.17372334643E+04  0.15294330000E+03 0.  0.
    8880022    1    1    2    0    0 -0.46433499099E+03  0.78693657820E+03  0.11897954869E+04  0.15079393608E+04  0.15294330000E+03 0.  0.
<mgrwt>
<rscale>  0 0.92642745E+03</rscale>
<asrwt>0</asrwt>
<pdfrwt beam="1">  1        1 0.27115179E+00 0.92642745E+03</pdfrwt>
<pdfrwt beam="2">  1       -1 0.22810557E+00 0.92642745E+03</pdfrwt>
<totfact> 0.43041432E-01</totfact>
</mgrwt>
</event>
<event>
 4    1  0.8749406E-009  0.2616097E+03  0.7818608E-02  0.1106180E+00
          1   -1    0    0  501    0  0.00000000000E+00  0.00000000000E+00  0.33017811171E+03  0.33017811175E+03  0.50400000000E-02 0. -1.
         -1   -1    0    0    0  501 -0.00000000000E+00 -0.00000000000E+00 -0.45075250523E+03  0.45075250526E+03  0.50400000000E-02 0.  1.
    8880022    1    1    2    0    0 -0.98753282589E+02 -0.18787164036E+03  0.22668348986E+03  0.34615750991E+03  0.15294330000E+03 0. -1.
    8880022    1    1    2    0    0  0.98753282589E+02  0.18787164036E+03 -0.34725788338E+03  0.43477310710E+03  0.15294330000E+03 0.  0.
<mgrwt>
<rscale>  0 0.26160967E+03</rscale>
<asrwt>0</asrwt>
<pdfrwt beam="1">  1        1 0.50796632E-01 0.26160967E+03</pdfrwt>
<pdfrwt beam="2">  1       -1 0.69346540E-01 0.26160967E+03</pdfrwt>
<totfact> 0.17116631E+02</totfact>
</mgrwt>
</event>
<event>
 4    1  0.8749406E-009  0.1011453E+04  0.7818608E-02  0.9296072E-01
         -1   -1    0    0    0  501 -0.00000000000E+00  0.00000000000E+00  0.73536026305E+03  0.73536026306E+03  0.50400000000E-02 0.  1.
          1   -1    0    0  501    0  0.00000000000E+00 -0.00000000000E+00 -0.18790188709E+04  0.18790188709E+04  0.50400000000E-02 0. -1.
    8880022    1    1    2    0    0  0.98482783825E+03  0.17250834831E+03  0.94210536731E+02  0.10158308321E+04  0.15294330000E+03 0.  0.
    8880022    1    1    2    0    0 -0.98482783825E+03 -0.17250834831E+03 -0.12378691446E+04  0.15985483018E+04  0.15294330000E+03 0.  0.
<mgrwt>
<rscale>  0 0.10114527E+04</rscale>
<asrwt>0</asrwt>
<pdfrwt beam="1">  1        1 0.28907982E+00 0.10114527E+04</pdfrwt>
<pdfrwt beam="2">  1       -1 0.11313235E+00 0.10114527E+04</pdfrwt>
<totfact> 0.25904107E+00</totfact>
</mgrwt>
</event>
<event>
 4    1  0.8749406E-009  0.6294935E+03  0.7818608E-02  0.9846038E-01
         -1   -1    0    0    0  501 -0.00000000000E+00  0.00000000000E+00  0.13012899082E+04  0.13012899082E+04  0.50400000000E-02 0.  1.
          1   -1    0    0  501    0  0.00000000000E+00 -0.00000000000E+00 -0.65581495932E+03  0.65581495934E+03  0.50400000000E-02 0. -1.
    8880022    1    1    2    0    0 -0.85688156801E+02 -0.60458902796E+03  0.10389346925E+04  0.12147622406E+04  0.15294330000E+03 0.  0.
    8880022    1    1    2    0    0  0.85688156801E+02  0.60458902796E+03 -0.39345974360E+03  0.74234262695E+03  0.15294330000E+03 0.  0.
<mgrwt>
<rscale>  0 0.62949345E+03</rscale>
<asrwt>0</asrwt>
<pdfrwt beam="1">  1        1 0.10089461E+00 0.62949345E+03</pdfrwt>
<pdfrwt beam="2">  1       -1 0.20019845E+00 0.62949345E+03</pdfrwt>
<totfact> 0.47675422E+00</totfact>
</mgrwt>
</event>
<event>
 4    1  0.8749406E-009  0.6599010E+03  0.7818608E-02  0.9788376E-01
         -1   -1    0    0    0  501 -0.00000000000E+00  0.00000000000E+00  0.23383092590E+03  0.23383092595E+03  0.50400000000E-02 0.  1.
          1   -1    0    0  501    0  0.00000000000E+00 -0.00000000000E+00 -0.24300818528E+04  0.24300818528E+04  0.50400000000E-02 0. -1.
    8880022    1    1    2    0    0  0.61454974143E+03 -0.18548941254E+03 -0.17419395151E+04  0.18627459929E+04  0.15294330000E+03 0.  0.
    8880022    1    1    2    0    0 -0.61454974143E+03  0.18548941254E+03 -0.45431141186E+03  0.80116678589E+03  0.15294330000E+03 0.  0.
<mgrwt>
<rscale>  0 0.65990102E+03</rscale>
<asrwt>0</asrwt>
<pdfrwt beam="1">  1        1 0.37385873E+00 0.65990102E+03</pdfrwt>
<pdfrwt beam="2">  1       -1 0.35973990E-01 0.65990102E+03</pdfrwt>
<totfact> 0.11939309E+01</totfact>
</mgrwt>
</event>
<event>
 4    1  0.8749406E-009  0.7937140E+03  0.7818608E-02  0.9569161E-01
          1   -1    0    0  501    0  0.00000000000E+00  0.00000000000E+00  0.24671936329E+04  0.24671936329E+04  0.50400000000E-02 0. -1.
         -1   -1    0    0    0  501 -0.00000000000E+00 -0.00000000000E+00 -0.92174522844E+03  0.92174522845E+03  0.50400000000E-02 0.  1.
    8880022    1    1    2    0    0  0.72657072543E+03 -0.28050894467E+03  0.22134997717E+04  0.23515023239E+04  0.15294330000E+03 0.  0.
    8880022    1    1    2    0    0 -0.72657072543E+03  0.28050894467E+03 -0.66805136719E+03  0.10374365375E+04  0.15294330000E+03 0.  0.
<mgrwt>
<rscale>  0 0.79371402E+03</rscale>
<asrwt>0</asrwt>
<pdfrwt beam="1">  1        1 0.37956825E+00 0.79371402E+03</pdfrwt>
<pdfrwt beam="2">  1       -1 0.14180696E+00 0.79371402E+03</pdfrwt>
<totfact> 0.61284295E-01</totfact>
</mgrwt>
</event>
<event>
 4    1  0.8749406E-009  0.7050658E+03  0.7818608E-02  0.9708608E-01
          1   -1    0    0  501    0  0.00000000000E+00  0.00000000000E+00  0.19537641458E+04  0.19537641458E+04  0.50400000000E-02 0. -1.
         -1   -1    0    0    0  501 -0.00000000000E+00 -0.00000000000E+00 -0.57355358489E+03  0.57355358491E+03  0.50400000000E-02 0.  1.
    8880022    1    1    2    0    0  0.68816639211E+03  0.12374189434E+02  0.16326778490E+04  0.17784135390E+04  0.15294330000E+03 0. -1.
    8880022    1    1    2    0    0 -0.68816639211E+03 -0.12374189434E+02 -0.25246728815E+03  0.74890419173E+03  0.15294330000E+03 0.  0.
<mgrwt>
<rscale>  0 0.70506578E+03</rscale>
<asrwt>0</asrwt>
<pdfrwt beam="1">  1        1 0.30057910E+00 0.70506578E+03</pdfrwt>
<pdfrwt beam="2">  1       -1 0.88239012E-01 0.70506578E+03</pdfrwt>
<totfact> 0.42785448E+00</totfact>
</mgrwt>
</event>
<event>
 4    1  0.8749406E-009  0.5903287E+03  0.7818608E-02  0.9925677E-01
          1   -1    0    0  501    0  0.00000000000E+00  0.00000000000E+00  0.15667588024E+04  0.15667588024E+04  0.50400000000E-02 0. -1.
         -1   -1    0    0    0  501 -0.00000000000E+00 -0.00000000000E+00 -0.64146561487E+03  0.64146561489E+03  0.50400000000E-02 0.  1.
    8880022    1    1    2    0    0 -0.22794822002E+03  0.52262408736E+03 -0.42974204693E+03  0.73018231122E+03  0.15294330000E+03 0.  0.
    8880022    1    1    2    0    0  0.22794822002E+03 -0.52262408736E+03  0.13550352345E+04  0.14780421061E+04  0.15294330000E+03 0.  0.
<mgrwt>
<rscale>  0 0.59032871E+03</rscale>
<asrwt>0</asrwt>
<pdfrwt beam="1">  1        1 0.24103981E+00 0.59032871E+03</pdfrwt>
<pdfrwt beam="2">  1       -1 0.98687019E-01 0.59032871E+03</pdfrwt>
<totfact> 0.62004960E+00</totfact>
</mgrwt>
</event>
<event>
 4    1  0.8749406E-009  0.1037646E+04  0.7818608E-02  0.9268193E-01
         -1   -1    0    0    0  501 -0.00000000000E+00  0.00000000000E+00  0.98856881885E+03  0.98856881886E+03  0.50400000000E-02 0.  1.
          1   -1    0    0  501    0  0.00000000000E+00 -0.00000000000E+00 -0.12468054123E+04  0.12468054123E+04  0.50400000000E-02 0. -1.
    8880022    1    1    2    0    0  0.97451037874E+03  0.32194107622E+03 -0.52655096417E+03  0.11635996329E+04  0.15294330000E+03 0.  0.
    8880022    1    1    2    0    0 -0.97451037874E+03 -0.32194107622E+03  0.26831437076E+03  0.10717745982E+04  0.15294330000E+03 0.  0.
<mgrwt>
<rscale>  0 0.10376455E+04</rscale>
<asrwt>0</asrwt>
<pdfrwt beam="1">  1        1 0.19181622E+00 0.10376455E+04</pdfrwt>
<pdfrwt beam="2">  1       -1 0.15208751E+00 0.10376455E+04</pdfrwt>
<totfact> 0.33170176E+00</totfact>
</mgrwt>
</event>
<event>
 4    1  0.1119836E-008  0.1497412E+04  0.7818608E-02  0.8886176E-01
         -1   -1    0    0    0  501 -0.00000000000E+00  0.00000000000E+00  0.16118585825E+04  0.16118585825E+04  0.50400000000E-02 0.  1.
          1   -1    0    0  501    0  0.00000000000E+00 -0.00000000000E+00 -0.39082277798E+04  0.39082277799E+04  0.50400000000E-02 0. -1.
    8880022    1    1    2    0    0  0.13838483416E+04 -0.55119475021E+03  0.10668436371E+04  0.18385861101E+04  0.15294330000E+03 0.  0.
    8880022    1    1    2    0    0 -0.13838483416E+04  0.55119475021E+03 -0.33632128344E+04  0.36815002523E+04  0.15294330000E+03 0.  0.
<mgrwt>
<rscale>  0 0.14974123E+04</rscale>
<asrwt>0</asrwt>
<pdfrwt beam="1">  1        1 0.60126581E+00 0.14974123E+04</pdfrwt>
<pdfrwt beam="2">  1       -1 0.24797824E+00 0.14974123E+04</pdfrwt>
<totfact> 0.79163303E-03</totfact>
</mgrwt>
</event>
<event>
 4    1  0.8749406E-009  0.1233173E+04  0.7818608E-02  0.9084306E-01
          1   -1    0    0  501    0  0.00000000000E+00  0.00000000000E+00  0.14201291244E+04  0.14201291245E+04  0.50400000000E-02 0. -1.
         -1   -1    0    0    0  501 -0.00000000000E+00 -0.00000000000E+00 -0.16980604487E+04  0.16980604488E+04  0.50400000000E-02 0.  1.
    8880022    1    1    2    0    0  0.11757283468E+04  0.33909674395E+03 -0.10865325385E+04  0.16435535761E+04  0.15294330000E+03 0.  0.
    8880022    1    1    2    0    0 -0.11757283468E+04 -0.33909674395E+03  0.80860121423E+03  0.14746359971E+04  0.15294330000E+03 0.  0.
<mgrwt>
<rscale>  0 0.12331729E+04</rscale>
<asrwt>0</asrwt>
<pdfrwt beam="1">  1        1 0.21848140E+00 0.12331729E+04</pdfrwt>
<pdfrwt beam="2">  1       -1 0.26124007E+00 0.12331729E+04</pdfrwt>
<totfact> 0.42798727E-01</totfact>
</mgrwt>
</event>
<event>
 4    1  0.8749406E-009  0.1051154E+04  0.7818608E-02  0.9254154E-01
          1   -1    0    0  501    0  0.00000000000E+00  0.00000000000E+00  0.28215017189E+04  0.28215017189E+04  0.50400000000E-02 0. -1.
         -1   -1    0    0    0  501 -0.00000000000E+00 -0.00000000000E+00 -0.79262126010E+03  0.79262126012E+03  0.50400000000E-02 0.  1.
    8880022    1    1    2    0    0 -0.85087748124E+03  0.59794612900E+03  0.22997838125E+04  0.25286220157E+04  0.15294330000E+03 0.  0.
    8880022    1    1    2    0    0  0.85087748124E+03 -0.59794612900E+03 -0.27090335367E+03  0.10855009633E+04  0.15294330000E+03 0.  0.
<mgrwt>
<rscale>  0 0.10511535E+04</rscale>
<asrwt>0</asrwt>
<pdfrwt beam="1">  1        1 0.43407719E+00 0.10511535E+04</pdfrwt>
<pdfrwt beam="2">  1       -1 0.12194173E+00 0.10511535E+04</pdfrwt>
<totfact> 0.48597739E-01</totfact>
</mgrwt>
</event>
<event>
 4    1  0.8749406E-009  0.5841930E+03  0.7818608E-02  0.9938754E-01
         -1   -1    0    0    0  501 -0.00000000000E+00  0.00000000000E+00  0.28774578520E+03  0.28774578525E+03  0.50400000000E-02 0.  1.
          1   -1    0    0  501    0  0.00000000000E+00 -0.00000000000E+00 -0.26637258188E+04  0.26637258188E+04  0.50400000000E-02 0. -1.
    8880022    1    1    2    0    0 -0.53332690800E+03 -0.18289963040E+03 -0.88849758934E+02  0.59091099015E+03  0.15294330000E+03 0.  0.
    8880022    1    1    2    0    0  0.53332690800E+03  0.18289963040E+03 -0.22871302746E+04  0.23605606139E+04  0.15294330000E+03 0.  0.
<mgrwt>
<rscale>  0 0.58419305E+03</rscale>
<asrwt>0</asrwt>
<pdfrwt beam="1">  1        1 0.40980395E+00 0.58419305E+03</pdfrwt>
<pdfrwt beam="2">  1       -1 0.44268584E-01 0.58419305E+03</pdfrwt>
<totfact> 0.57681103E+00</totfact>
</mgrwt>
</event>
<event>
 4    1  0.8749406E-009  0.1117038E+04  0.7818608E-02  0.9188743E-01
         -1   -1    0    0    0  501 -0.00000000000E+00  0.00000000000E+00  0.13932004416E+04  0.13932004416E+04  0.50400000000E-02 0.  1.
          1   -1    0    0  501    0  0.00000000000E+00 -0.00000000000E+00 -0.20818206100E+04  0.20818206100E+04  0.50400000000E-02 0. -1.
    8880022    1    1    2    0    0  0.10939053614E+04 -0.16659300144E+03  0.96724168189E+03  0.14776096548E+04  0.15294330000E+03 0.  0.
    8880022    1    1    2    0    0 -0.10939053614E+04  0.16659300144E+03 -0.16558618503E+04  0.19974113968E+04  0.15294330000E+03 0.  0.
<mgrwt>
<rscale>  0 0.11170380E+04</rscale>
<asrwt>0</asrwt>
<pdfrwt beam="1">  1        1 0.32028010E+00 0.11170380E+04</pdfrwt>
<pdfrwt beam="2">  1       -1 0.21433853E+00 0.11170380E+04</pdfrwt>
<totfact> 0.31341174E-01</totfact>
</mgrwt>
</event>
<event>
 4    1  0.8749406E-009  0.1016128E+04  0.7818608E-02  0.9291031E-01
          1   -1    0    0  501    0  0.00000000000E+00  0.00000000000E+00  0.51516970929E+03  0.51516970931E+03  0.50400000000E-02 0. -1.
         -1   -1    0    0    0  501 -0.00000000000E+00 -0.00000000000E+00 -0.26725765341E+04  0.26725765341E+04  0.50400000000E-02 0.  1.
    8880022    1    1    2    0    0  0.82451632399E+03 -0.57384445586E+03 -0.18757633404E+04  0.21333083205E+04  0.15294330000E+03 0.  0.
    8880022    1    1    2    0    0 -0.82451632399E+03  0.57384445586E+03 -0.28164348446E+03  0.10544379230E+04  0.15294330000E+03 0.  0.
<mgrwt>
<rscale>  0 0.10161281E+04</rscale>
<asrwt>0</asrwt>
<pdfrwt beam="1">  1        1 0.79256880E-01 0.10161281E+04</pdfrwt>
<pdfrwt beam="2">  1       -1 0.41116561E+00 0.10161281E+04</pdfrwt>
<totfact> 0.26116292E-01</totfact>
</mgrwt>
</event>
<event>
 4    1  0.8749406E-009  0.5675713E+03  0.7818608E-02  0.9975067E-01
          1   -1    0    0  501    0  0.00000000000E+00  0.00000000000E+00  0.15387933702E+04  0.15387933702E+04  0.50400000000E-02 0. -1.
         -1   -1    0    0    0  501 -0.00000000000E+00 -0.00000000000E+00 -0.69185116182E+03  0.69185116183E+03  0.50400000000E-02 0.  1.
    8880022    1    1    2    0    0 -0.16930249312E+03 -0.51969432231E+03  0.13548918616E+04  0.14689687309E+04  0.15294330000E+03 0.  0.
    8880022    1    1    2    0    0  0.16930249312E+03  0.51969432231E+03 -0.50794965320E+03  0.76167580112E+03  0.15294330000E+03 0.  0.
<mgrwt>
<rscale>  0 0.56757130E+03</rscale>
<asrwt>0</asrwt>
<pdfrwt beam="1">  1        1 0.23673744E+00 0.56757130E+03</pdfrwt>
<pdfrwt beam="2">  1       -1 0.10643864E+00 0.56757130E+03</pdfrwt>
<totfact> 0.54735352E+00</totfact>
</mgrwt>
</event>
<event>
 4    1  0.8749406E-009  0.9460443E+03  0.7818608E-02  0.9369786E-01
         -1   -1    0    0    0  501 -0.00000000000E+00  0.00000000000E+00  0.11081910216E+04  0.11081910217E+04  0.50400000000E-02 0.  1.
          1   -1    0    0  501    0  0.00000000000E+00 -0.00000000000E+00 -0.10809288382E+04  0.10809288383E+04  0.50400000000E-02 0. -1.
    8880022    1    1    2    0    0  0.59932442349E+03 -0.71583408249E+03  0.56401528702E+03  0.11014141343E+04  0.15294330000E+03 0.  0.
    8880022    1    1    2    0    0 -0.59932442349E+03  0.71583408249E+03 -0.53675310362E+03  0.10877057256E+04  0.15294330000E+03 0.  0.
<mgrwt>
<rscale>  0 0.94604432E+03</rscale>
<asrwt>0</asrwt>
<pdfrwt beam="1">  1        1 0.16629675E+00 0.94604432E+03</pdfrwt>
<pdfrwt beam="2">  1       -1 0.17049093E+00 0.94604432E+03</pdfrwt>
<totfact> 0.32312218E+00</totfact>
</mgrwt>
</event>
<event>
 4    1  0.8749406E-009  0.9834864E+03  0.7818608E-02  0.9326844E-01
          1   -1    0    0  501    0  0.00000000000E+00  0.00000000000E+00  0.74488552118E+03  0.74488552119E+03  0.50400000000E-02 0. -1.
         -1   -1    0    0    0  501 -0.00000000000E+00 -0.00000000000E+00 -0.15024329298E+04  0.15024329298E+04  0.50400000000E-02 0.  1.
    8880022    1    1    2    0    0 -0.49272809587E+03  0.83730089690E+03 -0.79273926436E+03  0.12632026610E+04  0.15294330000E+03 0. -1.
    8880022    1    1    2    0    0  0.49272809587E+03 -0.83730089690E+03  0.35191855759E+02  0.98411579001E+03  0.15294330000E+03 0.  0.
<mgrwt>
<rscale>  0 0.98348636E+03</rscale>
<asrwt>0</asrwt>
<pdfrwt beam="1">  1        1 0.11459777E+00 0.98348636E+03</pdfrwt>
<pdfrwt beam="2">  1       -1 0.23114353E+00 0.98348636E+03</pdfrwt>
<totfact> 0.23154928E+00</totfact>
</mgrwt>
</event>
<event>
 4    1  0.8749406E-009  0.5560771E+03  0.7818608E-02  0.1000097E+00
          1   -1    0    0  501    0  0.00000000000E+00  0.00000000000E+00  0.21634398728E+04  0.21634398728E+04  0.50400000000E-02 0. -1.
         -1   -1    0    0    0  501 -0.00000000000E+00 -0.00000000000E+00 -0.17585301225E+03  0.17585301232E+03  0.50400000000E-02 0.  1.
    8880022    1    1    2    0    0  0.49934473234E+03 -0.19101033935E+03  0.48770605164E+03  0.73964786032E+03  0.15294330000E+03 0.  0.
    8880022    1    1    2    0    0 -0.49934473234E+03  0.19101033935E+03  0.14998808089E+04  0.15996450248E+04  0.15294330000E+03 0.  0.
<mgrwt>
<rscale>  0 0.55607712E+03</rscale>
<asrwt>0</asrwt>
<pdfrwt beam="1">  1        1 0.33283693E+00 0.55607712E+03</pdfrwt>
<pdfrwt beam="2">  1       -1 0.27054307E-01 0.55607712E+03</pdfrwt>
<totfact> 0.30212455E+01</totfact>
</mgrwt>
</event>
<event>
 4    1  0.8749406E-009  0.4205732E+03  0.7818608E-02  0.1036880E+00
         -1   -1    0    0    0  501 -0.00000000000E+00  0.00000000000E+00  0.20132424729E+04  0.20132424729E+04  0.50400000000E-02 0.  1.
          1   -1    0    0  501    0  0.00000000000E+00 -0.00000000000E+00 -0.48544329763E+03  0.48544329766E+03  0.50400000000E-02 0. -1.
    8880022    1    1    2    0    0 -0.38052056075E+03 -0.93243247879E+02 -0.36674706501E+03  0.55801905266E+03  0.15294330000E+03 0.  0.
    8880022    1    1    2    0    0  0.38052056075E+03  0.93243247879E+02  0.18945462403E+04  0.19406667179E+04  0.15294330000E+03 0.  0.
<mgrwt>
<rscale>  0 0.42057324E+03</rscale>
<asrwt>0</asrwt>
<pdfrwt beam="1">  1        1 0.74683583E-01 0.42057324E+03</pdfrwt>
<pdfrwt beam="2">  1       -1 0.30972962E+00 0.42057324E+03</pdfrwt>
<totfact> 0.15050677E+00</totfact>
</mgrwt>
</event>
<event>
 4    1  0.8749406E-009  0.8240331E+03  0.7818608E-02  0.9525867E-01
         -1   -1    0    0    0  501 -0.00000000000E+00  0.00000000000E+00  0.62522668530E+03  0.62522668532E+03  0.50400000000E-02 0.  1.
          1   -1    0    0  501    0  0.00000000000E+00 -0.00000000000E+00 -0.19507551090E+04  0.19507551090E+04  0.50400000000E-02 0. -1.
    8880022    1    1    2    0    0  0.80831645447E+03  0.47574711219E+02  0.19475567881E+03  0.84673506551E+03  0.15294330000E+03 0.  0.
    8880022    1    1    2    0    0 -0.80831645447E+03 -0.47574711219E+02 -0.15202841025E+04  0.17292467288E+04  0.15294330000E+03 0.  0.
<mgrwt>
<rscale>  0 0.82403307E+03</rscale>
<asrwt>0</asrwt>
<pdfrwt beam="1">  1        1 0.30011617E+00 0.82403307E+03</pdfrwt>
<pdfrwt beam="2">  1       -1 0.96188722E-01 0.82403307E+03</pdfrwt>
<totfact> 0.34761738E+00</totfact>
</mgrwt>
</event>
<event>
 4    1  0.8749406E-009  0.2463562E+04  0.7818608E-02  0.8416083E-01
         -1   -1    0    0    0  501 -0.00000000000E+00  0.00000000000E+00  0.56737868664E+04  0.56737868664E+04  0.50400000000E-02 0.  1.
          1   -1    0    0  501    0  0.00000000000E+00 -0.00000000000E+00 -0.30784828105E+04  0.30784828105E+04  0.50400000000E-02 0. -1.
    8880022    1    1    2    0    0 -0.10500380341E+03  0.24565670335E+04  0.48326643401E+04  0.54243694256E+04  0.15294330000E+03 0.  0.
    8880022    1    1    2    0    0  0.10500380341E+03 -0.24565670335E+04 -0.22373602841E+04  0.33279002513E+04  0.15294330000E+03 0.  0.
<mgrwt>
<rscale>  0 0.24635623E+04</rscale>
<asrwt>0</asrwt>
<pdfrwt beam="1">  1        1 0.47361274E+00 0.24635623E+04</pdfrwt>
<pdfrwt beam="2">  1       -1 0.87289028E+00 0.24635623E+04</pdfrwt>
<totfact> 0.76840426E-06</totfact>
</mgrwt>
</event>
<event>
 4    1  0.8749406E-009  0.1831329E+04  0.7818608E-02  0.8689814E-01
         -1   -1    0    0    0  501 -0.00000000000E+00  0.00000000000E+00  0.23890998313E+04  0.23890998313E+04  0.50400000000E-02 0.  1.
          1   -1    0    0  501    0  0.00000000000E+00 -0.00000000000E+00 -0.18477088985E+04  0.18477088985E+04  0.50400000000E-02 0. -1.
    8880022    1    1    2    0    0 -0.18207137408E+04 -0.12399276658E+03  0.13090605131E+04  0.22510894722E+04  0.15294330000E+03 0.  0.
    8880022    1    1    2    0    0  0.18207137408E+04  0.12399276658E+03 -0.76766958027E+03  0.19857192575E+04  0.15294330000E+03 0.  0.
<mgrwt>
<rscale>  0 0.18313286E+04</rscale>
<asrwt>0</asrwt>
<pdfrwt beam="1">  1        1 0.28426291E+00 0.18313286E+04</pdfrwt>
<pdfrwt beam="2">  1       -1 0.36755382E+00 0.18313286E+04</pdfrwt>
<totfact> 0.40681327E-02</totfact>
</mgrwt>
</event>
<event>
 4    1  0.8749406E-009  0.6702441E+03  0.7818608E-02  0.9769517E-01
          1   -1    0    0  501    0  0.00000000000E+00  0.00000000000E+00  0.34949018581E+04  0.34949018581E+04  0.50400000000E-02 0. -1.
         -1   -1    0    0    0  501 -0.00000000000E+00 -0.00000000000E+00 -0.28744779837E+03  0.28744779842E+03  0.50400000000E-02 0.  1.
    8880022    1    1    2    0    0  0.45353194697E+02 -0.65098283784E+03  0.19758979278E+03  0.69876243935E+03  0.15294330000E+03 0.  0.
    8880022    1    1    2    0    0 -0.45353194697E+02  0.65098283784E+03  0.30098642670E+04  0.30835872172E+04  0.15294330000E+03 0.  0.
<mgrwt>
<rscale>  0 0.67024415E+03</rscale>
<asrwt>0</asrwt>
<pdfrwt beam="1">  1        1 0.53767718E+00 0.67024415E+03</pdfrwt>
<pdfrwt beam="2">  1       -1 0.44222740E-01 0.67024415E+03</pdfrwt>
<totfact> 0.14155880E+00</totfact>
</mgrwt>
</event>
<event>
 4    1  0.8749406E-009  0.1939500E+04  0.7818608E-02  0.8635441E-01
          1   -1    0    0  501    0  0.00000000000E+00  0.00000000000E+00  0.26780833074E+04  0.26780833074E+04  0.50400000000E-02 0. -1.
         -1   -1    0    0    0  501 -0.00000000000E+00 -0.00000000000E+00 -0.22218653129E+04  0.22218653129E+04  0.50400000000E-02 0.  1.
    8880022    1    1    2    0    0 -0.15248763359E+04 -0.11887059854E+04  0.17139818892E+04  0.25883190161E+04  0.15294330000E+03 0.  0.
    8880022    1    1    2    0    0  0.15248763359E+04  0.11887059854E+04 -0.12577638946E+04  0.23116296042E+04  0.15294330000E+03 0.  0.
<mgrwt>
<rscale>  0 0.19395003E+04</rscale>
<asrwt>0</asrwt>
<pdfrwt beam="1">  1        1 0.41201282E+00 0.19395003E+04</pdfrwt>
<pdfrwt beam="2">  1       -1 0.34182543E+00 0.19395003E+04</pdfrwt>
<totfact> 0.15944879E-02</totfact>
</mgrwt>
</event>
<event>
 4    1  0.8749406E-009  0.2913148E+03  0.7818608E-02  0.1089665E+00
          1   -1    0    0  501    0  0.00000000000E+00  0.00000000000E+00  0.19476794048E+04  0.19476794048E+04  0.50400000000E-02 0. -1.
         -1   -1    0    0    0  501 -0.00000000000E+00 -0.00000000000E+00 -0.40297473487E+03  0.40297473490E+03  0.50400000000E-02 0.  1.
    8880022    1    1    2    0    0  0.19670147835E+03 -0.15093431098E+03 -0.33761581560E+03  0.44592457857E+03  0.15294330000E+03 0.  0.
    8880022    1    1    2    0    0 -0.19670147835E+03  0.15093431098E+03  0.18823204855E+04  0.19047295611E+04  0.15294330000E+03 0. -1.
<mgrwt>
<rscale>  0 0.29131476E+03</rscale>
<asrwt>0</asrwt>
<pdfrwt beam="1">  1        1 0.29964299E+00 0.29131476E+03</pdfrwt>
<pdfrwt beam="2">  1       -1 0.61996112E-01 0.29131476E+03</pdfrwt>
<totfact> 0.10027568E+01</totfact>
</mgrwt>
</event>
<event>
 4    1  0.8749406E-009  0.3810930E+03  0.7818608E-02  0.1050531E+00
          1   -1    0    0  501    0  0.00000000000E+00  0.00000000000E+00  0.30928251441E+04  0.30928251441E+04  0.50400000000E-02 0. -1.
         -1   -1    0    0    0  501 -0.00000000000E+00 -0.00000000000E+00 -0.11227493369E+03  0.11227493380E+03  0.50400000000E-02 0.  1.
    8880022    1    1    2    0    0 -0.28073031126E+03 -0.20743849110E+03  0.26795724060E+03  0.46586797599E+03  0.15294330000E+03 0.  0.
    8880022    1    1    2    0    0  0.28073031126E+03  0.20743849110E+03  0.27125929699E+04  0.27392321020E+04  0.15294330000E+03 0.  0.
<mgrwt>
<rscale>  0 0.38109302E+03</rscale>
<asrwt>0</asrwt>
<pdfrwt beam="1">  1        1 0.47581924E+00 0.38109302E+03</pdfrwt>
<pdfrwt beam="2">  1       -1 0.17273067E-01 0.38109302E+03</pdfrwt>
<totfact> 0.15375909E+01</totfact>
</mgrwt>
</event>
<event>
 4    1  0.8749406E-009  0.9363441E+03  0.7818608E-02  0.9381256E-01
         -1   -1    0    0    0  501 -0.00000000000E+00  0.00000000000E+00  0.71162096832E+03  0.71162096833E+03  0.50400000000E-02 0.  1.
          1   -1    0    0  501    0  0.00000000000E+00 -0.00000000000E+00 -0.26603548718E+04  0.26603548718E+04  0.50400000000E-02 0. -1.
    8880022    1    1    2    0    0 -0.92258568329E+02  0.91915009052E+03  0.26100514164E+03  0.97204108417E+03  0.15294330000E+03 0.  0.
    8880022    1    1    2    0    0  0.92258568329E+02 -0.91915009052E+03 -0.22097390451E+04  0.23999347560E+04  0.15294330000E+03 0.  0.
<mgrwt>
<rscale>  0 0.93634405E+03</rscale>
<asrwt>0</asrwt>
<pdfrwt beam="1">  1        1 0.40928536E+00 0.93634405E+03</pdfrwt>
<pdfrwt beam="2">  1       -1 0.10948015E+00 0.93634405E+03</pdfrwt>
<totfact> 0.83407337E-01</totfact>
</mgrwt>
</event>
<event>
 4    1  0.8749406E-009  0.3277214E+03  0.7818608E-02  0.1072150E+00
         -1   -1    0    0    0  501 -0.00000000000E+00  0.00000000000E+00  0.11175287876E+04  0.11175287876E+04  0.50400000000E-02 0.  1.
          1   -1    0    0  501    0  0.00000000000E+00 -0.00000000000E+00 -0.78960664948E+03  0.78960664949E+03  0.50400000000E-02 0. -1.
    8880022    1    1    2    0    0 -0.16632383298E+03 -0.23737326809E+03  0.10576153601E+04  0.11072269816E+04  0.15294330000E+03 0.  0.
    8880022    1    1    2    0    0  0.16632383298E+03  0.23737326809E+03 -0.72969322203E+03  0.79990845546E+03  0.15294330000E+03 0. -1.
<mgrwt>
<rscale>  0 0.32772143E+03</rscale>
<asrwt>0</asrwt>
<pdfrwt beam="1">  1        1 0.12147795E+00 0.32772143E+03</pdfrwt>
<pdfrwt beam="2">  1       -1 0.17192751E+00 0.32772143E+03</pdfrwt>
<totfact> 0.61121291E+00</totfact>
</mgrwt>
</event>
<event>
 4    1  0.8749406E-009  0.6255296E+03  0.7818608E-02  0.9853811E-01
          1   -1    0    0  501    0  0.00000000000E+00  0.00000000000E+00  0.10723267030E+04  0.10723267030E+04  0.50400000000E-02 0. -1.
         -1   -1    0    0    0  501 -0.00000000000E+00 -0.00000000000E+00 -0.53000724957E+03  0.53000724959E+03  0.50400000000E-02 0.  1.
    8880022    1    1    2    0    0 -0.47372224899E+03 -0.37879134997E+03  0.71832799358E+03  0.95251373500E+03  0.15294330000E+03 0.  0.
    8880022    1    1    2    0    0  0.47372224899E+03  0.37879134997E+03 -0.17600854013E+03  0.64982021761E+03  0.15294330000E+03 0.  0.
<mgrwt>
<rscale>  0 0.62552962E+03</rscale>
<asrwt>0</asrwt>
<pdfrwt beam="1">  1        1 0.16497334E+00 0.62552962E+03</pdfrwt>
<pdfrwt beam="2">  1       -1 0.81539577E-01 0.62552962E+03</pdfrwt>
<totfact> 0.20862962E+01</totfact>
</mgrwt>
</event>
<event>
 4    1  0.8749406E-009  0.1101209E+04  0.7818608E-02  0.9204014E-01
         -1   -1    0    0    0  501 -0.00000000000E+00  0.00000000000E+00  0.54942864595E+03  0.54942864597E+03  0.50400000000E-02 0.  1.
          1   -1    0    0  501    0  0.00000000000E+00 -0.00000000000E+00 -0.26234423128E+04  0.26234423128E+04  0.50400000000E-02 0. -1.
    8880022    1    1    2    0    0  0.91488060056E+03  0.59351835330E+03 -0.40503951956E+03  0.11733367864E+04  0.15294330000E+03 0.  0.
    8880022    1    1    2    0    0 -0.91488060056E+03 -0.59351835330E+03 -0.16689741472E+04  0.19995341723E+04  0.15294330000E+03 0.  0.
<mgrwt>
<rscale>  0 0.11012094E+04</rscale>
<asrwt>0</asrwt>
<pdfrwt beam="1">  1        1 0.40360650E+00 0.11012094E+04</pdfrwt>
<pdfrwt beam="2">  1       -1 0.84527486E-01 0.11012094E+04</pdfrwt>
<totfact> 0.15487450E+00</totfact>
</mgrwt>
</event>
<event>
 4    1  0.8749406E-009  0.1044462E+04  0.7818608E-02  0.9261080E-01
          1   -1    0    0  501    0  0.00000000000E+00  0.00000000000E+00  0.10319060905E+04  0.10319060905E+04  0.50400000000E-02 0. -1.
         -1   -1    0    0    0  501 -0.00000000000E+00 -0.00000000000E+00 -0.19406508369E+04  0.19406508369E+04  0.50400000000E-02 0.  1.
    8880022    1    1    2    0    0  0.99231004186E+03 -0.28780354561E+03  0.54845151526E+03  0.11797036991E+04  0.15294330000E+03 0.  0.
    8880022    1    1    2    0    0 -0.99231004186E+03  0.28780354561E+03 -0.14571962616E+04  0.17928532282E+04  0.15294330000E+03 0.  0.
<mgrwt>
<rscale>  0 0.10444624E+04</rscale>
<asrwt>0</asrwt>
<pdfrwt beam="1">  1        1 0.15875478E+00 0.10444624E+04</pdfrwt>
<pdfrwt beam="2">  1       -1 0.29856167E+00 0.10444624E+04</pdfrwt>
<totfact> 0.48552066E-01</totfact>
</mgrwt>
</event>
<event>
 4    1  0.8749406E-009  0.8854179E+03  0.7818608E-02  0.9443996E-01
         -1   -1    0    0    0  501 -0.00000000000E+00  0.00000000000E+00  0.12032982260E+04  0.12032982261E+04  0.50400000000E-02 0.  1.
          1   -1    0    0  501    0  0.00000000000E+00 -0.00000000000E+00 -0.15302998898E+04  0.15302998898E+04  0.50400000000E-02 0. -1.
    8880022    1    1    2    0    0  0.55685772561E+03  0.67118009497E+03 -0.11992583324E+04  0.14906996503E+04  0.15294330000E+03 0.  0.
    8880022    1    1    2    0    0 -0.55685772561E+03 -0.67118009497E+03  0.87225666873E+03  0.12428984655E+04  0.15294330000E+03 0.  1.
<mgrwt>
<rscale>  0 0.88541792E+03</rscale>
<asrwt>0</asrwt>
<pdfrwt beam="1">  1        1 0.23543075E+00 0.88541792E+03</pdfrwt>
<pdfrwt beam="2">  1       -1 0.18512280E+00 0.88541792E+03</pdfrwt>
<totfact> 0.12223310E+00</totfact>
</mgrwt>
</event>
<event>
 4    1  0.8749406E-009  0.8354564E+03  0.7818608E-02  0.9510067E-01
          1   -1    0    0  501    0  0.00000000000E+00  0.00000000000E+00  0.15087989781E+04  0.15087989781E+04  0.50400000000E-02 0. -1.
         -1   -1    0    0    0  501 -0.00000000000E+00 -0.00000000000E+00 -0.75242901098E+03  0.75242901099E+03  0.50400000000E-02 0.  1.
    8880022    1    1    2    0    0  0.78602029851E+03 -0.23825997854E+03  0.10798730488E+04  0.13653253025E+04  0.15294330000E+03 0.  0.
    8880022    1    1    2    0    0 -0.78602029851E+03  0.23825997854E+03 -0.32350308168E+03  0.89590268663E+03  0.15294330000E+03 0.  0.
<mgrwt>
<rscale>  0 0.83545639E+03</rscale>
<asrwt>0</asrwt>
<pdfrwt beam="1">  1        1 0.23212292E+00 0.83545639E+03</pdfrwt>
<pdfrwt beam="2">  1       -1 0.11575831E+00 0.83545639E+03</pdfrwt>
<totfact> 0.44820110E+00</totfact>
</mgrwt>
</event>
<event>
 4    1  0.8749406E-009  0.2626359E+03  0.7818608E-02  0.1105570E+00
         -1   -1    0    0    0  501 -0.00000000000E+00  0.00000000000E+00  0.10022032823E+04  0.10022032823E+04  0.50400000000E-02 0.  1.
          1   -1    0    0  501    0  0.00000000000E+00 -0.00000000000E+00 -0.36159789340E+03  0.36159789343E+03  0.50400000000E-02 0. -1.
    8880022    1    1    2    0    0  0.13052665253E+03  0.16896379033E+03  0.93388499722E+03  0.97011278236E+03  0.15294330000E+03 0.  1.
    8880022    1    1    2    0    0 -0.13052665253E+03 -0.16896379033E+03 -0.29327960828E+03  0.39368839342E+03  0.15294330000E+03 0.  0.
<mgrwt>
<rscale>  0 0.26263591E+03</rscale>
<asrwt>0</asrwt>
<pdfrwt beam="1">  1        1 0.55630446E-01 0.26263591E+03</pdfrwt>
<pdfrwt beam="2">  1       -1 0.15418512E+00 0.26263591E+03</pdfrwt>
<totfact> 0.24636904E+01</totfact>
</mgrwt>
</event>
<event>
 4    1  0.8749406E-009  0.1826066E+03  0.7818608E-02  0.1165304E+00
          1   -1    0    0  501    0  0.00000000000E+00  0.00000000000E+00  0.72676467341E+03  0.72676467343E+03  0.50400000000E-02 0. -1.
         -1   -1    0    0    0  501 -0.00000000000E+00 -0.00000000000E+00 -0.24134674156E+03  0.24134674161E+03  0.50400000000E-02 0.  1.
    8880022    1    1    2    0    0  0.98876664712E+02  0.13301620214E+02  0.67833036015E+03  0.70247936514E+03  0.15294330000E+03 0. -1.
    8880022    1    1    2    0    0 -0.98876664712E+02 -0.13301620214E+02 -0.19291242830E+03  0.26563204990E+03  0.15294330000E+03 0.  0.
<mgrwt>
<rscale>  0 0.18260663E+03</rscale>
<asrwt>0</asrwt>
<pdfrwt beam="1">  1        1 0.11180995E+00 0.18260663E+03</pdfrwt>
<pdfrwt beam="2">  1       -1 0.37130268E-01 0.18260663E+03</pdfrwt>
<totfact> 0.19290590E+02</totfact>
</mgrwt>
</event>
<event>
 4    1  0.8749406E-009  0.9969000E+03  0.7818608E-02  0.9311951E-01
         -1   -1    0    0    0  501 -0.00000000000E+00  0.00000000000E+00  0.13226356631E+04  0.13226356631E+04  0.50400000000E-02 0.  1.
          1   -1    0    0  501    0  0.00000000000E+00 -0.00000000000E+00 -0.18552273200E+04  0.18552273200E+04  0.50400000000E-02 0. -1.
    8880022    1    1    2    0    0 -0.98358701664E+03  0.54538481817E+02 -0.14919275430E+04  0.17943403557E+04  0.15294330000E+03 0.  0.
    8880022    1    1    2    0    0  0.98358701664E+03 -0.54538481817E+02  0.95933588616E+03  0.13835226275E+04  0.15294330000E+03 0.  0.
<mgrwt>
<rscale>  0 0.99689995E+03</rscale>
<asrwt>0</asrwt>
<pdfrwt beam="1">  1        1 0.28541959E+00 0.99689995E+03</pdfrwt>
<pdfrwt beam="2">  1       -1 0.20348241E+00 0.99689995E+03</pdfrwt>
<totfact> 0.53840633E-01</totfact>
</mgrwt>
</event>
<event>
 4    1  0.8749406E-009  0.7597790E+03  0.7818608E-02  0.9620132E-01
         -1   -1    0    0    0  501 -0.00000000000E+00  0.00000000000E+00  0.19092442364E+04  0.19092442364E+04  0.50400000000E-02 0.  1.
          1   -1    0    0  501    0  0.00000000000E+00 -0.00000000000E+00 -0.96810127568E+03  0.96810127569E+03  0.50400000000E-02 0. -1.
    8880022    1    1    2    0    0 -0.67160290714E+03  0.32065880118E+03  0.16636167172E+04  0.18289026126E+04  0.15294330000E+03 0.  0.
    8880022    1    1    2    0    0  0.67160290714E+03 -0.32065880118E+03 -0.72247375648E+03  0.10484428995E+04  0.15294330000E+03 0.  0.
<mgrwt>
<rscale>  0 0.75977904E+03</rscale>
<asrwt>0</asrwt>
<pdfrwt beam="1">  1        1 0.14893866E+00 0.75977904E+03</pdfrwt>
<pdfrwt beam="2">  1       -1 0.29372988E+00 0.75977904E+03</pdfrwt>
<totfact> 0.61513556E-01</totfact>
</mgrwt>
</event>
<event>
 4    1  0.8749406E-009  0.1240632E+04  0.7818608E-02  0.9078017E-01
          1   -1    0    0  501    0  0.00000000000E+00  0.00000000000E+00  0.60493308326E+03  0.60493308328E+03  0.50400000000E-02 0. -1.
         -1   -1    0    0    0  501 -0.00000000000E+00 -0.00000000000E+00 -0.30512323962E+04  0.30512323962E+04  0.50400000000E-02 0.  1.
    8880022    1    1    2    0    0 -0.11265716731E+04  0.49660048960E+03 -0.47806160321E+03  0.13295526806E+04  0.15294330000E+03 0.  0.
    8880022    1    1    2    0    0  0.11265716731E+04 -0.49660048960E+03 -0.19682377098E+04  0.23266127989E+04  0.15294330000E+03 0.  0.
<mgrwt>
<rscale>  0 0.12406319E+04</rscale>
<asrwt>0</asrwt>
<pdfrwt beam="1">  1        1 0.93066630E-01 0.12406319E+04</pdfrwt>
<pdfrwt beam="2">  1       -1 0.46942036E+00 0.12406319E+04</pdfrwt>
<totfact> 0.79646892E-02</totfact>
</mgrwt>
</event>
<event>
 4    1  0.8749406E-009  0.2987211E+03  0.7818608E-02  0.1085882E+00
          1   -1    0    0  501    0  0.00000000000E+00  0.00000000000E+00  0.11812215064E+04  0.11812215065E+04  0.50400000000E-02 0. -1.
         -1   -1    0    0    0  501 -0.00000000000E+00 -0.00000000000E+00 -0.17840729724E+03  0.17840729731E+03  0.50400000000E-02 0.  1.
    8880022    1    1    2    0    0  0.25172174320E+03 -0.49787865219E+02  0.10176024150E+04  0.10605418405E+04  0.15294330000E+03 0.  0.
    8880022    1    1    2    0    0 -0.25172174320E+03  0.49787865219E+02 -0.14788205786E+02  0.29908696322E+03  0.15294330000E+03 0.  0.
<mgrwt>
<rscale>  0 0.29872114E+03</rscale>
<asrwt>0</asrwt>
<pdfrwt beam="1">  1        1 0.18172639E+00 0.29872114E+03</pdfrwt>
<pdfrwt beam="2">  1       -1 0.27447275E-01 0.29872114E+03</pdfrwt>
<totfact> 0.14108656E+02</totfact>
</mgrwt>
</event>
<event>
 4    1  0.8749406E-009  0.8772416E+03  0.7818608E-02  0.9454486E-01
          1   -1    0    0  501    0  0.00000000000E+00  0.00000000000E+00  0.15418895156E+04  0.15418895156E+04  0.50400000000E-02 0. -1.
         -1   -1    0    0    0  501 -0.00000000000E+00 -0.00000000000E+00 -0.15833427185E+04  0.15833427185E+04  0.50400000000E-02 0.  1.
    8880022    1    1    2    0    0 -0.59996704197E+03 -0.62145055579E+03  0.12723630383E+04  0.15454645253E+04  0.15294330000E+03 0.  0.
    8880022    1    1    2    0    0  0.59996704197E+03  0.62145055579E+03 -0.13138162413E+04  0.15797677088E+04  0.15294330000E+03 0.  0.
<mgrwt>
<rscale>  0 0.87724164E+03</rscale>
<asrwt>0</asrwt>
<pdfrwt beam="1">  1        1 0.23721377E+00 0.87724164E+03</pdfrwt>
<pdfrwt beam="2">  1       -1 0.24359119E+00 0.87724164E+03</pdfrwt>
<totfact> 0.48555935E-01</totfact>
</mgrwt>
</event>
<event>
 4    1  0.1353321E-008  0.6223634E+03  0.7818608E-02  0.9860065E-01
         -1   -1    0    0    0  501 -0.00000000000E+00  0.00000000000E+00  0.18893951964E+04  0.18893951964E+04  0.50400000000E-02 0.  1.
          1   -1    0    0  501    0  0.00000000000E+00 -0.00000000000E+00 -0.25329911322E+04  0.25329911322E+04  0.50400000000E-02 0. -1.
    8880022    1    1    2    0    0  0.36811680584E+03 -0.47794833911E+03 -0.24416229401E+04  0.25196941942E+04  0.15294330000E+03 0.  0.
    8880022    1    1    2    0    0 -0.36811680584E+03  0.47794833911E+03  0.17980270042E+04  0.19026921345E+04  0.15294330000E+03 0.  0.
<mgrwt>
<rscale>  0 0.62236344E+03</rscale>
<asrwt>0</asrwt>
<pdfrwt beam="1">  1        1 0.38969094E+00 0.62236344E+03</pdfrwt>
<pdfrwt beam="2">  1       -1 0.29067618E+00 0.62236344E+03</pdfrwt>
<totfact> 0.55832063E-02</totfact>
</mgrwt>
</event>
<event>
 4    1  0.8749406E-009  0.6732183E+03  0.7818608E-02  0.9764161E-01
          1   -1    0    0  501    0  0.00000000000E+00  0.00000000000E+00  0.47121712249E+03  0.47121712252E+03  0.50400000000E-02 0. -1.
         -1   -1    0    0    0  501 -0.00000000000E+00 -0.00000000000E+00 -0.17439269036E+04  0.17439269036E+04  0.50400000000E-02 0.  1.
    8880022    1    1    2    0    0 -0.65133152997E+03 -0.74822483669E+02  0.10536990815E+03  0.68141443817E+03  0.15294330000E+03 0.  0.
    8880022    1    1    2    0    0  0.65133152997E+03  0.74822483669E+02 -0.13780796892E+04  0.15337295879E+04  0.15294330000E+03 0.  0.
<mgrwt>
<rscale>  0 0.67321826E+03</rscale>
<asrwt>0</asrwt>
<pdfrwt beam="1">  1        1 0.72494943E-01 0.67321826E+03</pdfrwt>
<pdfrwt beam="2">  1       -1 0.26829644E+00 0.67321826E+03</pdfrwt>
<totfact> 0.27005570E+00</totfact>
</mgrwt>
</event>
<event>
 4    1  0.8749406E-009  0.5180271E+03  0.7818608E-02  0.1009178E+00
          1   -1    0    0  501    0  0.00000000000E+00  0.00000000000E+00  0.33518010187E+04  0.33518010187E+04  0.50400000000E-02 0. -1.
         -1   -1    0    0    0  501 -0.00000000000E+00 -0.00000000000E+00 -0.25029297216E+03  0.25029297221E+03  0.50400000000E-02 0.  1.
    8880022    1    1    2    0    0 -0.49374894353E+03  0.34240603466E+02  0.65434355492E+02  0.52214341522E+03  0.15294330000E+03 0.  0.
    8880022    1    1    2    0    0  0.49374894353E+03 -0.34240603466E+02  0.30360736911E+04  0.30799505757E+04  0.15294330000E+03 0.  0.
<mgrwt>
<rscale>  0 0.51802711E+03</rscale>
<asrwt>0</asrwt>
<pdfrwt beam="1">  1        1 0.51566172E+00 0.51802711E+03</pdfrwt>
<pdfrwt beam="2">  1       -1 0.38506610E-01 0.51802711E+03</pdfrwt>
<totfact> 0.24390190E+00</totfact>
</mgrwt>
</event>
<event>
 4    1  0.8749406E-009  0.1087747E+04  0.7818608E-02  0.9217218E-01
         -1   -1    0    0    0  501 -0.00000000000E+00  0.00000000000E+00  0.18262084137E+04  0.18262084137E+04  0.50400000000E-02 0.  1.
          1   -1    0    0  501    0  0.00000000000E+00 -0.00000000000E+00 -0.89207479697E+03  0.89207479699E+03  0.50400000000E-02 0. -1.
    8880022    1    1    2    0    0  0.44292171485E+03  0.98164219729E+03  0.11781464644E+04  0.16035029759E+04  0.15294330000E+03 0.  0.
    8880022    1    1    2    0    0 -0.44292171485E+03 -0.98164219729E+03 -0.24401284773E+03  0.11147802348E+04  0.15294330000E+03 0.  0.
<mgrwt>
<rscale>  0 0.10877466E+04</rscale>
<asrwt>0</asrwt>
<pdfrwt beam="1">  1        1 0.13724228E+00 0.10877466E+04</pdfrwt>
<pdfrwt beam="2">  1       -1 0.28095514E+00 0.10877466E+04</pdfrwt>
<totfact> 0.80971580E-01</totfact>
</mgrwt>
</event>
<event>
 4    1  0.8749406E-009  0.4452529E+03  0.7818608E-02  0.1029147E+00
          1   -1    0    0  501    0  0.00000000000E+00  0.00000000000E+00  0.31562999114E+04  0.31562999114E+04  0.50400000000E-02 0. -1.
         -1   -1    0    0    0  501 -0.00000000000E+00 -0.00000000000E+00 -0.26152216181E+03  0.26152216186E+03  0.50400000000E-02 0.  1.
    8880022    1    1    2    0    0 -0.33222385233E+03  0.25394058468E+03 -0.42234242978E+02  0.44725148731E+03  0.15294330000E+03 0.  0.
    8880022    1    1    2    0    0  0.33222385233E+03 -0.25394058468E+03  0.29370119926E+04  0.29705705860E+04  0.15294330000E+03 0. -1.
<mgrwt>
<rscale>  0 0.44525292E+03</rscale>
<asrwt>0</asrwt>
<pdfrwt beam="1">  1        1 0.48558463E+00 0.44525292E+03</pdfrwt>
<pdfrwt beam="2">  1       -1 0.40234177E-01 0.44525292E+03</pdfrwt>
<totfact> 0.32141071E+00</totfact>
</mgrwt>
</event>
<event>
 4    1  0.8749406E-009  0.1626373E+04  0.7818608E-02  0.8804508E-01
         -1   -1    0    0    0  501 -0.00000000000E+00  0.00000000000E+00  0.26031397581E+04  0.26031397581E+04  0.50400000000E-02 0.  1.
          1   -1    0    0  501    0  0.00000000000E+00 -0.00000000000E+00 -0.16977734767E+04  0.16977734767E+04  0.50400000000E-02 0. -1.
    8880022    1    1    2    0    0  0.14810975417E+04  0.65425286309E+03  0.18153018616E+04  0.24372954762E+04  0.15294330000E+03 0.  0.
    8880022    1    1    2    0    0 -0.14810975417E+04 -0.65425286309E+03 -0.90993558015E+03  0.18636177585E+04  0.15294330000E+03 0.  0.
<mgrwt>
<rscale>  0 0.16263728E+04</rscale>
<asrwt>0</asrwt>
<pdfrwt beam="1">  1        1 0.26119592E+00 0.16263728E+04</pdfrwt>
<pdfrwt beam="2">  1       -1 0.40048304E+00 0.16263728E+04</pdfrwt>
<totfact> 0.31573526E-02</totfact>
</mgrwt>
</event>
<event>
 4    1  0.8749406E-009  0.4499915E+03  0.7818608E-02  0.1027725E+00
          1   -1    0    0  501    0  0.00000000000E+00  0.00000000000E+00  0.11509549385E+04  0.11509549385E+04  0.50400000000E-02 0. -1.
         -1   -1    0    0    0  501 -0.00000000000E+00 -0.00000000000E+00 -0.21548347414E+04  0.21548347414E+04  0.50400000000E-02 0.  1.
    8880022    1    1    2    0    0  0.83249337449E+02 -0.41493403625E+03  0.10820420213E+04  0.11718819461E+04  0.15294330000E+03 0.  0.
    8880022    1    1    2    0    0 -0.83249337449E+02  0.41493403625E+03 -0.20859218242E+04  0.21339077338E+04  0.15294330000E+03 0.  1.
<mgrwt>
<rscale>  0 0.44999151E+03</rscale>
<asrwt>0</asrwt>
<pdfrwt beam="1">  1        1 0.17706999E+00 0.44999151E+03</pdfrwt>
<pdfrwt beam="2">  1       -1 0.33151304E+00 0.44999151E+03</pdfrwt>
<totfact> 0.28134557E-01</totfact>
</mgrwt>
</event>
<event>
 4    1  0.8749406E-009  0.5456992E+03  0.7818608E-02  0.1002494E+00
         -1   -1    0    0    0  501 -0.00000000000E+00  0.00000000000E+00  0.61690809424E+03  0.61690809426E+03  0.50400000000E-02 0.  1.
          1   -1    0    0  501    0  0.00000000000E+00 -0.00000000000E+00 -0.96435318343E+03  0.96435318345E+03  0.50400000000E-02 0. -1.
    8880022    1    1    2    0    0 -0.26108140795E+03  0.45412821916E+03 -0.73247362016E+03  0.91340308641E+03  0.15294330000E+03 0.  0.
    8880022    1    1    2    0    0  0.26108140795E+03 -0.45412821916E+03  0.38502853096E+03  0.66785819130E+03  0.15294330000E+03 0.  0.
<mgrwt>
<rscale>  0 0.54569918E+03</rscale>
<asrwt>0</asrwt>
<pdfrwt beam="1">  1        1 0.14836203E+00 0.54569918E+03</pdfrwt>
<pdfrwt beam="2">  1       -1 0.94908938E-01 0.54569918E+03</pdfrwt>
<totfact> 0.18365339E+01</totfact>
</mgrwt>
</event>
<event>
 4    1  0.8749406E-009  0.3200575E+03  0.7818608E-02  0.1075623E+00
         -1   -1    0    0    0  501 -0.00000000000E+00  0.00000000000E+00  0.38534606154E+03  0.38534606157E+03  0.50400000000E-02 0.  1.
          1   -1    0    0  501    0  0.00000000000E+00 -0.00000000000E+00 -0.10304399353E+04  0.10304399353E+04  0.50400000000E-02 0. -1.
    8880022    1    1    2    0    0 -0.24445274754E+03 -0.13888135860E+03 -0.93233094834E+03  0.98573720017E+03  0.15294330000E+03 0. -1.
    8880022    1    1    2    0    0  0.24445274754E+03  0.13888135860E+03  0.28723707456E+03  0.43004879673E+03  0.15294330000E+03 0.  0.
<mgrwt>
<rscale>  0 0.32005754E+03</rscale>
<asrwt>0</asrwt>
<pdfrwt beam="1">  1        1 0.15852922E+00 0.32005754E+03</pdfrwt>
<pdfrwt beam="2">  1       -1 0.59284010E-01 0.32005754E+03</pdfrwt>
<totfact> 0.45278270E+01</totfact>
</mgrwt>
</event>
<event>
 4    1  0.8749406E-009  0.5100833E+03  0.7818608E-02  0.1011180E+00
         -1   -1    0    0    0  501 -0.00000000000E+00  0.00000000000E+00  0.39044070358E+03  0.39044070362E+03  0.50400000000E-02 0.  1.
          1   -1    0    0  501    0  0.00000000000E+00 -0.00000000000E+00 -0.12469734120E+04  0.12469734120E+04  0.50400000000E-02 0. -1.
    8880022    1    1    2    0    0 -0.30907335502E+03  0.37585494657E+03  0.13037497370E+03  0.52648130682E+03  0.15294330000E+03 0.  0.
    8880022    1    1    2    0    0  0.30907335502E+03 -0.37585494657E+03 -0.98690768212E+03  0.11109328088E+04  0.15294330000E+03 0.  0.
<mgrwt>
<rscale>  0 0.51008326E+03</rscale>
<asrwt>0</asrwt>
<pdfrwt beam="1">  1        1 0.19184206E+00 0.51008326E+03</pdfrwt>
<pdfrwt beam="2">  1       -1 0.60067801E-01 0.51008326E+03</pdfrwt>
<totfact> 0.29573469E+01</totfact>
</mgrwt>
</event>
<event>
 4    1  0.8749406E-009  0.6215811E+03  0.7818608E-02  0.9861617E-01
          1   -1    0    0  501    0  0.00000000000E+00  0.00000000000E+00  0.35612998987E+04  0.35612998987E+04  0.50400000000E-02 0. -1.
         -1   -1    0    0    0  501 -0.00000000000E+00 -0.00000000000E+00 -0.77566552267E+03  0.77566552269E+03  0.50400000000E-02 0.  1.
    8880022    1    1    2    0    0  0.52899114015E+02 -0.60014423572E+03 -0.61830745297E+03  0.87673666476E+03  0.15294330000E+03 0.  0.
    8880022    1    1    2    0    0 -0.52899114015E+02  0.60014423572E+03  0.34039418290E+04  0.34602287566E+04  0.15294330000E+03 0.  0.
<mgrwt>
<rscale>  0 0.62158111E+03</rscale>
<asrwt>0</asrwt>
<pdfrwt beam="1">  1        1 0.54789229E+00 0.62158111E+03</pdfrwt>
<pdfrwt beam="2">  1       -1 0.11933316E+00 0.62158111E+03</pdfrwt>
<totfact> 0.16094020E-01</totfact>
</mgrwt>
</event>
<event>
 4    1  0.8749406E-009  0.5841201E+03  0.7818608E-02  0.9938911E-01
         -1   -1    0    0    0  501 -0.00000000000E+00  0.00000000000E+00  0.24693736185E+04  0.24693736185E+04  0.50400000000E-02 0.  1.
          1   -1    0    0  501    0  0.00000000000E+00 -0.00000000000E+00 -0.49561358460E+03  0.49561358463E+03  0.50400000000E-02 0. -1.
    8880022    1    1    2    0    0  0.40347844174E+03 -0.39371276664E+03  0.22458757776E+04  0.23205935140E+04  0.15294330000E+03 0.  0.
    8880022    1    1    2    0    0 -0.40347844174E+03  0.39371276664E+03 -0.27211574376E+03  0.64439368912E+03  0.15294330000E+03 0.  0.
<mgrwt>
<rscale>  0 0.58412006E+03</rscale>
<asrwt>0</asrwt>
<pdfrwt beam="1">  1        1 0.76248243E-01 0.58412006E+03</pdfrwt>
<pdfrwt beam="2">  1       -1 0.37990364E+00 0.58412006E+03</pdfrwt>
<totfact> 0.48913651E-01</totfact>
</mgrwt>
</event>
<event>
 4    1  0.8749406E-009  0.9678862E+03  0.7818608E-02  0.9344485E-01
         -1   -1    0    0    0  501 -0.00000000000E+00  0.00000000000E+00  0.13727990238E+04  0.13727990238E+04  0.50400000000E-02 0.  1.
          1   -1    0    0  501    0  0.00000000000E+00 -0.00000000000E+00 -0.20423676605E+04  0.20423676605E+04  0.50400000000E-02 0. -1.
    8880022    1    1    2    0    0 -0.32813573890E+03 -0.89762965598E+03  0.10586245781E+04  0.14343952429E+04  0.15294330000E+03 0.  0.
    8880022    1    1    2    0    0  0.32813573890E+03  0.89762965598E+03 -0.17281932148E+04  0.19807714414E+04  0.15294330000E+03 0.  0.
<mgrwt>
<rscale>  0 0.96788621E+03</rscale>
<asrwt>0</asrwt>
<pdfrwt beam="1">  1        1 0.31421041E+00 0.96788621E+03</pdfrwt>
<pdfrwt beam="2">  1       -1 0.21119985E+00 0.96788621E+03</pdfrwt>
<totfact> 0.35890048E-01</totfact>
</mgrwt>
</event>
<event>
 4    1  0.8749406E-009  0.5773079E+03  0.7818608E-02  0.9953636E-01
         -1   -1    0    0    0  501 -0.00000000000E+00  0.00000000000E+00  0.89150978616E+03  0.89150978618E+03  0.50400000000E-02 0.  1.
          1   -1    0    0  501    0  0.00000000000E+00 -0.00000000000E+00 -0.19795216180E+04  0.19795216180E+04  0.50400000000E-02 0. -1.
    8880022    1    1    2    0    0  0.14747477105E+03 -0.53679044515E+03  0.74887097474E+03  0.94556447687E+03  0.15294330000E+03 0.  0.
    8880022    1    1    2    0    0 -0.14747477105E+03  0.53679044515E+03 -0.18368828066E+04  0.19254669274E+04  0.15294330000E+03 0.  0.
<mgrwt>
<rscale>  0 0.57730793E+03</rscale>
<asrwt>0</asrwt>
<pdfrwt beam="1">  1        1 0.30454179E+00 0.57730793E+03</pdfrwt>
<pdfrwt beam="2">  1       -1 0.13715535E+00 0.57730793E+03</pdfrwt>
<totfact> 0.14966368E+00</totfact>
</mgrwt>
</event>
<event>
 4    1  0.8749406E-009  0.8571948E+03  0.7818608E-02  0.9480731E-01
          1   -1    0    0  501    0  0.00000000000E+00  0.00000000000E+00  0.27202049177E+04  0.27202049177E+04  0.50400000000E-02 0. -1.
         -1   -1    0    0    0  501 -0.00000000000E+00 -0.00000000000E+00 -0.36681737797E+03  0.36681737800E+03  0.50400000000E-02 0.  1.
    8880022    1    1    2    0    0 -0.71883665436E+03 -0.44120881612E+03  0.19691789178E+04  0.21476611973E+04  0.15294330000E+03 0.  0.
    8880022    1    1    2    0    0  0.71883665436E+03  0.44120881612E+03  0.38420862198E+03  0.93936109845E+03  0.15294330000E+03 0.  0.
<mgrwt>
<rscale>  0 0.85719485E+03</rscale>
<asrwt>0</asrwt>
<pdfrwt beam="1">  1        1 0.41849305E+00 0.85719485E+03</pdfrwt>
<pdfrwt beam="2">  1       -1 0.56433444E-01 0.85719485E+03</pdfrwt>
<totfact> 0.31543910E+00</totfact>
</mgrwt>
</event>
<event>
 4    1  0.8749406E-009  0.6905654E+03  0.7818608E-02  0.9733504E-01
         -1   -1    0    0    0  501 -0.00000000000E+00  0.00000000000E+00  0.62526957281E+03  0.62526957283E+03  0.50400000000E-02 0.  1.
          1   -1    0    0  501    0  0.00000000000E+00 -0.00000000000E+00 -0.17220596054E+04  0.17220596054E+04  0.50400000000E-02 0. -1.
    8880022    1    1    2    0    0  0.59919363565E+03 -0.30733669539E+03  0.32762732958E+03  0.76434297109E+03  0.15294330000E+03 0.  0.
    8880022    1    1    2    0    0 -0.59919363565E+03  0.30733669539E+03 -0.14244173621E+04  0.15829862071E+04  0.15294330000E+03 0.  0.
<mgrwt>
<rscale>  0 0.69056536E+03</rscale>
<asrwt>0</asrwt>
<pdfrwt beam="1">  1        1 0.26493224E+00 0.69056536E+03</pdfrwt>
<pdfrwt beam="2">  1       -1 0.96195320E-01 0.69056536E+03</pdfrwt>
<totfact> 0.50624954E+00</totfact>
</mgrwt>
</event>
<event>
 4    1  0.8749406E-009  0.6704648E+03  0.7818608E-02  0.9769118E-01
          1   -1    0    0  501    0  0.00000000000E+00  0.00000000000E+00  0.61534233979E+03  0.61534233981E+03  0.50400000000E-02 0. -1.
         -1   -1    0    0    0  501 -0.00000000000E+00 -0.00000000000E+00 -0.10057205379E+04  0.10057205379E+04  0.50400000000E-02 0.  1.
    8880022    1    1    2    0    0 -0.42329399346E+03  0.49694431941E+03  0.22879708483E+03  0.70842869827E+03  0.15294330000E+03 0.  0.
    8880022    1    1    2    0    0  0.42329399346E+03 -0.49694431941E+03 -0.61917528294E+03  0.91263417946E+03  0.15294330000E+03 0.  0.
<mgrwt>
<rscale>  0 0.67046485E+03</rscale>
<asrwt>0</asrwt>
<pdfrwt beam="1">  1        1 0.94668052E-01 0.67046485E+03</pdfrwt>
<pdfrwt beam="2">  1       -1 0.15472624E+00 0.67046485E+03</pdfrwt>
<totfact> 0.11020463E+01</totfact>
</mgrwt>
</event>
<event>
 4    1  0.8749406E-009  0.3868235E+03  0.7818608E-02  0.1048440E+00
          1   -1    0    0  501    0  0.00000000000E+00  0.00000000000E+00  0.10893568127E+04  0.10893568127E+04  0.50400000000E-02 0. -1.
         -1   -1    0    0    0  501 -0.00000000000E+00 -0.00000000000E+00 -0.10488155184E+04  0.10488155184E+04  0.50400000000E-02 0.  1.
    8880022    1    1    2    0    0  0.35517188474E+03 -0.96792165981E+01 -0.97635315740E+03  0.10501894572E+04  0.15294330000E+03 0.  1.
    8880022    1    1    2    0    0 -0.35517188474E+03  0.96792165981E+01  0.10168944517E+04  0.10879828739E+04  0.15294330000E+03 0.  0.
<mgrwt>
<rscale>  0 0.38682348E+03</rscale>
<asrwt>0</asrwt>
<pdfrwt beam="1">  1        1 0.16759336E+00 0.38682348E+03</pdfrwt>
<pdfrwt beam="2">  1       -1 0.16135623E+00 0.38682348E+03</pdfrwt>
<totfact> 0.41630317E+00</totfact>
</mgrwt>
</event>
<event>
 4    1  0.8749406E-009  0.6183891E+03  0.7818608E-02  0.9867972E-01
         -1   -1    0    0    0  501 -0.00000000000E+00  0.00000000000E+00  0.10327143688E+04  0.10327143688E+04  0.50400000000E-02 0.  1.
          1   -1    0    0  501    0  0.00000000000E+00 -0.00000000000E+00 -0.11513135609E+04  0.11513135609E+04  0.50400000000E-02 0. -1.
    8880022    1    1    2    0    0  0.55389543883E+03 -0.22850229134E+03 -0.95872075229E+03  0.11408552004E+04  0.15294330000E+03 0.  0.
    8880022    1    1    2    0    0 -0.55389543883E+03  0.22850229134E+03  0.84012156019E+03  0.10431727293E+04  0.15294330000E+03 0.  0.
<mgrwt>
<rscale>  0 0.61838912E+03</rscale>
<asrwt>0</asrwt>
<pdfrwt beam="1">  1        1 0.17712516E+00 0.61838912E+03</pdfrwt>
<pdfrwt beam="2">  1       -1 0.15887913E+00 0.61838912E+03</pdfrwt>
<totfact> 0.36857337E+00</totfact>
</mgrwt>
</event>
<event>
 4    1  0.8749406E-009  0.7829086E+03  0.7818608E-02  0.9585091E-01
          1   -1    0    0  501    0  0.00000000000E+00  0.00000000000E+00  0.11539214406E+04  0.11539214407E+04  0.50400000000E-02 0. -1.
         -1   -1    0    0    0  501 -0.00000000000E+00 -0.00000000000E+00 -0.58826993328E+03  0.58826993330E+03  0.50400000000E-02 0.  1.
    8880022    1    1    2    0    0  0.34188712874E+03 -0.68750814655E+03  0.55418072490E+03  0.95919872250E+03  0.15294330000E+03 0.  0.
    8880022    1    1    2    0    0 -0.34188712874E+03  0.68750814655E+03  0.11470782467E+02  0.78299265146E+03  0.15294330000E+03 0.  0.
<mgrwt>
<rscale>  0 0.78290862E+03</rscale>
<asrwt>0</asrwt>
<pdfrwt beam="1">  1        1 0.17752637E+00 0.78290862E+03</pdfrwt>
<pdfrwt beam="2">  1       -1 0.90503068E-01 0.78290862E+03</pdfrwt>
<totfact> 0.14171997E+01</totfact>
</mgrwt>
</event>
<event>
 4    1  0.8749406E-009  0.4299390E+03  0.7818608E-02  0.1033879E+00
          1   -1    0    0  501    0  0.00000000000E+00  0.00000000000E+00  0.21051800529E+04  0.21051800529E+04  0.50400000000E-02 0. -1.
         -1   -1    0    0    0  501 -0.00000000000E+00 -0.00000000000E+00 -0.30624115808E+03  0.30624115812E+03  0.50400000000E-02 0.  1.
    8880022    1    1    2    0    0  0.33666233715E+03 -0.21934993638E+03  0.19177618596E+04  0.19653646296E+04  0.15294330000E+03 0.  0.
    8880022    1    1    2    0    0 -0.33666233715E+03  0.21934993638E+03 -0.11882296485E+03  0.44605658143E+03  0.15294330000E+03 0.  0.
<mgrwt>
<rscale>  0 0.42993904E+03</rscale>
<asrwt>0</asrwt>
<pdfrwt beam="1">  1        1 0.32387385E+00 0.42993904E+03</pdfrwt>
<pdfrwt beam="2">  1       -1 0.47114024E-01 0.42993904E+03</pdfrwt>
<totfact> 0.12688190E+01</totfact>
</mgrwt>
</event>
<event>
 4    1  0.8749406E-009  0.7906448E+03  0.7818608E-02  0.9573658E-01
         -1   -1    0    0    0  501 -0.00000000000E+00  0.00000000000E+00  0.10943450965E+04  0.10943450965E+04  0.50400000000E-02 0.  1.
          1   -1    0    0  501    0  0.00000000000E+00 -0.00000000000E+00 -0.80683473506E+03  0.80683473507E+03  0.50400000000E-02 0. -1.
    8880022    1    1    2    0    0 -0.75858746785E+03  0.16208817381E+03  0.65743904815E+03  0.10282729587E+04  0.15294330000E+03 0.  0.
    8880022    1    1    2    0    0  0.75858746785E+03 -0.16208817381E+03 -0.36992868673E+03  0.87290687290E+03  0.15294330000E+03 0.  0.
<mgrwt>
<rscale>  0 0.79064478E+03</rscale>
<asrwt>0</asrwt>
<pdfrwt beam="1">  1        1 0.12412842E+00 0.79064478E+03</pdfrwt>
<pdfrwt beam="2">  1       -1 0.16836078E+00 0.79064478E+03</pdfrwt>
<totfact> 0.56769821E+00</totfact>
</mgrwt>
</event>
<event>
 4    1  0.8749406E-009  0.1685332E+04  0.7818608E-02  0.8769774E-01
         -1   -1    0    0    0  501 -0.00000000000E+00  0.00000000000E+00  0.36156004529E+04  0.36156004529E+04  0.50400000000E-02 0.  1.
          1   -1    0    0  501    0  0.00000000000E+00 -0.00000000000E+00 -0.97919140093E+03  0.97919140095E+03  0.50400000000E-02 0. -1.
    8880022    1    1    2    0    0  0.15940023117E+04  0.52546226631E+03  0.29663758850E+03  0.17112391636E+04  0.15294330000E+03 0.  0.
    8880022    1    1    2    0    0 -0.15940023117E+04 -0.52546226631E+03  0.23397714634E+04  0.28835526902E+04  0.15294330000E+03 0.  0.
<mgrwt>
<rscale>  0 0.16853325E+04</rscale>
<asrwt>0</asrwt>
<pdfrwt beam="1">  1        1 0.15064483E+00 0.16853325E+04</pdfrwt>
<pdfrwt beam="2">  1       -1 0.55624623E+00 0.16853325E+04</pdfrwt>
<totfact> 0.99730266E-03</totfact>
</mgrwt>
</event>
<event>
 4    1  0.8851298E-009  0.1046448E+04  0.7818608E-02  0.9259019E-01
         -1   -1    0    0    0  501 -0.00000000000E+00  0.00000000000E+00  0.17885326360E+04  0.17885326360E+04  0.50400000000E-02 0.  1.
          1   -1    0    0  501    0  0.00000000000E+00 -0.00000000000E+00 -0.18376510813E+04  0.18376510813E+04  0.50400000000E-02 0. -1.
    8880022    1    1    2    0    0  0.10316747454E+04 -0.85491405549E+02 -0.15051158466E+04  0.18331467277E+04  0.15294330000E+03 0.  0.
    8880022    1    1    2    0    0 -0.10316747454E+04  0.85491405549E+02  0.14559974013E+04  0.17930369897E+04  0.15294330000E+03 0.  0.
<mgrwt>
<rscale>  0 0.10464479E+04</rscale>
<asrwt>0</asrwt>
<pdfrwt beam="1">  1        1 0.28271555E+00 0.10464479E+04</pdfrwt>
<pdfrwt beam="2">  1       -1 0.27515887E+00 0.10464479E+04</pdfrwt>
<totfact> 0.18534950E-01</totfact>
</mgrwt>
</event>
<event>
 4    1  0.8749406E-009  0.5048095E+03  0.7818608E-02  0.1012531E+00
         -1   -1    0    0    0  501 -0.00000000000E+00  0.00000000000E+00  0.13287473464E+04  0.13287473464E+04  0.50400000000E-02 0.  1.
          1   -1    0    0  501    0  0.00000000000E+00 -0.00000000000E+00 -0.93419854375E+03  0.93419854376E+03  0.50400000000E-02 0. -1.
    8880022    1    1    2    0    0  0.11981267683E+03 -0.46592476850E+03  0.12059413392E+04  0.13073358918E+04  0.15294330000E+03 0.  0.
    8880022    1    1    2    0    0 -0.11981267683E+03  0.46592476850E+03 -0.81139253659E+03  0.95560999832E+03  0.15294330000E+03 0.  0.
<mgrwt>
<rscale>  0 0.50480949E+03</rscale>
<asrwt>0</asrwt>
<pdfrwt beam="1">  1        1 0.14372285E+00 0.50480949E+03</pdfrwt>
<pdfrwt beam="2">  1       -1 0.20442267E+00 0.50480949E+03</pdfrwt>
<totfact> 0.26282672E+00</totfact>
</mgrwt>
</event>
<event>
 4    1  0.8749406E-009  0.3896855E+03  0.7818608E-02  0.1047411E+00
         -1   -1    0    0    0  501 -0.00000000000E+00  0.00000000000E+00  0.10655957978E+04  0.10655957978E+04  0.50400000000E-02 0.  1.
          1   -1    0    0  501    0  0.00000000000E+00 -0.00000000000E+00 -0.11044870898E+04  0.11044870899E+04  0.50400000000E-02 0. -1.
    8880022    1    1    2    0    0  0.32762386151E+03  0.14534699430E+03  0.99318032130E+03  0.10668935969E+04  0.15294330000E+03 0.  0.
    8880022    1    1    2    0    0 -0.32762386151E+03 -0.14534699430E+03 -0.10320716133E+04  0.11031892908E+04  0.15294330000E+03 0.  0.
<mgrwt>
<rscale>  0 0.38968551E+03</rscale>
<asrwt>0</asrwt>
<pdfrwt beam="1">  1        1 0.16992109E+00 0.38968551E+03</pdfrwt>
<pdfrwt beam="2">  1       -1 0.16393781E+00 0.38968551E+03</pdfrwt>
<totfact> 0.38804948E+00</totfact>
</mgrwt>
</event>
<event>
 4    1  0.8749406E-009  0.5997774E+03  0.7818608E-02  0.9905868E-01
          1   -1    0    0  501    0  0.00000000000E+00  0.00000000000E+00  0.25049600194E+04  0.25049600194E+04  0.50400000000E-02 0. -1.
         -1   -1    0    0    0  501 -0.00000000000E+00 -0.00000000000E+00 -0.33317280090E+03  0.33317280094E+03  0.50400000000E-02 0.  1.
    8880022    1    1    2    0    0  0.52108023521E+03  0.25459114294E+03  0.15492579754E+02  0.59997744511E+03  0.15294330000E+03 0.  0.
    8880022    1    1    2    0    0 -0.52108023521E+03 -0.25459114294E+03  0.21562946387E+04  0.22381553752E+04  0.15294330000E+03 0.  0.
<mgrwt>
<rscale>  0 0.59977739E+03</rscale>
<asrwt>0</asrwt>
<pdfrwt beam="1">  1        1 0.38537844E+00 0.59977739E+03</pdfrwt>
<pdfrwt beam="2">  1       -1 0.51257358E-01 0.59977739E+03</pdfrwt>
<totfact> 0.56106646E+00</totfact>
</mgrwt>
</event>
<event>
 4    1  0.8749406E-009  0.2972250E+03  0.7818608E-02  0.1086636E+00
          1   -1    0    0  501    0  0.00000000000E+00  0.00000000000E+00  0.14931561342E+04  0.14931561342E+04  0.50400000000E-02 0. -1.
         -1   -1    0    0    0  501 -0.00000000000E+00 -0.00000000000E+00 -0.82292146942E+02  0.82292147096E+02  0.50400000000E-02 0.  1.
    8880022    1    1    2    0    0  0.19597219449E+03  0.16292922387E+03  0.28783694630E+03  0.41375450895E+03  0.15294330000E+03 0.  0.
    8880022    1    1    2    0    0 -0.19597219449E+03 -0.16292922387E+03  0.11230270410E+04  0.11616937724E+04  0.15294330000E+03 0.  0.
<mgrwt>
<rscale>  0 0.29722498E+03</rscale>
<asrwt>0</asrwt>
<pdfrwt beam="1">  1        1 0.22971630E+00 0.29722498E+03</pdfrwt>
<pdfrwt beam="2">  1       -1 0.12660332E-01 0.29722498E+03</pdfrwt>
<totfact> 0.30443875E+02</totfact>
</mgrwt>
</event>
<event>
 4    1  0.8749406E-009  0.5753299E+03  0.7818608E-02  0.9957953E-01
          1   -1    0    0  501    0  0.00000000000E+00  0.00000000000E+00  0.13897313332E+04  0.13897313332E+04  0.50400000000E-02 0. -1.
         -1   -1    0    0    0  501 -0.00000000000E+00 -0.00000000000E+00 -0.30334785020E+03  0.30334785024E+03  0.50400000000E-02 0.  1.
    8880022    1    1    2    0    0 -0.48178174429E+03  0.27477109880E+03  0.93556346938E+03  0.10983093663E+04  0.15294330000E+03 0.  0.
    8880022    1    1    2    0    0  0.48178174429E+03 -0.27477109880E+03  0.15082001364E+03  0.59476981716E+03  0.15294330000E+03 0.  0.
<mgrwt>
<rscale>  0 0.57532987E+03</rscale>
<asrwt>0</asrwt>
<pdfrwt beam="1">  1        1 0.21380482E+00 0.57532987E+03</pdfrwt>
<pdfrwt beam="2">  1       -1 0.46668900E-01 0.57532987E+03</pdfrwt>
<totfact> 0.37628968E+01</totfact>
</mgrwt>
</event>
<event>
 4    1  0.8749406E-009  0.9036629E+03  0.7818608E-02  0.9421014E-01
          1   -1    0    0  501    0  0.00000000000E+00  0.00000000000E+00  0.10539940923E+04  0.10539940923E+04  0.50400000000E-02 0. -1.
         -1   -1    0    0    0  501 -0.00000000000E+00 -0.00000000000E+00 -0.13254671017E+04  0.13254671017E+04  0.50400000000E-02 0.  1.
    8880022    1    1    2    0    0  0.88031776616E+03  0.13511307616E+03  0.63112902482E+03  0.11022388179E+04  0.15294330000E+03 0.  0.
    8880022    1    1    2    0    0 -0.88031776616E+03 -0.13511307616E+03 -0.90260203423E+03  0.12772223761E+04  0.15294330000E+03 0.  0.
<mgrwt>
<rscale>  0 0.90366286E+03</rscale>
<asrwt>0</asrwt>
<pdfrwt beam="1">  1        1 0.16215294E+00 0.90366286E+03</pdfrwt>
<pdfrwt beam="2">  1       -1 0.20391802E+00 0.90366286E+03</pdfrwt>
<totfact> 0.19793896E+00</totfact>
</mgrwt>
</event>
<event>
 4    1  0.8749406E-009  0.2892847E+03  0.7818608E-02  0.1090723E+00
          1   -1    0    0  501    0  0.00000000000E+00  0.00000000000E+00  0.55940106294E+03  0.55940106297E+03  0.50400000000E-02 0. -1.
         -1   -1    0    0    0  501 -0.00000000000E+00 -0.00000000000E+00 -0.33615605614E+03  0.33615605618E+03  0.50400000000E-02 0.  1.
    8880022    1    1    2    0    0  0.23561795085E+03  0.69124218587E+02 -0.22195680391E+03  0.36462371312E+03  0.15294330000E+03 0.  0.
    8880022    1    1    2    0    0 -0.23561795085E+03 -0.69124218587E+02  0.44520181071E+03  0.53093340602E+03  0.15294330000E+03 0.  0.
<mgrwt>
<rscale>  0 0.28928469E+03</rscale>
<asrwt>0</asrwt>
<pdfrwt beam="1">  1        1 0.86061702E-01 0.28928469E+03</pdfrwt>
<pdfrwt beam="2">  1       -1 0.51716317E-01 0.28928469E+03</pdfrwt>
<totfact> 0.15080884E+02</totfact>
</mgrwt>
</event>
<event>
 4    1  0.8749406E-009  0.7965431E+03  0.7818608E-02  0.9565034E-01
         -1   -1    0    0    0  501 -0.00000000000E+00  0.00000000000E+00  0.18775344387E+04  0.18775344387E+04  0.50400000000E-02 0.  1.
          1   -1    0    0  501    0  0.00000000000E+00 -0.00000000000E+00 -0.39638002278E+03  0.39638002281E+03  0.50400000000E-02 0. -1.
    8880022    1    1    2    0    0  0.78111032880E+03 -0.30917954255E+02  0.11771627011E+04  0.14213349160E+04  0.15294330000E+03 0.  0.
    8880022    1    1    2    0    0 -0.78111032880E+03  0.30917954255E+02  0.30399171479E+03  0.85257954545E+03  0.15294330000E+03 0.  0.
<mgrwt>
<rscale>  0 0.79654311E+03</rscale>
<asrwt>0</asrwt>
<pdfrwt beam="1">  1        1 0.60981543E-01 0.79654311E+03</pdfrwt>
<pdfrwt beam="2">  1       -1 0.28885145E+00 0.79654311E+03</pdfrwt>
<totfact> 0.24659819E+00</totfact>
</mgrwt>
</event>
<event>
 4    1  0.8749406E-009  0.9733960E+03  0.7818608E-02  0.9338215E-01
         -1   -1    0    0    0  501 -0.00000000000E+00  0.00000000000E+00  0.72671490393E+03  0.72671490395E+03  0.50400000000E-02 0.  1.
          1   -1    0    0  501    0  0.00000000000E+00 -0.00000000000E+00 -0.17874488304E+04  0.17874488304E+04  0.50400000000E-02 0. -1.
    8880022    1    1    2    0    0  0.98420141637E+02 -0.95625395275E+03 -0.11842594095E+04  0.15329612351E+04  0.15294330000E+03 0.  0.
    8880022    1    1    2    0    0 -0.98420141637E+02  0.95625395275E+03  0.12352548307E+03  0.98120249918E+03  0.15294330000E+03 0.  0.
<mgrwt>
<rscale>  0 0.97339601E+03</rscale>
<asrwt>0</asrwt>
<pdfrwt beam="1">  1        1 0.27499213E+00 0.97339601E+03</pdfrwt>
<pdfrwt beam="2">  1       -1 0.11180229E+00 0.97339601E+03</pdfrwt>
<totfact> 0.30878635E+00</totfact>
</mgrwt>
</event>
<event>
 4    1  0.8749406E-009  0.2635966E+03  0.7818608E-02  0.1105001E+00
          1   -1    0    0  501    0  0.00000000000E+00  0.00000000000E+00  0.18529866522E+04  0.18529866522E+04  0.50400000000E-02 0. -1.
         -1   -1    0    0    0  501 -0.00000000000E+00 -0.00000000000E+00 -0.18617100738E+03  0.18617100745E+03  0.50400000000E-02 0.  1.
    8880022    1    1    2    0    0  0.53951246867E+02 -0.20779980734E+03  0.17445391123E+04  0.17643411984E+04  0.15294330000E+03 0.  0.
    8880022    1    1    2    0    0 -0.53951246867E+02  0.20779980734E+03 -0.77723467486E+02  0.27481646127E+03  0.15294330000E+03 0.  0.
<mgrwt>
<rscale>  0 0.26359657E+03</rscale>
<asrwt>0</asrwt>
<pdfrwt beam="1">  1        1 0.28507487E+00 0.26359657E+03</pdfrwt>
<pdfrwt beam="2">  1       -1 0.28641693E-01 0.26359657E+03</pdfrwt>
<totfact> 0.47124623E+01</totfact>
</mgrwt>
</event>
<event>
 4    1  0.8749406E-009  0.1298663E+04  0.7818608E-02  0.9030626E-01
          1   -1    0    0  501    0  0.00000000000E+00  0.00000000000E+00  0.36115212068E+04  0.36115212068E+04  0.50400000000E-02 0. -1.
         -1   -1    0    0    0  501 -0.00000000000E+00 -0.00000000000E+00 -0.59032831151E+03  0.59032831153E+03  0.50400000000E-02 0.  1.
    8880022    1    1    2    0    0 -0.11942983818E+04  0.48660680202E+03  0.24709284125E+04  0.27914178615E+04  0.15294330000E+03 0.  0.
    8880022    1    1    2    0    0  0.11942983818E+04 -0.48660680202E+03  0.55026448276E+03  0.14104316568E+04  0.15294330000E+03 0.  0.
<mgrwt>
<rscale>  0 0.12986633E+04</rscale>
<asrwt>0</asrwt>
<pdfrwt beam="1">  1        1 0.55561866E+00 0.12986633E+04</pdfrwt>
<pdfrwt beam="2">  1       -1 0.90819739E-01 0.12986633E+04</pdfrwt>
<totfact> 0.23922114E-01</totfact>
</mgrwt>
</event>
<event>
 4    1  0.8749406E-009  0.9387440E+03  0.7818608E-02  0.9378405E-01
          1   -1    0    0  501    0  0.00000000000E+00  0.00000000000E+00  0.16290857417E+04  0.16290857417E+04  0.50400000000E-02 0. -1.
         -1   -1    0    0    0  501 -0.00000000000E+00 -0.00000000000E+00 -0.11357519379E+04  0.11357519379E+04  0.50400000000E-02 0.  1.
    8880022    1    1    2    0    0  0.17030395133E+03  0.91040934412E+03  0.12470979263E+04  0.15609271285E+04  0.15294330000E+03 0.  0.
    8880022    1    1    2    0    0 -0.17030395133E+03 -0.91040934412E+03 -0.75376412247E+03  0.12039105511E+04  0.15294330000E+03 0.  0.
<mgrwt>
<rscale>  0 0.93874398E+03</rscale>
<asrwt>0</asrwt>
<pdfrwt beam="1">  1        1 0.25062857E+00 0.93874398E+03</pdfrwt>
<pdfrwt beam="2">  1       -1 0.17473107E+00 0.93874398E+03</pdfrwt>
<totfact> 0.12313798E+00</totfact>
</mgrwt>
</event>
<event>
 4    1  0.8749406E-009  0.1665289E+04  0.7818608E-02  0.8781413E-01
         -1   -1    0    0    0  501 -0.00000000000E+00  0.00000000000E+00  0.35779499302E+04  0.35779499303E+04  0.50400000000E-02 0.  1.
          1   -1    0    0  501    0  0.00000000000E+00 -0.00000000000E+00 -0.13236307563E+04  0.13236307563E+04  0.50400000000E-02 0. -1.
    8880022    1    1    2    0    0 -0.98408408579E+03  0.13346807831E+04  0.27048886173E+04  0.31764143882E+04  0.15294330000E+03 0.  0.
    8880022    1    1    2    0    0  0.98408408579E+03 -0.13346807831E+04 -0.45056944337E+03  0.17251662983E+04  0.15294330000E+03 0.  0.
<mgrwt>
<rscale>  0 0.16652885E+04</rscale>
<asrwt>0</asrwt>
<pdfrwt beam="1">  1        1 0.20363550E+00 0.16652885E+04</pdfrwt>
<pdfrwt beam="2">  1       -1 0.55045383E+00 0.16652885E+04</pdfrwt>
<totfact> 0.59054606E-03</totfact>
</mgrwt>
</event>
<event>
 4    1  0.8749406E-009  0.3060924E+03  0.7818608E-02  0.1082234E+00
         -1   -1    0    0    0  501 -0.00000000000E+00  0.00000000000E+00  0.12497532919E+04  0.12497532919E+04  0.50400000000E-02 0.  1.
          1   -1    0    0  501    0  0.00000000000E+00 -0.00000000000E+00 -0.17746074190E+03  0.17746074197E+03  0.50400000000E-02 0. -1.
    8880022    1    1    2    0    0  0.64214501506E+02  0.25724963731E+03 -0.61701791650E+01  0.30615453978E+03  0.15294330000E+03 0.  0.
    8880022    1    1    2    0    0 -0.64214501506E+02 -0.25724963731E+03  0.10784627292E+04  0.11210594941E+04  0.15294330000E+03 0.  0.
<mgrwt>
<rscale>  0 0.30609236E+03</rscale>
<asrwt>0</asrwt>
<pdfrwt beam="1">  1        1 0.27301651E-01 0.30609236E+03</pdfrwt>
<pdfrwt beam="2">  1       -1 0.19226975E+00 0.30609236E+03</pdfrwt>
<totfact> 0.32170538E+01</totfact>
</mgrwt>
</event>
<event>
 4    1  0.8749406E-009  0.7150177E+03  0.7818608E-02  0.9691889E-01
          1   -1    0    0  501    0  0.00000000000E+00  0.00000000000E+00  0.12656077320E+04  0.12656077320E+04  0.50400000000E-02 0. -1.
         -1   -1    0    0    0  501 -0.00000000000E+00 -0.00000000000E+00 -0.47157344635E+03  0.47157344637E+03  0.50400000000E-02 0.  1.
    8880022    1    1    2    0    0 -0.44211497711E+03 -0.54073371664E+03  0.68113440741E+02  0.71825461998E+03  0.15294330000E+03 0.  0.
    8880022    1    1    2    0    0  0.44211497711E+03  0.54073371664E+03  0.72592084487E+03  0.10189265584E+04  0.15294330000E+03 0.  0.
<mgrwt>
<rscale>  0 0.71501766E+03</rscale>
<asrwt>0</asrwt>
<pdfrwt beam="1">  1        1 0.19470888E+00 0.71501766E+03</pdfrwt>
<pdfrwt beam="2">  1       -1 0.72549764E-01 0.71501766E+03</pdfrwt>
<totfact> 0.19024081E+01</totfact>
</mgrwt>
</event>
<event>
 4    1  0.8749406E-009  0.4523897E+03  0.7818608E-02  0.1027012E+00
         -1   -1    0    0    0  501 -0.00000000000E+00  0.00000000000E+00  0.11767638300E+04  0.11767638301E+04  0.50400000000E-02 0.  1.
          1   -1    0    0  501    0  0.00000000000E+00 -0.00000000000E+00 -0.18095648626E+03  0.18095648633E+03  0.50400000000E-02 0. -1.
    8880022    1    1    2    0    0  0.42337183176E+03 -0.44956039925E+02  0.36398600901E+03  0.58063949334E+03  0.15294330000E+03 0.  1.
    8880022    1    1    2    0    0 -0.42337183176E+03  0.44956039925E+02  0.63182133477E+03  0.77708082304E+03  0.15294330000E+03 0.  0.
<mgrwt>
<rscale>  0 0.45238966E+03</rscale>
<asrwt>0</asrwt>
<pdfrwt beam="1">  1        1 0.27839459E-01 0.45238966E+03</pdfrwt>
<pdfrwt beam="2">  1       -1 0.18104059E+00 0.45238966E+03</pdfrwt>
<totfact> 0.36599822E+01</totfact>
</mgrwt>
</event>
<event>
 4    1  0.8749406E-009  0.3511820E+03  0.7818608E-02  0.1062131E+00
          1   -1    0    0  501    0  0.00000000000E+00  0.00000000000E+00  0.18241120095E+04  0.18241120095E+04  0.50400000000E-02 0. -1.
         -1   -1    0    0    0  501 -0.00000000000E+00 -0.00000000000E+00 -0.40262035874E+03  0.40262035877E+03  0.50400000000E-02 0.  1.
    8880022    1    1    2    0    0 -0.62092420289E+02  0.30997049493E+03 -0.30484568000E+03  0.46503732970E+03  0.15294330000E+03 0.  1.
    8880022    1    1    2    0    0  0.62092420289E+02 -0.30997049493E+03  0.17263373307E+04  0.17616950386E+04  0.15294330000E+03 0.  0.
<mgrwt>
<rscale>  0 0.35118205E+03</rscale>
<asrwt>0</asrwt>
<pdfrwt beam="1">  1        1 0.28063261E+00 0.35118205E+03</pdfrwt>
<pdfrwt beam="2">  1       -1 0.61941594E-01 0.35118205E+03</pdfrwt>
<totfact> 0.11820355E+01</totfact>
</mgrwt>
</event>
<event>
 4    1  0.8749406E-009  0.3486192E+03  0.7818608E-02  0.1063183E+00
         -1   -1    0    0    0  501 -0.00000000000E+00  0.00000000000E+00  0.96067322257E+03  0.96067322259E+03  0.50400000000E-02 0.  1.
          1   -1    0    0  501    0  0.00000000000E+00 -0.00000000000E+00 -0.24731838825E+03  0.24731838830E+03  0.50400000000E-02 0. -1.
    8880022    1    1    2    0    0  0.30920691549E+03 -0.50346451784E+02 -0.65459375445E+02  0.35471152314E+03  0.15294330000E+03 0.  0.
    8880022    1    1    2    0    0 -0.30920691549E+03  0.50346451784E+02  0.77881420977E+03  0.85328008775E+03  0.15294330000E+03 0.  1.
<mgrwt>
<rscale>  0 0.34861918E+03</rscale>
<asrwt>0</asrwt>
<pdfrwt beam="1">  1        1 0.38048983E-01 0.34861918E+03</pdfrwt>
<pdfrwt beam="2">  1       -1 0.14779588E+00 0.34861918E+03</pdfrwt>
<totfact> 0.43779764E+01</totfact>
</mgrwt>
</event>
<event>
 4    1  0.8749406E-009  0.4838232E+03  0.7818608E-02  0.1018090E+00
         -1   -1    0    0    0  501 -0.00000000000E+00  0.00000000000E+00  0.91340923256E+03  0.91340923257E+03  0.50400000000E-02 0.  1.
          1   -1    0    0  501    0  0.00000000000E+00 -0.00000000000E+00 -0.25229680636E+04  0.25229680636E+04  0.50400000000E-02 0. -1.
    8880022    1    1    2    0    0  0.40565073459E+02 -0.45721732117E+03 -0.24333674199E+04  0.24810001727E+04  0.15294330000E+03 0.  0.
    8880022    1    1    2    0    0 -0.40565073459E+02  0.45721732117E+03  0.82380858883E+03  0.95537712345E+03  0.15294330000E+03 0.  0.
<mgrwt>
<rscale>  0 0.48382317E+03</rscale>
<asrwt>0</asrwt>
<pdfrwt beam="1">  1        1 0.38814893E+00 0.48382317E+03</pdfrwt>
<pdfrwt beam="2">  1       -1 0.14052450E+00 0.48382317E+03</pdfrwt>
<totfact> 0.62798779E-01</totfact>
</mgrwt>
</event>
<event>
 4    1  0.8749406E-009  0.5836283E+03  0.7818608E-02  0.9939967E-01
          1   -1    0    0  501    0  0.00000000000E+00  0.00000000000E+00  0.93094471814E+03  0.93094471816E+03  0.50400000000E-02 0. -1.
         -1   -1    0    0    0  501 -0.00000000000E+00 -0.00000000000E+00 -0.47650634988E+03  0.47650634991E+03  0.50400000000E-02 0.  1.
    8880022    1    1    2    0    0 -0.23025911410E+03  0.51401462444E+03  0.56628312942E+03  0.81320263738E+03  0.15294330000E+03 0.  0.
    8880022    1    1    2    0    0  0.23025911410E+03 -0.51401462444E+03 -0.11184476116E+03  0.59424843069E+03  0.15294330000E+03 0.  0.
<mgrwt>
<rscale>  0 0.58362826E+03</rscale>
<asrwt>0</asrwt>
<pdfrwt beam="1">  1        1 0.14322226E+00 0.58362826E+03</pdfrwt>
<pdfrwt beam="2">  1       -1 0.73308671E-01 0.58362826E+03</pdfrwt>
<totfact> 0.33703792E+01</totfact>
</mgrwt>
</event>
<event>
 4    1  0.8749406E-009  0.9989069E+03  0.7818608E-02  0.9309745E-01
         -1   -1    0    0    0  501 -0.00000000000E+00  0.00000000000E+00  0.12623745336E+04  0.12623745336E+04  0.50400000000E-02 0.  1.
          1   -1    0    0  501    0  0.00000000000E+00 -0.00000000000E+00 -0.13488012977E+04  0.13488012977E+04  0.50400000000E-02 0. -1.
    8880022    1    1    2    0    0 -0.64303474692E+03  0.74895233927E+03 -0.88324345596E+03  0.13333918958E+04  0.15294330000E+03 0.  0.
    8880022    1    1    2    0    0  0.64303474692E+03 -0.74895233927E+03  0.79681669190E+03  0.12777839355E+04  0.15294330000E+03 0.  0.
<mgrwt>
<rscale>  0 0.99890688E+03</rscale>
<asrwt>0</asrwt>
<pdfrwt beam="1">  1        1 0.20750789E+00 0.99890688E+03</pdfrwt>
<pdfrwt beam="2">  1       -1 0.19421147E+00 0.99890688E+03</pdfrwt>
<totfact> 0.13866137E+00</totfact>
</mgrwt>
</event>
<event>
 4    1  0.8749406E-009  0.5158468E+03  0.7818608E-02  0.1009723E+00
         -1   -1    0    0    0  501 -0.00000000000E+00  0.00000000000E+00  0.35632042794E+03  0.35632042797E+03  0.50400000000E-02 0.  1.
          1   -1    0    0  501    0  0.00000000000E+00 -0.00000000000E+00 -0.15676764215E+04  0.15676764215E+04  0.50400000000E-02 0. -1.
    8880022    1    1    2    0    0  0.12197824399E+03  0.47731288594E+03  0.90446058566E+02  0.52371597800E+03  0.15294330000E+03 0.  1.
    8880022    1    1    2    0    0 -0.12197824399E+03 -0.47731288594E+03 -0.13018020521E+04  0.14002808715E+04  0.15294330000E+03 0.  0.
<mgrwt>
<rscale>  0 0.51584681E+03</rscale>
<asrwt>0</asrwt>
<pdfrwt beam="1">  1        1 0.24118098E+00 0.51584681E+03</pdfrwt>
<pdfrwt beam="2">  1       -1 0.54818528E-01 0.51584681E+03</pdfrwt>
<totfact> 0.21229002E+01</totfact>
</mgrwt>
</event>
<event>
 4    1  0.8749406E-009  0.5270814E+03  0.7818608E-02  0.1006942E+00
          1   -1    0    0  501    0  0.00000000000E+00  0.00000000000E+00  0.16689953802E+04  0.16689953802E+04  0.50400000000E-02 0. -1.
         -1   -1    0    0    0  501 -0.00000000000E+00 -0.00000000000E+00 -0.25946936168E+03  0.25946936173E+03  0.50400000000E-02 0.  1.
    8880022    1    1    2    0    0 -0.38051806576E+03  0.33110297668E+03  0.12820750086E+04  0.13861930458E+04  0.15294330000E+03 0.  0.
    8880022    1    1    2    0    0  0.38051806576E+03 -0.33110297668E+03  0.12745100998E+03  0.54227169619E+03  0.15294330000E+03 0.  0.
<mgrwt>
<rscale>  0 0.52708143E+03</rscale>
<asrwt>0</asrwt>
<pdfrwt beam="1">  1        1 0.25676851E+00 0.52708143E+03</pdfrwt>
<pdfrwt beam="2">  1       -1 0.39918364E-01 0.52708143E+03</pdfrwt>
<totfact> 0.32671505E+01</totfact>
</mgrwt>
</event>
<event>
 4    1  0.8749406E-009  0.7592320E+03  0.7818608E-02  0.9620977E-01
         -1   -1    0    0    0  501 -0.00000000000E+00  0.00000000000E+00  0.15102139951E+04  0.15102139951E+04  0.50400000000E-02 0.  1.
          1   -1    0    0  501    0  0.00000000000E+00 -0.00000000000E+00 -0.27844612506E+04  0.27844612506E+04  0.50400000000E-02 0. -1.
    8880022    1    1    2    0    0 -0.74296484139E+03  0.32323988176E+02 -0.26318621616E+04  0.27391844930E+04  0.15294330000E+03 0.  0.
    8880022    1    1    2    0    0  0.74296484139E+03 -0.32323988176E+02  0.13576149061E+04  0.15554907528E+04  0.15294330000E+03 0.  0.
<mgrwt>
<rscale>  0 0.75923201E+03</rscale>
<asrwt>0</asrwt>
<pdfrwt beam="1">  1        1 0.42837865E+00 0.75923201E+03</pdfrwt>
<pdfrwt beam="2">  1       -1 0.23234061E+00 0.75923201E+03</pdfrwt>
<totfact> 0.84852996E-02</totfact>
</mgrwt>
</event>
<event>
 4    1  0.8749406E-009  0.1373661E+04  0.7818608E-02  0.8973108E-01
         -1   -1    0    0    0  501 -0.00000000000E+00  0.00000000000E+00  0.14042961693E+04  0.14042961693E+04  0.50400000000E-02 0.  1.
          1   -1    0    0  501    0  0.00000000000E+00 -0.00000000000E+00 -0.18642353671E+04  0.18642353671E+04  0.50400000000E-02 0. -1.
    8880022    1    1    2    0    0 -0.12487866302E+04  0.55143878683E+03  0.63360509463E+03  0.15127457990E+04  0.15294330000E+03 0.  0.
    8880022    1    1    2    0    0  0.12487866302E+04 -0.55143878683E+03 -0.10935442924E+04  0.17557857374E+04  0.15294330000E+03 0.  0.
<mgrwt>
<rscale>  0 0.13736610E+04</rscale>
<asrwt>0</asrwt>
<pdfrwt beam="1">  1        1 0.28680544E+00 0.13736610E+04</pdfrwt>
<pdfrwt beam="2">  1       -1 0.21604556E+00 0.13736610E+04</pdfrwt>
<totfact> 0.41339714E-01</totfact>
</mgrwt>
</event>
<event>
 4    1  0.8749406E-009  0.8211111E+03  0.7818608E-02  0.9529952E-01
         -1   -1    0    0    0  501 -0.00000000000E+00  0.00000000000E+00  0.76231491544E+03  0.76231491546E+03  0.50400000000E-02 0.  1.
          1   -1    0    0  501    0  0.00000000000E+00 -0.00000000000E+00 -0.11382476517E+04  0.11382476517E+04  0.50400000000E-02 0. -1.
    8880022    1    1    2    0    0  0.89410562248E+01  0.80669195315E+03 -0.63669547683E+03  0.10390402461E+04  0.15294330000E+03 0.  0.
    8880022    1    1    2    0    0 -0.89410562248E+01 -0.80669195315E+03  0.26076274060E+03  0.86152232105E+03  0.15294330000E+03 0.  0.
<mgrwt>
<rscale>  0 0.82111114E+03</rscale>
<asrwt>0</asrwt>
<pdfrwt beam="1">  1        1 0.17511502E+00 0.82111114E+03</pdfrwt>
<pdfrwt beam="2">  1       -1 0.11727922E+00 0.82111114E+03</pdfrwt>
<totfact> 0.79630726E+00</totfact>
</mgrwt>
</event>
<event>
 4    1  0.8749406E-009  0.9658207E+03  0.7818608E-02  0.9346847E-01
         -1   -1    0    0    0  501 -0.00000000000E+00  0.00000000000E+00  0.81816771713E+03  0.81816771714E+03  0.50400000000E-02 0.  1.
          1   -1    0    0  501    0  0.00000000000E+00 -0.00000000000E+00 -0.15579722019E+04  0.15579722019E+04  0.50400000000E-02 0. -1.
    8880022    1    1    2    0    0  0.93923587659E+03 -0.16508785674E+03  0.24537848914E+03  0.99650403324E+03  0.15294330000E+03 0.  0.
    8880022    1    1    2    0    0 -0.93923587659E+03  0.16508785674E+03 -0.98518297388E+03  0.13796358858E+04  0.15294330000E+03 0.  0.
<mgrwt>
<rscale>  0 0.96582073E+03</rscale>
<asrwt>0</asrwt>
<pdfrwt beam="1">  1        1 0.23968803E+00 0.96582073E+03</pdfrwt>
<pdfrwt beam="2">  1       -1 0.12587196E+00 0.96582073E+03</pdfrwt>
<totfact> 0.33151381E+00</totfact>
</mgrwt>
</event>
<event>
 4    1  0.8749406E-009  0.3638259E+03  0.7818608E-02  0.1057079E+00
          1   -1    0    0  501    0  0.00000000000E+00  0.00000000000E+00  0.16107867191E+04  0.16107867191E+04  0.50400000000E-02 0. -1.
         -1   -1    0    0    0  501 -0.00000000000E+00 -0.00000000000E+00 -0.68224424850E+03  0.68224424852E+03  0.50400000000E-02 0.  1.
    8880022    1    1    2    0    0  0.20907320551E+03  0.25547210466E+03 -0.61098018962E+03  0.71110199455E+03  0.15294330000E+03 0.  0.
    8880022    1    1    2    0    0 -0.20907320551E+03 -0.25547210466E+03  0.15395226602E+04  0.15819289731E+04  0.15294330000E+03 0.  0.
<mgrwt>
<rscale>  0 0.36382586E+03</rscale>
<asrwt>0</asrwt>
<pdfrwt beam="1">  1        1 0.24781334E+00 0.36382586E+03</pdfrwt>
<pdfrwt beam="2">  1       -1 0.10496065E+00 0.36382586E+03</pdfrwt>
<totfact> 0.53592143E+00</totfact>
</mgrwt>
</event>
<event>
 4    1  0.8749406E-009  0.8134099E+03  0.7818608E-02  0.9540807E-01
          1   -1    0    0  501    0  0.00000000000E+00  0.00000000000E+00  0.12614216377E+04  0.12614216377E+04  0.50400000000E-02 0. -1.
         -1   -1    0    0    0  501 -0.00000000000E+00 -0.00000000000E+00 -0.22975010584E+04  0.22975010584E+04  0.50400000000E-02 0.  1.
    8880022    1    1    2    0    0  0.52873742746E+03 -0.59889964893E+03  0.10451556187E+04  0.13243813563E+04  0.15294330000E+03 0.  0.
    8880022    1    1    2    0    0 -0.52873742746E+03  0.59889964893E+03 -0.20812350394E+04  0.22345413397E+04  0.15294330000E+03 0.  1.
<mgrwt>
<rscale>  0 0.81340993E+03</rscale>
<asrwt>0</asrwt>
<pdfrwt beam="1">  1        1 0.19406487E+00 0.81340993E+03</pdfrwt>
<pdfrwt beam="2">  1       -1 0.35346170E+00 0.81340993E+03</pdfrwt>
<totfact> 0.15101189E-01</totfact>
</mgrwt>
</event>
<event>
 4    1  0.8749406E-009  0.2544475E+03  0.7818608E-02  0.1110526E+00
          1   -1    0    0  501    0  0.00000000000E+00  0.00000000000E+00  0.11433678238E+04  0.11433678239E+04  0.50400000000E-02 0. -1.
         -1   -1    0    0    0  501 -0.00000000000E+00 -0.00000000000E+00 -0.10126320323E+04  0.10126320323E+04  0.50400000000E-02 0.  1.
    8880022    1    1    2    0    0 -0.43771307180E+02  0.19858488079E+03  0.11127939649E+04  0.11415138823E+04  0.15294330000E+03 0.  0.
    8880022    1    1    2    0    0  0.43771307180E+02 -0.19858488079E+03 -0.98205817339E+03  0.10144859739E+04  0.15294330000E+03 0.  0.
<mgrwt>
<rscale>  0 0.25444751E+03</rscale>
<asrwt>0</asrwt>
<pdfrwt beam="1">  1        1 0.17590274E+00 0.25444751E+03</pdfrwt>
<pdfrwt beam="2">  1       -1 0.15578954E+00 0.25444751E+03</pdfrwt>
<totfact> 0.44210887E+00</totfact>
</mgrwt>
</event>
<event>
 4    1  0.8749406E-009  0.1026326E+04  0.7818608E-02  0.9280133E-01
          1   -1    0    0  501    0  0.00000000000E+00  0.00000000000E+00  0.13065562231E+04  0.13065562231E+04  0.50400000000E-02 0. -1.
         -1   -1    0    0    0  501 -0.00000000000E+00 -0.00000000000E+00 -0.13457066526E+04  0.13457066526E+04  0.50400000000E-02 0.  1.
    8880022    1    1    2    0    0  0.57541275519E+03 -0.83597478393E+03 -0.85924758800E+03  0.13385259612E+04  0.15294330000E+03 0.  0.
    8880022    1    1    2    0    0 -0.57541275519E+03  0.83597478393E+03  0.82009715856E+03  0.13137369146E+04  0.15294330000E+03 0.  0.
<mgrwt>
<rscale>  0 0.10263261E+04</rscale>
<asrwt>0</asrwt>
<pdfrwt beam="1">  1        1 0.20100865E+00 0.10263261E+04</pdfrwt>
<pdfrwt beam="2">  1       -1 0.20703179E+00 0.10263261E+04</pdfrwt>
<totfact> 0.12079765E+00</totfact>
</mgrwt>
</event>
<event>
 4    1  0.8749406E-009  0.8222596E+03  0.7818608E-02  0.9528345E-01
         -1   -1    0    0    0  501 -0.00000000000E+00  0.00000000000E+00  0.50484621351E+03  0.50484621353E+03  0.50400000000E-02 0.  1.
          1   -1    0    0  501    0  0.00000000000E+00 -0.00000000000E+00 -0.17245929659E+04  0.17245929659E+04  0.50400000000E-02 0. -1.
    8880022    1    1    2    0    0  0.22594394824E+03  0.77567292112E+03 -0.82945641777E+02  0.82643256277E+03  0.15294330000E+03 0.  0.
    8880022    1    1    2    0    0 -0.22594394824E+03 -0.77567292112E+03 -0.11368011106E+04  0.14030066167E+04  0.15294330000E+03 0.  0.
<mgrwt>
<rscale>  0 0.82225957E+03</rscale>
<asrwt>0</asrwt>
<pdfrwt beam="1">  1        1 0.26532199E+00 0.82225957E+03</pdfrwt>
<pdfrwt beam="2">  1       -1 0.77668649E-01 0.82225957E+03</pdfrwt>
<totfact> 0.78570997E+00</totfact>
</mgrwt>
</event>
<event>
 4    1  0.8749406E-009  0.4271986E+03  0.7818608E-02  0.1034749E+00
          1   -1    0    0  501    0  0.00000000000E+00  0.00000000000E+00  0.23944003242E+04  0.23944003242E+04  0.50400000000E-02 0. -1.
         -1   -1    0    0    0  501 -0.00000000000E+00 -0.00000000000E+00 -0.10920465873E+03  0.10920465885E+03  0.50400000000E-02 0.  1.
    8880022    1    1    2    0    0 -0.37374196348E+03 -0.13936972369E+03  0.18305817364E+04  0.18797681032E+04  0.15294330000E+03 0.  0.
    8880022    1    1    2    0    0  0.37374196348E+03  0.13936972369E+03  0.45461392906E+03  0.62383687985E+03  0.15294330000E+03 0.  0.
<mgrwt>
<rscale>  0 0.42719858E+03</rscale>
<asrwt>0</asrwt>
<pdfrwt beam="1">  1        1 0.36836929E+00 0.42719858E+03</pdfrwt>
<pdfrwt beam="2">  1       -1 0.16800716E-01 0.42719858E+03</pdfrwt>
<totfact> 0.48061302E+01</totfact>
</mgrwt>
</event>
<event>
 4    1  0.8749406E-009  0.8813027E+03  0.7818608E-02  0.9449261E-01
         -1   -1    0    0    0  501 -0.00000000000E+00  0.00000000000E+00  0.15100971621E+04  0.15100971621E+04  0.50400000000E-02 0.  1.
          1   -1    0    0  501    0  0.00000000000E+00 -0.00000000000E+00 -0.16688541065E+04  0.16688541065E+04  0.50400000000E-02 0. -1.
    8880022    1    1    2    0    0  0.66841125719E+03  0.55365075756E+03 -0.14014209996E+04  0.16554984872E+04  0.15294330000E+03 0.  0.
    8880022    1    1    2    0    0 -0.66841125719E+03 -0.55365075756E+03  0.12426640552E+04  0.15234527814E+04  0.15294330000E+03 0.  0.
<mgrwt>
<rscale>  0 0.88130269E+03</rscale>
<asrwt>0</asrwt>
<pdfrwt beam="1">  1        1 0.25674679E+00 0.88130269E+03</pdfrwt>
<pdfrwt beam="2">  1       -1 0.23232264E+00 0.88130269E+03</pdfrwt>
<totfact> 0.47107577E-01</totfact>
</mgrwt>
</event>
<event>
 4    1  0.8749406E-009  0.4671040E+03  0.7818608E-02  0.1022741E+00
         -1   -1    0    0    0  501 -0.00000000000E+00  0.00000000000E+00  0.55196125852E+03  0.55196125854E+03  0.50400000000E-02 0.  1.
          1   -1    0    0  501    0  0.00000000000E+00 -0.00000000000E+00 -0.11418635567E+04  0.11418635567E+04  0.50400000000E-02 0. -1.
    8880022    1    1    2    0    0 -0.42743664739E+03 -0.10996542862E+03 -0.97975622224E+03  0.10854070163E+04  0.15294330000E+03 0.  0.
    8880022    1    1    2    0    0  0.42743664739E+03  0.10996542862E+03  0.38985392402E+03  0.60841779898E+03  0.15294330000E+03 0.  1.
<mgrwt>
<rscale>  0 0.46710399E+03</rscale>
<asrwt>0</asrwt>
<pdfrwt beam="1">  1        1 0.17567132E+00 0.46710399E+03</pdfrwt>
<pdfrwt beam="2">  1       -1 0.84917117E-01 0.46710399E+03</pdfrwt>
<totfact> 0.17481853E+01</totfact>
</mgrwt>
</event>
<event>
 4    1  0.8749406E-009  0.6125747E+03  0.7818608E-02  0.9879656E-01
          1   -1    0    0  501    0  0.00000000000E+00  0.00000000000E+00  0.30475731704E+04  0.30475731704E+04  0.50400000000E-02 0. -1.
         -1   -1    0    0    0  501 -0.00000000000E+00 -0.00000000000E+00 -0.26153536806E+03  0.26153536810E+03  0.50400000000E-02 0.  1.
    8880022    1    1    2    0    0  0.42179368032E+03 -0.41706861324E+03  0.25966467167E+04  0.26679246544E+04  0.15294330000E+03 0.  0.
    8880022    1    1    2    0    0 -0.42179368032E+03  0.41706861324E+03  0.18939108558E+03  0.64118388410E+03  0.15294330000E+03 0.  0.
<mgrwt>
<rscale>  0 0.61257472E+03</rscale>
<asrwt>0</asrwt>
<pdfrwt beam="1">  1        1 0.46885739E+00 0.61257472E+03</pdfrwt>
<pdfrwt beam="2">  1       -1 0.40236212E-01 0.61257472E+03</pdfrwt>
<totfact> 0.36682477E+00</totfact>
</mgrwt>
</event>
<event>
 4    1  0.8749406E-009  0.9371159E+03  0.7818608E-02  0.9380338E-01
          1   -1    0    0  501    0  0.00000000000E+00  0.00000000000E+00  0.35300697722E+04  0.35300697722E+04  0.50400000000E-02 0. -1.
         -1   -1    0    0    0  501 -0.00000000000E+00 -0.00000000000E+00 -0.81878507490E+03  0.81878507491E+03  0.50400000000E-02 0.  1.
    8880022    1    1    2    0    0  0.83986609894E+03  0.38654822494E+03 -0.45862783864E+03  0.10433243703E+04  0.15294330000E+03 0.  0.
    8880022    1    1    2    0    0 -0.83986609894E+03 -0.38654822494E+03  0.31699125359E+04  0.33055304767E+04  0.15294330000E+03 0.  0.
<mgrwt>
<rscale>  0 0.93711592E+03</rscale>
<asrwt>0</asrwt>
<pdfrwt beam="1">  1        1 0.54308767E+00 0.93711592E+03</pdfrwt>
<pdfrwt beam="2">  1       -1 0.12596693E+00 0.93711592E+03</pdfrwt>
<totfact> 0.13689753E-01</totfact>
</mgrwt>
</event>
<event>
 4    1  0.8749406E-009  0.3960890E+03  0.7818608E-02  0.1045142E+00
         -1   -1    0    0    0  501 -0.00000000000E+00  0.00000000000E+00  0.38898755898E+03  0.38898755901E+03  0.50400000000E-02 0.  1.
          1   -1    0    0  501    0  0.00000000000E+00 -0.00000000000E+00 -0.24625250932E+04  0.24625250932E+04  0.50400000000E-02 0. -1.
    8880022    1    1    2    0    0  0.29080888888E+03 -0.22119012672E+03  0.26701256095E+03  0.47768425003E+03  0.15294330000E+03 0.  0.
    8880022    1    1    2    0    0 -0.29080888888E+03  0.22119012672E+03 -0.23405500951E+04  0.23738284022E+04  0.15294330000E+03 0.  0.
<mgrwt>
<rscale>  0 0.39608905E+03</rscale>
<asrwt>0</asrwt>
<pdfrwt beam="1">  1        1 0.37885001E+00 0.39608905E+03</pdfrwt>
<pdfrwt beam="2">  1       -1 0.59844241E-01 0.39608905E+03</pdfrwt>
<totfact> 0.47185975E+00</totfact>
</mgrwt>
</event>
<event>
 4    1  0.8749406E-009  0.3108794E+03  0.7818608E-02  0.1079925E+00
          1   -1    0    0  501    0  0.00000000000E+00  0.00000000000E+00  0.21304099622E+04  0.21304099622E+04  0.50400000000E-02 0. -1.
         -1   -1    0    0    0  501 -0.00000000000E+00 -0.00000000000E+00 -0.12151336178E+03  0.12151336188E+03  0.50400000000E-02 0.  1.
    8880022    1    1    2    0    0  0.79983582750E+02 -0.25856718365E+03  0.18957852531E+04  0.19211058640E+04  0.15294330000E+03 0.  0.
    8880022    1    1    2    0    0 -0.79983582750E+02  0.25856718365E+03  0.11311134735E+03  0.33081746007E+03  0.15294330000E+03 0.  0.
<mgrwt>
<rscale>  0 0.31087942E+03</rscale>
<asrwt>0</asrwt>
<pdfrwt beam="1">  1        1 0.32775533E+00 0.31087942E+03</pdfrwt>
<pdfrwt beam="2">  1       -1 0.18694366E-01 0.31087942E+03</pdfrwt>
<totfact> 0.62171488E+01</totfact>
</mgrwt>
</event>
<event>
 4    1  0.8749406E-009  0.1100535E+04  0.7818608E-02  0.9204670E-01
         -1   -1    0    0    0  501 -0.00000000000E+00  0.00000000000E+00  0.17490626874E+04  0.17490626874E+04  0.50400000000E-02 0.  1.
          1   -1    0    0  501    0  0.00000000000E+00 -0.00000000000E+00 -0.14641367864E+04  0.14641367864E+04  0.50400000000E-02 0. -1.
    8880022    1    1    2    0    0 -0.90723802510E+03 -0.60390816145E+03 -0.10238929941E+04  0.15031747796E+04  0.15294330000E+03 0.  0.
    8880022    1    1    2    0    0  0.90723802510E+03  0.60390816145E+03  0.13088188951E+04  0.17100246942E+04  0.15294330000E+03 0.  0.
<mgrwt>
<rscale>  0 0.11005351E+04</rscale>
<asrwt>0</asrwt>
<pdfrwt beam="1">  1        1 0.22525182E+00 0.11005351E+04</pdfrwt>
<pdfrwt beam="2">  1       -1 0.26908657E+00 0.11005351E+04</pdfrwt>
<totfact> 0.36163274E-01</totfact>
</mgrwt>
</event>
<event>
 4    1  0.8749406E-009  0.6756698E+03  0.7818608E-02  0.9759769E-01
          1   -1    0    0  501    0  0.00000000000E+00  0.00000000000E+00  0.18784949261E+04  0.18784949262E+04  0.50400000000E-02 0. -1.
         -1   -1    0    0    0  501 -0.00000000000E+00 -0.00000000000E+00 -0.56419016549E+03  0.56419016552E+03  0.50400000000E-02 0.  1.
    8880022    1    1    2    0    0  0.64500295412E+03 -0.13080199027E+03  0.15786324063E+04  0.17171516819E+04  0.15294330000E+03 0.  0.
    8880022    1    1    2    0    0 -0.64500295412E+03  0.13080199027E+03 -0.26432764560E+03  0.72553340979E+03  0.15294330000E+03 0.  0.
<mgrwt>
<rscale>  0 0.67566976E+03</rscale>
<asrwt>0</asrwt>
<pdfrwt beam="1">  1        1 0.28899922E+00 0.67566976E+03</pdfrwt>
<pdfrwt beam="2">  1       -1 0.86798487E-01 0.67566976E+03</pdfrwt>
<totfact> 0.50065567E+00</totfact>
</mgrwt>
</event>
<event>
 4    1  0.8749406E-009  0.2462514E+03  0.7818608E-02  0.1115697E+00
          1   -1    0    0  501    0  0.00000000000E+00  0.00000000000E+00  0.77656172799E+03  0.77656172801E+03  0.50400000000E-02 0. -1.
         -1   -1    0    0    0  501 -0.00000000000E+00 -0.00000000000E+00 -0.17023095814E+03  0.17023095822E+03  0.50400000000E-02 0.  1.
    8880022    1    1    2    0    0 -0.18449231530E+03 -0.56662952032E+02  0.65145289463E+03  0.69644140563E+03  0.15294330000E+03 0.  0.
    8880022    1    1    2    0    0  0.18449231530E+03  0.56662952032E+02 -0.45122124780E+02  0.25035128060E+03  0.15294330000E+03 0.  1.
<mgrwt>
<rscale>  0 0.24625141E+03</rscale>
<asrwt>0</asrwt>
<pdfrwt beam="1">  1        1 0.11947103E+00 0.24625141E+03</pdfrwt>
<pdfrwt beam="2">  1       -1 0.26189378E-01 0.24625141E+03</pdfrwt>
<totfact> 0.31396529E+02</totfact>
</mgrwt>
</event>
<event>
 4    1  0.8749406E-009  0.1526428E+04  0.7818608E-02  0.8867067E-01
          1   -1    0    0  501    0  0.00000000000E+00  0.00000000000E+00  0.16658412575E+04  0.16658412575E+04  0.50400000000E-02 0. -1.
         -1   -1    0    0    0  501 -0.00000000000E+00 -0.00000000000E+00 -0.21129819461E+04  0.21129819461E+04  0.50400000000E-02 0.  1.
    8880022    1    1    2    0    0 -0.13518460909E+04 -0.69217176099E+03  0.87497797189E+03  0.17594225486E+04  0.15294330000E+03 0.  0.
    8880022    1    1    2    0    0  0.13518460909E+04  0.69217176099E+03 -0.13221186605E+04  0.20194006550E+04  0.15294330000E+03 0.  0.
<mgrwt>
<rscale>  0 0.15264276E+04</rscale>
<asrwt>0</asrwt>
<pdfrwt beam="1">  1        1 0.25628327E+00 0.15264276E+04</pdfrwt>
<pdfrwt beam="2">  1       -1 0.32507415E+00 0.15264276E+04</pdfrwt>
<totfact> 0.10739879E-01</totfact>
</mgrwt>
</event>
<event>
 4    1  0.8749406E-009  0.5284387E+03  0.7818608E-02  0.1006611E+00
          1   -1    0    0  501    0  0.00000000000E+00  0.00000000000E+00  0.13679857246E+04  0.13679857246E+04  0.50400000000E-02 0. -1.
         -1   -1    0    0    0  501 -0.00000000000E+00 -0.00000000000E+00 -0.93328404380E+03  0.93328404381E+03  0.50400000000E-02 0.  1.
    8880022    1    1    2    0    0  0.34507062292E+03 -0.36984066959E+03 -0.79969407658E+03  0.95851871386E+03  0.15294330000E+03 0.  0.
    8880022    1    1    2    0    0 -0.34507062292E+03  0.36984066959E+03  0.12343957574E+04  0.13427510546E+04  0.15294330000E+03 0.  0.
<mgrwt>
<rscale>  0 0.52843875E+03</rscale>
<asrwt>0</asrwt>
<pdfrwt beam="1">  1        1 0.21045934E+00 0.52843875E+03</pdfrwt>
<pdfrwt beam="2">  1       -1 0.14358216E+00 0.52843875E+03</pdfrwt>
<totfact> 0.34654077E+00</totfact>
</mgrwt>
</event>
<event>
 4    1  0.8749406E-009  0.6228634E+03  0.7818608E-02  0.9859075E-01
         -1   -1    0    0    0  501 -0.00000000000E+00  0.00000000000E+00  0.58425575564E+03  0.58425575566E+03  0.50400000000E-02 0.  1.
          1   -1    0    0  501    0  0.00000000000E+00 -0.00000000000E+00 -0.87687373440E+03  0.87687373441E+03  0.50400000000E-02 0. -1.
    8880022    1    1    2    0    0  0.60262890081E+03 -0.37490997797E+02  0.21362969417E+03  0.65848042207E+03  0.15294330000E+03 0.  0.
    8880022    1    1    2    0    0 -0.60262890081E+03  0.37490997797E+02 -0.50624767292E+03  0.80264906800E+03  0.15294330000E+03 0.  0.
<mgrwt>
<rscale>  0 0.62286340E+03</rscale>
<asrwt>0</asrwt>
<pdfrwt beam="1">  1        1 0.13490365E+00 0.62286340E+03</pdfrwt>
<pdfrwt beam="2">  1       -1 0.89885501E-01 0.62286340E+03</pdfrwt>
<totfact> 0.24040104E+01</totfact>
</mgrwt>
</event>
<event>
 4    1  0.8749406E-009  0.5383817E+03  0.7818608E-02  0.1004219E+00
         -1   -1    0    0    0  501 -0.00000000000E+00  0.00000000000E+00  0.23571339532E+03  0.23571339538E+03  0.50400000000E-02 0.  1.
          1   -1    0    0  501    0  0.00000000000E+00 -0.00000000000E+00 -0.23612336854E+04  0.23612336854E+04  0.50400000000E-02 0. -1.
    8880022    1    1    2    0    0  0.43918375309E+03 -0.27125779112E+03 -0.16388587066E+03  0.56277294696E+03  0.15294330000E+03 0.  0.
    8880022    1    1    2    0    0 -0.43918375309E+03  0.27125779112E+03 -0.19616344194E+04  0.20341741338E+04  0.15294330000E+03 0.  0.
<mgrwt>
<rscale>  0 0.53838166E+03</rscale>
<asrwt>0</asrwt>
<pdfrwt beam="1">  1        1 0.36326670E+00 0.53838166E+03</pdfrwt>
<pdfrwt beam="2">  1       -1 0.36263601E-01 0.53838166E+03</pdfrwt>
<totfact> 0.13419607E+01</totfact>
</mgrwt>
</event>
<event>
 4    1  0.8749406E-009  0.1069493E+04  0.7818608E-02  0.9235447E-01
         -1   -1    0    0    0  501 -0.00000000000E+00  0.00000000000E+00  0.12984497627E+04  0.12984497627E+04  0.50400000000E-02 0.  1.
          1   -1    0    0  501    0  0.00000000000E+00 -0.00000000000E+00 -0.15397807542E+04  0.15397807542E+04  0.50400000000E-02 0. -1.
    8880022    1    1    2    0    0  0.99761912287E+03 -0.35380757981E+03  0.80763557525E+03  0.13401830447E+04  0.15294330000E+03 0.  0.
    8880022    1    1    2    0    0 -0.99761912287E+03  0.35380757981E+03 -0.10489665668E+04  0.14980474722E+04  0.15294330000E+03 0.  0.
<mgrwt>
<rscale>  0 0.10694930E+04</rscale>
<asrwt>0</asrwt>
<pdfrwt beam="1">  1        1 0.23688935E+00 0.10694930E+04</pdfrwt>
<pdfrwt beam="2">  1       -1 0.19976150E+00 0.10694930E+04</pdfrwt>
<totfact> 0.92496441E-01</totfact>
</mgrwt>
</event>
<event>
 4    1  0.8749406E-009  0.4949524E+03  0.7818608E-02  0.1015105E+00
         -1   -1    0    0    0  501 -0.00000000000E+00  0.00000000000E+00  0.45690647754E+03  0.45690647757E+03  0.50400000000E-02 0.  1.
          1   -1    0    0  501    0  0.00000000000E+00 -0.00000000000E+00 -0.99326120556E+03  0.99326120558E+03  0.50400000000E-02 0. -1.
    8880022    1    1    2    0    0 -0.14675207569E+03  0.44726958334E+03  0.22370316282E+03  0.54315836546E+03  0.15294330000E+03 0.  0.
    8880022    1    1    2    0    0  0.14675207569E+03 -0.44726958334E+03 -0.76005789085E+03  0.90700931768E+03  0.15294330000E+03 0.  0.
<mgrwt>
<rscale>  0 0.49495243E+03</rscale>
<asrwt>0</asrwt>
<pdfrwt beam="1">  1        1 0.15280942E+00 0.49495243E+03</pdfrwt>
<pdfrwt beam="2">  1       -1 0.70293304E-01 0.49495243E+03</pdfrwt>
<totfact> 0.33279653E+01</totfact>
</mgrwt>
</event>
<event>
 4    1  0.8749406E-009  0.2853311E+03  0.7818608E-02  0.1092812E+00
          1   -1    0    0  501    0  0.00000000000E+00  0.00000000000E+00  0.23952013241E+03  0.23952013246E+03  0.50400000000E-02 0. -1.
         -1   -1    0    0    0  501 -0.00000000000E+00 -0.00000000000E+00 -0.19830584577E+04  0.19830584577E+04  0.50400000000E-02 0.  1.
    8880022    1    1    2    0    0 -0.41137551823E+02  0.23733915075E+03 -0.18833453147E+04  0.19048368429E+04  0.15294330000E+03 0.  1.
    8880022    1    1    2    0    0  0.41137551823E+02 -0.23733915075E+03  0.13980698941E+03  0.31774174726E+03  0.15294330000E+03 0.  0.
<mgrwt>
<rscale>  0 0.28533108E+03</rscale>
<asrwt>0</asrwt>
<pdfrwt beam="1">  1        1 0.36849253E-01 0.28533108E+03</pdfrwt>
<pdfrwt beam="2">  1       -1 0.30508591E+00 0.28533108E+03</pdfrwt>
<totfact> 0.42014192E+00</totfact>
</mgrwt>
</event>
<event>
 4    1  0.8749406E-009  0.1021743E+04  0.7818608E-02  0.9285013E-01
          1   -1    0    0  501    0  0.00000000000E+00  0.00000000000E+00  0.20089459819E+04  0.20089459819E+04  0.50400000000E-02 0. -1.
         -1   -1    0    0    0  501 -0.00000000000E+00 -0.00000000000E+00 -0.13660366180E+04  0.13660366180E+04  0.50400000000E-02 0.  1.
    8880022    1    1    2    0    0  0.90150965368E+03  0.45590369067E+03  0.16497461985E+04  0.19405210649E+04  0.15294330000E+03 0.  0.
    8880022    1    1    2    0    0 -0.90150965368E+03 -0.45590369067E+03 -0.10068368346E+04  0.14344615350E+04  0.15294330000E+03 0.  0.
<mgrwt>
<rscale>  0 0.10217434E+04</rscale>
<asrwt>0</asrwt>
<pdfrwt beam="1">  1        1 0.30906861E+00 0.10217434E+04</pdfrwt>
<pdfrwt beam="2">  1       -1 0.21015948E+00 0.10217434E+04</pdfrwt>
<totfact> 0.38048250E-01</totfact>
</mgrwt>
</event>
<event>
 4    1  0.8749406E-009  0.1157445E+04  0.7818608E-02  0.9150943E-01
          1   -1    0    0  501    0  0.00000000000E+00  0.00000000000E+00  0.17533864923E+04  0.17533864923E+04  0.50400000000E-02 0. -1.
         -1   -1    0    0    0  501 -0.00000000000E+00 -0.00000000000E+00 -0.78410142585E+03  0.78410142587E+03  0.50400000000E-02 0.  1.
    8880022    1    1    2    0    0 -0.37425807457E+03  0.10845354234E+04  0.68752411255E+03  0.13462418985E+04  0.15294330000E+03 0.  0.
    8880022    1    1    2    0    0  0.37425807457E+03 -0.10845354234E+04  0.28176095385E+03  0.11912460196E+04  0.15294330000E+03 0.  0.
<mgrwt>
<rscale>  0 0.11574445E+04</rscale>
<asrwt>0</asrwt>
<pdfrwt beam="1">  1        1 0.26975177E+00 0.11574445E+04</pdfrwt>
<pdfrwt beam="2">  1       -1 0.12063099E+00 0.11574445E+04</pdfrwt>
<totfact> 0.26469149E+00</totfact>
</mgrwt>
</event>
<event>
 4    1  0.8749406E-009  0.1063456E+04  0.7818608E-02  0.9241561E-01
          1   -1    0    0  501    0  0.00000000000E+00  0.00000000000E+00  0.26491052890E+04  0.26491052890E+04  0.50400000000E-02 0. -1.
         -1   -1    0    0    0  501 -0.00000000000E+00 -0.00000000000E+00 -0.63768147185E+03  0.63768147187E+03  0.50400000000E-02 0.  1.
    8880022    1    1    2    0    0  0.10081518896E+04 -0.30195516310E+03  0.19505163890E+04  0.22215879433E+04  0.15294330000E+03 0.  0.
    8880022    1    1    2    0    0 -0.10081518896E+04  0.30195516310E+03  0.60907428162E+02  0.10651988176E+04  0.15294330000E+03 0.  0.
<mgrwt>
<rscale>  0 0.10634561E+04</rscale>
<asrwt>0</asrwt>
<pdfrwt beam="1">  1        1 0.40755467E+00 0.10634561E+04</pdfrwt>
<pdfrwt beam="2">  1       -1 0.98104839E-01 0.10634561E+04</pdfrwt>
<totfact> 0.10730475E+00</totfact>
</mgrwt>
</event>
<event>
 4    1  0.8749406E-009  0.7746055E+03  0.7818608E-02  0.9597520E-01
          1   -1    0    0  501    0  0.00000000000E+00  0.00000000000E+00  0.12071494758E+04  0.12071494758E+04  0.50400000000E-02 0. -1.
         -1   -1    0    0    0  501 -0.00000000000E+00 -0.00000000000E+00 -0.12891353144E+04  0.12891353144E+04  0.50400000000E-02 0.  1.
    8880022    1    1    2    0    0 -0.49650276629E+02 -0.75773142706E+03 -0.10193577812E+04  0.12802749723E+04  0.15294330000E+03 0.  1.
    8880022    1    1    2    0    0  0.49650276629E+02  0.75773142706E+03  0.93737194261E+03  0.12160098179E+04  0.15294330000E+03 0.  0.
<mgrwt>
<rscale>  0 0.77460552E+03</rscale>
<asrwt>0</asrwt>
<pdfrwt beam="1">  1        1 0.18571530E+00 0.77460552E+03</pdfrwt>
<pdfrwt beam="2">  1       -1 0.19832851E+00 0.77460552E+03</pdfrwt>
<totfact> 0.16996713E+00</totfact>
</mgrwt>
</event>
<event>
 4    1  0.8749406E-009  0.7831763E+03  0.7818608E-02  0.9584693E-01
         -1   -1    0    0    0  501 -0.00000000000E+00  0.00000000000E+00  0.23185941136E+04  0.23185941136E+04  0.50400000000E-02 0.  1.
          1   -1    0    0  501    0  0.00000000000E+00 -0.00000000000E+00 -0.87673310773E+03  0.87673310774E+03  0.50400000000E-02 0. -1.
    8880022    1    1    2    0    0 -0.18581333796E+03 -0.74528302756E+03  0.20559734063E+04  0.22000890182E+04  0.15294330000E+03 0.  0.
    8880022    1    1    2    0    0  0.18581333796E+03  0.74528302756E+03 -0.61411240037E+03  0.99523820317E+03  0.15294330000E+03 0.  0.
<mgrwt>
<rscale>  0 0.78317625E+03</rscale>
<asrwt>0</asrwt>
<pdfrwt beam="1">  1        1 0.13488202E+00 0.78317625E+03</pdfrwt>
<pdfrwt beam="2">  1       -1 0.35670679E+00 0.78317625E+03</pdfrwt>
<totfact> 0.28394267E-01</totfact>
</mgrwt>
</event>
<event>
 4    1  0.8749406E-009  0.6377409E+03  0.7818608E-02  0.9830058E-01
         -1   -1    0    0    0  501 -0.00000000000E+00  0.00000000000E+00  0.34824078495E+03  0.34824078499E+03  0.50400000000E-02 0.  1.
          1   -1    0    0  501    0  0.00000000000E+00 -0.00000000000E+00 -0.15977132623E+04  0.15977132623E+04  0.50400000000E-02 0. -1.
    8880022    1    1    2    0    0  0.34792671378E+03  0.51212187624E+03 -0.12008814247E+03  0.64894886491E+03  0.15294330000E+03 0.  0.
    8880022    1    1    2    0    0 -0.34792671378E+03 -0.51212187624E+03 -0.11293843349E+04  0.12970051824E+04  0.15294330000E+03 0.  0.
<mgrwt>
<rscale>  0 0.63774091E+03</rscale>
<asrwt>0</asrwt>
<pdfrwt beam="1">  1        1 0.24580204E+00 0.63774091E+03</pdfrwt>
<pdfrwt beam="2">  1       -1 0.53575506E-01 0.63774091E+03</pdfrwt>
<totfact> 0.20724103E+01</totfact>
</mgrwt>
</event>
<event>
 4    1  0.8749406E-009  0.9198708E+03  0.7818608E-02  0.9401077E-01
         -1   -1    0    0    0  501 -0.00000000000E+00  0.00000000000E+00  0.56270987418E+03  0.56270987420E+03  0.50400000000E-02 0.  1.
          1   -1    0    0  501    0  0.00000000000E+00 -0.00000000000E+00 -0.27474019717E+04  0.27474019717E+04  0.50400000000E-02 0. -1.
    8880022    1    1    2    0    0  0.47331531624E+03 -0.77378504804E+03  0.21191639879E+02  0.92011489923E+03  0.15294330000E+03 0.  0.
    8880022    1    1    2    0    0 -0.47331531624E+03  0.77378504804E+03 -0.22058837374E+04  0.23899969466E+04  0.15294330000E+03 0.  0.
<mgrwt>
<rscale>  0 0.91987083E+03</rscale>
<asrwt>0</asrwt>
<pdfrwt beam="1">  1        1 0.42267722E+00 0.91987083E+03</pdfrwt>
<pdfrwt beam="2">  1       -1 0.86570752E-01 0.91987083E+03</pdfrwt>
<totfact> 0.12391718E+00</totfact>
</mgrwt>
</event>
<event>
 4    1  0.8749406E-009  0.2741584E+03  0.7818608E-02  0.1098923E+00
          1   -1    0    0  501    0  0.00000000000E+00  0.00000000000E+00  0.18226211326E+04  0.18226211326E+04  0.50400000000E-02 0. -1.
         -1   -1    0    0    0  501 -0.00000000000E+00 -0.00000000000E+00 -0.87384817189E+02  0.87384817334E+02  0.50400000000E-02 0.  1.
    8880022    1    1    2    0    0  0.84485774732E+02 -0.21126598733E+03  0.15616087226E+04  0.15854919171E+04  0.15294330000E+03 0.  0.
    8880022    1    1    2    0    0 -0.84485774732E+02  0.21126598733E+03  0.17362759279E+03  0.32451403286E+03  0.15294330000E+03 0.  0.
<mgrwt>
<rscale>  0 0.27415838E+03</rscale>
<asrwt>0</asrwt>
<pdfrwt beam="1">  1        1 0.28040323E+00 0.27415838E+03</pdfrwt>
<pdfrwt beam="2">  1       -1 0.13443819E-01 0.27415838E+03</pdfrwt>
<totfact> 0.16897001E+02</totfact>
</mgrwt>
</event>
<event>
 4    1  0.8749406E-009  0.5687381E+03  0.7818608E-02  0.9972475E-01
          1   -1    0    0  501    0  0.00000000000E+00  0.00000000000E+00  0.39190503107E+03  0.39190503111E+03  0.50400000000E-02 0. -1.
         -1   -1    0    0    0  501 -0.00000000000E+00 -0.00000000000E+00 -0.11524080570E+04  0.11524080570E+04  0.50400000000E-02 0.  1.
    8880022    1    1    2    0    0 -0.26926545924E+03  0.47704034321E+03  0.31094700140E+02  0.56958749107E+03  0.15294330000E+03 0.  0.
    8880022    1    1    2    0    0  0.26926545924E+03 -0.47704034321E+03 -0.79159772602E+03  0.97472559700E+03  0.15294330000E+03 0.  0.
<mgrwt>
<rscale>  0 0.56873810E+03</rscale>
<asrwt>0</asrwt>
<pdfrwt beam="1">  1        1 0.60293082E-01 0.56873810E+03</pdfrwt>
<pdfrwt beam="2">  1       -1 0.17729355E+00 0.56873810E+03</pdfrwt>
<totfact> 0.14133840E+01</totfact>
</mgrwt>
</event>
<event>
 4    1  0.8749406E-009  0.3840657E+03  0.7818608E-02  0.1049441E+00
         -1   -1    0    0    0  501 -0.00000000000E+00  0.00000000000E+00  0.41446247844E+03  0.41446247847E+03  0.50400000000E-02 0.  1.
          1   -1    0    0  501    0  0.00000000000E+00 -0.00000000000E+00 -0.12486749241E+04  0.12486749241E+04  0.50400000000E-02 0. -1.
    8880022    1    1    2    0    0 -0.92192676216E+02  0.34002249993E+03  0.28603874572E+03  0.47887848884E+03  0.15294330000E+03 0.  1.
    8880022    1    1    2    0    0  0.92192676216E+02 -0.34002249993E+03 -0.11202511914E+04  0.11842589138E+04  0.15294330000E+03 0.  0.
<mgrwt>
<rscale>  0 0.38406568E+03</rscale>
<asrwt>0</asrwt>
<pdfrwt beam="1">  1        1 0.19210383E+00 0.38406568E+03</pdfrwt>
<pdfrwt beam="2">  1       -1 0.63763459E-01 0.38406568E+03</pdfrwt>
<totfact> 0.26915865E+01</totfact>
</mgrwt>
</event>
<event>
 4    1  0.8749406E-009  0.3676670E+03  0.7818608E-02  0.1055589E+00
          1   -1    0    0  501    0  0.00000000000E+00  0.00000000000E+00  0.17378316603E+04  0.17378316603E+04  0.50400000000E-02 0. -1.
         -1   -1    0    0    0  501 -0.00000000000E+00 -0.00000000000E+00 -0.76400715613E+03  0.76400715614E+03  0.50400000000E-02 0.  1.
    8880022    1    1    2    0    0 -0.33359732738E+03  0.22365455668E+02  0.16724425470E+04  0.17123793728E+04  0.15294330000E+03 0.  0.
    8880022    1    1    2    0    0  0.33359732738E+03 -0.22365455668E+02 -0.69861804280E+03  0.78945944366E+03  0.15294330000E+03 0.  0.
<mgrwt>
<rscale>  0 0.36766703E+03</rscale>
<asrwt>0</asrwt>
<pdfrwt beam="1">  1        1 0.26735871E+00 0.36766703E+03</pdfrwt>
<pdfrwt beam="2">  1       -1 0.11753956E+00 0.36766703E+03</pdfrwt>
<totfact> 0.33880004E+00</totfact>
</mgrwt>
</event>
<event>
 4    1  0.8749406E-009  0.4792572E+03  0.7818608E-02  0.1019340E+00
         -1   -1    0    0    0  501 -0.00000000000E+00  0.00000000000E+00  0.10614595760E+03  0.10614595772E+03  0.50400000000E-02 0.  1.
          1   -1    0    0  501    0  0.00000000000E+00 -0.00000000000E+00 -0.21956387356E+04  0.21956387356E+04  0.50400000000E-02 0. -1.
    8880022    1    1    2    0    0  0.33038054651E+03  0.31168012388E+03 -0.11831552037E+04  0.12765358178E+04  0.15294330000E+03 0.  0.
    8880022    1    1    2    0    0 -0.33038054651E+03 -0.31168012388E+03 -0.90633757433E+03  0.10252488755E+04  0.15294330000E+03 0.  0.
<mgrwt>
<rscale>  0 0.47925719E+03</rscale>
<asrwt>0</asrwt>
<pdfrwt beam="1">  1        1 0.33779054E+00 0.47925719E+03</pdfrwt>
<pdfrwt beam="2">  1       -1 0.16330149E-01 0.47925719E+03</pdfrwt>
<totfact> 0.67551646E+01</totfact>
</mgrwt>
</event>
<event>
 4    1  0.8749406E-009  0.1397489E+04  0.7818608E-02  0.8955638E-01
         -1   -1    0    0    0  501 -0.00000000000E+00  0.00000000000E+00  0.47172044342E+04  0.47172044342E+04  0.50400000000E-02 0.  1.
          1   -1    0    0  501    0  0.00000000000E+00 -0.00000000000E+00 -0.84070341869E+03  0.84070341871E+03  0.50400000000E-02 0. -1.
    8880022    1    1    2    0    0 -0.86916339724E+01  0.13890674886E+04 -0.41531065845E+02  0.13981060456E+04  0.15294330000E+03 0. -1.
    8880022    1    1    2    0    0  0.86916339724E+01 -0.13890674886E+04  0.39180320814E+04  0.41598018073E+04  0.15294330000E+03 0.  0.
<mgrwt>
<rscale>  0 0.13974891E+04</rscale>
<asrwt>0</asrwt>
<pdfrwt beam="1">  1        1 0.12933899E+00 0.13974891E+04</pdfrwt>
<pdfrwt beam="2">  1       -1 0.72572374E+00 0.13974891E+04</pdfrwt>
<totfact> 0.31470438E-03</totfact>
</mgrwt>
</event>
<event>
 4    1  0.8749406E-009  0.9241180E+03  0.7818608E-02  0.9395925E-01
         -1   -1    0    0    0  501 -0.00000000000E+00  0.00000000000E+00  0.67425833160E+03  0.67425833161E+03  0.50400000000E-02 0.  1.
          1   -1    0    0  501    0  0.00000000000E+00 -0.00000000000E+00 -0.24915916246E+04  0.24915916246E+04  0.50400000000E-02 0. -1.
    8880022    1    1    2    0    0  0.48411860959E+03 -0.77216032690E+03 -0.20185929063E+04  0.22200701279E+04  0.15294330000E+03 0.  0.
    8880022    1    1    2    0    0 -0.48411860959E+03  0.77216032690E+03  0.20125961331E+03  0.94577982826E+03  0.15294330000E+03 0.  0.
<mgrwt>
<rscale>  0 0.92411799E+03</rscale>
<asrwt>0</asrwt>
<pdfrwt beam="1">  1        1 0.38332179E+00 0.92411799E+03</pdfrwt>
<pdfrwt beam="2">  1       -1 0.10373205E+00 0.92411799E+03</pdfrwt>
<totfact> 0.12400798E+00</totfact>
</mgrwt>
</event>
<event>
 4    1  0.8749406E-009  0.8474568E+03  0.7818608E-02  0.9493757E-01
         -1   -1    0    0    0  501 -0.00000000000E+00  0.00000000000E+00  0.10426535884E+04  0.10426535884E+04  0.50400000000E-02 0.  1.
          1   -1    0    0  501    0  0.00000000000E+00 -0.00000000000E+00 -0.14044824965E+04  0.14044824965E+04  0.50400000000E-02 0. -1.
    8880022    1    1    2    0    0 -0.72622985477E+03  0.40912294066E+03  0.69251777640E+03  0.10944240066E+04  0.15294330000E+03 0.  0.
    8880022    1    1    2    0    0  0.72622985477E+03 -0.40912294066E+03 -0.10543466845E+04  0.13527120783E+04  0.15294330000E+03 0.  0.
<mgrwt>
<rscale>  0 0.84745680E+03</rscale>
<asrwt>0</asrwt>
<pdfrwt beam="1">  1        1 0.21607423E+00 0.84745680E+03</pdfrwt>
<pdfrwt beam="2">  1       -1 0.16040824E+00 0.84745680E+03</pdfrwt>
<totfact> 0.22747483E+00</totfact>
</mgrwt>
</event>
<event>
 4    1  0.8749406E-009  0.1360608E+04  0.7818608E-02  0.8982837E-01
         -1   -1    0    0    0  501 -0.00000000000E+00  0.00000000000E+00  0.11747858715E+04  0.11747858715E+04  0.50400000000E-02 0.  1.
          1   -1    0    0  501    0  0.00000000000E+00 -0.00000000000E+00 -0.25557423515E+04  0.25557423515E+04  0.50400000000E-02 0. -1.
    8880022    1    1    2    0    0 -0.45751612164E+03  0.12722190310E+04 -0.18454652363E+04  0.22928139601E+04  0.15294330000E+03 0.  0.
    8880022    1    1    2    0    0  0.45751612164E+03 -0.12722190310E+04  0.46450875624E+03  0.14377142630E+04  0.15294330000E+03 0.  0.
<mgrwt>
<rscale>  0 0.13606079E+04</rscale>
<asrwt>0</asrwt>
<pdfrwt beam="1">  1        1 0.39319113E+00 0.13606079E+04</pdfrwt>
<pdfrwt beam="2">  1       -1 0.18073629E+00 0.13606079E+04</pdfrwt>
<totfact> 0.24556638E-01</totfact>
</mgrwt>
</event>
<event>
 4    1  0.8749406E-009  0.4589057E+03  0.7818608E-02  0.1025099E+00
          1   -1    0    0  501    0  0.00000000000E+00  0.00000000000E+00  0.14540891743E+04  0.14540891743E+04  0.50400000000E-02 0. -1.
         -1   -1    0    0    0  501 -0.00000000000E+00 -0.00000000000E+00 -0.65230115352E+03  0.65230115354E+03  0.50400000000E-02 0.  1.
    8880022    1    1    2    0    0 -0.13994063117E+03  0.40941346547E+03  0.13298408264E+04  0.14067945985E+04  0.15294330000E+03 0.  0.
    8880022    1    1    2    0    0  0.13994063117E+03 -0.40941346547E+03 -0.52805280559E+03  0.69959572931E+03  0.15294330000E+03 0.  0.
<mgrwt>
<rscale>  0 0.45890568E+03</rscale>
<asrwt>0</asrwt>
<pdfrwt beam="1">  1        1 0.22370602E+00 0.45890568E+03</pdfrwt>
<pdfrwt beam="2">  1       -1 0.10035402E+00 0.45890568E+03</pdfrwt>
<totfact> 0.73404997E+00</totfact>
</mgrwt>
</event>
<event>
 4    1  0.8749406E-009  0.2060528E+04  0.7818608E-02  0.8578833E-01
          1   -1    0    0  501    0  0.00000000000E+00  0.00000000000E+00  0.33549958981E+04  0.33549958981E+04  0.50400000000E-02 0. -1.
         -1   -1    0    0    0  501 -0.00000000000E+00 -0.00000000000E+00 -0.16137069708E+04  0.16137069708E+04  0.50400000000E-02 0.  1.
    8880022    1    1    2    0    0  0.20187302587E+04  0.38355028751E+03 -0.28337836639E+03  0.20799225063E+04  0.15294330000E+03 0.  0.
    8880022    1    1    2    0    0 -0.20187302587E+04 -0.38355028751E+03  0.20246672937E+04  0.28887803626E+04  0.15294330000E+03 0.  0.
<mgrwt>
<rscale>  0 0.20605277E+04</rscale>
<asrwt>0</asrwt>
<pdfrwt beam="1">  1        1 0.51615321E+00 0.20605277E+04</pdfrwt>
<pdfrwt beam="2">  1       -1 0.24826262E+00 0.20605277E+04</pdfrwt>
<totfact> 0.20486809E-02</totfact>
</mgrwt>
</event>
<event>
 4    1  0.8749406E-009  0.2220316E+03  0.7818608E-02  0.1132377E+00
          1   -1    0    0  501    0  0.00000000000E+00  0.00000000000E+00  0.17652967921E+04  0.17652967921E+04  0.50400000000E-02 0. -1.
         -1   -1    0    0    0  501 -0.00000000000E+00 -0.00000000000E+00 -0.16208156656E+03  0.16208156664E+03  0.50400000000E-02 0.  1.
    8880022    1    1    2    0    0  0.26235033889E+02 -0.15880204893E+03  0.16783544434E+04  0.16929771582E+04  0.15294330000E+03 0. -1.
    8880022    1    1    2    0    0 -0.26235033889E+02  0.15880204893E+03 -0.75139217798E+02  0.23440120054E+03  0.15294330000E+03 0.  0.
<mgrwt>
<rscale>  0 0.22203158E+03</rscale>
<asrwt>0</asrwt>
<pdfrwt beam="1">  1        1 0.27158414E+00 0.22203158E+03</pdfrwt>
<pdfrwt beam="2">  1       -1 0.24935624E-01 0.22203158E+03</pdfrwt>
<totfact> 0.68810970E+01</totfact>
</mgrwt>
</event>
<event>
 4    1  0.8749406E-009  0.2922512E+03  0.7818608E-02  0.1089180E+00
          1   -1    0    0  501    0  0.00000000000E+00  0.00000000000E+00  0.61143408099E+03  0.61143408101E+03  0.50400000000E-02 0. -1.
         -1   -1    0    0    0  501 -0.00000000000E+00 -0.00000000000E+00 -0.47851070669E+03  0.47851070672E+03  0.50400000000E-02 0.  1.
    8880022    1    1    2    0    0 -0.90780458205E+01  0.24887084063E+03  0.52504065814E+03  0.60089803789E+03  0.15294330000E+03 0. -1.
    8880022    1    1    2    0    0  0.90780458205E+01 -0.24887084063E+03 -0.39211728384E+03  0.48904674984E+03  0.15294330000E+03 0.  0.
<mgrwt>
<rscale>  0 0.29225119E+03</rscale>
<asrwt>0</asrwt>
<pdfrwt beam="1">  1        1 0.94066782E-01 0.29225119E+03</pdfrwt>
<pdfrwt beam="2">  1       -1 0.73617031E-01 0.29225119E+03</pdfrwt>
<totfact> 0.66959155E+01</totfact>
</mgrwt>
</event>
<event>
 4    1  0.8749406E-009  0.3824090E+03  0.7818608E-02  0.1050047E+00
          1   -1    0    0  501    0  0.00000000000E+00  0.00000000000E+00  0.10571924109E+04  0.10571924109E+04  0.50400000000E-02 0. -1.
         -1   -1    0    0    0  501 -0.00000000000E+00 -0.00000000000E+00 -0.29278145375E+03  0.29278145379E+03  0.50400000000E-02 0.  1.
    8880022    1    1    2    0    0 -0.34897638252E+03 -0.32565162927E+02 -0.10805391565E+03  0.39738181526E+03  0.15294330000E+03 0.  0.
    8880022    1    1    2    0    0  0.34897638252E+03  0.32565162927E+02  0.87246487283E+03  0.95259204948E+03  0.15294330000E+03 0.  0.
<mgrwt>
<rscale>  0 0.38240902E+03</rscale>
<asrwt>0</asrwt>
<pdfrwt beam="1">  1        1 0.16264498E+00 0.38240902E+03</pdfrwt>
<pdfrwt beam="2">  1       -1 0.45043302E-01 0.38240902E+03</pdfrwt>
<totfact> 0.71534502E+01</totfact>
</mgrwt>
</event>
<event>
 4    1  0.8749406E-009  0.8875709E+03  0.7818608E-02  0.9441253E-01
         -1   -1    0    0    0  501 -0.00000000000E+00  0.00000000000E+00  0.10548506902E+04  0.10548506902E+04  0.50400000000E-02 0.  1.
          1   -1    0    0  501    0  0.00000000000E+00 -0.00000000000E+00 -0.16437551281E+04  0.16437551281E+04  0.50400000000E-02 0. -1.
    8880022    1    1    2    0    0 -0.63385529955E+03  0.60217758243E+03  0.70226456286E+03  0.11317939525E+04  0.15294330000E+03 0.  0.
    8880022    1    1    2    0    0  0.63385529955E+03 -0.60217758243E+03 -0.12911690008E+04  0.15668118659E+04  0.15294330000E+03 0.  0.
<mgrwt>
<rscale>  0 0.88757086E+03</rscale>
<asrwt>0</asrwt>
<pdfrwt beam="1">  1        1 0.25288541E+00 0.88757086E+03</pdfrwt>
<pdfrwt beam="2">  1       -1 0.16228472E+00 0.88757086E+03</pdfrwt>
<totfact> 0.14988712E+00</totfact>
</mgrwt>
</event>
<event>
 4    1  0.8749406E-009  0.6807429E+03  0.7818608E-02  0.9750743E-01
          1   -1    0    0  501    0  0.00000000000E+00  0.00000000000E+00  0.27068686449E+04  0.27068686449E+04  0.50400000000E-02 0. -1.
         -1   -1    0    0    0  501 -0.00000000000E+00 -0.00000000000E+00 -0.38752402130E+03  0.38752402133E+03  0.50400000000E-02 0.  1.
    8880022    1    1    2    0    0 -0.54744686112E+03  0.37459470337E+03  0.23156523693E+04  0.24136397424E+04  0.15294330000E+03 0.  0.
    8880022    1    1    2    0    0  0.54744686112E+03 -0.37459470337E+03  0.36922542704E+01  0.68075292383E+03  0.15294330000E+03 0.  0.
<mgrwt>
<rscale>  0 0.68074291E+03</rscale>
<asrwt>0</asrwt>
<pdfrwt beam="1">  1        1 0.41644133E+00 0.68074291E+03</pdfrwt>
<pdfrwt beam="2">  1       -1 0.59619081E-01 0.68074291E+03</pdfrwt>
<totfact> 0.29934213E+00</totfact>
</mgrwt>
</event>
<event>
 4    1  0.8749406E-009  0.1044889E+04  0.7818608E-02  0.9260637E-01
         -1   -1    0    0    0  501 -0.00000000000E+00  0.00000000000E+00  0.12045355222E+04  0.12045355222E+04  0.50400000000E-02 0.  1.
          1   -1    0    0  501    0  0.00000000000E+00 -0.00000000000E+00 -0.21491118147E+04  0.21491118147E+04  0.50400000000E-02 0. -1.
    8880022    1    1    2    0    0  0.10310171751E+04  0.73514184286E+02 -0.17473841927E+04  0.20359626521E+04  0.15294330000E+03 0.  0.
    8880022    1    1    2    0    0 -0.10310171751E+04 -0.73514184286E+02  0.80280790026E+03  0.13176846847E+04  0.15294330000E+03 0.  0.
<mgrwt>
<rscale>  0 0.10448887E+04</rscale>
<asrwt>0</asrwt>
<pdfrwt beam="1">  1        1 0.33063259E+00 0.10448887E+04</pdfrwt>
<pdfrwt beam="2">  1       -1 0.18531316E+00 0.10448887E+04</pdfrwt>
<totfact> 0.45281919E-01</totfact>
</mgrwt>
</event>
<event>
 4    1  0.8749406E-009  0.3254510E+03  0.7818608E-02  0.1073168E+00
         -1   -1    0    0    0  501 -0.00000000000E+00  0.00000000000E+00  0.26543102997E+03  0.26543103002E+03  0.50400000000E-02 0.  1.
          1   -1    0    0  501    0  0.00000000000E+00 -0.00000000000E+00 -0.13978881325E+04  0.13978881325E+04  0.50400000000E-02 0. -1.
    8880022    1    1    2    0    0  0.28465739054E+03  0.38689091389E+02  0.13677661873E+03  0.35302432243E+03  0.15294330000E+03 0.  0.
    8880022    1    1    2    0    0 -0.28465739054E+03 -0.38689091389E+02 -0.12692337212E+04  0.13102948401E+04  0.15294330000E+03 0.  0.
<mgrwt>
<rscale>  0 0.32545096E+03</rscale>
<asrwt>0</asrwt>
<pdfrwt beam="1">  1        1 0.21505971E+00 0.32545096E+03</pdfrwt>
<pdfrwt beam="2">  1       -1 0.40835544E-01 0.32545096E+03</pdfrwt>
<totfact> 0.49769506E+01</totfact>
</mgrwt>
</event>
<event>
 4    1  0.8749406E-009  0.1034517E+04  0.7818608E-02  0.9271477E-01
          1   -1    0    0  501    0  0.00000000000E+00  0.00000000000E+00  0.18006532508E+04  0.18006532508E+04  0.50400000000E-02 0. -1.
         -1   -1    0    0    0  501 -0.00000000000E+00 -0.00000000000E+00 -0.86002370037E+03  0.86002370038E+03  0.50400000000E-02 0.  1.
    8880022    1    1    2    0    0  0.17170046413E+03 -0.10086386251E+04 -0.26908336879E+03  0.10689389308E+04  0.15294330000E+03 0.  0.
    8880022    1    1    2    0    0 -0.17170046413E+03  0.10086386251E+04  0.12097129192E+04  0.15917380203E+04  0.15294330000E+03 0.  0.
<mgrwt>
<rscale>  0 0.10345166E+04</rscale>
<asrwt>0</asrwt>
<pdfrwt beam="1">  1        1 0.27702358E+00 0.10345166E+04</pdfrwt>
<pdfrwt beam="2">  1       -1 0.13231134E+00 0.10345166E+04</pdfrwt>
<totfact> 0.19807756E+00</totfact>
</mgrwt>
</event>
<event>
 4    1  0.8749406E-009  0.1152625E+04  0.7818608E-02  0.9155365E-01
          1   -1    0    0  501    0  0.00000000000E+00  0.00000000000E+00  0.37889028003E+04  0.37889028003E+04  0.50400000000E-02 0. -1.
         -1   -1    0    0    0  501 -0.00000000000E+00 -0.00000000000E+00 -0.71596535656E+03  0.71596535658E+03  0.50400000000E-02 0.  1.
    8880022    1    1    2    0    0 -0.49200738354E+03 -0.10310589159E+04  0.31454288544E+04  0.33499653856E+04  0.15294330000E+03 0.  0.
    8880022    1    1    2    0    0  0.49200738354E+03  0.10310589159E+04 -0.72491410617E+02  0.11549027713E+04  0.15294330000E+03 0.  0.
<mgrwt>
<rscale>  0 0.11526254E+04</rscale>
<asrwt>0</asrwt>
<pdfrwt beam="1">  1        1 0.58290812E+00 0.11526254E+04</pdfrwt>
<pdfrwt beam="2">  1       -1 0.11014852E+00 0.11526254E+04</pdfrwt>
<totfact> 0.11272327E-01</totfact>
</mgrwt>
</event>
<event>
 4    1  0.8749406E-009  0.4897600E+03  0.7818608E-02  0.1016487E+00
         -1   -1    0    0    0  501 -0.00000000000E+00  0.00000000000E+00  0.60320968592E+03  0.60320968594E+03  0.50400000000E-02 0.  1.
          1   -1    0    0  501    0  0.00000000000E+00 -0.00000000000E+00 -0.11616773386E+04  0.11616773386E+04  0.50400000000E-02 0. -1.
    8880022    1    1    2    0    0 -0.44250248355E+03 -0.14375238152E+03 -0.99488156643E+03  0.11088977317E+04  0.15294330000E+03 0.  0.
    8880022    1    1    2    0    0  0.44250248355E+03  0.14375238152E+03  0.43641391378E+03  0.65598929282E+03  0.15294330000E+03 0.  0.
<mgrwt>
<rscale>  0 0.48975999E+03</rscale>
<asrwt>0</asrwt>
<pdfrwt beam="1">  1        1 0.17871959E+00 0.48975999E+03</pdfrwt>
<pdfrwt beam="2">  1       -1 0.92801490E-01 0.48975999E+03</pdfrwt>
<totfact> 0.13880640E+01</totfact>
</mgrwt>
</event>
<event>
 4    1  0.8749406E-009  0.6707822E+03  0.7818608E-02  0.9768546E-01
         -1   -1    0    0    0  501 -0.00000000000E+00  0.00000000000E+00  0.35467766088E+03  0.35467766091E+03  0.50400000000E-02 0.  1.
          1   -1    0    0  501    0  0.00000000000E+00 -0.00000000000E+00 -0.16828760270E+04  0.16828760270E+04  0.50400000000E-02 0. -1.
    8880022    1    1    2    0    0 -0.63513699523E+03 -0.15217775739E+03 -0.15863424020E+03  0.68928480886E+03  0.15294330000E+03 0.  0.
    8880022    1    1    2    0    0  0.63513699523E+03  0.15217775739E+03 -0.11695641259E+04  0.13482688790E+04  0.15294330000E+03 0. -1.
<mgrwt>
<rscale>  0 0.67078217E+03</rscale>
<asrwt>0</asrwt>
<pdfrwt beam="1">  1        1 0.25890400E+00 0.67078217E+03</pdfrwt>
<pdfrwt beam="2">  1       -1 0.54565795E-01 0.67078217E+03</pdfrwt>
<totfact> 0.17443064E+01</totfact>
</mgrwt>
</event>
<event>
 4    1  0.8749406E-009  0.4210849E+03  0.7818608E-02  0.1036714E+00
         -1   -1    0    0    0  501 -0.00000000000E+00  0.00000000000E+00  0.11046216069E+04  0.11046216069E+04  0.50400000000E-02 0.  1.
          1   -1    0    0  501    0  0.00000000000E+00 -0.00000000000E+00 -0.96662974509E+03  0.96662974510E+03  0.50400000000E-02 0. -1.
    8880022    1    1    2    0    0 -0.31907068758E+03  0.22828649416E+03  0.10147324382E+04  0.10986329693E+04  0.15294330000E+03 0.  0.
    8880022    1    1    2    0    0  0.31907068758E+03 -0.22828649416E+03 -0.87674057639E+03  0.97261838271E+03  0.15294330000E+03 0. -1.
<mgrwt>
<rscale>  0 0.42108488E+03</rscale>
<asrwt>0</asrwt>
<pdfrwt beam="1">  1        1 0.14871227E+00 0.42108488E+03</pdfrwt>
<pdfrwt beam="2">  1       -1 0.16994178E+00 0.42108488E+03</pdfrwt>
<totfact> 0.44089113E+00</totfact>
</mgrwt>
</event>
<event>
 4    1  0.8749406E-009  0.9109957E+03  0.7818608E-02  0.9411940E-01
          1   -1    0    0  501    0  0.00000000000E+00  0.00000000000E+00  0.53752747707E+03  0.53752747709E+03  0.50400000000E-02 0. -1.
         -1   -1    0    0    0  501 -0.00000000000E+00 -0.00000000000E+00 -0.24641900196E+04  0.24641900196E+04  0.50400000000E-02 0.  1.
    8880022    1    1    2    0    0  0.25989220214E+03 -0.85963800853E+03 -0.18805107938E+04  0.20895535315E+04  0.15294330000E+03 0.  0.
    8880022    1    1    2    0    0 -0.25989220214E+03  0.85963800853E+03 -0.46151748724E+02  0.91216396518E+03  0.15294330000E+03 0.  0.
<mgrwt>
<rscale>  0 0.91099567E+03</rscale>
<asrwt>0</asrwt>
<pdfrwt beam="1">  1        1 0.82696536E-01 0.91099567E+03</pdfrwt>
<pdfrwt beam="2">  1       -1 0.37910615E+00 0.91099567E+03</pdfrwt>
<totfact> 0.41298600E-01</totfact>
</mgrwt>
</event>
<event>
 4    1  0.8749406E-009  0.5282980E+03  0.7818608E-02  0.1006646E+00
          1   -1    0    0  501    0  0.00000000000E+00  0.00000000000E+00  0.74305536330E+03  0.74305536331E+03  0.50400000000E-02 0. -1.
         -1   -1    0    0    0  501 -0.00000000000E+00 -0.00000000000E+00 -0.13527436449E+04  0.13527436449E+04  0.50400000000E-02 0.  1.
    8880022    1    1    2    0    0 -0.50307437394E+03 -0.51217953302E+02 -0.11954569711E+04  0.13069874243E+04  0.15294330000E+03 0.  0.
    8880022    1    1    2    0    0  0.50307437394E+03  0.51217953302E+02  0.58576868946E+03  0.78881158398E+03  0.15294330000E+03 0. -1.
<mgrwt>
<rscale>  0 0.52829798E+03</rscale>
<asrwt>0</asrwt>
<pdfrwt beam="1">  1        1 0.11431621E+00 0.52829798E+03</pdfrwt>
<pdfrwt beam="2">  1       -1 0.20811441E+00 0.52829798E+03</pdfrwt>
<totfact> 0.35679734E+00</totfact>
</mgrwt>
</event>
<event>
 4    1  0.8749406E-009  0.8588778E+03  0.7818608E-02  0.9478498E-01
         -1   -1    0    0    0  501 -0.00000000000E+00  0.00000000000E+00  0.94374359916E+03  0.94374359917E+03  0.50400000000E-02 0.  1.
          1   -1    0    0  501    0  0.00000000000E+00 -0.00000000000E+00 -0.12467967631E+04  0.12467967631E+04  0.50400000000E-02 0. -1.
    8880022    1    1    2    0    0 -0.68268381100E+03  0.49821907428E+03  0.51746622737E+03  0.10027174982E+04  0.15294330000E+03 0.  0.
    8880022    1    1    2    0    0  0.68268381100E+03 -0.49821907428E+03 -0.82051939129E+03  0.11878228640E+04  0.15294330000E+03 0.  0.
<mgrwt>
<rscale>  0 0.85887781E+03</rscale>
<asrwt>0</asrwt>
<pdfrwt beam="1">  1        1 0.19181489E+00 0.85887781E+03</pdfrwt>
<pdfrwt beam="2">  1       -1 0.14519132E+00 0.85887781E+03</pdfrwt>
<totfact> 0.38468619E+00</totfact>
</mgrwt>
</event>
<event>
 4    1  0.8749406E-009  0.1354179E+04  0.7818608E-02  0.8987670E-01
         -1   -1    0    0    0  501 -0.00000000000E+00  0.00000000000E+00  0.10235663668E+04  0.10235663668E+04  0.50400000000E-02 0.  1.
          1   -1    0    0  501    0  0.00000000000E+00 -0.00000000000E+00 -0.22642641573E+04  0.22642641573E+04  0.50400000000E-02 0. -1.
    8880022    1    1    2    0    0 -0.13417662225E+04  0.10036840611E+03 -0.13714543926E+04  0.19273529041E+04  0.15294330000E+03 0.  0.
    8880022    1    1    2    0    0  0.13417662225E+04 -0.10036840611E+03  0.13075660217E+03  0.13604776201E+04  0.15294330000E+03 0.  0.
<mgrwt>
<rscale>  0 0.13541795E+04</rscale>
<asrwt>0</asrwt>
<pdfrwt beam="1">  1        1 0.34834833E+00 0.13541795E+04</pdfrwt>
<pdfrwt beam="2">  1       -1 0.15747175E+00 0.13541795E+04</pdfrwt>
<totfact> 0.58042597E-01</totfact>
</mgrwt>
</event>
<event>
 4    1  0.8749406E-009  0.5987693E+03  0.7818608E-02  0.9907963E-01
         -1   -1    0    0    0  501 -0.00000000000E+00  0.00000000000E+00  0.19534716896E+04  0.19534716896E+04  0.50400000000E-02 0.  1.
          1   -1    0    0  501    0  0.00000000000E+00 -0.00000000000E+00 -0.40928357405E+03  0.40928357409E+03  0.50400000000E-02 0. -1.
    8880022    1    1    2    0    0 -0.57426635395E+03 -0.73151410803E+02 -0.10529446602E+03  0.60795686670E+03  0.15294330000E+03 0.  0.
    8880022    1    1    2    0    0  0.57426635395E+03  0.73151410803E+02  0.16494825816E+04  0.17547983970E+04  0.15294330000E+03 0.  0.
<mgrwt>
<rscale>  0 0.59876926E+03</rscale>
<asrwt>0</asrwt>
<pdfrwt beam="1">  1        1 0.62966702E-01 0.59876926E+03</pdfrwt>
<pdfrwt beam="2">  1       -1 0.30053412E+00 0.59876926E+03</pdfrwt>
<totfact> 0.20621334E+00</totfact>
</mgrwt>
</event>
<event>
 4    1  0.8749406E-009  0.7191800E+03  0.7818608E-02  0.9684983E-01
         -1   -1    0    0    0  501 -0.00000000000E+00  0.00000000000E+00  0.48069073388E+03  0.48069073391E+03  0.50400000000E-02 0.  1.
          1   -1    0    0  501    0  0.00000000000E+00 -0.00000000000E+00 -0.11338375455E+04  0.11338375455E+04  0.50400000000E-02 0. -1.
    8880022    1    1    2    0    0 -0.14456775741E+02 -0.70258036421E+03 -0.14423766586E+03  0.73350141364E+03  0.15294330000E+03 0.  0.
    8880022    1    1    2    0    0  0.14456775741E+02  0.70258036421E+03 -0.50890914572E+03  0.88102686574E+03  0.15294330000E+03 0.  0.
<mgrwt>
<rscale>  0 0.71917996E+03</rscale>
<asrwt>0</asrwt>
<pdfrwt beam="1">  1        1 0.17443654E+00 0.71917996E+03</pdfrwt>
<pdfrwt beam="2">  1       -1 0.73952421E-01 0.71917996E+03</pdfrwt>
<totfact> 0.22761532E+01</totfact>
</mgrwt>
</event>
<event>
 4    1  0.8749406E-009  0.6730229E+03  0.7818608E-02  0.9764512E-01
         -1   -1    0    0    0  501 -0.00000000000E+00  0.00000000000E+00  0.13267121736E+04  0.13267121736E+04  0.50400000000E-02 0.  1.
          1   -1    0    0  501    0  0.00000000000E+00 -0.00000000000E+00 -0.96988076160E+03  0.96988076162E+03  0.50400000000E-02 0. -1.
    8880022    1    1    2    0    0 -0.58772017795E+03 -0.29009162296E+03 -0.74593243144E+03  0.10046765662E+04  0.15294330000E+03 0.  0.
    8880022    1    1    2    0    0  0.58772017795E+03  0.29009162296E+03  0.11027638435E+04  0.12919163691E+04  0.15294330000E+03 0.  0.
<mgrwt>
<rscale>  0 0.67302289E+03</rscale>
<asrwt>0</asrwt>
<pdfrwt beam="1">  1        1 0.14921243E+00 0.67302289E+03</pdfrwt>
<pdfrwt beam="2">  1       -1 0.20410956E+00 0.67302289E+03</pdfrwt>
<totfact> 0.23835500E+00</totfact>
</mgrwt>
</event>
<event>
 4    1  0.8749406E-009  0.1959718E+04  0.7818608E-02  0.8625689E-01
          1   -1    0    0  501    0  0.00000000000E+00  0.00000000000E+00  0.37924902405E+04  0.37924902405E+04  0.50400000000E-02 0. -1.
         -1   -1    0    0    0  501 -0.00000000000E+00 -0.00000000000E+00 -0.15854954840E+04  0.15854954840E+04  0.50400000000E-02 0.  1.
    8880022    1    1    2    0    0 -0.12776337743E+04 -0.14780921412E+04 -0.51280572981E+03  0.20257013128E+04  0.15294330000E+03 0.  0.
    8880022    1    1    2    0    0  0.12776337743E+04  0.14780921412E+04  0.27198004862E+04  0.33522844117E+04  0.15294330000E+03 0.  0.
<mgrwt>
<rscale>  0 0.19597184E+04</rscale>
<asrwt>0</asrwt>
<pdfrwt beam="1">  1        1 0.58346004E+00 0.19597184E+04</pdfrwt>
<pdfrwt beam="2">  1       -1 0.24392238E+00 0.19597184E+04</pdfrwt>
<totfact> 0.98811436E-03</totfact>
</mgrwt>
</event>
<event>
 4    1  0.8749406E-009  0.7494894E+03  0.7818608E-02  0.9636152E-01
         -1   -1    0    0    0  501 -0.00000000000E+00  0.00000000000E+00  0.10153804702E+04  0.10153804702E+04  0.50400000000E-02 0.  1.
          1   -1    0    0  501    0  0.00000000000E+00 -0.00000000000E+00 -0.11295578064E+04  0.11295578065E+04  0.50400000000E-02 0. -1.
    8880022    1    1    2    0    0 -0.73371406471E+03 -0.25189380100E+01  0.70897888958E+03  0.10316905508E+04  0.15294330000E+03 0.  0.
    8880022    1    1    2    0    0  0.73371406471E+03  0.25189380100E+01 -0.82315622587E+03  0.11132477258E+04  0.15294330000E+03 0.  0.
<mgrwt>
<rscale>  0 0.74948938E+03</rscale>
<asrwt>0</asrwt>
<pdfrwt beam="1">  1        1 0.17377812E+00 0.74948938E+03</pdfrwt>
<pdfrwt beam="2">  1       -1 0.15621238E+00 0.74948938E+03</pdfrwt>
<totfact> 0.39106455E+00</totfact>
</mgrwt>
</event>
<event>
 4    1  0.8749406E-009  0.1284183E+04  0.7818608E-02  0.9042203E-01
          1   -1    0    0  501    0  0.00000000000E+00  0.00000000000E+00  0.44205753311E+04  0.44205753311E+04  0.50400000000E-02 0. -1.
         -1   -1    0    0    0  501 -0.00000000000E+00 -0.00000000000E+00 -0.49138053831E+03  0.49138053833E+03  0.50400000000E-02 0.  1.
    8880022    1    1    2    0    0 -0.10671164922E+04  0.69785149534E+03  0.31697757103E+04  0.34200298280E+04  0.15294330000E+03 0.  0.
    8880022    1    1    2    0    0  0.10671164922E+04 -0.69785149534E+03  0.75941908249E+03  0.14919260415E+04  0.15294330000E+03 0.  0.
<mgrwt>
<rscale>  0 0.12841830E+04</rscale>
<asrwt>0</asrwt>
<pdfrwt beam="1">  1        1 0.68008851E+00 0.12841830E+04</pdfrwt>
<pdfrwt beam="2">  1       -1 0.75597007E-01 0.12841830E+04</pdfrwt>
<totfact> 0.69134926E-02</totfact>
</mgrwt>
</event>
<event>
 4    1  0.8749406E-009  0.9949687E+03  0.7818608E-02  0.9314080E-01
         -1   -1    0    0    0  501 -0.00000000000E+00  0.00000000000E+00  0.16637576419E+04  0.16637576419E+04  0.50400000000E-02 0.  1.
          1   -1    0    0  501    0  0.00000000000E+00 -0.00000000000E+00 -0.67495406754E+03  0.67495406756E+03  0.50400000000E-02 0. -1.
    8880022    1    1    2    0    0  0.83078996667E+03 -0.52569876199E+03  0.91976033675E+02  0.99921088909E+03  0.15294330000E+03 0.  0.
    8880022    1    1    2    0    0 -0.83078996667E+03  0.52569876199E+03  0.89682754071E+03  0.13395008204E+04  0.15294330000E+03 0.  0.
<mgrwt>
<rscale>  0 0.99496875E+03</rscale>
<asrwt>0</asrwt>
<pdfrwt beam="1">  1        1 0.10383909E+00 0.99496875E+03</pdfrwt>
<pdfrwt beam="2">  1       -1 0.25596271E+00 0.99496875E+03</pdfrwt>
<totfact> 0.18523385E+00</totfact>
</mgrwt>
</event>
<event>
 4    1  0.8749406E-009  0.1741077E+03  0.7818608E-02  0.1173631E+00
         -1   -1    0    0    0  501 -0.00000000000E+00  0.00000000000E+00  0.10651967915E+04  0.10651967915E+04  0.50400000000E-02 0.  1.
          1   -1    0    0  501    0  0.00000000000E+00 -0.00000000000E+00 -0.33740231400E+03  0.33740231403E+03  0.50400000000E-02 0. -1.
    8880022    1    1    2    0    0  0.83919790177E+00 -0.83193373427E+02 -0.30717543532E+03  0.35308673540E+03  0.15294330000E+03 0. -1.
    8880022    1    1    2    0    0 -0.83919790177E+00  0.83193373427E+02  0.10349699128E+04  0.10495123701E+04  0.15294330000E+03 0.  0.
<mgrwt>
<rscale>  0 0.17410771E+03</rscale>
<asrwt>0</asrwt>
<pdfrwt beam="1">  1        1 0.51908048E-01 0.17410771E+03</pdfrwt>
<pdfrwt beam="2">  1       -1 0.16387643E+00 0.17410771E+03</pdfrwt>
<totfact> 0.23546648E+01</totfact>
</mgrwt>
</event>
<event>
 4    1  0.8749406E-009  0.1052921E+04  0.7818608E-02  0.9252334E-01
         -1   -1    0    0    0  501 -0.00000000000E+00  0.00000000000E+00  0.81323960526E+03  0.81323960527E+03  0.50400000000E-02 0.  1.
          1   -1    0    0  501    0  0.00000000000E+00 -0.00000000000E+00 -0.15232324242E+04  0.15232324242E+04  0.50400000000E-02 0. -1.
    8880022    1    1    2    0    0  0.10417506616E+04  0.24249895844E+01 -0.73360911543E+03  0.12832865263E+04  0.15294330000E+03 0.  0.
    8880022    1    1    2    0    0 -0.10417506616E+04 -0.24249895844E+01  0.23616296522E+02  0.10531855031E+04  0.15294330000E+03 0.  0.
<mgrwt>
<rscale>  0 0.10529207E+04</rscale>
<asrwt>0</asrwt>
<pdfrwt beam="1">  1        1 0.23434345E+00 0.10529207E+04</pdfrwt>
<pdfrwt beam="2">  1       -1 0.12511379E+00 0.10529207E+04</pdfrwt>
<totfact> 0.35159876E+00</totfact>
</mgrwt>
</event>
<event>
 4    1  0.8749406E-009  0.6391385E+03  0.7818608E-02  0.9827376E-01
          1   -1    0    0  501    0  0.00000000000E+00  0.00000000000E+00  0.26461177919E+04  0.26461177919E+04  0.50400000000E-02 0. -1.
         -1   -1    0    0    0  501 -0.00000000000E+00 -0.00000000000E+00 -0.26917098711E+03  0.26917098715E+03  0.50400000000E-02 0.  1.
    8880022    1    1    2    0    0  0.61892816344E+03 -0.45103225972E+02  0.21403885724E+04  0.22337773538E+04  0.15294330000E+03 0.  0.
    8880022    1    1    2    0    0 -0.61892816344E+03  0.45103225972E+02  0.23655823246E+03  0.68151142532E+03  0.15294330000E+03 0.  0.
<mgrwt>
<rscale>  0 0.63913850E+03</rscale>
<asrwt>0</asrwt>
<pdfrwt beam="1">  1        1 0.40709503E+00 0.63913850E+03</pdfrwt>
<pdfrwt beam="2">  1       -1 0.41410923E-01 0.63913850E+03</pdfrwt>
<totfact> 0.66228710E+00</totfact>
</mgrwt>
</event>
<event>
 4    1  0.8749406E-009  0.2069846E+04  0.7818608E-02  0.8574644E-01
         -1   -1    0    0    0  501 -0.00000000000E+00  0.00000000000E+00  0.17411933612E+04  0.17411933613E+04  0.50400000000E-02 0.  1.
          1   -1    0    0  501    0  0.00000000000E+00 -0.00000000000E+00 -0.33575477375E+04  0.33575477375E+04  0.50400000000E-02 0. -1.
    8880022    1    1    2    0    0  0.20425254597E+04  0.29826402922E+03  0.50953847850E+03  0.21316408700E+04  0.15294330000E+03 0.  0.
    8880022    1    1    2    0    0 -0.20425254597E+04 -0.29826402922E+03 -0.21258928548E+04  0.29671002288E+04  0.15294330000E+03 0.  0.
<mgrwt>
<rscale>  0 0.20698462E+04</rscale>
<asrwt>0</asrwt>
<pdfrwt beam="1">  1        1 0.51654581E+00 0.20698462E+04</pdfrwt>
<pdfrwt beam="2">  1       -1 0.26787590E+00 0.20698462E+04</pdfrwt>
<totfact> 0.15152408E-02</totfact>
</mgrwt>
</event>
<event>
 4    1  0.8749406E-009  0.7841338E+03  0.7818608E-02  0.9583271E-01
          1   -1    0    0  501    0  0.00000000000E+00  0.00000000000E+00  0.15795605458E+04  0.15795605458E+04  0.50400000000E-02 0. -1.
         -1   -1    0    0    0  501 -0.00000000000E+00 -0.00000000000E+00 -0.15598553547E+04  0.15598553547E+04  0.50400000000E-02 0.  1.
    8880022    1    1    2    0    0  0.71868719820E+03 -0.27379341096E+03 -0.13499610131E+04  0.15611727998E+04  0.15294330000E+03 0.  0.
    8880022    1    1    2    0    0 -0.71868719820E+03  0.27379341096E+03  0.13696662043E+04  0.15782431007E+04  0.15294330000E+03 0.  0.
<mgrwt>
<rscale>  0 0.78413377E+03</rscale>
<asrwt>0</asrwt>
<pdfrwt beam="1">  1        1 0.24300932E+00 0.78413377E+03</pdfrwt>
<pdfrwt beam="2">  1       -1 0.23997775E+00 0.78413377E+03</pdfrwt>
<totfact> 0.49242888E-01</totfact>
</mgrwt>
</event>
<event>
 4    1  0.8749406E-009  0.1049725E+04  0.7818608E-02  0.9255628E-01
          1   -1    0    0  501    0  0.00000000000E+00  0.00000000000E+00  0.13809151820E+04  0.13809151820E+04  0.50400000000E-02 0. -1.
         -1   -1    0    0    0  501 -0.00000000000E+00 -0.00000000000E+00 -0.14215790184E+04  0.14215790184E+04  0.50400000000E-02 0.  1.
    8880022    1    1    2    0    0  0.92741914864E+02  0.10343745137E+04 -0.94841491100E+03  0.14147134670E+04  0.15294330000E+03 0.  0.
    8880022    1    1    2    0    0 -0.92741914864E+02 -0.10343745137E+04  0.90775107461E+03  0.13877807334E+04  0.15294330000E+03 0.  0.
<mgrwt>
<rscale>  0 0.10497254E+04</rscale>
<asrwt>0</asrwt>
<pdfrwt beam="1">  1        1 0.21244849E+00 0.10497254E+04</pdfrwt>
<pdfrwt beam="2">  1       -1 0.21870446E+00 0.10497254E+04</pdfrwt>
<totfact> 0.88970293E-01</totfact>
</mgrwt>
</event>
<event>
 4    1  0.8749406E-009  0.2257217E+03  0.7818608E-02  0.1129688E+00
          1   -1    0    0  501    0  0.00000000000E+00  0.00000000000E+00  0.46668133497E+03  0.46668133499E+03  0.50400000000E-02 0. -1.
         -1   -1    0    0    0  501 -0.00000000000E+00 -0.00000000000E+00 -0.21870867558E+03  0.21870867564E+03  0.50400000000E-02 0.  1.
    8880022    1    1    2    0    0 -0.32019495279E+02 -0.16289071422E+03  0.36650607785E+03  0.43043813838E+03  0.15294330000E+03 0.  0.
    8880022    1    1    2    0    0  0.32019495279E+02  0.16289071422E+03 -0.11853341846E+03  0.25495187225E+03  0.15294330000E+03 0.  0.
<mgrwt>
<rscale>  0 0.22572170E+03</rscale>
<asrwt>0</asrwt>
<pdfrwt beam="1">  1        1 0.71797128E-01 0.22572170E+03</pdfrwt>
<pdfrwt beam="2">  1       -1 0.33647489E-01 0.22572170E+03</pdfrwt>
<totfact> 0.41863702E+02</totfact>
</mgrwt>
</event>
<event>
 4    1  0.8749406E-009  0.1409080E+04  0.7818608E-02  0.8947272E-01
          1   -1    0    0  501    0  0.00000000000E+00  0.00000000000E+00  0.19840294323E+04  0.19840294323E+04  0.50400000000E-02 0. -1.
         -1   -1    0    0    0  501 -0.00000000000E+00 -0.00000000000E+00 -0.12256629153E+04  0.12256629153E+04  0.50400000000E-02 0.  1.
    8880022    1    1    2    0    0  0.33165087670E+03 -0.13609272188E+04 -0.30829702121E+03  0.14424125295E+04  0.15294330000E+03 0.  0.
    8880022    1    1    2    0    0 -0.33165087670E+03  0.13609272188E+04  0.10666635382E+04  0.17672798181E+04  0.15294330000E+03 0.  0.
<mgrwt>
<rscale>  0 0.14090801E+04</rscale>
<asrwt>0</asrwt>
<pdfrwt beam="1">  1        1 0.30523529E+00 0.14090801E+04</pdfrwt>
<pdfrwt beam="2">  1       -1 0.18856353E+00 0.14090801E+04</pdfrwt>
<totfact> 0.52830133E-01</totfact>
</mgrwt>
</event>
<event>
 4    1  0.8749406E-009  0.1283685E+04  0.7818608E-02  0.9042604E-01
         -1   -1    0    0    0  501 -0.00000000000E+00  0.00000000000E+00  0.18292227001E+04  0.18292227001E+04  0.50400000000E-02 0.  1.
          1   -1    0    0  501    0  0.00000000000E+00 -0.00000000000E+00 -0.13812876195E+04  0.13812876195E+04  0.50400000000E-02 0. -1.
    8880022    1    1    2    0    0 -0.32715374486E+01 -0.12745367585E+04  0.11706901154E+04  0.17373432737E+04  0.15294330000E+03 0.  0.
    8880022    1    1    2    0    0  0.32715374486E+01  0.12745367585E+04 -0.72275503475E+03  0.14731670458E+04  0.15294330000E+03 0.  0.
<mgrwt>
<rscale>  0 0.12836847E+04</rscale>
<asrwt>0</asrwt>
<pdfrwt beam="1">  1        1 0.21250579E+00 0.12836847E+04</pdfrwt>
<pdfrwt beam="2">  1       -1 0.28141888E+00 0.12836847E+04</pdfrwt>
<totfact> 0.33528692E-01</totfact>
</mgrwt>
</event>
<event>
 4    1  0.8749406E-009  0.3338557E+03  0.7818608E-02  0.1069443E+00
          1   -1    0    0  501    0  0.00000000000E+00  0.00000000000E+00  0.36762025286E+04  0.36762025286E+04  0.50400000000E-02 0. -1.
         -1   -1    0    0    0  501 -0.00000000000E+00 -0.00000000000E+00 -0.26380050221E+03  0.26380050226E+03  0.50400000000E-02 0.  1.
    8880022    1    1    2    0    0 -0.14806746082E+03  0.25718475715E+03  0.35595396429E+04  0.35751618278E+04  0.15294330000E+03 0. -1.
    8880022    1    1    2    0    0  0.14806746082E+03 -0.25718475715E+03 -0.14713761652E+03  0.36484120309E+03  0.15294330000E+03 0.  0.
<mgrwt>
<rscale>  0 0.33385570E+03</rscale>
<asrwt>0</asrwt>
<pdfrwt beam="1">  1        1 0.56556957E+00 0.33385570E+03</pdfrwt>
<pdfrwt beam="2">  1       -1 0.40584697E-01 0.33385570E+03</pdfrwt>
<totfact> 0.13487379E+00</totfact>
</mgrwt>
</event>
<event>
 4    1  0.8749406E-009  0.1170493E+04  0.7818608E-02  0.9139083E-01
          1   -1    0    0  501    0  0.00000000000E+00  0.00000000000E+00  0.33051506302E+04  0.33051506302E+04  0.50400000000E-02 0. -1.
         -1   -1    0    0    0  501 -0.00000000000E+00 -0.00000000000E+00 -0.96366969041E+03  0.96366969042E+03  0.50400000000E-02 0.  1.
    8880022    1    1    2    0    0  0.75233012680E+03  0.88355032295E+03 -0.44049444152E+03  0.12506353581E+04  0.15294330000E+03 0.  0.
    8880022    1    1    2    0    0 -0.75233012680E+03 -0.88355032295E+03  0.27819753813E+04  0.30181849625E+04  0.15294330000E+03 0.  0.
<mgrwt>
<rscale>  0 0.11704928E+04</rscale>
<asrwt>0</asrwt>
<pdfrwt beam="1">  1        1 0.50848470E+00 0.11704928E+04</pdfrwt>
<pdfrwt beam="2">  1       -1 0.14825688E+00 0.11704928E+04</pdfrwt>
<totfact> 0.12774900E-01</totfact>
</mgrwt>
</event>
<event>
 4    1  0.8749406E-009  0.8984903E+03  0.7818608E-02  0.9427471E-01
          1   -1    0    0  501    0  0.00000000000E+00  0.00000000000E+00  0.21527408780E+04  0.21527408780E+04  0.50400000000E-02 0. -1.
         -1   -1    0    0    0  501 -0.00000000000E+00 -0.00000000000E+00 -0.85283706852E+03  0.85283706854E+03  0.50400000000E-02 0.  1.
    8880022    1    1    2    0    0  0.49015108502E+03 -0.73732293042E+03 -0.47492086449E+03  0.10162847388E+04  0.15294330000E+03 0.  0.
    8880022    1    1    2    0    0 -0.49015108502E+03  0.73732293042E+03  0.17748246740E+04  0.19892932077E+04  0.15294330000E+03 0.  0.
<mgrwt>
<rscale>  0 0.89849031E+03</rscale>
<asrwt>0</asrwt>
<pdfrwt beam="1">  1        1 0.33119090E+00 0.89849031E+03</pdfrwt>
<pdfrwt beam="2">  1       -1 0.13120570E+00 0.89849031E+03</pdfrwt>
<totfact> 0.11973637E+00</totfact>
</mgrwt>
</event>
<event>
 4    1  0.8749406E-009  0.6738201E+03  0.7818608E-02  0.9763081E-01
         -1   -1    0    0    0  501 -0.00000000000E+00  0.00000000000E+00  0.23742322716E+04  0.23742322716E+04  0.50400000000E-02 0.  1.
          1   -1    0    0  501    0  0.00000000000E+00 -0.00000000000E+00 -0.11885832459E+04  0.11885832459E+04  0.50400000000E-02 0. -1.
    8880022    1    1    2    0    0 -0.16734572969E+03  0.63453709085E+03  0.22246443300E+04  0.23244517549E+04  0.15294330000E+03 0.  0.
    8880022    1    1    2    0    0  0.16734572969E+03 -0.63453709085E+03 -0.10389953043E+04  0.12383637625E+04  0.15294330000E+03 0.  0.
<mgrwt>
<rscale>  0 0.67382013E+03</rscale>
<asrwt>0</asrwt>
<pdfrwt beam="1">  1        1 0.18285896E+00 0.67382013E+03</pdfrwt>
<pdfrwt beam="2">  1       -1 0.36526650E+00 0.67382013E+03</pdfrwt>
<totfact> 0.14765652E-01</totfact>
</mgrwt>
</event>
<event>
 4    1  0.8749406E-009  0.1055089E+04  0.7818608E-02  0.9250106E-01
         -1   -1    0    0    0  501 -0.00000000000E+00  0.00000000000E+00  0.19482938209E+04  0.19482938209E+04  0.50400000000E-02 0.  1.
          1   -1    0    0  501    0  0.00000000000E+00 -0.00000000000E+00 -0.12930447148E+04  0.12930447148E+04  0.50400000000E-02 0. -1.
    8880022    1    1    2    0    0 -0.92823044999E+03  0.47771205068E+03  0.15383786934E+04  0.18654278944E+04  0.15294330000E+03 0.  0.
    8880022    1    1    2    0    0  0.92823044999E+03 -0.47771205068E+03 -0.88312958738E+03  0.13759106413E+04  0.15294330000E+03 0.  0.
<mgrwt>
<rscale>  0 0.10550887E+04</rscale>
<asrwt>0</asrwt>
<pdfrwt beam="1">  1        1 0.19892996E+00 0.10550887E+04</pdfrwt>
<pdfrwt beam="2">  1       -1 0.29973751E+00 0.10550887E+04</pdfrwt>
<totfact> 0.30518936E-01</totfact>
</mgrwt>
</event>
<event>
 4    1  0.8749406E-009  0.6847371E+03  0.7818608E-02  0.9743696E-01
          1   -1    0    0  501    0  0.00000000000E+00  0.00000000000E+00  0.21974548064E+04  0.21974548064E+04  0.50400000000E-02 0. -1.
         -1   -1    0    0    0  501 -0.00000000000E+00 -0.00000000000E+00 -0.40681348345E+03  0.40681348348E+03  0.50400000000E-02 0.  1.
    8880022    1    1    2    0    0 -0.16174259918E+03  0.64754352366E+03 -0.26004295510E+01  0.68474206726E+03  0.15294330000E+03 0.  0.
    8880022    1    1    2    0    0  0.16174259918E+03 -0.64754352366E+03  0.17932417525E+04  0.19195262226E+04  0.15294330000E+03 0.  0.
<mgrwt>
<rscale>  0 0.68473713E+03</rscale>
<asrwt>0</asrwt>
<pdfrwt beam="1">  1        1 0.33806996E+00 0.68473713E+03</pdfrwt>
<pdfrwt beam="2">  1       -1 0.62586691E-01 0.68473713E+03</pdfrwt>
<totfact> 0.60309582E+00</totfact>
</mgrwt>
</event>
<event>
 4    1  0.8749406E-009  0.5181359E+03  0.7818608E-02  0.1009151E+00
          1   -1    0    0  501    0  0.00000000000E+00  0.00000000000E+00  0.11782543049E+04  0.11782543049E+04  0.50400000000E-02 0. -1.
         -1   -1    0    0    0  501 -0.00000000000E+00 -0.00000000000E+00 -0.18429599866E+04  0.18429599866E+04  0.50400000000E-02 0.  1.
    8880022    1    1    2    0    0 -0.48083129120E+03  0.11778954821E+03  0.10817945870E+04  0.11994766733E+04  0.15294330000E+03 0.  0.
    8880022    1    1    2    0    0  0.48083129120E+03 -0.11778954821E+03 -0.17465002687E+04  0.18217376183E+04  0.15294330000E+03 0.  0.
<mgrwt>
<rscale>  0 0.51813585E+03</rscale>
<asrwt>0</asrwt>
<pdfrwt beam="1">  1        1 0.18126989E+00 0.51813585E+03</pdfrwt>
<pdfrwt beam="2">  1       -1 0.28353231E+00 0.51813585E+03</pdfrwt>
<totfact> 0.52907099E-01</totfact>
</mgrwt>
</event>
<event>
 4    1  0.8749406E-009  0.8948140E+03  0.7818608E-02  0.9432087E-01
         -1   -1    0    0    0  501 -0.00000000000E+00  0.00000000000E+00  0.88400452381E+03  0.88400452383E+03  0.50400000000E-02 0.  1.
          1   -1    0    0  501    0  0.00000000000E+00 -0.00000000000E+00 -0.28630749577E+04  0.28630749577E+04  0.50400000000E-02 0. -1.
    8880022    1    1    2    0    0 -0.20371443345E+03 -0.85778838382E+03  0.55955740379E+03  0.10553656347E+04  0.15294330000E+03 0.  0.
    8880022    1    1    2    0    0  0.20371443345E+03  0.85778838382E+03 -0.25386278377E+04  0.26917138468E+04  0.15294330000E+03 0.  0.
<mgrwt>
<rscale>  0 0.89481402E+03</rscale>
<asrwt>0</asrwt>
<pdfrwt beam="1">  1        1 0.44047306E+00 0.89481402E+03</pdfrwt>
<pdfrwt beam="2">  1       -1 0.13600070E+00 0.89481402E+03</pdfrwt>
<totfact> 0.35510974E-01</totfact>
</mgrwt>
</event>
<event>
 4    1  0.8749406E-009  0.6351911E+03  0.7818608E-02  0.9834971E-01
         -1   -1    0    0    0  501 -0.00000000000E+00  0.00000000000E+00  0.12333824861E+04  0.12333824862E+04  0.50400000000E-02 0.  1.
          1   -1    0    0  501    0  0.00000000000E+00 -0.00000000000E+00 -0.84977447550E+03  0.84977447552E+03  0.50400000000E-02 0. -1.
    8880022    1    1    2    0    0 -0.24812957577E+03  0.56436499544E+03 -0.62505338997E+03  0.89115628695E+03  0.15294330000E+03 0.  0.
    8880022    1    1    2    0    0  0.24812957577E+03 -0.56436499544E+03  0.10086614006E+04  0.11920006747E+04  0.15294330000E+03 0.  0.
<mgrwt>
<rscale>  0 0.63519114E+03</rscale>
<asrwt>0</asrwt>
<pdfrwt beam="1">  1        1 0.13073453E+00 0.63519114E+03</pdfrwt>
<pdfrwt beam="2">  1       -1 0.18975115E+00 0.63519114E+03</pdfrwt>
<totfact> 0.37660003E+00</totfact>
</mgrwt>
</event>
<event>
 4    1  0.8749406E-009  0.5836297E+03  0.7818608E-02  0.9939963E-01
          1   -1    0    0  501    0  0.00000000000E+00  0.00000000000E+00  0.20336327288E+04  0.20336327288E+04  0.50400000000E-02 0. -1.
         -1   -1    0    0    0  501 -0.00000000000E+00 -0.00000000000E+00 -0.24369618165E+03  0.24369618170E+03  0.50400000000E-02 0.  1.
    8880022    1    1    2    0    0 -0.47816678795E+03  0.29763828911E+03  0.25824351136E+03  0.63821108767E+03  0.15294330000E+03 0.  0.
    8880022    1    1    2    0    0  0.47816678795E+03 -0.29763828911E+03  0.15316930358E+04  0.16391178229E+04  0.15294330000E+03 0. -1.
<mgrwt>
<rscale>  0 0.58362975E+03</rscale>
<asrwt>0</asrwt>
<pdfrwt beam="1">  1        1 0.31286657E+00 0.58362975E+03</pdfrwt>
<pdfrwt beam="2">  1       -1 0.37491720E-01 0.58362975E+03</pdfrwt>
<totfact> 0.20720597E+01</totfact>
</mgrwt>
</event>
<event>
 4    1  0.8749406E-009  0.1066879E+04  0.7818608E-02  0.9238089E-01
         -1   -1    0    0    0  501 -0.00000000000E+00  0.00000000000E+00  0.20724933445E+04  0.20724933445E+04  0.50400000000E-02 0.  1.
          1   -1    0    0  501    0  0.00000000000E+00 -0.00000000000E+00 -0.13811191039E+04  0.13811191039E+04  0.50400000000E-02 0. -1.
    8880022    1    1    2    0    0  0.84964890796E+03  0.62684581897E+03 -0.99450300767E+03  0.14585152837E+04  0.15294330000E+03 0. -1.
    8880022    1    1    2    0    0 -0.84964890796E+03 -0.62684581897E+03  0.16858772482E+04  0.19950971647E+04  0.15294330000E+03 0.  0.
<mgrwt>
<rscale>  0 0.10668789E+04</rscale>
<asrwt>0</asrwt>
<pdfrwt beam="1">  1        1 0.21247986E+00 0.10668789E+04</pdfrwt>
<pdfrwt beam="2">  1       -1 0.31884513E+00 0.10668789E+04</pdfrwt>
<totfact> 0.19858090E-01</totfact>
</mgrwt>
</event>
<event>
 4    1  0.8749406E-009  0.8060846E+03  0.7818608E-02  0.9551251E-01
          1   -1    0    0  501    0  0.00000000000E+00  0.00000000000E+00  0.22378053525E+04  0.22378053525E+04  0.50400000000E-02 0. -1.
         -1   -1    0    0    0  501 -0.00000000000E+00 -0.00000000000E+00 -0.39148497486E+03  0.39148497489E+03  0.50400000000E-02 0.  1.
    8880022    1    1    2    0    0  0.61645400507E+02 -0.78903779503E+03  0.25500544400E+03  0.84545858969E+03  0.15294330000E+03 0.  0.
    8880022    1    1    2    0    0 -0.61645400507E+02  0.78903779503E+03  0.15913149336E+04  0.17838317377E+04  0.15294330000E+03 0.  0.
<mgrwt>
<rscale>  0 0.80608464E+03</rscale>
<asrwt>0</asrwt>
<pdfrwt beam="1">  1        1 0.34427775E+00 0.80608464E+03</pdfrwt>
<pdfrwt beam="2">  1       -1 0.60228458E-01 0.80608464E+03</pdfrwt>
<totfact> 0.59859407E+00</totfact>
</mgrwt>
</event>
<event>
 4    1  0.8749406E-009  0.4423151E+03  0.7818608E-02  0.1030039E+00
          1   -1    0    0  501    0  0.00000000000E+00  0.00000000000E+00  0.14158821774E+04  0.14158821774E+04  0.50400000000E-02 0. -1.
         -1   -1    0    0    0  501 -0.00000000000E+00 -0.00000000000E+00 -0.34417444219E+03  0.34417444223E+03  0.50400000000E-02 0.  1.
    8880022    1    1    2    0    0 -0.55682501555E+02 -0.41127900020E+03 -0.14497514805E+03  0.46546794041E+03  0.15294330000E+03 0.  0.
    8880022    1    1    2    0    0  0.55682501555E+02  0.41127900020E+03  0.12166828832E+04  0.12945886792E+04  0.15294330000E+03 0.  0.
<mgrwt>
<rscale>  0 0.44231506E+03</rscale>
<asrwt>0</asrwt>
<pdfrwt beam="1">  1        1 0.21782803E+00 0.44231506E+03</pdfrwt>
<pdfrwt beam="2">  1       -1 0.52949913E-01 0.44231506E+03</pdfrwt>
<totfact> 0.29166843E+01</totfact>
</mgrwt>
</event>
<event>
 4    1  0.8749406E-009  0.3557348E+03  0.7818608E-02  0.1060286E+00
         -1   -1    0    0    0  501 -0.00000000000E+00  0.00000000000E+00  0.65484556194E+03  0.65484556196E+03  0.50400000000E-02 0.  1.
          1   -1    0    0  501    0  0.00000000000E+00 -0.00000000000E+00 -0.28776181069E+03  0.28776181074E+03  0.50400000000E-02 0. -1.
    8880022    1    1    2    0    0  0.94759418849E+02  0.30688151713E+03 -0.86563389283E+02  0.36611540038E+03  0.15294330000E+03 0.  0.
    8880022    1    1    2    0    0 -0.94759418849E+02 -0.30688151713E+03  0.45364714054E+03  0.57649197232E+03  0.15294330000E+03 0.  0.
<mgrwt>
<rscale>  0 0.35573483E+03</rscale>
<asrwt>0</asrwt>
<pdfrwt beam="1">  1        1 0.44271048E-01 0.35573483E+03</pdfrwt>
<pdfrwt beam="2">  1       -1 0.10074547E+00 0.35573483E+03</pdfrwt>
<totfact> 0.91361287E+01</totfact>
</mgrwt>
</event>
<event>
 4    1  0.8749406E-009  0.1366957E+04  0.7818608E-02  0.8978090E-01
         -1   -1    0    0    0  501 -0.00000000000E+00  0.00000000000E+00  0.19351233586E+04  0.19351233586E+04  0.50400000000E-02 0.  1.
          1   -1    0    0  501    0  0.00000000000E+00 -0.00000000000E+00 -0.22222700485E+04  0.22222700485E+04  0.50400000000E-02 0. -1.
    8880022    1    1    2    0    0  0.13501920315E+04  0.14886798776E+03 -0.17067276405E+04  0.21866620890E+04  0.15294330000E+03 0.  0.
    8880022    1    1    2    0    0 -0.13501920315E+04 -0.14886798776E+03  0.14195809506E+04  0.19707313181E+04  0.15294330000E+03 0.  0.
<mgrwt>
<rscale>  0 0.13669572E+04</rscale>
<asrwt>0</asrwt>
<pdfrwt beam="1">  1        1 0.34188770E+00 0.13669572E+04</pdfrwt>
<pdfrwt beam="2">  1       -1 0.29771128E+00 0.13669572E+04</pdfrwt>
<totfact> 0.69097247E-02</totfact>
</mgrwt>
</event>
<event>
 4    1  0.8749406E-009  0.9815403E+03  0.7818608E-02  0.9329026E-01
         -1   -1    0    0    0  501 -0.00000000000E+00  0.00000000000E+00  0.44750449567E+03  0.44750449570E+03  0.50400000000E-02 0.  1.
          1   -1    0    0  501    0  0.00000000000E+00 -0.00000000000E+00 -0.25625613492E+04  0.25625613492E+04  0.50400000000E-02 0. -1.
    8880022    1    1    2    0    0  0.25676439301E+02 -0.96921121590E+03 -0.45575289485E+03  0.10821885301E+04  0.15294330000E+03 0.  0.
    8880022    1    1    2    0    0 -0.25676439301E+02  0.96921121590E+03 -0.16593039587E+04  0.19278773148E+04  0.15294330000E+03 0.  0.
<mgrwt>
<rscale>  0 0.98154028E+03</rscale>
<asrwt>0</asrwt>
<pdfrwt beam="1">  1        1 0.39424020E+00 0.98154028E+03</pdfrwt>
<pdfrwt beam="2">  1       -1 0.68846847E-01 0.98154028E+03</pdfrwt>
<totfact> 0.26755833E+00</totfact>
</mgrwt>
</event>
<event>
 4    1  0.8749406E-009  0.9308981E+03  0.7818608E-02  0.9387761E-01
          1   -1    0    0  501    0  0.00000000000E+00  0.00000000000E+00  0.96505135508E+03  0.96505135509E+03  0.50400000000E-02 0. -1.
         -1   -1    0    0    0  501 -0.00000000000E+00 -0.00000000000E+00 -0.13328247289E+04  0.13328247289E+04  0.50400000000E-02 0.  1.
    8880022    1    1    2    0    0 -0.88567291444E+03 -0.24241111367E+03  0.47239515733E+03  0.10439006165E+04  0.15294330000E+03 0.  0.
    8880022    1    1    2    0    0  0.88567291444E+03  0.24241111367E+03 -0.84016853118E+03  0.12539754675E+04  0.15294330000E+03 0.  0.
<mgrwt>
<rscale>  0 0.93089812E+03</rscale>
<asrwt>0</asrwt>
<pdfrwt beam="1">  1        1 0.14846944E+00 0.93089812E+03</pdfrwt>
<pdfrwt beam="2">  1       -1 0.20504996E+00 0.93089812E+03</pdfrwt>
<totfact> 0.22711414E+00</totfact>
</mgrwt>
</event>
<event>
 4    1  0.8749406E-009  0.1083717E+04  0.7818608E-02  0.9221209E-01
          1   -1    0    0  501    0  0.00000000000E+00  0.00000000000E+00  0.21046961687E+04  0.21046961687E+04  0.50400000000E-02 0. -1.
         -1   -1    0    0    0  501 -0.00000000000E+00 -0.00000000000E+00 -0.65458929579E+03  0.65458929581E+03  0.50400000000E-02 0.  1.
    8880022    1    1    2    0    0 -0.75813468953E+03  0.75913271749E+03  0.12549893030E+04  0.16581436892E+04  0.15294330000E+03 0.  0.
    8880022    1    1    2    0    0  0.75813468953E+03 -0.75913271749E+03  0.19511756983E+03  0.11011417753E+04  0.15294330000E+03 0.  0.
<mgrwt>
<rscale>  0 0.10837169E+04</rscale>
<asrwt>0</asrwt>
<pdfrwt beam="1">  1        1 0.32379942E+00 0.10837169E+04</pdfrwt>
<pdfrwt beam="2">  1       -1 0.10070604E+00 0.10837169E+04</pdfrwt>
<totfact> 0.23750558E+00</totfact>
</mgrwt>
</event>
<event>
 4    1  0.8749406E-009  0.8732131E+03  0.7818608E-02  0.9459700E-01
          1   -1    0    0  501    0  0.00000000000E+00  0.00000000000E+00  0.17556349548E+04  0.17556349548E+04  0.50400000000E-02 0. -1.
         -1   -1    0    0    0  501 -0.00000000000E+00 -0.00000000000E+00 -0.52131732991E+03  0.52131732993E+03  0.50400000000E-02 0.  1.
    8880022    1    1    2    0    0  0.25428756593E+03 -0.82124735993E+03  0.15207115797E+03  0.88635584416E+03  0.15294330000E+03 0.  0.
    8880022    1    1    2    0    0 -0.25428756593E+03  0.82124735993E+03  0.10822464669E+04  0.13905964406E+04  0.15294330000E+03 0.  0.
<mgrwt>
<rscale>  0 0.87321306E+03</rscale>
<asrwt>0</asrwt>
<pdfrwt beam="1">  1        1 0.27009769E+00 0.87321306E+03</pdfrwt>
<pdfrwt beam="2">  1       -1 0.80202666E-01 0.87321306E+03</pdfrwt>
<totfact> 0.69446876E+00</totfact>
</mgrwt>
</event>
<event>
 4    1  0.8749406E-009  0.1293128E+04  0.7818608E-02  0.9035033E-01
          1   -1    0    0  501    0  0.00000000000E+00  0.00000000000E+00  0.15658779810E+04  0.15658779810E+04  0.50400000000E-02 0. -1.
         -1   -1    0    0    0  501 -0.00000000000E+00 -0.00000000000E+00 -0.19980836936E+04  0.19980836936E+04  0.50400000000E-02 0.  1.
    8880022    1    1    2    0    0 -0.83704840900E+03 -0.97372335902E+03 -0.14319636818E+04  0.19294296717E+04  0.15294330000E+03 0.  0.
    8880022    1    1    2    0    0  0.83704840900E+03  0.97372335902E+03  0.99975796920E+03  0.16345320030E+04  0.15294330000E+03 0.  0.
<mgrwt>
<rscale>  0 0.12931276E+04</rscale>
<asrwt>0</asrwt>
<pdfrwt beam="1">  1        1 0.24090431E+00 0.12931276E+04</pdfrwt>
<pdfrwt beam="2">  1       -1 0.30739749E+00 0.12931276E+04</pdfrwt>
<totfact> 0.16914306E-01</totfact>
</mgrwt>
</event>
<event>
 4    1  0.8749406E-009  0.1439018E+04  0.7818608E-02  0.8926050E-01
         -1   -1    0    0    0  501 -0.00000000000E+00  0.00000000000E+00  0.84142604272E+03  0.84142604273E+03  0.50400000000E-02 0.  1.
          1   -1    0    0  501    0  0.00000000000E+00 -0.00000000000E+00 -0.26993533427E+04  0.26993533427E+04  0.50400000000E-02 0. -1.
    8880022    1    1    2    0    0  0.38969882081E+02  0.14303364154E+04 -0.14550107640E+04  0.20464185519E+04  0.15294330000E+03 0.  0.
    8880022    1    1    2    0    0 -0.38969882081E+02 -0.14303364154E+04 -0.40291653599E+03  0.14943608336E+04  0.15294330000E+03 0.  0.
<mgrwt>
<rscale>  0 0.14390179E+04</rscale>
<asrwt>0</asrwt>
<pdfrwt beam="1">  1        1 0.41528512E+00 0.14390179E+04</pdfrwt>
<pdfrwt beam="2">  1       -1 0.12945016E+00 0.14390179E+04</pdfrwt>
<totfact> 0.48338403E-01</totfact>
</mgrwt>
</event>
<event>
 4    1  0.8749406E-009  0.4101996E+03  0.7818608E-02  0.1040304E+00
          1   -1    0    0  501    0  0.00000000000E+00  0.00000000000E+00  0.86477333449E+03  0.86477333450E+03  0.50400000000E-02 0. -1.
         -1   -1    0    0    0  501 -0.00000000000E+00 -0.00000000000E+00 -0.77195746594E+03  0.77195746596E+03  0.50400000000E-02 0.  1.
    8880022    1    1    2    0    0  0.29109723862E+03  0.24522322651E+03 -0.66134583147E+03  0.77823003988E+03  0.15294330000E+03 0.  0.
    8880022    1    1    2    0    0 -0.29109723862E+03 -0.24522322651E+03  0.75416170001E+03  0.85850076059E+03  0.15294330000E+03 0.  0.
<mgrwt>
<rscale>  0 0.41019957E+03</rscale>
<asrwt>0</asrwt>
<pdfrwt beam="1">  1        1 0.13304205E+00 0.41019957E+03</pdfrwt>
<pdfrwt beam="2">  1       -1 0.11876269E+00 0.41019957E+03</pdfrwt>
<totfact> 0.13505094E+01</totfact>
</mgrwt>
</event>
<event>
 4    1  0.8749406E-009  0.7418595E+03  0.7818608E-02  0.9648209E-01
          1   -1    0    0  501    0  0.00000000000E+00  0.00000000000E+00  0.86330880197E+03  0.86330880198E+03  0.50400000000E-02 0. -1.
         -1   -1    0    0    0  501 -0.00000000000E+00 -0.00000000000E+00 -0.16900897789E+04  0.16900897789E+04  0.50400000000E-02 0.  1.
    8880022    1    1    2    0    0 -0.71421163242E+03 -0.12986785349E+03  0.59415394977E+03  0.95046014346E+03  0.15294330000E+03 0.  0.
    8880022    1    1    2    0    0  0.71421163242E+03  0.12986785349E+03 -0.14209349267E+04  0.16029384375E+04  0.15294330000E+03 0.  0.
<mgrwt>
<rscale>  0 0.74185953E+03</rscale>
<asrwt>0</asrwt>
<pdfrwt beam="1">  1        1 0.13281674E+00 0.74185953E+03</pdfrwt>
<pdfrwt beam="2">  1       -1 0.26001381E+00 0.74185953E+03</pdfrwt>
<totfact> 0.12324359E+00</totfact>
</mgrwt>
</event>
<event>
 4    1  0.8749406E-009  0.1042464E+04  0.7818608E-02  0.9263160E-01
          1   -1    0    0  501    0  0.00000000000E+00  0.00000000000E+00  0.14840100401E+04  0.14840100401E+04  0.50400000000E-02 0. -1.
         -1   -1    0    0    0  501 -0.00000000000E+00 -0.00000000000E+00 -0.88320750992E+03  0.88320750993E+03  0.50400000000E-02 0.  1.
    8880022    1    1    2    0    0 -0.10301099371E+04  0.47036490785E+02 -0.18886121003E+03  0.10594333975E+04  0.15294330000E+03 0.  0.
    8880022    1    1    2    0    0  0.10301099371E+04 -0.47036490785E+02  0.78966374017E+03  0.13077841525E+04  0.15294330000E+03 0.  0.
<mgrwt>
<rscale>  0 0.10424637E+04</rscale>
<asrwt>0</asrwt>
<pdfrwt beam="1">  1        1 0.22830924E+00 0.10424637E+04</pdfrwt>
<pdfrwt beam="2">  1       -1 0.13587808E+00 0.10424637E+04</pdfrwt>
<totfact> 0.30396891E+00</totfact>
</mgrwt>
</event>
<event>
 4    1  0.8749406E-009  0.8251009E+03  0.7818608E-02  0.9524379E-01
          1   -1    0    0  501    0  0.00000000000E+00  0.00000000000E+00  0.20417026627E+04  0.20417026627E+04  0.50400000000E-02 0. -1.
         -1   -1    0    0    0  501 -0.00000000000E+00 -0.00000000000E+00 -0.55879500606E+03  0.55879500609E+03  0.50400000000E-02 0.  1.
    8880022    1    1    2    0    0 -0.61685026295E+03  0.52620871363E+03 -0.84262563311E+02  0.82939236179E+03  0.15294330000E+03 0.  0.
    8880022    1    1    2    0    0  0.61685026295E+03 -0.52620871363E+03  0.15671702200E+04  0.17711053070E+04  0.15294330000E+03 0.  0.
<mgrwt>
<rscale>  0 0.82510091E+03</rscale>
<asrwt>0</asrwt>
<pdfrwt beam="1">  1        1 0.31410810E+00 0.82510091E+03</pdfrwt>
<pdfrwt beam="2">  1       -1 0.85968463E-01 0.82510091E+03</pdfrwt>
<totfact> 0.38722786E+00</totfact>
</mgrwt>
</event>
<event>
 4    1  0.8749406E-009  0.1607531E+04  0.7818608E-02  0.8815935E-01
          1   -1    0    0  501    0  0.00000000000E+00  0.00000000000E+00  0.14067524055E+04  0.14067524055E+04  0.50400000000E-02 0. -1.
         -1   -1    0    0    0  501 -0.00000000000E+00 -0.00000000000E+00 -0.25924219277E+04  0.25924219277E+04  0.50400000000E-02 0.  1.
    8880022    1    1    2    0    0  0.59135251618E+03 -0.14869653771E+04 -0.16722591813E+04  0.23196133845E+04  0.15294330000E+03 0.  0.
    8880022    1    1    2    0    0 -0.59135251618E+03  0.14869653771E+04  0.48658965907E+03  0.16795609487E+04  0.15294330000E+03 0.  0.
<mgrwt>
<rscale>  0 0.16075309E+04</rscale>
<asrwt>0</asrwt>
<pdfrwt beam="1">  1        1 0.21642345E+00 0.16075309E+04</pdfrwt>
<pdfrwt beam="2">  1       -1 0.39883414E+00 0.16075309E+04</pdfrwt>
<totfact> 0.51766979E-02</totfact>
</mgrwt>
</event>
<event>
 4    1  0.8749406E-009  0.1502400E+04  0.7818608E-02  0.8882859E-01
          1   -1    0    0  501    0  0.00000000000E+00  0.00000000000E+00  0.31349949295E+04  0.31349949295E+04  0.50400000000E-02 0. -1.
         -1   -1    0    0    0  501 -0.00000000000E+00 -0.00000000000E+00 -0.13404120548E+04  0.13404120548E+04  0.50400000000E-02 0.  1.
    8880022    1    1    2    0    0 -0.10886355592E+04 -0.10240537061E+04  0.24196695177E+04  0.28481582824E+04  0.15294330000E+03 0.  0.
    8880022    1    1    2    0    0  0.10886355592E+04  0.10240537061E+04 -0.62508664295E+03  0.16272487019E+04  0.15294330000E+03 0.  0.
<mgrwt>
<rscale>  0 0.15023998E+04</rscale>
<asrwt>0</asrwt>
<pdfrwt beam="1">  1        1 0.48230691E+00 0.15023998E+04</pdfrwt>
<pdfrwt beam="2">  1       -1 0.20621724E+00 0.15023998E+04</pdfrwt>
<totfact> 0.61462836E-02</totfact>
</mgrwt>
</event>
<event>
 4    1  0.8749406E-009  0.7224897E+03  0.7818608E-02  0.9679526E-01
         -1   -1    0    0    0  501 -0.00000000000E+00  0.00000000000E+00  0.25081233264E+03  0.25081233269E+03  0.50400000000E-02 0.  1.
          1   -1    0    0  501    0  0.00000000000E+00 -0.00000000000E+00 -0.26414883664E+04  0.26414883664E+04  0.50400000000E-02 0. -1.
    8880022    1    1    2    0    0  0.18480624079E+03 -0.68150307221E+03 -0.18613677938E+04  0.19966675990E+04  0.15294330000E+03 0.  0.
    8880022    1    1    2    0    0 -0.18480624079E+03  0.68150307221E+03 -0.52930823995E+03  0.89563310008E+03  0.15294330000E+03 0.  0.
<mgrwt>
<rscale>  0 0.72248975E+03</rscale>
<asrwt>0</asrwt>
<pdfrwt beam="1">  1        1 0.40638281E+00 0.72248975E+03</pdfrwt>
<pdfrwt beam="2">  1       -1 0.38586514E-01 0.72248975E+03</pdfrwt>
<totfact> 0.74631137E+00</totfact>
</mgrwt>
</event>
<event>
 4    1  0.8749406E-009  0.6202080E+03  0.7818608E-02  0.9864346E-01
          1   -1    0    0  501    0  0.00000000000E+00  0.00000000000E+00  0.98258526631E+03  0.98258526632E+03  0.50400000000E-02 0. -1.
         -1   -1    0    0    0  501 -0.00000000000E+00 -0.00000000000E+00 -0.11269649357E+04  0.11269649357E+04  0.50400000000E-02 0.  1.
    8880022    1    1    2    0    0 -0.58239356707E+03 -0.14860691633E+03 -0.92429446244E+03  0.11130939713E+04  0.15294330000E+03 0.  0.
    8880022    1    1    2    0    0  0.58239356707E+03  0.14860691633E+03  0.77991479301E+03  0.99645623081E+03  0.15294330000E+03 0.  0.
<mgrwt>
<rscale>  0 0.62020798E+03</rscale>
<asrwt>0</asrwt>
<pdfrwt beam="1">  1        1 0.15116696E+00 0.62020798E+03</pdfrwt>
<pdfrwt beam="2">  1       -1 0.17337922E+00 0.62020798E+03</pdfrwt>
<totfact> 0.38581230E+00</totfact>
</mgrwt>
</event>
<event>
 4    1  0.8749406E-009  0.9715053E+03  0.7818608E-02  0.9340362E-01
          1   -1    0    0  501    0  0.00000000000E+00  0.00000000000E+00  0.39510858534E+04  0.39510858534E+04  0.50400000000E-02 0. -1.
         -1   -1    0    0    0  501 -0.00000000000E+00 -0.00000000000E+00 -0.10602994903E+04  0.10602994903E+04  0.50400000000E-02 0.  1.
    8880022    1    1    2    0    0 -0.70803531590E+02  0.95677462583E+03  0.36508415351E+04  0.37778917920E+04  0.15294330000E+03 0.  0.
    8880022    1    1    2    0    0  0.70803531590E+02 -0.95677462583E+03 -0.76005517192E+03  0.12334935517E+04  0.15294330000E+03 0.  0.
<mgrwt>
<rscale>  0 0.97150526E+03</rscale>
<asrwt>0</asrwt>
<pdfrwt beam="1">  1        1 0.60785936E+00 0.97150526E+03</pdfrwt>
<pdfrwt beam="2">  1       -1 0.16312300E+00 0.97150526E+03</pdfrwt>
<totfact> 0.31071360E-02</totfact>
</mgrwt>
</event>
<event>
 4    1  0.8749406E-009  0.5974145E+03  0.7818608E-02  0.9910785E-01
         -1   -1    0    0    0  501 -0.00000000000E+00  0.00000000000E+00  0.41248429420E+03  0.41248429423E+03  0.50400000000E-02 0.  1.
          1   -1    0    0  501    0  0.00000000000E+00 -0.00000000000E+00 -0.17880242867E+04  0.17880242867E+04  0.50400000000E-02 0. -1.
    8880022    1    1    2    0    0 -0.13316783225E+03 -0.56194195647E+03 -0.14781809239E+04  0.15943409079E+04  0.15294330000E+03 0.  0.
    8880022    1    1    2    0    0  0.13316783225E+03  0.56194195647E+03  0.10264093137E+03  0.60616767300E+03  0.15294330000E+03 0.  0.
<mgrwt>
<rscale>  0 0.59741450E+03</rscale>
<asrwt>0</asrwt>
<pdfrwt beam="1">  1        1 0.27508066E+00 0.59741450E+03</pdfrwt>
<pdfrwt beam="2">  1       -1 0.63459123E-01 0.59741450E+03</pdfrwt>
<totfact> 0.11183184E+01</totfact>
</mgrwt>
</event>
<event>
 4    1  0.8749406E-009  0.1152759E+04  0.7818608E-02  0.9155242E-01
          1   -1    0    0  501    0  0.00000000000E+00  0.00000000000E+00  0.10774117466E+04  0.10774117466E+04  0.50400000000E-02 0. -1.
         -1   -1    0    0    0  501 -0.00000000000E+00 -0.00000000000E+00 -0.13651766442E+04  0.13651766442E+04  0.50400000000E-02 0.  1.
    8880022    1    1    2    0    0 -0.60796464539E+03 -0.96738872097E+03  0.23559408500E+03  0.11765875120E+04  0.15294330000E+03 0.  0.
    8880022    1    1    2    0    0  0.60796464539E+03  0.96738872097E+03 -0.52335898264E+03  0.12660008788E+04  0.15294330000E+03 0.  0.
<mgrwt>
<rscale>  0 0.11527591E+04</rscale>
<asrwt>0</asrwt>
<pdfrwt beam="1">  1        1 0.16575565E+00 0.11527591E+04</pdfrwt>
<pdfrwt beam="2">  1       -1 0.21002718E+00 0.11527591E+04</pdfrwt>
<totfact> 0.16710285E+00</totfact>
</mgrwt>
</event>
<event>
 4    1  0.8749406E-009  0.4618735E+03  0.7818608E-02  0.1024239E+00
         -1   -1    0    0    0  501 -0.00000000000E+00  0.00000000000E+00  0.23559542848E+04  0.23559542848E+04  0.50400000000E-02 0.  1.
          1   -1    0    0  501    0  0.00000000000E+00 -0.00000000000E+00 -0.18130026379E+04  0.18130026379E+04  0.50400000000E-02 0. -1.
    8880022    1    1    2    0    0  0.27215625497E+03 -0.34039158284E+03 -0.17602826609E+04  0.18198687195E+04  0.15294330000E+03 0.  0.
    8880022    1    1    2    0    0 -0.27215625497E+03  0.34039158284E+03  0.23032343078E+04  0.23490882032E+04  0.15294330000E+03 0.  1.
<mgrwt>
<rscale>  0 0.46187348E+03</rscale>
<asrwt>0</asrwt>
<pdfrwt beam="1">  1        1 0.27892348E+00 0.46187348E+03</pdfrwt>
<pdfrwt beam="2">  1       -1 0.36245451E+00 0.46187348E+03</pdfrwt>
<totfact> 0.62438021E-02</totfact>
</mgrwt>
</event>
<event>
 4    1  0.8749406E-009  0.5895120E+03  0.7818608E-02  0.9927407E-01
         -1   -1    0    0    0  501 -0.00000000000E+00  0.00000000000E+00  0.11472801363E+04  0.11472801363E+04  0.50400000000E-02 0.  1.
          1   -1    0    0  501    0  0.00000000000E+00 -0.00000000000E+00 -0.16350744083E+04  0.16350744083E+04  0.50400000000E-02 0. -1.
    8880022    1    1    2    0    0 -0.49311286858E+03  0.28455650060E+03  0.10118216189E+04  0.11710283279E+04  0.15294330000E+03 0.  0.
    8880022    1    1    2    0    0  0.49311286858E+03 -0.28455650060E+03 -0.14996158910E+04  0.16113262167E+04  0.15294330000E+03 0.  0.
<mgrwt>
<rscale>  0 0.58951196E+03</rscale>
<asrwt>0</asrwt>
<pdfrwt beam="1">  1        1 0.25154991E+00 0.58951196E+03</pdfrwt>
<pdfrwt beam="2">  1       -1 0.17650464E+00 0.58951196E+03</pdfrwt>
<totfact> 0.12719298E+00</totfact>
</mgrwt>
</event>
<event>
 4    1  0.8749406E-009  0.7176196E+03  0.7818608E-02  0.9687566E-01
          1   -1    0    0  501    0  0.00000000000E+00  0.00000000000E+00  0.43151614603E+03  0.43151614606E+03  0.50400000000E-02 0. -1.
         -1   -1    0    0    0  501 -0.00000000000E+00 -0.00000000000E+00 -0.13492385074E+04  0.13492385074E+04  0.50400000000E-02 0.  1.
    8880022    1    1    2    0    0 -0.19108617206E+02  0.70087168936E+03 -0.76144518888E+03  0.10463157711E+04  0.15294330000E+03 0.  0.
    8880022    1    1    2    0    0  0.19108617206E+02 -0.70087168936E+03 -0.15627717245E+03  0.73443888231E+03  0.15294330000E+03 0.  0.
<mgrwt>
<rscale>  0 0.71761962E+03</rscale>
<asrwt>0</asrwt>
<pdfrwt beam="1">  1        1 0.66387100E-01 0.71761962E+03</pdfrwt>
<pdfrwt beam="2">  1       -1 0.20757515E+00 0.71761962E+03</pdfrwt>
<totfact> 0.75132368E+00</totfact>
</mgrwt>
</event>
<event>
 4    1  0.8749406E-009  0.9745819E+03  0.7818608E-02  0.9336871E-01
         -1   -1    0    0    0  501 -0.00000000000E+00  0.00000000000E+00  0.17320253076E+04  0.17320253076E+04  0.50400000000E-02 0.  1.
          1   -1    0    0  501    0  0.00000000000E+00 -0.00000000000E+00 -0.15253400483E+04  0.15253400484E+04  0.50400000000E-02 0. -1.
    8880022    1    1    2    0    0  0.18542359806E+03 -0.94447669908E+03  0.14067834476E+04  0.17113881697E+04  0.15294330000E+03 0.  0.
    8880022    1    1    2    0    0 -0.18542359806E+03  0.94447669908E+03 -0.12000981883E+04  0.15459771863E+04  0.15294330000E+03 0.  0.
<mgrwt>
<rscale>  0 0.97458186E+03</rscale>
<asrwt>0</asrwt>
<pdfrwt beam="1">  1        1 0.23466770E+00 0.97458186E+03</pdfrwt>
<pdfrwt beam="2">  1       -1 0.26646543E+00 0.97458186E+03</pdfrwt>
<totfact> 0.34829218E-01</totfact>
</mgrwt>
</event>
<event>
 4    1  0.8749406E-009  0.1129334E+04  0.7818608E-02  0.9177063E-01
          1   -1    0    0  501    0  0.00000000000E+00  0.00000000000E+00  0.10044975342E+04  0.10044975342E+04  0.50400000000E-02 0. -1.
         -1   -1    0    0    0  501 -0.00000000000E+00 -0.00000000000E+00 -0.19075176628E+04  0.19075176628E+04  0.50400000000E-02 0.  1.
    8880022    1    1    2    0    0  0.41643045553E+03  0.10385516356E+04  0.39043300535E+03  0.11949198336E+04  0.15294330000E+03 0.  0.
    8880022    1    1    2    0    0 -0.41643045553E+03 -0.10385516356E+04 -0.12934531339E+04  0.17170953633E+04  0.15294330000E+03 0.  0.
<mgrwt>
<rscale>  0 0.11293341E+04</rscale>
<asrwt>0</asrwt>
<pdfrwt beam="1">  1        1 0.15453808E+00 0.11293341E+04</pdfrwt>
<pdfrwt beam="2">  1       -1 0.29346426E+00 0.11293341E+04</pdfrwt>
<totfact> 0.54327538E-01</totfact>
</mgrwt>
</event>
<event>
 4    1  0.8749406E-009  0.9650012E+03  0.7818608E-02  0.9347786E-01
         -1   -1    0    0    0  501 -0.00000000000E+00  0.00000000000E+00  0.46234382926E+03  0.46234382929E+03  0.50400000000E-02 0.  1.
          1   -1    0    0  501    0  0.00000000000E+00 -0.00000000000E+00 -0.34116472976E+04  0.34116472976E+04  0.50400000000E-02 0. -1.
    8880022    1    1    2    0    0 -0.50074372178E+03  0.81061177114E+03 -0.27143696435E+04  0.28808036957E+04  0.15294330000E+03 0.  0.
    8880022    1    1    2    0    0  0.50074372178E+03 -0.81061177114E+03 -0.23493382480E+03  0.99318743118E+03  0.15294330000E+03 0.  0.
<mgrwt>
<rscale>  0 0.96500123E+03</rscale>
<asrwt>0</asrwt>
<pdfrwt beam="1">  1        1 0.52486880E+00 0.96500123E+03</pdfrwt>
<pdfrwt beam="2">  1       -1 0.71129822E-01 0.96500123E+03</pdfrwt>
<totfact> 0.61082619E-01</totfact>
</mgrwt>
</event>
<event>
 4    1  0.8749406E-009  0.7092580E+03  0.7818608E-02  0.9701530E-01
         -1   -1    0    0    0  501 -0.00000000000E+00  0.00000000000E+00  0.85003652737E+03  0.85003652739E+03  0.50400000000E-02 0.  1.
          1   -1    0    0  501    0  0.00000000000E+00 -0.00000000000E+00 -0.73406473272E+03  0.73406473274E+03  0.50400000000E-02 0. -1.
    8880022    1    1    2    0    0 -0.84449389009E+02 -0.68740345716E+03  0.40667865113E+03  0.81757836965E+03  0.15294330000E+03 0.  0.
    8880022    1    1    2    0    0  0.84449389009E+02  0.68740345716E+03 -0.29070685648E+03  0.76652289048E+03  0.15294330000E+03 0.  0.
<mgrwt>
<rscale>  0 0.70925797E+03</rscale>
<asrwt>0</asrwt>
<pdfrwt beam="1">  1        1 0.11293304E+00 0.70925797E+03</pdfrwt>
<pdfrwt beam="2">  1       -1 0.13077485E+00 0.70925797E+03</pdfrwt>
<totfact> 0.13090923E+01</totfact>
</mgrwt>
</event>
<event>
 4    1  0.8749406E-009  0.5380731E+03  0.7818608E-02  0.1004293E+00
         -1   -1    0    0    0  501 -0.00000000000E+00  0.00000000000E+00  0.58126129967E+03  0.58126129969E+03  0.50400000000E-02 0.  1.
          1   -1    0    0  501    0  0.00000000000E+00 -0.00000000000E+00 -0.33669325429E+04  0.33669325429E+04  0.50400000000E-02 0. -1.
    8880022    1    1    2    0    0 -0.71428562865E+02  0.51090997356E+03 -0.32150703803E+04  0.32597853065E+04  0.15294330000E+03 0.  0.
    8880022    1    1    2    0    0  0.71428562865E+02 -0.51090997356E+03  0.42939913710E+03  0.68840853614E+03  0.15294330000E+03 0.  1.
<mgrwt>
<rscale>  0 0.53807313E+03</rscale>
<asrwt>0</asrwt>
<pdfrwt beam="1">  1        1 0.51798961E+00 0.53807313E+03</pdfrwt>
<pdfrwt beam="2">  1       -1 0.89424817E-01 0.53807313E+03</pdfrwt>
<totfact> 0.45242811E-01</totfact>
</mgrwt>
</event>
<event>
 4    1  0.8749406E-009  0.4619027E+03  0.7818608E-02  0.1024231E+00
         -1   -1    0    0    0  501 -0.00000000000E+00  0.00000000000E+00  0.33636764916E+03  0.33636764920E+03  0.50400000000E-02 0.  1.
          1   -1    0    0  501    0  0.00000000000E+00 -0.00000000000E+00 -0.12375733202E+04  0.12375733202E+04  0.50400000000E-02 0. -1.
    8880022    1    1    2    0    0  0.42451729837E+03  0.98729506429E+02 -0.10000604581E+04  0.11015784243E+04  0.15294330000E+03 0.  0.
    8880022    1    1    2    0    0 -0.42451729837E+03 -0.98729506429E+02  0.98854787060E+02  0.47236254508E+03  0.15294330000E+03 0.  0.
<mgrwt>
<rscale>  0 0.46190270E+03</rscale>
<asrwt>0</asrwt>
<pdfrwt beam="1">  1        1 0.19039589E+00 0.46190270E+03</pdfrwt>
<pdfrwt beam="2">  1       -1 0.51748870E-01 0.46190270E+03</pdfrwt>
<totfact> 0.40337981E+01</totfact>
</mgrwt>
</event>
<event>
 4    1  0.8749406E-009  0.7481315E+03  0.7818608E-02  0.9638286E-01
          1   -1    0    0  501    0  0.00000000000E+00  0.00000000000E+00  0.16407053646E+04  0.16407053646E+04  0.50400000000E-02 0. -1.
         -1   -1    0    0    0  501 -0.00000000000E+00 -0.00000000000E+00 -0.50387583151E+03  0.50387583154E+03  0.50400000000E-02 0.  1.
    8880022    1    1    2    0    0  0.33251118480E+03  0.65249173900E+03  0.11778113104E+04  0.13953280236E+04  0.15294330000E+03 0.  0.
    8880022    1    1    2    0    0 -0.33251118480E+03 -0.65249173900E+03 -0.40981777328E+02  0.74925317254E+03  0.15294330000E+03 0.  0.
<mgrwt>
<rscale>  0 0.74813155E+03</rscale>
<asrwt>0</asrwt>
<pdfrwt beam="1">  1        1 0.25241621E+00 0.74813155E+03</pdfrwt>
<pdfrwt beam="2">  1       -1 0.77519358E-01 0.74813155E+03</pdfrwt>
<totfact> 0.90869079E+00</totfact>
</mgrwt>
</event>
<event>
 4    1  0.8749406E-009  0.5490842E+03  0.7818608E-02  0.1001706E+00
          1   -1    0    0  501    0  0.00000000000E+00  0.00000000000E+00  0.55368211593E+03  0.55368211595E+03  0.50400000000E-02 0. -1.
         -1   -1    0    0    0  501 -0.00000000000E+00 -0.00000000000E+00 -0.85577977560E+03  0.85577977561E+03  0.50400000000E-02 0.  1.
    8880022    1    1    2    0    0  0.40337226351E+03 -0.33969495310E+03 -0.57606031746E+03  0.79582597752E+03  0.15294330000E+03 0.  1.
    8880022    1    1    2    0    0 -0.40337226351E+03  0.33969495310E+03  0.27396265779E+03  0.61363591405E+03  0.15294330000E+03 0.  0.
<mgrwt>
<rscale>  0 0.54908424E+03</rscale>
<asrwt>0</asrwt>
<pdfrwt beam="1">  1        1 0.85181864E-01 0.54908424E+03</pdfrwt>
<pdfrwt beam="2">  1       -1 0.13165843E+00 0.54908424E+03</pdfrwt>
<totfact> 0.19872554E+01</totfact>
</mgrwt>
</event>
<event>
 4    1  0.8749406E-009  0.1208766E+04  0.7818608E-02  0.9105218E-01
          1   -1    0    0  501    0  0.00000000000E+00  0.00000000000E+00  0.19643888491E+04  0.19643888491E+04  0.50400000000E-02 0. -1.
         -1   -1    0    0    0  501 -0.00000000000E+00 -0.00000000000E+00 -0.15877573018E+04  0.15877573018E+04  0.50400000000E-02 0.  1.
    8880022    1    1    2    0    0  0.59632710165E+03 -0.10402486158E+04  0.14831932944E+04  0.19133680243E+04  0.15294330000E+03 0.  0.
    8880022    1    1    2    0    0 -0.59632710165E+03  0.10402486158E+04 -0.11065617472E+04  0.16387781266E+04  0.15294330000E+03 0.  0.
<mgrwt>
<rscale>  0 0.12087658E+04</rscale>
<asrwt>0</asrwt>
<pdfrwt beam="1">  1        1 0.30221367E+00 0.12087658E+04</pdfrwt>
<pdfrwt beam="2">  1       -1 0.24427035E+00 0.12087658E+04</pdfrwt>
<totfact> 0.23493672E-01</totfact>
</mgrwt>
</event>
<event>
 4    1  0.8749406E-009  0.6676097E+03  0.7818608E-02  0.9774286E-01
          1   -1    0    0  501    0  0.00000000000E+00  0.00000000000E+00  0.15940613433E+04  0.15940613433E+04  0.50400000000E-02 0. -1.
         -1   -1    0    0    0  501 -0.00000000000E+00 -0.00000000000E+00 -0.18313622129E+04  0.18313622129E+04  0.50400000000E-02 0.  1.
    8880022    1    1    2    0    0 -0.39174450349E+03 -0.51850484333E+03 -0.16952066868E+04  0.18219298539E+04  0.15294330000E+03 0.  0.
    8880022    1    1    2    0    0  0.39174450349E+03  0.51850484333E+03  0.14579058172E+04  0.16034937023E+04  0.15294330000E+03 0.  0.
<mgrwt>
<rscale>  0 0.66760968E+03</rscale>
<asrwt>0</asrwt>
<pdfrwt beam="1">  1        1 0.24524021E+00 0.66760968E+03</pdfrwt>
<pdfrwt beam="2">  1       -1 0.28174803E+00 0.66760968E+03</pdfrwt>
<totfact> 0.26719038E-01</totfact>
</mgrwt>
</event>
<event>
 4    1  0.8749406E-009  0.3615752E+03  0.7818608E-02  0.1057962E+00
          1   -1    0    0  501    0  0.00000000000E+00  0.00000000000E+00  0.50643188644E+03  0.50643188647E+03  0.50400000000E-02 0. -1.
         -1   -1    0    0    0  501 -0.00000000000E+00 -0.00000000000E+00 -0.11133388058E+04  0.11133388058E+04  0.50400000000E-02 0.  1.
    8880022    1    1    2    0    0  0.31929634562E+03  0.73449172102E+02 -0.10132604472E+04  0.10758407522E+04  0.15294330000E+03 0.  0.
    8880022    1    1    2    0    0 -0.31929634562E+03 -0.73449172102E+02  0.40635352779E+03  0.54392994014E+03  0.15294330000E+03 0.  0.
<mgrwt>
<rscale>  0 0.36157515E+03</rscale>
<asrwt>0</asrwt>
<pdfrwt beam="1">  1        1 0.77912598E-01 0.36157515E+03</pdfrwt>
<pdfrwt beam="2">  1       -1 0.17128289E+00 0.36157515E+03</pdfrwt>
<totfact> 0.11561571E+01</totfact>
</mgrwt>
</event>
<event>
 4    1  0.8749406E-009  0.3714997E+03  0.7818608E-02  0.1054121E+00
         -1   -1    0    0    0  501 -0.00000000000E+00  0.00000000000E+00  0.74206174628E+03  0.74206174630E+03  0.50400000000E-02 0.  1.
          1   -1    0    0  501    0  0.00000000000E+00 -0.00000000000E+00 -0.25327739692E+03  0.25327739697E+03  0.50400000000E-02 0. -1.
    8880022    1    1    2    0    0 -0.32507237704E+03  0.94595568892E+02  0.50091575948E+03  0.62364142187E+03  0.15294330000E+03 0.  0.
    8880022    1    1    2    0    0  0.32507237704E+03 -0.94595568892E+02 -0.12131410120E+02  0.37169772140E+03  0.15294330000E+03 0. -1.
<mgrwt>
<rscale>  0 0.37149970E+03</rscale>
<asrwt>0</asrwt>
<pdfrwt beam="1">  1        1 0.38965754E-01 0.37149970E+03</pdfrwt>
<pdfrwt beam="2">  1       -1 0.11416334E+00 0.37149970E+03</pdfrwt>
<totfact> 0.80394243E+01</totfact>
</mgrwt>
</event>
<event>
 4    1  0.8749406E-009  0.6298134E+03  0.7818608E-02  0.9845413E-01
         -1   -1    0    0    0  501 -0.00000000000E+00  0.00000000000E+00  0.10577851946E+04  0.10577851947E+04  0.50400000000E-02 0.  1.
          1   -1    0    0  501    0  0.00000000000E+00 -0.00000000000E+00 -0.13413157944E+04  0.13413157944E+04  0.50400000000E-02 0. -1.
    8880022    1    1    2    0    0 -0.35688239200E+03 -0.49589132009E+03  0.87638881524E+03  0.10792229851E+04  0.15294330000E+03 0.  0.
    8880022    1    1    2    0    0  0.35688239200E+03  0.49589132009E+03 -0.11599194150E+04  0.13198780040E+04  0.15294330000E+03 0.  0.
<mgrwt>
<rscale>  0 0.62981338E+03</rscale>
<asrwt>0</asrwt>
<pdfrwt beam="1">  1        1 0.20635628E+00 0.62981338E+03</pdfrwt>
<pdfrwt beam="2">  1       -1 0.16273618E+00 0.62981338E+03</pdfrwt>
<totfact> 0.25189534E+00</totfact>
</mgrwt>
</event>
<event>
 4    1  0.8749406E-009  0.7353452E+03  0.7818608E-02  0.9658626E-01
          1   -1    0    0  501    0  0.00000000000E+00  0.00000000000E+00  0.25038424940E+04  0.25038424940E+04  0.50400000000E-02 0. -1.
         -1   -1    0    0    0  501 -0.00000000000E+00 -0.00000000000E+00 -0.53440532501E+03  0.53440532504E+03  0.50400000000E-02 0.  1.
    8880022    1    1    2    0    0 -0.10758105901E+03  0.71117309502E+03  0.21573850845E+04  0.22792636774E+04  0.15294330000E+03 0.  0.
    8880022    1    1    2    0    0  0.10758105901E+03 -0.71117309502E+03 -0.18794791549E+03  0.75898414165E+03  0.15294330000E+03 0.  0.
<mgrwt>
<rscale>  0 0.73534516E+03</rscale>
<asrwt>0</asrwt>
<pdfrwt beam="1">  1        1 0.38520654E+00 0.73534516E+03</pdfrwt>
<pdfrwt beam="2">  1       -1 0.82216203E-01 0.73534516E+03</pdfrwt>
<totfact> 0.21136957E+00</totfact>
</mgrwt>
</event>
<event>
 4    1  0.8749406E-009  0.3996254E+03  0.7818608E-02  0.1043909E+00
          1   -1    0    0  501    0  0.00000000000E+00  0.00000000000E+00  0.11875850875E+04  0.11875850875E+04  0.50400000000E-02 0. -1.
         -1   -1    0    0    0  501 -0.00000000000E+00 -0.00000000000E+00 -0.38458526539E+03  0.38458526542E+03  0.50400000000E-02 0.  1.
    8880022    1    1    2    0    0  0.26879942458E+03  0.25309219466E+03  0.10354266782E+04  0.11098688429E+04  0.15294330000E+03 0.  0.
    8880022    1    1    2    0    0 -0.26879942458E+03 -0.25309219466E+03 -0.23242685610E+03  0.46230150995E+03  0.15294330000E+03 0.  1.
<mgrwt>
<rscale>  0 0.39962538E+03</rscale>
<asrwt>0</asrwt>
<pdfrwt beam="1">  1        1 0.18270540E+00 0.39962538E+03</pdfrwt>
<pdfrwt beam="2">  1       -1 0.59166965E-01 0.39962538E+03</pdfrwt>
<totfact> 0.34292332E+01</totfact>
</mgrwt>
</event>
<event>
 4    1  0.8749406E-009  0.1292280E+04  0.7818608E-02  0.9035710E-01
          1   -1    0    0  501    0  0.00000000000E+00  0.00000000000E+00  0.14164883038E+04  0.14164883038E+04  0.50400000000E-02 0. -1.
         -1   -1    0    0    0  501 -0.00000000000E+00 -0.00000000000E+00 -0.12388603564E+04  0.12388603564E+04  0.50400000000E-02 0.  1.
    8880022    1    1    2    0    0 -0.12025750410E+04  0.44767089323E+03 -0.20311917575E+03  0.13081456381E+04  0.15294330000E+03 0.  0.
    8880022    1    1    2    0    0  0.12025750410E+04 -0.44767089323E+03  0.38074712322E+03  0.13472030221E+04  0.15294330000E+03 0.  0.
<mgrwt>
<rscale>  0 0.12922800E+04</rscale>
<asrwt>0</asrwt>
<pdfrwt beam="1">  1        1 0.21792128E+00 0.12922800E+04</pdfrwt>
<pdfrwt beam="2">  1       -1 0.19059390E+00 0.12922800E+04</pdfrwt>
<totfact> 0.12692530E+00</totfact>
</mgrwt>
</event>
<event>
 4    1  0.8749406E-009  0.1251603E+04  0.7818608E-02  0.9068850E-01
         -1   -1    0    0    0  501 -0.00000000000E+00  0.00000000000E+00  0.13364069431E+04  0.13364069431E+04  0.50400000000E-02 0.  1.
          1   -1    0    0  501    0  0.00000000000E+00 -0.00000000000E+00 -0.21807279113E+04  0.21807279113E+04  0.50400000000E-02 0. -1.
    8880022    1    1    2    0    0 -0.55963915531E+03  0.11090183147E+04 -0.16180927633E+04  0.20456621056E+04  0.15294330000E+03 0.  0.
    8880022    1    1    2    0    0  0.55963915531E+03 -0.11090183147E+04  0.77377179512E+03  0.14714727488E+04  0.15294330000E+03 0.  0.
<mgrwt>
<rscale>  0 0.12516027E+04</rscale>
<asrwt>0</asrwt>
<pdfrwt beam="1">  1        1 0.33549660E+00 0.12516027E+04</pdfrwt>
<pdfrwt beam="2">  1       -1 0.20560107E+00 0.12516027E+04</pdfrwt>
<totfact> 0.30172742E-01</totfact>
</mgrwt>
</event>
<event>
 4    1  0.8749406E-009  0.7761279E+03  0.7818608E-02  0.9595229E-01
          1   -1    0    0  501    0  0.00000000000E+00  0.00000000000E+00  0.16564164682E+04  0.16564164682E+04  0.50400000000E-02 0. -1.
         -1   -1    0    0    0  501 -0.00000000000E+00 -0.00000000000E+00 -0.51690799284E+03  0.51690799287E+03  0.50400000000E-02 0.  1.
    8880022    1    1    2    0    0  0.13688874602E+03 -0.74849472113E+03 -0.21921193004E+02  0.77643742057E+03  0.15294330000E+03 0.  0.
    8880022    1    1    2    0    0 -0.13688874602E+03  0.74849472113E+03  0.11614296683E+04  0.13968870405E+04  0.15294330000E+03 0.  0.
<mgrwt>
<rscale>  0 0.77612791E+03</rscale>
<asrwt>0</asrwt>
<pdfrwt beam="1">  1        1 0.25483330E+00 0.77612791E+03</pdfrwt>
<pdfrwt beam="2">  1       -1 0.79524307E-01 0.77612791E+03</pdfrwt>
<totfact> 0.83663409E+00</totfact>
</mgrwt>
</event>
<event>
 4    1  0.8749406E-009  0.3711115E+03  0.7818608E-02  0.1054269E+00
         -1   -1    0    0    0  501 -0.00000000000E+00  0.00000000000E+00  0.10381189311E+04  0.10381189311E+04  0.50400000000E-02 0.  1.
          1   -1    0    0  501    0  0.00000000000E+00 -0.00000000000E+00 -0.55476312179E+03  0.55476312181E+03  0.50400000000E-02 0. -1.
    8880022    1    1    2    0    0 -0.27629286518E+03  0.19492133794E+03  0.93639135741E+03  0.10072499703E+04  0.15294330000E+03 0.  0.
    8880022    1    1    2    0    0  0.27629286518E+03 -0.19492133794E+03 -0.45303554812E+03  0.58563208264E+03  0.15294330000E+03 0.  0.
<mgrwt>
<rscale>  0 0.37111148E+03</rscale>
<asrwt>0</asrwt>
<pdfrwt beam="1">  1        1 0.85348173E-01 0.37111148E+03</pdfrwt>
<pdfrwt beam="2">  1       -1 0.15971060E+00 0.37111148E+03</pdfrwt>
<totfact> 0.12371104E+01</totfact>
</mgrwt>
</event>
<event>
 4    1  0.8749406E-009  0.2411311E+03  0.7818608E-02  0.1119042E+00
         -1   -1    0    0    0  501 -0.00000000000E+00  0.00000000000E+00  0.40268325510E+03  0.40268325513E+03  0.50400000000E-02 0.  1.
          1   -1    0    0  501    0  0.00000000000E+00 -0.00000000000E+00 -0.24659822206E+03  0.24659822211E+03  0.50400000000E-02 0. -1.
    8880022    1    1    2    0    0 -0.18566061973E+03  0.16813227474E+02 -0.13095778439E+03  0.27439778542E+03  0.15294330000E+03 0.  0.
    8880022    1    1    2    0    0  0.18566061973E+03 -0.16813227474E+02  0.28704281744E+03  0.37488369182E+03  0.15294330000E+03 0.  0.
<mgrwt>
<rscale>  0 0.24113109E+03</rscale>
<asrwt>0</asrwt>
<pdfrwt beam="1">  1        1 0.37938188E-01 0.24113109E+03</pdfrwt>
<pdfrwt beam="2">  1       -1 0.61951270E-01 0.24113109E+03</pdfrwt>
<totfact> 0.30939464E+02</totfact>
</mgrwt>
</event>
<event>
 4    1  0.8749406E-009  0.8321950E+03  0.7818608E-02  0.9514551E-01
         -1   -1    0    0    0  501 -0.00000000000E+00  0.00000000000E+00  0.99546965776E+03  0.99546965777E+03  0.50400000000E-02 0.  1.
          1   -1    0    0  501    0  0.00000000000E+00 -0.00000000000E+00 -0.78855915059E+03  0.78855915061E+03  0.50400000000E-02 0. -1.
    8880022    1    1    2    0    0  0.42280440075E+02 -0.81692670634E+03 -0.20264690963E+03  0.85651287331E+03  0.15294330000E+03 0.  0.
    8880022    1    1    2    0    0 -0.42280440075E+02  0.81692670634E+03  0.40955741680E+03  0.92751593507E+03  0.15294330000E+03 0.  0.
<mgrwt>
<rscale>  0 0.83219501E+03</rscale>
<asrwt>0</asrwt>
<pdfrwt beam="1">  1        1 0.12131679E+00 0.83219501E+03</pdfrwt>
<pdfrwt beam="2">  1       -1 0.15314918E+00 0.83219501E+03</pdfrwt>
<totfact> 0.76227601E+00</totfact>
</mgrwt>
</event>
<event>
 4    1  0.8749406E-009  0.2564513E+03  0.7818608E-02  0.1109294E+00
         -1   -1    0    0    0  501 -0.00000000000E+00  0.00000000000E+00  0.33952056170E+03  0.33952056174E+03  0.50400000000E-02 0.  1.
          1   -1    0    0  501    0  0.00000000000E+00 -0.00000000000E+00 -0.10151234245E+04  0.10151234245E+04  0.50400000000E-02 0. -1.
    8880022    1    1    2    0    0 -0.18395771638E+03  0.92385882994E+02 -0.94708245148E+03  0.98118928638E+03  0.15294330000E+03 0. -1.
    8880022    1    1    2    0    0  0.18395771638E+03 -0.92385882994E+02  0.27147958867E+03  0.37345469989E+03  0.15294330000E+03 0.  0.
<mgrwt>
<rscale>  0 0.25645125E+03</rscale>
<asrwt>0</asrwt>
<pdfrwt beam="1">  1        1 0.15617283E+00 0.25645125E+03</pdfrwt>
<pdfrwt beam="2">  1       -1 0.52233933E-01 0.25645125E+03</pdfrwt>
<totfact> 0.60123301E+01</totfact>
</mgrwt>
</event>
<event>
 4    1  0.8749406E-009  0.1110331E+04  0.7818608E-02  0.9195181E-01
          1   -1    0    0  501    0  0.00000000000E+00  0.00000000000E+00  0.84815894630E+03  0.84815894632E+03  0.50400000000E-02 0. -1.
         -1   -1    0    0    0  501 -0.00000000000E+00 -0.00000000000E+00 -0.30383523710E+04  0.30383523710E+04  0.50400000000E-02 0.  1.
    8880022    1    1    2    0    0 -0.10167142279E+04 -0.41920822028E+03  0.30836143562E+03  0.11523548850E+04  0.15294330000E+03 0.  0.
    8880022    1    1    2    0    0  0.10167142279E+04  0.41920822028E+03 -0.24985548603E+04  0.27341564322E+04  0.15294330000E+03 0.  0.
<mgrwt>
<rscale>  0 0.11103310E+04</rscale>
<asrwt>0</asrwt>
<pdfrwt beam="1">  1        1 0.13048599E+00 0.11103310E+04</pdfrwt>
<pdfrwt beam="2">  1       -1 0.46743882E+00 0.11103310E+04</pdfrwt>
<totfact> 0.49644526E-02</totfact>
</mgrwt>
</event>
<event>
 4    1  0.8749406E-009  0.1053057E+04  0.7818608E-02  0.9252194E-01
          1   -1    0    0  501    0  0.00000000000E+00  0.00000000000E+00  0.17628783300E+04  0.17628783301E+04  0.50400000000E-02 0. -1.
         -1   -1    0    0    0  501 -0.00000000000E+00 -0.00000000000E+00 -0.15227896871E+04  0.15227896871E+04  0.50400000000E-02 0.  1.
    8880022    1    1    2    0    0 -0.32686313551E+03  0.98929115458E+03 -0.11385352694E+04  0.15508677282E+04  0.15294330000E+03 0.  0.
    8880022    1    1    2    0    0  0.32686313551E+03 -0.98929115458E+03  0.13786239123E+04  0.17348002889E+04  0.15294330000E+03 0.  0.
<mgrwt>
<rscale>  0 0.10530566E+04</rscale>
<asrwt>0</asrwt>
<pdfrwt beam="1">  1        1 0.27121205E+00 0.10530566E+04</pdfrwt>
<pdfrwt beam="2">  1       -1 0.23427534E+00 0.10530566E+04</pdfrwt>
<totfact> 0.38310391E-01</totfact>
</mgrwt>
</event>
<event>
 4    1  0.8749406E-009  0.1185372E+04  0.7818608E-02  0.9125758E-01
          1   -1    0    0  501    0  0.00000000000E+00  0.00000000000E+00  0.18017570631E+04  0.18017570631E+04  0.50400000000E-02 0. -1.
         -1   -1    0    0    0  501 -0.00000000000E+00 -0.00000000000E+00 -0.87413846502E+03  0.87413846503E+03  0.50400000000E-02 0.  1.
    8880022    1    1    2    0    0  0.11162271454E+04  0.36844431966E+03  0.24398136541E+02  0.11856226967E+04  0.15294330000E+03 0.  0.
    8880022    1    1    2    0    0 -0.11162271454E+04 -0.36844431966E+03  0.90322046157E+03  0.14902728314E+04  0.15294330000E+03 0.  0.
<mgrwt>
<rscale>  0 0.11853716E+04</rscale>
<asrwt>0</asrwt>
<pdfrwt beam="1">  1        1 0.27719339E+00 0.11853716E+04</pdfrwt>
<pdfrwt beam="2">  1       -1 0.13448284E+00 0.11853716E+04</pdfrwt>
<totfact> 0.18605105E+00</totfact>
</mgrwt>
</event>
<event>
 4    1  0.8749406E-009  0.8110124E+03  0.7818608E-02  0.9544213E-01
         -1   -1    0    0    0  501 -0.00000000000E+00  0.00000000000E+00  0.73728597258E+03  0.73728597260E+03  0.50400000000E-02 0.  1.
          1   -1    0    0  501    0  0.00000000000E+00 -0.00000000000E+00 -0.94548443282E+03  0.94548443284E+03  0.50400000000E-02 0. -1.
    8880022    1    1    2    0    0 -0.79031014738E+03  0.98789194482E+02 -0.30400685528E+03  0.86611849944E+03  0.15294330000E+03 0.  0.
    8880022    1    1    2    0    0  0.79031014738E+03 -0.98789194482E+02  0.95808395042E+02  0.81665190600E+03  0.15294330000E+03 0.  0.
<mgrwt>
<rscale>  0 0.81101238E+03</rscale>
<asrwt>0</asrwt>
<pdfrwt beam="1">  1        1 0.14545914E+00 0.81101238E+03</pdfrwt>
<pdfrwt beam="2">  1       -1 0.11342861E+00 0.81101238E+03</pdfrwt>
<totfact> 0.12132040E+01</totfact>
</mgrwt>
</event>
<event>
 4    1  0.8749406E-009  0.2050551E+03  0.7818608E-02  0.1145543E+00
         -1   -1    0    0    0  501 -0.00000000000E+00  0.00000000000E+00  0.55983230943E+02  0.55983231170E+02  0.50400000000E-02 0.  1.
          1   -1    0    0  501    0  0.00000000000E+00 -0.00000000000E+00 -0.81566645333E+03  0.81566645335E+03  0.50400000000E-02 0. -1.
    8880022    1    1    2    0    0 -0.12799424547E+03  0.47680457993E+02 -0.25719849745E+03  0.32893566705E+03  0.15294330000E+03 0. -1.
    8880022    1    1    2    0    0  0.12799424547E+03 -0.47680457993E+02 -0.50248472494E+03  0.54271401747E+03  0.15294330000E+03 0.  0.
<mgrwt>
<rscale>  0 0.20505513E+03</rscale>
<asrwt>0</asrwt>
<pdfrwt beam="1">  1        1 0.12548714E+00 0.20505513E+03</pdfrwt>
<pdfrwt beam="2">  1       -1 0.86128054E-02 0.20505513E+03</pdfrwt>
<totfact> 0.17130454E+03</totfact>
</mgrwt>
</event>
<event>
 4    1  0.8749406E-009  0.1340878E+04  0.7818608E-02  0.8997762E-01
         -1   -1    0    0    0  501 -0.00000000000E+00  0.00000000000E+00  0.14529566619E+04  0.14529566619E+04  0.50400000000E-02 0.  1.
          1   -1    0    0  501    0  0.00000000000E+00 -0.00000000000E+00 -0.20814139044E+04  0.20814139044E+04  0.50400000000E-02 0. -1.
    8880022    1    1    2    0    0  0.51331334516E+03 -0.12292568583E+04  0.81106525997E+03  0.15670933357E+04  0.15294330000E+03 0.  0.
    8880022    1    1    2    0    0 -0.51331334516E+03  0.12292568583E+04 -0.14395225024E+04  0.19672772306E+04  0.15294330000E+03 0.  0.
<mgrwt>
<rscale>  0 0.13408783E+04</rscale>
<asrwt>0</asrwt>
<pdfrwt beam="1">  1        1 0.32021752E+00 0.13408783E+04</pdfrwt>
<pdfrwt beam="2">  1       -1 0.22353179E+00 0.13408783E+04</pdfrwt>
<totfact> 0.26337174E-01</totfact>
</mgrwt>
</event>
<event>
 4    1  0.8749406E-009  0.7821330E+03  0.7818608E-02  0.9586245E-01
          1   -1    0    0  501    0  0.00000000000E+00  0.00000000000E+00  0.14893655032E+04  0.14893655032E+04  0.50400000000E-02 0. -1.
         -1   -1    0    0    0  501 -0.00000000000E+00 -0.00000000000E+00 -0.55602025128E+03  0.55602025130E+03  0.50400000000E-02 0.  1.
    8880022    1    1    2    0    0 -0.68451317376E+03  0.34609544141E+03  0.98944574385E+03  0.12612433836E+04  0.15294330000E+03 0.  0.
    8880022    1    1    2    0    0  0.68451317376E+03 -0.34609544141E+03 -0.56100491951E+02  0.78414237089E+03  0.15294330000E+03 0.  0.
<mgrwt>
<rscale>  0 0.78213298E+03</rscale>
<asrwt>0</asrwt>
<pdfrwt beam="1">  1        1 0.22913315E+00 0.78213298E+03</pdfrwt>
<pdfrwt beam="2">  1       -1 0.85541578E-01 0.78213298E+03</pdfrwt>
<totfact> 0.92881838E+00</totfact>
</mgrwt>
</event>
<event>
 4    1  0.8749406E-009  0.5563147E+03  0.7818608E-02  0.1000043E+00
          1   -1    0    0  501    0  0.00000000000E+00  0.00000000000E+00  0.12774534026E+04  0.12774534026E+04  0.50400000000E-02 0. -1.
         -1   -1    0    0    0  501 -0.00000000000E+00 -0.00000000000E+00 -0.12237631845E+04  0.12237631846E+04  0.50400000000E-02 0.  1.
    8880022    1    1    2    0    0  0.53342227122E+03 -0.39435079720E+02  0.11468416881E+04  0.12746497384E+04  0.15294330000E+03 0.  0.
    8880022    1    1    2    0    0 -0.53342227122E+03  0.39435079720E+02 -0.10931514701E+04  0.12265668488E+04  0.15294330000E+03 0.  0.
<mgrwt>
<rscale>  0 0.55631475E+03</rscale>
<asrwt>0</asrwt>
<pdfrwt beam="1">  1        1 0.19653129E+00 0.55631475E+03</pdfrwt>
<pdfrwt beam="2">  1       -1 0.18827126E+00 0.55631475E+03</pdfrwt>
<totfact> 0.18628301E+00</totfact>
</mgrwt>
</event>
<event>
 4    1  0.8749406E-009  0.7525584E+03  0.7818608E-02  0.9631345E-01
         -1   -1    0    0    0  501 -0.00000000000E+00  0.00000000000E+00  0.18136520378E+03  0.18136520385E+03  0.50400000000E-02 0.  1.
          1   -1    0    0  501    0  0.00000000000E+00 -0.00000000000E+00 -0.36942933740E+04  0.36942933740E+04  0.50400000000E-02 0. -1.
    8880022    1    1    2    0    0 -0.73557496278E+03 -0.43380950001E+02 -0.25187255534E+04  0.26287492271E+04  0.15294330000E+03 0. -1.
    8880022    1    1    2    0    0  0.73557496278E+03  0.43380950001E+02 -0.99420261686E+03  0.12469093508E+04  0.15294330000E+03 0.  0.
<mgrwt>
<rscale>  0 0.75255836E+03</rscale>
<asrwt>0</asrwt>
<pdfrwt beam="1">  1        1 0.56835277E+00 0.75255836E+03</pdfrwt>
<pdfrwt beam="2">  1       -1 0.27902342E-01 0.75255836E+03</pdfrwt>
<totfact> 0.22004887E+00</totfact>
</mgrwt>
</event>
<event>
 4    1  0.8749406E-009  0.1688926E+04  0.7818608E-02  0.8767706E-01
          1   -1    0    0  501    0  0.00000000000E+00  0.00000000000E+00  0.28783944923E+04  0.28783944923E+04  0.50400000000E-02 0. -1.
         -1   -1    0    0    0  501 -0.00000000000E+00 -0.00000000000E+00 -0.10983154698E+04  0.10983154698E+04  0.50400000000E-02 0.  1.
    8880022    1    1    2    0    0 -0.16490075756E+04 -0.33144069924E+03  0.26849183349E+03  0.17101340413E+04  0.15294330000E+03 0.  0.
    8880022    1    1    2    0    0  0.16490075756E+04  0.33144069924E+03  0.15115871890E+04  0.22665759208E+04  0.15294330000E+03 0.  0.
<mgrwt>
<rscale>  0 0.16889259E+04</rscale>
<asrwt>0</asrwt>
<pdfrwt beam="1">  1        1 0.44282993E+00 0.16889259E+04</pdfrwt>
<pdfrwt beam="2">  1       -1 0.16897161E+00 0.16889259E+04</pdfrwt>
<totfact> 0.17027038E-01</totfact>
</mgrwt>
</event>
<event>
 4    1  0.8749406E-009  0.1100144E+04  0.7818608E-02  0.9205052E-01
          1   -1    0    0  501    0  0.00000000000E+00  0.00000000000E+00  0.86296509785E+03  0.86296509786E+03  0.50400000000E-02 0. -1.
         -1   -1    0    0    0  501 -0.00000000000E+00 -0.00000000000E+00 -0.21710440041E+04  0.21710440041E+04  0.50400000000E-02 0.  1.
    8880022    1    1    2    0    0  0.94885910580E+03 -0.53534181615E+03 -0.15566168696E+04  0.19061406544E+04  0.15294330000E+03 0.  0.
    8880022    1    1    2    0    0 -0.94885910580E+03  0.53534181615E+03  0.24853796331E+03  0.11278684476E+04  0.15294330000E+03 0.  0.
<mgrwt>
<rscale>  0 0.11001437E+04</rscale>
<asrwt>0</asrwt>
<pdfrwt beam="1">  1        1 0.13276386E+00 0.11001437E+04</pdfrwt>
<pdfrwt beam="2">  1       -1 0.33400677E+00 0.11001437E+04</pdfrwt>
<totfact> 0.38807297E-01</totfact>
</mgrwt>
</event>
<event>
 4    1  0.8749406E-009  0.8000974E+03  0.7818608E-02  0.9559876E-01
          1   -1    0    0  501    0  0.00000000000E+00  0.00000000000E+00  0.18336027563E+04  0.18336027564E+04  0.50400000000E-02 0. -1.
         -1   -1    0    0    0  501 -0.00000000000E+00 -0.00000000000E+00 -0.45336363805E+03  0.45336363807E+03  0.50400000000E-02 0.  1.
    8880022    1    1    2    0    0  0.74943336971E+03 -0.23476328389E+03  0.14181526987E+03  0.81256839643E+03  0.15294330000E+03 0.  0.
    8880022    1    1    2    0    0 -0.74943336971E+03  0.23476328389E+03  0.12384238484E+04  0.14743979980E+04  0.15294330000E+03 0.  0.
<mgrwt>
<rscale>  0 0.80009739E+03</rscale>
<asrwt>0</asrwt>
<pdfrwt beam="1">  1        1 0.28209273E+00 0.80009739E+03</pdfrwt>
<pdfrwt beam="2">  1       -1 0.69748251E-01 0.80009739E+03</pdfrwt>
<totfact> 0.83261655E+00</totfact>
</mgrwt>
</event>
<event>
 4    1  0.8749406E-009  0.1013112E+04  0.7818608E-02  0.9294279E-01
          1   -1    0    0  501    0  0.00000000000E+00  0.00000000000E+00  0.41948383814E+04  0.41948383814E+04  0.50400000000E-02 0. -1.
         -1   -1    0    0    0  501 -0.00000000000E+00 -0.00000000000E+00 -0.25867753673E+03  0.25867753678E+03  0.50400000000E-02 0.  1.
    8880022    1    1    2    0    0  0.65367550124E+03  0.75875743207E+03  0.24860544699E+04  0.26845601096E+04  0.15294330000E+03 0.  0.
    8880022    1    1    2    0    0 -0.65367550124E+03 -0.75875743207E+03  0.14501063747E+04  0.17689558086E+04  0.15294330000E+03 0.  0.
<mgrwt>
<rscale>  0 0.10131121E+04</rscale>
<asrwt>0</asrwt>
<pdfrwt beam="1">  1        1 0.64535976E+00 0.10131121E+04</pdfrwt>
<pdfrwt beam="2">  1       -1 0.39796544E-01 0.10131121E+04</pdfrwt>
<totfact> 0.41580875E-01</totfact>
</mgrwt>
</event>
<event>
 4    1  0.8749406E-009  0.1028084E+04  0.7818608E-02  0.9278268E-01
         -1   -1    0    0    0  501 -0.00000000000E+00  0.00000000000E+00  0.11368512095E+04  0.11368512095E+04  0.50400000000E-02 0.  1.
          1   -1    0    0  501    0  0.00000000000E+00 -0.00000000000E+00 -0.17708784703E+04  0.17708784703E+04  0.50400000000E-02 0. -1.
    8880022    1    1    2    0    0 -0.10153466537E+04 -0.51337284164E+02 -0.13190141693E+04  0.16723499561E+04  0.15294330000E+03 0.  0.
    8880022    1    1    2    0    0  0.10153466537E+04  0.51337284164E+02  0.68498690852E+03  0.12353797237E+04  0.15294330000E+03 0.  0.
<mgrwt>
<rscale>  0 0.10280837E+04</rscale>
<asrwt>0</asrwt>
<pdfrwt beam="1">  1        1 0.27244284E+00 0.10280837E+04</pdfrwt>
<pdfrwt beam="2">  1       -1 0.17490019E+00 0.10280837E+04</pdfrwt>
<totfact> 0.97044042E-01</totfact>
</mgrwt>
</event>
<event>
 4    1  0.8749406E-009  0.5809882E+03  0.7818608E-02  0.9945654E-01
         -1   -1    0    0    0  501 -0.00000000000E+00  0.00000000000E+00  0.61044608305E+03  0.61044608307E+03  0.50400000000E-02 0.  1.
          1   -1    0    0  501    0  0.00000000000E+00 -0.00000000000E+00 -0.69719930731E+03  0.69719930733E+03  0.50400000000E-02 0. -1.
    8880022    1    1    2    0    0  0.53385978737E+03  0.17073173187E+03 -0.34077300915E+03  0.67355288851E+03  0.15294330000E+03 0.  0.
    8880022    1    1    2    0    0 -0.53385978737E+03 -0.17073173187E+03  0.25401978489E+03  0.63409250190E+03  0.15294330000E+03 0.  0.
<mgrwt>
<rscale>  0 0.58098817E+03</rscale>
<asrwt>0</asrwt>
<pdfrwt beam="1">  1        1 0.10726143E+00 0.58098817E+03</pdfrwt>
<pdfrwt beam="2">  1       -1 0.93914782E-01 0.58098817E+03</pdfrwt>
<totfact> 0.31471920E+01</totfact>
</mgrwt>
</event>
<event>
 4    1  0.8749406E-009  0.6942477E+03  0.7818608E-02  0.9727120E-01
          1   -1    0    0  501    0  0.00000000000E+00  0.00000000000E+00  0.13874597905E+04  0.13874597906E+04  0.50400000000E-02 0. -1.
         -1   -1    0    0    0  501 -0.00000000000E+00 -0.00000000000E+00 -0.43560164540E+03  0.43560164543E+03  0.50400000000E-02 0.  1.
    8880022    1    1    2    0    0  0.59630384683E+03  0.32095154617E+03  0.88613974570E+03  0.11257102090E+04  0.15294330000E+03 0.  0.
    8880022    1    1    2    0    0 -0.59630384683E+03 -0.32095154617E+03  0.65718399452E+02  0.69735122698E+03  0.15294330000E+03 0.  0.
<mgrwt>
<rscale>  0 0.69424767E+03</rscale>
<asrwt>0</asrwt>
<pdfrwt beam="1">  1        1 0.21345535E+00 0.69424767E+03</pdfrwt>
<pdfrwt beam="2">  1       -1 0.67015639E-01 0.69424767E+03</pdfrwt>
<totfact> 0.18422757E+01</totfact>
</mgrwt>
</event>
<event>
 4    1  0.8749406E-009  0.1698767E+03  0.7818608E-02  0.1177976E+00
          1   -1    0    0  501    0  0.00000000000E+00  0.00000000000E+00  0.20400820776E+04  0.20400820776E+04  0.50400000000E-02 0. -1.
         -1   -1    0    0    0  501 -0.00000000000E+00 -0.00000000000E+00 -0.71323312353E+02  0.71323312531E+02  0.50400000000E-02 0.  1.
    8880022    1    1    2    0    0 -0.53927709630E+01 -0.73738446523E+02  0.39145161470E+02  0.17432853225E+03  0.15294330000E+03 0.  1.
    8880022    1    1    2    0    0  0.53927709630E+01  0.73738446523E+02  0.19296136038E+04  0.19370768579E+04  0.15294330000E+03 0.  0.
<mgrwt>
<rscale>  0 0.16987670E+03</rscale>
<asrwt>0</asrwt>
<pdfrwt beam="1">  1        1 0.31385872E+00 0.16987670E+03</pdfrwt>
<pdfrwt beam="2">  1       -1 0.10972820E-01 0.16987670E+03</pdfrwt>
<totfact> 0.17319729E+02</totfact>
</mgrwt>
</event>
<event>
 4    1  0.8749406E-009  0.4834340E+03  0.7818608E-02  0.1018196E+00
          1   -1    0    0  501    0  0.00000000000E+00  0.00000000000E+00  0.15162864332E+04  0.15162864332E+04  0.50400000000E-02 0. -1.
         -1   -1    0    0    0  501 -0.00000000000E+00 -0.00000000000E+00 -0.32381284459E+03  0.32381284463E+03  0.50400000000E-02 0.  1.
    8880022    1    1    2    0    0 -0.14349139415E+03 -0.43557666554E+03  0.12622463488E+04  0.13516561360E+04  0.15294330000E+03 0.  0.
    8880022    1    1    2    0    0  0.14349139415E+03  0.43557666554E+03 -0.69772760225E+02  0.48844314187E+03  0.15294330000E+03 0.  0.
<mgrwt>
<rscale>  0 0.48343403E+03</rscale>
<asrwt>0</asrwt>
<pdfrwt beam="1">  1        1 0.23327483E+00 0.48343403E+03</pdfrwt>
<pdfrwt beam="2">  1       -1 0.49817361E-01 0.48343403E+03</pdfrwt>
<totfact> 0.27739628E+01</totfact>
</mgrwt>
</event>
<event>
 4    1  0.8749406E-009  0.1573170E+04  0.7818608E-02  0.8837203E-01
          1   -1    0    0  501    0  0.00000000000E+00  0.00000000000E+00  0.23944266357E+04  0.23944266357E+04  0.50400000000E-02 0. -1.
         -1   -1    0    0    0  501 -0.00000000000E+00 -0.00000000000E+00 -0.16050903499E+04  0.16050903499E+04  0.50400000000E-02 0.  1.
    8880022    1    1    2    0    0  0.12065155105E+04  0.99789362686E+03  0.15879275127E+04  0.22352576599E+04  0.15294330000E+03 0.  0.
    8880022    1    1    2    0    0 -0.12065155105E+04 -0.99789362686E+03 -0.79859122682E+03  0.17642593257E+04  0.15294330000E+03 0.  0.
<mgrwt>
<rscale>  0 0.15731697E+04</rscale>
<asrwt>0</asrwt>
<pdfrwt beam="1">  1        1 0.36837333E+00 0.15731697E+04</pdfrwt>
<pdfrwt beam="2">  1       -1 0.24693698E+00 0.15731697E+04</pdfrwt>
<totfact> 0.10938596E-01</totfact>
</mgrwt>
</event>
<event>
 4    1  0.8749406E-009  0.6481104E+03  0.7818608E-02  0.9810331E-01
          1   -1    0    0  501    0  0.00000000000E+00  0.00000000000E+00  0.40880697121E+04  0.40880697121E+04  0.50400000000E-02 0. -1.
         -1   -1    0    0    0  501 -0.00000000000E+00 -0.00000000000E+00 -0.33010340994E+03  0.33010340998E+03  0.50400000000E-02 0.  1.
    8880022    1    1    2    0    0 -0.13289010739E+03  0.61562624127E+03  0.45660324377E+02  0.64971683664E+03  0.15294330000E+03 0.  0.
    8880022    1    1    2    0    0  0.13289010739E+03 -0.61562624127E+03  0.37123059777E+04  0.37684562854E+04  0.15294330000E+03 0.  0.
<mgrwt>
<rscale>  0 0.64811041E+03</rscale>
<asrwt>0</asrwt>
<pdfrwt beam="1">  1        1 0.62893380E+00 0.64811041E+03</pdfrwt>
<pdfrwt beam="2">  1       -1 0.50785141E-01 0.64811041E+03</pdfrwt>
<totfact> 0.35854630E-01</totfact>
</mgrwt>
</event>
<event>
 4    1  0.8749406E-009  0.1189488E+04  0.7818608E-02  0.9122108E-01
         -1   -1    0    0    0  501 -0.00000000000E+00  0.00000000000E+00  0.68061830553E+03  0.68061830555E+03  0.50400000000E-02 0.  1.
          1   -1    0    0  501    0  0.00000000000E+00 -0.00000000000E+00 -0.35240955765E+04  0.35240955765E+04  0.50400000000E-02 0. -1.
    8880022    1    1    2    0    0  0.70299571988E+03  0.94725202797E+03 -0.75387420715E+02  0.11918742815E+04  0.15294330000E+03 0.  0.
    8880022    1    1    2    0    0 -0.70299571988E+03 -0.94725202797E+03 -0.27680898502E+04  0.30128396006E+04  0.15294330000E+03 0.  0.
<mgrwt>
<rscale>  0 0.11894877E+04</rscale>
<asrwt>0</asrwt>
<pdfrwt beam="1">  1        1 0.54216854E+00 0.11894877E+04</pdfrwt>
<pdfrwt beam="2">  1       -1 0.10471051E+00 0.11894877E+04</pdfrwt>
<totfact> 0.20616979E-01</totfact>
</mgrwt>
</event>
<event>
 4    1  0.1199805E-008  0.1643609E+04  0.7818608E-02  0.8794196E-01
         -1   -1    0    0    0  501 -0.00000000000E+00  0.00000000000E+00  0.24544110224E+04  0.24544110224E+04  0.50400000000E-02 0.  1.
          1   -1    0    0  501    0  0.00000000000E+00 -0.00000000000E+00 -0.23932566387E+04  0.23932566387E+04  0.50400000000E-02 0. -1.
    8880022    1    1    2    0    0  0.15007469320E+04  0.65254738201E+03  0.18118939402E+04  0.24463055294E+04  0.15294330000E+03 0.  0.
    8880022    1    1    2    0    0 -0.15007469320E+04 -0.65254738201E+03 -0.17507395565E+04  0.24013621317E+04  0.15294330000E+03 0.  0.
<mgrwt>
<rscale>  0 0.16436092E+04</rscale>
<asrwt>0</asrwt>
<pdfrwt beam="1">  1        1 0.36819333E+00 0.16436092E+04</pdfrwt>
<pdfrwt beam="2">  1       -1 0.37760170E+00 0.16436092E+04</pdfrwt>
<totfact> 0.15084879E-02</totfact>
</mgrwt>
</event>
<event>
 4    1  0.8749406E-009  0.1439136E+04  0.7818608E-02  0.8925967E-01
          1   -1    0    0  501    0  0.00000000000E+00  0.00000000000E+00  0.24175397728E+04  0.24175397728E+04  0.50400000000E-02 0. -1.
         -1   -1    0    0    0  501 -0.00000000000E+00 -0.00000000000E+00 -0.12184859730E+04  0.12184859730E+04  0.50400000000E-02 0.  1.
    8880022    1    1    2    0    0  0.10523132743E+04 -0.96972060034E+03  0.15901556108E+04  0.21446929360E+04  0.15294330000E+03 0.  0.
    8880022    1    1    2    0    0 -0.10523132743E+04  0.96972060034E+03 -0.39110181103E+03  0.14913328098E+04  0.15294330000E+03 0.  0.
<mgrwt>
<rscale>  0 0.14391362E+04</rscale>
<asrwt>0</asrwt>
<pdfrwt beam="1">  1        1 0.37192919E+00 0.14391362E+04</pdfrwt>
<pdfrwt beam="2">  1       -1 0.18745938E+00 0.14391362E+04</pdfrwt>
<totfact> 0.27121471E-01</totfact>
</mgrwt>
</event>
<event>
 4    1  0.8749406E-009  0.1335433E+04  0.7818608E-02  0.9001929E-01
          1   -1    0    0  501    0  0.00000000000E+00  0.00000000000E+00  0.19837350112E+04  0.19837350112E+04  0.50400000000E-02 0. -1.
         -1   -1    0    0    0  501 -0.00000000000E+00 -0.00000000000E+00 -0.15987452628E+04  0.15987452628E+04  0.50400000000E-02 0.  1.
    8880022    1    1    2    0    0 -0.13248772958E+04 -0.68487858803E+02  0.13775361721E+04  0.19185901058E+04  0.15294330000E+03 0.  0.
    8880022    1    1    2    0    0  0.13248772958E+04  0.68487858803E+02 -0.99254642375E+03  0.16638901682E+04  0.15294330000E+03 0.  0.
<mgrwt>
<rscale>  0 0.13354333E+04</rscale>
<asrwt>0</asrwt>
<pdfrwt beam="1">  1        1 0.30519000E+00 0.13354333E+04</pdfrwt>
<pdfrwt beam="2">  1       -1 0.24596081E+00 0.13354333E+04</pdfrwt>
<totfact> 0.21824651E-01</totfact>
</mgrwt>
</event>
<event>
 4    1  0.8749406E-009  0.2584905E+03  0.7818608E-02  0.1108054E+00
         -1   -1    0    0    0  501 -0.00000000000E+00  0.00000000000E+00  0.15567520827E+04  0.15567520827E+04  0.50400000000E-02 0.  1.
          1   -1    0    0  501    0  0.00000000000E+00 -0.00000000000E+00 -0.21831073425E+03  0.21831073431E+03  0.50400000000E-02 0. -1.
    8880022    1    1    2    0    0 -0.48943243859E+02 -0.20255926011E+03 -0.12629415075E+03  0.28769351836E+03  0.15294330000E+03 0.  0.
    8880022    1    1    2    0    0  0.48943243859E+02  0.20255926011E+03  0.14647354992E+04  0.14873692987E+04  0.15294330000E+03 0.  0.
<mgrwt>
<rscale>  0 0.25849052E+03</rscale>
<asrwt>0</asrwt>
<pdfrwt beam="1">  1        1 0.33586268E-01 0.25849052E+03</pdfrwt>
<pdfrwt beam="2">  1       -1 0.23950031E+00 0.25849052E+03</pdfrwt>
<totfact> 0.12295432E+01</totfact>
</mgrwt>
</event>
<event>
 4    1  0.1392570E-008  0.8684272E+03  0.7818608E-02  0.9465933E-01
         -1   -1    0    0    0  501 -0.00000000000E+00  0.00000000000E+00  0.21595696501E+04  0.21595696501E+04  0.50400000000E-02 0.  1.
          1   -1    0    0  501    0  0.00000000000E+00 -0.00000000000E+00 -0.14391621502E+04  0.14391621503E+04  0.50400000000E-02 0. -1.
    8880022    1    1    2    0    0 -0.85163150299E+03  0.74148605229E+02  0.19261117968E+04  0.21128351898E+04  0.15294330000E+03 0.  0.
    8880022    1    1    2    0    0  0.85163150299E+03 -0.74148605229E+02 -0.12057042969E+04  0.14858966105E+04  0.15294330000E+03 0.  0.
<mgrwt>
<rscale>  0 0.86842725E+03</rscale>
<asrwt>0</asrwt>
<pdfrwt beam="1">  1        1 0.22140956E+00 0.86842725E+03</pdfrwt>
<pdfrwt beam="2">  1       -1 0.33224148E+00 0.86842725E+03</pdfrwt>
<totfact> 0.15387432E-01</totfact>
</mgrwt>
</event>
<event>
 4    1  0.8749406E-009  0.1355666E+04  0.7818608E-02  0.8986550E-01
          1   -1    0    0  501    0  0.00000000000E+00  0.00000000000E+00  0.25367338688E+04  0.25367338688E+04  0.50400000000E-02 0. -1.
         -1   -1    0    0    0  501 -0.00000000000E+00 -0.00000000000E+00 -0.99868644192E+03  0.99868644194E+03  0.50400000000E-02 0.  1.
    8880022    1    1    2    0    0 -0.12883774520E+04  0.39309374887E+03  0.16952769381E+04  0.21706668801E+04  0.15294330000E+03 0.  0.
    8880022    1    1    2    0    0  0.12883774520E+04 -0.39309374887E+03 -0.15722951129E+03  0.13647534306E+04  0.15294330000E+03 0.  0.
<mgrwt>
<rscale>  0 0.13556662E+04</rscale>
<asrwt>0</asrwt>
<pdfrwt beam="1">  1        1 0.39026674E+00 0.13556662E+04</pdfrwt>
<pdfrwt beam="2">  1       -1 0.15364407E+00 0.13556662E+04</pdfrwt>
<totfact> 0.40351884E-01</totfact>
</mgrwt>
</event>
<event>
 4    1  0.8749406E-009  0.3491076E+03  0.7818608E-02  0.1062982E+00
          1   -1    0    0  501    0  0.00000000000E+00  0.00000000000E+00  0.12868048774E+04  0.12868048774E+04  0.50400000000E-02 0. -1.
         -1   -1    0    0    0  501 -0.00000000000E+00 -0.00000000000E+00 -0.36667360060E+03  0.36667360064E+03  0.50400000000E-02 0.  1.
    8880022    1    1    2    0    0 -0.14990553782E+03  0.27570420782E+03 -0.25193823446E+03  0.43052178514E+03  0.15294330000E+03 0.  0.
    8880022    1    1    2    0    0  0.14990553782E+03 -0.27570420782E+03  0.11720695113E+04  0.12229566929E+04  0.15294330000E+03 0.  0.
<mgrwt>
<rscale>  0 0.34910762E+03</rscale>
<asrwt>0</asrwt>
<pdfrwt beam="1">  1        1 0.19796998E+00 0.34910762E+03</pdfrwt>
<pdfrwt beam="2">  1       -1 0.56411323E-01 0.34910762E+03</pdfrwt>
<totfact> 0.32405421E+01</totfact>
</mgrwt>
</event>
<event>
 4    1  0.8749406E-009  0.8391342E+03  0.7818608E-02  0.9505038E-01
         -1   -1    0    0    0  501 -0.00000000000E+00  0.00000000000E+00  0.63554368478E+03  0.63554368480E+03  0.50400000000E-02 0.  1.
          1   -1    0    0  501    0  0.00000000000E+00 -0.00000000000E+00 -0.18163120666E+04  0.18163120666E+04  0.50400000000E-02 0. -1.
    8880022    1    1    2    0    0  0.81667586929E+03  0.11745220922E+03  0.17521152252E+03  0.85723114011E+03  0.15294330000E+03 0.  0.
    8880022    1    1    2    0    0 -0.81667586929E+03 -0.11745220922E+03 -0.13559799043E+04  0.15946246113E+04  0.15294330000E+03 0.  0.
<mgrwt>
<rscale>  0 0.83913417E+03</rscale>
<asrwt>0</asrwt>
<pdfrwt beam="1">  1        1 0.27943262E+00 0.83913417E+03</pdfrwt>
<pdfrwt beam="2">  1       -1 0.97775952E-01 0.83913417E+03</pdfrwt>
<totfact> 0.41128877E+00</totfact>
</mgrwt>
</event>
<event>
 4    1  0.8749406E-009  0.2895181E+03  0.7818608E-02  0.1090601E+00
          1   -1    0    0  501    0  0.00000000000E+00  0.00000000000E+00  0.81359429897E+03  0.81359429899E+03  0.50400000000E-02 0. -1.
         -1   -1    0    0    0  501 -0.00000000000E+00 -0.00000000000E+00 -0.41320689661E+03  0.41320689664E+03  0.50400000000E-02 0.  1.
    8880022    1    1    2    0    0  0.19533973210E+03  0.14923631889E+03 -0.33126371787E+03  0.43995044449E+03  0.15294330000E+03 0.  0.
    8880022    1    1    2    0    0 -0.19533973210E+03 -0.14923631889E+03  0.73165112024E+03  0.78685075114E+03  0.15294330000E+03 0.  0.
<mgrwt>
<rscale>  0 0.28951812E+03</rscale>
<asrwt>0</asrwt>
<pdfrwt beam="1">  1        1 0.12516835E+00 0.28951812E+03</pdfrwt>
<pdfrwt beam="2">  1       -1 0.63570293E-01 0.28951812E+03</pdfrwt>
<totfact> 0.58909177E+01</totfact>
</mgrwt>
</event>
<event>
 4    1  0.8749406E-009  0.6358904E+03  0.7818608E-02  0.9833621E-01
         -1   -1    0    0    0  501 -0.00000000000E+00  0.00000000000E+00  0.11591791337E+04  0.11591791337E+04  0.50400000000E-02 0.  1.
          1   -1    0    0  501    0  0.00000000000E+00 -0.00000000000E+00 -0.42831675441E+03  0.42831675444E+03  0.50400000000E-02 0. -1.
    8880022    1    1    2    0    0 -0.60218422893E+03  0.13542199050E+03  0.23493404421E+02  0.63632425237E+03  0.15294330000E+03 0.  0.
    8880022    1    1    2    0    0  0.60218422893E+03 -0.13542199050E+03  0.70736897485E+03  0.95117163576E+03  0.15294330000E+03 0.  0.
<mgrwt>
<rscale>  0 0.63589041E+03</rscale>
<asrwt>0</asrwt>
<pdfrwt beam="1">  1        1 0.65894887E-01 0.63589041E+03</pdfrwt>
<pdfrwt beam="2">  1       -1 0.17833525E+00 0.63589041E+03</pdfrwt>
<totfact> 0.12233790E+01</totfact>
</mgrwt>
</event>
<event>
 4    1  0.8749406E-009  0.9289280E+03  0.7818608E-02  0.9390125E-01
         -1   -1    0    0    0  501 -0.00000000000E+00  0.00000000000E+00  0.11576935753E+04  0.11576935753E+04  0.50400000000E-02 0.  1.
          1   -1    0    0  501    0  0.00000000000E+00 -0.00000000000E+00 -0.28483498918E+04  0.28483498918E+04  0.50400000000E-02 0. -1.
    8880022    1    1    2    0    0  0.68567821383E+03  0.60775081071E+03  0.87577458990E+03  0.12766708449E+04  0.15294330000E+03 0.  0.
    8880022    1    1    2    0    0 -0.68567821383E+03 -0.60775081071E+03 -0.25664309064E+04  0.27293726222E+04  0.15294330000E+03 0.  0.
<mgrwt>
<rscale>  0 0.92892805E+03</rscale>
<asrwt>0</asrwt>
<pdfrwt beam="1">  1        1 0.43820768E+00 0.92892805E+03</pdfrwt>
<pdfrwt beam="2">  1       -1 0.17810670E+00 0.92892805E+03</pdfrwt>
<totfact> 0.17196880E-01</totfact>
</mgrwt>
</event>
<event>
 4    1  0.8749406E-009  0.1342330E+04  0.7818608E-02  0.8996655E-01
         -1   -1    0    0    0  501 -0.00000000000E+00  0.00000000000E+00  0.17494693343E+04  0.17494693343E+04  0.50400000000E-02 0.  1.
          1   -1    0    0  501    0  0.00000000000E+00 -0.00000000000E+00 -0.25524862254E+04  0.25524862254E+04  0.50400000000E-02 0. -1.
    8880022    1    1    2    0    0  0.76499620178E+03  0.10923548003E+04  0.12597582148E+04  0.18408803903E+04  0.15294330000E+03 0.  0.
    8880022    1    1    2    0    0 -0.76499620178E+03 -0.10923548003E+04 -0.20627751060E+04  0.24610751694E+04  0.15294330000E+03 0.  0.
<mgrwt>
<rscale>  0 0.13423300E+04</rscale>
<asrwt>0</asrwt>
<pdfrwt beam="1">  1        1 0.39269019E+00 0.13423300E+04</pdfrwt>
<pdfrwt beam="2">  1       -1 0.26914913E+00 0.13423300E+04</pdfrwt>
<totfact> 0.62925859E-02</totfact>
</mgrwt>
</event>
<event>
 4    1  0.8749406E-009  0.9162153E+03  0.7818608E-02  0.9405536E-01
         -1   -1    0    0    0  501 -0.00000000000E+00  0.00000000000E+00  0.12929528693E+04  0.12929528693E+04  0.50400000000E-02 0.  1.
          1   -1    0    0  501    0  0.00000000000E+00 -0.00000000000E+00 -0.32120830063E+04  0.32120830063E+04  0.50400000000E-02 0. -1.
    8880022    1    1    2    0    0 -0.87520690395E+03  0.22376696057E+03  0.10524673848E+04  0.13953988772E+04  0.15294330000E+03 0.  0.
    8880022    1    1    2    0    0  0.87520690395E+03 -0.22376696057E+03 -0.29715975218E+04  0.31096369984E+04  0.15294330000E+03 0.  0.
<mgrwt>
<rscale>  0 0.91621528E+03</rscale>
<asrwt>0</asrwt>
<pdfrwt beam="1">  1        1 0.49416661E+00 0.91621528E+03</pdfrwt>
<pdfrwt beam="2">  1       -1 0.19891583E+00 0.91621528E+03</pdfrwt>
<totfact> 0.67180367E-02</totfact>
</mgrwt>
</event>
<event>
 4    1  0.8749406E-009  0.1381118E+04  0.7818608E-02  0.8967601E-01
         -1   -1    0    0    0  501 -0.00000000000E+00  0.00000000000E+00  0.10987143880E+04  0.10987143880E+04  0.50400000000E-02 0.  1.
          1   -1    0    0  501    0  0.00000000000E+00 -0.00000000000E+00 -0.18098461722E+04  0.18098461722E+04  0.50400000000E-02 0. -1.
    8880022    1    1    2    0    0 -0.11672214555E+04 -0.72228025355E+03 -0.64911096406E+03  0.15260509125E+04  0.15294330000E+03 0.  0.
    8880022    1    1    2    0    0  0.11672214555E+04  0.72228025355E+03 -0.62020820089E+02  0.13825096477E+04  0.15294330000E+03 0.  0.
<mgrwt>
<rscale>  0 0.13811178E+04</rscale>
<asrwt>0</asrwt>
<pdfrwt beam="1">  1        1 0.27843787E+00 0.13811178E+04</pdfrwt>
<pdfrwt beam="2">  1       -1 0.16903298E+00 0.13811178E+04</pdfrwt>
<totfact> 0.96373888E-01</totfact>
</mgrwt>
</event>
<event>
 4    1  0.8749406E-009  0.4403052E+03  0.7818608E-02  0.1030653E+00
          1   -1    0    0  501    0  0.00000000000E+00  0.00000000000E+00  0.12740484570E+04  0.12740484570E+04  0.50400000000E-02 0. -1.
         -1   -1    0    0    0  501 -0.00000000000E+00 -0.00000000000E+00 -0.37907699844E+03  0.37907699847E+03  0.50400000000E-02 0.  1.
    8880022    1    1    2    0    0 -0.27510659671E+03  0.30788530930E+03  0.10869827469E+04  0.11727745513E+04  0.15294330000E+03 0. -1.
    8880022    1    1    2    0    0  0.27510659671E+03 -0.30788530930E+03 -0.19201128833E+03  0.48035090413E+03  0.15294330000E+03 0.  0.
<mgrwt>
<rscale>  0 0.44030519E+03</rscale>
<asrwt>0</asrwt>
<pdfrwt beam="1">  1        1 0.19600745E+00 0.44030519E+03</pdfrwt>
<pdfrwt beam="2">  1       -1 0.58319539E-01 0.44030519E+03</pdfrwt>
<totfact> 0.30379871E+01</totfact>
</mgrwt>
</event>
<event>
 4    1  0.8749406E-009  0.1251501E+04  0.7818608E-02  0.9068935E-01
          1   -1    0    0  501    0  0.00000000000E+00  0.00000000000E+00  0.26203546968E+04  0.26203546968E+04  0.50400000000E-02 0. -1.
         -1   -1    0    0    0  501 -0.00000000000E+00 -0.00000000000E+00 -0.12668265830E+04  0.12668265830E+04  0.50400000000E-02 0.  1.
    8880022    1    1    2    0    0  0.12421143022E+04 -0.38185704111E+01 -0.73574718744E+03  0.14517500123E+04  0.15294330000E+03 0.  0.
    8880022    1    1    2    0    0 -0.12421143022E+04  0.38185704111E+01  0.20892753013E+04  0.24354312675E+04  0.15294330000E+03 0.  0.
<mgrwt>
<rscale>  0 0.12515008E+04</rscale>
<asrwt>0</asrwt>
<pdfrwt beam="1">  1        1 0.40313149E+00 0.12515008E+04</pdfrwt>
<pdfrwt beam="2">  1       -1 0.19489640E+00 0.12515008E+04</pdfrwt>
<totfact> 0.17849580E-01</totfact>
</mgrwt>
</event>
<event>
 4    1  0.8749406E-009  0.8034908E+03  0.7818608E-02  0.9554978E-01
         -1   -1    0    0    0  501 -0.00000000000E+00  0.00000000000E+00  0.40084434171E+03  0.40084434175E+03  0.50400000000E-02 0.  1.
          1   -1    0    0  501    0  0.00000000000E+00 -0.00000000000E+00 -0.23145371170E+04  0.23145371170E+04  0.50400000000E-02 0. -1.
    8880022    1    1    2    0    0 -0.33504667621E+02  0.78808838406E+03 -0.17055976054E+04  0.18853807861E+04  0.15294330000E+03 0.  0.
    8880022    1    1    2    0    0  0.33504667621E+02 -0.78808838406E+03 -0.20809516981E+03  0.83000067263E+03  0.15294330000E+03 0.  0.
<mgrwt>
<rscale>  0 0.80349083E+03</rscale>
<asrwt>0</asrwt>
<pdfrwt beam="1">  1        1 0.35608263E+00 0.80349083E+03</pdfrwt>
<pdfrwt beam="2">  1       -1 0.61668362E-01 0.80349083E+03</pdfrwt>
<totfact> 0.50724908E+00</totfact>
</mgrwt>
</event>
<event>
 4    1  0.8749406E-009  0.7115569E+03  0.7818608E-02  0.9697670E-01
         -1   -1    0    0    0  501 -0.00000000000E+00  0.00000000000E+00  0.13108421075E+04  0.13108421075E+04  0.50400000000E-02 0.  1.
          1   -1    0    0  501    0  0.00000000000E+00 -0.00000000000E+00 -0.70933742199E+03  0.70933742201E+03  0.50400000000E-02 0. -1.
    8880022    1    1    2    0    0  0.63780526848E+03 -0.27590941001E+03  0.98245239620E+03  0.12130646837E+04  0.15294330000E+03 0.  0.
    8880022    1    1    2    0    0 -0.63780526848E+03  0.27590941001E+03 -0.38094771069E+03  0.80711484582E+03  0.15294330000E+03 0.  0.
<mgrwt>
<rscale>  0 0.71155690E+03</rscale>
<asrwt>0</asrwt>
<pdfrwt beam="1">  1        1 0.10912884E+00 0.71155690E+03</pdfrwt>
<pdfrwt beam="2">  1       -1 0.20166801E+00 0.71155690E+03</pdfrwt>
<totfact> 0.40859083E+00</totfact>
</mgrwt>
</event>
<event>
 4    1  0.8749406E-009  0.1269636E+04  0.7818608E-02  0.9053997E-01
         -1   -1    0    0    0  501 -0.00000000000E+00  0.00000000000E+00  0.13633172311E+04  0.13633172311E+04  0.50400000000E-02 0.  1.
          1   -1    0    0  501    0  0.00000000000E+00 -0.00000000000E+00 -0.25926718064E+04  0.25926718064E+04  0.50400000000E-02 0. -1.
    8880022    1    1    2    0    0  0.11766194386E+04  0.45182892960E+03  0.84415065569E+03  0.15246523103E+04  0.15294330000E+03 0.  0.
    8880022    1    1    2    0    0 -0.11766194386E+04 -0.45182892960E+03 -0.20735052310E+04  0.24313367272E+04  0.15294330000E+03 0.  0.
<mgrwt>
<rscale>  0 0.12696355E+04</rscale>
<asrwt>0</asrwt>
<pdfrwt beam="1">  1        1 0.39887258E+00 0.12696355E+04</pdfrwt>
<pdfrwt beam="2">  1       -1 0.20974111E+00 0.12696355E+04</pdfrwt>
<totfact> 0.14707012E-01</totfact>
</mgrwt>
</event>
<event>
 4    1  0.8749406E-009  0.9112068E+03  0.7818608E-02  0.9411680E-01
         -1   -1    0    0    0  501 -0.00000000000E+00  0.00000000000E+00  0.24007293045E+04  0.24007293045E+04  0.50400000000E-02 0.  1.
          1   -1    0    0  501    0  0.00000000000E+00 -0.00000000000E+00 -0.10872794529E+04  0.10872794529E+04  0.50400000000E-02 0. -1.
    8880022    1    1    2    0    0  0.84511270510E+03 -0.30445158964E+03  0.20968864532E+04  0.22863137810E+04  0.15294330000E+03 0.  1.
    8880022    1    1    2    0    0 -0.84511270510E+03  0.30445158964E+03 -0.78343660154E+03  0.12016949764E+04  0.15294330000E+03 0.  0.
<mgrwt>
<rscale>  0 0.91120684E+03</rscale>
<asrwt>0</asrwt>
<pdfrwt beam="1">  1        1 0.16727376E+00 0.91120684E+03</pdfrwt>
<pdfrwt beam="2">  1       -1 0.36934297E+00 0.91120684E+03</pdfrwt>
<totfact> 0.15572590E-01</totfact>
</mgrwt>
</event>
<event>
 4    1  0.8749406E-009  0.5735195E+03  0.7818608E-02  0.9961921E-01
         -1   -1    0    0    0  501 -0.00000000000E+00  0.00000000000E+00  0.58624703872E+03  0.58624703874E+03  0.50400000000E-02 0.  1.
          1   -1    0    0  501    0  0.00000000000E+00 -0.00000000000E+00 -0.11549076165E+04  0.11549076165E+04  0.50400000000E-02 0. -1.
    8880022    1    1    2    0    0 -0.36534708048E+03 -0.41479446440E+03  0.33993362141E+03  0.66669292548E+03  0.15294330000E+03 0.  1.
    8880022    1    1    2    0    0  0.36534708048E+03  0.41479446440E+03 -0.90859419919E+03  0.10744617298E+04  0.15294330000E+03 0.  0.
<mgrwt>
<rscale>  0 0.57351948E+03</rscale>
<asrwt>0</asrwt>
<pdfrwt beam="1">  1        1 0.17767809E+00 0.57351948E+03</pdfrwt>
<pdfrwt beam="2">  1       -1 0.90191852E-01 0.57351948E+03</pdfrwt>
<totfact> 0.14707486E+01</totfact>
</mgrwt>
</event>
<event>
 4    1  0.8749406E-009  0.2920239E+03  0.7818608E-02  0.1089297E+00
          1   -1    0    0  501    0  0.00000000000E+00  0.00000000000E+00  0.58888788285E+03  0.58888788287E+03  0.50400000000E-02 0. -1.
         -1   -1    0    0    0  501 -0.00000000000E+00 -0.00000000000E+00 -0.29860877312E+03  0.29860877317E+03  0.50400000000E-02 0.  1.
    8880022    1    1    2    0    0 -0.45953489220E+02  0.24448836074E+03 -0.17332367347E+03  0.33958655820E+03  0.15294330000E+03 0.  0.
    8880022    1    1    2    0    0  0.45953489220E+02 -0.24448836074E+03  0.46360278320E+03  0.54791009784E+03  0.15294330000E+03 0.  0.
<mgrwt>
<rscale>  0 0.29202386E+03</rscale>
<asrwt>0</asrwt>
<pdfrwt beam="1">  1        1 0.90598136E-01 0.29202386E+03</pdfrwt>
<pdfrwt beam="2">  1       -1 0.45939811E-01 0.29202386E+03</pdfrwt>
<totfact> 0.17480908E+02</totfact>
</mgrwt>
</event>
<event>
 4    1  0.8749406E-009  0.8993504E+03  0.7818608E-02  0.9426394E-01
         -1   -1    0    0    0  501 -0.00000000000E+00  0.00000000000E+00  0.10581604717E+04  0.10581604717E+04  0.50400000000E-02 0.  1.
          1   -1    0    0  501    0  0.00000000000E+00 -0.00000000000E+00 -0.14565623952E+04  0.14565623952E+04  0.50400000000E-02 0. -1.
    8880022    1    1    2    0    0 -0.53945111524E+03  0.70315852668E+03 -0.10659782678E+04  0.13946830249E+04  0.15294330000E+03 0. -1.
    8880022    1    1    2    0    0  0.53945111524E+03 -0.70315852668E+03  0.66757634429E+03  0.11200398421E+04  0.15294330000E+03 0.  0.
<mgrwt>
<rscale>  0 0.89935036E+03</rscale>
<asrwt>0</asrwt>
<pdfrwt beam="1">  1        1 0.22408652E+00 0.89935036E+03</pdfrwt>
<pdfrwt beam="2">  1       -1 0.16279392E+00 0.89935036E+03</pdfrwt>
<totfact> 0.19920061E+00</totfact>
</mgrwt>
</event>
<event>
 4    1  0.8749406E-009  0.4764617E+03  0.7818608E-02  0.1020112E+00
         -1   -1    0    0    0  501 -0.00000000000E+00  0.00000000000E+00  0.93257991522E+03  0.93257991523E+03  0.50400000000E-02 0.  1.
          1   -1    0    0  501    0  0.00000000000E+00 -0.00000000000E+00 -0.22934375758E+04  0.22934375758E+04  0.50400000000E-02 0. -1.
    8880022    1    1    2    0    0 -0.43276385681E+02  0.44916730244E+03 -0.22054337301E+04  0.22563141852E+04  0.15294330000E+03 0. -1.
    8880022    1    1    2    0    0  0.43276385681E+02 -0.44916730244E+03  0.84457606955E+03  0.96970330587E+03  0.15294330000E+03 0.  0.
<mgrwt>
<rscale>  0 0.47646171E+03</rscale>
<asrwt>0</asrwt>
<pdfrwt beam="1">  1        1 0.35283655E+00 0.47646171E+03</pdfrwt>
<pdfrwt beam="2">  1       -1 0.14347383E+00 0.47646171E+03</pdfrwt>
<totfact> 0.85073374E-01</totfact>
</mgrwt>
</event>
<event>
 4    1  0.8749406E-009  0.8923492E+03  0.7818608E-02  0.9435196E-01
          1   -1    0    0  501    0  0.00000000000E+00  0.00000000000E+00  0.16833262680E+04  0.16833262680E+04  0.50400000000E-02 0. -1.
         -1   -1    0    0    0  501 -0.00000000000E+00 -0.00000000000E+00 -0.10513485951E+04  0.10513485951E+04  0.50400000000E-02 0.  1.
    8880022    1    1    2    0    0  0.67647982774E+02  0.87653822387E+03 -0.69811098592E+03  0.11329810718E+04  0.15294330000E+03 0.  0.
    8880022    1    1    2    0    0 -0.67647982774E+02 -0.87653822387E+03  0.13300886588E+04  0.16016937912E+04  0.15294330000E+03 0.  0.
<mgrwt>
<rscale>  0 0.89234924E+03</rscale>
<asrwt>0</asrwt>
<pdfrwt beam="1">  1        1 0.25897327E+00 0.89234924E+03</pdfrwt>
<pdfrwt beam="2">  1       -1 0.16174594E+00 0.89234924E+03</pdfrwt>
<totfact> 0.14211858E+00</totfact>
</mgrwt>
</event>
<event>
 4    1  0.8749406E-009  0.2027215E+03  0.7818608E-02  0.1147463E+00
         -1   -1    0    0    0  501 -0.00000000000E+00  0.00000000000E+00  0.71143729172E+02  0.71143729351E+02  0.50400000000E-02 0.  1.
          1   -1    0    0  501    0  0.00000000000E+00 -0.00000000000E+00 -0.11481596033E+04  0.11481596033E+04  0.50400000000E-02 0. -1.
    8880022    1    1    2    0    0  0.13299851930E+03 -0.39679496334E+01 -0.10876076188E+03  0.23005413950E+03  0.15294330000E+03 0.  1.
    8880022    1    1    2    0    0 -0.13299851930E+03  0.39679496334E+01 -0.96825511221E+03  0.98924919313E+03  0.15294330000E+03 0. -1.
<mgrwt>
<rscale>  0 0.20272149E+03</rscale>
<asrwt>0</asrwt>
<pdfrwt beam="1">  1        1 0.17663993E+00 0.20272149E+03</pdfrwt>
<pdfrwt beam="2">  1       -1 0.10945190E-01 0.20272149E+03</pdfrwt>
<totfact> 0.66527188E+02</totfact>
</mgrwt>
</event>
<event>
 4    1  0.8749406E-009  0.2755600E+03  0.7818608E-02  0.1098139E+00
          1   -1    0    0  501    0  0.00000000000E+00  0.00000000000E+00  0.15352709183E+04  0.15352709183E+04  0.50400000000E-02 0. -1.
         -1   -1    0    0    0  501 -0.00000000000E+00 -0.00000000000E+00 -0.55434627508E+03  0.55434627510E+03  0.50400000000E-02 0.  1.
    8880022    1    1    2    0    0 -0.74084220094E+02  0.21691750790E+03 -0.50664815787E+03  0.57673710284E+03  0.15294330000E+03 0.  1.
    8880022    1    1    2    0    0  0.74084220094E+02 -0.21691750790E+03  0.14875728010E+04  0.15128800905E+04  0.15294330000E+03 0.  0.
<mgrwt>
<rscale>  0 0.27556003E+03</rscale>
<asrwt>0</asrwt>
<pdfrwt beam="1">  1        1 0.23619553E+00 0.27556003E+03</pdfrwt>
<pdfrwt beam="2">  1       -1 0.85284042E-01 0.27556003E+03</pdfrwt>
<totfact> 0.98373306E+00</totfact>
</mgrwt>
</event>
<event>
 4    1  0.8749406E-009  0.3801673E+03  0.7818608E-02  0.1050872E+00
          1   -1    0    0  501    0  0.00000000000E+00  0.00000000000E+00  0.28592988750E+04  0.28592988750E+04  0.50400000000E-02 0. -1.
         -1   -1    0    0    0  501 -0.00000000000E+00 -0.00000000000E+00 -0.39904692590E+03  0.39904692594E+03  0.50400000000E-02 0.  1.
    8880022    1    1    2    0    0 -0.11552281799E+03 -0.32831391069E+03  0.27526246589E+04  0.27787532656E+04  0.15294330000E+03 0. -1.
    8880022    1    1    2    0    0  0.11552281799E+03  0.32831391069E+03 -0.29237270983E+03  0.47959253529E+03  0.15294330000E+03 0.  0.
<mgrwt>
<rscale>  0 0.38016733E+03</rscale>
<asrwt>0</asrwt>
<pdfrwt beam="1">  1        1 0.43989214E+00 0.38016733E+03</pdfrwt>
<pdfrwt beam="2">  1       -1 0.61391833E-01 0.38016733E+03</pdfrwt>
<totfact> 0.24243816E+00</totfact>
</mgrwt>
</event>
<event>
 4    1  0.8749406E-009  0.2756775E+03  0.7818608E-02  0.1098073E+00
         -1   -1    0    0    0  501 -0.00000000000E+00  0.00000000000E+00  0.45686911377E+02  0.45686911655E+02  0.50400000000E-02 0.  1.
          1   -1    0    0  501    0  0.00000000000E+00 -0.00000000000E+00 -0.25226676474E+04  0.25226676474E+04  0.50400000000E-02 0. -1.
    8880022    1    1    2    0    0  0.14291533052E+02 -0.22891528158E+03 -0.48903569318E+03  0.56138579985E+03  0.15294330000E+03 0.  1.
    8880022    1    1    2    0    0 -0.14291533052E+02  0.22891528158E+03 -0.19879450428E+04  0.20069687592E+04  0.15294330000E+03 0.  0.
<mgrwt>
<rscale>  0 0.27567754E+03</rscale>
<asrwt>0</asrwt>
<pdfrwt beam="1">  1        1 0.38810261E+00 0.27567754E+03</pdfrwt>
<pdfrwt beam="2">  1       -1 0.70287576E-02 0.27567754E+03</pdfrwt>
<totfact> 0.16069686E+02</totfact>
</mgrwt>
</event>
<event>
 4    1  0.8749406E-009  0.1315362E+04  0.7818608E-02  0.9017471E-01
         -1   -1    0    0    0  501 -0.00000000000E+00  0.00000000000E+00  0.55788310322E+03  0.55788310324E+03  0.50400000000E-02 0.  1.
          1   -1    0    0  501    0  0.00000000000E+00 -0.00000000000E+00 -0.49872547613E+04  0.49872547613E+04  0.50400000000E-02 0. -1.
    8880022    1    1    2    0    0 -0.29340790849E+03 -0.12730664961E+04 -0.39196452842E+04  0.41344645737E+04  0.15294330000E+03 0.  0.
    8880022    1    1    2    0    0  0.29340790849E+03  0.12730664961E+04 -0.50972637389E+03  0.14106732908E+04  0.15294330000E+03 0.  0.
<mgrwt>
<rscale>  0 0.13153624E+04</rscale>
<asrwt>0</asrwt>
<pdfrwt beam="1">  1        1 0.76726994E+00 0.13153624E+04</pdfrwt>
<pdfrwt beam="2">  1       -1 0.85828173E-01 0.13153624E+04</pdfrwt>
<totfact> 0.12344017E-02</totfact>
</mgrwt>
</event>
<event>
 4    1  0.8749406E-009  0.7392418E+03  0.7818608E-02  0.9652381E-01
         -1   -1    0    0    0  501 -0.00000000000E+00  0.00000000000E+00  0.85933594075E+03  0.85933594076E+03  0.50400000000E-02 0.  1.
          1   -1    0    0  501    0  0.00000000000E+00 -0.00000000000E+00 -0.13239539373E+04  0.13239539373E+04  0.50400000000E-02 0. -1.
    8880022    1    1    2    0    0 -0.33987998980E+03  0.63841084410E+03 -0.10192576378E+04  0.12591126234E+04  0.15294330000E+03 0.  0.
    8880022    1    1    2    0    0  0.33987998980E+03 -0.63841084410E+03  0.55463964122E+03  0.92417725463E+03  0.15294330000E+03 0.  0.
<mgrwt>
<rscale>  0 0.73924182E+03</rscale>
<asrwt>0</asrwt>
<pdfrwt beam="1">  1        1 0.20368522E+00 0.73924182E+03</pdfrwt>
<pdfrwt beam="2">  1       -1 0.13220553E+00 0.73924182E+03</pdfrwt>
<totfact> 0.44043086E+00</totfact>
</mgrwt>
</event>
<event>
 4    1  0.8749406E-009  0.7805881E+03  0.7818608E-02  0.9588548E-01
         -1   -1    0    0    0  501 -0.00000000000E+00  0.00000000000E+00  0.83860502132E+03  0.83860502134E+03  0.50400000000E-02 0.  1.
          1   -1    0    0  501    0  0.00000000000E+00 -0.00000000000E+00 -0.13561300817E+04  0.13561300817E+04  0.50400000000E-02 0. -1.
    8880022    1    1    2    0    0  0.78447099632E+02  0.76142770595E+03 -0.10064410244E+04  0.12736723627E+04  0.15294330000E+03 0.  0.
    8880022    1    1    2    0    0 -0.78447099632E+02 -0.76142770595E+03  0.48891596401E+03  0.92106274038E+03  0.15294330000E+03 0.  0.
<mgrwt>
<rscale>  0 0.78058808E+03</rscale>
<asrwt>0</asrwt>
<pdfrwt beam="1">  1        1 0.20863540E+00 0.78058808E+03</pdfrwt>
<pdfrwt beam="2">  1       -1 0.12901616E+00 0.78058808E+03</pdfrwt>
<totfact> 0.44167755E+00</totfact>
</mgrwt>
</event>
<event>
 4    1  0.8749406E-009  0.1661017E+03  0.7818608E-02  0.1181975E+00
         -1   -1    0    0    0  501 -0.00000000000E+00  0.00000000000E+00  0.45993379644E+03  0.45993379646E+03  0.50400000000E-02 0.  1.
          1   -1    0    0  501    0  0.00000000000E+00 -0.00000000000E+00 -0.32366522140E+03  0.32366522144E+03  0.50400000000E-02 0. -1.
    8880022    1    1    2    0    0  0.31600826088E+02  0.56564067655E+02  0.42176788440E+03  0.45329670998E+03  0.15294330000E+03 0.  0.
    8880022    1    1    2    0    0 -0.31600826088E+02 -0.56564067655E+02 -0.28549930936E+03  0.33030230792E+03  0.15294330000E+03 0. -1.
<mgrwt>
<rscale>  0 0.16610165E+03</rscale>
<asrwt>0</asrwt>
<pdfrwt beam="1">  1        1 0.49794650E-01 0.16610165E+03</pdfrwt>
<pdfrwt beam="2">  1       -1 0.70759045E-01 0.16610165E+03</pdfrwt>
<totfact> 0.17101750E+02</totfact>
</mgrwt>
</event>
<event>
 4    1  0.8749406E-009  0.4748579E+03  0.7818608E-02  0.1020558E+00
         -1   -1    0    0    0  501 -0.00000000000E+00  0.00000000000E+00  0.20775500223E+03  0.20775500229E+03  0.50400000000E-02 0.  1.
          1   -1    0    0  501    0  0.00000000000E+00 -0.00000000000E+00 -0.25695911417E+04  0.25695911417E+04  0.50400000000E-02 0. -1.
    8880022    1    1    2    0    0  0.44855934451E+03 -0.29880742623E+02 -0.22363203951E+04  0.22861799812E+04  0.15294330000E+03 0.  0.
    8880022    1    1    2    0    0 -0.44855934451E+03  0.29880742623E+02 -0.12551574444E+03  0.49116616276E+03  0.15294330000E+03 0.  0.
<mgrwt>
<rscale>  0 0.47485787E+03</rscale>
<asrwt>0</asrwt>
<pdfrwt beam="1">  1        1 0.39532169E+00 0.47485787E+03</pdfrwt>
<pdfrwt beam="2">  1       -1 0.31962310E-01 0.47485787E+03</pdfrwt>
<totfact> 0.12311127E+01</totfact>
</mgrwt>
</event>
<event>
 4    1  0.8749406E-009  0.1253107E+04  0.7818608E-02  0.9067601E-01
          1   -1    0    0  501    0  0.00000000000E+00  0.00000000000E+00  0.23496649116E+04  0.23496649116E+04  0.50400000000E-02 0. -1.
         -1   -1    0    0    0  501 -0.00000000000E+00 -0.00000000000E+00 -0.10299440652E+04  0.10299440652E+04  0.50400000000E-02 0.  1.
    8880022    1    1    2    0    0 -0.62940221308E+03  0.10727246471E+04  0.16611768866E+04  0.20808136908E+04  0.15294330000E+03 0.  0.
    8880022    1    1    2    0    0  0.62940221308E+03 -0.10727246471E+04 -0.34145604017E+03  0.12987952859E+04  0.15294330000E+03 0.  0.
<mgrwt>
<rscale>  0 0.12531069E+04</rscale>
<asrwt>0</asrwt>
<pdfrwt beam="1">  1        1 0.36148691E+00 0.12531069E+04</pdfrwt>
<pdfrwt beam="2">  1       -1 0.15845293E+00 0.12531069E+04</pdfrwt>
<totfact> 0.50519185E-01</totfact>
</mgrwt>
</event>
<event>
 4    1  0.8749406E-009  0.7601016E+03  0.7818608E-02  0.9619634E-01
          1   -1    0    0  501    0  0.00000000000E+00  0.00000000000E+00  0.28713810579E+04  0.28713810579E+04  0.50400000000E-02 0. -1.
         -1   -1    0    0    0  501 -0.00000000000E+00 -0.00000000000E+00 -0.40153453318E+03  0.40153453322E+03  0.50400000000E-02 0.  1.
    8880022    1    1    2    0    0 -0.60270136462E+03 -0.43716574432E+03  0.23907931726E+04  0.25087141069E+04  0.15294330000E+03 0.  0.
    8880022    1    1    2    0    0  0.60270136462E+03  0.43716574432E+03  0.79053352042E+02  0.76420148416E+03  0.15294330000E+03 0.  0.
<mgrwt>
<rscale>  0 0.76010162E+03</rscale>
<asrwt>0</asrwt>
<pdfrwt beam="1">  1        1 0.44175093E+00 0.76010162E+03</pdfrwt>
<pdfrwt beam="2">  1       -1 0.61774543E-01 0.76010162E+03</pdfrwt>
<totfact> 0.21056176E+00</totfact>
</mgrwt>
</event>
<event>
 4    1  0.8749406E-009  0.5850271E+03  0.7818608E-02  0.9936966E-01
         -1   -1    0    0    0  501 -0.00000000000E+00  0.00000000000E+00  0.68465561898E+03  0.68465561900E+03  0.50400000000E-02 0.  1.
          1   -1    0    0  501    0  0.00000000000E+00 -0.00000000000E+00 -0.12600056728E+04  0.12600056728E+04  0.50400000000E-02 0. -1.
    8880022    1    1    2    0    0  0.54472878545E+03  0.14878041818E+03 -0.10428816803E+04  0.11957670821E+04  0.15294330000E+03 0.  0.
    8880022    1    1    2    0    0 -0.54472878545E+03 -0.14878041818E+03  0.46753162650E+03  0.74889420970E+03  0.15294330000E+03 0.  0.
<mgrwt>
<rscale>  0 0.58502711E+03</rscale>
<asrwt>0</asrwt>
<pdfrwt beam="1">  1        1 0.19384703E+00 0.58502711E+03</pdfrwt>
<pdfrwt beam="2">  1       -1 0.10533163E+00 0.58502711E+03</pdfrwt>
<totfact> 0.87018812E+00</totfact>
</mgrwt>
</event>
<event>
 4    1  0.8749406E-009  0.1505525E+04  0.7818608E-02  0.8880787E-01
         -1   -1    0    0    0  501 -0.00000000000E+00  0.00000000000E+00  0.13431674170E+04  0.13431674170E+04  0.50400000000E-02 0.  1.
          1   -1    0    0  501    0  0.00000000000E+00 -0.00000000000E+00 -0.18551134800E+04  0.18551134800E+04  0.50400000000E-02 0. -1.
    8880022    1    1    2    0    0 -0.11387137947E+04  0.97290500756E+03  0.22469616722E+03  0.15222001447E+04  0.15294330000E+03 0.  0.
    8880022    1    1    2    0    0  0.11387137947E+04 -0.97290500756E+03 -0.73664223021E+03  0.16760807523E+04  0.15294330000E+03 0.  0.
<mgrwt>
<rscale>  0 0.15055248E+04</rscale>
<asrwt>0</asrwt>
<pdfrwt beam="1">  1        1 0.28540207E+00 0.15055248E+04</pdfrwt>
<pdfrwt beam="2">  1       -1 0.20664114E+00 0.15055248E+04</pdfrwt>
<totfact> 0.47852435E-01</totfact>
</mgrwt>
</event>
<event>
 4    1  0.8749406E-009  0.6863847E+03  0.7818608E-02  0.9740804E-01
          1   -1    0    0  501    0  0.00000000000E+00  0.00000000000E+00  0.74445484527E+03  0.74445484529E+03  0.50400000000E-02 0. -1.
         -1   -1    0    0    0  501 -0.00000000000E+00 -0.00000000000E+00 -0.63286361823E+03  0.63286361825E+03  0.50400000000E-02 0.  1.
    8880022    1    1    2    0    0 -0.78014858372E+02  0.66456455463E+03  0.59598709872E+02  0.68896736108E+03  0.15294330000E+03 0. -1.
    8880022    1    1    2    0    0  0.78014858372E+02 -0.66456455463E+03  0.51992517168E+02  0.68835110246E+03  0.15294330000E+03 0.  1.
<mgrwt>
<rscale>  0 0.68638475E+03</rscale>
<asrwt>0</asrwt>
<pdfrwt beam="1">  1        1 0.11453151E+00 0.68638475E+03</pdfrwt>
<pdfrwt beam="2">  1       -1 0.97363634E-01 0.68638475E+03</pdfrwt>
<totfact> 0.25934509E+01</totfact>
</mgrwt>
</event>
<event>
 4    1  0.8749406E-009  0.1694690E+03  0.7818608E-02  0.1178403E+00
         -1   -1    0    0    0  501 -0.00000000000E+00  0.00000000000E+00  0.45312231140E+03  0.45312231143E+03  0.50400000000E-02 0.  1.
          1   -1    0    0  501    0  0.00000000000E+00 -0.00000000000E+00 -0.12402754666E+04  0.12402754666E+04  0.50400000000E-02 0. -1.
    8880022    1    1    2    0    0  0.24471736440E+02  0.68769389574E+02  0.43120416042E+03  0.46331066878E+03  0.15294330000E+03 0.  0.
    8880022    1    1    2    0    0 -0.24471736440E+02 -0.68769389574E+02 -0.12183573156E+04  0.12300871093E+04  0.15294330000E+03 0. -1.
<mgrwt>
<rscale>  0 0.16946902E+03</rscale>
<asrwt>0</asrwt>
<pdfrwt beam="1">  1        1 0.19081161E+00 0.16946902E+03</pdfrwt>
<pdfrwt beam="2">  1       -1 0.69711125E-01 0.16946902E+03</pdfrwt>
<totfact> 0.24740180E+01</totfact>
</mgrwt>
</event>
<event>
 4    1  0.8749406E-009  0.1509681E+04  0.7818608E-02  0.8878041E-01
          1   -1    0    0  501    0  0.00000000000E+00  0.00000000000E+00  0.26409867968E+04  0.26409867968E+04  0.50400000000E-02 0. -1.
         -1   -1    0    0    0  501 -0.00000000000E+00 -0.00000000000E+00 -0.12929581163E+04  0.12929581163E+04  0.50400000000E-02 0.  1.
    8880022    1    1    2    0    0  0.14268754860E+04 -0.46879823285E+03  0.18083085800E+04  0.23556563861E+04  0.15294330000E+03 0.  0.
    8880022    1    1    2    0    0 -0.14268754860E+04  0.46879823285E+03 -0.46027989955E+03  0.15782885271E+04  0.15294330000E+03 0.  0.
<mgrwt>
<rscale>  0 0.15096811E+04</rscale>
<asrwt>0</asrwt>
<pdfrwt beam="1">  1        1 0.40630566E+00 0.15096811E+04</pdfrwt>
<pdfrwt beam="2">  1       -1 0.19891663E+00 0.15096811E+04</pdfrwt>
<totfact> 0.15623984E-01</totfact>
</mgrwt>
</event>
<event>
 4    1  0.8749406E-009  0.5330374E+03  0.7818608E-02  0.1005498E+00
         -1   -1    0    0    0  501 -0.00000000000E+00  0.00000000000E+00  0.92280711559E+03  0.92280711560E+03  0.50400000000E-02 0.  1.
          1   -1    0    0  501    0  0.00000000000E+00 -0.00000000000E+00 -0.12837967735E+04  0.12837967735E+04  0.50400000000E-02 0. -1.
    8880022    1    1    2    0    0 -0.19763303591E+03  0.47082732474E+03 -0.11424371270E+04  0.12606710233E+04  0.15294330000E+03 0.  0.
    8880022    1    1    2    0    0  0.19763303591E+03 -0.47082732474E+03  0.78144746916E+03  0.94593286584E+03  0.15294330000E+03 0.  0.
<mgrwt>
<rscale>  0 0.53303737E+03</rscale>
<asrwt>0</asrwt>
<pdfrwt beam="1">  1        1 0.19750720E+00 0.53303737E+03</pdfrwt>
<pdfrwt beam="2">  1       -1 0.14197033E+00 0.53303737E+03</pdfrwt>
<totfact> 0.40802584E+00</totfact>
</mgrwt>
</event>
<event>
 4    1  0.8749406E-009  0.4224835E+03  0.7818608E-02  0.1036261E+00
          1   -1    0    0  501    0  0.00000000000E+00  0.00000000000E+00  0.27215505508E+03  0.27215505513E+03  0.50400000000E-02 0. -1.
         -1   -1    0    0    0  501 -0.00000000000E+00 -0.00000000000E+00 -0.15367570599E+04  0.15367570599E+04  0.50400000000E-02 0.  1.
    8880022    1    1    2    0    0  0.33072429871E+03  0.21382719770E+03  0.52478037823E+02  0.42573023113E+03  0.15294330000E+03 0.  0.
    8880022    1    1    2    0    0 -0.33072429871E+03 -0.21382719770E+03 -0.13170800426E+04  0.13831818839E+04  0.15294330000E+03 0.  0.
<mgrwt>
<rscale>  0 0.42248347E+03</rscale>
<asrwt>0</asrwt>
<pdfrwt beam="1">  1        1 0.41870009E-01 0.42248347E+03</pdfrwt>
<pdfrwt beam="2">  1       -1 0.23642416E+00 0.42248347E+03</pdfrwt>
<totfact> 0.92986189E+00</totfact>
</mgrwt>
</event>
<event>
 4    1  0.8749406E-009  0.6907110E+03  0.7818608E-02  0.9733251E-01
          1   -1    0    0  501    0  0.00000000000E+00  0.00000000000E+00  0.21328562203E+04  0.21328562203E+04  0.50400000000E-02 0. -1.
         -1   -1    0    0    0  501 -0.00000000000E+00 -0.00000000000E+00 -0.13310210616E+04  0.13310210616E+04  0.50400000000E-02 0.  1.
    8880022    1    1    2    0    0 -0.60358860714E+03  0.29894951556E+03  0.19806383785E+04  0.20976200940E+04  0.15294330000E+03 0.  0.
    8880022    1    1    2    0    0  0.60358860714E+03 -0.29894951556E+03 -0.11788032197E+04  0.13662571879E+04  0.15294330000E+03 0.  0.
<mgrwt>
<rscale>  0 0.69071099E+03</rscale>
<asrwt>0</asrwt>
<pdfrwt beam="1">  1        1 0.32813172E+00 0.69071099E+03</pdfrwt>
<pdfrwt beam="2">  1       -1 0.20477247E+00 0.69071099E+03</pdfrwt>
<totfact> 0.36658490E-01</totfact>
</mgrwt>
</event>
<event>
 4    1  0.8749406E-009  0.2047997E+03  0.7818608E-02  0.1145752E+00
         -1   -1    0    0    0  501 -0.00000000000E+00  0.00000000000E+00  0.20431645311E+03  0.20431645317E+03  0.50400000000E-02 0.  1.
          1   -1    0    0  501    0  0.00000000000E+00 -0.00000000000E+00 -0.10765472055E+04  0.10765472055E+04  0.50400000000E-02 0. -1.
    8880022    1    1    2    0    0  0.10985531355E+03 -0.80517531647E+02 -0.10122593652E+04  0.10327690633E+04  0.15294330000E+03 0. -1.
    8880022    1    1    2    0    0 -0.10985531355E+03  0.80517531647E+02  0.14002861278E+03  0.24809459533E+03  0.15294330000E+03 0.  0.
<mgrwt>
<rscale>  0 0.20479970E+03</rscale>
<asrwt>0</asrwt>
<pdfrwt beam="1">  1        1 0.16562264E+00 0.20479970E+03</pdfrwt>
<pdfrwt beam="2">  1       -1 0.31433301E-01 0.20479970E+03</pdfrwt>
<totfact> 0.13592827E+02</totfact>
</mgrwt>
</event>
<event>
 4    1  0.8749406E-009  0.1221934E+04  0.7818608E-02  0.9093872E-01
         -1   -1    0    0    0  501 -0.00000000000E+00  0.00000000000E+00  0.21692974223E+04  0.21692974223E+04  0.50400000000E-02 0.  1.
          1   -1    0    0  501    0  0.00000000000E+00 -0.00000000000E+00 -0.79455166770E+03  0.79455166772E+03  0.50400000000E-02 0. -1.
    8880022    1    1    2    0    0  0.30648523701E+03 -0.11729436236E+04  0.12292968691E+04  0.17332894710E+04  0.15294330000E+03 0.  0.
    8880022    1    1    2    0    0 -0.30648523701E+03  0.11729436236E+04  0.14544888549E+03  0.12305596191E+04  0.15294330000E+03 0.  0.
<mgrwt>
<rscale>  0 0.12219335E+04</rscale>
<asrwt>0</asrwt>
<pdfrwt beam="1">  1        1 0.12223872E+00 0.12219335E+04</pdfrwt>
<pdfrwt beam="2">  1       -1 0.33373806E+00 0.12219335E+04</pdfrwt>
<totfact> 0.43884573E-01</totfact>
</mgrwt>
</event>
<event>
 4    1  0.8749406E-009  0.1530494E+04  0.7818608E-02  0.8864425E-01
         -1   -1    0    0    0  501 -0.00000000000E+00  0.00000000000E+00  0.13484460011E+04  0.13484460012E+04  0.50400000000E-02 0.  1.
          1   -1    0    0  501    0  0.00000000000E+00 -0.00000000000E+00 -0.22102306236E+04  0.22102306237E+04  0.50400000000E-02 0. -1.
    8880022    1    1    2    0    0  0.15228295728E+04  0.29791574214E+01 -0.12541234562E+04  0.19786955500E+04  0.15294330000E+03 0.  0.
    8880022    1    1    2    0    0 -0.15228295728E+04 -0.29791574214E+01  0.39233883373E+03  0.15799810748E+04  0.15294330000E+03 0.  0.
<mgrwt>
<rscale>  0 0.15304935E+04</rscale>
<asrwt>0</asrwt>
<pdfrwt beam="1">  1        1 0.34003548E+00 0.15304935E+04</pdfrwt>
<pdfrwt beam="2">  1       -1 0.20745323E+00 0.15304935E+04</pdfrwt>
<totfact> 0.27001048E-01</totfact>
</mgrwt>
</event>
<event>
 4    1  0.8749406E-009  0.8583199E+03  0.7818608E-02  0.9479238E-01
         -1   -1    0    0    0  501 -0.00000000000E+00  0.00000000000E+00  0.61309110811E+03  0.61309110814E+03  0.50400000000E-02 0.  1.
          1   -1    0    0  501    0  0.00000000000E+00 -0.00000000000E+00 -0.28729976148E+04  0.28729976148E+04  0.50400000000E-02 0. -1.
    8880022    1    1    2    0    0 -0.69703262271E+03  0.47693498473E+03 -0.24594150371E+04  0.26048868372E+04  0.15294330000E+03 0.  0.
    8880022    1    1    2    0    0  0.69703262271E+03 -0.47693498473E+03  0.19950853039E+03  0.88120188578E+03  0.15294330000E+03 0.  0.
<mgrwt>
<rscale>  0 0.85831993E+03</rscale>
<asrwt>0</asrwt>
<pdfrwt beam="1">  1        1 0.44199963E+00 0.85831993E+03</pdfrwt>
<pdfrwt beam="2">  1       -1 0.94321710E-01 0.85831993E+03</pdfrwt>
<totfact> 0.84582261E-01</totfact>
</mgrwt>
</event>
<event>
 4    1  0.8749406E-009  0.4959407E+03  0.7818608E-02  0.1014844E+00
         -1   -1    0    0    0  501 -0.00000000000E+00  0.00000000000E+00  0.42007869656E+03  0.42007869659E+03  0.50400000000E-02 0.  1.
          1   -1    0    0  501    0  0.00000000000E+00 -0.00000000000E+00 -0.29459542273E+04  0.29459542273E+04  0.50400000000E-02 0. -1.
    8880022    1    1    2    0    0  0.63146964363E+01 -0.47172626568E+03  0.24357533519E+03  0.55252705097E+03  0.15294330000E+03 0.  0.
    8880022    1    1    2    0    0 -0.63146964363E+01  0.47172626568E+03 -0.27694508659E+04  0.28135058729E+04  0.15294330000E+03 0.  0.
<mgrwt>
<rscale>  0 0.49594072E+03</rscale>
<asrwt>0</asrwt>
<pdfrwt beam="1">  1        1 0.45322371E+00 0.49594072E+03</pdfrwt>
<pdfrwt beam="2">  1       -1 0.64627494E-01 0.49594072E+03</pdfrwt>
<totfact> 0.18244063E+00</totfact>
</mgrwt>
</event>
<event>
 4    1  0.8749406E-009  0.7301635E+03  0.7818608E-02  0.9666995E-01
         -1   -1    0    0    0  501 -0.00000000000E+00  0.00000000000E+00  0.66779825904E+03  0.66779825906E+03  0.50400000000E-02 0.  1.
          1   -1    0    0  501    0  0.00000000000E+00 -0.00000000000E+00 -0.23173752239E+04  0.23173752240E+04  0.50400000000E-02 0. -1.
    8880022    1    1    2    0    0  0.65175534893E+03 -0.29148258498E+03 -0.20332239262E+04  0.21603560631E+04  0.15294330000E+03 0.  0.
    8880022    1    1    2    0    0 -0.65175534893E+03  0.29148258498E+03  0.38364696134E+03  0.82481741989E+03  0.15294330000E+03 0.  0.
<mgrwt>
<rscale>  0 0.73016353E+03</rscale>
<asrwt>0</asrwt>
<pdfrwt beam="1">  1        1 0.35651926E+00 0.73016353E+03</pdfrwt>
<pdfrwt beam="2">  1       -1 0.10273819E+00 0.73016353E+03</pdfrwt>
<totfact> 0.17279535E+00</totfact>
</mgrwt>
</event>
<event>
 4    1  0.8749406E-009  0.5793615E+03  0.7818608E-02  0.9949174E-01
          1   -1    0    0  501    0  0.00000000000E+00  0.00000000000E+00  0.22441381698E+04  0.22441381698E+04  0.50400000000E-02 0. -1.
         -1   -1    0    0    0  501 -0.00000000000E+00 -0.00000000000E+00 -0.69129654575E+03  0.69129654577E+03  0.50400000000E-02 0.  1.
    8880022    1    1    2    0    0  0.54784249231E+03  0.11016664862E+03 -0.52284970134E+03  0.78040473477E+03  0.15294330000E+03 0.  0.
    8880022    1    1    2    0    0 -0.54784249231E+03 -0.11016664862E+03  0.20756913254E+04  0.21550299808E+04  0.15294330000E+03 0.  0.
<mgrwt>
<rscale>  0 0.57936149E+03</rscale>
<asrwt>0</asrwt>
<pdfrwt beam="1">  1        1 0.34525203E+00 0.57936149E+03</pdfrwt>
<pdfrwt beam="2">  1       -1 0.10635331E+00 0.57936149E+03</pdfrwt>
<totfact> 0.18517025E+00</totfact>
</mgrwt>
</event>
<event>
 4    1  0.8749406E-009  0.1030775E+04  0.7818608E-02  0.9275421E-01
          1   -1    0    0  501    0  0.00000000000E+00  0.00000000000E+00  0.19540085989E+04  0.19540085989E+04  0.50400000000E-02 0. -1.
         -1   -1    0    0    0  501 -0.00000000000E+00 -0.00000000000E+00 -0.17631701940E+04  0.17631701940E+04  0.50400000000E-02 0.  1.
    8880022    1    1    2    0    0 -0.94467944636E+03  0.38299635964E+03  0.16410742555E+04  0.19379426805E+04  0.15294330000E+03 0.  0.
    8880022    1    1    2    0    0  0.94467944636E+03 -0.38299635964E+03 -0.14502358506E+04  0.17792361123E+04  0.15294330000E+03 0.  0.
<mgrwt>
<rscale>  0 0.10307750E+04</rscale>
<asrwt>0</asrwt>
<pdfrwt beam="1">  1        1 0.30061671E+00 0.10307750E+04</pdfrwt>
<pdfrwt beam="2">  1       -1 0.27125695E+00 0.10307750E+04</pdfrwt>
<totfact> 0.16440445E-01</totfact>
</mgrwt>
</event>
<event>
 4    1  0.8749406E-009  0.1091208E+04  0.7818608E-02  0.9213804E-01
         -1   -1    0    0    0  501 -0.00000000000E+00  0.00000000000E+00  0.14659531930E+04  0.14659531931E+04  0.50400000000E-02 0.  1.
          1   -1    0    0  501    0  0.00000000000E+00 -0.00000000000E+00 -0.19988049278E+04  0.19988049278E+04  0.50400000000E-02 0. -1.
    8880022    1    1    2    0    0  0.82365435011E+03  0.69923995839E+03 -0.16011756950E+04  0.19376527726E+04  0.15294330000E+03 0.  0.
    8880022    1    1    2    0    0 -0.82365435011E+03 -0.69923995839E+03  0.10683239602E+04  0.15271053483E+04  0.15294330000E+03 0.  0.
<mgrwt>
<rscale>  0 0.10912079E+04</rscale>
<asrwt>0</asrwt>
<pdfrwt beam="1">  1        1 0.30750845E+00 0.10912079E+04</pdfrwt>
<pdfrwt beam="2">  1       -1 0.22553126E+00 0.10912079E+04</pdfrwt>
<totfact> 0.30137952E-01</totfact>
</mgrwt>
</event>
<event>
 4    1  0.8749406E-009  0.1213090E+04  0.7818608E-02  0.9101475E-01
          1   -1    0    0  501    0  0.00000000000E+00  0.00000000000E+00  0.20768345474E+04  0.20768345474E+04  0.50400000000E-02 0. -1.
         -1   -1    0    0    0  501 -0.00000000000E+00 -0.00000000000E+00 -0.15790665158E+04  0.15790665158E+04  0.50400000000E-02 0.  1.
    8880022    1    1    2    0    0 -0.96305802009E+03  0.72160572142E+03  0.16060944714E+04  0.20127410840E+04  0.15294330000E+03 0.  0.
    8880022    1    1    2    0    0  0.96305802009E+03 -0.72160572142E+03 -0.11083264398E+04  0.16431599792E+04  0.15294330000E+03 0.  0.
<mgrwt>
<rscale>  0 0.12130899E+04</rscale>
<asrwt>0</asrwt>
<pdfrwt beam="1">  1        1 0.31951301E+00 0.12130899E+04</pdfrwt>
<pdfrwt beam="2">  1       -1 0.24293331E+00 0.12130899E+04</pdfrwt>
<totfact> 0.20106524E-01</totfact>
</mgrwt>
</event>
<event>
 4    1  0.8749406E-009  0.5399307E+03  0.7818608E-02  0.1003852E+00
         -1   -1    0    0    0  501 -0.00000000000E+00  0.00000000000E+00  0.10666437783E+04  0.10666437783E+04  0.50400000000E-02 0.  1.
          1   -1    0    0  501    0  0.00000000000E+00 -0.00000000000E+00 -0.10777261416E+04  0.10777261417E+04  0.50400000000E-02 0. -1.
    8880022    1    1    2    0    0  0.46498631169E+03  0.22786231180E+03 -0.93184979413E+03  0.10769722350E+04  0.15294330000E+03 0.  0.
    8880022    1    1    2    0    0 -0.46498631169E+03 -0.22786231180E+03  0.92076743074E+03  0.10673976849E+04  0.15294330000E+03 0.  0.
<mgrwt>
<rscale>  0 0.53993070E+03</rscale>
<asrwt>0</asrwt>
<pdfrwt beam="1">  1        1 0.16580402E+00 0.53993070E+03</pdfrwt>
<pdfrwt beam="2">  1       -1 0.16409904E+00 0.53993070E+03</pdfrwt>
<totfact> 0.38841507E+00</totfact>
</mgrwt>
</event>
<event>
 4    1  0.8749406E-009  0.5877180E+03  0.7818608E-02  0.9931220E-01
         -1   -1    0    0    0  501 -0.00000000000E+00  0.00000000000E+00  0.34164373165E+03  0.34164373168E+03  0.50400000000E-02 0.  1.
          1   -1    0    0  501    0  0.00000000000E+00 -0.00000000000E+00 -0.14576604162E+04  0.14576604162E+04  0.50400000000E-02 0. -1.
    8880022    1    1    2    0    0  0.22760010642E+03  0.51982594065E+03 -0.60019086827E+02  0.59077471241E+03  0.15294330000E+03 0.  0.
    8880022    1    1    2    0    0 -0.22760010642E+03 -0.51982594065E+03 -0.10559975977E+04  0.12085294355E+04  0.15294330000E+03 0.  0.
<mgrwt>
<rscale>  0 0.58771802E+03</rscale>
<asrwt>0</asrwt>
<pdfrwt beam="1">  1        1 0.22425545E+00 0.58771802E+03</pdfrwt>
<pdfrwt beam="2">  1       -1 0.52560575E-01 0.58771802E+03</pdfrwt>
<totfact> 0.26969024E+01</totfact>
</mgrwt>
</event>
<event>
 4    1  0.8749406E-009  0.5052671E+03  0.7818608E-02  0.1012413E+00
         -1   -1    0    0    0  501 -0.00000000000E+00  0.00000000000E+00  0.41134564182E+03  0.41134564185E+03  0.50400000000E-02 0.  1.
          1   -1    0    0  501    0  0.00000000000E+00 -0.00000000000E+00 -0.14386056606E+04  0.14386056606E+04  0.50400000000E-02 0. -1.
    8880022    1    1    2    0    0 -0.36934046468E+03  0.30901587923E+03  0.18384508680E+03  0.53767449392E+03  0.15294330000E+03 0.  0.
    8880022    1    1    2    0    0  0.36934046468E+03 -0.30901587923E+03 -0.12111051055E+04  0.13122768085E+04  0.15294330000E+03 0.  0.
<mgrwt>
<rscale>  0 0.50526710E+03</rscale>
<asrwt>0</asrwt>
<pdfrwt beam="1">  1        1 0.22132394E+00 0.50526710E+03</pdfrwt>
<pdfrwt beam="2">  1       -1 0.63283946E-01 0.50526710E+03</pdfrwt>
<totfact> 0.19667361E+01</totfact>
</mgrwt>
</event>
<event>
 4    1  0.8749406E-009  0.1412571E+04  0.7818608E-02  0.8944769E-01
          1   -1    0    0  501    0  0.00000000000E+00  0.00000000000E+00  0.17016000675E+04  0.17016000675E+04  0.50400000000E-02 0. -1.
         -1   -1    0    0    0  501 -0.00000000000E+00 -0.00000000000E+00 -0.28357577971E+04  0.28357577971E+04  0.50400000000E-02 0.  1.
    8880022    1    1    2    0    0  0.11341085028E+04 -0.82810757053E+03  0.11703243513E+04  0.18343977172E+04  0.15294330000E+03 0.  0.
    8880022    1    1    2    0    0 -0.11341085028E+04  0.82810757053E+03 -0.23044820809E+04  0.27029601475E+04  0.15294330000E+03 0.  0.
<mgrwt>
<rscale>  0 0.14125707E+04</rscale>
<asrwt>0</asrwt>
<pdfrwt beam="1">  1        1 0.26178463E+00 0.14125707E+04</pdfrwt>
<pdfrwt beam="2">  1       -1 0.43627043E+00 0.14125707E+04</pdfrwt>
<totfact> 0.18313852E-02</totfact>
</mgrwt>
</event>
<event>
 4    1  0.8749406E-009  0.5589070E+03  0.7818608E-02  0.9994531E-01
          1   -1    0    0  501    0  0.00000000000E+00  0.00000000000E+00  0.26871004272E+03  0.26871004277E+03  0.50400000000E-02 0. -1.
         -1   -1    0    0    0  501 -0.00000000000E+00 -0.00000000000E+00 -0.16833152513E+04  0.16833152513E+04  0.50400000000E-02 0.  1.
    8880022    1    1    2    0    0  0.53318921943E+03 -0.68517689329E+02 -0.12501928132E+04  0.13694375271E+04  0.15294330000E+03 0.  1.
    8880022    1    1    2    0    0 -0.53318921943E+03  0.68517689329E+02 -0.16441239541E+03  0.58258776699E+03  0.15294330000E+03 0.  0.
<mgrwt>
<rscale>  0 0.55890703E+03</rscale>
<asrwt>0</asrwt>
<pdfrwt beam="1">  1        1 0.41340008E-01 0.55890703E+03</pdfrwt>
<pdfrwt beam="2">  1       -1 0.25897157E+00 0.55890703E+03</pdfrwt>
<totfact> 0.65966232E+00</totfact>
</mgrwt>
</event>
<event>
 4    1  0.8749406E-009  0.1233246E+04  0.7818608E-02  0.9084244E-01
          1   -1    0    0  501    0  0.00000000000E+00  0.00000000000E+00  0.13296084719E+04  0.13296084719E+04  0.50400000000E-02 0. -1.
         -1   -1    0    0    0  501 -0.00000000000E+00 -0.00000000000E+00 -0.14416320667E+04  0.14416320667E+04  0.50400000000E-02 0.  1.
    8880022    1    1    2    0    0  0.10762137090E+04 -0.58246822895E+03 -0.68573981296E+03  0.14110761600E+04  0.15294330000E+03 0.  0.
    8880022    1    1    2    0    0 -0.10762137090E+04  0.58246822895E+03  0.57371621809E+03  0.13601643787E+04  0.15294330000E+03 0.  0.
<mgrwt>
<rscale>  0 0.12332465E+04</rscale>
<asrwt>0</asrwt>
<pdfrwt beam="1">  1        1 0.20455515E+00 0.12332465E+04</pdfrwt>
<pdfrwt beam="2">  1       -1 0.22178955E+00 0.12332465E+04</pdfrwt>
<totfact> 0.90034320E-01</totfact>
</mgrwt>
</event>
<event>
 4    1  0.8749406E-009  0.9427851E+03  0.7818608E-02  0.9373624E-01
          1   -1    0    0  501    0  0.00000000000E+00  0.00000000000E+00  0.74024973683E+03  0.74024973685E+03  0.50400000000E-02 0. -1.
         -1   -1    0    0    0  501 -0.00000000000E+00 -0.00000000000E+00 -0.13015565864E+04  0.13015565864E+04  0.50400000000E-02 0.  1.
    8880022    1    1    2    0    0  0.61456836373E+03  0.69839665321E+03 -0.56479164552E+03  0.10990147473E+04  0.15294330000E+03 0.  0.
    8880022    1    1    2    0    0 -0.61456836373E+03 -0.69839665321E+03  0.34847959397E+01  0.94279157598E+03  0.15294330000E+03 0.  0.
<mgrwt>
<rscale>  0 0.94278514E+03</rscale>
<asrwt>0</asrwt>
<pdfrwt beam="1">  1        1 0.11388457E+00 0.94278514E+03</pdfrwt>
<pdfrwt beam="2">  1       -1 0.20023948E+00 0.94278514E+03</pdfrwt>
<totfact> 0.37888969E+00</totfact>
</mgrwt>
</event>
<event>
 4    1  0.8749406E-009  0.8414200E+03  0.7818608E-02  0.9501926E-01
          1   -1    0    0  501    0  0.00000000000E+00  0.00000000000E+00  0.12605432628E+04  0.12605432628E+04  0.50400000000E-02 0. -1.
         -1   -1    0    0    0  501 -0.00000000000E+00 -0.00000000000E+00 -0.16790195279E+04  0.16790195279E+04  0.50400000000E-02 0.  1.
    8880022    1    1    2    0    0  0.49272545857E+03 -0.66469364081E+03  0.98977168066E+03  0.12990903150E+04  0.15294330000E+03 0.  0.
    8880022    1    1    2    0    0 -0.49272545857E+03  0.66469364081E+03 -0.14082479458E+04  0.16404724757E+04  0.15294330000E+03 0.  0.
<mgrwt>
<rscale>  0 0.84142003E+03</rscale>
<asrwt>0</asrwt>
<pdfrwt beam="1">  1        1 0.19392973E+00 0.84142003E+03</pdfrwt>
<pdfrwt beam="2">  1       -1 0.25831070E+00 0.84142003E+03</pdfrwt>
<totfact> 0.61715951E-01</totfact>
</mgrwt>
</event>
<event>
 4    1  0.8749406E-009  0.6903800E+03  0.7818608E-02  0.9733826E-01
         -1   -1    0    0    0  501 -0.00000000000E+00  0.00000000000E+00  0.14420069180E+04  0.14420069180E+04  0.50400000000E-02 0.  1.
          1   -1    0    0  501    0  0.00000000000E+00 -0.00000000000E+00 -0.51056914459E+03  0.51056914462E+03  0.50400000000E-02 0. -1.
    8880022    1    1    2    0    0 -0.59482670400E+03 -0.31530007858E+03 -0.11402447004E+03  0.69973293486E+03  0.15294330000E+03 0.  0.
    8880022    1    1    2    0    0  0.59482670400E+03  0.31530007858E+03  0.10454622435E+04  0.12528431278E+04  0.15294330000E+03 0.  0.
<mgrwt>
<rscale>  0 0.69038004E+03</rscale>
<asrwt>0</asrwt>
<pdfrwt beam="1">  1        1 0.78549101E-01 0.69038004E+03</pdfrwt>
<pdfrwt beam="2">  1       -1 0.22184721E+00 0.69038004E+03</pdfrwt>
<totfact> 0.48219103E+00</totfact>
</mgrwt>
</event>
<event>
 4    1  0.8749406E-009  0.7914975E+03  0.7818608E-02  0.9572406E-01
         -1   -1    0    0    0  501 -0.00000000000E+00  0.00000000000E+00  0.10880535237E+04  0.10880535238E+04  0.50400000000E-02 0.  1.
          1   -1    0    0  501    0  0.00000000000E+00 -0.00000000000E+00 -0.96401975089E+03  0.96401975090E+03  0.50400000000E-02 0. -1.
    8880022    1    1    2    0    0  0.58745612236E+03 -0.50790938337E+03 -0.58912501461E+03  0.98667956970E+03  0.15294330000E+03 0.  0.
    8880022    1    1    2    0    0 -0.58745612236E+03  0.50790938337E+03  0.71315878746E+03  0.10653937050E+04  0.15294330000E+03 0.  0.
<mgrwt>
<rscale>  0 0.79149750E+03</rscale>
<asrwt>0</asrwt>
<pdfrwt beam="1">  1        1 0.14831073E+00 0.79149750E+03</pdfrwt>
<pdfrwt beam="2">  1       -1 0.16739285E+00 0.79149750E+03</pdfrwt>
<totfact> 0.42831843E+00</totfact>
</mgrwt>
</event>
<event>
 4    1  0.8749406E-009  0.5627463E+03  0.7818608E-02  0.9985860E-01
          1   -1    0    0  501    0  0.00000000000E+00  0.00000000000E+00  0.12637144213E+04  0.12637144213E+04  0.50400000000E-02 0. -1.
         -1   -1    0    0    0  501 -0.00000000000E+00 -0.00000000000E+00 -0.69134517529E+03  0.69134517531E+03  0.50400000000E-02 0.  1.
    8880022    1    1    2    0    0 -0.54152533899E+03  0.64870974805E+01 -0.49432389679E+03  0.74902572930E+03  0.15294330000E+03 0.  0.
    8880022    1    1    2    0    0  0.54152533899E+03 -0.64870974805E+01  0.10666931428E+04  0.12060338673E+04  0.15294330000E+03 0.  0.
<mgrwt>
<rscale>  0 0.56274633E+03</rscale>
<asrwt>0</asrwt>
<pdfrwt beam="1">  1        1 0.19441760E+00 0.56274633E+03</pdfrwt>
<pdfrwt beam="2">  1       -1 0.10636080E+00 0.56274633E+03</pdfrwt>
<totfact> 0.84944094E+00</totfact>
</mgrwt>
</event>
<event>
 4    1  0.8749406E-009  0.9352135E+03  0.7818608E-02  0.9382603E-01
          1   -1    0    0  501    0  0.00000000000E+00  0.00000000000E+00  0.93891612832E+03  0.93891612833E+03  0.50400000000E-02 0. -1.
         -1   -1    0    0    0  501 -0.00000000000E+00 -0.00000000000E+00 -0.10343725924E+04  0.10343725924E+04  0.50400000000E-02 0.  1.
    8880022    1    1    2    0    0 -0.87111547060E+02  0.91850109511E+03 -0.35884118894E+03  0.10016942324E+04  0.15294330000E+03 0.  0.
    8880022    1    1    2    0    0  0.87111547060E+02 -0.91850109511E+03  0.26338472489E+03  0.97159448829E+03  0.15294330000E+03 0.  0.
<mgrwt>
<rscale>  0 0.93521352E+03</rscale>
<asrwt>0</asrwt>
<pdfrwt beam="1">  1        1 0.14444864E+00 0.93521352E+03</pdfrwt>
<pdfrwt beam="2">  1       -1 0.15913424E+00 0.93521352E+03</pdfrwt>
<totfact> 0.50710027E+00</totfact>
</mgrwt>
</event>
<event>
 4    1  0.8749406E-009  0.9656453E+03  0.7818608E-02  0.9347048E-01
          1   -1    0    0  501    0  0.00000000000E+00  0.00000000000E+00  0.98963773489E+03  0.98963773490E+03  0.50400000000E-02 0. -1.
         -1   -1    0    0    0  501 -0.00000000000E+00 -0.00000000000E+00 -0.13235584873E+04  0.13235584873E+04  0.50400000000E-02 0.  1.
    8880022    1    1    2    0    0 -0.16712793755E+03  0.93869455282E+03  0.45384853951E+03  0.10669814248E+04  0.15294330000E+03 0.  0.
    8880022    1    1    2    0    0  0.16712793755E+03 -0.93869455282E+03 -0.78776929187E+03  0.12462147974E+04  0.15294330000E+03 0.  0.
<mgrwt>
<rscale>  0 0.96564531E+03</rscale>
<asrwt>0</asrwt>
<pdfrwt beam="1">  1        1 0.15225196E+00 0.96564531E+03</pdfrwt>
<pdfrwt beam="2">  1       -1 0.20362438E+00 0.96564531E+03</pdfrwt>
<totfact> 0.22106415E+00</totfact>
</mgrwt>
</event>
<event>
 4    1  0.8749406E-009  0.8176559E+03  0.7818608E-02  0.9534807E-01
          1   -1    0    0  501    0  0.00000000000E+00  0.00000000000E+00  0.14250599262E+04  0.14250599262E+04  0.50400000000E-02 0. -1.
         -1   -1    0    0    0  501 -0.00000000000E+00 -0.00000000000E+00 -0.68610809004E+03  0.68610809006E+03  0.50400000000E-02 0.  1.
    8880022    1    1    2    0    0 -0.36090375666E+03 -0.71757789940E+03  0.96306844307E+03  0.12633534906E+04  0.15294330000E+03 0.  0.
    8880022    1    1    2    0    0  0.36090375666E+03  0.71757789940E+03 -0.22411660694E+03  0.84781452559E+03  0.15294330000E+03 0.  0.
<mgrwt>
<rscale>  0 0.81765593E+03</rscale>
<asrwt>0</asrwt>
<pdfrwt beam="1">  1        1 0.21923999E+00 0.81765593E+03</pdfrwt>
<pdfrwt beam="2">  1       -1 0.10555509E+00 0.81765593E+03</pdfrwt>
<totfact> 0.63846146E+00</totfact>
</mgrwt>
</event>
<event>
 4    1  0.8749406E-009  0.9320877E+03  0.7818608E-02  0.9386336E-01
         -1   -1    0    0    0  501 -0.00000000000E+00  0.00000000000E+00  0.48635366964E+03  0.48635366967E+03  0.50400000000E-02 0.  1.
          1   -1    0    0  501    0  0.00000000000E+00 -0.00000000000E+00 -0.23250249226E+04  0.23250249226E+04  0.50400000000E-02 0. -1.
    8880022    1    1    2    0    0 -0.49520623265E+03  0.77470416843E+03 -0.15959599141E+04  0.18482087171E+04  0.15294330000E+03 0.  0.
    8880022    1    1    2    0    0  0.49520623265E+03 -0.77470416843E+03 -0.24271133884E+03  0.96316987518E+03  0.15294330000E+03 0.  0.
<mgrwt>
<rscale>  0 0.93208766E+03</rscale>
<asrwt>0</asrwt>
<pdfrwt beam="1">  1        1 0.35769613E+00 0.93208766E+03</pdfrwt>
<pdfrwt beam="2">  1       -1 0.74823643E-01 0.93208766E+03</pdfrwt>
<totfact> 0.32981479E+00</totfact>
</mgrwt>
</event>
<event>
 4    1  0.8749406E-009  0.1235203E+04  0.7818608E-02  0.9082590E-01
          1   -1    0    0  501    0  0.00000000000E+00  0.00000000000E+00  0.12584124524E+04  0.12584124524E+04  0.50400000000E-02 0. -1.
         -1   -1    0    0    0  501 -0.00000000000E+00 -0.00000000000E+00 -0.25870004695E+04  0.25870004695E+04  0.50400000000E-02 0.  1.
    8880022    1    1    2    0    0 -0.50983598691E+03 -0.11146305858E+04 -0.20658151481E+04  0.24069312320E+04  0.15294330000E+03 0.  0.
    8880022    1    1    2    0    0  0.50983598691E+03  0.11146305858E+04  0.73722713102E+03  0.14384816899E+04  0.15294330000E+03 0.  0.
<mgrwt>
<rscale>  0 0.12352027E+04</rscale>
<asrwt>0</asrwt>
<pdfrwt beam="1">  1        1 0.19360192E+00 0.12352027E+04</pdfrwt>
<pdfrwt beam="2">  1       -1 0.39800007E+00 0.12352027E+04</pdfrwt>
<totfact> 0.70482214E-02</totfact>
</mgrwt>
</event>
<event>
 4    1  0.8749406E-009  0.4696258E+03  0.7818608E-02  0.1022026E+00
          1   -1    0    0  501    0  0.00000000000E+00  0.00000000000E+00  0.66969910590E+03  0.66969910592E+03  0.50400000000E-02 0. -1.
         -1   -1    0    0    0  501 -0.00000000000E+00 -0.00000000000E+00 -0.94118931398E+03  0.94118931399E+03  0.50400000000E-02 0.  1.
    8880022    1    1    2    0    0  0.27513875725E+03  0.34850454181E+03 -0.78516361964E+03  0.91489360804E+03  0.15294330000E+03 0.  1.
    8880022    1    1    2    0    0 -0.27513875725E+03 -0.34850454181E+03  0.51367341156E+03  0.69599481188E+03  0.15294330000E+03 0.  0.
<mgrwt>
<rscale>  0 0.46962581E+03</rscale>
<asrwt>0</asrwt>
<pdfrwt beam="1">  1        1 0.10303063E+00 0.46962581E+03</pdfrwt>
<pdfrwt beam="2">  1       -1 0.14479836E+00 0.46962581E+03</pdfrwt>
<totfact> 0.12027975E+01</totfact>
</mgrwt>
</event>
<event>
 4    1  0.8749406E-009  0.3942246E+03  0.7818608E-02  0.1045798E+00
          1   -1    0    0  501    0  0.00000000000E+00  0.00000000000E+00  0.11226453158E+04  0.11226453158E+04  0.50400000000E-02 0. -1.
         -1   -1    0    0    0  501 -0.00000000000E+00 -0.00000000000E+00 -0.37145214665E+03  0.37145214669E+03  0.50400000000E-02 0.  1.
    8880022    1    1    2    0    0  0.21021307722E+03  0.29636442012E+03  0.96728316795E+03  0.10445332869E+04  0.15294330000E+03 0.  0.
    8880022    1    1    2    0    0 -0.21021307722E+03 -0.29636442012E+03 -0.21608999886E+03  0.44956417559E+03  0.15294330000E+03 0.  1.
<mgrwt>
<rscale>  0 0.39422463E+03</rscale>
<asrwt>0</asrwt>
<pdfrwt beam="1">  1        1 0.17271466E+00 0.39422463E+03</pdfrwt>
<pdfrwt beam="2">  1       -1 0.57146485E-01 0.39422463E+03</pdfrwt>
<totfact> 0.40885556E+01</totfact>
</mgrwt>
</event>
<event>
 4    1  0.8749406E-009  0.2792872E+03  0.7818608E-02  0.1096079E+00
          1   -1    0    0  501    0  0.00000000000E+00  0.00000000000E+00  0.19413978136E+04  0.19413978136E+04  0.50400000000E-02 0. -1.
         -1   -1    0    0    0  501 -0.00000000000E+00 -0.00000000000E+00 -0.15920730100E+03  0.15920730108E+03  0.50400000000E-02 0.  1.
    8880022    1    1    2    0    0 -0.13370972105E+02 -0.23330428800E+03  0.17992503432E+04  0.18207973869E+04  0.15294330000E+03 0.  0.
    8880022    1    1    2    0    0  0.13370972105E+02  0.23330428800E+03 -0.17059830581E+02  0.27980772779E+03  0.15294330000E+03 0.  0.
<mgrwt>
<rscale>  0 0.27928718E+03</rscale>
<asrwt>0</asrwt>
<pdfrwt beam="1">  1        1 0.29867660E+00 0.27928718E+03</pdfrwt>
<pdfrwt beam="2">  1       -1 0.24493430E-01 0.27928718E+03</pdfrwt>
<totfact> 0.53425748E+01</totfact>
</mgrwt>
</event>
<event>
 4    1  0.8749406E-009  0.2601800E+03  0.7818608E-02  0.1107035E+00
          1   -1    0    0  501    0  0.00000000000E+00  0.00000000000E+00  0.75692841741E+03  0.75692841742E+03  0.50400000000E-02 0. -1.
         -1   -1    0    0    0  501 -0.00000000000E+00 -0.00000000000E+00 -0.17257501034E+03  0.17257501041E+03  0.50400000000E-02 0.  1.
    8880022    1    1    2    0    0  0.10514199737E+03  0.18233797120E+03 -0.30408837364E+02  0.26195099877E+03  0.15294330000E+03 0.  0.
    8880022    1    1    2    0    0 -0.10514199737E+03 -0.18233797120E+03  0.61476224443E+03  0.66755242906E+03  0.15294330000E+03 0. -1.
<mgrwt>
<rscale>  0 0.26017999E+03</rscale>
<asrwt>0</asrwt>
<pdfrwt beam="1">  1        1 0.11645052E+00 0.26017999E+03</pdfrwt>
<pdfrwt beam="2">  1       -1 0.26550002E-01 0.26017999E+03</pdfrwt>
<totfact> 0.31844933E+02</totfact>
</mgrwt>
</event>
<event>
 4    1  0.8749406E-009  0.8691922E+03  0.7818608E-02  0.9464934E-01
         -1   -1    0    0    0  501 -0.00000000000E+00  0.00000000000E+00  0.45577814775E+03  0.45577814778E+03  0.50400000000E-02 0.  1.
          1   -1    0    0  501    0  0.00000000000E+00 -0.00000000000E+00 -0.16725858626E+04  0.16725858626E+04  0.50400000000E-02 0. -1.
    8880022    1    1    2    0    0  0.85556444742E+03 -0.10626243874E+02 -0.70915510416E+03  0.11217825349E+04  0.15294330000E+03 0.  0.
    8880022    1    1    2    0    0 -0.85556444742E+03  0.10626243874E+02 -0.50765261071E+03  0.10065814755E+04  0.15294330000E+03 0.  0.
<mgrwt>
<rscale>  0 0.86919221E+03</rscale>
<asrwt>0</asrwt>
<pdfrwt beam="1">  1        1 0.25732090E+00 0.86919221E+03</pdfrwt>
<pdfrwt beam="2">  1       -1 0.70119716E-01 0.86919221E+03</pdfrwt>
<totfact> 0.10470050E+01</totfact>
</mgrwt>
</event>
<event>
 4    1  0.8749406E-009  0.7991238E+03  0.7818608E-02  0.9561286E-01
         -1   -1    0    0    0  501 -0.00000000000E+00  0.00000000000E+00  0.12479719081E+04  0.12479719081E+04  0.50400000000E-02 0.  1.
          1   -1    0    0  501    0  0.00000000000E+00 -0.00000000000E+00 -0.12643861267E+04  0.12643861267E+04  0.50400000000E-02 0. -1.
    8880022    1    1    2    0    0  0.40091885230E+03 -0.67414490128E+03  0.96099851226E+03  0.12498468177E+04  0.15294330000E+03 0.  0.
    8880022    1    1    2    0    0 -0.40091885230E+03  0.67414490128E+03 -0.97741273079E+03  0.12625112171E+04  0.15294330000E+03 0.  0.
<mgrwt>
<rscale>  0 0.79912385E+03</rscale>
<asrwt>0</asrwt>
<pdfrwt beam="1">  1        1 0.19452094E+00 0.79912385E+03</pdfrwt>
<pdfrwt beam="2">  1       -1 0.19199568E+00 0.79912385E+03</pdfrwt>
<totfact> 0.17025960E+00</totfact>
</mgrwt>
</event>
<event>
 4    1  0.8749406E-009  0.7467680E+03  0.7818608E-02  0.9640435E-01
         -1   -1    0    0    0  501 -0.00000000000E+00  0.00000000000E+00  0.91172642066E+03  0.91172642067E+03  0.50400000000E-02 0.  1.
          1   -1    0    0  501    0  0.00000000000E+00 -0.00000000000E+00 -0.96990511548E+03  0.96990511550E+03  0.50400000000E-02 0. -1.
    8880022    1    1    2    0    0  0.24348215691E+03  0.68919315194E+03 -0.60087449809E+03  0.95849495402E+03  0.15294330000E+03 0.  0.
    8880022    1    1    2    0    0 -0.24348215691E+03 -0.68919315194E+03  0.54269580326E+03  0.92313658215E+03  0.15294330000E+03 0.  0.
<mgrwt>
<rscale>  0 0.74676798E+03</rscale>
<asrwt>0</asrwt>
<pdfrwt beam="1">  1        1 0.14921617E+00 0.74676798E+03</pdfrwt>
<pdfrwt beam="2">  1       -1 0.14026560E+00 0.74676798E+03</pdfrwt>
<totfact> 0.68975487E+00</totfact>
</mgrwt>
</event>
<event>
 4    1  0.8749406E-009  0.4978019E+03  0.7818608E-02  0.1014354E+00
         -1   -1    0    0    0  501 -0.00000000000E+00  0.00000000000E+00  0.32416551123E+03  0.32416551127E+03  0.50400000000E-02 0.  1.
          1   -1    0    0  501    0  0.00000000000E+00 -0.00000000000E+00 -0.10083582229E+04  0.10083582229E+04  0.50400000000E-02 0. -1.
    8880022    1    1    2    0    0  0.43830670801E+03 -0.17972851661E+03 -0.14412499105E+02  0.49801052511E+03  0.15294330000E+03 0.  0.
    8880022    1    1    2    0    0 -0.43830670801E+03  0.17972851661E+03 -0.66978021256E+03  0.83451320908E+03  0.15294330000E+03 0.  0.
<mgrwt>
<rscale>  0 0.49780193E+03</rscale>
<asrwt>0</asrwt>
<pdfrwt beam="1">  1        1 0.15513203E+00 0.49780193E+03</pdfrwt>
<pdfrwt beam="2">  1       -1 0.49871617E-01 0.49780193E+03</pdfrwt>
<totfact> 0.63277088E+01</totfact>
</mgrwt>
</event>
<event>
 4    1  0.8749406E-009  0.8767665E+03  0.7818608E-02  0.9455100E-01
          1   -1    0    0  501    0  0.00000000000E+00  0.00000000000E+00  0.84402252859E+03  0.84402252860E+03  0.50400000000E-02 0. -1.
         -1   -1    0    0    0  501 -0.00000000000E+00 -0.00000000000E+00 -0.15716140208E+04  0.15716140209E+04  0.50400000000E-02 0.  1.
    8880022    1    1    2    0    0 -0.60081533579E+03 -0.61995874419E+03 -0.11469991435E+04  0.14437197098E+04  0.15294330000E+03 0.  0.
    8880022    1    1    2    0    0  0.60081533579E+03  0.61995874419E+03  0.41940765127E+03  0.97191683964E+03  0.15294330000E+03 0.  0.
<mgrwt>
<rscale>  0 0.87676654E+03</rscale>
<asrwt>0</asrwt>
<pdfrwt beam="1">  1        1 0.12984962E+00 0.87676654E+03</pdfrwt>
<pdfrwt beam="2">  1       -1 0.24178677E+00 0.87676654E+03</pdfrwt>
<totfact> 0.16390521E+00</totfact>
</mgrwt>
</event>
<event>
 4    1  0.8749406E-009  0.2069132E+03  0.7818608E-02  0.1144034E+00
          1   -1    0    0  501    0  0.00000000000E+00  0.00000000000E+00  0.85139652812E+03  0.85139652813E+03  0.50400000000E-02 0. -1.
         -1   -1    0    0    0  501 -0.00000000000E+00 -0.00000000000E+00 -0.54576889706E+03  0.54576889708E+03  0.50400000000E-02 0.  1.
    8880022    1    1    2    0    0  0.12328562683E+03 -0.64977432221E+02  0.81843618893E+03  0.84418650833E+03  0.15294330000E+03 0. -1.
    8880022    1    1    2    0    0 -0.12328562683E+03  0.64977432221E+02 -0.51280855787E+03  0.55297891688E+03  0.15294330000E+03 0.  0.
<mgrwt>
<rscale>  0 0.20691318E+03</rscale>
<asrwt>0</asrwt>
<pdfrwt beam="1">  1        1 0.13098408E+00 0.20691318E+03</pdfrwt>
<pdfrwt beam="2">  1       -1 0.83964446E-01 0.20691318E+03</pdfrwt>
<totfact> 0.32037375E+01</totfact>
</mgrwt>
</event>
<event>
 4    1  0.8749406E-009  0.6787113E+03  0.7818608E-02  0.9754348E-01
          1   -1    0    0  501    0  0.00000000000E+00  0.00000000000E+00  0.99134123531E+03  0.99134123532E+03  0.50400000000E-02 0. -1.
         -1   -1    0    0    0  501 -0.00000000000E+00 -0.00000000000E+00 -0.13387190085E+04  0.13387190085E+04  0.50400000000E-02 0.  1.
    8880022    1    1    2    0    0  0.48532796602E+03 -0.44912594617E+03  0.76767972232E+03  0.10246858832E+04  0.15294330000E+03 0.  0.
    8880022    1    1    2    0    0 -0.48532796602E+03  0.44912594617E+03 -0.11150574955E+04  0.13053743607E+04  0.15294330000E+03 0.  0.
<mgrwt>
<rscale>  0 0.67871128E+03</rscale>
<asrwt>0</asrwt>
<pdfrwt beam="1">  1        1 0.15251404E+00 0.67871128E+03</pdfrwt>
<pdfrwt beam="2">  1       -1 0.20595677E+00 0.67871128E+03</pdfrwt>
<totfact> 0.22259412E+00</totfact>
</mgrwt>
</event>
<event>
 4    1  0.5619849E-008  0.1036823E+04  0.7818608E-02  0.9269056E-01
         -1   -1    0    0    0  501 -0.00000000000E+00  0.00000000000E+00  0.33051802530E+04  0.33051802530E+04  0.50400000000E-02 0.  1.
          1   -1    0    0  501    0  0.00000000000E+00 -0.00000000000E+00 -0.24048781120E+04  0.24048781120E+04  0.50400000000E-02 0. -1.
    8880022    1    1    2    0    0  0.40163666093E+03 -0.94355573809E+03 -0.22048037448E+04  0.24364237407E+04  0.15294330000E+03 0.  0.
    8880022    1    1    2    0    0 -0.40163666093E+03  0.94355573809E+03  0.31051058858E+04  0.32736346243E+04  0.15294330000E+03 0.  0.
<mgrwt>
<rscale>  0 0.10368226E+04</rscale>
<asrwt>0</asrwt>
<pdfrwt beam="1">  1        1 0.36998125E+00 0.10368226E+04</pdfrwt>
<pdfrwt beam="2">  1       -1 0.50848927E+00 0.10368226E+04</pdfrwt>
<totfact> 0.21182144E-03</totfact>
</mgrwt>
</event>
<event>
 4    1  0.8749406E-009  0.4519643E+03  0.7818608E-02  0.1027138E+00
         -1   -1    0    0    0  501 -0.00000000000E+00  0.00000000000E+00  0.63549042030E+03  0.63549042032E+03  0.50400000000E-02 0.  1.
          1   -1    0    0  501    0  0.00000000000E+00 -0.00000000000E+00 -0.18623858831E+04  0.18623858831E+04  0.50400000000E-02 0. -1.
    8880022    1    1    2    0    0 -0.39580148024E+03 -0.15563195636E+03 -0.17495040203E+04  0.18069410858E+04  0.15294330000E+03 0. -1.
    8880022    1    1    2    0    0  0.39580148024E+03  0.15563195636E+03  0.52260855747E+03  0.69093521762E+03  0.15294330000E+03 0.  0.
<mgrwt>
<rscale>  0 0.45196435E+03</rscale>
<asrwt>0</asrwt>
<pdfrwt beam="1">  1        1 0.28652090E+00 0.45196435E+03</pdfrwt>
<pdfrwt beam="2">  1       -1 0.97767758E-01 0.45196435E+03</pdfrwt>
<totfact> 0.41675856E+00</totfact>
</mgrwt>
</event>
<event>
 4    1  0.8749406E-009  0.9154810E+03  0.7818608E-02  0.9406434E-01
          1   -1    0    0  501    0  0.00000000000E+00  0.00000000000E+00  0.99419402533E+03  0.99419402535E+03  0.50400000000E-02 0. -1.
         -1   -1    0    0    0  501 -0.00000000000E+00 -0.00000000000E+00 -0.12091549102E+04  0.12091549102E+04  0.50400000000E-02 0.  1.
    8880022    1    1    2    0    0 -0.90133992995E+03 -0.47960450122E+02  0.49875980527E+03  0.10425290742E+04  0.15294330000E+03 0.  0.
    8880022    1    1    2    0    0  0.90133992995E+03  0.47960450122E+02 -0.71372069016E+03  0.11608198614E+04  0.15294330000E+03 0.  0.
<mgrwt>
<rscale>  0 0.91548104E+03</rscale>
<asrwt>0</asrwt>
<pdfrwt beam="1">  1        1 0.15295293E+00 0.91548104E+03</pdfrwt>
<pdfrwt beam="2">  1       -1 0.18602383E+00 0.91548104E+03</pdfrwt>
<totfact> 0.29244781E+00</totfact>
</mgrwt>
</event>
<event>
 4    1  0.8749406E-009  0.6402659E+03  0.7818608E-02  0.9825218E-01
         -1   -1    0    0    0  501 -0.00000000000E+00  0.00000000000E+00  0.34917444303E+03  0.34917444307E+03  0.50400000000E-02 0.  1.
          1   -1    0    0  501    0  0.00000000000E+00 -0.00000000000E+00 -0.16795878789E+04  0.16795878789E+04  0.50400000000E-02 0. -1.
    8880022    1    1    2    0    0 -0.53448411419E+03 -0.31760894690E+03 -0.12217338808E+04  0.13793382616E+04  0.15294330000E+03 0.  1.
    8880022    1    1    2    0    0  0.53448411419E+03  0.31760894690E+03 -0.10867955508E+03  0.64942406036E+03  0.15294330000E+03 0.  0.
<mgrwt>
<rscale>  0 0.64026585E+03</rscale>
<asrwt>0</asrwt>
<pdfrwt beam="1">  1        1 0.25839813E+00 0.64026585E+03</pdfrwt>
<pdfrwt beam="2">  1       -1 0.53719146E-01 0.64026585E+03</pdfrwt>
<totfact> 0.18154543E+01</totfact>
</mgrwt>
</event>
<event>
 4    1  0.8749406E-009  0.8378175E+03  0.7818608E-02  0.9506835E-01
         -1   -1    0    0    0  501 -0.00000000000E+00  0.00000000000E+00  0.35642224029E+03  0.35642224032E+03  0.50400000000E-02 0.  1.
          1   -1    0    0  501    0  0.00000000000E+00 -0.00000000000E+00 -0.22187628075E+04  0.22187628076E+04  0.50400000000E-02 0. -1.
    8880022    1    1    2    0    0  0.14690763122E+03  0.81053360978E+03 -0.13628266682E+04  0.15997608463E+04  0.15294330000E+03 0.  0.
    8880022    1    1    2    0    0 -0.14690763122E+03 -0.81053360978E+03 -0.49951389902E+03  0.97542420157E+03  0.15294330000E+03 0.  0.
<mgrwt>
<rscale>  0 0.83781754E+03</rscale>
<asrwt>0</asrwt>
<pdfrwt beam="1">  1        1 0.34134812E+00 0.83781754E+03</pdfrwt>
<pdfrwt beam="2">  1       -1 0.54834192E-01 0.83781754E+03</pdfrwt>
<totfact> 0.73699631E+00</totfact>
</mgrwt>
</event>
<event>
 4    1  0.8749406E-009  0.8273698E+03  0.7818608E-02  0.9521224E-01
          1   -1    0    0  501    0  0.00000000000E+00  0.00000000000E+00  0.32631182440E+04  0.32631182440E+04  0.50400000000E-02 0. -1.
         -1   -1    0    0    0  501 -0.00000000000E+00 -0.00000000000E+00 -0.40565217779E+03  0.40565217782E+03  0.50400000000E-02 0.  1.
    8880022    1    1    2    0    0 -0.60369566651E+03 -0.54470244065E+03  0.27034057216E+04  0.28271793992E+04  0.15294330000E+03 0.  0.
    8880022    1    1    2    0    0  0.60369566651E+03  0.54470244065E+03  0.15406034464E+03  0.84159102266E+03  0.15294330000E+03 0.  0.
<mgrwt>
<rscale>  0 0.82736984E+03</rscale>
<asrwt>0</asrwt>
<pdfrwt beam="1">  1        1 0.50201818E+00 0.82736984E+03</pdfrwt>
<pdfrwt beam="2">  1       -1 0.62408029E-01 0.82736984E+03</pdfrwt>
<totfact> 0.10586172E+00</totfact>
</mgrwt>
</event>
<event>
 4    1  0.8749406E-009  0.8477366E+03  0.7818608E-02  0.9493380E-01
          1   -1    0    0  501    0  0.00000000000E+00  0.00000000000E+00  0.13289847405E+04  0.13289847406E+04  0.50400000000E-02 0. -1.
         -1   -1    0    0    0  501 -0.00000000000E+00 -0.00000000000E+00 -0.58349033074E+03  0.58349033076E+03  0.50400000000E-02 0.  1.
    8880022    1    1    2    0    0  0.38076768710E+03  0.74180966286E+03  0.63152940194E+03  0.10571124093E+04  0.15294330000E+03 0.  0.
    8880022    1    1    2    0    0 -0.38076768710E+03 -0.74180966286E+03  0.11396500786E+03  0.85536266197E+03  0.15294330000E+03 0.  0.
<mgrwt>
<rscale>  0 0.84773655E+03</rscale>
<asrwt>0</asrwt>
<pdfrwt beam="1">  1        1 0.20445919E+00 0.84773655E+03</pdfrwt>
<pdfrwt beam="2">  1       -1 0.89767744E-01 0.84773655E+03</pdfrwt>
<totfact> 0.10710890E+01</totfact>
</mgrwt>
</event>
<event>
 4    1  0.8749406E-009  0.9777787E+03  0.7818608E-02  0.9333258E-01
         -1   -1    0    0    0  501 -0.00000000000E+00  0.00000000000E+00  0.55817569514E+03  0.55817569516E+03  0.50400000000E-02 0.  1.
          1   -1    0    0  501    0  0.00000000000E+00 -0.00000000000E+00 -0.26591198380E+04  0.26591198380E+04  0.50400000000E-02 0. -1.
    8880022    1    1    2    0    0  0.88357616284E+03 -0.38981114221E+03 -0.90833410135E+02  0.98198875938E+03  0.15294330000E+03 0.  0.
    8880022    1    1    2    0    0 -0.88357616284E+03  0.38981114221E+03 -0.20101107328E+04  0.22353067738E+04  0.15294330000E+03 0.  0.
<mgrwt>
<rscale>  0 0.97777871E+03</rscale>
<asrwt>0</asrwt>
<pdfrwt beam="1">  1        1 0.40909535E+00 0.97777871E+03</pdfrwt>
<pdfrwt beam="2">  1       -1 0.85873185E-01 0.97777871E+03</pdfrwt>
<totfact> 0.14395464E+00</totfact>
</mgrwt>
</event>
<event>
 4    1  0.8749406E-009  0.7556769E+03  0.7818608E-02  0.9626486E-01
         -1   -1    0    0    0  501 -0.00000000000E+00  0.00000000000E+00  0.12594454209E+04  0.12594454209E+04  0.50400000000E-02 0.  1.
          1   -1    0    0  501    0  0.00000000000E+00 -0.00000000000E+00 -0.74238381961E+03  0.74238381963E+03  0.50400000000E-02 0. -1.
    8880022    1    1    2    0    0 -0.71617221770E+03 -0.18642237929E+03 -0.36593774705E+03  0.83961779200E+03  0.15294330000E+03 0.  0.
    8880022    1    1    2    0    0  0.71617221770E+03  0.18642237929E+03  0.88299934831E+03  0.11622114485E+04  0.15294330000E+03 0.  0.
<mgrwt>
<rscale>  0 0.75567692E+03</rscale>
<asrwt>0</asrwt>
<pdfrwt beam="1">  1        1 0.11421290E+00 0.75567692E+03</pdfrwt>
<pdfrwt beam="2">  1       -1 0.19376083E+00 0.75567692E+03</pdfrwt>
<totfact> 0.42886411E+00</totfact>
</mgrwt>
</event>
<event>
 4    1  0.8749406E-009  0.8198500E+03  0.7818608E-02  0.9531721E-01
         -1   -1    0    0    0  501 -0.00000000000E+00  0.00000000000E+00  0.28578560764E+04  0.28578560764E+04  0.50400000000E-02 0.  1.
          1   -1    0    0  501    0  0.00000000000E+00 -0.00000000000E+00 -0.45456409013E+03  0.45456409016E+03  0.50400000000E-02 0. -1.
    8880022    1    1    2    0    0 -0.20463066193E+03 -0.77903061466E+03  0.23521956617E+04  0.24909794239E+04  0.15294330000E+03 0.  0.
    8880022    1    1    2    0    0  0.20463066193E+03  0.77903061466E+03  0.51096324623E+02  0.82144074271E+03  0.15294330000E+03 0.  0.
<mgrwt>
<rscale>  0 0.81985002E+03</rscale>
<asrwt>0</asrwt>
<pdfrwt beam="1">  1        1 0.69932937E-01 0.81985002E+03</pdfrwt>
<pdfrwt beam="2">  1       -1 0.43967017E+00 0.81985002E+03</pdfrwt>
<totfact> 0.20426088E-01</totfact>
</mgrwt>
</event>
<event>
 4    1  0.8749406E-009  0.7029582E+03  0.7818608E-02  0.9712187E-01
          1   -1    0    0  501    0  0.00000000000E+00  0.00000000000E+00  0.24828866150E+04  0.24828866150E+04  0.50400000000E-02 0. -1.
         -1   -1    0    0    0  501 -0.00000000000E+00 -0.00000000000E+00 -0.60039697623E+03  0.60039697625E+03  0.50400000000E-02 0.  1.
    8880022    1    1    2    0    0  0.12021555156E+03  0.67550489548E+03 -0.31924431111E+03  0.77205390087E+03  0.15294330000E+03 0.  0.
    8880022    1    1    2    0    0 -0.12021555156E+03 -0.67550489548E+03  0.22017339499E+04  0.23112296904E+04  0.15294330000E+03 0.  0.
<mgrwt>
<rscale>  0 0.70295825E+03</rscale>
<asrwt>0</asrwt>
<pdfrwt beam="1">  1        1 0.38198256E+00 0.70295825E+03</pdfrwt>
<pdfrwt beam="2">  1       -1 0.92368764E-01 0.70295825E+03</pdfrwt>
<totfact> 0.17072193E+00</totfact>
</mgrwt>
</event>
<event>
 4    1  0.8749406E-009  0.8373777E+03  0.7818608E-02  0.9507436E-01
          1   -1    0    0  501    0  0.00000000000E+00  0.00000000000E+00  0.16390682672E+04  0.16390682672E+04  0.50400000000E-02 0. -1.
         -1   -1    0    0    0  501 -0.00000000000E+00 -0.00000000000E+00 -0.53406431048E+03  0.53406431050E+03  0.50400000000E-02 0.  1.
    8880022    1    1    2    0    0  0.17585799982E+03 -0.80429084546E+03  0.67835337974E+02  0.84012087600E+03  0.15294330000E+03 0.  0.
    8880022    1    1    2    0    0 -0.17585799982E+03  0.80429084546E+03  0.10371686188E+04  0.13330117017E+04  0.15294330000E+03 0.  0.
<mgrwt>
<rscale>  0 0.83737772E+03</rscale>
<asrwt>0</asrwt>
<pdfrwt beam="1">  1        1 0.25216435E+00 0.83737772E+03</pdfrwt>
<pdfrwt beam="2">  1       -1 0.82163741E-01 0.83737772E+03</pdfrwt>
<totfact> 0.79464540E+00</totfact>
</mgrwt>
</event>
<event>
 4    1  0.8749406E-009  0.1894450E+03  0.7818608E-02  0.1158963E+00
          1   -1    0    0  501    0  0.00000000000E+00  0.00000000000E+00  0.10999041467E+04  0.10999041468E+04  0.50400000000E-02 0. -1.
         -1   -1    0    0    0  501 -0.00000000000E+00 -0.00000000000E+00 -0.44573941080E+03  0.44573941082E+03  0.50400000000E-02 0.  1.
    8880022    1    1    2    0    0  0.81219262020E+02 -0.76819241959E+02  0.10710800743E+04  0.10877048970E+04  0.15294330000E+03 0. -1.
    8880022    1    1    2    0    0 -0.81219262020E+02  0.76819241959E+02 -0.41691533835E+03  0.45793866055E+03  0.15294330000E+03 0.  0.
<mgrwt>
<rscale>  0 0.18944502E+03</rscale>
<asrwt>0</asrwt>
<pdfrwt beam="1">  1        1 0.16921602E+00 0.18944502E+03</pdfrwt>
<pdfrwt beam="2">  1       -1 0.68575294E-01 0.18944502E+03</pdfrwt>
<totfact> 0.31681531E+01</totfact>
</mgrwt>
</event>
<event>
 4    1  0.8749406E-009  0.8078195E+03  0.7818608E-02  0.9548767E-01
          1   -1    0    0  501    0  0.00000000000E+00  0.00000000000E+00  0.18234168565E+04  0.18234168565E+04  0.50400000000E-02 0. -1.
         -1   -1    0    0    0  501 -0.00000000000E+00 -0.00000000000E+00 -0.16269809561E+04  0.16269809561E+04  0.50400000000E-02 0.  1.
    8880022    1    1    2    0    0  0.72526278084E+03  0.32120795769E+03  0.16219032775E+04  0.18119444109E+04  0.15294330000E+03 0.  0.
    8880022    1    1    2    0    0 -0.72526278084E+03 -0.32120795769E+03 -0.14254673772E+04  0.16384534018E+04  0.15294330000E+03 0.  0.
<mgrwt>
<rscale>  0 0.80781948E+03</rscale>
<asrwt>0</asrwt>
<pdfrwt beam="1">  1        1 0.28052567E+00 0.80781948E+03</pdfrwt>
<pdfrwt beam="2">  1       -1 0.25030476E+00 0.80781948E+03</pdfrwt>
<totfact> 0.28750288E-01</totfact>
</mgrwt>
</event>
<event>
 4    1  0.8749406E-009  0.2952627E+03  0.7818608E-02  0.1087633E+00
         -1   -1    0    0    0  501 -0.00000000000E+00  0.00000000000E+00  0.16430993731E+04  0.16430993731E+04  0.50400000000E-02 0.  1.
          1   -1    0    0  501    0  0.00000000000E+00 -0.00000000000E+00 -0.84660118312E+02  0.84660118462E+02  0.50400000000E-02 0. -1.
    8880022    1    1    2    0    0  0.17859842965E+03 -0.17858057865E+03  0.13070201634E+04  0.13399558883E+04  0.15294330000E+03 0.  0.
    8880022    1    1    2    0    0 -0.17859842965E+03  0.17858057865E+03  0.25141909138E+03  0.38780360322E+03  0.15294330000E+03 0.  0.
<mgrwt>
<rscale>  0 0.29526272E+03</rscale>
<asrwt>0</asrwt>
<pdfrwt beam="1">  1        1 0.13024634E-01 0.29526272E+03</pdfrwt>
<pdfrwt beam="2">  1       -1 0.25278451E+00 0.29526272E+03</pdfrwt>
<totfact> 0.34184980E+01</totfact>
</mgrwt>
</event>
<event>
 4    1  0.8749406E-009  0.5788339E+03  0.7818608E-02  0.9950319E-01
         -1   -1    0    0    0  501 -0.00000000000E+00  0.00000000000E+00  0.96965359563E+03  0.96965359564E+03  0.50400000000E-02 0.  1.
          1   -1    0    0  501    0  0.00000000000E+00 -0.00000000000E+00 -0.40244636706E+03  0.40244636709E+03  0.50400000000E-02 0. -1.
    8880022    1    1    2    0    0  0.27266744035E+03  0.48714422342E+03  0.54159399994E+03  0.79269965385E+03  0.15294330000E+03 0.  0.
    8880022    1    1    2    0    0 -0.27266744035E+03 -0.48714422342E+03  0.25613228636E+02  0.57940030888E+03  0.15294330000E+03 0.  1.
<mgrwt>
<rscale>  0 0.57883390E+03</rscale>
<asrwt>0</asrwt>
<pdfrwt beam="1">  1        1 0.61914827E-01 0.57883390E+03</pdfrwt>
<pdfrwt beam="2">  1       -1 0.14917747E+00 0.57883390E+03</pdfrwt>
<totfact> 0.22041795E+01</totfact>
</mgrwt>
</event>
<event>
 4    1  0.8749406E-009  0.1011466E+04  0.7818608E-02  0.9296058E-01
         -1   -1    0    0    0  501 -0.00000000000E+00  0.00000000000E+00  0.13447948732E+04  0.13447948733E+04  0.50400000000E-02 0.  1.
          1   -1    0    0  501    0  0.00000000000E+00 -0.00000000000E+00 -0.11628861777E+04  0.11628861777E+04  0.50400000000E-02 0. -1.
    8880022    1    1    2    0    0  0.91322116406E+03 -0.40706162179E+03 -0.64636537239E+03  0.12003549084E+04  0.15294330000E+03 0.  0.
    8880022    1    1    2    0    0 -0.91322116406E+03  0.40706162179E+03  0.82827406794E+03  0.13073261426E+04  0.15294330000E+03 0.  0.
<mgrwt>
<rscale>  0 0.10114661E+04</rscale>
<asrwt>0</asrwt>
<pdfrwt beam="1">  1        1 0.17890557E+00 0.10114661E+04</pdfrwt>
<pdfrwt beam="2">  1       -1 0.20689152E+00 0.10114661E+04</pdfrwt>
<totfact> 0.15416457E+00</totfact>
</mgrwt>
</event>
<event>
 4    1  0.8749406E-009  0.4864597E+03  0.7818608E-02  0.1017375E+00
         -1   -1    0    0    0  501 -0.00000000000E+00  0.00000000000E+00  0.19252653139E+04  0.19252653139E+04  0.50400000000E-02 0.  1.
          1   -1    0    0  501    0  0.00000000000E+00 -0.00000000000E+00 -0.32516775514E+03  0.32516775518E+03  0.50400000000E-02 0. -1.
    8880022    1    1    2    0    0 -0.45642627649E+03 -0.70188301773E+02  0.16874706830E+04  0.17561891420E+04  0.15294330000E+03 0.  0.
    8880022    1    1    2    0    0  0.45642627649E+03  0.70188301773E+02 -0.87373124240E+02  0.49424392705E+03  0.15294330000E+03 0.  0.
<mgrwt>
<rscale>  0 0.48645966E+03</rscale>
<asrwt>0</asrwt>
<pdfrwt beam="1">  1        1 0.50025809E-01 0.48645966E+03</pdfrwt>
<pdfrwt beam="2">  1       -1 0.29619466E+00 0.48645966E+03</pdfrwt>
<totfact> 0.30423937E+00</totfact>
</mgrwt>
</event>
<event>
 4    1  0.8749406E-009  0.1008454E+04  0.7818608E-02  0.9299321E-01
          1   -1    0    0  501    0  0.00000000000E+00  0.00000000000E+00  0.13642391914E+04  0.13642391914E+04  0.50400000000E-02 0. -1.
         -1   -1    0    0    0  501 -0.00000000000E+00 -0.00000000000E+00 -0.11592815179E+04  0.11592815179E+04  0.50400000000E-02 0.  1.
    8880022    1    1    2    0    0  0.42398878315E+03 -0.90211993714E+03  0.85634063352E+03  0.13229882096E+04  0.15294330000E+03 0.  0.
    8880022    1    1    2    0    0 -0.42398878315E+03  0.90211993714E+03 -0.65138295996E+03  0.12005324997E+04  0.15294330000E+03 0.  0.
<mgrwt>
<rscale>  0 0.10084535E+04</rscale>
<asrwt>0</asrwt>
<pdfrwt beam="1">  1        1 0.20988295E+00 0.10084535E+04</pdfrwt>
<pdfrwt beam="2">  1       -1 0.17835100E+00 0.10084535E+04</pdfrwt>
<totfact> 0.17483638E+00</totfact>
</mgrwt>
</event>
<event>
 4    1  0.8749406E-009  0.9306574E+03  0.7818608E-02  0.9388049E-01
         -1   -1    0    0    0  501 -0.00000000000E+00  0.00000000000E+00  0.55324400274E+03  0.55324400276E+03  0.50400000000E-02 0.  1.
          1   -1    0    0  501    0  0.00000000000E+00 -0.00000000000E+00 -0.19122208438E+04  0.19122208438E+04  0.50400000000E-02 0. -1.
    8880022    1    1    2    0    0  0.10633496036E+03  0.91182481303E+03 -0.12043773071E+04  0.15220538638E+04  0.15294330000E+03 0.  0.
    8880022    1    1    2    0    0 -0.10633496036E+03 -0.91182481303E+03 -0.15459953395E+03  0.94341098275E+03  0.15294330000E+03 0.  0.
<mgrwt>
<rscale>  0 0.93065744E+03</rscale>
<asrwt>0</asrwt>
<pdfrwt beam="1">  1        1 0.29418782E+00 0.93065744E+03</pdfrwt>
<pdfrwt beam="2">  1       -1 0.85114463E-01 0.93065744E+03</pdfrwt>
<totfact> 0.47575031E+00</totfact>
</mgrwt>
</event>
<event>
 4    1  0.8749406E-009  0.1883505E+04  0.7818608E-02  0.8663111E-01
          1   -1    0    0  501    0  0.00000000000E+00  0.00000000000E+00  0.27957631970E+04  0.27957631970E+04  0.50400000000E-02 0. -1.
         -1   -1    0    0    0  501 -0.00000000000E+00 -0.00000000000E+00 -0.12773482667E+04  0.12773482667E+04  0.50400000000E-02 0.  1.
    8880022    1    1    2    0    0  0.18217806950E+04 -0.45311468177E+03  0.59374240807E+03  0.19748720251E+04  0.15294330000E+03 0.  0.
    8880022    1    1    2    0    0 -0.18217806950E+04  0.45311468177E+03  0.92467252223E+03  0.20982394386E+04  0.15294330000E+03 0.  0.
<mgrwt>
<rscale>  0 0.18835046E+04</rscale>
<asrwt>0</asrwt>
<pdfrwt beam="1">  1        1 0.43011741E+00 0.18835046E+04</pdfrwt>
<pdfrwt beam="2">  1       -1 0.19651512E+00 0.18835046E+04</pdfrwt>
<totfact> 0.12101730E-01</totfact>
</mgrwt>
</event>
<event>
 4    1  0.8749406E-009  0.7429947E+03  0.7818608E-02  0.9646405E-01
          1   -1    0    0  501    0  0.00000000000E+00  0.00000000000E+00  0.10668867726E+04  0.10668867726E+04  0.50400000000E-02 0. -1.
         -1   -1    0    0    0  501 -0.00000000000E+00 -0.00000000000E+00 -0.10977728860E+04  0.10977728861E+04  0.50400000000E-02 0.  1.
    8880022    1    1    2    0    0 -0.57047286915E+03 -0.45078844489E+03 -0.80238922984E+03  0.10935582498E+04  0.15294330000E+03 0.  1.
    8880022    1    1    2    0    0  0.57047286915E+03  0.45078844489E+03  0.77150311636E+03  0.10711014089E+04  0.15294330000E+03 0.  0.
<mgrwt>
<rscale>  0 0.74299473E+03</rscale>
<asrwt>0</asrwt>
<pdfrwt beam="1">  1        1 0.16413643E+00 0.74299473E+03</pdfrwt>
<pdfrwt beam="2">  1       -1 0.16888814E+00 0.74299473E+03</pdfrwt>
<totfact> 0.35056770E+00</totfact>
</mgrwt>
</event>
<event>
 4    1  0.8749406E-009  0.2327072E+03  0.7818608E-02  0.1124749E+00
          1   -1    0    0  501    0  0.00000000000E+00  0.00000000000E+00  0.48113514943E+03  0.48113514946E+03  0.50400000000E-02 0. -1.
         -1   -1    0    0    0  501 -0.00000000000E+00 -0.00000000000E+00 -0.32582592262E+03  0.32582592266E+03  0.50400000000E-02 0.  1.
    8880022    1    1    2    0    0  0.58247388093E+02 -0.16543347784E+03 -0.24878196164E+03  0.34065394649E+03  0.15294330000E+03 0.  1.
    8880022    1    1    2    0    0 -0.58247388093E+02  0.16543347784E+03  0.40409118845E+03  0.46630712563E+03  0.15294330000E+03 0.  0.
<mgrwt>
<rscale>  0 0.23270721E+03</rscale>
<asrwt>0</asrwt>
<pdfrwt beam="1">  1        1 0.74020792E-01 0.23270721E+03</pdfrwt>
<pdfrwt beam="2">  1       -1 0.50127065E-01 0.23270721E+03</pdfrwt>
<totfact> 0.19730533E+02</totfact>
</mgrwt>
</event>
<event>
 4    1  0.8749406E-009  0.6346414E+03  0.7818608E-02  0.9836033E-01
          1   -1    0    0  501    0  0.00000000000E+00  0.00000000000E+00  0.22042691220E+04  0.22042691220E+04  0.50400000000E-02 0. -1.
         -1   -1    0    0    0  501 -0.00000000000E+00 -0.00000000000E+00 -0.66025243609E+03  0.66025243611E+03  0.50400000000E-02 0.  1.
    8880022    1    1    2    0    0 -0.49299466480E+03  0.36923468552E+03  0.19900646862E+04  0.20888099724E+04  0.15294330000E+03 0.  0.
    8880022    1    1    2    0    0  0.49299466480E+03 -0.36923468552E+03 -0.44604800035E+03  0.77571158567E+03  0.15294330000E+03 0.  0.
<mgrwt>
<rscale>  0 0.63464135E+03</rscale>
<asrwt>0</asrwt>
<pdfrwt beam="1">  1        1 0.33911833E+00 0.63464135E+03</pdfrwt>
<pdfrwt beam="2">  1       -1 0.10157730E+00 0.63464135E+03</pdfrwt>
<totfact> 0.21584810E+00</totfact>
</mgrwt>
</event>
<event>
 4    1  0.8749406E-009  0.7738609E+03  0.7818608E-02  0.9598643E-01
          1   -1    0    0  501    0  0.00000000000E+00  0.00000000000E+00  0.53643091038E+03  0.53643091040E+03  0.50400000000E-02 0. -1.
         -1   -1    0    0    0  501 -0.00000000000E+00 -0.00000000000E+00 -0.19556886019E+04  0.19556886019E+04  0.50400000000E-02 0.  1.
    8880022    1    1    2    0    0 -0.22445706176E+03  0.72462959125E+03  0.10667132667E+03  0.78117823960E+03  0.15294330000E+03 0.  0.
    8880022    1    1    2    0    0  0.22445706176E+03 -0.72462959125E+03 -0.15259290182E+04  0.17109412727E+04  0.15294330000E+03 0.  0.
<mgrwt>
<rscale>  0 0.77386089E+03</rscale>
<asrwt>0</asrwt>
<pdfrwt beam="1">  1        1 0.82527833E-01 0.77386089E+03</pdfrwt>
<pdfrwt beam="2">  1       -1 0.30087517E+00 0.77386089E+03</pdfrwt>
<totfact> 0.13749637E+00</totfact>
</mgrwt>
</event>
<event>
 4    1  0.8749406E-009  0.1327390E+04  0.7818608E-02  0.9008122E-01
          1   -1    0    0  501    0  0.00000000000E+00  0.00000000000E+00  0.29487953587E+04  0.29487953587E+04  0.50400000000E-02 0. -1.
         -1   -1    0    0    0  501 -0.00000000000E+00 -0.00000000000E+00 -0.12196011043E+04  0.12196011043E+04  0.50400000000E-02 0.  1.
    8880022    1    1    2    0    0  0.53434963902E+03 -0.12054226264E+04 -0.62391898934E+03  0.14667105383E+04  0.15294330000E+03 0.  0.
    8880022    1    1    2    0    0 -0.53434963902E+03  0.12054226264E+04  0.23531132437E+04  0.27016859247E+04  0.15294330000E+03 0. -1.
<mgrwt>
<rscale>  0 0.13273903E+04</rscale>
<asrwt>0</asrwt>
<pdfrwt beam="1">  1        1 0.45366082E+00 0.13273903E+04</pdfrwt>
<pdfrwt beam="2">  1       -1 0.18763094E+00 0.13273903E+04</pdfrwt>
<totfact> 0.11616459E-01</totfact>
</mgrwt>
</event>
<event>
 4    1  0.8749406E-009  0.1753122E+04  0.7818608E-02  0.8731634E-01
         -1   -1    0    0    0  501 -0.00000000000E+00  0.00000000000E+00  0.23489490599E+04  0.23489490599E+04  0.50400000000E-02 0.  1.
          1   -1    0    0  501    0  0.00000000000E+00 -0.00000000000E+00 -0.19483582403E+04  0.19483582403E+04  0.50400000000E-02 0. -1.
    8880022    1    1    2    0    0  0.91371426005E+03  0.14883453021E+04 -0.10310996262E+04  0.20338641989E+04  0.15294330000E+03 0.  0.
    8880022    1    1    2    0    0 -0.91371426005E+03 -0.14883453021E+04  0.14316904458E+04  0.22634431013E+04  0.15294330000E+03 0.  0.
<mgrwt>
<rscale>  0 0.17531221E+04</rscale>
<asrwt>0</asrwt>
<pdfrwt beam="1">  1        1 0.29974742E+00 0.17531221E+04</pdfrwt>
<pdfrwt beam="2">  1       -1 0.36137678E+00 0.17531221E+04</pdfrwt>
<totfact> 0.38549070E-02</totfact>
</mgrwt>
</event>
<event>
 4    1  0.8749406E-009  0.3829592E+03  0.7818608E-02  0.1049845E+00
         -1   -1    0    0    0  501 -0.00000000000E+00  0.00000000000E+00  0.62235654505E+03  0.62235654507E+03  0.50400000000E-02 0.  1.
          1   -1    0    0  501    0  0.00000000000E+00 -0.00000000000E+00 -0.24016896248E+03  0.24016896253E+03  0.50400000000E-02 0. -1.
    8880022    1    1    2    0    0  0.31817606305E+03  0.14842525588E+03  0.25025669006E+03  0.45747800780E+03  0.15294330000E+03 0.  1.
    8880022    1    1    2    0    0 -0.31817606305E+03 -0.14842525588E+03  0.13193089251E+03  0.40504749980E+03  0.15294330000E+03 0. -1.
<mgrwt>
<rscale>  0 0.38295916E+03</rscale>
<asrwt>0</asrwt>
<pdfrwt beam="1">  1        1 0.36949071E-01 0.38295916E+03</pdfrwt>
<pdfrwt beam="2">  1       -1 0.95747161E-01 0.38295916E+03</pdfrwt>
<totfact> 0.12842717E+02</totfact>
</mgrwt>
</event>
<event>
 4    1  0.8749406E-009  0.6921939E+03  0.7818608E-02  0.9730676E-01
          1   -1    0    0  501    0  0.00000000000E+00  0.00000000000E+00  0.24839561723E+04  0.24839561723E+04  0.50400000000E-02 0. -1.
         -1   -1    0    0    0  501 -0.00000000000E+00 -0.00000000000E+00 -0.44884712787E+03  0.44884712790E+03  0.50400000000E-02 0.  1.
    8880022    1    1    2    0    0 -0.10290662706E+03 -0.66719632812E+03 -0.89799852147E+02  0.69799454196E+03  0.15294330000E+03 0.  0.
    8880022    1    1    2    0    0  0.10290662706E+03  0.66719632812E+03  0.21249088965E+04  0.22348087582E+04  0.15294330000E+03 0.  0.
<mgrwt>
<rscale>  0 0.69219388E+03</rscale>
<asrwt>0</asrwt>
<pdfrwt beam="1">  1        1 0.38214710E+00 0.69219388E+03</pdfrwt>
<pdfrwt beam="2">  1       -1 0.69053406E-01 0.69219388E+03</pdfrwt>
<totfact> 0.31663557E+00</totfact>
</mgrwt>
</event>
<event>
 4    1  0.8749406E-009  0.6468355E+03  0.7818608E-02  0.9812735E-01
         -1   -1    0    0    0  501 -0.00000000000E+00  0.00000000000E+00  0.74369065970E+03  0.74369065972E+03  0.50400000000E-02 0.  1.
          1   -1    0    0  501    0  0.00000000000E+00 -0.00000000000E+00 -0.59703010222E+03  0.59703010225E+03  0.50400000000E-02 0. -1.
    8880022    1    1    2    0    0  0.55245495542E+03 -0.29966321238E+03 -0.87665667656E+02  0.65274914088E+03  0.15294330000E+03 0. -1.
    8880022    1    1    2    0    0 -0.55245495542E+03  0.29966321238E+03  0.23432622513E+03  0.68797162109E+03  0.15294330000E+03 0.  0.
<mgrwt>
<rscale>  0 0.64683551E+03</rscale>
<asrwt>0</asrwt>
<pdfrwt beam="1">  1        1 0.91850785E-01 0.64683551E+03</pdfrwt>
<pdfrwt beam="2">  1       -1 0.11441395E+00 0.64683551E+03</pdfrwt>
<totfact> 0.24864655E+01</totfact>
</mgrwt>
</event>
<event>
 4    1  0.8749406E-009  0.1280129E+04  0.7818608E-02  0.9045473E-01
          1   -1    0    0  501    0  0.00000000000E+00  0.00000000000E+00  0.20551909741E+04  0.20551909741E+04  0.50400000000E-02 0. -1.
         -1   -1    0    0    0  501 -0.00000000000E+00 -0.00000000000E+00 -0.11429361568E+04  0.11429361568E+04  0.50400000000E-02 0.  1.
    8880022    1    1    2    0    0  0.73152921065E+03 -0.10393279388E+04  0.13354049423E+04  0.18498744723E+04  0.15294330000E+03 0.  0.
    8880022    1    1    2    0    0 -0.73152921065E+03  0.10393279388E+04 -0.42315012499E+03  0.13482526587E+04  0.15294330000E+03 0.  0.
<mgrwt>
<rscale>  0 0.12801286E+04</rscale>
<asrwt>0</asrwt>
<pdfrwt beam="1">  1        1 0.31618322E+00 0.12801286E+04</pdfrwt>
<pdfrwt beam="2">  1       -1 0.17583633E+00 0.12801286E+04</pdfrwt>
<totfact> 0.59257071E-01</totfact>
</mgrwt>
</event>
<event>
 4    1  0.8749406E-009  0.5528551E+03  0.7818608E-02  0.1000835E+00
          1   -1    0    0  501    0  0.00000000000E+00  0.00000000000E+00  0.10359010683E+04  0.10359010683E+04  0.50400000000E-02 0. -1.
         -1   -1    0    0    0  501 -0.00000000000E+00 -0.00000000000E+00 -0.34052682492E+03  0.34052682496E+03  0.50400000000E-02 0.  1.
    8880022    1    1    2    0    0 -0.45738678742E+03 -0.27028590672E+03  0.96200810790E+02  0.56116253768E+03  0.15294330000E+03 0.  0.
    8880022    1    1    2    0    0  0.45738678742E+03  0.27028590672E+03  0.59917343255E+03  0.81526535556E+03  0.15294330000E+03 0.  0.
<mgrwt>
<rscale>  0 0.55285513E+03</rscale>
<asrwt>0</asrwt>
<pdfrwt beam="1">  1        1 0.15936939E+00 0.55285513E+03</pdfrwt>
<pdfrwt beam="2">  1       -1 0.52388743E-01 0.55285513E+03</pdfrwt>
<totfact> 0.54531414E+01</totfact>
</mgrwt>
</event>
<event>
 4    1  0.8749406E-009  0.1813751E+03  0.7818608E-02  0.1166479E+00
         -1   -1    0    0    0  501 -0.00000000000E+00  0.00000000000E+00  0.13761956000E+03  0.13761956010E+03  0.50400000000E-02 0.  1.
          1   -1    0    0  501    0  0.00000000000E+00 -0.00000000000E+00 -0.17450039625E+04  0.17450039625E+04  0.50400000000E-02 0. -1.
    8880022    1    1    2    0    0 -0.59400400240E+01 -0.97313795382E+02  0.70772368177E+02  0.19469370806E+03  0.15294330000E+03 0.  1.
    8880022    1    1    2    0    0  0.59400400240E+01  0.97313795382E+02 -0.16781567707E+04  0.16879298145E+04  0.15294330000E+03 0.  0.
<mgrwt>
<rscale>  0 0.18137506E+03</rscale>
<asrwt>0</asrwt>
<pdfrwt beam="1">  1        1 0.26846213E+00 0.18137506E+03</pdfrwt>
<pdfrwt beam="2">  1       -1 0.21172241E-01 0.18137506E+03</pdfrwt>
<totfact> 0.94301130E+01</totfact>
</mgrwt>
</event>
<event>
 4    1  0.8749406E-009  0.4829169E+03  0.7818608E-02  0.1018337E+00
         -1   -1    0    0    0  501 -0.00000000000E+00  0.00000000000E+00  0.63343813184E+03  0.63343813186E+03  0.50400000000E-02 0.  1.
          1   -1    0    0  501    0  0.00000000000E+00 -0.00000000000E+00 -0.12357661261E+04  0.12357661261E+04  0.50400000000E-02 0. -1.
    8880022    1    1    2    0    0 -0.41040154175E+03  0.20343952522E+03 -0.10842673504E+04  0.11869475161E+04  0.15294330000E+03 0.  0.
    8880022    1    1    2    0    0  0.41040154175E+03 -0.20343952522E+03  0.48193935609E+03  0.68225674189E+03  0.15294330000E+03 0.  0.
<mgrwt>
<rscale>  0 0.48291689E+03</rscale>
<asrwt>0</asrwt>
<pdfrwt beam="1">  1        1 0.19011786E+00 0.48291689E+03</pdfrwt>
<pdfrwt beam="2">  1       -1 0.97452021E-01 0.48291689E+03</pdfrwt>
<totfact> 0.11038750E+01</totfact>
</mgrwt>
</event>
<event>
 4    1  0.8749406E-009  0.8447796E+03  0.7818608E-02  0.9497370E-01
         -1   -1    0    0    0  501 -0.00000000000E+00  0.00000000000E+00  0.26482399525E+03  0.26482399530E+03  0.50400000000E-02 0.  1.
          1   -1    0    0  501    0  0.00000000000E+00 -0.00000000000E+00 -0.28088028875E+04  0.28088028875E+04  0.50400000000E-02 0. -1.
    8880022    1    1    2    0    0 -0.22748031683E+03 -0.79907049709E+03 -0.96240212459E+03  0.12805742682E+04  0.15294330000E+03 0.  0.
    8880022    1    1    2    0    0  0.22748031683E+03  0.79907049709E+03 -0.15815767677E+04  0.17930526147E+04  0.15294330000E+03 0.  0.
<mgrwt>
<rscale>  0 0.84477962E+03</rscale>
<asrwt>0</asrwt>
<pdfrwt beam="1">  1        1 0.43212350E+00 0.84477962E+03</pdfrwt>
<pdfrwt beam="2">  1       -1 0.40742155E-01 0.84477962E+03</pdfrwt>
<totfact> 0.50637531E+00</totfact>
</mgrwt>
</event>
<event>
 4    1  0.8749406E-009  0.9840032E+03  0.7818608E-02  0.9326266E-01
         -1   -1    0    0    0  501 -0.00000000000E+00  0.00000000000E+00  0.13417578268E+04  0.13417578268E+04  0.50400000000E-02 0.  1.
          1   -1    0    0  501    0  0.00000000000E+00 -0.00000000000E+00 -0.81065599191E+03  0.81065599192E+03  0.50400000000E-02 0. -1.
    8880022    1    1    2    0    0 -0.51369264554E+03  0.82522152176E+03 -0.91079474735E+02  0.98820939977E+03  0.15294330000E+03 0.  0.
    8880022    1    1    2    0    0  0.51369264554E+03 -0.82522152176E+03  0.62218130962E+03  0.11642044190E+04  0.15294330000E+03 0.  0.
<mgrwt>
<rscale>  0 0.98400323E+03</rscale>
<asrwt>0</asrwt>
<pdfrwt beam="1">  1        1 0.12471631E+00 0.98400323E+03</pdfrwt>
<pdfrwt beam="2">  1       -1 0.20642428E+00 0.98400323E+03</pdfrwt>
<totfact> 0.29615044E+00</totfact>
</mgrwt>
</event>
<event>
 4    1  0.8749406E-009  0.3472127E+03  0.7818608E-02  0.1063765E+00
         -1   -1    0    0    0  501 -0.00000000000E+00  0.00000000000E+00  0.60290370262E+03  0.60290370264E+03  0.50400000000E-02 0.  1.
          1   -1    0    0  501    0  0.00000000000E+00 -0.00000000000E+00 -0.85622882671E+03  0.85622882673E+03  0.50400000000E-02 0. -1.
    8880022    1    1    2    0    0  0.30384496562E+03 -0.69593307964E+02 -0.76538283064E+03  0.84045673422E+03  0.15294330000E+03 0. -1.
    8880022    1    1    2    0    0 -0.30384496562E+03  0.69593307964E+02  0.51205770655E+03  0.61867579514E+03  0.15294330000E+03 0.  0.
<mgrwt>
<rscale>  0 0.34721268E+03</rscale>
<asrwt>0</asrwt>
<pdfrwt beam="1">  1        1 0.13172751E+00 0.34721268E+03</pdfrwt>
<pdfrwt beam="2">  1       -1 0.92754416E-01 0.34721268E+03</pdfrwt>
<totfact> 0.24540985E+01</totfact>
</mgrwt>
</event>
<event>
 4    1  0.8749406E-009  0.1207270E+04  0.7818608E-02  0.9106517E-01
         -1   -1    0    0    0  501 -0.00000000000E+00  0.00000000000E+00  0.14334763120E+04  0.14334763120E+04  0.50400000000E-02 0.  1.
          1   -1    0    0  501    0  0.00000000000E+00 -0.00000000000E+00 -0.11316216950E+04  0.11316216950E+04  0.50400000000E-02 0. -1.
    8880022    1    1    2    0    0  0.71404597529E+02  0.11954123411E+04 -0.25768507674E+03  0.12344644724E+04  0.15294330000E+03 0.  0.
    8880022    1    1    2    0    0 -0.71404597529E+02 -0.11954123411E+04  0.55953969373E+03  0.13306335347E+04  0.15294330000E+03 0.  0.
<mgrwt>
<rscale>  0 0.12072700E+04</rscale>
<asrwt>0</asrwt>
<pdfrwt beam="1">  1        1 0.17409565E+00 0.12072700E+04</pdfrwt>
<pdfrwt beam="2">  1       -1 0.22053482E+00 0.12072700E+04</pdfrwt>
<totfact> 0.12837587E+00</totfact>
</mgrwt>
</event>
<event>
 4    1  0.8749406E-009  0.8418844E+03  0.7818608E-02  0.9501295E-01
          1   -1    0    0  501    0  0.00000000000E+00  0.00000000000E+00  0.91661299991E+03  0.91661299993E+03  0.50400000000E-02 0. -1.
         -1   -1    0    0    0  501 -0.00000000000E+00 -0.00000000000E+00 -0.13056162892E+04  0.13056162892E+04  0.50400000000E-02 0.  1.
    8880022    1    1    2    0    0  0.82406082654E+03 -0.79382151672E+02 -0.90400926974E+03  0.12353146096E+04  0.15294330000E+03 0.  0.
    8880022    1    1    2    0    0 -0.82406082654E+03  0.79382151672E+02  0.51500598044E+03  0.98691467957E+03  0.15294330000E+03 0.  0.
<mgrwt>
<rscale>  0 0.84188445E+03</rscale>
<asrwt>0</asrwt>
<pdfrwt beam="1">  1        1 0.14101739E+00 0.84188445E+03</pdfrwt>
<pdfrwt beam="2">  1       -1 0.20086404E+00 0.84188445E+03</pdfrwt>
<totfact> 0.26864328E+00</totfact>
</mgrwt>
</event>
<event>
 4    1  0.8749406E-009  0.3697985E+03  0.7818608E-02  0.1054770E+00
         -1   -1    0    0    0  501 -0.00000000000E+00  0.00000000000E+00  0.14631757595E+04  0.14631757595E+04  0.50400000000E-02 0.  1.
          1   -1    0    0  501    0  0.00000000000E+00 -0.00000000000E+00 -0.45523731454E+03  0.45523731457E+03  0.50400000000E-02 0. -1.
    8880022    1    1    2    0    0 -0.33603176654E+03 -0.21022847926E+02  0.13590611781E+04  0.14084737296E+04  0.15294330000E+03 0.  0.
    8880022    1    1    2    0    0  0.33603176654E+03  0.21022847926E+02 -0.35112273314E+03  0.50993934443E+03  0.15294330000E+03 0.  0.
<mgrwt>
<rscale>  0 0.36979854E+03</rscale>
<asrwt>0</asrwt>
<pdfrwt beam="1">  1        1 0.70036510E-01 0.36979854E+03</pdfrwt>
<pdfrwt beam="2">  1       -1 0.22510396E+00 0.36979854E+03</pdfrwt>
<totfact> 0.57375985E+00</totfact>
</mgrwt>
</event>
<event>
 4    1  0.8749406E-009  0.5415995E+03  0.7818608E-02  0.1003457E+00
          1   -1    0    0  501    0  0.00000000000E+00  0.00000000000E+00  0.16542128115E+04  0.16542128115E+04  0.50400000000E-02 0. -1.
         -1   -1    0    0    0  501 -0.00000000000E+00 -0.00000000000E+00 -0.38126321432E+03  0.38126321436E+03  0.50400000000E-02 0.  1.
    8880022    1    1    2    0    0  0.33139099015E+03  0.40014788882E+03 -0.10787141197E+03  0.55223746325E+03  0.15294330000E+03 0.  0.
    8880022    1    1    2    0    0 -0.33139099015E+03 -0.40014788882E+03  0.13808210091E+04  0.14832385626E+04  0.15294330000E+03 0. -1.
<mgrwt>
<rscale>  0 0.54159946E+03</rscale>
<asrwt>0</asrwt>
<pdfrwt beam="1">  1        1 0.25449428E+00 0.54159946E+03</pdfrwt>
<pdfrwt beam="2">  1       -1 0.58655880E-01 0.54159946E+03</pdfrwt>
<totfact> 0.16215252E+01</totfact>
</mgrwt>
</event>
<event>
 4    1  0.8749406E-009  0.4737278E+03  0.7818608E-02  0.1020873E+00
         -1   -1    0    0    0  501 -0.00000000000E+00  0.00000000000E+00  0.50690867043E+03  0.50690867046E+03  0.50400000000E-02 0.  1.
          1   -1    0    0  501    0  0.00000000000E+00 -0.00000000000E+00 -0.49749449652E+03  0.49749449655E+03  0.50400000000E-02 0. -1.
    8880022    1    1    2    0    0 -0.40804114035E+03  0.18581939205E+03  0.17134634290E+03  0.50376347716E+03  0.15294330000E+03 0.  0.
    8880022    1    1    2    0    0  0.40804114035E+03 -0.18581939205E+03 -0.16193216899E+03  0.50063968985E+03  0.15294330000E+03 0.  0.
<mgrwt>
<rscale>  0 0.47372785E+03</rscale>
<asrwt>0</asrwt>
<pdfrwt beam="1">  1        1 0.76537615E-01 0.47372785E+03</pdfrwt>
<pdfrwt beam="2">  1       -1 0.77985949E-01 0.47372785E+03</pdfrwt>
<totfact> 0.76840015E+01</totfact>
</mgrwt>
</event>
<event>
 4    1  0.8749406E-009  0.8088250E+03  0.7818608E-02  0.9547330E-01
          1   -1    0    0  501    0  0.00000000000E+00  0.00000000000E+00  0.13942826267E+04  0.13942826267E+04  0.50400000000E-02 0. -1.
         -1   -1    0    0    0  501 -0.00000000000E+00 -0.00000000000E+00 -0.66287699926E+03  0.66287699928E+03  0.50400000000E-02 0.  1.
    8880022    1    1    2    0    0  0.75400249236E+03  0.24957258318E+03  0.92168408424E+03  0.12262542301E+04  0.15294330000E+03 0.  0.
    8880022    1    1    2    0    0 -0.75400249236E+03 -0.24957258318E+03 -0.19027845679E+03  0.83090539587E+03  0.15294330000E+03 0.  0.
<mgrwt>
<rscale>  0 0.80882500E+03</rscale>
<asrwt>0</asrwt>
<pdfrwt beam="1">  1        1 0.21450502E+00 0.80882500E+03</pdfrwt>
<pdfrwt beam="2">  1       -1 0.10198108E+00 0.80882500E+03</pdfrwt>
<totfact> 0.72730841E+00</totfact>
</mgrwt>
</event>
<event>
 4    1  0.8749406E-009  0.3270975E+03  0.7818608E-02  0.1072428E+00
          1   -1    0    0  501    0  0.00000000000E+00  0.00000000000E+00  0.47588630686E+03  0.47588630689E+03  0.50400000000E-02 0. -1.
         -1   -1    0    0    0  501 -0.00000000000E+00 -0.00000000000E+00 -0.14392232273E+04  0.14392232273E+04  0.50400000000E-02 0.  1.
    8880022    1    1    2    0    0 -0.19558918741E+03  0.21294591569E+03 -0.13612568767E+04  0.14000046538E+04  0.15294330000E+03 0.  0.
    8880022    1    1    2    0    0  0.19558918741E+03 -0.21294591569E+03  0.39791995625E+03  0.51510488042E+03  0.15294330000E+03 0.  0.
<mgrwt>
<rscale>  0 0.32709746E+03</rscale>
<asrwt>0</asrwt>
<pdfrwt beam="1">  1        1 0.73213279E-01 0.32709746E+03</pdfrwt>
<pdfrwt beam="2">  1       -1 0.22141896E+00 0.32709746E+03</pdfrwt>
<totfact> 0.57931504E+00</totfact>
</mgrwt>
</event>
<event>
 4    1  0.8749406E-009  0.3783177E+03  0.7818608E-02  0.1051557E+00
         -1   -1    0    0    0  501 -0.00000000000E+00  0.00000000000E+00  0.12027686559E+04  0.12027686559E+04  0.50400000000E-02 0.  1.
          1   -1    0    0  501    0  0.00000000000E+00 -0.00000000000E+00 -0.70046955492E+03  0.70046955493E+03  0.50400000000E-02 0. -1.
    8880022    1    1    2    0    0  0.27087631537E+03 -0.21531060397E+03 -0.61587944210E+03  0.72279442072E+03  0.15294330000E+03 0.  0.
    8880022    1    1    2    0    0 -0.27087631537E+03  0.21531060397E+03  0.11181785431E+04  0.11804437902E+04  0.15294330000E+03 0.  0.
<mgrwt>
<rscale>  0 0.37831771E+03</rscale>
<asrwt>0</asrwt>
<pdfrwt beam="1">  1        1 0.10776455E+00 0.37831771E+03</pdfrwt>
<pdfrwt beam="2">  1       -1 0.18504133E+00 0.37831771E+03</pdfrwt>
<totfact> 0.58250206E+00</totfact>
</mgrwt>
</event>
<event>
 4    1  0.8749406E-009  0.1080063E+04  0.7818608E-02  0.9224844E-01
          1   -1    0    0  501    0  0.00000000000E+00  0.00000000000E+00  0.20387956222E+04  0.20387956222E+04  0.50400000000E-02 0. -1.
         -1   -1    0    0    0  501 -0.00000000000E+00 -0.00000000000E+00 -0.69992805111E+03  0.69992805113E+03  0.50400000000E-02 0.  1.
    8880022    1    1    2    0    0 -0.71197323878E+03  0.79764605928E+03  0.12544749407E+04  0.16553682848E+04  0.15294330000E+03 0.  0.
    8880022    1    1    2    0    0  0.71197323878E+03 -0.79764605928E+03  0.84392630356E+02  0.10833553885E+04  0.15294330000E+03 0.  0.
<mgrwt>
<rscale>  0 0.10800633E+04</rscale>
<asrwt>0</asrwt>
<pdfrwt beam="1">  1        1 0.31366086E+00 0.10800633E+04</pdfrwt>
<pdfrwt beam="2">  1       -1 0.10768124E+00 0.10800633E+04</pdfrwt>
<totfact> 0.22520531E+00</totfact>
</mgrwt>
</event>
<event>
 4    1  0.1170016E-008  0.7979601E+03  0.7818608E-02  0.9562975E-01
         -1   -1    0    0    0  501 -0.00000000000E+00  0.00000000000E+00  0.20461820452E+04  0.20461820452E+04  0.50400000000E-02 0.  1.
          1   -1    0    0  501    0  0.00000000000E+00 -0.00000000000E+00 -0.26924194378E+04  0.26924194378E+04  0.50400000000E-02 0. -1.
    8880022    1    1    2    0    0 -0.12060695308E+03 -0.77382333556E+03 -0.25512970451E+04  0.26731735554E+04  0.15294330000E+03 0.  0.
    8880022    1    1    2    0    0  0.12060695308E+03  0.77382333556E+03  0.19050596525E+04  0.20654279276E+04  0.15294330000E+03 0.  0.
<mgrwt>
<rscale>  0 0.79796005E+03</rscale>
<asrwt>0</asrwt>
<pdfrwt beam="1">  1        1 0.41421838E+00 0.79796005E+03</pdfrwt>
<pdfrwt beam="2">  1       -1 0.31479724E+00 0.79796005E+03</pdfrwt>
<totfact> 0.28707041E-02</totfact>
</mgrwt>
</event>
<event>
 4    1  0.8749406E-009  0.4893725E+03  0.7818608E-02  0.1016591E+00
         -1   -1    0    0    0  501 -0.00000000000E+00  0.00000000000E+00  0.41647941396E+03  0.41647941399E+03  0.50400000000E-02 0.  1.
          1   -1    0    0  501    0  0.00000000000E+00 -0.00000000000E+00 -0.17303335669E+04  0.17303335669E+04  0.50400000000E-02 0. -1.
    8880022    1    1    2    0    0  0.35717914274E+03 -0.29751779644E+03 -0.15340260193E+04  0.16101929263E+04  0.15294330000E+03 0.  0.
    8880022    1    1    2    0    0 -0.35717914274E+03  0.29751779644E+03  0.22017186634E+03  0.53662005455E+03  0.15294330000E+03 0.  1.
<mgrwt>
<rscale>  0 0.48937249E+03</rscale>
<asrwt>0</asrwt>
<pdfrwt beam="1">  1        1 0.26620516E+00 0.48937249E+03</pdfrwt>
<pdfrwt beam="2">  1       -1 0.64073757E-01 0.48937249E+03</pdfrwt>
<totfact> 0.12263326E+01</totfact>
</mgrwt>
</event>
<event>
 4    1  0.8749406E-009  0.1412595E+04  0.7818608E-02  0.8944752E-01
         -1   -1    0    0    0  501 -0.00000000000E+00  0.00000000000E+00  0.11440933664E+04  0.11440933664E+04  0.50400000000E-02 0.  1.
          1   -1    0    0  501    0  0.00000000000E+00 -0.00000000000E+00 -0.19269141583E+04  0.19269141583E+04  0.50400000000E-02 0. -1.
    8880022    1    1    2    0    0 -0.31919601480E+03  0.13675327765E+04  0.81538061867E+02  0.14149459704E+04  0.15294330000E+03 0.  0.
    8880022    1    1    2    0    0  0.31919601480E+03 -0.13675327765E+04 -0.86435885377E+03  0.16560615543E+04  0.15294330000E+03 0.  0.
<mgrwt>
<rscale>  0 0.14125946E+04</rscale>
<asrwt>0</asrwt>
<pdfrwt beam="1">  1        1 0.29644833E+00 0.14125946E+04</pdfrwt>
<pdfrwt beam="2">  1       -1 0.17601436E+00 0.14125946E+04</pdfrwt>
<totfact> 0.71054959E-01</totfact>
</mgrwt>
</event>
<event>
 4    1  0.8749406E-009  0.3672675E+03  0.7818608E-02  0.1055743E+00
          1   -1    0    0  501    0  0.00000000000E+00  0.00000000000E+00  0.13695352331E+04  0.13695352331E+04  0.50400000000E-02 0. -1.
         -1   -1    0    0    0  501 -0.00000000000E+00 -0.00000000000E+00 -0.24180444628E+03  0.24180444633E+03  0.50400000000E-02 0.  1.
    8880022    1    1    2    0    0 -0.20046931074E+03 -0.26703143906E+03  0.11841201490E+04  0.12397684922E+04  0.15294330000E+03 0.  0.
    8880022    1    1    2    0    0  0.20046931074E+03  0.26703143906E+03 -0.56389362180E+02  0.37157118723E+03  0.15294330000E+03 0.  0.
<mgrwt>
<rscale>  0 0.36726746E+03</rscale>
<asrwt>0</asrwt>
<pdfrwt beam="1">  1        1 0.21069773E+00 0.36726746E+03</pdfrwt>
<pdfrwt beam="2">  1       -1 0.37200684E-01 0.36726746E+03</pdfrwt>
<totfact> 0.60843732E+01</totfact>
</mgrwt>
</event>
<event>
 4    1  0.8749406E-009  0.9605394E+03  0.7818608E-02  0.9352916E-01
         -1   -1    0    0    0  501 -0.00000000000E+00  0.00000000000E+00  0.60457973328E+03  0.60457973330E+03  0.50400000000E-02 0.  1.
          1   -1    0    0  501    0  0.00000000000E+00 -0.00000000000E+00 -0.15840577006E+04  0.15840577006E+04  0.50400000000E-02 0. -1.
    8880022    1    1    2    0    0  0.77321717026E+03 -0.54898035996E+03 -0.69910008688E+03  0.11880138099E+04  0.15294330000E+03 0.  0.
    8880022    1    1    2    0    0 -0.77321717026E+03  0.54898035996E+03 -0.28037788039E+03  0.10006236240E+04  0.15294330000E+03 0.  0.
<mgrwt>
<rscale>  0 0.96053937E+03</rscale>
<asrwt>0</asrwt>
<pdfrwt beam="1">  1        1 0.24370118E+00 0.96053937E+03</pdfrwt>
<pdfrwt beam="2">  1       -1 0.93012267E-01 0.96053937E+03</pdfrwt>
<totfact> 0.64978626E+00</totfact>
</mgrwt>
</event>
<event>
 4    1  0.8749406E-009  0.1244961E+04  0.7818608E-02  0.9074387E-01
         -1   -1    0    0    0  501 -0.00000000000E+00  0.00000000000E+00  0.73669131931E+03  0.73669131933E+03  0.50400000000E-02 0.  1.
          1   -1    0    0  501    0  0.00000000000E+00 -0.00000000000E+00 -0.24060866046E+04  0.24060866047E+04  0.50400000000E-02 0. -1.
    8880022    1    1    2    0    0  0.10801499479E+04  0.59984437359E+03 -0.13915778773E+04  0.18671951757E+04  0.15294330000E+03 0.  0.
    8880022    1    1    2    0    0 -0.10801499479E+04 -0.59984437359E+03 -0.27781740808E+03  0.12755827483E+04  0.15294330000E+03 0.  0.
<mgrwt>
<rscale>  0 0.12449614E+04</rscale>
<asrwt>0</asrwt>
<pdfrwt beam="1">  1        1 0.37016717E+00 0.12449614E+04</pdfrwt>
<pdfrwt beam="2">  1       -1 0.11333713E+00 0.12449614E+04</pdfrwt>
<totfact> 0.10988278E+00</totfact>
</mgrwt>
</event>
<event>
 4    1  0.8749406E-009  0.1464753E+04  0.7818608E-02  0.8908236E-01
         -1   -1    0    0    0  501 -0.00000000000E+00  0.00000000000E+00  0.21715905993E+04  0.21715905993E+04  0.50400000000E-02 0.  1.
          1   -1    0    0  501    0  0.00000000000E+00 -0.00000000000E+00 -0.17175410434E+04  0.17175410434E+04  0.50400000000E-02 0. -1.
    8880022    1    1    2    0    0  0.10583014241E+03  0.14528973873E+04  0.14943787461E+04  0.20925272583E+04  0.15294330000E+03 0.  0.
    8880022    1    1    2    0    0 -0.10583014241E+03 -0.14528973873E+04 -0.10403291902E+04  0.17966043844E+04  0.15294330000E+03 0.  0.
<mgrwt>
<rscale>  0 0.14647534E+04</rscale>
<asrwt>0</asrwt>
<pdfrwt beam="1">  1        1 0.26423709E+00 0.14647534E+04</pdfrwt>
<pdfrwt beam="2">  1       -1 0.33409086E+00 0.14647534E+04</pdfrwt>
<totfact> 0.87095622E-02</totfact>
</mgrwt>
</event>
<event>
 4    1  0.8749406E-009  0.7408068E+03  0.7818608E-02  0.9649884E-01
          1   -1    0    0  501    0  0.00000000000E+00  0.00000000000E+00  0.77832076736E+03  0.77832076738E+03  0.50400000000E-02 0. -1.
         -1   -1    0    0    0  501 -0.00000000000E+00 -0.00000000000E+00 -0.92667700923E+03  0.92667700924E+03  0.50400000000E-02 0.  1.
    8880022    1    1    2    0    0 -0.19162950030E+03 -0.69905734349E+03  0.34268269590E+03  0.81622675646E+03  0.15294330000E+03 0.  0.
    8880022    1    1    2    0    0  0.19162950030E+03  0.69905734349E+03 -0.49103893777E+03  0.88877102017E+03  0.15294330000E+03 0.  0.
<mgrwt>
<rscale>  0 0.74080678E+03</rscale>
<asrwt>0</asrwt>
<pdfrwt beam="1">  1        1 0.11974166E+00 0.74080678E+03</pdfrwt>
<pdfrwt beam="2">  1       -1 0.14256569E+00 0.74080678E+03</pdfrwt>
<totfact> 0.95331367E+00</totfact>
</mgrwt>
</event>
<event>
 4    1  0.8749406E-009  0.4859879E+03  0.7818608E-02  0.1017502E+00
         -1   -1    0    0    0  501 -0.00000000000E+00  0.00000000000E+00  0.14218009708E+04  0.14218009708E+04  0.50400000000E-02 0.  1.
          1   -1    0    0  501    0  0.00000000000E+00 -0.00000000000E+00 -0.34567370381E+03  0.34567370385E+03  0.50400000000E-02 0. -1.
    8880022    1    1    2    0    0  0.45042550948E+02  0.45909013959E+03 -0.98866440981E+02  0.49594234930E+03  0.15294330000E+03 0.  0.
    8880022    1    1    2    0    0 -0.45042550948E+02 -0.45909013959E+03  0.11749937080E+04  0.12715323254E+04  0.15294330000E+03 0.  0.
<mgrwt>
<rscale>  0 0.48598790E+03</rscale>
<asrwt>0</asrwt>
<pdfrwt beam="1">  1        1 0.53180571E-01 0.48598790E+03</pdfrwt>
<pdfrwt beam="2">  1       -1 0.21873861E+00 0.48598790E+03</pdfrwt>
<totfact> 0.87985514E+00</totfact>
</mgrwt>
</event>
<event>
 4    1  0.8749406E-009  0.2317617E+03  0.7818608E-02  0.1125406E+00
          1   -1    0    0  501    0  0.00000000000E+00  0.00000000000E+00  0.17987268293E+04  0.17987268293E+04  0.50400000000E-02 0. -1.
         -1   -1    0    0    0  501 -0.00000000000E+00 -0.00000000000E+00 -0.43946169434E+02  0.43946169723E+02  0.50400000000E-02 0.  1.
    8880022    1    1    2    0    0  0.15639791244E+03  0.76560513506E+02  0.35580626569E+03  0.42463109985E+03  0.15294330000E+03 0.  1.
    8880022    1    1    2    0    0 -0.15639791244E+03 -0.76560513506E+02  0.13989743942E+04  0.14180418992E+04  0.15294330000E+03 0.  0.
<mgrwt>
<rscale>  0 0.23176167E+03</rscale>
<asrwt>0</asrwt>
<pdfrwt beam="1">  1        1 0.27672709E+00 0.23176167E+03</pdfrwt>
<pdfrwt beam="2">  1       -1 0.67609519E-02 0.23176167E+03</pdfrwt>
<totfact> 0.51119102E+02</totfact>
</mgrwt>
</event>
<event>
 4    1  0.8749406E-009  0.8243681E+03  0.7818608E-02  0.9525400E-01
         -1   -1    0    0    0  501 -0.00000000000E+00  0.00000000000E+00  0.72823410952E+03  0.72823410954E+03  0.50400000000E-02 0.  1.
          1   -1    0    0  501    0  0.00000000000E+00 -0.00000000000E+00 -0.10130963049E+04  0.10130963049E+04  0.50400000000E-02 0. -1.
    8880022    1    1    2    0    0 -0.75077557990E+03 -0.30418263916E+03  0.10208598579E+03  0.83066494500E+03  0.15294330000E+03 0.  0.
    8880022    1    1    2    0    0  0.75077557990E+03  0.30418263916E+03 -0.38694818119E+03  0.91066546947E+03  0.15294330000E+03 0.  0.
<mgrwt>
<rscale>  0 0.82436806E+03</rscale>
<asrwt>0</asrwt>
<pdfrwt beam="1">  1        1 0.15586097E+00 0.82436806E+03</pdfrwt>
<pdfrwt beam="2">  1       -1 0.11203602E+00 0.82436806E+03</pdfrwt>
<totfact> 0.11039279E+01</totfact>
</mgrwt>
</event>
<event>
 4    1  0.8749406E-009  0.6219749E+03  0.7818608E-02  0.9860836E-01
         -1   -1    0    0    0  501 -0.00000000000E+00  0.00000000000E+00  0.87101953451E+03  0.87101953453E+03  0.50400000000E-02 0.  1.
          1   -1    0    0  501    0  0.00000000000E+00 -0.00000000000E+00 -0.20136056774E+04  0.20136056774E+04  0.50400000000E-02 0. -1.
    8880022    1    1    2    0    0 -0.27919861386E+03 -0.53433060692E+03  0.70205870585E+03  0.93794410439E+03  0.15294330000E+03 0.  0.
    8880022    1    1    2    0    0  0.27919861386E+03  0.53433060692E+03 -0.18446448487E+04  0.19466811075E+04  0.15294330000E+03 0.  0.
<mgrwt>
<rscale>  0 0.62197485E+03</rscale>
<asrwt>0</asrwt>
<pdfrwt beam="1">  1        1 0.30978549E+00 0.62197485E+03</pdfrwt>
<pdfrwt beam="2">  1       -1 0.13400301E+00 0.62197485E+03</pdfrwt>
<totfact> 0.14898186E+00</totfact>
</mgrwt>
</event>
<event>
 4    1  0.8749406E-009  0.5870556E+03  0.7818608E-02  0.9932632E-01
         -1   -1    0    0    0  501 -0.00000000000E+00  0.00000000000E+00  0.62757956509E+03  0.62757956511E+03  0.50400000000E-02 0.  1.
          1   -1    0    0  501    0  0.00000000000E+00 -0.00000000000E+00 -0.23081544033E+04  0.23081544033E+04  0.50400000000E-02 0. -1.
    8880022    1    1    2    0    0  0.46299320776E+03 -0.32692485884E+03  0.44112211674E+03  0.73431801602E+03  0.15294330000E+03 0.  0.
    8880022    1    1    2    0    0 -0.46299320776E+03  0.32692485884E+03 -0.21216969549E+04  0.22014159524E+04  0.15294330000E+03 0.  0.
<mgrwt>
<rscale>  0 0.58705556E+03</rscale>
<asrwt>0</asrwt>
<pdfrwt beam="1">  1        1 0.35510067E+00 0.58705556E+03</pdfrwt>
<pdfrwt beam="2">  1       -1 0.96550703E-01 0.58705556E+03</pdfrwt>
<totfact> 0.20874347E+00</totfact>
</mgrwt>
</event>
<event>
 4    1  0.8749406E-009  0.1247171E+04  0.7818608E-02  0.9072541E-01
         -1   -1    0    0    0  501 -0.00000000000E+00  0.00000000000E+00  0.25314351706E+04  0.25314351706E+04  0.50400000000E-02 0.  1.
          1   -1    0    0  501    0  0.00000000000E+00 -0.00000000000E+00 -0.10508488347E+04  0.10508488347E+04  0.50400000000E-02 0. -1.
    8880022    1    1    2    0    0  0.66243674479E+03 -0.10455722406E+04  0.18945505380E+04  0.22682057105E+04  0.15294330000E+03 0.  0.
    8880022    1    1    2    0    0 -0.66243674479E+03  0.10455722406E+04 -0.41396420203E+03  0.13140782948E+04  0.15294330000E+03 0.  0.
<mgrwt>
<rscale>  0 0.12471710E+04</rscale>
<asrwt>0</asrwt>
<pdfrwt beam="1">  1        1 0.16166905E+00 0.12471710E+04</pdfrwt>
<pdfrwt beam="2">  1       -1 0.38945156E+00 0.12471710E+04</pdfrwt>
<totfact> 0.11482104E-01</totfact>
</mgrwt>
</event>
<event>
 4    1  0.8749406E-009  0.1612605E+04  0.7818608E-02  0.8812842E-01
         -1   -1    0    0    0  501 -0.00000000000E+00  0.00000000000E+00  0.10595504828E+04  0.10595504828E+04  0.50400000000E-02 0.  1.
          1   -1    0    0  501    0  0.00000000000E+00 -0.00000000000E+00 -0.29161283420E+04  0.29161283420E+04  0.50400000000E-02 0. -1.
    8880022    1    1    2    0    0 -0.10670031189E+04 -0.11994194569E+04 -0.13724482100E+03  0.16184345780E+04  0.15294330000E+03 0.  0.
    8880022    1    1    2    0    0  0.10670031189E+04  0.11994194569E+04 -0.17193330382E+04  0.23572442467E+04  0.15294330000E+03 0.  0.
<mgrwt>
<rscale>  0 0.16126048E+04</rscale>
<asrwt>0</asrwt>
<pdfrwt beam="1">  1        1 0.44863513E+00 0.16126048E+04</pdfrwt>
<pdfrwt beam="2">  1       -1 0.16300777E+00 0.16126048E+04</pdfrwt>
<totfact> 0.17882952E-01</totfact>
</mgrwt>
</event>
<event>
 4    1  0.8749406E-009  0.7338361E+03  0.7818608E-02  0.9661056E-01
         -1   -1    0    0    0  501 -0.00000000000E+00  0.00000000000E+00  0.69698881150E+03  0.69698881151E+03  0.50400000000E-02 0.  1.
          1   -1    0    0  501    0  0.00000000000E+00 -0.00000000000E+00 -0.12637998789E+04  0.12637998789E+04  0.50400000000E-02 0. -1.
    8880022    1    1    2    0    0  0.71682635617E+03  0.35828970889E+02 -0.89459648709E+03  0.11570731471E+04  0.15294330000E+03 0.  0.
    8880022    1    1    2    0    0 -0.71682635617E+03 -0.35828970889E+02  0.32778541974E+03  0.80371554325E+03  0.15294330000E+03 0.  0.
<mgrwt>
<rscale>  0 0.73383608E+03</rscale>
<asrwt>0</asrwt>
<pdfrwt beam="1">  1        1 0.19443075E+00 0.73383608E+03</pdfrwt>
<pdfrwt beam="2">  1       -1 0.10722905E+00 0.73383608E+03</pdfrwt>
<totfact> 0.80874678E+00</totfact>
</mgrwt>
</event>
<event>
 4    1  0.8749406E-009  0.1145232E+04  0.7818608E-02  0.9162193E-01
         -1   -1    0    0    0  501 -0.00000000000E+00  0.00000000000E+00  0.13865543374E+04  0.13865543374E+04  0.50400000000E-02 0.  1.
          1   -1    0    0  501    0  0.00000000000E+00 -0.00000000000E+00 -0.25251427727E+04  0.25251427727E+04  0.50400000000E-02 0. -1.
    8880022    1    1    2    0    0  0.67812136243E+03 -0.91011907157E+03  0.97743822470E+03  0.15056368894E+04  0.15294330000E+03 0.  0.
    8880022    1    1    2    0    0 -0.67812136243E+03  0.91011907157E+03 -0.21160266600E+04  0.24060602207E+04  0.15294330000E+03 0.  0.
<mgrwt>
<rscale>  0 0.11452323E+04</rscale>
<asrwt>0</asrwt>
<pdfrwt beam="1">  1        1 0.38848350E+00 0.11452323E+04</pdfrwt>
<pdfrwt beam="2">  1       -1 0.21331605E+00 0.11452323E+04</pdfrwt>
<totfact> 0.15805420E-01</totfact>
</mgrwt>
</event>
<event>
 4    1  0.8749406E-009  0.4359132E+03  0.7818608E-02  0.1032008E+00
         -1   -1    0    0    0  501 -0.00000000000E+00  0.00000000000E+00  0.12236917398E+04  0.12236917398E+04  0.50400000000E-02 0.  1.
          1   -1    0    0  501    0  0.00000000000E+00 -0.00000000000E+00 -0.33766867916E+03  0.33766867920E+03  0.50400000000E-02 0. -1.
    8880022    1    1    2    0    0 -0.39922122279E+03  0.85153412975E+02 -0.13073672768E+03  0.45509607057E+03  0.15294330000E+03 0.  0.
    8880022    1    1    2    0    0  0.39922122279E+03 -0.85153412975E+02  0.10167597883E+04  0.11062643484E+04  0.15294330000E+03 0.  0.
<mgrwt>
<rscale>  0 0.43591323E+03</rscale>
<asrwt>0</asrwt>
<pdfrwt beam="1">  1        1 0.51949027E-01 0.43591323E+03</pdfrwt>
<pdfrwt beam="2">  1       -1 0.18826027E+00 0.43591323E+03</pdfrwt>
<totfact> 0.14694689E+01</totfact>
</mgrwt>
</event>
<event>
 4    1  0.8749406E-009  0.5488040E+03  0.7818608E-02  0.1001771E+00
         -1   -1    0    0    0  501 -0.00000000000E+00  0.00000000000E+00  0.13830756786E+04  0.13830756786E+04  0.50400000000E-02 0.  1.
          1   -1    0    0  501    0  0.00000000000E+00 -0.00000000000E+00 -0.47939569409E+03  0.47939569411E+03  0.50400000000E-02 0. -1.
    8880022    1    1    2    0    0  0.31029526184E+03  0.42604116620E+03  0.11397896375E+04  0.12650321323E+04  0.15294330000E+03 0.  1.
    8880022    1    1    2    0    0 -0.31029526184E+03 -0.42604116620E+03 -0.23610965299E+03  0.59743924049E+03  0.15294330000E+03 0. -1.
<mgrwt>
<rscale>  0 0.54880404E+03</rscale>
<asrwt>0</asrwt>
<pdfrwt beam="1">  1        1 0.73753184E-01 0.54880404E+03</pdfrwt>
<pdfrwt beam="2">  1       -1 0.21278087E+00 0.54880404E+03</pdfrwt>
<totfact> 0.61851645E+00</totfact>
</mgrwt>
</event>
<event>
 4    1  0.8749406E-009  0.5429006E+03  0.7818608E-02  0.1003151E+00
          1   -1    0    0  501    0  0.00000000000E+00  0.00000000000E+00  0.65767859308E+03  0.65767859310E+03  0.50400000000E-02 0. -1.
         -1   -1    0    0    0  501 -0.00000000000E+00 -0.00000000000E+00 -0.50031808380E+03  0.50031808382E+03  0.50400000000E-02 0.  1.
    8880022    1    1    2    0    0  0.27427621805E+03 -0.44285654455E+03  0.26563726663E+03  0.60440398185E+03  0.15294330000E+03 0.  0.
    8880022    1    1    2    0    0 -0.27427621805E+03  0.44285654455E+03 -0.10827675734E+03  0.55359269507E+03  0.15294330000E+03 0.  0.
<mgrwt>
<rscale>  0 0.54290056E+03</rscale>
<asrwt>0</asrwt>
<pdfrwt beam="1">  1        1 0.10118132E+00 0.54290056E+03</pdfrwt>
<pdfrwt beam="2">  1       -1 0.76972013E-01 0.54290056E+03</pdfrwt>
<totfact> 0.52894520E+01</totfact>
</mgrwt>
</event>
<event>
 4    1  0.8749406E-009  0.5325943E+03  0.7818608E-02  0.1005605E+00
         -1   -1    0    0    0  501 -0.00000000000E+00  0.00000000000E+00  0.71350785198E+03  0.71350785199E+03  0.50400000000E-02 0.  1.
          1   -1    0    0  501    0  0.00000000000E+00 -0.00000000000E+00 -0.79062496345E+03  0.79062496346E+03  0.50400000000E-02 0. -1.
    8880022    1    1    2    0    0 -0.49098024164E+03 -0.13857656191E+03 -0.56884109768E+03  0.77925407193E+03  0.15294330000E+03 0.  0.
    8880022    1    1    2    0    0  0.49098024164E+03  0.13857656191E+03  0.49172398621E+03  0.72487874353E+03  0.15294330000E+03 0.  0.
<mgrwt>
<rscale>  0 0.53259432E+03</rscale>
<asrwt>0</asrwt>
<pdfrwt beam="1">  1        1 0.12163461E+00 0.53259432E+03</pdfrwt>
<pdfrwt beam="2">  1       -1 0.10977044E+00 0.53259432E+03</pdfrwt>
<totfact> 0.18317175E+01</totfact>
</mgrwt>
</event>
<event>
 4    1  0.8749406E-009  0.1457846E+04  0.7818608E-02  0.8912979E-01
          1   -1    0    0  501    0  0.00000000000E+00  0.00000000000E+00  0.28742150073E+04  0.28742150073E+04  0.50400000000E-02 0. -1.
         -1   -1    0    0    0  501 -0.00000000000E+00 -0.00000000000E+00 -0.10466295352E+04  0.10466295352E+04  0.50400000000E-02 0.  1.
    8880022    1    1    2    0    0  0.41302938663E+03  0.13897230884E+04  0.19758671701E+04  0.24554767895E+04  0.15294330000E+03 0.  0.
    8880022    1    1    2    0    0 -0.41302938663E+03 -0.13897230884E+04 -0.14828169803E+03  0.14653677530E+04  0.15294330000E+03 0.  0.
<mgrwt>
<rscale>  0 0.14578461E+04</rscale>
<asrwt>0</asrwt>
<pdfrwt beam="1">  1        1 0.44218692E+00 0.14578461E+04</pdfrwt>
<pdfrwt beam="2">  1       -1 0.16101993E+00 0.14578461E+04</pdfrwt>
<totfact> 0.20220734E-01</totfact>
</mgrwt>
</event>
<event>
 4    1  0.8749406E-009  0.1210818E+04  0.7818608E-02  0.9103440E-01
         -1   -1    0    0    0  501 -0.00000000000E+00  0.00000000000E+00  0.78504487411E+03  0.78504487413E+03  0.50400000000E-02 0.  1.
          1   -1    0    0  501    0  0.00000000000E+00 -0.00000000000E+00 -0.25955882588E+04  0.25955882588E+04  0.50400000000E-02 0. -1.
    8880022    1    1    2    0    0 -0.24889238175E+02 -0.12008615799E+04 -0.18005106764E+04  0.21697738032E+04  0.15294330000E+03 0.  0.
    8880022    1    1    2    0    0  0.24889238175E+02  0.12008615799E+04 -0.10032708274E+02  0.12108593297E+04  0.15294330000E+03 0.  0.
<mgrwt>
<rscale>  0 0.12108178E+04</rscale>
<asrwt>0</asrwt>
<pdfrwt beam="1">  1        1 0.39932127E+00 0.12108178E+04</pdfrwt>
<pdfrwt beam="2">  1       -1 0.12077614E+00 0.12108178E+04</pdfrwt>
<totfact> 0.69967419E-01</totfact>
</mgrwt>
</event>
<event>
 4    1  0.8749406E-009  0.5258960E+03  0.7818608E-02  0.1007232E+00
          1   -1    0    0  501    0  0.00000000000E+00  0.00000000000E+00  0.29325594473E+04  0.29325594473E+04  0.50400000000E-02 0. -1.
         -1   -1    0    0    0  501 -0.00000000000E+00 -0.00000000000E+00 -0.68385001032E+03  0.68385001034E+03  0.50400000000E-02 0.  1.
    8880022    1    1    2    0    0 -0.28710882575E+03 -0.41321114419E+03  0.28032523005E+04  0.28521553325E+04  0.15294330000E+03 0.  0.
    8880022    1    1    2    0    0  0.28710882575E+03  0.41321114419E+03 -0.55454286344E+03  0.76425412522E+03  0.15294330000E+03 0.  0.
<mgrwt>
<rscale>  0 0.52589598E+03</rscale>
<asrwt>0</asrwt>
<pdfrwt beam="1">  1        1 0.45116300E+00 0.52589598E+03</pdfrwt>
<pdfrwt beam="2">  1       -1 0.10520769E+00 0.52589598E+03</pdfrwt>
<totfact> 0.65278272E-01</totfact>
</mgrwt>
</event>
<event>
 4    1  0.8749406E-009  0.8352163E+03  0.7818608E-02  0.9510397E-01
          1   -1    0    0  501    0  0.00000000000E+00  0.00000000000E+00  0.92127772793E+03  0.92127772794E+03  0.50400000000E-02 0. -1.
         -1   -1    0    0    0  501 -0.00000000000E+00 -0.00000000000E+00 -0.29413370546E+04  0.29413370546E+04  0.50400000000E-02 0.  1.
    8880022    1    1    2    0    0 -0.32046843943E+03  0.75597261241E+03 -0.26742832955E+04  0.28016740369E+04  0.15294330000E+03 0.  0.
    8880022    1    1    2    0    0  0.32046843943E+03 -0.75597261241E+03  0.65422396883E+03  0.10609407457E+04  0.15294330000E+03 0.  0.
<mgrwt>
<rscale>  0 0.83521630E+03</rscale>
<asrwt>0</asrwt>
<pdfrwt beam="1">  1        1 0.14173504E+00 0.83521630E+03</pdfrwt>
<pdfrwt beam="2">  1       -1 0.45251339E+00 0.83521630E+03</pdfrwt>
<totfact> 0.57730914E-02</totfact>
</mgrwt>
</event>
<event>
 4    1  0.8749406E-009  0.1624961E+03  0.7818608E-02  0.1185907E+00
         -1   -1    0    0    0  501 -0.00000000000E+00  0.00000000000E+00  0.37657631276E+03  0.37657631280E+03  0.50400000000E-02 0.  1.
          1   -1    0    0  501    0  0.00000000000E+00 -0.00000000000E+00 -0.59591053713E+03  0.59591053715E+03  0.50400000000E-02 0. -1.
    8880022    1    1    2    0    0  0.46881578637E+02  0.28555839778E+02 -0.56640833045E+03  0.58925662340E+03  0.15294330000E+03 0.  0.
    8880022    1    1    2    0    0 -0.46881578637E+02 -0.28555839778E+02  0.34707410609E+03  0.38323022654E+03  0.15294330000E+03 0.  0.
<mgrwt>
<rscale>  0 0.16249607E+03</rscale>
<asrwt>0</asrwt>
<pdfrwt beam="1">  1        1 0.91678544E-01 0.16249607E+03</pdfrwt>
<pdfrwt beam="2">  1       -1 0.57934817E-01 0.16249607E+03</pdfrwt>
<totfact> 0.11460058E+02</totfact>
</mgrwt>
</event>
<event>
 4    1  0.8749406E-009  0.5628819E+03  0.7818608E-02  0.9985555E-01
          1   -1    0    0  501    0  0.00000000000E+00  0.00000000000E+00  0.19101764370E+04  0.19101764370E+04  0.50400000000E-02 0. -1.
         -1   -1    0    0    0  501 -0.00000000000E+00 -0.00000000000E+00 -0.21165151204E+03  0.21165151210E+03  0.50400000000E-02 0.  1.
    8880022    1    1    2    0    0 -0.18527821827E+03  0.50903478296E+03  0.13426937411E+04  0.14559060972E+04  0.15294330000E+03 0.  0.
    8880022    1    1    2    0    0  0.18527821827E+03 -0.50903478296E+03  0.35583118387E+03  0.66592185192E+03  0.15294330000E+03 0.  0.
<mgrwt>
<rscale>  0 0.56288194E+03</rscale>
<asrwt>0</asrwt>
<pdfrwt beam="1">  1        1 0.29387330E+00 0.56288194E+03</pdfrwt>
<pdfrwt beam="2">  1       -1 0.32561770E-01 0.56288194E+03</pdfrwt>
<totfact> 0.32242518E+01</totfact>
</mgrwt>
</event>
<event>
 4    1  0.8749406E-009  0.7587482E+03  0.7818608E-02  0.9621725E-01
         -1   -1    0    0    0  501 -0.00000000000E+00  0.00000000000E+00  0.25949243291E+04  0.25949243291E+04  0.50400000000E-02 0.  1.
          1   -1    0    0  501    0  0.00000000000E+00 -0.00000000000E+00 -0.78060700019E+03  0.78060700020E+03  0.50400000000E-02 0. -1.
    8880022    1    1    2    0    0 -0.52362376877E+03 -0.52737592875E+03 -0.52076562768E+03  0.92026937004E+03  0.15294330000E+03 0. -1.
    8880022    1    1    2    0    0  0.52362376877E+03  0.52737592875E+03  0.23350829566E+04  0.24552619593E+04  0.15294330000E+03 0.  0.
<mgrwt>
<rscale>  0 0.75874823E+03</rscale>
<asrwt>0</asrwt>
<pdfrwt beam="1">  1        1 0.12009339E+00 0.75874823E+03</pdfrwt>
<pdfrwt beam="2">  1       -1 0.39921912E+00 0.75874823E+03</pdfrwt>
<totfact> 0.17922254E-01</totfact>
</mgrwt>
</event>
<event>
 4    1  0.8749406E-009  0.1029762E+04  0.7818608E-02  0.9276491E-01
         -1   -1    0    0    0  501 -0.00000000000E+00  0.00000000000E+00  0.91954080877E+03  0.91954080878E+03  0.50400000000E-02 0.  1.
          1   -1    0    0  501    0  0.00000000000E+00 -0.00000000000E+00 -0.16209170173E+04  0.16209170173E+04  0.50400000000E-02 0. -1.
    8880022    1    1    2    0    0  0.23699267505E+03  0.99038036799E+03  0.33164306663E+03  0.10818491475E+04  0.15294330000E+03 0.  0.
    8880022    1    1    2    0    0 -0.23699267505E+03 -0.99038036799E+03 -0.10330192751E+04  0.14586086785E+04  0.15294330000E+03 0.  0.
<mgrwt>
<rscale>  0 0.10297623E+04</rscale>
<asrwt>0</asrwt>
<pdfrwt beam="1">  1        1 0.24937185E+00 0.10297623E+04</pdfrwt>
<pdfrwt beam="2">  1       -1 0.14146782E+00 0.10297623E+04</pdfrwt>
<totfact> 0.22072002E+00</totfact>
</mgrwt>
</event>
<event>
 4    1  0.8749406E-009  0.1655396E+04  0.7818608E-02  0.8787221E-01
         -1   -1    0    0    0  501 -0.00000000000E+00  0.00000000000E+00  0.14043034958E+04  0.14043034958E+04  0.50400000000E-02 0.  1.
          1   -1    0    0  501    0  0.00000000000E+00 -0.00000000000E+00 -0.24772613386E+04  0.24772613386E+04  0.50400000000E-02 0. -1.
    8880022    1    1    2    0    0 -0.17917015347E+03  0.16385485964E+04 -0.14306759968E+04  0.21879599876E+04  0.15294330000E+03 0.  0.
    8880022    1    1    2    0    0  0.17917015347E+03 -0.16385485964E+04  0.35771815396E+03  0.16936048469E+04  0.15294330000E+03 0.  0.
<mgrwt>
<rscale>  0 0.16553958E+04</rscale>
<asrwt>0</asrwt>
<pdfrwt beam="1">  1        1 0.38111713E+00 0.16553958E+04</pdfrwt>
<pdfrwt beam="2">  1       -1 0.21604669E+00 0.16553958E+04</pdfrwt>
<totfact> 0.15242106E-01</totfact>
</mgrwt>
</event>
<event>
 4    1  0.8749406E-009  0.6921737E+03  0.7818608E-02  0.9730711E-01
          1   -1    0    0  501    0  0.00000000000E+00  0.00000000000E+00  0.10555736726E+04  0.10555736726E+04  0.50400000000E-02 0. -1.
         -1   -1    0    0    0  501 -0.00000000000E+00 -0.00000000000E+00 -0.12554434237E+04  0.12554434237E+04  0.50400000000E-02 0.  1.
    8880022    1    1    2    0    0  0.61241337235E+03 -0.28401166914E+03  0.82336626230E+03  0.10756562749E+04  0.15294330000E+03 0.  0.
    8880022    1    1    2    0    0 -0.61241337235E+03  0.28401166914E+03 -0.10232360135E+04  0.12353608214E+04  0.15294330000E+03 0.  0.
<mgrwt>
<rscale>  0 0.69217369E+03</rscale>
<asrwt>0</asrwt>
<pdfrwt beam="1">  1        1 0.16239595E+00 0.69217369E+03</pdfrwt>
<pdfrwt beam="2">  1       -1 0.19314514E+00 0.69217369E+03</pdfrwt>
<totfact> 0.24252216E+00</totfact>
</mgrwt>
</event>
<event>
 4    1  0.8749406E-009  0.1172737E+04  0.7818608E-02  0.9137060E-01
          1   -1    0    0  501    0  0.00000000000E+00  0.00000000000E+00  0.27761120577E+04  0.27761120577E+04  0.50400000000E-02 0. -1.
         -1   -1    0    0    0  501 -0.00000000000E+00 -0.00000000000E+00 -0.10932526092E+04  0.10932526092E+04  0.50400000000E-02 0.  1.
    8880022    1    1    2    0    0 -0.11624952503E+04 -0.22925795202E+02 -0.58925189287E+03  0.13124519974E+04  0.15294330000E+03 0.  0.
    8880022    1    1    2    0    0  0.11624952503E+04  0.22925795202E+02  0.22721113413E+04  0.25569126695E+04  0.15294330000E+03 0.  0.
<mgrwt>
<rscale>  0 0.11727372E+04</rscale>
<asrwt>0</asrwt>
<pdfrwt beam="1">  1        1 0.42709416E+00 0.11727372E+04</pdfrwt>
<pdfrwt beam="2">  1       -1 0.16819271E+00 0.11727372E+04</pdfrwt>
<totfact> 0.21848365E-01</totfact>
</mgrwt>
</event>
<event>
 4    1  0.8749406E-009  0.3096153E+03  0.7818608E-02  0.1080530E+00
          1   -1    0    0  501    0  0.00000000000E+00  0.00000000000E+00  0.70381565522E+03  0.70381565523E+03  0.50400000000E-02 0. -1.
         -1   -1    0    0    0  501 -0.00000000000E+00 -0.00000000000E+00 -0.18002564306E+03  0.18002564313E+03  0.50400000000E-02 0.  1.
    8880022    1    1    2    0    0  0.21856978812E+03 -0.15715351392E+03  0.47993070206E+03  0.57113493240E+03  0.15294330000E+03 0. -1.
    8880022    1    1    2    0    0 -0.21856978812E+03  0.15715351392E+03  0.43859310096E+02  0.31270636596E+03  0.15294330000E+03 0.  1.
<mgrwt>
<rscale>  0 0.30961530E+03</rscale>
<asrwt>0</asrwt>
<pdfrwt beam="1">  1        1 0.10827933E+00 0.30961530E+03</pdfrwt>
<pdfrwt beam="2">  1       -1 0.27696253E-01 0.30961530E+03</pdfrwt>
<totfact> 0.32881952E+02</totfact>
</mgrwt>
</event>
<event>
 4    1  0.8749406E-009  0.4590254E+03  0.7818608E-02  0.1025064E+00
         -1   -1    0    0    0  501 -0.00000000000E+00  0.00000000000E+00  0.40485372381E+03  0.40485372384E+03  0.50400000000E-02 0.  1.
          1   -1    0    0  501    0  0.00000000000E+00 -0.00000000000E+00 -0.68458789840E+03  0.68458789842E+03  0.50400000000E-02 0. -1.
    8880022    1    1    2    0    0 -0.41488140261E+03 -0.12323167489E+03 -0.40659582991E+03  0.61320832173E+03  0.15294330000E+03 0.  0.
    8880022    1    1    2    0    0  0.41488140261E+03  0.12323167489E+03  0.12686165532E+03  0.47623330053E+03  0.15294330000E+03 0.  0.
<mgrwt>
<rscale>  0 0.45902536E+03</rscale>
<asrwt>0</asrwt>
<pdfrwt beam="1">  1        1 0.10532121E+00 0.45902536E+03</pdfrwt>
<pdfrwt beam="2">  1       -1 0.62285188E-01 0.45902536E+03</pdfrwt>
<totfact> 0.77374490E+01</totfact>
</mgrwt>
</event>
<event>
 4    1  0.8749406E-009  0.1702424E+04  0.7818608E-02  0.8759983E-01
         -1   -1    0    0    0  501 -0.00000000000E+00  0.00000000000E+00  0.21303168384E+04  0.21303168384E+04  0.50400000000E-02 0.  1.
          1   -1    0    0  501    0  0.00000000000E+00 -0.00000000000E+00 -0.18156221055E+04  0.18156221055E+04  0.50400000000E-02 0. -1.
    8880022    1    1    2    0    0  0.75822713628E+03  0.15165575306E+04 -0.83048359575E+03  0.18941884251E+04  0.15294330000E+03 0.  0.
    8880022    1    1    2    0    0 -0.75822713628E+03 -0.15165575306E+04  0.11451783286E+04  0.20517505188E+04  0.15294330000E+03 0.  0.
<mgrwt>
<rscale>  0 0.17024238E+04</rscale>
<asrwt>0</asrwt>
<pdfrwt beam="1">  1        1 0.27932648E+00 0.17024238E+04</pdfrwt>
<pdfrwt beam="2">  1       -1 0.32774105E+00 0.17024238E+04</pdfrwt>
<totfact> 0.79779046E-02</totfact>
</mgrwt>
</event>
<event>
 4    1  0.8749406E-009  0.7674449E+03  0.7818608E-02  0.9608373E-01
         -1   -1    0    0    0  501 -0.00000000000E+00  0.00000000000E+00  0.48508402878E+03  0.48508402881E+03  0.50400000000E-02 0.  1.
          1   -1    0    0  501    0  0.00000000000E+00 -0.00000000000E+00 -0.17291193087E+04  0.17291193087E+04  0.50400000000E-02 0. -1.
    8880022    1    1    2    0    0 -0.63290980880E+03  0.40620837612E+03 -0.17846944387E+02  0.76765241962E+03  0.15294330000E+03 0.  0.
    8880022    1    1    2    0    0  0.63290980880E+03 -0.40620837612E+03 -0.12261883356E+04  0.14465509179E+04  0.15294330000E+03 0.  0.
<mgrwt>
<rscale>  0 0.76744493E+03</rscale>
<asrwt>0</asrwt>
<pdfrwt beam="1">  1        1 0.26601835E+00 0.76744493E+03</pdfrwt>
<pdfrwt beam="2">  1       -1 0.74628313E-01 0.76744493E+03</pdfrwt>
<totfact> 0.85525144E+00</totfact>
</mgrwt>
</event>
<event>
 4    1  0.8749406E-009  0.6489362E+03  0.7818608E-02  0.9808777E-01
         -1   -1    0    0    0  501 -0.00000000000E+00  0.00000000000E+00  0.52191170526E+03  0.52191170529E+03  0.50400000000E-02 0.  1.
          1   -1    0    0  501    0  0.00000000000E+00 -0.00000000000E+00 -0.15824810861E+04  0.15824810861E+04  0.50400000000E-02 0. -1.
    8880022    1    1    2    0    0 -0.57863435567E+03 -0.25081643639E+03  0.20634250522E+03  0.68095189610E+03  0.15294330000E+03 0.  0.
    8880022    1    1    2    0    0  0.57863435567E+03  0.25081643639E+03 -0.12669118860E+04  0.14234408953E+04  0.15294330000E+03 0.  0.
<mgrwt>
<rscale>  0 0.64893625E+03</rscale>
<asrwt>0</asrwt>
<pdfrwt beam="1">  1        1 0.24345863E+00 0.64893625E+03</pdfrwt>
<pdfrwt beam="2">  1       -1 0.80294109E-01 0.64893625E+03</pdfrwt>
<totfact> 0.93901598E+00</totfact>
</mgrwt>
</event>
<event>
 4    1  0.8749406E-009  0.6262102E+03  0.7818608E-02  0.9852472E-01
          1   -1    0    0  501    0  0.00000000000E+00  0.00000000000E+00  0.38837314570E+03  0.38837314573E+03  0.50400000000E-02 0. -1.
         -1   -1    0    0    0  501 -0.00000000000E+00 -0.00000000000E+00 -0.13716605096E+04  0.13716605096E+04  0.50400000000E-02 0.  1.
    8880022    1    1    2    0    0 -0.60587828810E+03  0.40732111142E+02 -0.94370772530E+03  0.11325738513E+04  0.15294330000E+03 0.  0.
    8880022    1    1    2    0    0  0.60587828810E+03 -0.40732111142E+02 -0.39579638615E+02  0.62745980404E+03  0.15294330000E+03 0.  0.
<mgrwt>
<rscale>  0 0.62621023E+03</rscale>
<asrwt>0</asrwt>
<pdfrwt beam="1">  1        1 0.59749716E-01 0.62621023E+03</pdfrwt>
<pdfrwt beam="2">  1       -1 0.21102469E+00 0.62621023E+03</pdfrwt>
<totfact> 0.83004078E+00</totfact>
</mgrwt>
</event>
<event>
 4    1  0.8749406E-009  0.1050205E+04  0.7818608E-02  0.9255133E-01
         -1   -1    0    0    0  501 -0.00000000000E+00  0.00000000000E+00  0.67933830777E+03  0.67933830779E+03  0.50400000000E-02 0.  1.
          1   -1    0    0  501    0  0.00000000000E+00 -0.00000000000E+00 -0.35647471666E+04  0.35647471666E+04  0.50400000000E-02 0. -1.
    8880022    1    1    2    0    0 -0.67172496858E+03 -0.79266892886E+03  0.12323934239E+03  0.10574110141E+04  0.15294330000E+03 0.  0.
    8880022    1    1    2    0    0  0.67172496858E+03  0.79266892886E+03 -0.30086482012E+04  0.31866744603E+04  0.15294330000E+03 0.  0.
<mgrwt>
<rscale>  0 0.10502048E+04</rscale>
<asrwt>0</asrwt>
<pdfrwt beam="1">  1        1 0.54842263E+00 0.10502048E+04</pdfrwt>
<pdfrwt beam="2">  1       -1 0.10451359E+00 0.10502048E+04</pdfrwt>
<totfact> 0.19704033E-01</totfact>
</mgrwt>
</event>
<event>
 4    1  0.8749406E-009  0.6672450E+03  0.7818608E-02  0.9774948E-01
         -1   -1    0    0    0  501 -0.00000000000E+00  0.00000000000E+00  0.95126547229E+03  0.95126547230E+03  0.50400000000E-02 0.  1.
          1   -1    0    0  501    0  0.00000000000E+00 -0.00000000000E+00 -0.59180000398E+03  0.59180000400E+03  0.50400000000E-02 0. -1.
    8880022    1    1    2    0    0  0.32415726160E+03  0.56280216692E+03  0.53257747394E+03  0.85372983320E+03  0.15294330000E+03 0.  0.
    8880022    1    1    2    0    0 -0.32415726160E+03 -0.56280216692E+03 -0.17311200564E+03  0.68933564310E+03  0.15294330000E+03 0.  0.
<mgrwt>
<rscale>  0 0.66724498E+03</rscale>
<asrwt>0</asrwt>
<pdfrwt beam="1">  1        1 0.91046155E-01 0.66724498E+03</pdfrwt>
<pdfrwt beam="2">  1       -1 0.14634853E+00 0.66724498E+03</pdfrwt>
<totfact> 0.13538134E+01</totfact>
</mgrwt>
</event>
<event>
 4    1  0.8749406E-009  0.1515560E+04  0.7818608E-02  0.8874171E-01
          1   -1    0    0  501    0  0.00000000000E+00  0.00000000000E+00  0.18252982896E+04  0.18252982896E+04  0.50400000000E-02 0. -1.
         -1   -1    0    0    0  501 -0.00000000000E+00 -0.00000000000E+00 -0.16791978214E+04  0.16791978214E+04  0.50400000000E-02 0.  1.
    8880022    1    1    2    0    0 -0.80075113361E+03  0.12776261262E+04  0.95023418063E+03  0.17888173600E+04  0.15294330000E+03 0.  0.
    8880022    1    1    2    0    0  0.80075113361E+03 -0.12776261262E+04 -0.80413371238E+03  0.17156787510E+04  0.15294330000E+03 0.  0.
<mgrwt>
<rscale>  0 0.15155601E+04</rscale>
<asrwt>0</asrwt>
<pdfrwt beam="1">  1        1 0.28081512E+00 0.15155601E+04</pdfrwt>
<pdfrwt beam="2">  1       -1 0.25833813E+00 0.15155601E+04</pdfrwt>
<totfact> 0.22692095E-01</totfact>
</mgrwt>
</event>
<event>
 4    1  0.8749406E-009  0.6270912E+03  0.7818608E-02  0.9850742E-01
         -1   -1    0    0    0  501 -0.00000000000E+00  0.00000000000E+00  0.18802117382E+04  0.18802117382E+04  0.50400000000E-02 0.  1.
          1   -1    0    0  501    0  0.00000000000E+00 -0.00000000000E+00 -0.30934281094E+03  0.30934281098E+03  0.50400000000E-02 0. -1.
    8880022    1    1    2    0    0 -0.14726415183E+03 -0.59005511740E+03  0.16237809834E+03  0.64777316386E+03  0.15294330000E+03 0.  0.
    8880022    1    1    2    0    0  0.14726415183E+03  0.59005511740E+03  0.14084908289E+04  0.15417813853E+04  0.15294330000E+03 0.  0.
<mgrwt>
<rscale>  0 0.62709124E+03</rscale>
<asrwt>0</asrwt>
<pdfrwt beam="1">  1        1 0.47591202E-01 0.62709124E+03</pdfrwt>
<pdfrwt beam="2">  1       -1 0.28926334E+00 0.62709124E+03</pdfrwt>
<totfact> 0.34864100E+00</totfact>
</mgrwt>
</event>
<event>
 4    1  0.8749406E-009  0.1230163E+04  0.7818608E-02  0.9086857E-01
          1   -1    0    0  501    0  0.00000000000E+00  0.00000000000E+00  0.17912030392E+04  0.17912030393E+04  0.50400000000E-02 0. -1.
         -1   -1    0    0    0  501 -0.00000000000E+00 -0.00000000000E+00 -0.13857727155E+04  0.13857727155E+04  0.50400000000E-02 0.  1.
    8880022    1    1    2    0    0  0.11729330784E+04  0.33784309192E+03  0.11951561132E+04  0.17151384052E+04  0.15294330000E+03 0.  0.
    8880022    1    1    2    0    0 -0.11729330784E+04 -0.33784309192E+03 -0.78972578937E+03  0.14618373495E+04  0.15294330000E+03 0.  0.
<mgrwt>
<rscale>  0 0.12301632E+04</rscale>
<asrwt>0</asrwt>
<pdfrwt beam="1">  1        1 0.27556970E+00 0.12301632E+04</pdfrwt>
<pdfrwt beam="2">  1       -1 0.21319580E+00 0.12301632E+04</pdfrwt>
<totfact> 0.49337358E-01</totfact>
</mgrwt>
</event>
<event>
 4    1  0.8749406E-009  0.7519423E+03  0.7818608E-02  0.9632308E-01
         -1   -1    0    0    0  501 -0.00000000000E+00  0.00000000000E+00  0.78377686594E+03  0.78377686596E+03  0.50400000000E-02 0.  1.
          1   -1    0    0  501    0  0.00000000000E+00 -0.00000000000E+00 -0.18321840761E+04  0.18321840761E+04  0.50400000000E-02 0. -1.
    8880022    1    1    2    0    0  0.84084597984E+02 -0.73140646652E+03 -0.15426340307E+04  0.17161401588E+04  0.15294330000E+03 0.  0.
    8880022    1    1    2    0    0 -0.84084597984E+02  0.73140646652E+03  0.49422682053E+03  0.89982078329E+03  0.15294330000E+03 0.  0.
<mgrwt>
<rscale>  0 0.75194235E+03</rscale>
<asrwt>0</asrwt>
<pdfrwt beam="1">  1        1 0.28187447E+00 0.75194235E+03</pdfrwt>
<pdfrwt beam="2">  1       -1 0.12058106E+00 0.75194235E+03</pdfrwt>
<totfact> 0.24889090E+00</totfact>
</mgrwt>
</event>
<event>
 4    1  0.8749406E-009  0.6154679E+03  0.7818608E-02  0.9873825E-01
         -1   -1    0    0    0  501 -0.00000000000E+00  0.00000000000E+00  0.84130790641E+03  0.84130790643E+03  0.50400000000E-02 0.  1.
          1   -1    0    0  501    0  0.00000000000E+00 -0.00000000000E+00 -0.16032424605E+04  0.16032424605E+04  0.50400000000E-02 0. -1.
    8880022    1    1    2    0    0 -0.36317580351E+03  0.47277098934E+03 -0.14174980799E+04  0.15453483530E+04  0.15294330000E+03 0.  0.
    8880022    1    1    2    0    0  0.36317580351E+03 -0.47277098934E+03  0.65556352576E+03  0.89920201398E+03  0.15294330000E+03 0.  0.
<mgrwt>
<rscale>  0 0.61546789E+03</rscale>
<asrwt>0</asrwt>
<pdfrwt beam="1">  1        1 0.24665269E+00 0.61546789E+03</pdfrwt>
<pdfrwt beam="2">  1       -1 0.12943199E+00 0.61546789E+03</pdfrwt>
<totfact> 0.30597746E+00</totfact>
</mgrwt>
</event>
<event>
 4    1  0.8749406E-009  0.8572689E+03  0.7818608E-02  0.9480633E-01
          1   -1    0    0  501    0  0.00000000000E+00  0.00000000000E+00  0.51540698603E+03  0.51540698606E+03  0.50400000000E-02 0. -1.
         -1   -1    0    0    0  501 -0.00000000000E+00 -0.00000000000E+00 -0.28381566997E+04  0.28381566997E+04  0.50400000000E-02 0.  1.
    8880022    1    1    2    0    0  0.83429192306E+03 -0.12439964555E+03 -0.23441926517E+04  0.24960266677E+04  0.15294330000E+03 0.  0.
    8880022    1    1    2    0    0 -0.83429192306E+03  0.12439964555E+03  0.21442938022E+02  0.85753701804E+03  0.15294330000E+03 0.  0.
<mgrwt>
<rscale>  0 0.85726888E+03</rscale>
<asrwt>0</asrwt>
<pdfrwt beam="1">  1        1 0.79293384E-01 0.85726888E+03</pdfrwt>
<pdfrwt beam="2">  1       -1 0.43663948E+00 0.85726888E+03</pdfrwt>
<totfact> 0.17913236E-01</totfact>
</mgrwt>
</event>
<event>
 4    1  0.8749406E-009  0.1067841E+04  0.7818608E-02  0.9237115E-01
          1   -1    0    0  501    0  0.00000000000E+00  0.00000000000E+00  0.26568984742E+04  0.26568984742E+04  0.50400000000E-02 0. -1.
         -1   -1    0    0    0  501 -0.00000000000E+00 -0.00000000000E+00 -0.13464878333E+04  0.13464878333E+04  0.50400000000E-02 0.  1.
    8880022    1    1    2    0    0 -0.75903157747E+03  0.73536710567E+03 -0.99696206476E+03  0.14608965491E+04  0.15294330000E+03 0.  0.
    8880022    1    1    2    0    0  0.75903157747E+03 -0.73536710567E+03  0.23073727057E+04  0.25424897584E+04  0.15294330000E+03 0.  0.
<mgrwt>
<rscale>  0 0.10678415E+04</rscale>
<asrwt>0</asrwt>
<pdfrwt beam="1">  1        1 0.40875361E+00 0.10678415E+04</pdfrwt>
<pdfrwt beam="2">  1       -1 0.20715198E+00 0.10678415E+04</pdfrwt>
<totfact> 0.14291754E-01</totfact>
</mgrwt>
</event>
<event>
 4    1  0.8749406E-009  0.1426470E+04  0.7818608E-02  0.8934878E-01
          1   -1    0    0  501    0  0.00000000000E+00  0.00000000000E+00  0.26018951575E+04  0.26018951575E+04  0.50400000000E-02 0. -1.
         -1   -1    0    0    0  501 -0.00000000000E+00 -0.00000000000E+00 -0.98401011190E+03  0.98401011191E+03  0.50400000000E-02 0.  1.
    8880022    1    1    2    0    0 -0.11295307438E+03  0.14137415686E+04  0.16212127400E+04  0.21594318746E+04  0.15294330000E+03 0.  0.
    8880022    1    1    2    0    0  0.11295307438E+03 -0.14137415686E+04 -0.33276943515E+01  0.14264733949E+04  0.15294330000E+03 0.  0.
<mgrwt>
<rscale>  0 0.14264695E+04</rscale>
<asrwt>0</asrwt>
<pdfrwt beam="1">  1        1 0.40029156E+00 0.14264695E+04</pdfrwt>
<pdfrwt beam="2">  1       -1 0.15138617E+00 0.14264695E+04</pdfrwt>
<totfact> 0.37521182E-01</totfact>
</mgrwt>
</event>
<event>
 4    1  0.8749406E-009  0.7683785E+03  0.7818608E-02  0.9606951E-01
         -1   -1    0    0    0  501 -0.00000000000E+00  0.00000000000E+00  0.20630675277E+04  0.20630675277E+04  0.50400000000E-02 0.  1.
          1   -1    0    0  501    0  0.00000000000E+00 -0.00000000000E+00 -0.12742729468E+04  0.12742729468E+04  0.50400000000E-02 0. -1.
    8880022    1    1    2    0    0  0.22078509680E+03 -0.71990821930E+03  0.18637921599E+04  0.20159679490E+04  0.15294330000E+03 0.  0.
    8880022    1    1    2    0    0 -0.22078509680E+03  0.71990821930E+03 -0.10749975790E+04  0.13213725255E+04  0.15294330000E+03 0.  0.
<mgrwt>
<rscale>  0 0.76837852E+03</rscale>
<asrwt>0</asrwt>
<pdfrwt beam="1">  1        1 0.19604199E+00 0.76837852E+03</pdfrwt>
<pdfrwt beam="2">  1       -1 0.31739501E+00 0.76837852E+03</pdfrwt>
<totfact> 0.25628619E-01</totfact>
</mgrwt>
</event>
<event>
 4    1  0.1695190E-008  0.1779427E+04  0.7818608E-02  0.8717317E-01
          1   -1    0    0  501    0  0.00000000000E+00  0.00000000000E+00  0.30251169507E+04  0.30251169508E+04  0.50400000000E-02 0. -1.
         -1   -1    0    0    0  501 -0.00000000000E+00 -0.00000000000E+00 -0.23755277509E+04  0.23755277509E+04  0.50400000000E-02 0.  1.
    8880022    1    1    2    0    0 -0.13491808817E+04  0.11500780633E+04 -0.16948339605E+04  0.24574015565E+04  0.15294330000E+03 0.  0.
    8880022    1    1    2    0    0  0.13491808817E+04 -0.11500780633E+04  0.23444231604E+04  0.29432431451E+04  0.15294330000E+03 0.  0.
<mgrwt>
<rscale>  0 0.17794269E+04</rscale>
<asrwt>0</asrwt>
<pdfrwt beam="1">  1        1 0.46540261E+00 0.17794269E+04</pdfrwt>
<pdfrwt beam="2">  1       -1 0.36546581E+00 0.17794269E+04</pdfrwt>
<totfact> 0.63741520E-03</totfact>
</mgrwt>
</event>
<event>
 4    1  0.8749406E-009  0.7739887E+03  0.7818608E-02  0.9598450E-01
         -1   -1    0    0    0  501 -0.00000000000E+00  0.00000000000E+00  0.47489728881E+03  0.47489728884E+03  0.50400000000E-02 0.  1.
          1   -1    0    0  501    0  0.00000000000E+00 -0.00000000000E+00 -0.21432600915E+04  0.21432600915E+04  0.50400000000E-02 0. -1.
    8880022    1    1    2    0    0  0.70669397955E+02 -0.75542879312E+03 -0.16738660500E+04  0.18441491349E+04  0.15294330000E+03 0.  0.
    8880022    1    1    2    0    0 -0.70669397955E+02  0.75542879312E+03  0.55032473376E+01  0.77400824545E+03  0.15294330000E+03 0.  1.
<mgrwt>
<rscale>  0 0.77398868E+03</rscale>
<asrwt>0</asrwt>
<pdfrwt beam="1">  1        1 0.32973232E+00 0.77398868E+03</pdfrwt>
<pdfrwt beam="2">  1       -1 0.73061123E-01 0.77398868E+03</pdfrwt>
<totfact> 0.47142119E+00</totfact>
</mgrwt>
</event>
<event>
 4    1  0.8749406E-009  0.1035222E+04  0.7818608E-02  0.9270736E-01
          1   -1    0    0  501    0  0.00000000000E+00  0.00000000000E+00  0.22968209402E+04  0.22968209403E+04  0.50400000000E-02 0. -1.
         -1   -1    0    0    0  501 -0.00000000000E+00 -0.00000000000E+00 -0.12339976938E+04  0.12339976938E+04  0.50400000000E-02 0.  1.
    8880022    1    1    2    0    0 -0.40606803407E+03 -0.93989398483E+03 -0.86078344966E+03  0.13463401321E+04  0.15294330000E+03 0.  0.
    8880022    1    1    2    0    0  0.40606803407E+03  0.93989398483E+03  0.19236066961E+04  0.21844785019E+04  0.15294330000E+03 0.  0.
<mgrwt>
<rscale>  0 0.10352215E+04</rscale>
<asrwt>0</asrwt>
<pdfrwt beam="1">  1        1 0.35335707E+00 0.10352215E+04</pdfrwt>
<pdfrwt beam="2">  1       -1 0.18984580E+00 0.10352215E+04</pdfrwt>
<totfact> 0.33468499E-01</totfact>
</mgrwt>
</event>
<event>
 4    1  0.8749406E-009  0.3392406E+03  0.7818608E-02  0.1067120E+00
          1   -1    0    0  501    0  0.00000000000E+00  0.00000000000E+00  0.13689540629E+04  0.13689540629E+04  0.50400000000E-02 0. -1.
         -1   -1    0    0    0  501 -0.00000000000E+00 -0.00000000000E+00 -0.10821548065E+03  0.10821548076E+03  0.50400000000E-02 0.  1.
    8880022    1    1    2    0    0 -0.28250342238E+03 -0.10901525464E+03  0.97926737183E+03  0.10363632317E+04  0.15294330000E+03 0. -1.
    8880022    1    1    2    0    0  0.28250342238E+03  0.10901525464E+03  0.28147121044E+03  0.44080631203E+03  0.15294330000E+03 0.  0.
<mgrwt>
<rscale>  0 0.33924057E+03</rscale>
<asrwt>0</asrwt>
<pdfrwt beam="1">  1        1 0.21060831E+00 0.33924057E+03</pdfrwt>
<pdfrwt beam="2">  1       -1 0.16648536E-01 0.33924057E+03</pdfrwt>
<totfact> 0.23697807E+02</totfact>
</mgrwt>
</event>
<event>
 4    1  0.8749406E-009  0.4349803E+03  0.7818608E-02  0.1032298E+00
          1   -1    0    0  501    0  0.00000000000E+00  0.00000000000E+00  0.12967279642E+04  0.12967279642E+04  0.50400000000E-02 0. -1.
         -1   -1    0    0    0  501 -0.00000000000E+00 -0.00000000000E+00 -0.24913140819E+03  0.24913140825E+03  0.50400000000E-02 0.  1.
    8880022    1    1    2    0    0  0.40719784121E+03  0.24815411226E+01  0.26282475911E+02  0.43577363561E+03  0.15294330000E+03 0.  0.
    8880022    1    1    2    0    0 -0.40719784121E+03 -0.24815411226E+01  0.10213140801E+04  0.11100857368E+04  0.15294330000E+03 0.  0.
<mgrwt>
<rscale>  0 0.43498034E+03</rscale>
<asrwt>0</asrwt>
<pdfrwt beam="1">  1        1 0.19949661E+00 0.43498034E+03</pdfrwt>
<pdfrwt beam="2">  1       -1 0.38327910E-01 0.43498034E+03</pdfrwt>
<totfact> 0.63928639E+01</totfact>
</mgrwt>
</event>
<event>
 4    1  0.8749406E-009  0.1189423E+04  0.7818608E-02  0.9122165E-01
          1   -1    0    0  501    0  0.00000000000E+00  0.00000000000E+00  0.27397046138E+04  0.27397046138E+04  0.50400000000E-02 0. -1.
         -1   -1    0    0    0  501 -0.00000000000E+00 -0.00000000000E+00 -0.13101363324E+04  0.13101363324E+04  0.50400000000E-02 0.  1.
    8880022    1    1    2    0    0  0.85596725517E+03 -0.81157631407E+03  0.22909191780E+04  0.25812861888E+04  0.15294330000E+03 0.  0.
    8880022    1    1    2    0    0 -0.85596725517E+03  0.81157631407E+03 -0.86135089651E+03  0.14685547574E+04  0.15294330000E+03 0.  0.
<mgrwt>
<rscale>  0 0.11894233E+04</rscale>
<asrwt>0</asrwt>
<pdfrwt beam="1">  1        1 0.42149302E+00 0.11894233E+04</pdfrwt>
<pdfrwt beam="2">  1       -1 0.20155944E+00 0.11894233E+04</pdfrwt>
<totfact> 0.13371271E-01</totfact>
</mgrwt>
</event>
<event>
 4    1  0.8749406E-009  0.2064678E+04  0.7818608E-02  0.8576965E-01
          1   -1    0    0  501    0  0.00000000000E+00  0.00000000000E+00  0.38381083731E+04  0.38381083731E+04  0.50400000000E-02 0. -1.
         -1   -1    0    0    0  501 -0.00000000000E+00 -0.00000000000E+00 -0.15290950806E+04  0.15290950806E+04  0.50400000000E-02 0.  1.
    8880022    1    1    2    0    0 -0.12936470283E+04  0.16018676932E+04 -0.24929782065E+03  0.20796739641E+04  0.15294330000E+03 0.  0.
    8880022    1    1    2    0    0  0.12936470283E+04 -0.16018676932E+04  0.25583111132E+04  0.32875294896E+04  0.15294330000E+03 0.  0.
<mgrwt>
<rscale>  0 0.20646778E+04</rscale>
<asrwt>0</asrwt>
<pdfrwt beam="1">  1        1 0.59047821E+00 0.20646778E+04</pdfrwt>
<pdfrwt beam="2">  1       -1 0.23524540E+00 0.20646778E+04</pdfrwt>
<totfact> 0.10201056E-02</totfact>
</mgrwt>
</event>
<event>
 4    1  0.8749406E-009  0.7524457E+03  0.7818608E-02  0.9631521E-01
          1   -1    0    0  501    0  0.00000000000E+00  0.00000000000E+00  0.36980322327E+04  0.36980322327E+04  0.50400000000E-02 0. -1.
         -1   -1    0    0    0  501 -0.00000000000E+00 -0.00000000000E+00 -0.15485529288E+03  0.15485529296E+03  0.50400000000E-02 0.  1.
    8880022    1    1    2    0    0  0.27784672580E+03  0.68233719145E+03  0.19765985422E+04  0.21149743015E+04  0.15294330000E+03 0.  0.
    8880022    1    1    2    0    0 -0.27784672580E+03 -0.68233719145E+03  0.15665783976E+04  0.17379132242E+04  0.15294330000E+03 0.  0.
<mgrwt>
<rscale>  0 0.75244568E+03</rscale>
<asrwt>0</asrwt>
<pdfrwt beam="1">  1        1 0.56892807E+00 0.75244568E+03</pdfrwt>
<pdfrwt beam="2">  1       -1 0.23823890E-01 0.75244568E+03</pdfrwt>
<totfact> 0.28640581E+00</totfact>
</mgrwt>
</event>
<event>
 4    1  0.8749406E-009  0.8969556E+03  0.7818608E-02  0.9429395E-01
         -1   -1    0    0    0  501 -0.00000000000E+00  0.00000000000E+00  0.42257064944E+03  0.42257064947E+03  0.50400000000E-02 0.  1.
          1   -1    0    0  501    0  0.00000000000E+00 -0.00000000000E+00 -0.26034994053E+04  0.26034994053E+04  0.50400000000E-02 0. -1.
    8880022    1    1    2    0    0 -0.38756012234E+03  0.79431409323E+03 -0.30613754771E+03  0.94776029578E+03  0.15294330000E+03 0.  0.
    8880022    1    1    2    0    0  0.38756012234E+03 -0.79431409323E+03 -0.18747912081E+04  0.20783097590E+04  0.15294330000E+03 0.  0.
<mgrwt>
<rscale>  0 0.89695562E+03</rscale>
<asrwt>0</asrwt>
<pdfrwt beam="1">  1        1 0.40053836E+00 0.89695562E+03</pdfrwt>
<pdfrwt beam="2">  1       -1 0.65010871E-01 0.89695562E+03</pdfrwt>
<totfact> 0.28533898E+00</totfact>
</mgrwt>
</event>
<event>
 4    1  0.8749406E-009  0.7243400E+03  0.7818608E-02  0.9676490E-01
          1   -1    0    0  501    0  0.00000000000E+00  0.00000000000E+00  0.21760933403E+04  0.21760933403E+04  0.50400000000E-02 0. -1.
         -1   -1    0    0    0  501 -0.00000000000E+00 -0.00000000000E+00 -0.61444666068E+03  0.61444666070E+03  0.50400000000E-02 0.  1.
    8880022    1    1    2    0    0 -0.70326021218E+03  0.81864651965E+02  0.18684228707E+04  0.20039142757E+04  0.15294330000E+03 0.  0.
    8880022    1    1    2    0    0  0.70326021218E+03 -0.81864651965E+02 -0.30677619113E+03  0.78662572533E+03  0.15294330000E+03 0.  0.
<mgrwt>
<rscale>  0 0.72433998E+03</rscale>
<asrwt>0</asrwt>
<pdfrwt beam="1">  1        1 0.33478360E+00 0.72433998E+03</pdfrwt>
<pdfrwt beam="2">  1       -1 0.94530254E-01 0.72433998E+03</pdfrwt>
<totfact> 0.26002099E+00</totfact>
</mgrwt>
</event>
<event>
 4    1  0.8749406E-009  0.2536231E+03  0.7818608E-02  0.1111036E+00
         -1   -1    0    0    0  501 -0.00000000000E+00  0.00000000000E+00  0.32973595243E+03  0.32973595247E+03  0.50400000000E-02 0.  1.
          1   -1    0    0  501    0  0.00000000000E+00 -0.00000000000E+00 -0.32050556966E+03  0.32050556970E+03  0.50400000000E-02 0. -1.
    8880022    1    1    2    0    0 -0.17527923693E+03 -0.10104571561E+03 -0.19877075761E+03  0.32223363362E+03  0.15294330000E+03 0. -1.
    8880022    1    1    2    0    0  0.17527923693E+03  0.10104571561E+03  0.20800114038E+03  0.32800788855E+03  0.15294330000E+03 0.  0.
<mgrwt>
<rscale>  0 0.25362315E+03</rscale>
<asrwt>0</asrwt>
<pdfrwt beam="1">  1        1 0.49308549E-01 0.25362315E+03</pdfrwt>
<pdfrwt beam="2">  1       -1 0.50728608E-01 0.25362315E+03</pdfrwt>
<totfact> 0.32465386E+02</totfact>
</mgrwt>
</event>
<event>
 4    1  0.8749406E-009  0.4278311E+03  0.7818608E-02  0.1034547E+00
         -1   -1    0    0    0  501 -0.00000000000E+00  0.00000000000E+00  0.23429597641E+04  0.23429597642E+04  0.50400000000E-02 0.  1.
          1   -1    0    0  501    0  0.00000000000E+00 -0.00000000000E+00 -0.84734548562E+03  0.84734548563E+03  0.50400000000E-02 0. -1.
    8880022    1    1    2    0    0 -0.34117513175E+03  0.20795985460E+03  0.22676473223E+04  0.23076533108E+04  0.15294330000E+03 0.  0.
    8880022    1    1    2    0    0  0.34117513175E+03 -0.20795985460E+03 -0.77203304377E+03  0.88265193895E+03  0.15294330000E+03 0.  0.
<mgrwt>
<rscale>  0 0.42783107E+03</rscale>
<asrwt>0</asrwt>
<pdfrwt beam="1">  1        1 0.13036085E+00 0.42783107E+03</pdfrwt>
<pdfrwt beam="2">  1       -1 0.36045534E+00 0.42783107E+03</pdfrwt>
<totfact> 0.31547284E-01</totfact>
</mgrwt>
</event>
<event>
 4    1  0.8749406E-009  0.3432261E+03  0.7818608E-02  0.1065430E+00
         -1   -1    0    0    0  501 -0.00000000000E+00  0.00000000000E+00  0.24776233008E+03  0.24776233013E+03  0.50400000000E-02 0.  1.
          1   -1    0    0  501    0  0.00000000000E+00 -0.00000000000E+00 -0.99836153837E+03  0.99836153838E+03  0.50400000000E-02 0. -1.
    8880022    1    1    2    0    0  0.16504321297E+03  0.25917806838E+03 -0.82621186788E+03  0.89466766842E+03  0.15294330000E+03 0.  0.
    8880022    1    1    2    0    0 -0.16504321297E+03 -0.25917806838E+03  0.75612659591E+02  0.35145620009E+03  0.15294330000E+03 0.  0.
<mgrwt>
<rscale>  0 0.34322614E+03</rscale>
<asrwt>0</asrwt>
<pdfrwt beam="1">  1        1 0.15359408E+00 0.34322614E+03</pdfrwt>
<pdfrwt beam="2">  1       -1 0.38117282E-01 0.34322614E+03</pdfrwt>
<totfact> 0.10775406E+02</totfact>
</mgrwt>
</event>
<event>
 4    1  0.8749406E-009  0.2665089E+03  0.7818608E-02  0.1103294E+00
          1   -1    0    0  501    0  0.00000000000E+00  0.00000000000E+00  0.43691958372E+03  0.43691958375E+03  0.50400000000E-02 0. -1.
         -1   -1    0    0    0  501 -0.00000000000E+00 -0.00000000000E+00 -0.54546053878E+03  0.54546053880E+03  0.50400000000E-02 0.  1.
    8880022    1    1    2    0    0 -0.21313183137E+03  0.47012127674E+02  0.35726679355E+03  0.44572024015E+03  0.15294330000E+03 0. -1.
    8880022    1    1    2    0    0  0.21313183137E+03 -0.47012127674E+02 -0.46580774862E+03  0.53665988240E+03  0.15294330000E+03 0.  0.
<mgrwt>
<rscale>  0 0.26650886E+03</rscale>
<asrwt>0</asrwt>
<pdfrwt beam="1">  1        1 0.67218398E-01 0.26650886E+03</pdfrwt>
<pdfrwt beam="2">  1       -1 0.83917006E-01 0.26650886E+03</pdfrwt>
<totfact> 0.80740660E+01</totfact>
</mgrwt>
</event>
<event>
 4    1  0.8749406E-009  0.4169773E+03  0.7818608E-02  0.1038055E+00
         -1   -1    0    0    0  501 -0.00000000000E+00  0.00000000000E+00  0.36626326366E+03  0.36626326369E+03  0.50400000000E-02 0.  1.
          1   -1    0    0  501    0  0.00000000000E+00 -0.00000000000E+00 -0.10482077250E+04  0.10482077251E+04  0.50400000000E-02 0. -1.
    8880022    1    1    2    0    0 -0.37783598318E+03  0.87854530289E+02  0.18215208810E+03  0.45502690568E+03  0.15294330000E+03 0.  0.
    8880022    1    1    2    0    0  0.37783598318E+03 -0.87854530289E+02 -0.86409654949E+03  0.95944408307E+03  0.15294330000E+03 0.  0.
<mgrwt>
<rscale>  0 0.41697734E+03</rscale>
<asrwt>0</asrwt>
<pdfrwt beam="1">  1        1 0.16126273E+00 0.41697734E+03</pdfrwt>
<pdfrwt beam="2">  1       -1 0.56348195E-01 0.41697734E+03</pdfrwt>
<totfact> 0.47442241E+01</totfact>
</mgrwt>
</event>
<event>
 4    1  0.8749406E-009  0.4608900E+03  0.7818608E-02  0.1024523E+00
          1   -1    0    0  501    0  0.00000000000E+00  0.00000000000E+00  0.21259761448E+04  0.21259761448E+04  0.50400000000E-02 0. -1.
         -1   -1    0    0    0  501 -0.00000000000E+00 -0.00000000000E+00 -0.88808343475E+03  0.88808343476E+03  0.50400000000E-02 0.  1.
    8880022    1    1    2    0    0  0.27347357921E+02 -0.43391254048E+03 -0.80077828349E+03  0.92394019454E+03  0.15294330000E+03 0.  0.
    8880022    1    1    2    0    0 -0.27347357921E+02  0.43391254048E+03  0.20386709935E+04  0.20901193850E+04  0.15294330000E+03 0.  0.
<mgrwt>
<rscale>  0 0.46089003E+03</rscale>
<asrwt>0</asrwt>
<pdfrwt beam="1">  1        1 0.32707325E+00 0.46089003E+03</pdfrwt>
<pdfrwt beam="2">  1       -1 0.13662822E+00 0.46089003E+03</pdfrwt>
<totfact> 0.12537129E+00</totfact>
</mgrwt>
</event>
<event>
 4    1  0.8749406E-009  0.7286881E+03  0.7818608E-02  0.9669392E-01
         -1   -1    0    0    0  501 -0.00000000000E+00  0.00000000000E+00  0.57238465024E+03  0.57238465026E+03  0.50400000000E-02 0.  1.
          1   -1    0    0  501    0  0.00000000000E+00 -0.00000000000E+00 -0.23796642176E+04  0.23796642176E+04  0.50400000000E-02 0. -1.
    8880022    1    1    2    0    0  0.22289826335E+03  0.67669123424E+03  0.24932903716E+03  0.77016315420E+03  0.15294330000E+03 0.  0.
    8880022    1    1    2    0    0 -0.22289826335E+03 -0.67669123424E+03 -0.20566086045E+04  0.21818857137E+04  0.15294330000E+03 0.  0.
<mgrwt>
<rscale>  0 0.72868808E+03</rscale>
<asrwt>0</asrwt>
<pdfrwt beam="1">  1        1 0.36610218E+00 0.72868808E+03</pdfrwt>
<pdfrwt beam="2">  1       -1 0.88059178E-01 0.72868808E+03</pdfrwt>
<totfact> 0.22160759E+00</totfact>
</mgrwt>
</event>
<event>
 4    1  0.8749406E-009  0.2141438E+03  0.7818608E-02  0.1138326E+00
         -1   -1    0    0    0  501 -0.00000000000E+00  0.00000000000E+00  0.72414512582E+02  0.72414512758E+02  0.50400000000E-02 0.  1.
          1   -1    0    0  501    0  0.00000000000E+00 -0.00000000000E+00 -0.14058982344E+04  0.14058982344E+04  0.50400000000E-02 0. -1.
    8880022    1    1    2    0    0  0.12687300680E+03 -0.79806950588E+02 -0.11878530064E+03  0.24488264511E+03  0.15294330000E+03 0.  0.
    8880022    1    1    2    0    0 -0.12687300680E+03  0.79806950588E+02 -0.12146984212E+04  0.12334301020E+04  0.15294330000E+03 0. -1.
<mgrwt>
<rscale>  0 0.21414379E+03</rscale>
<asrwt>0</asrwt>
<pdfrwt beam="1">  1        1 0.21629202E+00 0.21414379E+03</pdfrwt>
<pdfrwt beam="2">  1       -1 0.11140695E-01 0.21414379E+03</pdfrwt>
<totfact> 0.43082208E+02</totfact>
</mgrwt>
</event>
<event>
 4    1  0.8749406E-009  0.1963793E+04  0.7818608E-02  0.8623738E-01
         -1   -1    0    0    0  501 -0.00000000000E+00  0.00000000000E+00  0.14533189120E+04  0.14533189120E+04  0.50400000000E-02 0.  1.
          1   -1    0    0  501    0  0.00000000000E+00 -0.00000000000E+00 -0.28996512299E+04  0.28996512299E+04  0.50400000000E-02 0. -1.
    8880022    1    1    2    0    0 -0.53626765569E+03  0.18829522651E+04 -0.89118649856E+02  0.19658143396E+04  0.15294330000E+03 0.  0.
    8880022    1    1    2    0    0  0.53626765569E+03 -0.18829522651E+04 -0.13572136680E+04  0.23871558023E+04  0.15294330000E+03 0.  0.
<mgrwt>
<rscale>  0 0.19637932E+04</rscale>
<asrwt>0</asrwt>
<pdfrwt beam="1">  1        1 0.44610019E+00 0.19637932E+04</pdfrwt>
<pdfrwt beam="2">  1       -1 0.22358753E+00 0.19637932E+04</pdfrwt>
<totfact> 0.65928490E-02</totfact>
</mgrwt>
</event>
<event>
 4    1  0.8749406E-009  0.5181121E+03  0.7818608E-02  0.1009157E+00
         -1   -1    0    0    0  501 -0.00000000000E+00  0.00000000000E+00  0.77200600100E+03  0.77200600102E+03  0.50400000000E-02 0.  1.
          1   -1    0    0  501    0  0.00000000000E+00 -0.00000000000E+00 -0.36395748612E+03  0.36395748615E+03  0.50400000000E-02 0. -1.
    8880022    1    1    2    0    0 -0.22074536876E+03  0.44308008462E+03  0.84046835034E+02  0.52488475184E+03  0.15294330000E+03 0.  0.
    8880022    1    1    2    0    0  0.22074536876E+03 -0.44308008462E+03  0.32400167985E+03  0.61107873533E+03  0.15294330000E+03 0.  0.
<mgrwt>
<rscale>  0 0.51811208E+03</rscale>
<asrwt>0</asrwt>
<pdfrwt beam="1">  1        1 0.55993459E-01 0.51811208E+03</pdfrwt>
<pdfrwt beam="2">  1       -1 0.11877015E+00 0.51811208E+03</pdfrwt>
<totfact> 0.45123390E+01</totfact>
</mgrwt>
</event>
<event>
 4    1  0.8749406E-009  0.2598266E+04  0.7818608E-02  0.8368790E-01
          1   -1    0    0  501    0  0.00000000000E+00  0.00000000000E+00  0.25488469981E+04  0.25488469981E+04  0.50400000000E-02 0. -1.
         -1   -1    0    0    0  501 -0.00000000000E+00 -0.00000000000E+00 -0.41204313687E+04  0.41204313687E+04  0.50400000000E-02 0.  1.
    8880022    1    1    2    0    0 -0.21008417898E+04  0.15212026502E+04 -0.27787596631E+04  0.38042726830E+04  0.15294330000E+03 0.  0.
    8880022    1    1    2    0    0  0.21008417898E+04 -0.15212026502E+04  0.12071752925E+04  0.28650056838E+04  0.15294330000E+03 0.  0.
<mgrwt>
<rscale>  0 0.25982658E+04</rscale>
<asrwt>0</asrwt>
<pdfrwt beam="1">  1        1 0.39213031E+00 0.25982658E+04</pdfrwt>
<pdfrwt beam="2">  1       -1 0.63391252E+00 0.25982658E+04</pdfrwt>
<totfact> 0.33392873E-04</totfact>
</mgrwt>
</event>
<event>
 4    1  0.8749406E-009  0.8963061E+03  0.7818608E-02  0.9430211E-01
         -1   -1    0    0    0  501 -0.00000000000E+00  0.00000000000E+00  0.17486546198E+04  0.17486546198E+04  0.50400000000E-02 0.  1.
          1   -1    0    0  501    0  0.00000000000E+00 -0.00000000000E+00 -0.11432610482E+04  0.11432610482E+04  0.50400000000E-02 0. -1.
    8880022    1    1    2    0    0  0.72533079370E+03  0.50385337005E+03  0.14210034707E+04  0.16800641344E+04  0.15294330000E+03 0.  1.
    8880022    1    1    2    0    0 -0.72533079370E+03 -0.50385337005E+03 -0.81560989923E+03  0.12118515336E+04  0.15294330000E+03 0.  0.
<mgrwt>
<rscale>  0 0.89630610E+03</rscale>
<asrwt>0</asrwt>
<pdfrwt beam="1">  1        1 0.17588632E+00 0.89630610E+03</pdfrwt>
<pdfrwt beam="2">  1       -1 0.26902379E+00 0.89630610E+03</pdfrwt>
<totfact> 0.63446035E-01</totfact>
</mgrwt>
</event>
<event>
 4    1  0.8749406E-009  0.3536430E+03  0.7818608E-02  0.1061130E+00
          1   -1    0    0  501    0  0.00000000000E+00  0.00000000000E+00  0.48278210337E+03  0.48278210340E+03  0.50400000000E-02 0. -1.
         -1   -1    0    0    0  501 -0.00000000000E+00 -0.00000000000E+00 -0.22865224667E+04  0.22865224667E+04  0.50400000000E-02 0.  1.
    8880022    1    1    2    0    0 -0.30762294115E+03  0.83903750725E+02 -0.22057296033E+04  0.22338993820E+04  0.15294330000E+03 0.  0.
    8880022    1    1    2    0    0  0.30762294115E+03 -0.83903750725E+02  0.40198923997E+03  0.53540518804E+03  0.15294330000E+03 0.  0.
<mgrwt>
<rscale>  0 0.35364299E+03</rscale>
<asrwt>0</asrwt>
<pdfrwt beam="1">  1        1 0.74274171E-01 0.35364299E+03</pdfrwt>
<pdfrwt beam="2">  1       -1 0.35177268E+00 0.35364299E+03</pdfrwt>
<totfact> 0.83800259E-01</totfact>
</mgrwt>
</event>
<event>
 4    1  0.8749406E-009  0.5699081E+03  0.7818608E-02  0.9969882E-01
         -1   -1    0    0    0  501 -0.00000000000E+00  0.00000000000E+00  0.25907098409E+03  0.25907098414E+03  0.50400000000E-02 0.  1.
          1   -1    0    0  501    0  0.00000000000E+00 -0.00000000000E+00 -0.17229403215E+04  0.17229403215E+04  0.50400000000E-02 0. -1.
    8880022    1    1    2    0    0 -0.17572348822E+03  0.52012001001E+03 -0.21475389102E+03  0.60902746724E+03  0.15294330000E+03 0.  0.
    8880022    1    1    2    0    0  0.17572348822E+03 -0.52012001001E+03 -0.12491154464E+04  0.13729838384E+04  0.15294330000E+03 0.  0.
<mgrwt>
<rscale>  0 0.56990808E+03</rscale>
<asrwt>0</asrwt>
<pdfrwt beam="1">  1        1 0.26506773E+00 0.56990808E+03</pdfrwt>
<pdfrwt beam="2">  1       -1 0.39857076E-01 0.56990808E+03</pdfrwt>
<totfact> 0.29932738E+01</totfact>
</mgrwt>
</event>
<event>
 4    1  0.8749406E-009  0.3169973E+03  0.7818608E-02  0.1077040E+00
         -1   -1    0    0    0  501 -0.00000000000E+00  0.00000000000E+00  0.70403242468E+03  0.70403242470E+03  0.50400000000E-02 0.  1.
          1   -1    0    0  501    0  0.00000000000E+00 -0.00000000000E+00 -0.19042122501E+04  0.19042122501E+04  0.50400000000E-02 0. -1.
    8880022    1    1    2    0    0  0.15418187586E+03 -0.23091906240E+03 -0.18543848153E+04  0.18812842317E+04  0.15294330000E+03 0.  0.
    8880022    1    1    2    0    0 -0.15418187586E+03  0.23091906240E+03  0.65420498982E+03  0.72696044317E+03  0.15294330000E+03 0.  0.
<mgrwt>
<rscale>  0 0.31699735E+03</rscale>
<asrwt>0</asrwt>
<pdfrwt beam="1">  1        1 0.29295573E+00 0.31699735E+03</pdfrwt>
<pdfrwt beam="2">  1       -1 0.10831268E+00 0.31699735E+03</pdfrwt>
<totfact> 0.32619416E+00</totfact>
</mgrwt>
</event>
<event>
 4    1  0.8749406E-009  0.6308854E+03  0.7818608E-02  0.9843322E-01
          1   -1    0    0  501    0  0.00000000000E+00  0.00000000000E+00  0.17638939136E+04  0.17638939136E+04  0.50400000000E-02 0. -1.
         -1   -1    0    0    0  501 -0.00000000000E+00 -0.00000000000E+00 -0.17230459792E+04  0.17230459792E+04  0.50400000000E-02 0.  1.
    8880022    1    1    2    0    0 -0.57235716799E+03 -0.21686875912E+03  0.16457289807E+04  0.17625096645E+04  0.15294330000E+03 0.  0.
    8880022    1    1    2    0    0  0.57235716799E+03  0.21686875912E+03 -0.16048810463E+04  0.17244302283E+04  0.15294330000E+03 0.  0.
<mgrwt>
<rscale>  0 0.63088544E+03</rscale>
<asrwt>0</asrwt>
<pdfrwt beam="1">  1        1 0.27136830E+00 0.63088544E+03</pdfrwt>
<pdfrwt beam="2">  1       -1 0.26508400E+00 0.63088544E+03</pdfrwt>
<totfact> 0.26523324E-01</totfact>
</mgrwt>
</event>
<event>
 4    1  0.8749406E-009  0.5231934E+03  0.7818608E-02  0.1007896E+00
         -1   -1    0    0    0  501 -0.00000000000E+00  0.00000000000E+00  0.59428949019E+03  0.59428949021E+03  0.50400000000E-02 0.  1.
          1   -1    0    0  501    0  0.00000000000E+00 -0.00000000000E+00 -0.11512094802E+04  0.11512094802E+04  0.50400000000E-02 0. -1.
    8880022    1    1    2    0    0 -0.45241618659E+03  0.21368030461E+03  0.39751066801E+03  0.65707386393E+03  0.15294330000E+03 0.  0.
    8880022    1    1    2    0    0  0.45241618659E+03 -0.21368030461E+03 -0.95443065804E+03  0.10884251065E+04  0.15294330000E+03 0.  0.
<mgrwt>
<rscale>  0 0.52319340E+03</rscale>
<asrwt>0</asrwt>
<pdfrwt beam="1">  1        1 0.17710915E+00 0.52319340E+03</pdfrwt>
<pdfrwt beam="2">  1       -1 0.91429152E-01 0.52319340E+03</pdfrwt>
<totfact> 0.14497630E+01</totfact>
</mgrwt>
</event>
<event>
 4    1  0.8749406E-009  0.5652157E+03  0.7818608E-02  0.9980322E-01
         -1   -1    0    0    0  501 -0.00000000000E+00  0.00000000000E+00  0.71582144611E+03  0.71582144613E+03  0.50400000000E-02 0.  1.
          1   -1    0    0  501    0  0.00000000000E+00 -0.00000000000E+00 -0.11187990603E+04  0.11187990603E+04  0.50400000000E-02 0. -1.
    8880022    1    1    2    0    0 -0.54405675774E+03  0.89102758281E+01  0.50970355556E+03  0.76109560255E+03  0.15294330000E+03 0.  0.
    8880022    1    1    2    0    0  0.54405675774E+03 -0.89102758281E+01 -0.91268116974E+03  0.10735249039E+04  0.15294330000E+03 0.  0.
<mgrwt>
<rscale>  0 0.56521571E+03</rscale>
<asrwt>0</asrwt>
<pdfrwt beam="1">  1        1 0.17212293E+00 0.56521571E+03</pdfrwt>
<pdfrwt beam="2">  1       -1 0.11012638E+00 0.56521571E+03</pdfrwt>
<totfact> 0.99552050E+00</totfact>
</mgrwt>
</event>
<event>
 4    1  0.8749406E-009  0.1210855E+04  0.7818608E-02  0.9103408E-01
          1   -1    0    0  501    0  0.00000000000E+00  0.00000000000E+00  0.19233870424E+04  0.19233870424E+04  0.50400000000E-02 0. -1.
         -1   -1    0    0    0  501 -0.00000000000E+00 -0.00000000000E+00 -0.24348022566E+04  0.24348022566E+04  0.50400000000E-02 0.  1.
    8880022    1    1    2    0    0 -0.93706565228E+03 -0.75145582105E+03  0.15503413552E+04  0.19671623874E+04  0.15294330000E+03 0. -1.
    8880022    1    1    2    0    0  0.93706565228E+03  0.75145582105E+03 -0.20617565694E+04  0.23910269116E+04  0.15294330000E+03 0.  0.
<mgrwt>
<rscale>  0 0.12108549E+04</rscale>
<asrwt>0</asrwt>
<pdfrwt beam="1">  1        1 0.29590570E+00 0.12108549E+04</pdfrwt>
<pdfrwt beam="2">  1       -1 0.37458496E+00 0.12108549E+04</pdfrwt>
<totfact> 0.35358432E-02</totfact>
</mgrwt>
</event>
<event>
 4    1  0.8749406E-009  0.7571947E+03  0.7818608E-02  0.9624130E-01
          1   -1    0    0  501    0  0.00000000000E+00  0.00000000000E+00  0.12542403905E+04  0.12542403905E+04  0.50400000000E-02 0. -1.
         -1   -1    0    0    0  501 -0.00000000000E+00 -0.00000000000E+00 -0.81294867098E+03  0.81294867100E+03  0.50400000000E-02 0.  1.
    8880022    1    1    2    0    0  0.26364367583E+03 -0.69314082088E+03  0.90445743360E+03  0.11795707217E+04  0.15294330000E+03 0.  0.
    8880022    1    1    2    0    0 -0.26364367583E+03  0.69314082088E+03 -0.46316571408E+03  0.88761833977E+03  0.15294330000E+03 0.  0.
<mgrwt>
<rscale>  0 0.75719472E+03</rscale>
<asrwt>0</asrwt>
<pdfrwt beam="1">  1        1 0.19296006E+00 0.75719472E+03</pdfrwt>
<pdfrwt beam="2">  1       -1 0.12506903E+00 0.75719472E+03</pdfrwt>
<totfact> 0.56549086E+00</totfact>
</mgrwt>
</event>
<event>
 4    1  0.8749406E-009  0.3983464E+03  0.7818608E-02  0.1044354E+00
          1   -1    0    0  501    0  0.00000000000E+00  0.00000000000E+00  0.33581471852E+04  0.33581471852E+04  0.50400000000E-02 0. -1.
         -1   -1    0    0    0  501 -0.00000000000E+00 -0.00000000000E+00 -0.10060747749E+03  0.10060747762E+03  0.50400000000E-02 0.  1.
    8880022    1    1    2    0    0  0.33832624945E+03 -0.14430381064E+03  0.28881686133E+04  0.29155098752E+04  0.15294330000E+03 0.  0.
    8880022    1    1    2    0    0 -0.33832624945E+03  0.14430381064E+03  0.36937109442E+03  0.54324478758E+03  0.15294330000E+03 0.  1.
<mgrwt>
<rscale>  0 0.39834645E+03</rscale>
<asrwt>0</asrwt>
<pdfrwt beam="1">  1        1 0.51663810E+00 0.39834645E+03</pdfrwt>
<pdfrwt beam="2">  1       -1 0.15478071E-01 0.39834645E+03</pdfrwt>
<totfact> 0.11694687E+01</totfact>
</mgrwt>
</event>
<event>
 4    1  0.8749406E-009  0.1170258E+04  0.7818608E-02  0.9139296E-01
         -1   -1    0    0    0  501 -0.00000000000E+00  0.00000000000E+00  0.24175466912E+04  0.24175466912E+04  0.50400000000E-02 0.  1.
          1   -1    0    0  501    0  0.00000000000E+00 -0.00000000000E+00 -0.89295810010E+03  0.89295810011E+03  0.50400000000E-02 0. -1.
    8880022    1    1    2    0    0  0.64880985879E+03 -0.96185097165E+03 -0.23856400469E+03  0.11943265725E+04  0.15294330000E+03 0.  0.
    8880022    1    1    2    0    0 -0.64880985879E+03  0.96185097165E+03  0.17631525958E+04  0.21161782188E+04  0.15294330000E+03 0.  0.
<mgrwt>
<rscale>  0 0.11702577E+04</rscale>
<asrwt>0</asrwt>
<pdfrwt beam="1">  1        1 0.13737817E+00 0.11702577E+04</pdfrwt>
<pdfrwt beam="2">  1       -1 0.37193025E+00 0.11702577E+04</pdfrwt>
<totfact> 0.20363200E-01</totfact>
</mgrwt>
</event>
<event>
 4    1  0.8749406E-009  0.1070155E+04  0.7818608E-02  0.9234780E-01
          1   -1    0    0  501    0  0.00000000000E+00  0.00000000000E+00  0.16130834631E+04  0.16130834631E+04  0.50400000000E-02 0. -1.
         -1   -1    0    0    0  501 -0.00000000000E+00 -0.00000000000E+00 -0.17834916146E+04  0.17834916146E+04  0.50400000000E-02 0.  1.
    8880022    1    1    2    0    0  0.25572175510E+02 -0.10588603495E+04  0.12323921505E+04  0.16321829681E+04  0.15294330000E+03 0.  0.
    8880022    1    1    2    0    0 -0.25572175510E+02  0.10588603495E+04 -0.14028003021E+04  0.17643921096E+04  0.15294330000E+03 0.  0.
<mgrwt>
<rscale>  0 0.10701546E+04</rscale>
<asrwt>0</asrwt>
<pdfrwt beam="1">  1        1 0.24816669E+00 0.10701546E+04</pdfrwt>
<pdfrwt beam="2">  1       -1 0.27438333E+00 0.10701546E+04</pdfrwt>
<totfact> 0.26522776E-01</totfact>
</mgrwt>
</event>
<event>
 4    1  0.8749406E-009  0.6096226E+03  0.7818608E-02  0.9885641E-01
         -1   -1    0    0    0  501 -0.00000000000E+00  0.00000000000E+00  0.27608167070E+03  0.27608167074E+03  0.50400000000E-02 0.  1.
          1   -1    0    0  501    0  0.00000000000E+00 -0.00000000000E+00 -0.34608347213E+04  0.34608347213E+04  0.50400000000E-02 0. -1.
    8880022    1    1    2    0    0 -0.12894386348E+03 -0.57586586164E+03 -0.13181913934E+03  0.62371143090E+03  0.15294330000E+03 0.  1.
    8880022    1    1    2    0    0  0.12894386348E+03  0.57586586164E+03 -0.30529339112E+04  0.31132049611E+04  0.15294330000E+03 0.  0.
<mgrwt>
<rscale>  0 0.60962256E+03</rscale>
<asrwt>0</asrwt>
<pdfrwt beam="1">  1        1 0.53243608E+00 0.60962256E+03</pdfrwt>
<pdfrwt beam="2">  1       -1 0.42474106E-01 0.60962256E+03</pdfrwt>
<totfact> 0.16447096E+00</totfact>
</mgrwt>
</event>
<event>
 4    1  0.8749406E-009  0.8108317E+03  0.7818608E-02  0.9544470E-01
         -1   -1    0    0    0  501 -0.00000000000E+00  0.00000000000E+00  0.20490866245E+04  0.20490866245E+04  0.50400000000E-02 0.  1.
          1   -1    0    0  501    0  0.00000000000E+00 -0.00000000000E+00 -0.12084308744E+04  0.12084308744E+04  0.50400000000E-02 0. -1.
    8880022    1    1    2    0    0  0.75961912385E+03 -0.23882053025E+03  0.18162139733E+04  0.19889900223E+04  0.15294330000E+03 0.  0.
    8880022    1    1    2    0    0 -0.75961912385E+03  0.23882053025E+03 -0.97555822326E+03  0.12685274766E+04  0.15294330000E+03 0.  0.
<mgrwt>
<rscale>  0 0.81083174E+03</rscale>
<asrwt>0</asrwt>
<pdfrwt beam="1">  1        1 0.18591244E+00 0.81083174E+03</pdfrwt>
<pdfrwt beam="2">  1       -1 0.31524410E+00 0.81083174E+03</pdfrwt>
<totfact> 0.29217085E-01</totfact>
</mgrwt>
</event>
<event>
 4    1  0.8749406E-009  0.1480631E+04  0.7818608E-02  0.8897436E-01
          1   -1    0    0  501    0  0.00000000000E+00  0.00000000000E+00  0.32421903027E+04  0.32421903027E+04  0.50400000000E-02 0. -1.
         -1   -1    0    0    0  501 -0.00000000000E+00 -0.00000000000E+00 -0.12622281426E+04  0.12622281426E+04  0.50400000000E-02 0.  1.
    8880022    1    1    2    0    0 -0.96619786365E+03 -0.11114575326E+04  0.25246355652E+04  0.29267819442E+04  0.15294330000E+03 0.  0.
    8880022    1    1    2    0    0  0.96619786365E+03  0.11114575326E+04 -0.54467340510E+03  0.15776365012E+04  0.15294330000E+03 0.  0.
<mgrwt>
<rscale>  0 0.14806309E+04</rscale>
<asrwt>0</asrwt>
<pdfrwt beam="1">  1        1 0.49879850E+00 0.14806309E+04</pdfrwt>
<pdfrwt beam="2">  1       -1 0.19418895E+00 0.14806309E+04</pdfrwt>
<totfact> 0.62138348E-02</totfact>
</mgrwt>
</event>
<event>
 4    1  0.8749406E-009  0.1331898E+04  0.7818608E-02  0.9004645E-01
          1   -1    0    0  501    0  0.00000000000E+00  0.00000000000E+00  0.18015006761E+04  0.18015006762E+04  0.50400000000E-02 0. -1.
         -1   -1    0    0    0  501 -0.00000000000E+00 -0.00000000000E+00 -0.11393966864E+04  0.11393966864E+04  0.50400000000E-02 0.  1.
    8880022    1    1    2    0    0  0.54070673462E+03 -0.12075585894E+04 -0.21075032180E+03  0.13484690842E+04  0.15294330000E+03 0.  0.
    8880022    1    1    2    0    0 -0.54070673462E+03  0.12075585894E+04  0.87285431154E+03  0.15924282784E+04  0.15294330000E+03 0.  0.
<mgrwt>
<rscale>  0 0.13318983E+04</rscale>
<asrwt>0</asrwt>
<pdfrwt beam="1">  1        1 0.27715395E+00 0.13318983E+04</pdfrwt>
<pdfrwt beam="2">  1       -1 0.17529180E+00 0.13318983E+04</pdfrwt>
<totfact> 0.88312964E-01</totfact>
</mgrwt>
</event>
<event>
 4    1  0.8749406E-009  0.6019681E+03  0.7818608E-02  0.9901331E-01
          1   -1    0    0  501    0  0.00000000000E+00  0.00000000000E+00  0.28319850669E+04  0.28319850669E+04  0.50400000000E-02 0. -1.
         -1   -1    0    0    0  501 -0.00000000000E+00 -0.00000000000E+00 -0.43247813373E+03  0.43247813376E+03  0.50400000000E-02 0.  1.
    8880022    1    1    2    0    0  0.34848853589E+03 -0.46640073549E+03  0.25694051141E+04  0.26389786280E+04  0.15294330000E+03 0.  0.
    8880022    1    1    2    0    0 -0.34848853589E+03  0.46640073549E+03 -0.16989818095E+03  0.62548457264E+03  0.15294330000E+03 0.  0.
<mgrwt>
<rscale>  0 0.60196807E+03</rscale>
<asrwt>0</asrwt>
<pdfrwt beam="1">  1        1 0.43569002E+00 0.60196807E+03</pdfrwt>
<pdfrwt beam="2">  1       -1 0.66535097E-01 0.60196807E+03</pdfrwt>
<totfact> 0.20064203E+00</totfact>
</mgrwt>
</event>
<event>
 4    1  0.8749406E-009  0.5426779E+03  0.7818608E-02  0.1003203E+00
          1   -1    0    0  501    0  0.00000000000E+00  0.00000000000E+00  0.17340541973E+04  0.17340541973E+04  0.50400000000E-02 0. -1.
         -1   -1    0    0    0  501 -0.00000000000E+00 -0.00000000000E+00 -0.22577218773E+03  0.22577218779E+03  0.50400000000E-02 0.  1.
    8880022    1    1    2    0    0  0.49943935744E+03 -0.14720058078E+03  0.12419065426E+04  0.13552974568E+04  0.15294330000E+03 0.  0.
    8880022    1    1    2    0    0 -0.49943935744E+03  0.14720058078E+03  0.26637546692E+03  0.60452892829E+03  0.15294330000E+03 0.  0.
<mgrwt>
<rscale>  0 0.54267793E+03</rscale>
<asrwt>0</asrwt>
<pdfrwt beam="1">  1        1 0.26677756E+00 0.54267793E+03</pdfrwt>
<pdfrwt beam="2">  1       -1 0.34734183E-01 0.54267793E+03</pdfrwt>
<totfact> 0.37804398E+01</totfact>
</mgrwt>
</event>
<event>
 4    1  0.8749406E-009  0.7982802E+03  0.7818608E-02  0.9562510E-01
         -1   -1    0    0    0  501 -0.00000000000E+00  0.00000000000E+00  0.59874894208E+03  0.59874894210E+03  0.50400000000E-02 0.  1.
          1   -1    0    0  501    0  0.00000000000E+00 -0.00000000000E+00 -0.16367391398E+04  0.16367391398E+04  0.50400000000E-02 0. -1.
    8880022    1    1    2    0    0 -0.76253520743E+03  0.17999906603E+03  0.14202633314E+03  0.81081609423E+03  0.15294330000E+03 0.  0.
    8880022    1    1    2    0    0  0.76253520743E+03 -0.17999906603E+03 -0.11800165308E+04  0.14246719877E+04  0.15294330000E+03 0.  0.
<mgrwt>
<rscale>  0 0.79828019E+03</rscale>
<asrwt>0</asrwt>
<pdfrwt beam="1">  1        1 0.25180602E+00 0.79828019E+03</pdfrwt>
<pdfrwt beam="2">  1       -1 0.92115223E-01 0.79828019E+03</pdfrwt>
<totfact> 0.62514495E+00</totfact>
</mgrwt>
</event>
<event>
 4    1  0.8749406E-009  0.4460330E+03  0.7818608E-02  0.1028912E+00
          1   -1    0    0  501    0  0.00000000000E+00  0.00000000000E+00  0.57416093176E+03  0.57416093179E+03  0.50400000000E-02 0. -1.
         -1   -1    0    0    0  501 -0.00000000000E+00 -0.00000000000E+00 -0.38564473783E+03  0.38564473786E+03  0.50400000000E-02 0.  1.
    8880022    1    1    2    0    0 -0.34326487235E+03 -0.24025614701E+03  0.24715865426E+03  0.50993415473E+03  0.15294330000E+03 0.  0.
    8880022    1    1    2    0    0  0.34326487235E+03  0.24025614701E+03 -0.58642460321E+02  0.44987151492E+03  0.15294330000E+03 0.  1.
<mgrwt>
<rscale>  0 0.44603301E+03</rscale>
<asrwt>0</asrwt>
<pdfrwt beam="1">  1        1 0.88332451E-01 0.44603301E+03</pdfrwt>
<pdfrwt beam="2">  1       -1 0.59329960E-01 0.44603301E+03</pdfrwt>
<totfact> 0.10974723E+02</totfact>
</mgrwt>
</event>
<event>
 4    1  0.8749406E-009  0.1871246E+03  0.7818608E-02  0.1161081E+00
         -1   -1    0    0    0  501 -0.00000000000E+00  0.00000000000E+00  0.17929514033E+04  0.17929514033E+04  0.50400000000E-02 0.  1.
          1   -1    0    0  501    0  0.00000000000E+00 -0.00000000000E+00 -0.13681335218E+04  0.13681335218E+04  0.50400000000E-02 0. -1.
    8880022    1    1    2    0    0 -0.73064566947E+02  0.79281378339E+02  0.17816300274E+04  0.17914299248E+04  0.15294330000E+03 0.  1.
    8880022    1    1    2    0    0  0.73064566947E+02 -0.79281378339E+02 -0.13568121458E+04  0.13696550004E+04  0.15294330000E+03 0.  0.
<mgrwt>
<rscale>  0 0.18712461E+03</rscale>
<asrwt>0</asrwt>
<pdfrwt beam="1">  1        1 0.21048208E+00 0.18712461E+03</pdfrwt>
<pdfrwt beam="2">  1       -1 0.27583868E+00 0.18712461E+03</pdfrwt>
<totfact> 0.52536810E-01</totfact>
</mgrwt>
</event>
<event>
 4    1  0.8749406E-009  0.7920649E+03  0.7818608E-02  0.9571574E-01
          1   -1    0    0  501    0  0.00000000000E+00  0.00000000000E+00  0.23242078407E+04  0.23242078407E+04  0.50400000000E-02 0. -1.
         -1   -1    0    0    0  501 -0.00000000000E+00 -0.00000000000E+00 -0.13855521724E+04  0.13855521724E+04  0.50400000000E-02 0.  1.
    8880022    1    1    2    0    0 -0.10107339338E+03 -0.77055779609E+03 -0.11950943717E+04  0.14337424310E+04  0.15294330000E+03 0.  0.
    8880022    1    1    2    0    0  0.10107339338E+03  0.77055779609E+03  0.21337500400E+04  0.22760175821E+04  0.15294330000E+03 0.  0.
<mgrwt>
<rscale>  0 0.79206490E+03</rscale>
<asrwt>0</asrwt>
<pdfrwt beam="1">  1        1 0.35757044E+00 0.79206490E+03</pdfrwt>
<pdfrwt beam="2">  1       -1 0.21316187E+00 0.79206490E+03</pdfrwt>
<totfact> 0.23330706E-01</totfact>
</mgrwt>
</event>
<event>
 4    1  0.8749406E-009  0.2980059E+03  0.7818608E-02  0.1086242E+00
          1   -1    0    0  501    0  0.00000000000E+00  0.00000000000E+00  0.25350253704E+04  0.25350253704E+04  0.50400000000E-02 0. -1.
         -1   -1    0    0    0  501 -0.00000000000E+00 -0.00000000000E+00 -0.78058036081E+02  0.78058036244E+02  0.50400000000E-02 0.  1.
    8880022    1    1    2    0    0 -0.15364983395E+03 -0.20446898630E+03  0.21985002869E+04  0.22186056437E+04  0.15294330000E+03 0.  0.
    8880022    1    1    2    0    0  0.15364983395E+03  0.20446898630E+03  0.25846704742E+03  0.39447776293E+03  0.15294330000E+03 0.  0.
<mgrwt>
<rscale>  0 0.29800586E+03</rscale>
<asrwt>0</asrwt>
<pdfrwt beam="1">  1        1 0.39000387E+00 0.29800586E+03</pdfrwt>
<pdfrwt beam="2">  1       -1 0.12008930E-01 0.29800586E+03</pdfrwt>
<totfact> 0.68408970E+01</totfact>
</mgrwt>
</event>
<event>
 4    1  0.8749406E-009  0.8453845E+03  0.7818608E-02  0.9496553E-01
         -1   -1    0    0    0  501 -0.00000000000E+00  0.00000000000E+00  0.42267542514E+04  0.42267542514E+04  0.50400000000E-02 0.  1.
          1   -1    0    0  501    0  0.00000000000E+00 -0.00000000000E+00 -0.48645869502E+03  0.48645869504E+03  0.50400000000E-02 0. -1.
    8880022    1    1    2    0    0  0.44936149508E+03  0.69954096499E+03 -0.33341697259E+02  0.84604174645E+03  0.15294330000E+03 0.  0.
    8880022    1    1    2    0    0 -0.44936149508E+03 -0.69954096499E+03  0.37736372537E+04  0.38671712000E+04  0.15294330000E+03 0.  0.
<mgrwt>
<rscale>  0 0.84538451E+03</rscale>
<asrwt>0</asrwt>
<pdfrwt beam="1">  1        1 0.74839802E-01 0.84538451E+03</pdfrwt>
<pdfrwt beam="2">  1       -1 0.65026986E+00 0.84538451E+03</pdfrwt>
<totfact> 0.13680217E-02</totfact>
</mgrwt>
</event>
<event>
 4    1  0.8749406E-009  0.1612907E+04  0.7818608E-02  0.8812658E-01
         -1   -1    0    0    0  501 -0.00000000000E+00  0.00000000000E+00  0.21476249674E+04  0.21476249674E+04  0.50400000000E-02 0.  1.
          1   -1    0    0  501    0  0.00000000000E+00 -0.00000000000E+00 -0.18404290518E+04  0.18404290519E+04  0.50400000000E-02 0. -1.
    8880022    1    1    2    0    0  0.46209728600E+01  0.16056324668E+04 -0.10122267366E+04  0.19042246693E+04  0.15294330000E+03 0.  0.
    8880022    1    1    2    0    0 -0.46209728600E+01 -0.16056324668E+04  0.13194226521E+04  0.20838293500E+04  0.15294330000E+03 0.  0.
<mgrwt>
<rscale>  0 0.16129069E+04</rscale>
<asrwt>0</asrwt>
<pdfrwt beam="1">  1        1 0.28314293E+00 0.16129069E+04</pdfrwt>
<pdfrwt beam="2">  1       -1 0.33040384E+00 0.16129069E+04</pdfrwt>
<totfact> 0.74484293E-02</totfact>
</mgrwt>
</event>
<event>
 4    1  0.8749406E-009  0.4887509E+03  0.7818608E-02  0.1016758E+00
          1   -1    0    0  501    0  0.00000000000E+00  0.00000000000E+00  0.11390718288E+04  0.11390718288E+04  0.50400000000E-02 0. -1.
         -1   -1    0    0    0  501 -0.00000000000E+00 -0.00000000000E+00 -0.14648612980E+04  0.14648612980E+04  0.50400000000E-02 0.  1.
    8880022    1    1    2    0    0  0.26971519455E+02 -0.46342021972E+03  0.10422777671E+04  0.11511821575E+04  0.15294330000E+03 0.  0.
    8880022    1    1    2    0    0 -0.26971519455E+02  0.46342021972E+03 -0.13680672363E+04  0.14527509693E+04  0.15294330000E+03 0.  0.
<mgrwt>
<rscale>  0 0.48875087E+03</rscale>
<asrwt>0</asrwt>
<pdfrwt beam="1">  1        1 0.17524182E+00 0.48875087E+03</pdfrwt>
<pdfrwt beam="2">  1       -1 0.22536328E+00 0.48875087E+03</pdfrwt>
<totfact> 0.13430572E+00</totfact>
</mgrwt>
</event>
<event>
 4    1  0.8749406E-009  0.9474081E+03  0.7818608E-02  0.9368185E-01
         -1   -1    0    0    0  501 -0.00000000000E+00  0.00000000000E+00  0.61415735741E+03  0.61415735743E+03  0.50400000000E-02 0.  1.
          1   -1    0    0  501    0  0.00000000000E+00 -0.00000000000E+00 -0.18295119483E+04  0.18295119483E+04  0.50400000000E-02 0. -1.
    8880022    1    1    2    0    0 -0.58244554939E+02  0.93316564380E+03 -0.59672693036E+02  0.94928553674E+03  0.15294330000E+03 0.  0.
    8880022    1    1    2    0    0  0.58244554939E+02 -0.93316564380E+03 -0.11556818978E+04  0.14943837690E+04  0.15294330000E+03 0.  0.
<mgrwt>
<rscale>  0 0.94740815E+03</rscale>
<asrwt>0</asrwt>
<pdfrwt beam="1">  1        1 0.28146338E+00 0.94740815E+03</pdfrwt>
<pdfrwt beam="2">  1       -1 0.94485748E-01 0.94740815E+03</pdfrwt>
<totfact> 0.42847125E+00</totfact>
</mgrwt>
</event>
<event>
 4    1  0.8749406E-009  0.2223001E+03  0.7818608E-02  0.1132180E+00
          1   -1    0    0  501    0  0.00000000000E+00  0.00000000000E+00  0.89771024731E+03  0.89771024732E+03  0.50400000000E-02 0. -1.
         -1   -1    0    0    0  501 -0.00000000000E+00 -0.00000000000E+00 -0.12936446045E+03  0.12936446055E+03  0.50400000000E-02 0.  1.
    8880022    1    1    2    0    0 -0.92514482524E+02  0.13216185611E+03  0.77340302639E+03  0.80471708067E+03  0.15294330000E+03 0.  0.
    8880022    1    1    2    0    0  0.92514482524E+02 -0.13216185611E+03 -0.50572395355E+01  0.22235762720E+03  0.15294330000E+03 0.  0.
<mgrwt>
<rscale>  0 0.22230011E+03</rscale>
<asrwt>0</asrwt>
<pdfrwt beam="1">  1        1 0.13810926E+00 0.22230011E+03</pdfrwt>
<pdfrwt beam="2">  1       -1 0.19902226E-01 0.22230011E+03</pdfrwt>
<totfact> 0.39444274E+02</totfact>
</mgrwt>
</event>
<event>
 4    1  0.8749406E-009  0.1743053E+04  0.7818608E-02  0.8737184E-01
         -1   -1    0    0    0  501 -0.00000000000E+00  0.00000000000E+00  0.11285918508E+04  0.11285918508E+04  0.50400000000E-02 0.  1.
          1   -1    0    0  501    0  0.00000000000E+00 -0.00000000000E+00 -0.32749376466E+04  0.32749376466E+04  0.50400000000E-02 0. -1.
    8880022    1    1    2    0    0 -0.15161949915E+04 -0.84616391574E+03 -0.14429282066E+03  0.17490147786E+04  0.15294330000E+03 0.  0.
    8880022    1    1    2    0    0  0.15161949915E+04  0.84616391574E+03 -0.20020529752E+04  0.26545147189E+04  0.15294330000E+03 0.  0.
<mgrwt>
<rscale>  0 0.17430526E+04</rscale>
<asrwt>0</asrwt>
<pdfrwt beam="1">  1        1 0.50383656E+00 0.17430526E+04</pdfrwt>
<pdfrwt beam="2">  1       -1 0.17362952E+00 0.17430526E+04</pdfrwt>
<totfact> 0.79747406E-02</totfact>
</mgrwt>
</event>
<event>
 4    1  0.8749406E-009  0.1749934E+03  0.7818608E-02  0.1172738E+00
          1   -1    0    0  501    0  0.00000000000E+00  0.00000000000E+00  0.73533245077E+02  0.73533245250E+02  0.50400000000E-02 0. -1.
         -1   -1    0    0    0  501 -0.00000000000E+00 -0.00000000000E+00 -0.89611031235E+03  0.89611031236E+03  0.50400000000E-02 0.  1.
    8880022    1    1    2    0    0 -0.60834205260E+02  0.59415901135E+02 -0.56581653338E+02  0.18391352954E+03  0.15294330000E+03 0. -1.
    8880022    1    1    2    0    0  0.60834205260E+02 -0.59415901135E+02 -0.76599541393E+03  0.78573002808E+03  0.15294330000E+03 0.  0.
<mgrwt>
<rscale>  0 0.17499344E+03</rscale>
<asrwt>0</asrwt>
<pdfrwt beam="1">  1        1 0.11312808E-01 0.17499344E+03</pdfrwt>
<pdfrwt beam="2">  1       -1 0.13786312E+00 0.17499344E+03</pdfrwt>
<totfact> 0.25727254E+02</totfact>
</mgrwt>
</event>
<event>
 4    1  0.8749406E-009  0.3722312E+03  0.7818608E-02  0.1053843E+00
         -1   -1    0    0    0  501 -0.00000000000E+00  0.00000000000E+00  0.45371310026E+03  0.45371310029E+03  0.50400000000E-02 0.  1.
          1   -1    0    0  501    0  0.00000000000E+00 -0.00000000000E+00 -0.19384992021E+04  0.19384992021E+04  0.50400000000E-02 0. -1.
    8880022    1    1    2    0    0  0.27798464592E+03 -0.19465075051E+03 -0.18402494146E+04  0.18775180263E+04  0.15294330000E+03 0.  0.
    8880022    1    1    2    0    0 -0.27798464592E+03  0.19465075051E+03  0.35546331282E+03  0.51469427607E+03  0.15294330000E+03 0.  1.
<mgrwt>
<rscale>  0 0.37223115E+03</rscale>
<asrwt>0</asrwt>
<pdfrwt beam="1">  1        1 0.29823064E+00 0.37223115E+03</pdfrwt>
<pdfrwt beam="2">  1       -1 0.69802016E-01 0.37223115E+03</pdfrwt>
<totfact> 0.77889733E+00</totfact>
</mgrwt>
</event>
<event>
 4    1  0.8749406E-009  0.6286057E+03  0.7818608E-02  0.9847773E-01
          1   -1    0    0  501    0  0.00000000000E+00  0.00000000000E+00  0.10605065702E+04  0.10605065702E+04  0.50400000000E-02 0. -1.
         -1   -1    0    0    0  501 -0.00000000000E+00 -0.00000000000E+00 -0.48534676145E+03  0.48534676148E+03  0.50400000000E-02 0.  1.
    8880022    1    1    2    0    0  0.11662509400E+03 -0.59845809575E+03  0.66011184630E+03  0.91153321802E+03  0.15294330000E+03 0. -1.
    8880022    1    1    2    0    0 -0.11662509400E+03  0.59845809575E+03 -0.84952037546E+02  0.63432011368E+03  0.15294330000E+03 0.  0.
<mgrwt>
<rscale>  0 0.62860573E+03</rscale>
<asrwt>0</asrwt>
<pdfrwt beam="1">  1        1 0.16315486E+00 0.62860573E+03</pdfrwt>
<pdfrwt beam="2">  1       -1 0.74668733E-01 0.62860573E+03</pdfrwt>
<totfact> 0.25607351E+01</totfact>
</mgrwt>
</event>
<event>
 4    1  0.8749406E-009  0.1058039E+04  0.7818608E-02  0.9247084E-01
         -1   -1    0    0    0  501 -0.00000000000E+00  0.00000000000E+00  0.24672864175E+04  0.24672864175E+04  0.50400000000E-02 0.  1.
          1   -1    0    0  501    0  0.00000000000E+00 -0.00000000000E+00 -0.12260555559E+04  0.12260555559E+04  0.50400000000E-02 0. -1.
    8880022    1    1    2    0    0  0.99193606263E+03 -0.33483852337E+03 -0.84506328730E+03  0.13540965998E+04  0.15294330000E+03 0.  0.
    8880022    1    1    2    0    0 -0.99193606263E+03  0.33483852337E+03  0.20862941489E+04  0.23392453735E+04  0.15294330000E+03 0.  0.
<mgrwt>
<rscale>  0 0.10580386E+04</rscale>
<asrwt>0</asrwt>
<pdfrwt beam="1">  1        1 0.18862393E+00 0.10580386E+04</pdfrwt>
<pdfrwt beam="2">  1       -1 0.37958252E+00 0.10580386E+04</pdfrwt>
<totfact> 0.10212165E-01</totfact>
</mgrwt>
</event>
<event>
 4    1  0.8749406E-009  0.2360027E+03  0.7818608E-02  0.1122485E+00
         -1   -1    0    0    0  501 -0.00000000000E+00  0.00000000000E+00  0.15730072310E+03  0.15730072318E+03  0.50400000000E-02 0.  1.
          1   -1    0    0  501    0  0.00000000000E+00 -0.00000000000E+00 -0.96222823354E+03  0.96222823355E+03  0.50400000000E-02 0. -1.
    8880022    1    1    2    0    0  0.17940189855E+03  0.10980710966E+02  0.42546982150E+02  0.23980724744E+03  0.15294330000E+03 0.  1.
    8880022    1    1    2    0    0 -0.17940189855E+03 -0.10980710966E+02 -0.84747449258E+03  0.87972170930E+03  0.15294330000E+03 0.  0.
<mgrwt>
<rscale>  0 0.23600269E+03</rscale>
<asrwt>0</asrwt>
<pdfrwt beam="1">  1        1 0.14803511E+00 0.23600269E+03</pdfrwt>
<pdfrwt beam="2">  1       -1 0.24200112E-01 0.23600269E+03</pdfrwt>
<totfact> 0.25468816E+02</totfact>
</mgrwt>
</event>
<event>
 4    1  0.8749406E-009  0.1267320E+04  0.7818608E-02  0.9055890E-01
          1   -1    0    0  501    0  0.00000000000E+00  0.00000000000E+00  0.72402969583E+03  0.72402969584E+03  0.50400000000E-02 0. -1.
         -1   -1    0    0    0  501 -0.00000000000E+00 -0.00000000000E+00 -0.30151543747E+04  0.30151543747E+04  0.50400000000E-02 0.  1.
    8880022    1    1    2    0    0  0.12076945350E+04  0.35239425377E+03 -0.21067040681E+04  0.24585161141E+04  0.15294330000E+03 0.  0.
    8880022    1    1    2    0    0 -0.12076945350E+04 -0.35239425377E+03 -0.18442061080E+03  0.12806679564E+04  0.15294330000E+03 0.  0.
<mgrwt>
<rscale>  0 0.12673198E+04</rscale>
<asrwt>0</asrwt>
<pdfrwt beam="1">  1        1 0.11138919E+00 0.12673198E+04</pdfrwt>
<pdfrwt beam="2">  1       -1 0.46386990E+00 0.12673198E+04</pdfrwt>
<totfact> 0.66105374E-02</totfact>
</mgrwt>
</event>
<event>
 4    1  0.8749406E-009  0.1145928E+04  0.7818608E-02  0.9161548E-01
         -1   -1    0    0    0  501 -0.00000000000E+00  0.00000000000E+00  0.25199717131E+04  0.25199717131E+04  0.50400000000E-02 0.  1.
          1   -1    0    0  501    0  0.00000000000E+00 -0.00000000000E+00 -0.86638598630E+03  0.86638598631E+03  0.50400000000E-02 0. -1.
    8880022    1    1    2    0    0 -0.56241199877E+03  0.98663698449E+03 -0.24210953581E+03  0.11712252029E+04  0.15294330000E+03 0.  0.
    8880022    1    1    2    0    0  0.56241199877E+03 -0.98663698449E+03  0.18956952626E+04  0.22151324965E+04  0.15294330000E+03 0.  0.
<mgrwt>
<rscale>  0 0.11459282E+04</rscale>
<asrwt>0</asrwt>
<pdfrwt beam="1">  1        1 0.13329015E+00 0.11459282E+04</pdfrwt>
<pdfrwt beam="2">  1       -1 0.38768795E+00 0.11459282E+04</pdfrwt>
<totfact> 0.16846117E-01</totfact>
</mgrwt>
</event>
<event>
 4    1  0.8749406E-009  0.7921835E+03  0.7818608E-02  0.9571401E-01
          1   -1    0    0  501    0  0.00000000000E+00  0.00000000000E+00  0.17349826233E+04  0.17349826233E+04  0.50400000000E-02 0. -1.
         -1   -1    0    0    0  501 -0.00000000000E+00 -0.00000000000E+00 -0.83267276485E+03  0.83267276486E+03  0.50400000000E-02 0.  1.
    8880022    1    1    2    0    0  0.71164352539E+03  0.31261243226E+03 -0.51437203418E+03  0.94452807401E+03  0.15294330000E+03 0.  0.
    8880022    1    1    2    0    0 -0.71164352539E+03 -0.31261243226E+03  0.14166818926E+04  0.16231273141E+04  0.15294330000E+03 0.  0.
<mgrwt>
<rscale>  0 0.79218350E+03</rscale>
<asrwt>0</asrwt>
<pdfrwt beam="1">  1        1 0.26692040E+00 0.79218350E+03</pdfrwt>
<pdfrwt beam="2">  1       -1 0.12810350E+00 0.79218350E+03</pdfrwt>
<totfact> 0.24716372E+00</totfact>
</mgrwt>
</event>
<event>
 4    1  0.8749406E-009  0.1166184E+04  0.7818608E-02  0.9142981E-01
          1   -1    0    0  501    0  0.00000000000E+00  0.00000000000E+00  0.10849739191E+04  0.10849739191E+04  0.50400000000E-02 0. -1.
         -1   -1    0    0    0  501 -0.00000000000E+00 -0.00000000000E+00 -0.19284361449E+04  0.19284361449E+04  0.50400000000E-02 0.  1.
    8880022    1    1    2    0    0 -0.91384923691E+03  0.70814822967E+03  0.46965424081E+03  0.12572036835E+04  0.15294330000E+03 0.  0.
    8880022    1    1    2    0    0  0.91384923691E+03 -0.70814822967E+03 -0.13131164666E+04  0.17562063805E+04  0.15294330000E+03 0.  0.
<mgrwt>
<rscale>  0 0.11661844E+04</rscale>
<asrwt>0</asrwt>
<pdfrwt beam="1">  1        1 0.16691906E+00 0.11661844E+04</pdfrwt>
<pdfrwt beam="2">  1       -1 0.29668248E+00 0.11661844E+04</pdfrwt>
<totfact> 0.44672616E-01</totfact>
</mgrwt>
</event>
<event>
 4    1  0.8749406E-009  0.9660615E+03  0.7818608E-02  0.9346572E-01
          1   -1    0    0  501    0  0.00000000000E+00  0.00000000000E+00  0.14674941727E+04  0.14674941727E+04  0.50400000000E-02 0. -1.
         -1   -1    0    0    0  501 -0.00000000000E+00 -0.00000000000E+00 -0.11672393812E+04  0.11672393812E+04  0.50400000000E-02 0.  1.
    8880022    1    1    2    0    0 -0.73014454952E+03  0.61381772074E+03 -0.73863604937E+03  0.12160831073E+04  0.15294330000E+03 0.  0.
    8880022    1    1    2    0    0  0.73014454952E+03 -0.61381772074E+03  0.10388908408E+04  0.14186504466E+04  0.15294330000E+03 0.  0.
<mgrwt>
<rscale>  0 0.96606155E+03</rscale>
<asrwt>0</asrwt>
<pdfrwt beam="1">  1        1 0.22576833E+00 0.96606155E+03</pdfrwt>
<pdfrwt beam="2">  1       -1 0.17957529E+00 0.96606155E+03</pdfrwt>
<totfact> 0.14601975E+00</totfact>
</mgrwt>
</event>
<event>
 4    1  0.8749406E-009  0.1269281E+04  0.7818608E-02  0.9054287E-01
         -1   -1    0    0    0  501 -0.00000000000E+00  0.00000000000E+00  0.93374673711E+03  0.93374673713E+03  0.50400000000E-02 0.  1.
          1   -1    0    0  501    0  0.00000000000E+00 -0.00000000000E+00 -0.47293223784E+04  0.47293223784E+04  0.50400000000E-02 0. -1.
    8880022    1    1    2    0    0  0.14252178353E+03  0.12519466626E+04  0.35888030013E+03  0.13190411774E+04  0.15294330000E+03 0.  0.
    8880022    1    1    2    0    0 -0.14252178353E+03 -0.12519466626E+04 -0.41544559414E+04  0.43440279381E+04  0.15294330000E+03 0.  0.
<mgrwt>
<rscale>  0 0.12692811E+04</rscale>
<asrwt>0</asrwt>
<pdfrwt beam="1">  1        1 0.72758805E+00 0.12692811E+04</pdfrwt>
<pdfrwt beam="2">  1       -1 0.14365335E+00 0.12692811E+04</pdfrwt>
<totfact> 0.72906034E-03</totfact>
</mgrwt>
</event>
<event>
 4    1  0.8749406E-009  0.7402982E+03  0.7818608E-02  0.9650695E-01
          1   -1    0    0  501    0  0.00000000000E+00  0.00000000000E+00  0.10938822939E+04  0.10938822940E+04  0.50400000000E-02 0. -1.
         -1   -1    0    0    0  501 -0.00000000000E+00 -0.00000000000E+00 -0.65780867845E+03  0.65780867847E+03  0.50400000000E-02 0.  1.
    8880022    1    1    2    0    0 -0.56055042459E+03 -0.45872975979E+03  0.64565349875E+03  0.98229825638E+03  0.15294330000E+03 0.  0.
    8880022    1    1    2    0    0  0.56055042459E+03  0.45872975979E+03 -0.20957988326E+03  0.76939271605E+03  0.15294330000E+03 0.  0.
<mgrwt>
<rscale>  0 0.74029820E+03</rscale>
<asrwt>0</asrwt>
<pdfrwt beam="1">  1        1 0.16828958E+00 0.74029820E+03</pdfrwt>
<pdfrwt beam="2">  1       -1 0.10120134E+00 0.74029820E+03</pdfrwt>
<totfact> 0.12284729E+01</totfact>
</mgrwt>
</event>
<event>
 4    1  0.8749406E-009  0.9827606E+03  0.7818608E-02  0.9327657E-01
          1   -1    0    0  501    0  0.00000000000E+00  0.00000000000E+00  0.87693624944E+03  0.87693624945E+03  0.50400000000E-02 0. -1.
         -1   -1    0    0    0  501 -0.00000000000E+00 -0.00000000000E+00 -0.22297605974E+04  0.22297605974E+04  0.50400000000E-02 0.  1.
    8880022    1    1    2    0    0  0.96946401151E+03  0.50657805092E+02 -0.17814377547E+04  0.20345365098E+04  0.15294330000E+03 0.  0.
    8880022    1    1    2    0    0 -0.96946401151E+03 -0.50657805092E+02  0.42861340677E+03  0.10721603370E+04  0.15294330000E+03 0.  0.
<mgrwt>
<rscale>  0 0.98276057E+03</rscale>
<asrwt>0</asrwt>
<pdfrwt beam="1">  1        1 0.13491327E+00 0.98276057E+03</pdfrwt>
<pdfrwt beam="2">  1       -1 0.34304009E+00 0.98276057E+03</pdfrwt>
<totfact> 0.33586624E-01</totfact>
</mgrwt>
</event>
<event>
 4    1  0.8749406E-009  0.5767299E+03  0.7818608E-02  0.9954896E-01
         -1   -1    0    0    0  501 -0.00000000000E+00  0.00000000000E+00  0.16435806022E+04  0.16435806022E+04  0.50400000000E-02 0.  1.
          1   -1    0    0  501    0  0.00000000000E+00 -0.00000000000E+00 -0.52370549347E+03  0.52370549350E+03  0.50400000000E-02 0. -1.
    8880022    1    1    2    0    0 -0.65234310245E+02  0.55224102763E+03  0.14087653685E+04  0.15222474123E+04  0.15294330000E+03 0.  0.
    8880022    1    1    2    0    0  0.65234310245E+02 -0.55224102763E+03 -0.28889025978E+03  0.64503868337E+03  0.15294330000E+03 0.  0.
<mgrwt>
<rscale>  0 0.57672985E+03</rscale>
<asrwt>0</asrwt>
<pdfrwt beam="1">  1        1 0.80570078E-01 0.57672985E+03</pdfrwt>
<pdfrwt beam="2">  1       -1 0.25285855E+00 0.57672985E+03</pdfrwt>
<totfact> 0.29894734E+00</totfact>
</mgrwt>
</event>
<event>
 4    1  0.8749406E-009  0.5961043E+03  0.7818608E-02  0.9913522E-01
          1   -1    0    0  501    0  0.00000000000E+00  0.00000000000E+00  0.54065032605E+03  0.54065032607E+03  0.50400000000E-02 0. -1.
         -1   -1    0    0    0  501 -0.00000000000E+00 -0.00000000000E+00 -0.89627635022E+03  0.89627635024E+03  0.50400000000E-02 0.  1.
    8880022    1    1    2    0    0 -0.15481543763E+03 -0.55496021892E+03  0.19321788634E+03  0.62663663229E+03  0.15294330000E+03 0.  0.
    8880022    1    1    2    0    0  0.15481543763E+03  0.55496021892E+03 -0.54884391052E+03  0.81029004402E+03  0.15294330000E+03 0.  0.
<mgrwt>
<rscale>  0 0.59610428E+03</rscale>
<asrwt>0</asrwt>
<pdfrwt beam="1">  1        1 0.83176973E-01 0.59610428E+03</pdfrwt>
<pdfrwt beam="2">  1       -1 0.13788867E+00 0.59610428E+03</pdfrwt>
<totfact> 0.18141102E+01</totfact>
</mgrwt>
</event>
<event>
 4    1  0.8749406E-009  0.6138066E+03  0.7818608E-02  0.9877169E-01
          1   -1    0    0  501    0  0.00000000000E+00  0.00000000000E+00  0.17570348806E+04  0.17570348806E+04  0.50400000000E-02 0. -1.
         -1   -1    0    0    0  501 -0.00000000000E+00 -0.00000000000E+00 -0.71001057804E+03  0.71001057806E+03  0.50400000000E-02 0.  1.
    8880022    1    1    2    0    0 -0.43652937005E+03  0.40349591483E+03  0.15540703133E+04  0.16708958783E+04  0.15294330000E+03 0.  0.
    8880022    1    1    2    0    0  0.43652937005E+03 -0.40349591483E+03 -0.50704601082E+03  0.79614958036E+03  0.15294330000E+03 0.  0.
<mgrwt>
<rscale>  0 0.61380656E+03</rscale>
<asrwt>0</asrwt>
<pdfrwt beam="1">  1        1 0.27031305E+00 0.61380656E+03</pdfrwt>
<pdfrwt beam="2">  1       -1 0.10923240E+00 0.61380656E+03</pdfrwt>
<totfact> 0.36397022E+00</totfact>
</mgrwt>
</event>
<event>
 4    1  0.8749406E-009  0.2966077E+03  0.7818608E-02  0.1086949E+00
         -1   -1    0    0    0  501 -0.00000000000E+00  0.00000000000E+00  0.18347547996E+04  0.18347547996E+04  0.50400000000E-02 0.  1.
          1   -1    0    0  501    0  0.00000000000E+00 -0.00000000000E+00 -0.15661933267E+03  0.15661933275E+03  0.50400000000E-02 0. -1.
    8880022    1    1    2    0    0 -0.37686940673E+02  0.25132482723E+03  0.96867390041E+01  0.29676583396E+03  0.15294330000E+03 0. -1.
    8880022    1    1    2    0    0  0.37686940673E+02 -0.25132482723E+03  0.16684487279E+04  0.16946082984E+04  0.15294330000E+03 0.  0.
<mgrwt>
<rscale>  0 0.29660770E+03</rscale>
<asrwt>0</asrwt>
<pdfrwt beam="1">  1        1 0.24095283E-01 0.29660770E+03</pdfrwt>
<pdfrwt beam="2">  1       -1 0.28226995E+00 0.29660770E+03</pdfrwt>
<totfact> 0.99811168E+00</totfact>
</mgrwt>
</event>
<event>
 4    1  0.8749406E-009  0.9495775E+03  0.7818608E-02  0.9365645E-01
          1   -1    0    0  501    0  0.00000000000E+00  0.00000000000E+00  0.10741713126E+04  0.10741713127E+04  0.50400000000E-02 0. -1.
         -1   -1    0    0    0  501 -0.00000000000E+00 -0.00000000000E+00 -0.15763728154E+04  0.15763728154E+04  0.50400000000E-02 0.  1.
    8880022    1    1    2    0    0 -0.40235134037E+03  0.84641548636E+03  0.65503001657E+03  0.11535864737E+04  0.15294330000E+03 0.  0.
    8880022    1    1    2    0    0  0.40235134037E+03 -0.84641548636E+03 -0.11572315193E+04  0.14969576544E+04  0.15294330000E+03 0.  0.
<mgrwt>
<rscale>  0 0.94957750E+03</rscale>
<asrwt>0</asrwt>
<pdfrwt beam="1">  1        1 0.16525712E+00 0.94957750E+03</pdfrwt>
<pdfrwt beam="2">  1       -1 0.24251890E+00 0.94957750E+03</pdfrwt>
<totfact> 0.10510505E+00</totfact>
</mgrwt>
</event>
<event>
 4    1  0.8749406E-009  0.4957648E+03  0.7818608E-02  0.1014890E+00
         -1   -1    0    0    0  501 -0.00000000000E+00  0.00000000000E+00  0.36093157957E+03  0.36093157960E+03  0.50400000000E-02 0.  1.
          1   -1    0    0  501    0  0.00000000000E+00 -0.00000000000E+00 -0.26953164311E+04  0.26953164311E+04  0.50400000000E-02 0. -1.
    8880022    1    1    2    0    0  0.85016514242E+01 -0.47150691623E+03  0.15386306852E+03  0.51909204097E+03  0.15294330000E+03 0.  0.
    8880022    1    1    2    0    0 -0.85016514242E+01  0.47150691623E+03 -0.24882479201E+04  0.25371559698E+04  0.15294330000E+03 0.  0.
<mgrwt>
<rscale>  0 0.49576477E+03</rscale>
<asrwt>0</asrwt>
<pdfrwt beam="1">  1        1 0.41466405E+00 0.49576477E+03</pdfrwt>
<pdfrwt beam="2">  1       -1 0.55527937E-01 0.49576477E+03</pdfrwt>
<totfact> 0.36680964E+00</totfact>
</mgrwt>
</event>
<event>
 4    1  0.8749406E-009  0.6449483E+03  0.7818608E-02  0.9816305E-01
         -1   -1    0    0    0  501 -0.00000000000E+00  0.00000000000E+00  0.18327758153E+04  0.18327758153E+04  0.50400000000E-02 0.  1.
          1   -1    0    0  501    0  0.00000000000E+00 -0.00000000000E+00 -0.13837097585E+04  0.13837097585E+04  0.50400000000E-02 0. -1.
    8880022    1    1    2    0    0  0.34368421476E+03  0.52387767913E+03 -0.12459150293E+04  0.14029478164E+04  0.15294330000E+03 0.  0.
    8880022    1    1    2    0    0 -0.34368421476E+03 -0.52387767913E+03  0.16949810862E+04  0.18135377574E+04  0.15294330000E+03 0.  0.
<mgrwt>
<rscale>  0 0.64494830E+03</rscale>
<asrwt>0</asrwt>
<pdfrwt beam="1">  1        1 0.21287842E+00 0.64494830E+03</pdfrwt>
<pdfrwt beam="2">  1       -1 0.28196551E+00 0.64494830E+03</pdfrwt>
<totfact> 0.37322103E-01</totfact>
</mgrwt>
</event>
<event>
 4    1  0.8749406E-009  0.1203891E+04  0.7818608E-02  0.9109458E-01
          1   -1    0    0  501    0  0.00000000000E+00  0.00000000000E+00  0.11180475738E+04  0.11180475738E+04  0.50400000000E-02 0. -1.
         -1   -1    0    0    0  501 -0.00000000000E+00 -0.00000000000E+00 -0.17425665571E+04  0.17425665571E+04  0.50400000000E-02 0.  1.
    8880022    1    1    2    0    0 -0.46309095395E+03  0.11006854588E+04  0.41154196612E+03  0.12722893357E+04  0.15294330000E+03 0.  0.
    8880022    1    1    2    0    0  0.46309095395E+03 -0.11006854588E+04 -0.10360609495E+04  0.15883247952E+04  0.15294330000E+03 0.  0.
<mgrwt>
<rscale>  0 0.12038909E+04</rscale>
<asrwt>0</asrwt>
<pdfrwt beam="1">  1        1 0.17200732E+00 0.12038909E+04</pdfrwt>
<pdfrwt beam="2">  1       -1 0.26808716E+00 0.12038909E+04</pdfrwt>
<totfact> 0.64163022E-01</totfact>
</mgrwt>
</event>
<event>
 4    1  0.8749406E-009  0.1407739E+04  0.7818608E-02  0.8948236E-01
         -1   -1    0    0    0  501 -0.00000000000E+00  0.00000000000E+00  0.10733130024E+04  0.10733130025E+04  0.50400000000E-02 0.  1.
          1   -1    0    0  501    0  0.00000000000E+00 -0.00000000000E+00 -0.29003849961E+04  0.29003849961E+04  0.50400000000E-02 0. -1.
    8880022    1    1    2    0    0 -0.80683279717E+03  0.11433977562E+04  0.28420010213E+03  0.14361402934E+04  0.15294330000E+03 0.  0.
    8880022    1    1    2    0    0  0.80683279717E+03 -0.11433977562E+04 -0.21112720958E+04  0.25375577051E+04  0.15294330000E+03 0.  0.
<mgrwt>
<rscale>  0 0.14077391E+04</rscale>
<asrwt>0</asrwt>
<pdfrwt beam="1">  1        1 0.44621307E+00 0.14077391E+04</pdfrwt>
<pdfrwt beam="2">  1       -1 0.16512508E+00 0.14077391E+04</pdfrwt>
<totfact> 0.18150086E-01</totfact>
</mgrwt>
</event>
<event>
 4    1  0.8749406E-009  0.1121250E+04  0.7818608E-02  0.9184724E-01
         -1   -1    0    0    0  501 -0.00000000000E+00  0.00000000000E+00  0.17877480563E+04  0.17877480563E+04  0.50400000000E-02 0.  1.
          1   -1    0    0  501    0  0.00000000000E+00 -0.00000000000E+00 -0.14515068596E+04  0.14515068596E+04  0.50400000000E-02 0. -1.
    8880022    1    1    2    0    0 -0.10669740760E+04 -0.30883104328E+03  0.13310038409E+04  0.17403370851E+04  0.15294330000E+03 0.  0.
    8880022    1    1    2    0    0  0.10669740760E+04  0.30883104328E+03 -0.99476264424E+03  0.14989178308E+04  0.15294330000E+03 0.  0.
<mgrwt>
<rscale>  0 0.11212502E+04</rscale>
<asrwt>0</asrwt>
<pdfrwt beam="1">  1        1 0.22330875E+00 0.11212502E+04</pdfrwt>
<pdfrwt beam="2">  1       -1 0.27503816E+00 0.11212502E+04</pdfrwt>
<totfact> 0.33675039E-01</totfact>
</mgrwt>
</event>
<event>
 4    1  0.8749406E-009  0.1023124E+04  0.7818608E-02  0.9283540E-01
          1   -1    0    0  501    0  0.00000000000E+00  0.00000000000E+00  0.22745048308E+04  0.22745048308E+04  0.50400000000E-02 0. -1.
         -1   -1    0    0    0  501 -0.00000000000E+00 -0.00000000000E+00 -0.50762078491E+03  0.50762078494E+03  0.50400000000E-02 0.  1.
    8880022    1    1    2    0    0  0.92195913695E+03 -0.41639169982E+03  0.13085019802E+04  0.16610116746E+04  0.15294330000E+03 0.  0.
    8880022    1    1    2    0    0 -0.92195913695E+03  0.41639169982E+03  0.45838206567E+03  0.11211139411E+04  0.15294330000E+03 0.  0.
<mgrwt>
<rscale>  0 0.10231238E+04</rscale>
<asrwt>0</asrwt>
<pdfrwt beam="1">  1        1 0.34992382E+00 0.10231238E+04</pdfrwt>
<pdfrwt beam="2">  1       -1 0.78095506E-01 0.10231238E+04</pdfrwt>
<totfact> 0.32194356E+00</totfact>
</mgrwt>
</event>
<event>
 4    1  0.8749406E-009  0.6488914E+03  0.7818608E-02  0.9808862E-01
          1   -1    0    0  501    0  0.00000000000E+00  0.00000000000E+00  0.11004572166E+04  0.11004572166E+04  0.50400000000E-02 0. -1.
         -1   -1    0    0    0  501 -0.00000000000E+00 -0.00000000000E+00 -0.40737537291E+03  0.40737537294E+03  0.50400000000E-02 0.  1.
    8880022    1    1    2    0    0  0.38175362995E+03 -0.50192883964E+03  0.16070241167E+03  0.66849481088E+03  0.15294330000E+03 0.  0.
    8880022    1    1    2    0    0 -0.38175362995E+03  0.50192883964E+03  0.53237943202E+03  0.83933777867E+03  0.15294330000E+03 0.  0.
<mgrwt>
<rscale>  0 0.64889140E+03</rscale>
<asrwt>0</asrwt>
<pdfrwt beam="1">  1        1 0.16930111E+00 0.64889140E+03</pdfrwt>
<pdfrwt beam="2">  1       -1 0.62673136E-01 0.64889140E+03</pdfrwt>
<totfact> 0.34011843E+01</totfact>
</mgrwt>
</event>
<event>
 4    1  0.8749406E-009  0.1071094E+04  0.7818608E-02  0.9233833E-01
          1   -1    0    0  501    0  0.00000000000E+00  0.00000000000E+00  0.13973409372E+04  0.13973409372E+04  0.50400000000E-02 0. -1.
         -1   -1    0    0    0  501 -0.00000000000E+00 -0.00000000000E+00 -0.20007397504E+04  0.20007397504E+04  0.50400000000E-02 0.  1.
    8880022    1    1    2    0    0  0.99146493924E+03  0.37529588917E+03  0.10029633758E+04  0.14673707494E+04  0.15294330000E+03 0. -1.
    8880022    1    1    2    0    0 -0.99146493924E+03 -0.37529588917E+03 -0.16063621890E+04  0.19307099382E+04  0.15294330000E+03 0.  0.
<mgrwt>
<rscale>  0 0.10710935E+04</rscale>
<asrwt>0</asrwt>
<pdfrwt beam="1">  1        1 0.21497553E+00 0.10710935E+04</pdfrwt>
<pdfrwt beam="2">  1       -1 0.30780612E+00 0.10710935E+04</pdfrwt>
<totfact> 0.22781951E-01</totfact>
</mgrwt>
</event>
<event>
 4    1  0.8749406E-009  0.2191337E+04  0.7818608E-02  0.8522042E-01
          1   -1    0    0  501    0  0.00000000000E+00  0.00000000000E+00  0.36314076627E+04  0.36314076627E+04  0.50400000000E-02 0. -1.
         -1   -1    0    0    0  501 -0.00000000000E+00 -0.00000000000E+00 -0.14689935374E+04  0.14689935374E+04  0.50400000000E-02 0.  1.
    8880022    1    1    2    0    0 -0.15666548456E+04  0.15245197119E+04  0.27544072053E+03  0.22085803134E+04  0.15294330000E+03 0.  0.
    8880022    1    1    2    0    0  0.15666548456E+04 -0.15245197119E+04  0.18869734048E+04  0.28918208867E+04  0.15294330000E+03 0.  0.
<mgrwt>
<rscale>  0 0.21913374E+04</rscale>
<asrwt>0</asrwt>
<pdfrwt beam="1">  1        1 0.55867810E+00 0.21913374E+04</pdfrwt>
<pdfrwt beam="2">  1       -1 0.22599901E+00 0.21913374E+04</pdfrwt>
<totfact> 0.17197474E-02</totfact>
</mgrwt>
</event>
<event>
 4    1  0.8749406E-009  0.6086632E+03  0.7818608E-02  0.9887594E-01
          1   -1    0    0  501    0  0.00000000000E+00  0.00000000000E+00  0.16428990846E+04  0.16428990846E+04  0.50400000000E-02 0. -1.
         -1   -1    0    0    0  501 -0.00000000000E+00 -0.00000000000E+00 -0.12689411773E+04  0.12689411773E+04  0.50400000000E-02 0.  1.
    8880022    1    1    2    0    0 -0.34916439924E+03 -0.47451396655E+03 -0.11332557583E+04  0.12863668019E+04  0.15294330000E+03 0.  0.
    8880022    1    1    2    0    0  0.34916439924E+03  0.47451396655E+03  0.15072136657E+04  0.16254734600E+04  0.15294330000E+03 0. -1.
<mgrwt>
<rscale>  0 0.60866324E+03</rscale>
<asrwt>0</asrwt>
<pdfrwt beam="1">  1        1 0.25275370E+00 0.60866324E+03</pdfrwt>
<pdfrwt beam="2">  1       -1 0.19522172E+00 0.60866324E+03</pdfrwt>
<totfact> 0.92436381E-01</totfact>
</mgrwt>
</event>
<event>
 4    1  0.8749406E-009  0.5767574E+03  0.7818608E-02  0.9954836E-01
          1   -1    0    0  501    0  0.00000000000E+00  0.00000000000E+00  0.10935556745E+04  0.10935556745E+04  0.50400000000E-02 0. -1.
         -1   -1    0    0    0  501 -0.00000000000E+00 -0.00000000000E+00 -0.12307337751E+04  0.12307337751E+04  0.50400000000E-02 0.  1.
    8880022    1    1    2    0    0  0.12883102835E+03 -0.54098056169E+03  0.93976036549E+03  0.11026325769E+04  0.15294330000E+03 0.  0.
    8880022    1    1    2    0    0 -0.12883102835E+03  0.54098056169E+03 -0.10769384661E+04  0.12216568728E+04  0.15294330000E+03 0.  0.
<mgrwt>
<rscale>  0 0.57675736E+03</rscale>
<asrwt>0</asrwt>
<pdfrwt beam="1">  1        1 0.16823933E+00 0.57675736E+03</pdfrwt>
<pdfrwt beam="2">  1       -1 0.18934366E+00 0.57675736E+03</pdfrwt>
<totfact> 0.24730702E+00</totfact>
</mgrwt>
</event>
<event>
 4    1  0.8749406E-009  0.3479189E+03  0.7818608E-02  0.1063472E+00
          1   -1    0    0  501    0  0.00000000000E+00  0.00000000000E+00  0.10854087434E+04  0.10854087434E+04  0.50400000000E-02 0. -1.
         -1   -1    0    0    0  501 -0.00000000000E+00 -0.00000000000E+00 -0.12494862517E+04  0.12494862517E+04  0.50400000000E-02 0.  1.
    8880022    1    1    2    0    0  0.71552140195E+02 -0.30419763848E+03  0.10320911208E+04  0.10891554740E+04  0.15294330000E+03 0. -1.
    8880022    1    1    2    0    0 -0.71552140195E+02  0.30419763848E+03 -0.11961686291E+04  0.12457395210E+04  0.15294330000E+03 0.  0.
<mgrwt>
<rscale>  0 0.34791891E+03</rscale>
<asrwt>0</asrwt>
<pdfrwt beam="1">  1        1 0.16698596E+00 0.34791891E+03</pdfrwt>
<pdfrwt beam="2">  1       -1 0.19222865E+00 0.34791891E+03</pdfrwt>
<totfact> 0.25676990E+00</totfact>
</mgrwt>
</event>
<event>
 4    1  0.8749406E-009  0.1635316E+04  0.7818608E-02  0.8799141E-01
          1   -1    0    0  501    0  0.00000000000E+00  0.00000000000E+00  0.33314747161E+04  0.33314747161E+04  0.50400000000E-02 0. -1.
         -1   -1    0    0    0  501 -0.00000000000E+00 -0.00000000000E+00 -0.96761626290E+03  0.96761626291E+03  0.50400000000E-02 0.  1.
    8880022    1    1    2    0    0 -0.10700839648E+04  0.12271046763E+04  0.20692776931E+04  0.26374547205E+04  0.15294330000E+03 0.  0.
    8880022    1    1    2    0    0  0.10700839648E+04 -0.12271046763E+04  0.29458076013E+03  0.16616362585E+04  0.15294330000E+03 0.  0.
<mgrwt>
<rscale>  0 0.16353156E+04</rscale>
<asrwt>0</asrwt>
<pdfrwt beam="1">  1        1 0.51253457E+00 0.16353156E+04</pdfrwt>
<pdfrwt beam="2">  1       -1 0.14886404E+00 0.16353156E+04</pdfrwt>
<totfact> 0.11294903E-01</totfact>
</mgrwt>
</event>
<event>
 4    1  0.8749406E-009  0.4822150E+03  0.7818608E-02  0.1018528E+00
         -1   -1    0    0    0  501 -0.00000000000E+00  0.00000000000E+00  0.11009393554E+04  0.11009393554E+04  0.50400000000E-02 0.  1.
          1   -1    0    0  501    0  0.00000000000E+00 -0.00000000000E+00 -0.95461333021E+03  0.95461333022E+03  0.50400000000E-02 0. -1.
    8880022    1    1    2    0    0 -0.31445052901E+02  0.45623549956E+03  0.98014074270E+03  0.10923402176E+04  0.15294330000E+03 0.  0.
    8880022    1    1    2    0    0  0.31445052901E+02 -0.45623549956E+03 -0.83381471753E+03  0.96321246804E+03  0.15294330000E+03 0.  0.
<mgrwt>
<rscale>  0 0.48221497E+03</rscale>
<asrwt>0</asrwt>
<pdfrwt beam="1">  1        1 0.14686359E+00 0.48221497E+03</pdfrwt>
<pdfrwt beam="2">  1       -1 0.16937528E+00 0.48221497E+03</pdfrwt>
<totfact> 0.44722596E+00</totfact>
</mgrwt>
</event>
<event>
 4    1  0.8749406E-009  0.5168188E+03  0.7818608E-02  0.1009480E+00
          1   -1    0    0  501    0  0.00000000000E+00  0.00000000000E+00  0.47595317859E+03  0.47595317862E+03  0.50400000000E-02 0. -1.
         -1   -1    0    0    0  501 -0.00000000000E+00 -0.00000000000E+00 -0.62337518691E+03  0.62337518693E+03  0.50400000000E-02 0.  1.
    8880022    1    1    2    0    0  0.45345438744E+03  0.19516425485E+03 -0.24731330148E+03  0.57294457844E+03  0.15294330000E+03 0.  1.
    8880022    1    1    2    0    0 -0.45345438744E+03 -0.19516425485E+03  0.99891293168E+02  0.52638378710E+03  0.15294330000E+03 0. -1.
<mgrwt>
<rscale>  0 0.51681875E+03</rscale>
<asrwt>0</asrwt>
<pdfrwt beam="1">  1        1 0.73223566E-01 0.51681875E+03</pdfrwt>
<pdfrwt beam="2">  1       -1 0.95903875E-01 0.51681875E+03</pdfrwt>
<totfact> 0.51959212E+01</totfact>
</mgrwt>
</event>
<event>
 4    1  0.8749406E-009  0.9161393E+03  0.7818608E-02  0.9405628E-01
         -1   -1    0    0    0  501 -0.00000000000E+00  0.00000000000E+00  0.54191160237E+03  0.54191160239E+03  0.50400000000E-02 0.  1.
          1   -1    0    0  501    0  0.00000000000E+00 -0.00000000000E+00 -0.17388468404E+04  0.17388468404E+04  0.50400000000E-02 0. -1.
    8880022    1    1    2    0    0 -0.57378255164E+03  0.69763392712E+03 -0.97547701172E+03  0.13382326279E+04  0.15294330000E+03 0.  0.
    8880022    1    1    2    0    0  0.57378255164E+03 -0.69763392712E+03 -0.22145822632E+03  0.94252581495E+03  0.15294330000E+03 0.  0.
<mgrwt>
<rscale>  0 0.91613927E+03</rscale>
<asrwt>0</asrwt>
<pdfrwt beam="1">  1        1 0.26751490E+00 0.91613927E+03</pdfrwt>
<pdfrwt beam="2">  1       -1 0.83371017E-01 0.91613927E+03</pdfrwt>
<totfact> 0.65225836E+00</totfact>
</mgrwt>
</event>
<event>
 4    1  0.8749406E-009  0.9720149E+03  0.7818608E-02  0.9339782E-01
         -1   -1    0    0    0  501 -0.00000000000E+00  0.00000000000E+00  0.95389101912E+03  0.95389101913E+03  0.50400000000E-02 0.  1.
          1   -1    0    0  501    0  0.00000000000E+00 -0.00000000000E+00 -0.25851453124E+04  0.25851453124E+04  0.50400000000E-02 0. -1.
    8880022    1    1    2    0    0 -0.77781199757E+03  0.56252094775E+03 -0.22054098149E+04  0.24101131560E+04  0.15294330000E+03 0.  0.
    8880022    1    1    2    0    0  0.77781199757E+03 -0.56252094775E+03  0.57415552160E+03  0.11289231755E+04  0.15294330000E+03 0.  0.
<mgrwt>
<rscale>  0 0.97201490E+03</rscale>
<asrwt>0</asrwt>
<pdfrwt beam="1">  1        1 0.39771466E+00 0.97201490E+03</pdfrwt>
<pdfrwt beam="2">  1       -1 0.14675247E+00 0.97201490E+03</pdfrwt>
<totfact> 0.44828085E-01</totfact>
</mgrwt>
</event>
<event>
 4    1  0.8749406E-009  0.7232625E+03  0.7818608E-02  0.9678257E-01
         -1   -1    0    0    0  501 -0.00000000000E+00  0.00000000000E+00  0.10886493651E+04  0.10886493651E+04  0.50400000000E-02 0.  1.
          1   -1    0    0  501    0  0.00000000000E+00 -0.00000000000E+00 -0.63207455832E+03  0.63207455834E+03  0.50400000000E-02 0. -1.
    8880022    1    1    2    0    0  0.18526049466E+03  0.68219909870E+03  0.64958937960E+03  0.97214971906E+03  0.15294330000E+03 0.  0.
    8880022    1    1    2    0    0 -0.18526049466E+03 -0.68219909870E+03 -0.19301457282E+03  0.74857420440E+03  0.15294330000E+03 0.  0.
<mgrwt>
<rscale>  0 0.72326255E+03</rscale>
<asrwt>0</asrwt>
<pdfrwt beam="1">  1        1 0.97242239E-01 0.72326255E+03</pdfrwt>
<pdfrwt beam="2">  1       -1 0.16748452E+00 0.72326255E+03</pdfrwt>
<totfact> 0.84414879E+00</totfact>
</mgrwt>
</event>
<event>
 4    1  0.8749406E-009  0.9626132E+03  0.7818608E-02  0.9350528E-01
          1   -1    0    0  501    0  0.00000000000E+00  0.00000000000E+00  0.13441326523E+04  0.13441326523E+04  0.50400000000E-02 0. -1.
         -1   -1    0    0    0  501 -0.00000000000E+00 -0.00000000000E+00 -0.12792552597E+04  0.12792552597E+04  0.50400000000E-02 0.  1.
    8880022    1    1    2    0    0 -0.94617182442E+03 -0.89394764742E+02  0.92314053932E+03  0.13337213553E+04  0.15294330000E+03 0.  0.
    8880022    1    1    2    0    0  0.94617182442E+03  0.89394764742E+02 -0.85826314671E+03  0.12896665566E+04  0.15294330000E+03 0.  0.
<mgrwt>
<rscale>  0 0.96261321E+03</rscale>
<asrwt>0</asrwt>
<pdfrwt beam="1">  1        1 0.20678964E+00 0.96261321E+03</pdfrwt>
<pdfrwt beam="2">  1       -1 0.19680850E+00 0.96261321E+03</pdfrwt>
<totfact> 0.13475911E+00</totfact>
</mgrwt>
</event>
<event>
 4    1  0.8749406E-009  0.3369117E+03  0.7818608E-02  0.1068119E+00
          1   -1    0    0  501    0  0.00000000000E+00  0.00000000000E+00  0.34524291154E+04  0.34524291154E+04  0.50400000000E-02 0. -1.
         -1   -1    0    0    0  501 -0.00000000000E+00 -0.00000000000E+00 -0.20988673280E+03  0.20988673286E+03  0.50400000000E-02 0.  1.
    8880022    1    1    2    0    0 -0.20481116041E+03 -0.21947711938E+03 -0.60358914535E+02  0.34227572064E+03  0.15294330000E+03 0.  1.
    8880022    1    1    2    0    0  0.20481116041E+03  0.21947711938E+03  0.33029012971E+04  0.33200401276E+04  0.15294330000E+03 0.  0.
<mgrwt>
<rscale>  0 0.33691167E+03</rscale>
<asrwt>0</asrwt>
<pdfrwt beam="1">  1        1 0.53114294E+00 0.33691167E+03</pdfrwt>
<pdfrwt beam="2">  1       -1 0.32290267E-01 0.33691167E+03</pdfrwt>
<totfact> 0.29946847E+00</totfact>
</mgrwt>
</event>
<event>
 4    1  0.8749406E-009  0.4778353E+03  0.7818608E-02  0.1019732E+00
         -1   -1    0    0    0  501 -0.00000000000E+00  0.00000000000E+00  0.96116590702E+03  0.96116590703E+03  0.50400000000E-02 0.  1.
          1   -1    0    0  501    0  0.00000000000E+00 -0.00000000000E+00 -0.66873491361E+03  0.66873491363E+03  0.50400000000E-02 0. -1.
    8880022    1    1    2    0    0 -0.41266543012E+03 -0.18612415700E+03 -0.50817215803E+03  0.69754251071E+03  0.15294330000E+03 0.  0.
    8880022    1    1    2    0    0  0.41266543012E+03  0.18612415700E+03  0.80060315143E+03  0.93235830995E+03  0.15294330000E+03 0.  1.
<mgrwt>
<rscale>  0 0.47783534E+03</rscale>
<asrwt>0</asrwt>
<pdfrwt beam="1">  1        1 0.10288229E+00 0.47783534E+03</pdfrwt>
<pdfrwt beam="2">  1       -1 0.14787168E+00 0.47783534E+03</pdfrwt>
<totfact> 0.11386420E+01</totfact>
</mgrwt>
</event>
<event>
 4    1  0.8749406E-009  0.6064882E+03  0.7818608E-02  0.9892036E-01
         -1   -1    0    0    0  501 -0.00000000000E+00  0.00000000000E+00  0.47435897519E+03  0.47435897522E+03  0.50400000000E-02 0.  1.
          1   -1    0    0  501    0  0.00000000000E+00 -0.00000000000E+00 -0.77601459926E+03  0.77601459927E+03  0.50400000000E-02 0. -1.
    8880022    1    1    2    0    0 -0.58186996055E+03  0.76573972823E+02 -0.13353572406E+03  0.62101502955E+03  0.15294330000E+03 0. -1.
    8880022    1    1    2    0    0  0.58186996055E+03 -0.76573972823E+02 -0.16811990001E+03  0.62935854495E+03  0.15294330000E+03 0.  1.
<mgrwt>
<rscale>  0 0.60648815E+03</rscale>
<asrwt>0</asrwt>
<pdfrwt beam="1">  1        1 0.11938686E+00 0.60648815E+03</pdfrwt>
<pdfrwt beam="2">  1       -1 0.72978304E-01 0.60648815E+03</pdfrwt>
<totfact> 0.45643865E+01</totfact>
</mgrwt>
</event>
<event>
 4    1  0.8749406E-009  0.3854284E+03  0.7818608E-02  0.1048945E+00
         -1   -1    0    0    0  501 -0.00000000000E+00  0.00000000000E+00  0.63136899022E+03  0.63136899024E+03  0.50400000000E-02 0.  1.
          1   -1    0    0  501    0  0.00000000000E+00 -0.00000000000E+00 -0.24023437035E+03  0.24023437041E+03  0.50400000000E-02 0. -1.
    8880022    1    1    2    0    0  0.34609975118E+03 -0.73337217625E+02  0.13304846734E+03  0.40774616237E+03  0.15294330000E+03 0. -1.
    8880022    1    1    2    0    0 -0.34609975118E+03  0.73337217625E+02  0.25808615252E+03  0.46385719828E+03  0.15294330000E+03 0.  1.
<mgrwt>
<rscale>  0 0.38542838E+03</rscale>
<asrwt>0</asrwt>
<pdfrwt beam="1">  1        1 0.36959134E-01 0.38542838E+03</pdfrwt>
<pdfrwt beam="2">  1       -1 0.97133690E-01 0.38542838E+03</pdfrwt>
<totfact> 0.12431812E+02</totfact>
</mgrwt>
</event>
<event>
 4    1  0.8749406E-009  0.9126745E+03  0.7818608E-02  0.9409875E-01
          1   -1    0    0  501    0  0.00000000000E+00  0.00000000000E+00  0.18644772562E+04  0.18644772562E+04  0.50400000000E-02 0. -1.
         -1   -1    0    0    0  501 -0.00000000000E+00 -0.00000000000E+00 -0.52318927923E+03  0.52318927925E+03  0.50400000000E-02 0.  1.
    8880022    1    1    2    0    0 -0.89930262660E+03  0.28946239238E+02  0.21435206673E+03  0.93750816556E+03  0.15294330000E+03 0.  0.
    8880022    1    1    2    0    0  0.89930262660E+03 -0.28946239238E+02  0.11269359103E+04  0.14501583699E+04  0.15294330000E+03 0.  0.
<mgrwt>
<rscale>  0 0.91267450E+03</rscale>
<asrwt>0</asrwt>
<pdfrwt beam="1">  1        1 0.28684266E+00 0.91267450E+03</pdfrwt>
<pdfrwt beam="2">  1       -1 0.80490657E-01 0.91267450E+03</pdfrwt>
<totfact> 0.57909405E+00</totfact>
</mgrwt>
</event>
<event>
 4    1  0.8749406E-009  0.6269634E+03  0.7818608E-02  0.9850993E-01
          1   -1    0    0  501    0  0.00000000000E+00  0.00000000000E+00  0.46810741108E+03  0.46810741111E+03  0.50400000000E-02 0. -1.
         -1   -1    0    0    0  501 -0.00000000000E+00 -0.00000000000E+00 -0.88303565632E+03  0.88303565634E+03  0.50400000000E-02 0.  1.
    8880022    1    1    2    0    0  0.60788868408E+03  0.12757404233E+02 -0.57853343030E+02  0.62962692597E+03  0.15294330000E+03 0.  0.
    8880022    1    1    2    0    0 -0.60788868408E+03 -0.12757404233E+02 -0.35707490222E+03  0.72151614147E+03  0.15294330000E+03 0.  0.
<mgrwt>
<rscale>  0 0.62696336E+03</rscale>
<asrwt>0</asrwt>
<pdfrwt beam="1">  1        1 0.72016525E-01 0.62696336E+03</pdfrwt>
<pdfrwt beam="2">  1       -1 0.13585164E+00 0.62696336E+03</pdfrwt>
<totfact> 0.22864853E+01</totfact>
</mgrwt>
</event>
<event>
 4    1  0.8749406E-009  0.1410553E+04  0.7818608E-02  0.8946215E-01
         -1   -1    0    0    0  501 -0.00000000000E+00  0.00000000000E+00  0.84171594249E+03  0.84171594251E+03  0.50400000000E-02 0.  1.
          1   -1    0    0  501    0  0.00000000000E+00 -0.00000000000E+00 -0.25267447236E+04  0.25267447236E+04  0.50400000000E-02 0. -1.
    8880022    1    1    2    0    0  0.13595540869E+04  0.34333885048E+03 -0.41483203330E+03  0.14702877781E+04  0.15294330000E+03 0.  0.
    8880022    1    1    2    0    0 -0.13595540869E+04 -0.34333885048E+03 -0.12701967478E+04  0.18981728880E+04  0.15294330000E+03 0.  0.
<mgrwt>
<rscale>  0 0.14105533E+04</rscale>
<asrwt>0</asrwt>
<pdfrwt beam="1">  1        1 0.38872995E+00 0.14105533E+04</pdfrwt>
<pdfrwt beam="2">  1       -1 0.12949476E+00 0.14105533E+04</pdfrwt>
<totfact> 0.63967730E-01</totfact>
</mgrwt>
</event>
<event>
 4    1  0.8749406E-009  0.3728983E+03  0.7818608E-02  0.1053590E+00
         -1   -1    0    0    0  501 -0.00000000000E+00  0.00000000000E+00  0.20721387925E+03  0.20721387931E+03  0.50400000000E-02 0.  1.
          1   -1    0    0  501    0  0.00000000000E+00 -0.00000000000E+00 -0.17892256019E+04  0.17892256020E+04  0.50400000000E-02 0. -1.
    8880022    1    1    2    0    0 -0.10874659520E+03 -0.32223539418E+03 -0.15801321272E+04  0.16235364682E+04  0.15294330000E+03 0.  0.
    8880022    1    1    2    0    0  0.10874659520E+03  0.32223539418E+03 -0.18795954848E+01  0.37290301303E+03  0.15294330000E+03 0.  1.
<mgrwt>
<rscale>  0 0.37289828E+03</rscale>
<asrwt>0</asrwt>
<pdfrwt beam="1">  1        1 0.27526547E+00 0.37289828E+03</pdfrwt>
<pdfrwt beam="2">  1       -1 0.31879059E-01 0.37289828E+03</pdfrwt>
<totfact> 0.41807605E+01</totfact>
</mgrwt>
</event>
<event>
 4    1  0.8749406E-009  0.9626321E+03  0.7818608E-02  0.9350506E-01
         -1   -1    0    0    0  501 -0.00000000000E+00  0.00000000000E+00  0.12660726514E+04  0.12660726514E+04  0.50400000000E-02 0.  1.
          1   -1    0    0  501    0  0.00000000000E+00 -0.00000000000E+00 -0.15868291706E+04  0.15868291706E+04  0.50400000000E-02 0. -1.
    8880022    1    1    2    0    0  0.90387437802E+03 -0.29373456859E+03 -0.12073920545E+04  0.15441684216E+04  0.15294330000E+03 0.  0.
    8880022    1    1    2    0    0 -0.90387437802E+03  0.29373456859E+03  0.88663553530E+03  0.13087334005E+04  0.15294330000E+03 0.  0.
<mgrwt>
<rscale>  0 0.96263209E+03</rscale>
<asrwt>0</asrwt>
<pdfrwt beam="1">  1        1 0.24412757E+00 0.96263209E+03</pdfrwt>
<pdfrwt beam="2">  1       -1 0.19478041E+00 0.96263209E+03</pdfrwt>
<totfact> 0.94488673E-01</totfact>
</mgrwt>
</event>
<event>
 4    1  0.8749406E-009  0.3763502E+03  0.7818608E-02  0.1052291E+00
         -1   -1    0    0    0  501 -0.00000000000E+00  0.00000000000E+00  0.72122896574E+03  0.72122896575E+03  0.50400000000E-02 0.  1.
          1   -1    0    0  501    0  0.00000000000E+00 -0.00000000000E+00 -0.68580401770E+03  0.68580401772E+03  0.50400000000E-02 0. -1.
    8880022    1    1    2    0    0  0.31040276679E+03  0.14797950366E+03  0.61202396645E+03  0.71847950538E+03  0.15294330000E+03 0.  1.
    8880022    1    1    2    0    0 -0.31040276679E+03 -0.14797950366E+03 -0.57659901841E+03  0.68855347809E+03  0.15294330000E+03 0.  0.
<mgrwt>
<rscale>  0 0.37635019E+03</rscale>
<asrwt>0</asrwt>
<pdfrwt beam="1">  1        1 0.10550831E+00 0.37635019E+03</pdfrwt>
<pdfrwt beam="2">  1       -1 0.11095830E+00 0.37635019E+03</pdfrwt>
<totfact> 0.22849987E+01</totfact>
</mgrwt>
</event>
<event>
 4    1  0.8749406E-009  0.7637218E+03  0.7818608E-02  0.9614066E-01
         -1   -1    0    0    0  501 -0.00000000000E+00  0.00000000000E+00  0.87925338450E+03  0.87925338451E+03  0.50400000000E-02 0.  1.
          1   -1    0    0  501    0  0.00000000000E+00 -0.00000000000E+00 -0.76133022918E+03  0.76133022920E+03  0.50400000000E-02 0. -1.
    8880022    1    1    2    0    0 -0.68687895364E+03 -0.29677714186E+03 -0.23528062137E+03  0.79914203537E+03  0.15294330000E+03 0.  0.
    8880022    1    1    2    0    0  0.68687895364E+03  0.29677714186E+03  0.35320377669E+03  0.84144157834E+03  0.15294330000E+03 0.  0.
<mgrwt>
<rscale>  0 0.76372182E+03</rscale>
<asrwt>0</asrwt>
<pdfrwt beam="1">  1        1 0.11712773E+00 0.76372182E+03</pdfrwt>
<pdfrwt beam="2">  1       -1 0.13526975E+00 0.76372182E+03</pdfrwt>
<totfact> 0.11275765E+01</totfact>
</mgrwt>
</event>
<event>
 4    1  0.8749406E-009  0.1324046E+04  0.7818608E-02  0.9010711E-01
         -1   -1    0    0    0  501 -0.00000000000E+00  0.00000000000E+00  0.13539241974E+04  0.13539241974E+04  0.50400000000E-02 0.  1.
          1   -1    0    0  501    0  0.00000000000E+00 -0.00000000000E+00 -0.25324894676E+04  0.25324894677E+04  0.50400000000E-02 0. -1.
    8880022    1    1    2    0    0  0.49219119550E+01 -0.13151738205E+04  0.76917549459E+03  0.15312507952E+04  0.15294330000E+03 0.  0.
    8880022    1    1    2    0    0 -0.49219119550E+01  0.13151738205E+04 -0.19477407648E+04  0.23551628698E+04  0.15294330000E+03 0.  0.
<mgrwt>
<rscale>  0 0.13240461E+04</rscale>
<asrwt>0</asrwt>
<pdfrwt beam="1">  1        1 0.38961376E+00 0.13240461E+04</pdfrwt>
<pdfrwt beam="2">  1       -1 0.20829603E+00 0.13240461E+04</pdfrwt>
<totfact> 0.16432410E-01</totfact>
</mgrwt>
</event>
<event>
 4    1  0.8749406E-009  0.7267843E+03  0.7818608E-02  0.9672493E-01
         -1   -1    0    0    0  501 -0.00000000000E+00  0.00000000000E+00  0.93669551916E+03  0.93669551917E+03  0.50400000000E-02 0.  1.
          1   -1    0    0  501    0  0.00000000000E+00 -0.00000000000E+00 -0.85103789656E+03  0.85103789658E+03  0.50400000000E-02 0. -1.
    8880022    1    1    2    0    0  0.33618827001E+03  0.62594025658E+03  0.56202707252E+03  0.91874362091E+03  0.15294330000E+03 0.  0.
    8880022    1    1    2    0    0 -0.33618827001E+03 -0.62594025658E+03 -0.47636944992E+03  0.86898979484E+03  0.15294330000E+03 0. -1.
<mgrwt>
<rscale>  0 0.72678429E+03</rscale>
<asrwt>0</asrwt>
<pdfrwt beam="1">  1        1 0.13092891E+00 0.72678429E+03</pdfrwt>
<pdfrwt beam="2">  1       -1 0.14410700E+00 0.72678429E+03</pdfrwt>
<totfact> 0.80436424E+00</totfact>
</mgrwt>
</event>
<event>
 4    1  0.8749406E-009  0.6659008E+03  0.7818608E-02  0.9777392E-01
          1   -1    0    0  501    0  0.00000000000E+00  0.00000000000E+00  0.31292516924E+04  0.31292516924E+04  0.50400000000E-02 0. -1.
         -1   -1    0    0    0  501 -0.00000000000E+00 -0.00000000000E+00 -0.49230015289E+03  0.49230015291E+03  0.50400000000E-02 0.  1.
    8880022    1    1    2    0    0 -0.64802107007E+03 -0.10046825002E+02  0.28465836247E+04  0.29234332952E+04  0.15294330000E+03 0.  0.
    8880022    1    1    2    0    0  0.64802107007E+03  0.10046825002E+02 -0.20963208516E+03  0.69811855017E+03  0.15294330000E+03 0.  0.
<mgrwt>
<rscale>  0 0.66590082E+03</rscale>
<asrwt>0</asrwt>
<pdfrwt beam="1">  1        1 0.48142336E+00 0.66590082E+03</pdfrwt>
<pdfrwt beam="2">  1       -1 0.75738482E-01 0.66590082E+03</pdfrwt>
<totfact> 0.92902763E-01</totfact>
</mgrwt>
</event>
<event>
 4    1  0.8749406E-009  0.6882241E+03  0.7818608E-02  0.9737585E-01
          1   -1    0    0  501    0  0.00000000000E+00  0.00000000000E+00  0.29985482581E+04  0.29985482581E+04  0.50400000000E-02 0. -1.
         -1   -1    0    0    0  501 -0.00000000000E+00 -0.00000000000E+00 -0.43178119561E+03  0.43178119564E+03  0.50400000000E-02 0.  1.
    8880022    1    1    2    0    0  0.89193962237E+02 -0.66506030135E+03  0.26492462341E+04  0.27371806716E+04  0.15294330000E+03 0.  0.
    8880022    1    1    2    0    0 -0.89193962237E+02  0.66506030135E+03 -0.82479171623E+02  0.69314878208E+03  0.15294330000E+03 0.  0.
<mgrwt>
<rscale>  0 0.68822411E+03</rscale>
<asrwt>0</asrwt>
<pdfrwt beam="1">  1        1 0.46131510E+00 0.68822411E+03</pdfrwt>
<pdfrwt beam="2">  1       -1 0.66427879E-01 0.68822411E+03</pdfrwt>
<totfact> 0.15020565E+00</totfact>
</mgrwt>
</event>
<event>
 4    1  0.8749406E-009  0.4207543E+03  0.7818608E-02  0.1036821E+00
          1   -1    0    0  501    0  0.00000000000E+00  0.00000000000E+00  0.56962658624E+03  0.56962658626E+03  0.50400000000E-02 0. -1.
         -1   -1    0    0    0  501 -0.00000000000E+00 -0.00000000000E+00 -0.19998863490E+04  0.19998863490E+04  0.50400000000E-02 0.  1.
    8880022    1    1    2    0    0 -0.39196651491E+03  0.21775450879E+01 -0.18958457213E+04  0.19419745474E+04  0.15294330000E+03 0.  0.
    8880022    1    1    2    0    0  0.39196651491E+03 -0.21775450879E+01  0.46558595854E+03  0.62753838792E+03  0.15294330000E+03 0.  0.
<mgrwt>
<rscale>  0 0.42075426E+03</rscale>
<asrwt>0</asrwt>
<pdfrwt beam="1">  1        1 0.87634861E-01 0.42075426E+03</pdfrwt>
<pdfrwt beam="2">  1       -1 0.30767482E+00 0.42075426E+03</pdfrwt>
<totfact> 0.12459793E+00</totfact>
</mgrwt>
</event>
<event>
 4    1  0.8749406E-009  0.1292371E+04  0.7818608E-02  0.9035637E-01
          1   -1    0    0  501    0  0.00000000000E+00  0.00000000000E+00  0.42700248847E+04  0.42700248847E+04  0.50400000000E-02 0. -1.
         -1   -1    0    0    0  501 -0.00000000000E+00 -0.00000000000E+00 -0.64087571845E+03  0.64087571847E+03  0.50400000000E-02 0.  1.
    8880022    1    1    2    0    0 -0.21625514116E+03  0.12649365808E+04  0.33473390200E+04  0.35881612293E+04  0.15294330000E+03 0.  0.
    8880022    1    1    2    0    0  0.21625514116E+03 -0.12649365808E+04  0.28181014624E+03  0.13227393739E+04  0.15294330000E+03 0.  0.
<mgrwt>
<rscale>  0 0.12923709E+04</rscale>
<asrwt>0</asrwt>
<pdfrwt beam="1">  1        1 0.65692690E+00 0.12923709E+04</pdfrwt>
<pdfrwt beam="2">  1       -1 0.98596265E-01 0.12923709E+04</pdfrwt>
<totfact> 0.53813690E-02</totfact>
</mgrwt>
</event>
<event>
 4    1  0.1214776E-008  0.1190556E+04  0.7818608E-02  0.9121163E-01
         -1   -1    0    0    0  501 -0.00000000000E+00  0.00000000000E+00  0.19999348218E+04  0.19999348218E+04  0.50400000000E-02 0.  1.
          1   -1    0    0  501    0  0.00000000000E+00 -0.00000000000E+00 -0.27570848698E+04  0.27570848698E+04  0.50400000000E-02 0. -1.
    8880022    1    1    2    0    0 -0.40845060680E+03 -0.11077906975E+04  0.16715576000E+04  0.20522009139E+04  0.15294330000E+03 0.  0.
    8880022    1    1    2    0    0  0.40845060680E+03  0.11077906975E+04 -0.24287076481E+04  0.27048187778E+04  0.15294330000E+03 0.  0.
<mgrwt>
<rscale>  0 0.11905561E+04</rscale>
<asrwt>0</asrwt>
<pdfrwt beam="1">  1        1 0.42416691E+00 0.11905561E+04</pdfrwt>
<pdfrwt beam="2">  1       -1 0.30768228E+00 0.11905561E+04</pdfrwt>
<totfact> 0.26195542E-02</totfact>
</mgrwt>
</event>
<event>
 4    1  0.8972954E-009  0.1309618E+04  0.7818608E-02  0.9021973E-01
          1   -1    0    0  501    0  0.00000000000E+00  0.00000000000E+00  0.15140486389E+04  0.15140486389E+04  0.50400000000E-02 0. -1.
         -1   -1    0    0    0  501 -0.00000000000E+00 -0.00000000000E+00 -0.21507155263E+04  0.21507155263E+04  0.50400000000E-02 0.  1.
    8880022    1    1    2    0    0 -0.10661536980E+03  0.12962793094E+04  0.94228205195E+03  0.16133796836E+04  0.15294330000E+03 0.  0.
    8880022    1    1    2    0    0  0.10661536980E+03 -0.12962793094E+04 -0.15789489394E+04  0.20513844816E+04  0.15294330000E+03 0.  0.
<mgrwt>
<rscale>  0 0.13096177E+04</rscale>
<asrwt>0</asrwt>
<pdfrwt beam="1">  1        1 0.23293056E+00 0.13096177E+04</pdfrwt>
<pdfrwt beam="2">  1       -1 0.33087931E+00 0.13096177E+04</pdfrwt>
<totfact> 0.12893952E-01</totfact>
</mgrwt>
</event>
<event>
 4    1  0.8749406E-009  0.2739217E+03  0.7818608E-02  0.1099056E+00
         -1   -1    0    0    0  501 -0.00000000000E+00  0.00000000000E+00  0.93135615035E+03  0.93135615036E+03  0.50400000000E-02 0.  1.
          1   -1    0    0  501    0  0.00000000000E+00 -0.00000000000E+00 -0.72533615692E+03  0.72533615694E+03  0.50400000000E-02 0. -1.
    8880022    1    1    2    0    0  0.22549646209E+03  0.28156249194E+02 -0.67798020531E+03  0.73122516409E+03  0.15294330000E+03 0. -1.
    8880022    1    1    2    0    0 -0.22549646209E+03 -0.28156249194E+02  0.88400019874E+03  0.92546714321E+03  0.15294330000E+03 0.  0.
<mgrwt>
<rscale>  0 0.27392167E+03</rscale>
<asrwt>0</asrwt>
<pdfrwt beam="1">  1        1 0.11159018E+00 0.27392167E+03</pdfrwt>
<pdfrwt beam="2">  1       -1 0.14328556E+00 0.27392167E+03</pdfrwt>
<totfact> 0.11587118E+01</totfact>
</mgrwt>
</event>
<event>
 4    1  0.8749406E-009  0.9494939E+03  0.7818608E-02  0.9365742E-01
          1   -1    0    0  501    0  0.00000000000E+00  0.00000000000E+00  0.34523105767E+04  0.34523105767E+04  0.50400000000E-02 0. -1.
         -1   -1    0    0    0  501 -0.00000000000E+00 -0.00000000000E+00 -0.46645970635E+03  0.46645970638E+03  0.50400000000E-02 0.  1.
    8880022    1    1    2    0    0 -0.90958750830E+03  0.22538326457E+03  0.19297333633E+03  0.96890526511E+03  0.15294330000E+03 0.  0.
    8880022    1    1    2    0    0  0.90958750830E+03 -0.22538326457E+03  0.27928775340E+04  0.29498650179E+04  0.15294330000E+03 0.  0.
<mgrwt>
<rscale>  0 0.94949392E+03</rscale>
<asrwt>0</asrwt>
<pdfrwt beam="1">  1        1 0.53112470E+00 0.94949392E+03</pdfrwt>
<pdfrwt beam="2">  1       -1 0.71763033E-01 0.94949392E+03</pdfrwt>
<totfact> 0.55971626E-01</totfact>
</mgrwt>
</event>
<event>
 4    1  0.8749406E-009  0.1196708E+04  0.7818608E-02  0.9115743E-01
         -1   -1    0    0    0  501 -0.00000000000E+00  0.00000000000E+00  0.16634127500E+04  0.16634127500E+04  0.50400000000E-02 0.  1.
          1   -1    0    0  501    0  0.00000000000E+00 -0.00000000000E+00 -0.12253420418E+04  0.12253420418E+04  0.50400000000E-02 0. -1.
    8880022    1    1    2    0    0  0.11636348784E+03  0.11811762248E+04  0.10066949029E+04  0.15638235245E+04  0.15294330000E+03 0.  0.
    8880022    1    1    2    0    0 -0.11636348784E+03 -0.11811762248E+04 -0.56862419470E+03  0.13249312673E+04  0.15294330000E+03 0.  0.
<mgrwt>
<rscale>  0 0.11967077E+04</rscale>
<asrwt>0</asrwt>
<pdfrwt beam="1">  1        1 0.18851416E+00 0.11967077E+04</pdfrwt>
<pdfrwt beam="2">  1       -1 0.25590965E+00 0.11967077E+04</pdfrwt>
<totfact> 0.64146916E-01</totfact>
</mgrwt>
</event>
<event>
 4    1  0.8749406E-009  0.1310427E+04  0.7818608E-02  0.9021337E-01
         -1   -1    0    0    0  501 -0.00000000000E+00  0.00000000000E+00  0.13831574996E+04  0.13831574996E+04  0.50400000000E-02 0.  1.
          1   -1    0    0  501    0  0.00000000000E+00 -0.00000000000E+00 -0.34821790347E+04  0.34821790347E+04  0.50400000000E-02 0. -1.
    8880022    1    1    2    0    0 -0.12621488374E+04 -0.31750093258E+03  0.90188426447E+03  0.15907901840E+04  0.15294330000E+03 0.  0.
    8880022    1    1    2    0    0  0.12621488374E+04  0.31750093258E+03 -0.30009057996E+04  0.32745463504E+04  0.15294330000E+03 0.  0.
<mgrwt>
<rscale>  0 0.13104267E+04</rscale>
<asrwt>0</asrwt>
<pdfrwt beam="1">  1        1 0.53571985E+00 0.13104267E+04</pdfrwt>
<pdfrwt beam="2">  1       -1 0.21279346E+00 0.13104267E+04</pdfrwt>
<totfact> 0.31123825E-02</totfact>
</mgrwt>
</event>
<event>
 4    1  0.8749406E-009  0.1038411E+04  0.7818608E-02  0.9267392E-01
         -1   -1    0    0    0  501 -0.00000000000E+00  0.00000000000E+00  0.60814969519E+03  0.60814969521E+03  0.50400000000E-02 0.  1.
          1   -1    0    0  501    0  0.00000000000E+00 -0.00000000000E+00 -0.31052013334E+04  0.31052013334E+04  0.50400000000E-02 0. -1.
    8880022    1    1    2    0    0 -0.22679696416E+02 -0.10268354523E+04 -0.32442626658E+02  0.10389175096E+04  0.15294330000E+03 0.  0.
    8880022    1    1    2    0    0  0.22679696416E+02  0.10268354523E+04 -0.24646090116E+04  0.26744335190E+04  0.15294330000E+03 0.  0.
<mgrwt>
<rscale>  0 0.10384108E+04</rscale>
<asrwt>0</asrwt>
<pdfrwt beam="1">  1        1 0.47772327E+00 0.10384108E+04</pdfrwt>
<pdfrwt beam="2">  1       -1 0.93561493E-01 0.10384108E+04</pdfrwt>
<totfact> 0.56725799E-01</totfact>
</mgrwt>
</event>
<event>
 4    1  0.8749406E-009  0.3089107E+03  0.7818608E-02  0.1080869E+00
         -1   -1    0    0    0  501 -0.00000000000E+00  0.00000000000E+00  0.70662076352E+03  0.70662076354E+03  0.50400000000E-02 0.  1.
          1   -1    0    0  501    0  0.00000000000E+00 -0.00000000000E+00 -0.94300504253E+03  0.94300504254E+03  0.50400000000E-02 0. -1.
    8880022    1    1    2    0    0 -0.32713793117E+02 -0.26639068356E+03  0.64528016779E+03  0.71541060693E+03  0.15294330000E+03 0.  0.
    8880022    1    1    2    0    0  0.32713793117E+02  0.26639068356E+03 -0.88166444680E+03  0.93421519915E+03  0.15294330000E+03 0. -1.
<mgrwt>
<rscale>  0 0.30891073E+03</rscale>
<asrwt>0</asrwt>
<pdfrwt beam="1">  1        1 0.14507770E+00 0.30891073E+03</pdfrwt>
<pdfrwt beam="2">  1       -1 0.10871089E+00 0.30891073E+03</pdfrwt>
<totfact> 0.14821175E+01</totfact>
</mgrwt>
</event>
<event>
 4    1  0.8749406E-009  0.7101012E+03  0.7818608E-02  0.9700112E-01
          1   -1    0    0  501    0  0.00000000000E+00  0.00000000000E+00  0.19093558917E+04  0.19093558918E+04  0.50400000000E-02 0. -1.
         -1   -1    0    0    0  501 -0.00000000000E+00 -0.00000000000E+00 -0.34120202514E+03  0.34120202518E+03  0.50400000000E-02 0.  1.
    8880022    1    1    2    0    0  0.25376432807E+03 -0.64533385079E+03  0.13190261413E+04  0.14980232734E+04  0.15294330000E+03 0.  0.
    8880022    1    1    2    0    0 -0.25376432807E+03  0.64533385079E+03  0.24912772528E+03  0.75253464352E+03  0.15294330000E+03 0.  0.
<mgrwt>
<rscale>  0 0.71010124E+03</rscale>
<asrwt>0</asrwt>
<pdfrwt beam="1">  1        1 0.29374706E+00 0.71010124E+03</pdfrwt>
<pdfrwt beam="2">  1       -1 0.52492619E-01 0.71010124E+03</pdfrwt>
<totfact> 0.13172263E+01</totfact>
</mgrwt>
</event>
<event>
 4    1  0.8749406E-009  0.6096488E+03  0.7818608E-02  0.9885588E-01
          1   -1    0    0  501    0  0.00000000000E+00  0.00000000000E+00  0.29680874606E+04  0.29680874606E+04  0.50400000000E-02 0. -1.
         -1   -1    0    0    0  501 -0.00000000000E+00 -0.00000000000E+00 -0.26658681790E+03  0.26658681795E+03  0.50400000000E-02 0.  1.
    8880022    1    1    2    0    0 -0.58694633423E+03  0.61432897889E+02  0.17300616277E+03  0.63372137851E+03  0.15294330000E+03 0.  0.
    8880022    1    1    2    0    0  0.58694633423E+03 -0.61432897889E+02  0.25284944799E+04  0.26009529000E+04  0.15294330000E+03 0.  0.
<mgrwt>
<rscale>  0 0.60964879E+03</rscale>
<asrwt>0</asrwt>
<pdfrwt beam="1">  1        1 0.45662885E+00 0.60964879E+03</pdfrwt>
<pdfrwt beam="2">  1       -1 0.41013356E-01 0.60964879E+03</pdfrwt>
<totfact> 0.40407479E+00</totfact>
</mgrwt>
</event>
<event>
 4    1  0.8749406E-009  0.4755051E+03  0.7818608E-02  0.1020378E+00
          1   -1    0    0  501    0  0.00000000000E+00  0.00000000000E+00  0.38570378147E+03  0.38570378150E+03  0.50400000000E-02 0. -1.
         -1   -1    0    0    0  501 -0.00000000000E+00 -0.00000000000E+00 -0.12028006134E+04  0.12028006134E+04  0.50400000000E-02 0.  1.
    8880022    1    1    2    0    0  0.32934917730E+03 -0.30698945663E+03 -0.97721610887E+03  0.10867641803E+04  0.15294330000E+03 0.  0.
    8880022    1    1    2    0    0 -0.32934917730E+03  0.30698945663E+03  0.16011927698E+03  0.50174021460E+03  0.15294330000E+03 0.  0.
<mgrwt>
<rscale>  0 0.47550506E+03</rscale>
<asrwt>0</asrwt>
<pdfrwt beam="1">  1        1 0.59339044E-01 0.47550506E+03</pdfrwt>
<pdfrwt beam="2">  1       -1 0.18504625E+00 0.47550506E+03</pdfrwt>
<totfact> 0.12922622E+01</totfact>
</mgrwt>
</event>
<event>
 4    1  0.8749406E-009  0.5474363E+03  0.7818608E-02  0.1002089E+00
         -1   -1    0    0    0  501 -0.00000000000E+00  0.00000000000E+00  0.41280561863E+03  0.41280561866E+03  0.50400000000E-02 0.  1.
          1   -1    0    0  501    0  0.00000000000E+00 -0.00000000000E+00 -0.14631455733E+04  0.14631455733E+04  0.50400000000E-02 0. -1.
    8880022    1    1    2    0    0 -0.48242597073E+03  0.20871039765E+03  0.14061165165E+03  0.56520627821E+03  0.15294330000E+03 0.  0.
    8880022    1    1    2    0    0  0.48242597073E+03 -0.20871039765E+03 -0.11909516063E+04  0.13107449137E+04  0.15294330000E+03 0.  0.
<mgrwt>
<rscale>  0 0.54743630E+03</rscale>
<asrwt>0</asrwt>
<pdfrwt beam="1">  1        1 0.22509932E+00 0.54743630E+03</pdfrwt>
<pdfrwt beam="2">  1       -1 0.63508557E-01 0.54743630E+03</pdfrwt>
<totfact> 0.18639723E+01</totfact>
</mgrwt>
</event>
<event>
 4    1  0.8749406E-009  0.2512538E+03  0.7818608E-02  0.1112515E+00
          1   -1    0    0  501    0  0.00000000000E+00  0.00000000000E+00  0.17653673135E+04  0.17653673135E+04  0.50400000000E-02 0. -1.
         -1   -1    0    0    0  501 -0.00000000000E+00 -0.00000000000E+00 -0.98132629501E+03  0.98132629503E+03  0.50400000000E-02 0.  1.
    8880022    1    1    2    0    0 -0.40809018976E+02 -0.19511904116E+03 -0.95607180748E+03  0.98853516393E+03  0.15294330000E+03 0.  0.
    8880022    1    1    2    0    0  0.40809018976E+02  0.19511904116E+03  0.17401128260E+04  0.17581584446E+04  0.15294330000E+03 0. -1.
<mgrwt>
<rscale>  0 0.25125379E+03</rscale>
<asrwt>0</asrwt>
<pdfrwt beam="1">  1        1 0.27159497E+00 0.25125379E+03</pdfrwt>
<pdfrwt beam="2">  1       -1 0.15097328E+00 0.25125379E+03</pdfrwt>
<totfact> 0.18417371E+00</totfact>
</mgrwt>
</event>
<event>
 4    1  0.8749406E-009  0.1250461E+04  0.7818608E-02  0.9069800E-01
         -1   -1    0    0    0  501 -0.00000000000E+00  0.00000000000E+00  0.23599796409E+04  0.23599796409E+04  0.50400000000E-02 0.  1.
          1   -1    0    0  501    0  0.00000000000E+00 -0.00000000000E+00 -0.11550612823E+04  0.11550612824E+04  0.50400000000E-02 0. -1.
    8880022    1    1    2    0    0  0.12121594773E+04 -0.26632738595E+03 -0.54515788595E+03  0.13641296304E+04  0.15294330000E+03 0.  0.
    8880022    1    1    2    0    0 -0.12121594773E+04  0.26632738595E+03  0.17500762445E+04  0.21509112928E+04  0.15294330000E+03 0.  0.
<mgrwt>
<rscale>  0 0.12504609E+04</rscale>
<asrwt>0</asrwt>
<pdfrwt beam="1">  1        1 0.17770174E+00 0.12504609E+04</pdfrwt>
<pdfrwt beam="2">  1       -1 0.36307379E+00 0.12504609E+04</pdfrwt>
<totfact> 0.14397149E-01</totfact>
</mgrwt>
</event>
<event>
 4    1  0.8749406E-009  0.1546415E+04  0.7818608E-02  0.8854161E-01
         -1   -1    0    0    0  501 -0.00000000000E+00  0.00000000000E+00  0.16283035931E+04  0.16283035931E+04  0.50400000000E-02 0.  1.
          1   -1    0    0  501    0  0.00000000000E+00 -0.00000000000E+00 -0.22793722225E+04  0.22793722225E+04  0.50400000000E-02 0. -1.
    8880022    1    1    2    0    0 -0.15338188874E+04 -0.12412091169E+03  0.83971430134E+03  0.17596926268E+04  0.15294330000E+03 0.  0.
    8880022    1    1    2    0    0  0.15338188874E+04  0.12412091169E+03 -0.14907829307E+04  0.21479831888E+04  0.15294330000E+03 0.  0.
<mgrwt>
<rscale>  0 0.15464146E+04</rscale>
<asrwt>0</asrwt>
<pdfrwt beam="1">  1        1 0.35067265E+00 0.15464146E+04</pdfrwt>
<pdfrwt beam="2">  1       -1 0.25050825E+00 0.15464146E+04</pdfrwt>
<totfact> 0.12474273E-01</totfact>
</mgrwt>
</event>
<event>
 4    1  0.8749406E-009  0.4203991E+03  0.7818608E-02  0.1036936E+00
         -1   -1    0    0    0  501 -0.00000000000E+00  0.00000000000E+00  0.12625478736E+03  0.12625478747E+03  0.50400000000E-02 0.  1.
          1   -1    0    0  501    0  0.00000000000E+00 -0.00000000000E+00 -0.16516172263E+04  0.16516172263E+04  0.50400000000E-02 0. -1.
    8880022    1    1    2    0    0 -0.40622412089E+01 -0.39157021068E+03 -0.11097628652E+04  0.11867219564E+04  0.15294330000E+03 0.  0.
    8880022    1    1    2    0    0  0.40622412089E+01  0.39157021068E+03 -0.41559957375E+03  0.59115005744E+03  0.15294330000E+03 0.  1.
<mgrwt>
<rscale>  0 0.42039908E+03</rscale>
<asrwt>0</asrwt>
<pdfrwt beam="1">  1        1 0.25409494E+00 0.42039908E+03</pdfrwt>
<pdfrwt beam="2">  1       -1 0.19423815E-01 0.42039908E+03</pdfrwt>
<totfact> 0.11761939E+02</totfact>
</mgrwt>
</event>
<event>
 4    1  0.8749406E-009  0.7380883E+03  0.7818608E-02  0.9654226E-01
          1   -1    0    0  501    0  0.00000000000E+00  0.00000000000E+00  0.10383755470E+04  0.10383755470E+04  0.50400000000E-02 0. -1.
         -1   -1    0    0    0  501 -0.00000000000E+00 -0.00000000000E+00 -0.64980870794E+03  0.64980870796E+03  0.50400000000E-02 0.  1.
    8880022    1    1    2    0    0  0.61338201670E+03  0.38097921016E+03 -0.17617832033E+03  0.75882350422E+03  0.15294330000E+03 0.  0.
    8880022    1    1    2    0    0 -0.61338201670E+03 -0.38097921016E+03  0.56474515942E+03  0.92936075078E+03  0.15294330000E+03 0.  0.
<mgrwt>
<rscale>  0 0.73808828E+03</rscale>
<asrwt>0</asrwt>
<pdfrwt beam="1">  1        1 0.15975008E+00 0.73808828E+03</pdfrwt>
<pdfrwt beam="2">  1       -1 0.99970571E-01 0.73808828E+03</pdfrwt>
<totfact> 0.13917511E+01</totfact>
</mgrwt>
</event>
<event>
 4    1  0.8749406E-009  0.3927657E+03  0.7818608E-02  0.1046314E+00
         -1   -1    0    0    0  501 -0.00000000000E+00  0.00000000000E+00  0.91480653129E+03  0.91480653130E+03  0.50400000000E-02 0.  1.
          1   -1    0    0  501    0  0.00000000000E+00 -0.00000000000E+00 -0.77918814702E+03  0.77918814704E+03  0.50400000000E-02 0. -1.
    8880022    1    1    2    0    0  0.27287083452E+03  0.23751783724E+03  0.81757216187E+03  0.90702211011E+03  0.15294330000E+03 0.  0.
    8880022    1    1    2    0    0 -0.27287083452E+03 -0.23751783724E+03 -0.68195377761E+03  0.78697256823E+03  0.15294330000E+03 0. -1.
<mgrwt>
<rscale>  0 0.39276567E+03</rscale>
<asrwt>0</asrwt>
<pdfrwt beam="1">  1        1 0.11987510E+00 0.39276567E+03</pdfrwt>
<pdfrwt beam="2">  1       -1 0.14073947E+00 0.39276567E+03</pdfrwt>
<totfact> 0.10494614E+01</totfact>
</mgrwt>
</event>
<event>
 4    1  0.8749406E-009  0.1254158E+04  0.7818608E-02  0.9066729E-01
          1   -1    0    0  501    0  0.00000000000E+00  0.00000000000E+00  0.11335027043E+04  0.11335027043E+04  0.50400000000E-02 0. -1.
         -1   -1    0    0    0  501 -0.00000000000E+00 -0.00000000000E+00 -0.32577097306E+04  0.32577097306E+04  0.50400000000E-02 0.  1.
    8880022    1    1    2    0    0  0.17381695777E+03 -0.12326026982E+04  0.60140543359E+03  0.13908996711E+04  0.15294330000E+03 0.  0.
    8880022    1    1    2    0    0 -0.17381695777E+03  0.12326026982E+04 -0.27256124599E+04  0.30003127638E+04  0.15294330000E+03 0.  0.
<mgrwt>
<rscale>  0 0.12541584E+04</rscale>
<asrwt>0</asrwt>
<pdfrwt beam="1">  1        1 0.17438503E+00 0.12541584E+04</pdfrwt>
<pdfrwt beam="2">  1       -1 0.50118611E+00 0.12541584E+04</pdfrwt>
<totfact> 0.17079034E-02</totfact>
</mgrwt>
</event>
<event>
 4    1  0.8749406E-009  0.8404162E+03  0.7818608E-02  0.9503291E-01
          1   -1    0    0  501    0  0.00000000000E+00  0.00000000000E+00  0.97938554016E+03  0.97938554018E+03  0.50400000000E-02 0. -1.
         -1   -1    0    0    0  501 -0.00000000000E+00 -0.00000000000E+00 -0.14538584519E+04  0.14538584519E+04  0.50400000000E-02 0.  1.
    8880022    1    1    2    0    0 -0.50546660086E+02  0.82483501980E+03 -0.11009216959E+04  0.13850371866E+04  0.15294330000E+03 0.  0.
    8880022    1    1    2    0    0  0.50546660086E+02 -0.82483501980E+03  0.62644878421E+03  0.10482068054E+04  0.15294330000E+03 0.  0.
<mgrwt>
<rscale>  0 0.84041622E+03</rscale>
<asrwt>0</asrwt>
<pdfrwt beam="1">  1        1 0.15067470E+00 0.84041622E+03</pdfrwt>
<pdfrwt beam="2">  1       -1 0.22367053E+00 0.84041622E+03</pdfrwt>
<totfact> 0.16822927E+00</totfact>
</mgrwt>
</event>
<event>
 4    1  0.8749406E-009  0.8872026E+03  0.7818608E-02  0.9441722E-01
          1   -1    0    0  501    0  0.00000000000E+00  0.00000000000E+00  0.26732727638E+04  0.26732727638E+04  0.50400000000E-02 0. -1.
         -1   -1    0    0    0  501 -0.00000000000E+00 -0.00000000000E+00 -0.46511213686E+03  0.46511213689E+03  0.50400000000E-02 0.  1.
    8880022    1    1    2    0    0 -0.72856482597E+03 -0.48262838947E+03  0.20546279478E+04  0.22379956490E+04  0.15294330000E+03 0.  0.
    8880022    1    1    2    0    0  0.72856482597E+03  0.48262838947E+03  0.15353267910E+03  0.90038925168E+03  0.15294330000E+03 0.  0.
<mgrwt>
<rscale>  0 0.88720264E+03</rscale>
<asrwt>0</asrwt>
<pdfrwt beam="1">  1        1 0.41127274E+00 0.88720264E+03</pdfrwt>
<pdfrwt beam="2">  1       -1 0.71555712E-01 0.88720264E+03</pdfrwt>
<totfact> 0.21024717E+00</totfact>
</mgrwt>
</event>
<event>
 4    1  0.8749406E-009  0.8089551E+03  0.7818608E-02  0.9547145E-01
         -1   -1    0    0    0  501 -0.00000000000E+00  0.00000000000E+00  0.39431285478E+03  0.39431285482E+03  0.50400000000E-02 0.  1.
          1   -1    0    0  501    0  0.00000000000E+00 -0.00000000000E+00 -0.23272266572E+04  0.23272266572E+04  0.50400000000E-02 0. -1.
    8880022    1    1    2    0    0 -0.75687558983E+03 -0.24115564287E+03 -0.23762633143E+03  0.84313381440E+03  0.15294330000E+03 0.  0.
    8880022    1    1    2    0    0  0.75687558983E+03  0.24115564287E+03 -0.16952874710E+04  0.18784056977E+04  0.15294330000E+03 0.  0.
<mgrwt>
<rscale>  0 0.80895510E+03</rscale>
<asrwt>0</asrwt>
<pdfrwt beam="1">  1        1 0.35803486E+00 0.80895510E+03</pdfrwt>
<pdfrwt beam="2">  1       -1 0.60663518E-01 0.80895510E+03</pdfrwt>
<totfact> 0.51332518E+00</totfact>
</mgrwt>
</event>
<event>
 4    1  0.8749406E-009  0.1487405E+04  0.7818608E-02  0.8892872E-01
          1   -1    0    0  501    0  0.00000000000E+00  0.00000000000E+00  0.23905225915E+04  0.23905225915E+04  0.50400000000E-02 0. -1.
         -1   -1    0    0    0  501 -0.00000000000E+00 -0.00000000000E+00 -0.10332546129E+04  0.10332546129E+04  0.50400000000E-02 0.  1.
    8880022    1    1    2    0    0  0.10808626726E+04  0.10103063585E+04  0.12574844550E+03  0.14927114187E+04  0.15294330000E+03 0.  0.
    8880022    1    1    2    0    0 -0.10808626726E+04 -0.10103063585E+04  0.12315195331E+04  0.19310657857E+04  0.15294330000E+03 0.  0.
<mgrwt>
<rscale>  0 0.14874054E+04</rscale>
<asrwt>0</asrwt>
<pdfrwt beam="1">  1        1 0.36777271E+00 0.14874054E+04</pdfrwt>
<pdfrwt beam="2">  1       -1 0.15896225E+00 0.14874054E+04</pdfrwt>
<totfact> 0.45601445E-01</totfact>
</mgrwt>
</event>
<event>
 4    1  0.8749406E-009  0.9387799E+03  0.7818608E-02  0.9378362E-01
         -1   -1    0    0    0  501 -0.00000000000E+00  0.00000000000E+00  0.39109260767E+03  0.39109260770E+03  0.50400000000E-02 0.  1.
          1   -1    0    0  501    0  0.00000000000E+00 -0.00000000000E+00 -0.26851167453E+04  0.26851167453E+04  0.50400000000E-02 0. -1.
    8880022    1    1    2    0    0 -0.32282584503E+03 -0.86815869450E+03 -0.53030557187E+03  0.10782076320E+04  0.15294330000E+03 0.  0.
    8880022    1    1    2    0    0  0.32282584503E+03  0.86815869450E+03 -0.17637185657E+04  0.19980017210E+04  0.15294330000E+03 0.  0.
<mgrwt>
<rscale>  0 0.93877990E+03</rscale>
<asrwt>0</asrwt>
<pdfrwt beam="1">  1        1 0.41309487E+00 0.93877990E+03</pdfrwt>
<pdfrwt beam="2">  1       -1 0.60168095E-01 0.93877990E+03</pdfrwt>
<totfact> 0.29044431E+00</totfact>
</mgrwt>
</event>
<event>
 4    1  0.8749406E-009  0.5527685E+03  0.7818608E-02  0.1000855E+00
         -1   -1    0    0    0  501 -0.00000000000E+00  0.00000000000E+00  0.54116763770E+03  0.54116763772E+03  0.50400000000E-02 0.  1.
          1   -1    0    0  501    0  0.00000000000E+00 -0.00000000000E+00 -0.13788571333E+04  0.13788571333E+04  0.50400000000E-02 0. -1.
    8880022    1    1    2    0    0  0.29752940478E+03  0.44004279034E+03  0.31887796263E+03  0.63815061867E+03  0.15294330000E+03 0.  0.
    8880022    1    1    2    0    0 -0.29752940478E+03 -0.44004279034E+03 -0.11565674582E+04  0.12818741524E+04  0.15294330000E+03 0.  0.
<mgrwt>
<rscale>  0 0.55276854E+03</rscale>
<asrwt>0</asrwt>
<pdfrwt beam="1">  1        1 0.21213187E+00 0.55276854E+03</pdfrwt>
<pdfrwt beam="2">  1       -1 0.83256560E-01 0.55276854E+03</pdfrwt>
<totfact> 0.12189551E+01</totfact>
</mgrwt>
</event>
<event>
 4    1  0.8749406E-009  0.4652409E+03  0.7818608E-02  0.1023272E+00
          1   -1    0    0  501    0  0.00000000000E+00  0.00000000000E+00  0.91895996650E+03  0.91895996651E+03  0.50400000000E-02 0. -1.
         -1   -1    0    0    0  501 -0.00000000000E+00 -0.00000000000E+00 -0.44558627215E+03  0.44558627218E+03  0.50400000000E-02 0.  1.
    8880022    1    1    2    0    0 -0.33485543676E+03 -0.28448069206E+03 -0.23175204188E+03  0.51976734182E+03  0.15294330000E+03 0.  0.
    8880022    1    1    2    0    0  0.33485543676E+03  0.28448069206E+03  0.70512573623E+03  0.84477889687E+03  0.15294330000E+03 0.  0.
<mgrwt>
<rscale>  0 0.46524088E+03</rscale>
<asrwt>0</asrwt>
<pdfrwt beam="1">  1        1 0.14137846E+00 0.46524088E+03</pdfrwt>
<pdfrwt beam="2">  1       -1 0.68551734E-01 0.46524088E+03</pdfrwt>
<totfact> 0.40215839E+01</totfact>
</mgrwt>
</event>
<event>
 4    1  0.8749406E-009  0.7564046E+03  0.7818608E-02  0.9625356E-01
          1   -1    0    0  501    0  0.00000000000E+00  0.00000000000E+00  0.22441643416E+04  0.22441643416E+04  0.50400000000E-02 0. -1.
         -1   -1    0    0    0  501 -0.00000000000E+00 -0.00000000000E+00 -0.46575981566E+03  0.46575981569E+03  0.50400000000E-02 0.  1.
    8880022    1    1    2    0    0 -0.55002799256E+03 -0.49621115178E+03  0.18007771418E+04  0.19531887434E+04  0.15294330000E+03 0.  0.
    8880022    1    1    2    0    0  0.55002799256E+03  0.49621115178E+03 -0.22372615856E+02  0.75673541394E+03  0.15294330000E+03 0.  1.
<mgrwt>
<rscale>  0 0.75640462E+03</rscale>
<asrwt>0</asrwt>
<pdfrwt beam="1">  1        1 0.34525604E+00 0.75640462E+03</pdfrwt>
<pdfrwt beam="2">  1       -1 0.71655358E-01 0.75640462E+03</pdfrwt>
<totfact> 0.42112041E+00</totfact>
</mgrwt>
</event>
<event>
 4    1  0.8749406E-009  0.6051059E+03  0.7818608E-02  0.9894869E-01
         -1   -1    0    0    0  501 -0.00000000000E+00  0.00000000000E+00  0.46497434987E+03  0.46497434990E+03  0.50400000000E-02 0.  1.
          1   -1    0    0  501    0  0.00000000000E+00 -0.00000000000E+00 -0.17345418377E+04  0.17345418377E+04  0.50400000000E-02 0. -1.
    8880022    1    1    2    0    0 -0.56601925810E+03  0.14961189020E+03  0.17785276012E+03  0.63070181190E+03  0.15294330000E+03 0.  0.
    8880022    1    1    2    0    0  0.56601925810E+03 -0.14961189020E+03 -0.14474202479E+04  0.15688143757E+04  0.15294330000E+03 0.  0.
<mgrwt>
<rscale>  0 0.60510592E+03</rscale>
<asrwt>0</asrwt>
<pdfrwt beam="1">  1        1 0.26685259E+00 0.60510592E+03</pdfrwt>
<pdfrwt beam="2">  1       -1 0.71534517E-01 0.60510592E+03</pdfrwt>
<totfact> 0.95190444E+00</totfact>
</mgrwt>
</event>
<event>
 4    1  0.8749406E-009  0.1778150E+04  0.7818608E-02  0.8718006E-01
          1   -1    0    0  501    0  0.00000000000E+00  0.00000000000E+00  0.13955443730E+04  0.13955443730E+04  0.50400000000E-02 0. -1.
         -1   -1    0    0    0  501 -0.00000000000E+00 -0.00000000000E+00 -0.34280891074E+04  0.34280891074E+04  0.50400000000E-02 0.  1.
    8880022    1    1    2    0    0 -0.13128702546E+04 -0.11894530056E+04 -0.24207114880E+04  0.30036082499E+04  0.15294330000E+03 0.  0.
    8880022    1    1    2    0    0  0.13128702546E+04  0.11894530056E+04  0.38816675360E+03  0.18200252305E+04  0.15294330000E+03 0.  0.
<mgrwt>
<rscale>  0 0.17781503E+04</rscale>
<asrwt>0</asrwt>
<pdfrwt beam="1">  1        1 0.21469914E+00 0.17781503E+04</pdfrwt>
<pdfrwt beam="2">  1       -1 0.52739832E+00 0.17781503E+04</pdfrwt>
<totfact> 0.70292516E-03</totfact>
</mgrwt>
</event>
<event>
 4    1  0.8749406E-009  0.1035019E+04  0.7818608E-02  0.9270949E-01
          1   -1    0    0  501    0  0.00000000000E+00  0.00000000000E+00  0.33056209624E+04  0.33056209624E+04  0.50400000000E-02 0. -1.
         -1   -1    0    0    0  501 -0.00000000000E+00 -0.00000000000E+00 -0.55316111937E+03  0.55316111939E+03  0.50400000000E-02 0.  1.
    8880022    1    1    2    0    0 -0.10210773544E+04  0.72621340843E+02  0.13459147503E+03  0.10437333668E+04  0.15294330000E+03 0.  0.
    8880022    1    1    2    0    0  0.10210773544E+04 -0.72621340843E+02  0.26178683680E+04  0.28150487150E+04  0.15294330000E+03 0.  0.
<mgrwt>
<rscale>  0 0.10350191E+04</rscale>
<asrwt>0</asrwt>
<pdfrwt beam="1">  1        1 0.50855706E+00 0.10350191E+04</pdfrwt>
<pdfrwt beam="2">  1       -1 0.85101713E-01 0.10350191E+04</pdfrwt>
<totfact> 0.49668278E-01</totfact>
</mgrwt>
</event>
<event>
 4    1  0.8749406E-009  0.1357122E+04  0.7818608E-02  0.8985454E-01
         -1   -1    0    0    0  501 -0.00000000000E+00  0.00000000000E+00  0.18027889125E+04  0.18027889125E+04  0.50400000000E-02 0.  1.
          1   -1    0    0  501    0  0.00000000000E+00 -0.00000000000E+00 -0.19490035043E+04  0.19490035043E+04  0.50400000000E-02 0. -1.
    8880022    1    1    2    0    0 -0.10296972631E+04 -0.87069633623E+03 -0.13670952387E+04  0.19263254160E+04  0.15294330000E+03 0.  0.
    8880022    1    1    2    0    0  0.10296972631E+04  0.87069633623E+03  0.12208806470E+04  0.18254670008E+04  0.15294330000E+03 0.  0.
<mgrwt>
<rscale>  0 0.13571220E+04</rscale>
<asrwt>0</asrwt>
<pdfrwt beam="1">  1        1 0.29984669E+00 0.13571220E+04</pdfrwt>
<pdfrwt beam="2">  1       -1 0.27735214E+00 0.13571220E+04</pdfrwt>
<totfact> 0.14364138E-01</totfact>
</mgrwt>
</event>
<event>
 4    1  0.1715205E-008  0.1711847E+04  0.7818608E-02  0.8754636E-01
         -1   -1    0    0    0  501 -0.00000000000E+00  0.00000000000E+00  0.22828800575E+04  0.22828800575E+04  0.50400000000E-02 0.  1.
          1   -1    0    0  501    0  0.00000000000E+00 -0.00000000000E+00 -0.42465876928E+04  0.42465876928E+04  0.50400000000E-02 0. -1.
    8880022    1    1    2    0    0  0.13153413976E+04 -0.10848532253E+04  0.17451699720E+04  0.24445939124E+04  0.15294330000E+03 0.  0.
    8880022    1    1    2    0    0 -0.13153413976E+04  0.10848532253E+04 -0.37088776073E+04  0.40848738379E+04  0.15294330000E+03 0.  0.
<mgrwt>
<rscale>  0 0.17118473E+04</rscale>
<asrwt>0</asrwt>
<pdfrwt beam="1">  1        1 0.65332118E+00 0.17118473E+04</pdfrwt>
<pdfrwt beam="2">  1       -1 0.35121232E+00 0.17118473E+04</pdfrwt>
<totfact> 0.80706507E-04</totfact>
</mgrwt>
</event>
<event>
 4    1  0.8749406E-009  0.5486442E+03  0.7818608E-02  0.1001808E+00
         -1   -1    0    0    0  501 -0.00000000000E+00  0.00000000000E+00  0.21109730031E+04  0.21109730031E+04  0.50400000000E-02 0.  1.
          1   -1    0    0  501    0  0.00000000000E+00 -0.00000000000E+00 -0.69805790940E+03  0.69805790942E+03  0.50400000000E-02 0. -1.
    8880022    1    1    2    0    0  0.38037570651E+03  0.36460000892E+03  0.19593362118E+04  0.20347011791E+04  0.15294330000E+03 0.  0.
    8880022    1    1    2    0    0 -0.38037570651E+03 -0.36460000892E+03 -0.54642111812E+03  0.77432973335E+03  0.15294330000E+03 0.  0.
<mgrwt>
<rscale>  0 0.54864424E+03</rscale>
<asrwt>0</asrwt>
<pdfrwt beam="1">  1        1 0.10739353E+00 0.54864424E+03</pdfrwt>
<pdfrwt beam="2">  1       -1 0.32476507E+00 0.54864424E+03</pdfrwt>
<totfact> 0.69498279E-01</totfact>
</mgrwt>
</event>
<event>
 4    1  0.8749406E-009  0.1737334E+04  0.7818608E-02  0.8740353E-01
          1   -1    0    0  501    0  0.00000000000E+00  0.00000000000E+00  0.32376224354E+04  0.32376224354E+04  0.50400000000E-02 0. -1.
         -1   -1    0    0    0  501 -0.00000000000E+00 -0.00000000000E+00 -0.11465397403E+04  0.11465397403E+04  0.50400000000E-02 0.  1.
    8880022    1    1    2    0    0 -0.17087805056E+04  0.27387249397E+03  0.97896724181E+02  0.17400897623E+04  0.15294330000E+03 0.  0.
    8880022    1    1    2    0    0  0.17087805056E+04 -0.27387249397E+03  0.19931859709E+04  0.26440724134E+04  0.15294330000E+03 0.  0.
<mgrwt>
<rscale>  0 0.17373338E+04</rscale>
<asrwt>0</asrwt>
<pdfrwt beam="1">  1        1 0.49809575E+00 0.17373338E+04</pdfrwt>
<pdfrwt beam="2">  1       -1 0.17639073E+00 0.17373338E+04</pdfrwt>
<totfact> 0.81269665E-02</totfact>
</mgrwt>
</event>
<event>
 4    1  0.8749406E-009  0.1338009E+04  0.7818608E-02  0.8999955E-01
         -1   -1    0    0    0  501 -0.00000000000E+00  0.00000000000E+00  0.13142976899E+04  0.13142976899E+04  0.50400000000E-02 0.  1.
          1   -1    0    0  501    0  0.00000000000E+00 -0.00000000000E+00 -0.16097743944E+04  0.16097743944E+04  0.50400000000E-02 0. -1.
    8880022    1    1    2    0    0  0.29303284048E+03 -0.12965367530E+04 -0.72116039684E+03  0.15199801869E+04  0.15294330000E+03 0.  0.
    8880022    1    1    2    0    0 -0.29303284048E+03  0.12965367530E+04  0.42568369232E+03  0.14040918974E+04  0.15294330000E+03 0.  0.
<mgrwt>
<rscale>  0 0.13380088E+04</rscale>
<asrwt>0</asrwt>
<pdfrwt beam="1">  1        1 0.24765760E+00 0.13380088E+04</pdfrwt>
<pdfrwt beam="2">  1       -1 0.20219964E+00 0.13380088E+04</pdfrwt>
<totfact> 0.76958515E-01</totfact>
</mgrwt>
</event>
<event>
 4    1  0.8749406E-009  0.2110373E+03  0.7818608E-02  0.1140747E+00
          1   -1    0    0  501    0  0.00000000000E+00  0.00000000000E+00  0.10991188780E+04  0.10991188780E+04  0.50400000000E-02 0. -1.
         -1   -1    0    0    0  501 -0.00000000000E+00 -0.00000000000E+00 -0.18761218183E+03  0.18761218190E+03  0.50400000000E-02 0.  1.
    8880022    1    1    2    0    0  0.91002635523E+02 -0.11341793184E+03 -0.11391415379E+03  0.23981908678E+03  0.15294330000E+03 0.  1.
    8880022    1    1    2    0    0 -0.91002635523E+02  0.11341793184E+03  0.10254208499E+04  0.10469119731E+04  0.15294330000E+03 0.  0.
<mgrwt>
<rscale>  0 0.21103734E+03</rscale>
<asrwt>0</asrwt>
<pdfrwt beam="1">  1        1 0.16909521E+00 0.21103734E+03</pdfrwt>
<pdfrwt beam="2">  1       -1 0.28863413E-01 0.21103734E+03</pdfrwt>
<totfact> 0.15110802E+02</totfact>
</mgrwt>
</event>
<event>
 4    1  0.8749406E-009  0.9309129E+03  0.7818608E-02  0.9387743E-01
          1   -1    0    0  501    0  0.00000000000E+00  0.00000000000E+00  0.19551592253E+04  0.19551592253E+04  0.50400000000E-02 0. -1.
         -1   -1    0    0    0  501 -0.00000000000E+00 -0.00000000000E+00 -0.63605281389E+03  0.63605281391E+03  0.50400000000E-02 0.  1.
    8880022    1    1    2    0    0  0.91811964317E+03 -0.16233677874E+02 -0.53788669235E+02  0.93246559477E+03  0.15294330000E+03 0.  0.
    8880022    1    1    2    0    0 -0.91811964317E+03  0.16233677874E+02  0.13728950806E+04  0.16587464444E+04  0.15294330000E+03 0.  0.
<mgrwt>
<rscale>  0 0.93091292E+03</rscale>
<asrwt>0</asrwt>
<pdfrwt beam="1">  1        1 0.30079372E+00 0.93091292E+03</pdfrwt>
<pdfrwt beam="2">  1       -1 0.97854281E-01 0.93091292E+03</pdfrwt>
<totfact> 0.32665167E+00</totfact>
</mgrwt>
</event>
<event>
 4    1  0.8749406E-009  0.9262401E+03  0.7818608E-02  0.9393362E-01
         -1   -1    0    0    0  501 -0.00000000000E+00  0.00000000000E+00  0.99194054444E+03  0.99194054446E+03  0.50400000000E-02 0.  1.
          1   -1    0    0  501    0  0.00000000000E+00 -0.00000000000E+00 -0.10072794706E+04  0.10072794706E+04  0.50400000000E-02 0. -1.
    8880022    1    1    2    0    0  0.63247718527E+03  0.65916734689E+03  0.36816165224E+03  0.99672646011E+03  0.15294330000E+03 0.  0.
    8880022    1    1    2    0    0 -0.63247718527E+03 -0.65916734689E+03 -0.38350057839E+03  0.10024935550E+04  0.15294330000E+03 0.  0.
<mgrwt>
<rscale>  0 0.92624005E+03</rscale>
<asrwt>0</asrwt>
<pdfrwt beam="1">  1        1 0.15496607E+00 0.92624005E+03</pdfrwt>
<pdfrwt beam="2">  1       -1 0.15260624E+00 0.92624005E+03</pdfrwt>
<totfact> 0.50300445E+00</totfact>
</mgrwt>
</event>
<event>
 4    1  0.8749406E-009  0.1532881E+04  0.7818608E-02  0.8862877E-01
          1   -1    0    0  501    0  0.00000000000E+00  0.00000000000E+00  0.47353105475E+04  0.47353105475E+04  0.50400000000E-02 0. -1.
         -1   -1    0    0    0  501 -0.00000000000E+00 -0.00000000000E+00 -0.74550993377E+03  0.74550993379E+03  0.50400000000E-02 0.  1.
    8880022    1    1    2    0    0 -0.13385178802E+04 -0.73123267997E+03  0.41019953720E+03  0.15868165178E+04  0.15294330000E+03 0.  0.
    8880022    1    1    2    0    0  0.13385178802E+04  0.73123267997E+03  0.35796010765E+04  0.38940039635E+04  0.15294330000E+03 0.  0.
<mgrwt>
<rscale>  0 0.15328806E+04</rscale>
<asrwt>0</asrwt>
<pdfrwt beam="1">  1        1 0.72850931E+00 0.15328806E+04</pdfrwt>
<pdfrwt beam="2">  1       -1 0.11469384E+00 0.15328806E+04</pdfrwt>
<totfact> 0.12127428E-02</totfact>
</mgrwt>
</event>
<event>
 4    1  0.8749406E-009  0.4299440E+03  0.7818608E-02  0.1033878E+00
          1   -1    0    0  501    0  0.00000000000E+00  0.00000000000E+00  0.32972605140E+04  0.32972605140E+04  0.50400000000E-02 0. -1.
         -1   -1    0    0    0  501 -0.00000000000E+00 -0.00000000000E+00 -0.39461669497E+03  0.39461669500E+03  0.50400000000E-02 0.  1.
    8880022    1    1    2    0    0  0.33924945650E+03 -0.21533693616E+03  0.31611158952E+04  0.31902202973E+04  0.15294330000E+03 0.  0.
    8880022    1    1    2    0    0 -0.33924945650E+03  0.21533693616E+03 -0.25847207618E+03  0.50165691164E+03  0.15294330000E+03 0.  0.
<mgrwt>
<rscale>  0 0.42994400E+03</rscale>
<asrwt>0</asrwt>
<pdfrwt beam="1">  1        1 0.50727087E+00 0.42994400E+03</pdfrwt>
<pdfrwt beam="2">  1       -1 0.60710258E-01 0.42994400E+03</pdfrwt>
<totfact> 0.11800287E+00</totfact>
</mgrwt>
</event>
<event>
 4    1  0.8749406E-009  0.6118924E+03  0.7818608E-02  0.9881036E-01
         -1   -1    0    0    0  501 -0.00000000000E+00  0.00000000000E+00  0.64273636230E+03  0.64273636232E+03  0.50400000000E-02 0.  1.
          1   -1    0    0  501    0  0.00000000000E+00 -0.00000000000E+00 -0.24964440545E+04  0.24964440545E+04  0.50400000000E-02 0. -1.
    8880022    1    1    2    0    0 -0.22019204301E+03  0.55003287187E+03 -0.23011702497E+04  0.23811335256E+04  0.15294330000E+03 0.  0.
    8880022    1    1    2    0    0  0.22019204301E+03 -0.55003287187E+03  0.44746255745E+03  0.75804689121E+03  0.15294330000E+03 0.  1.
<mgrwt>
<rscale>  0 0.61189243E+03</rscale>
<asrwt>0</asrwt>
<pdfrwt beam="1">  1        1 0.38406831E+00 0.61189243E+03</pdfrwt>
<pdfrwt beam="2">  1       -1 0.98882518E-01 0.61189243E+03</pdfrwt>
<totfact> 0.14670062E+00</totfact>
</mgrwt>
</event>
<event>
 4    1  0.8749406E-009  0.1406356E+04  0.7818608E-02  0.8949231E-01
         -1   -1    0    0    0  501 -0.00000000000E+00  0.00000000000E+00  0.21259423298E+04  0.21259423298E+04  0.50400000000E-02 0.  1.
          1   -1    0    0  501    0  0.00000000000E+00 -0.00000000000E+00 -0.15495368344E+04  0.15495368344E+04  0.50400000000E-02 0. -1.
    8880022    1    1    2    0    0  0.55555473136E+03  0.12828887254E+04 -0.87351205764E+03  0.16555541396E+04  0.15294330000E+03 0.  0.
    8880022    1    1    2    0    0 -0.55555473136E+03 -0.12828887254E+04  0.14499175530E+04  0.20199250246E+04  0.15294330000E+03 0.  0.
<mgrwt>
<rscale>  0 0.14063556E+04</rscale>
<asrwt>0</asrwt>
<pdfrwt beam="1">  1        1 0.23839028E+00 0.14063556E+04</pdfrwt>
<pdfrwt beam="2">  1       -1 0.32706805E+00 0.14063556E+04</pdfrwt>
<totfact> 0.12732827E-01</totfact>
</mgrwt>
</event>
<event>
 4    1  0.8749406E-009  0.5515091E+03  0.7818608E-02  0.1001145E+00
          1   -1    0    0  501    0  0.00000000000E+00  0.00000000000E+00  0.20052146219E+04  0.20052146219E+04  0.50400000000E-02 0. -1.
         -1   -1    0    0    0  501 -0.00000000000E+00 -0.00000000000E+00 -0.25290536160E+03  0.25290536165E+03  0.50400000000E-02 0.  1.
    8880022    1    1    2    0    0 -0.50885922338E+03  0.14775962265E+03  0.16187121886E+03  0.57477348566E+03  0.15294330000E+03 0.  0.
    8880022    1    1    2    0    0  0.50885922338E+03 -0.14775962265E+03  0.15904380414E+04  0.16833464979E+04  0.15294330000E+03 0.  0.
<mgrwt>
<rscale>  0 0.55150908E+03</rscale>
<asrwt>0</asrwt>
<pdfrwt beam="1">  1        1 0.30849455E+00 0.55150908E+03</pdfrwt>
<pdfrwt beam="2">  1       -1 0.38908518E-01 0.55150908E+03</pdfrwt>
<totfact> 0.20369755E+01</totfact>
</mgrwt>
</event>
<event>
 4    1  0.8749406E-009  0.1258918E+04  0.7818608E-02  0.9062793E-01
         -1   -1    0    0    0  501 -0.00000000000E+00  0.00000000000E+00  0.84873836160E+03  0.84873836161E+03  0.50400000000E-02 0.  1.
          1   -1    0    0  501    0  0.00000000000E+00 -0.00000000000E+00 -0.24941180741E+04  0.24941180741E+04  0.50400000000E-02 0. -1.
    8880022    1    1    2    0    0  0.12224118641E+04 -0.25921494080E+03  0.15204964701E+02  0.12590099265E+04  0.15294330000E+03 0.  0.
    8880022    1    1    2    0    0 -0.12224118641E+04  0.25921494080E+03 -0.16605846772E+04  0.20838465093E+04  0.15294330000E+03 0.  0.
<mgrwt>
<rscale>  0 0.12589181E+04</rscale>
<asrwt>0</asrwt>
<pdfrwt beam="1">  1        1 0.38371047E+00 0.12589181E+04</pdfrwt>
<pdfrwt beam="2">  1       -1 0.13057513E+00 0.12589181E+04</pdfrwt>
<totfact> 0.67211114E-01</totfact>
</mgrwt>
</event>
<event>
 4    1  0.8749406E-009  0.1011271E+04  0.7818608E-02  0.9296268E-01
          1   -1    0    0  501    0  0.00000000000E+00  0.00000000000E+00  0.16683501359E+04  0.16683501359E+04  0.50400000000E-02 0. -1.
         -1   -1    0    0    0  501 -0.00000000000E+00 -0.00000000000E+00 -0.91424186563E+03  0.91424186564E+03  0.50400000000E-02 0.  1.
    8880022    1    1    2    0    0 -0.27434220543E+03 -0.96125671721E+03  0.11183052954E+04  0.15077388729E+04  0.15294330000E+03 0.  0.
    8880022    1    1    2    0    0  0.27434220543E+03  0.96125671721E+03 -0.36419702514E+03  0.10748531287E+04  0.15294330000E+03 0.  0.
<mgrwt>
<rscale>  0 0.10112714E+04</rscale>
<asrwt>0</asrwt>
<pdfrwt beam="1">  1        1 0.25666925E+00 0.10112714E+04</pdfrwt>
<pdfrwt beam="2">  1       -1 0.14065260E+00 0.10112714E+04</pdfrwt>
<totfact> 0.20856236E+00</totfact>
</mgrwt>
</event>
<event>
 4    1  0.8749406E-009  0.7638004E+03  0.7818608E-02  0.9613945E-01
          1   -1    0    0  501    0  0.00000000000E+00  0.00000000000E+00  0.23329758767E+04  0.23329758767E+04  0.50400000000E-02 0. -1.
         -1   -1    0    0    0  501 -0.00000000000E+00 -0.00000000000E+00 -0.28861185221E+03  0.28861185225E+03  0.50400000000E-02 0.  1.
    8880022    1    1    2    0    0 -0.74594373702E+03  0.59727471366E+02  0.15012340770E+04  0.16843677854E+04  0.15294330000E+03 0.  0.
    8880022    1    1    2    0    0  0.74594373702E+03 -0.59727471366E+02  0.54312994747E+03  0.93721994350E+03  0.15294330000E+03 0.  0.
<mgrwt>
<rscale>  0 0.76380042E+03</rscale>
<asrwt>0</asrwt>
<pdfrwt beam="1">  1        1 0.35891936E+00 0.76380042E+03</pdfrwt>
<pdfrwt beam="2">  1       -1 0.44401824E-01 0.76380042E+03</pdfrwt>
<totfact> 0.93073207E+00</totfact>
</mgrwt>
</event>
<event>
 4    1  0.8749406E-009  0.2324203E+03  0.7818608E-02  0.1124948E+00
         -1   -1    0    0    0  501 -0.00000000000E+00  0.00000000000E+00  0.93052764307E+02  0.93052764444E+02  0.50400000000E-02 0.  1.
          1   -1    0    0  501    0  0.00000000000E+00 -0.00000000000E+00 -0.13060667891E+04  0.13060667891E+04  0.50400000000E-02 0. -1.
    8880022    1    1    2    0    0 -0.14762129481E+03 -0.93997245317E+02 -0.11279108642E+04  0.11516084836E+04  0.15294330000E+03 0.  0.
    8880022    1    1    2    0    0  0.14762129481E+03  0.93997245317E+02 -0.85103160581E+02  0.24751106998E+03  0.15294330000E+03 0.  0.
<mgrwt>
<rscale>  0 0.23242027E+03</rscale>
<asrwt>0</asrwt>
<pdfrwt beam="1">  1        1 0.20093334E+00 0.23242027E+03</pdfrwt>
<pdfrwt beam="2">  1       -1 0.14315811E-01 0.23242027E+03</pdfrwt>
<totfact> 0.33850021E+02</totfact>
</mgrwt>
</event>
<event>
 4    1  0.8749406E-009  0.4855776E+03  0.7818608E-02  0.1017613E+00
         -1   -1    0    0    0  501 -0.00000000000E+00  0.00000000000E+00  0.23595834975E+03  0.23595834980E+03  0.50400000000E-02 0.  1.
          1   -1    0    0  501    0  0.00000000000E+00 -0.00000000000E+00 -0.11326524547E+04  0.11326524547E+04  0.50400000000E-02 0. -1.
    8880022    1    1    2    0    0 -0.25176131110E+03 -0.38601837551E+03 -0.21351657684E+03  0.53044785380E+03  0.15294330000E+03 0.  1.
    8880022    1    1    2    0    0  0.25176131110E+03  0.38601837551E+03 -0.68317752810E+03  0.83816295069E+03  0.15294330000E+03 0.  0.
<mgrwt>
<rscale>  0 0.48557759E+03</rscale>
<asrwt>0</asrwt>
<pdfrwt beam="1">  1        1 0.17425422E+00 0.48557759E+03</pdfrwt>
<pdfrwt beam="2">  1       -1 0.36301285E-01 0.48557759E+03</pdfrwt>
<totfact> 0.91424799E+01</totfact>
</mgrwt>
</event>
<event>
 4    1  0.8749406E-009  0.9673710E+03  0.7818608E-02  0.9345074E-01
         -1   -1    0    0    0  501 -0.00000000000E+00  0.00000000000E+00  0.87322715174E+03  0.87322715175E+03  0.50400000000E-02 0.  1.
          1   -1    0    0  501    0  0.00000000000E+00 -0.00000000000E+00 -0.15341848131E+04  0.15341848131E+04  0.50400000000E-02 0. -1.
    8880022    1    1    2    0    0  0.59970033845E+03 -0.74348806340E+03 -0.99139583453E+03  0.13851614888E+04  0.15294330000E+03 0.  0.
    8880022    1    1    2    0    0 -0.59970033845E+03  0.74348806340E+03  0.33043817321E+03  0.10222504760E+04  0.15294330000E+03 0.  0.
<mgrwt>
<rscale>  0 0.96737100E+03</rscale>
<asrwt>0</asrwt>
<pdfrwt beam="1">  1        1 0.23602843E+00 0.96737100E+03</pdfrwt>
<pdfrwt beam="2">  1       -1 0.13434264E+00 0.96737100E+03</pdfrwt>
<totfact> 0.29187968E+00</totfact>
</mgrwt>
</event>
<event>
 4    1  0.8749406E-009  0.4726994E+03  0.7818608E-02  0.1021161E+00
          1   -1    0    0  501    0  0.00000000000E+00  0.00000000000E+00  0.18361707106E+04  0.18361707106E+04  0.50400000000E-02 0. -1.
         -1   -1    0    0    0  501 -0.00000000000E+00 -0.00000000000E+00 -0.97045703270E+03  0.97045703272E+03  0.50400000000E-02 0.  1.
    8880022    1    1    2    0    0  0.46271128085E+02  0.44487308176E+03  0.17452403290E+04  0.18081229314E+04  0.15294330000E+03 0. -1.
    8880022    1    1    2    0    0 -0.46271128085E+02 -0.44487308176E+03 -0.87952665115E+03  0.99850481184E+03  0.15294330000E+03 0.  0.
<mgrwt>
<rscale>  0 0.47269941E+03</rscale>
<asrwt>0</asrwt>
<pdfrwt beam="1">  1        1 0.28248780E+00 0.47269941E+03</pdfrwt>
<pdfrwt beam="2">  1       -1 0.14930108E+00 0.47269941E+03</pdfrwt>
<totfact> 0.15400502E+00</totfact>
</mgrwt>
</event>
<event>
 4    1  0.8749406E-009  0.1089371E+04  0.7818608E-02  0.9215614E-01
         -1   -1    0    0    0  501 -0.00000000000E+00  0.00000000000E+00  0.67121164226E+03  0.67121164227E+03  0.50400000000E-02 0.  1.
          1   -1    0    0  501    0  0.00000000000E+00 -0.00000000000E+00 -0.25485631879E+04  0.25485631879E+04  0.50400000000E-02 0. -1.
    8880022    1    1    2    0    0 -0.99767813636E+03 -0.40984875477E+03 -0.18295996299E+04  0.21293576788E+04  0.15294330000E+03 0.  0.
    8880022    1    1    2    0    0  0.99767813636E+03  0.40984875477E+03 -0.47751915763E+02  0.10904171514E+04  0.15294330000E+03 0.  0.
<mgrwt>
<rscale>  0 0.10893711E+04</rscale>
<asrwt>0</asrwt>
<pdfrwt beam="1">  1        1 0.39208664E+00 0.10893711E+04</pdfrwt>
<pdfrwt beam="2">  1       -1 0.10326333E+00 0.10893711E+04</pdfrwt>
<totfact> 0.11155220E+00</totfact>
</mgrwt>
</event>
<event>
 4    1  0.8749406E-009  0.8697372E+03  0.7818608E-02  0.9464223E-01
         -1   -1    0    0    0  501 -0.00000000000E+00  0.00000000000E+00  0.14180513316E+04  0.14180513316E+04  0.50400000000E-02 0.  1.
          1   -1    0    0  501    0  0.00000000000E+00 -0.00000000000E+00 -0.79746815516E+03  0.79746815518E+03  0.50400000000E-02 0. -1.
    8880022    1    1    2    0    0  0.77045488646E+03  0.37343057819E+03 -0.32711344162E+03  0.92921794295E+03  0.15294330000E+03 0.  0.
    8880022    1    1    2    0    0 -0.77045488646E+03 -0.37343057819E+03  0.94769661809E+03  0.12863015439E+04  0.15294330000E+03 0.  0.
<mgrwt>
<rscale>  0 0.86973719E+03</rscale>
<asrwt>0</asrwt>
<pdfrwt beam="1">  1        1 0.12268741E+00 0.86973719E+03</pdfrwt>
<pdfrwt beam="2">  1       -1 0.21816174E+00 0.86973719E+03</pdfrwt>
<totfact> 0.25733049E+00</totfact>
</mgrwt>
</event>
<event>
 4    1  0.8749406E-009  0.5871054E+03  0.7818608E-02  0.9932525E-01
          1   -1    0    0  501    0  0.00000000000E+00  0.00000000000E+00  0.10601329364E+04  0.10601329364E+04  0.50400000000E-02 0. -1.
         -1   -1    0    0    0  501 -0.00000000000E+00 -0.00000000000E+00 -0.46667850234E+03  0.46667850236E+03  0.50400000000E-02 0.  1.
    8880022    1    1    2    0    0 -0.33768652729E+03  0.45526796891E+03  0.71714604147E+03  0.92681778793E+03  0.15294330000E+03 0.  0.
    8880022    1    1    2    0    0  0.33768652729E+03 -0.45526796891E+03 -0.12369160745E+03  0.59999365080E+03  0.15294330000E+03 0.  0.
<mgrwt>
<rscale>  0 0.58710541E+03</rscale>
<asrwt>0</asrwt>
<pdfrwt beam="1">  1        1 0.16309737E+00 0.58710541E+03</pdfrwt>
<pdfrwt beam="2">  1       -1 0.71796693E-01 0.58710541E+03</pdfrwt>
<totfact> 0.27948777E+01</totfact>
</mgrwt>
</event>
<event>
 4    1  0.8749406E-009  0.1074640E+04  0.7818608E-02  0.9230268E-01
          1   -1    0    0  501    0  0.00000000000E+00  0.00000000000E+00  0.15913504900E+04  0.15913504900E+04  0.50400000000E-02 0. -1.
         -1   -1    0    0    0  501 -0.00000000000E+00 -0.00000000000E+00 -0.15342557845E+04  0.15342557845E+04  0.50400000000E-02 0.  1.
    8880022    1    1    2    0    0  0.82860641922E+03 -0.66698682239E+03 -0.11059642163E+04  0.15420792846E+04  0.15294330000E+03 0.  0.
    8880022    1    1    2    0    0 -0.82860641922E+03  0.66698682239E+03  0.11630589218E+04  0.15835269899E+04  0.15294330000E+03 0.  0.
<mgrwt>
<rscale>  0 0.10746403E+04</rscale>
<asrwt>0</asrwt>
<pdfrwt beam="1">  1        1 0.24482315E+00 0.10746403E+04</pdfrwt>
<pdfrwt beam="2">  1       -1 0.23603935E+00 0.10746403E+04</pdfrwt>
<totfact> 0.48637356E-01</totfact>
</mgrwt>
</event>
<event>
 4    1  0.8749406E-009  0.1402806E+04  0.7818608E-02  0.8951790E-01
         -1   -1    0    0    0  501 -0.00000000000E+00  0.00000000000E+00  0.13512820154E+04  0.13512820154E+04  0.50400000000E-02 0.  1.
          1   -1    0    0  501    0  0.00000000000E+00 -0.00000000000E+00 -0.26393990950E+04  0.26393990950E+04  0.50400000000E-02 0. -1.
    8880022    1    1    2    0    0 -0.13907535871E+04  0.10137320077E+03 -0.19799654110E+04  0.24265462591E+04  0.15294330000E+03 0.  0.
    8880022    1    1    2    0    0  0.13907535871E+04 -0.10137320077E+03  0.69184833143E+03  0.15641348512E+04  0.15294330000E+03 0.  0.
<mgrwt>
<rscale>  0 0.14028057E+04</rscale>
<asrwt>0</asrwt>
<pdfrwt beam="1">  1        1 0.40606140E+00 0.14028057E+04</pdfrwt>
<pdfrwt beam="2">  1       -1 0.20788954E+00 0.14028057E+04</pdfrwt>
<totfact> 0.13779700E-01</totfact>
</mgrwt>
</event>
<event>
 4    1  0.8749406E-009  0.4431707E+03  0.7818608E-02  0.1029778E+00
         -1   -1    0    0    0  501 -0.00000000000E+00  0.00000000000E+00  0.11633307618E+04  0.11633307618E+04  0.50400000000E-02 0.  1.
          1   -1    0    0  501    0  0.00000000000E+00 -0.00000000000E+00 -0.41388130066E+03  0.41388130070E+03  0.50400000000E-02 0. -1.
    8880022    1    1    2    0    0  0.37638302213E+03 -0.17704359654E+03 -0.23208760870E+03  0.50026485540E+03  0.15294330000E+03 0.  0.
    8880022    1    1    2    0    0 -0.37638302213E+03  0.17704359654E+03  0.98153706987E+03  0.10769472071E+04  0.15294330000E+03 0.  1.
<mgrwt>
<rscale>  0 0.44317070E+03</rscale>
<asrwt>0</asrwt>
<pdfrwt beam="1">  1        1 0.63674048E-01 0.44317070E+03</pdfrwt>
<pdfrwt beam="2">  1       -1 0.17897396E+00 0.44317070E+03</pdfrwt>
<totfact> 0.13081624E+01</totfact>
</mgrwt>
</event>
<event>
 4    1  0.8749406E-009  0.6748076E+03  0.7818608E-02  0.9761312E-01
          1   -1    0    0  501    0  0.00000000000E+00  0.00000000000E+00  0.49004329473E+03  0.49004329476E+03  0.50400000000E-02 0. -1.
         -1   -1    0    0    0  501 -0.00000000000E+00 -0.00000000000E+00 -0.98373462730E+03  0.98373462731E+03  0.50400000000E-02 0.  1.
    8880022    1    1    2    0    0  0.17962113728E+03 -0.63222618878E+03 -0.42028995762E+03  0.79498994222E+03  0.15294330000E+03 0.  0.
    8880022    1    1    2    0    0 -0.17962113728E+03  0.63222618878E+03 -0.73401374953E+02  0.67878797986E+03  0.15294330000E+03 0.  0.
<mgrwt>
<rscale>  0 0.67480765E+03</rscale>
<asrwt>0</asrwt>
<pdfrwt beam="1">  1        1 0.75391276E-01 0.67480765E+03</pdfrwt>
<pdfrwt beam="2">  1       -1 0.15134379E+00 0.67480765E+03</pdfrwt>
<totfact> 0.16088701E+01</totfact>
</mgrwt>
</event>
<event>
 4    1  0.8749406E-009  0.5302306E+03  0.7818608E-02  0.1006176E+00
          1   -1    0    0  501    0  0.00000000000E+00  0.00000000000E+00  0.11382733970E+04  0.11382733970E+04  0.50400000000E-02 0. -1.
         -1   -1    0    0    0  501 -0.00000000000E+00 -0.00000000000E+00 -0.11800639575E+04  0.11800639576E+04  0.50400000000E-02 0.  1.
    8880022    1    1    2    0    0  0.29599473264E+03 -0.41248021046E+03  0.10098501678E+04  0.11405883658E+04  0.15294330000E+03 0.  0.
    8880022    1    1    2    0    0 -0.29599473264E+03  0.41248021046E+03 -0.10516407284E+04  0.11777489887E+04  0.15294330000E+03 0.  0.
<mgrwt>
<rscale>  0 0.53023057E+03</rscale>
<asrwt>0</asrwt>
<pdfrwt beam="1">  1        1 0.17511898E+00 0.53023057E+03</pdfrwt>
<pdfrwt beam="2">  1       -1 0.18154830E+00 0.53023057E+03</pdfrwt>
<totfact> 0.26292774E+00</totfact>
</mgrwt>
</event>
<event>
 4    1  0.8749406E-009  0.5300143E+03  0.7818608E-02  0.1006229E+00
          1   -1    0    0  501    0  0.00000000000E+00  0.00000000000E+00  0.28122399355E+04  0.28122399355E+04  0.50400000000E-02 0. -1.
         -1   -1    0    0    0  501 -0.00000000000E+00 -0.00000000000E+00 -0.10539815258E+04  0.10539815258E+04  0.50400000000E-02 0.  1.
    8880022    1    1    2    0    0 -0.36048096057E+03 -0.35717916336E+03  0.27183556908E+04  0.27695437878E+04  0.15294330000E+03 0.  0.
    8880022    1    1    2    0    0  0.36048096057E+03  0.35717916336E+03 -0.96009728100E+03  0.10966776736E+04  0.15294330000E+03 0.  0.
<mgrwt>
<rscale>  0 0.53001427E+03</rscale>
<asrwt>0</asrwt>
<pdfrwt beam="1">  1        1 0.43265229E+00 0.53001427E+03</pdfrwt>
<pdfrwt beam="2">  1       -1 0.16215101E+00 0.53001427E+03</pdfrwt>
<totfact> 0.26648970E-01</totfact>
</mgrwt>
</event>
<event>
 4    1  0.8749406E-009  0.1427635E+04  0.7818608E-02  0.8934055E-01
          1   -1    0    0  501    0  0.00000000000E+00  0.00000000000E+00  0.18148805861E+04  0.18148805861E+04  0.50400000000E-02 0. -1.
         -1   -1    0    0    0  501 -0.00000000000E+00 -0.00000000000E+00 -0.15539311063E+04  0.15539311063E+04  0.50400000000E-02 0.  1.
    8880022    1    1    2    0    0 -0.80482792007E+03 -0.11691881066E+04  0.10174807722E+04  0.17531136826E+04  0.15294330000E+03 0.  0.
    8880022    1    1    2    0    0  0.80482792007E+03  0.11691881066E+04 -0.75653129245E+03  0.16156980098E+04  0.15294330000E+03 0.  0.
<mgrwt>
<rscale>  0 0.14276346E+04</rscale>
<asrwt>0</asrwt>
<pdfrwt beam="1">  1        1 0.27921240E+00 0.14276346E+04</pdfrwt>
<pdfrwt beam="2">  1       -1 0.23906632E+00 0.14276346E+04</pdfrwt>
<totfact> 0.31169469E-01</totfact>
</mgrwt>
</event>
<event>
 4    1  0.8749406E-009  0.9442635E+03  0.7818608E-02  0.9371881E-01
         -1   -1    0    0    0  501 -0.00000000000E+00  0.00000000000E+00  0.81598004786E+03  0.81598004787E+03  0.50400000000E-02 0.  1.
          1   -1    0    0  501    0  0.00000000000E+00 -0.00000000000E+00 -0.29355627938E+04  0.29355627938E+04  0.50400000000E-02 0. -1.
    8880022    1    1    2    0    0  0.39758370790E+03 -0.84271536519E+03  0.42641445472E+03  0.10360805624E+04  0.15294330000E+03 0.  0.
    8880022    1    1    2    0    0 -0.39758370790E+03  0.84271536519E+03 -0.25459972007E+04  0.27154622793E+04  0.15294330000E+03 0.  0.
<mgrwt>
<rscale>  0 0.94426355E+03</rscale>
<asrwt>0</asrwt>
<pdfrwt beam="1">  1        1 0.45162504E+00 0.94426355E+03</pdfrwt>
<pdfrwt beam="2">  1       -1 0.12553539E+00 0.94426355E+03</pdfrwt>
<totfact> 0.38242147E-01</totfact>
</mgrwt>
</event>
<event>
 4    1  0.8749406E-009  0.8403560E+03  0.7818608E-02  0.9503373E-01
         -1   -1    0    0    0  501 -0.00000000000E+00  0.00000000000E+00  0.11777966876E+04  0.11777966876E+04  0.50400000000E-02 0.  1.
          1   -1    0    0  501    0  0.00000000000E+00 -0.00000000000E+00 -0.94760142813E+03  0.94760142814E+03  0.50400000000E-02 0. -1.
    8880022    1    1    2    0    0 -0.78789760646E+02  0.82255625970E+03  0.75910749324E+03  0.11324497631E+04  0.15294330000E+03 0.  0.
    8880022    1    1    2    0    0  0.78789760646E+02 -0.82255625970E+03 -0.52891223381E+03  0.99294835256E+03  0.15294330000E+03 0.  0.
<mgrwt>
<rscale>  0 0.84035604E+03</rscale>
<asrwt>0</asrwt>
<pdfrwt beam="1">  1        1 0.14578484E+00 0.84035604E+03</pdfrwt>
<pdfrwt beam="2">  1       -1 0.18119949E+00 0.84035604E+03</pdfrwt>
<totfact> 0.34802721E+00</totfact>
</mgrwt>
</event>
<event>
 4    1  0.8749406E-009  0.2292635E+03  0.7818608E-02  0.1127159E+00
         -1   -1    0    0    0  501 -0.00000000000E+00  0.00000000000E+00  0.15230934622E+03  0.15230934631E+03  0.50400000000E-02 0.  1.
          1   -1    0    0  501    0  0.00000000000E+00 -0.00000000000E+00 -0.31266691735E+04  0.31266691735E+04  0.50400000000E-02 0. -1.
    8880022    1    1    2    0    0 -0.15450817114E+03 -0.72782583912E+02  0.59187383809E+02  0.23678023331E+03  0.15294330000E+03 0.  1.
    8880022    1    1    2    0    0  0.15450817114E+03  0.72782583912E+02 -0.30335472110E+04  0.30421982865E+04  0.15294330000E+03 0.  0.
<mgrwt>
<rscale>  0 0.22926346E+03</rscale>
<asrwt>0</asrwt>
<pdfrwt beam="1">  1        1 0.48102598E+00 0.22926346E+03</pdfrwt>
<pdfrwt beam="2">  1       -1 0.23432209E-01 0.22926346E+03</pdfrwt>
<totfact> 0.94403431E+00</totfact>
</mgrwt>
</event>
<event>
 4    1  0.8749406E-009  0.6848060E+03  0.7818608E-02  0.9743575E-01
          1   -1    0    0  501    0  0.00000000000E+00  0.00000000000E+00  0.11328183648E+04  0.11328183648E+04  0.50400000000E-02 0. -1.
         -1   -1    0    0    0  501 -0.00000000000E+00 -0.00000000000E+00 -0.96237168161E+03  0.96237168163E+03  0.50400000000E-02 0.  1.
    8880022    1    1    2    0    0  0.66649025250E+03 -0.36854851832E+02 -0.70558122929E+03  0.98326194929E+03  0.15294330000E+03 0.  0.
    8880022    1    1    2    0    0 -0.66649025250E+03  0.36854851832E+02  0.87602791247E+03  0.11119280971E+04  0.15294330000E+03 0.  0.
<mgrwt>
<rscale>  0 0.68480595E+03</rscale>
<asrwt>0</asrwt>
<pdfrwt beam="1">  1        1 0.17427975E+00 0.68480595E+03</pdfrwt>
<pdfrwt beam="2">  1       -1 0.14805718E+00 0.68480595E+03</pdfrwt>
<totfact> 0.45447730E+00</totfact>
</mgrwt>
</event>
<event>
 4    1  0.8749406E-009  0.2578852E+03  0.7818608E-02  0.1108421E+00
          1   -1    0    0  501    0  0.00000000000E+00  0.00000000000E+00  0.18226130777E+04  0.18226130777E+04  0.50400000000E-02 0. -1.
         -1   -1    0    0    0  501 -0.00000000000E+00 -0.00000000000E+00 -0.68380344420E+03  0.68380344422E+03  0.50400000000E-02 0.  1.
    8880022    1    1    2    0    0  0.38127532821E+02  0.20410632557E+03 -0.64990862590E+03  0.69920381573E+03  0.15294330000E+03 0.  0.
    8880022    1    1    2    0    0 -0.38127532821E+02 -0.20410632557E+03  0.17887182594E+04  0.18072127062E+04  0.15294330000E+03 0. -1.
<mgrwt>
<rscale>  0 0.25788516E+03</rscale>
<asrwt>0</asrwt>
<pdfrwt beam="1">  1        1 0.28040201E+00 0.25788516E+03</pdfrwt>
<pdfrwt beam="2">  1       -1 0.10520053E+00 0.25788516E+03</pdfrwt>
<totfact> 0.40628022E+00</totfact>
</mgrwt>
</event>
<event>
 4    1  0.8749406E-009  0.9717103E+03  0.7818608E-02  0.9340128E-01
         -1   -1    0    0    0  501 -0.00000000000E+00  0.00000000000E+00  0.16508660608E+04  0.16508660608E+04  0.50400000000E-02 0.  1.
          1   -1    0    0  501    0  0.00000000000E+00 -0.00000000000E+00 -0.74401590319E+03  0.74401590321E+03  0.50400000000E-02 0. -1.
    8880022    1    1    2    0    0  0.37287277276E+03 -0.88419184222E+03 -0.12241806992E+03  0.97939121671E+03  0.15294330000E+03 0.  0.
    8880022    1    1    2    0    0 -0.37287277276E+03  0.88419184222E+03  0.10292682275E+04  0.14154907473E+04  0.15294330000E+03 0.  0.
<mgrwt>
<rscale>  0 0.97171033E+03</rscale>
<asrwt>0</asrwt>
<pdfrwt beam="1">  1        1 0.11446399E+00 0.97171033E+03</pdfrwt>
<pdfrwt beam="2">  1       -1 0.25397939E+00 0.97171033E+03</pdfrwt>
<totfact> 0.16486485E+00</totfact>
</mgrwt>
</event>
<event>
 4    1  0.8749406E-009  0.6342208E+03  0.7818608E-02  0.9836847E-01
          1   -1    0    0  501    0  0.00000000000E+00  0.00000000000E+00  0.23283174049E+04  0.23283174049E+04  0.50400000000E-02 0. -1.
         -1   -1    0    0    0  501 -0.00000000000E+00 -0.00000000000E+00 -0.45224035479E+03  0.45224035482E+03  0.50400000000E-02 0.  1.
    8880022    1    1    2    0    0  0.57382620091E+03  0.22263841741E+03  0.20309733790E+04  0.21276956767E+04  0.15294330000E+03 0.  0.
    8880022    1    1    2    0    0 -0.57382620091E+03 -0.22263841741E+03 -0.15489632881E+03  0.65286208302E+03  0.15294330000E+03 0.  0.
<mgrwt>
<rscale>  0 0.63422080E+03</rscale>
<asrwt>0</asrwt>
<pdfrwt beam="1">  1        1 0.35820268E+00 0.63422080E+03</pdfrwt>
<pdfrwt beam="2">  1       -1 0.69575439E-01 0.63422080E+03</pdfrwt>
<totfact> 0.40235183E+00</totfact>
</mgrwt>
</event>
<event>
 4    1  0.8749406E-009  0.1004562E+04  0.7818608E-02  0.9303555E-01
          1   -1    0    0  501    0  0.00000000000E+00  0.00000000000E+00  0.15489936877E+04  0.15489936877E+04  0.50400000000E-02 0. -1.
         -1   -1    0    0    0  501 -0.00000000000E+00 -0.00000000000E+00 -0.11772206984E+04  0.11772206984E+04  0.50400000000E-02 0.  1.
    8880022    1    1    2    0    0 -0.29095040293E+03 -0.94926378288E+03 -0.72504342620E+03  0.12388839693E+04  0.15294330000E+03 0.  0.
    8880022    1    1    2    0    0  0.29095040293E+03  0.94926378288E+03  0.10968164155E+04  0.14873304168E+04  0.15294330000E+03 0.  0.
<mgrwt>
<rscale>  0 0.10045624E+04</rscale>
<asrwt>0</asrwt>
<pdfrwt beam="1">  1        1 0.23830672E+00 0.10045624E+04</pdfrwt>
<pdfrwt beam="2">  1       -1 0.18111088E+00 0.10045624E+04</pdfrwt>
<totfact> 0.12437530E+00</totfact>
</mgrwt>
</event>
<event>
 4    1  0.8749406E-009  0.6246683E+03  0.7818608E-02  0.9855509E-01
         -1   -1    0    0    0  501 -0.00000000000E+00  0.00000000000E+00  0.49191241284E+03  0.49191241287E+03  0.50400000000E-02 0.  1.
          1   -1    0    0  501    0  0.00000000000E+00 -0.00000000000E+00 -0.13503476640E+04  0.13503476640E+04  0.50400000000E-02 0. -1.
    8880022    1    1    2    0    0 -0.32518577738E+03 -0.51095306295E+03  0.16242990910E+03  0.64544089638E+03  0.15294330000E+03 0.  0.
    8880022    1    1    2    0    0  0.32518577738E+03  0.51095306295E+03 -0.10208651602E+04  0.11968191805E+04  0.15294330000E+03 0.  0.
<mgrwt>
<rscale>  0 0.62466829E+03</rscale>
<asrwt>0</asrwt>
<pdfrwt beam="1">  1        1 0.20774579E+00 0.62466829E+03</pdfrwt>
<pdfrwt beam="2">  1       -1 0.75678833E-01 0.62466829E+03</pdfrwt>
<totfact> 0.15399569E+01</totfact>
</mgrwt>
</event>
<event>
 4    1  0.8749406E-009  0.2218769E+03  0.7818608E-02  0.1132491E+00
          1   -1    0    0  501    0  0.00000000000E+00  0.00000000000E+00  0.15022609993E+03  0.15022610002E+03  0.50400000000E-02 0. -1.
         -1   -1    0    0    0  501 -0.00000000000E+00 -0.00000000000E+00 -0.32776768482E+03  0.32776768486E+03  0.50400000000E-02 0.  1.
    8880022    1    1    2    0    0 -0.58208617464E+02 -0.14983143011E+03 -0.85380663779E+02  0.23773769444E+03  0.15294330000E+03 0. -1.
    8880022    1    1    2    0    0  0.58208617464E+02  0.14983143011E+03 -0.92160921111E+02  0.24025609044E+03  0.15294330000E+03 0.  1.
<mgrwt>
<rscale>  0 0.22187689E+03</rscale>
<asrwt>0</asrwt>
<pdfrwt beam="1">  1        1 0.23111708E-01 0.22187689E+03</pdfrwt>
<pdfrwt beam="2">  1       -1 0.50425798E-01 0.22187689E+03</pdfrwt>
<totfact> 0.85549717E+02</totfact>
</mgrwt>
</event>
<event>
 4    1  0.8749406E-009  0.1479627E+04  0.7818608E-02  0.8898115E-01
          1   -1    0    0  501    0  0.00000000000E+00  0.00000000000E+00  0.18380038731E+04  0.18380038731E+04  0.50400000000E-02 0. -1.
         -1   -1    0    0    0  501 -0.00000000000E+00 -0.00000000000E+00 -0.15697872117E+04  0.15697872117E+04  0.50400000000E-02 0.  1.
    8880022    1    1    2    0    0 -0.11740712811E+04 -0.88738929113E+03 -0.70274202085E+03  0.16380296481E+04  0.15294330000E+03 0.  0.
    8880022    1    1    2    0    0  0.11740712811E+04  0.88738929113E+03  0.97095868226E+03  0.17697614367E+04  0.15294330000E+03 0.  0.
<mgrwt>
<rscale>  0 0.14796266E+04</rscale>
<asrwt>0</asrwt>
<pdfrwt beam="1">  1        1 0.28276983E+00 0.14796266E+04</pdfrwt>
<pdfrwt beam="2">  1       -1 0.24150572E+00 0.14796266E+04</pdfrwt>
<totfact> 0.28789040E-01</totfact>
</mgrwt>
</event>
<event>
 4    1  0.8749406E-009  0.1171045E+04  0.7818608E-02  0.9138585E-01
          1   -1    0    0  501    0  0.00000000000E+00  0.00000000000E+00  0.36589122307E+04  0.36589122307E+04  0.50400000000E-02 0. -1.
         -1   -1    0    0    0  501 -0.00000000000E+00 -0.00000000000E+00 -0.73274578017E+03  0.73274578019E+03  0.50400000000E-02 0.  1.
    8880022    1    1    2    0    0 -0.28573166633E+03 -0.11253057040E+04  0.29978156063E+04  0.32184228396E+04  0.15294330000E+03 0.  0.
    8880022    1    1    2    0    0  0.28573166633E+03  0.11253057040E+04 -0.71649155705E+02  0.11732351713E+04  0.15294330000E+03 0.  0.
<mgrwt>
<rscale>  0 0.11710453E+04</rscale>
<asrwt>0</asrwt>
<pdfrwt beam="1">  1        1 0.56290957E+00 0.11710453E+04</pdfrwt>
<pdfrwt beam="2">  1       -1 0.11273012E+00 0.11710453E+04</pdfrwt>
<totfact> 0.13571500E-01</totfact>
</mgrwt>
</event>
<event>
 4    1  0.8749406E-009  0.1512606E+04  0.7818608E-02  0.8876113E-01
          1   -1    0    0  501    0  0.00000000000E+00  0.00000000000E+00  0.25670220774E+04  0.25670220774E+04  0.50400000000E-02 0. -1.
         -1   -1    0    0    0  501 -0.00000000000E+00 -0.00000000000E+00 -0.15993596032E+04  0.15993596032E+04  0.50400000000E-02 0.  1.
    8880022    1    1    2    0    0  0.73057029797E+03  0.13156189194E+04  0.18699230005E+04  0.24051174155E+04  0.15294330000E+03 0.  0.
    8880022    1    1    2    0    0 -0.73057029797E+03 -0.13156189194E+04 -0.90226052630E+03  0.17612642651E+04  0.15294330000E+03 0.  0.
<mgrwt>
<rscale>  0 0.15126063E+04</rscale>
<asrwt>0</asrwt>
<pdfrwt beam="1">  1        1 0.39492647E+00 0.15126063E+04</pdfrwt>
<pdfrwt beam="2">  1       -1 0.24605532E+00 0.15126063E+04</pdfrwt>
<totfact> 0.84817216E-02</totfact>
</mgrwt>
</event>
<event>
 4    1  0.8749406E-009  0.1824829E+03  0.7818608E-02  0.1165421E+00
          1   -1    0    0  501    0  0.00000000000E+00  0.00000000000E+00  0.23896873346E+04  0.23896873346E+04  0.50400000000E-02 0. -1.
         -1   -1    0    0    0  501 -0.00000000000E+00 -0.00000000000E+00 -0.55663590713E+03  0.55663590716E+03  0.50400000000E-02 0.  1.
    8880022    1    1    2    0    0  0.81000983376E+02 -0.57855026869E+02  0.23711308173E+04  0.23781424199E+04  0.15294330000E+03 0. -1.
    8880022    1    1    2    0    0 -0.81000983376E+02  0.57855026869E+02 -0.53807938990E+03  0.56818082182E+03  0.15294330000E+03 0.  0.
<mgrwt>
<rscale>  0 0.18248292E+03</rscale>
<asrwt>0</asrwt>
<pdfrwt beam="1">  1        1 0.36764421E+00 0.18248292E+03</pdfrwt>
<pdfrwt beam="2">  1       -1 0.85636293E-01 0.18248292E+03</pdfrwt>
<totfact> 0.28832605E+00</totfact>
</mgrwt>
</event>
<event>
 4    1  0.8749406E-009  0.4759258E+03  0.7818608E-02  0.1020261E+00
         -1   -1    0    0    0  501 -0.00000000000E+00  0.00000000000E+00  0.13954864008E+04  0.13954864008E+04  0.50400000000E-02 0.  1.
          1   -1    0    0  501    0  0.00000000000E+00 -0.00000000000E+00 -0.37580778987E+03  0.37580778990E+03  0.50400000000E-02 0. -1.
    8880022    1    1    2    0    0  0.43347312975E+03 -0.12334794228E+03  0.11773706221E+04  0.12699239757E+04  0.15294330000E+03 0.  1.
    8880022    1    1    2    0    0 -0.43347312975E+03  0.12334794228E+03 -0.15769201124E+03  0.50137021501E+03  0.15294330000E+03 0. -1.
<mgrwt>
<rscale>  0 0.47592575E+03</rscale>
<asrwt>0</asrwt>
<pdfrwt beam="1">  1        1 0.57816583E-01 0.47592575E+03</pdfrwt>
<pdfrwt beam="2">  1       -1 0.21469022E+00 0.47592575E+03</pdfrwt>
<totfact> 0.84121899E+00</totfact>
</mgrwt>
</event>
<event>
 4    1  0.8749406E-009  0.5986494E+03  0.7818608E-02  0.9908212E-01
          1   -1    0    0  501    0  0.00000000000E+00  0.00000000000E+00  0.11891206990E+04  0.11891206990E+04  0.50400000000E-02 0. -1.
         -1   -1    0    0    0  501 -0.00000000000E+00 -0.00000000000E+00 -0.94724911528E+03  0.94724911529E+03  0.50400000000E-02 0.  1.
    8880022    1    1    2    0    0  0.92993561391E+02 -0.57126317680E+03 -0.76109855269E+03  0.96832436691E+03  0.15294330000E+03 0.  0.
    8880022    1    1    2    0    0 -0.92993561391E+02  0.57126317680E+03  0.10029701364E+04  0.11680454474E+04  0.15294330000E+03 0.  0.
<mgrwt>
<rscale>  0 0.59864937E+03</rscale>
<asrwt>0</asrwt>
<pdfrwt beam="1">  1        1 0.18294165E+00 0.59864937E+03</pdfrwt>
<pdfrwt beam="2">  1       -1 0.14573063E+00 0.59864937E+03</pdfrwt>
<totfact> 0.43841892E+00</totfact>
</mgrwt>
</event>
<event>
 4    1  0.8749406E-009  0.1342717E+04  0.7818608E-02  0.8996360E-01
          1   -1    0    0  501    0  0.00000000000E+00  0.00000000000E+00  0.25667216218E+04  0.25667216218E+04  0.50400000000E-02 0. -1.
         -1   -1    0    0    0  501 -0.00000000000E+00 -0.00000000000E+00 -0.12862777312E+04  0.12862777312E+04  0.50400000000E-02 0.  1.
    8880022    1    1    2    0    0 -0.51421791469E+02 -0.13329864581E+04 -0.65773150755E+03  0.14951586829E+04  0.15294330000E+03 0.  0.
    8880022    1    1    2    0    0  0.51421791469E+02  0.13329864581E+04  0.19381753982E+04  0.23578406700E+04  0.15294330000E+03 0.  0.
<mgrwt>
<rscale>  0 0.13427169E+04</rscale>
<asrwt>0</asrwt>
<pdfrwt beam="1">  1        1 0.39488025E+00 0.13427169E+04</pdfrwt>
<pdfrwt beam="2">  1       -1 0.19788888E+00 0.13427169E+04</pdfrwt>
<totfact> 0.18297776E-01</totfact>
</mgrwt>
</event>
<event>
 4    1  0.8749406E-009  0.1263684E+04  0.7818608E-02  0.9058871E-01
          1   -1    0    0  501    0  0.00000000000E+00  0.00000000000E+00  0.21215065678E+04  0.21215065678E+04  0.50400000000E-02 0. -1.
         -1   -1    0    0    0  501 -0.00000000000E+00 -0.00000000000E+00 -0.11162400023E+04  0.11162400023E+04  0.50400000000E-02 0.  1.
    8880022    1    1    2    0    0  0.10133401244E+04  0.73935554298E+03  0.14264787493E+04  0.19057119672E+04  0.15294330000E+03 0.  0.
    8880022    1    1    2    0    0 -0.10133401244E+04 -0.73935554298E+03 -0.42121218385E+03  0.13320346029E+04  0.15294330000E+03 0.  0.
<mgrwt>
<rscale>  0 0.12636837E+04</rscale>
<asrwt>0</asrwt>
<pdfrwt beam="1">  1        1 0.32638562E+00 0.12636837E+04</pdfrwt>
<pdfrwt beam="2">  1       -1 0.17172923E+00 0.12636837E+04</pdfrwt>
<totfact> 0.57377286E-01</totfact>
</mgrwt>
</event>
<event>
 4    1  0.8749406E-009  0.8517005E+03  0.7818608E-02  0.9488057E-01
          1   -1    0    0  501    0  0.00000000000E+00  0.00000000000E+00  0.23386525023E+04  0.23386525023E+04  0.50400000000E-02 0. -1.
         -1   -1    0    0    0  501 -0.00000000000E+00 -0.00000000000E+00 -0.47987676121E+03  0.47987676123E+03  0.50400000000E-02 0.  1.
    8880022    1    1    2    0    0  0.19766527562E+03 -0.81420543233E+03  0.17674373986E+04  0.19619451211E+04  0.15294330000E+03 0.  0.
    8880022    1    1    2    0    0 -0.19766527562E+03  0.81420543233E+03  0.91338342464E+02  0.85658414241E+03  0.15294330000E+03 0.  0.
<mgrwt>
<rscale>  0 0.85170048E+03</rscale>
<asrwt>0</asrwt>
<pdfrwt beam="1">  1        1 0.35979269E+00 0.85170048E+03</pdfrwt>
<pdfrwt beam="2">  1       -1 0.73827195E-01 0.85170048E+03</pdfrwt>
<totfact> 0.33621833E+00</totfact>
</mgrwt>
</event>
<event>
 4    1  0.8749406E-009  0.8010343E+03  0.7818608E-02  0.9558521E-01
          1   -1    0    0  501    0  0.00000000000E+00  0.00000000000E+00  0.15780643615E+04  0.15780643615E+04  0.50400000000E-02 0. -1.
         -1   -1    0    0    0  501 -0.00000000000E+00 -0.00000000000E+00 -0.79410474955E+03  0.79410474956E+03  0.50400000000E-02 0.  1.
    8880022    1    1    2    0    0 -0.41552829956E+03 -0.66753315602E+03 -0.43655346834E+03  0.91226907536E+03  0.15294330000E+03 0.  0.
    8880022    1    1    2    0    0  0.41552829956E+03  0.66753315602E+03  0.12205130803E+04  0.14599000357E+04  0.15294330000E+03 0.  0.
<mgrwt>
<rscale>  0 0.80103429E+03</rscale>
<asrwt>0</asrwt>
<pdfrwt beam="1">  1        1 0.24277913E+00 0.80103429E+03</pdfrwt>
<pdfrwt beam="2">  1       -1 0.12216996E+00 0.80103429E+03</pdfrwt>
<totfact> 0.35446778E+00</totfact>
</mgrwt>
</event>
<event>
 4    1  0.8749406E-009  0.1686677E+04  0.7818608E-02  0.8769000E-01
          1   -1    0    0  501    0  0.00000000000E+00  0.00000000000E+00  0.23453419169E+04  0.23453419169E+04  0.50400000000E-02 0. -1.
         -1   -1    0    0    0  501 -0.00000000000E+00 -0.00000000000E+00 -0.13234547762E+04  0.13234547762E+04  0.50400000000E-02 0.  1.
    8880022    1    1    2    0    0  0.46839373494E+03 -0.16131010987E+04  0.10409099484E+04  0.19820123661E+04  0.15294330000E+03 0.  0.
    8880022    1    1    2    0    0 -0.46839373494E+03  0.16131010987E+04 -0.19022807596E+02  0.16867843270E+04  0.15294330000E+03 0.  0.
<mgrwt>
<rscale>  0 0.16866771E+04</rscale>
<asrwt>0</asrwt>
<pdfrwt beam="1">  1        1 0.36082183E+00 0.16866771E+04</pdfrwt>
<pdfrwt beam="2">  1       -1 0.20360843E+00 0.16866771E+04</pdfrwt>
<totfact> 0.22789431E-01</totfact>
</mgrwt>
</event>
<event>
 4    1  0.8749406E-009  0.9706577E+03  0.7818608E-02  0.9341326E-01
          1   -1    0    0  501    0  0.00000000000E+00  0.00000000000E+00  0.79501165519E+03  0.79501165520E+03  0.50400000000E-02 0. -1.
         -1   -1    0    0    0  501 -0.00000000000E+00 -0.00000000000E+00 -0.20757782797E+04  0.20757782797E+04  0.50400000000E-02 0.  1.
    8880022    1    1    2    0    0 -0.29635206242E+03  0.91157021210E+03  0.29985701241E+03  0.10159186372E+04  0.15294330000E+03 0.  0.
    8880022    1    1    2    0    0  0.29635206242E+03 -0.91157021210E+03 -0.15806236369E+04  0.18548712977E+04  0.15294330000E+03 0.  0.
<mgrwt>
<rscale>  0 0.97065774E+03</rscale>
<asrwt>0</asrwt>
<pdfrwt beam="1">  1        1 0.12230949E+00 0.97065774E+03</pdfrwt>
<pdfrwt beam="2">  1       -1 0.31935050E+00 0.97065774E+03</pdfrwt>
<totfact> 0.56360075E-01</totfact>
</mgrwt>
</event>
<event>
 4    1  0.8749406E-009  0.5056976E+03  0.7818608E-02  0.1012302E+00
         -1   -1    0    0    0  501 -0.00000000000E+00  0.00000000000E+00  0.27073909627E+03  0.27073909632E+03  0.50400000000E-02 0.  1.
          1   -1    0    0  501    0  0.00000000000E+00 -0.00000000000E+00 -0.18885979027E+04  0.18885979027E+04  0.50400000000E-02 0. -1.
    8880022    1    1    2    0    0 -0.48131851747E+03  0.25902094141E+02 -0.15722636440E+04  0.16515880398E+04  0.15294330000E+03 0.  0.
    8880022    1    1    2    0    0  0.48131851747E+03 -0.25902094141E+02 -0.45595162359E+02  0.50774895922E+03  0.15294330000E+03 0.  0.
<mgrwt>
<rscale>  0 0.50569762E+03</rscale>
<asrwt>0</asrwt>
<pdfrwt beam="1">  1        1 0.29055352E+00 0.50569762E+03</pdfrwt>
<pdfrwt beam="2">  1       -1 0.41652170E-01 0.50569762E+03</pdfrwt>
<totfact> 0.21709753E+01</totfact>
</mgrwt>
</event>
<event>
 4    1  0.8749406E-009  0.7428790E+03  0.7818608E-02  0.9646589E-01
         -1   -1    0    0    0  501 -0.00000000000E+00  0.00000000000E+00  0.73681716688E+03  0.73681716689E+03  0.50400000000E-02 0.  1.
          1   -1    0    0  501    0  0.00000000000E+00 -0.00000000000E+00 -0.21711203969E+04  0.21711203969E+04  0.50400000000E-02 0. -1.
    8880022    1    1    2    0    0 -0.57612510474E+03  0.44334790135E+03  0.45959441622E+03  0.87355376387E+03  0.15294330000E+03 0.  0.
    8880022    1    1    2    0    0  0.57612510474E+03 -0.44334790135E+03 -0.18938976462E+04  0.20343837999E+04  0.15294330000E+03 0.  0.
<mgrwt>
<rscale>  0 0.74287896E+03</rscale>
<asrwt>0</asrwt>
<pdfrwt beam="1">  1        1 0.33401852E+00 0.74287896E+03</pdfrwt>
<pdfrwt beam="2">  1       -1 0.11335649E+00 0.74287896E+03</pdfrwt>
<totfact> 0.17167830E+00</totfact>
</mgrwt>
</event>
<event>
 4    1  0.8749406E-009  0.1249926E+04  0.7818608E-02  0.9070245E-01
          1   -1    0    0  501    0  0.00000000000E+00  0.00000000000E+00  0.21631205886E+04  0.21631205886E+04  0.50400000000E-02 0. -1.
         -1   -1    0    0    0  501 -0.00000000000E+00 -0.00000000000E+00 -0.13149399460E+04  0.13149399460E+04  0.50400000000E-02 0.  1.
    8880022    1    1    2    0    0 -0.29574338493E+03  0.12047652164E+04  0.15916195478E+04  0.20237509269E+04  0.15294330000E+03 0.  0.
    8880022    1    1    2    0    0  0.29574338493E+03 -0.12047652164E+04 -0.74343890515E+03  0.14543096077E+04  0.15294330000E+03 0.  0.
<mgrwt>
<rscale>  0 0.12499260E+04</rscale>
<asrwt>0</asrwt>
<pdfrwt beam="1">  1        1 0.33278778E+00 0.12499260E+04</pdfrwt>
<pdfrwt beam="2">  1       -1 0.20229845E+00 0.12499260E+04</pdfrwt>
<totfact> 0.32683579E-01</totfact>
</mgrwt>
</event>
<event>
 4    1  0.8749406E-009  0.7034477E+03  0.7818608E-02  0.9711354E-01
         -1   -1    0    0    0  501 -0.00000000000E+00  0.00000000000E+00  0.72078668909E+03  0.72078668911E+03  0.50400000000E-02 0.  1.
          1   -1    0    0  501    0  0.00000000000E+00 -0.00000000000E+00 -0.88981617536E+03  0.88981617537E+03  0.50400000000E-02 0. -1.
    8880022    1    1    2    0    0  0.28470718091E+03  0.62481099063E+03  0.30040200671E+03  0.76490520427E+03  0.15294330000E+03 0.  0.
    8880022    1    1    2    0    0 -0.28470718091E+03 -0.62481099063E+03 -0.46943149297E+03  0.84569766021E+03  0.15294330000E+03 0.  0.
<mgrwt>
<rscale>  0 0.70344766E+03</rscale>
<asrwt>0</asrwt>
<pdfrwt beam="1">  1        1 0.13689480E+00 0.70344766E+03</pdfrwt>
<pdfrwt beam="2">  1       -1 0.11089026E+00 0.70344766E+03</pdfrwt>
<totfact> 0.14392091E+01</totfact>
</mgrwt>
</event>
<event>
 4    1  0.8749406E-009  0.1577962E+04  0.7818608E-02  0.8834202E-01
          1   -1    0    0  501    0  0.00000000000E+00  0.00000000000E+00  0.14824172433E+04  0.14824172433E+04  0.50400000000E-02 0. -1.
         -1   -1    0    0    0  501 -0.00000000000E+00 -0.00000000000E+00 -0.21555423669E+04  0.21555423669E+04  0.50400000000E-02 0.  1.
    8880022    1    1    2    0    0 -0.15453703260E+04 -0.28000551107E+03 -0.11912300324E+04  0.19771173900E+04  0.15294330000E+03 0.  0.
    8880022    1    1    2    0    0  0.15453703260E+04  0.28000551107E+03  0.51810490886E+03  0.16608422202E+04  0.15294330000E+03 0.  0.
<mgrwt>
<rscale>  0 0.15779620E+04</rscale>
<asrwt>0</asrwt>
<pdfrwt beam="1">  1        1 0.22806419E+00 0.15779620E+04</pdfrwt>
<pdfrwt beam="2">  1       -1 0.33162190E+00 0.15779620E+04</pdfrwt>
<totfact> 0.12957951E-01</totfact>
</mgrwt>
</event>
<event>
 4    1  0.8749406E-009  0.9047072E+03  0.7818608E-02  0.9419716E-01
          1   -1    0    0  501    0  0.00000000000E+00  0.00000000000E+00  0.17946224793E+04  0.17946224793E+04  0.50400000000E-02 0. -1.
         -1   -1    0    0    0  501 -0.00000000000E+00 -0.00000000000E+00 -0.10581487487E+04  0.10581487487E+04  0.50400000000E-02 0.  1.
    8880022    1    1    2    0    0 -0.82186160400E+03 -0.34590023435E+03 -0.70769776846E+03  0.11486214576E+04  0.15294330000E+03 0.  0.
    8880022    1    1    2    0    0  0.82186160400E+03  0.34590023435E+03  0.14441714991E+04  0.17041497704E+04  0.15294330000E+03 0.  0.
<mgrwt>
<rscale>  0 0.90470720E+03</rscale>
<asrwt>0</asrwt>
<pdfrwt beam="1">  1        1 0.27609576E+00 0.90470720E+03</pdfrwt>
<pdfrwt beam="2">  1       -1 0.16279212E+00 0.90470720E+03</pdfrwt>
<totfact> 0.11715956E+00</totfact>
</mgrwt>
</event>
<event>
 4    1  0.8749406E-009  0.6881436E+03  0.7818608E-02  0.9737726E-01
         -1   -1    0    0    0  501 -0.00000000000E+00  0.00000000000E+00  0.48023729654E+03  0.48023729657E+03  0.50400000000E-02 0.  1.
          1   -1    0    0  501    0  0.00000000000E+00 -0.00000000000E+00 -0.22767999755E+04  0.22767999755E+04  0.50400000000E-02 0. -1.
    8880022    1    1    2    0    0  0.22315030972E+03 -0.63273525014E+03  0.13965327524E+03  0.70217138064E+03  0.15294330000E+03 0.  0.
    8880022    1    1    2    0    0 -0.22315030972E+03  0.63273525014E+03 -0.19362159542E+04  0.20548658915E+04  0.15294330000E+03 0.  0.
<mgrwt>
<rscale>  0 0.68814360E+03</rscale>
<asrwt>0</asrwt>
<pdfrwt beam="1">  1        1 0.35027691E+00 0.68814360E+03</pdfrwt>
<pdfrwt beam="2">  1       -1 0.73882662E-01 0.68814360E+03</pdfrwt>
<totfact> 0.38078111E+00</totfact>
</mgrwt>
</event>
<event>
 4    1  0.8749406E-009  0.8200463E+03  0.7818608E-02  0.9531446E-01
         -1   -1    0    0    0  501 -0.00000000000E+00  0.00000000000E+00  0.96110919428E+03  0.96110919429E+03  0.50400000000E-02 0.  1.
          1   -1    0    0  501    0  0.00000000000E+00 -0.00000000000E+00 -0.10855876049E+04  0.10855876049E+04  0.50400000000E-02 0. -1.
    8880022    1    1    2    0    0 -0.71362837507E+03 -0.37392364421E+03 -0.67237791034E+03  0.10604565322E+04  0.15294330000E+03 0. -1.
    8880022    1    1    2    0    0  0.71362837507E+03  0.37392364421E+03  0.54789949972E+03  0.98624026698E+03  0.15294330000E+03 0.  0.
<mgrwt>
<rscale>  0 0.82004634E+03</rscale>
<asrwt>0</asrwt>
<pdfrwt beam="1">  1        1 0.16701348E+00 0.82004634E+03</pdfrwt>
<pdfrwt beam="2">  1       -1 0.14786295E+00 0.82004634E+03</pdfrwt>
<totfact> 0.48394447E+00</totfact>
</mgrwt>
</event>
<event>
 4    1  0.8749406E-009  0.4694171E+03  0.7818608E-02  0.1022085E+00
          1   -1    0    0  501    0  0.00000000000E+00  0.00000000000E+00  0.30125692286E+03  0.30125692290E+03  0.50400000000E-02 0. -1.
         -1   -1    0    0    0  501 -0.00000000000E+00 -0.00000000000E+00 -0.77620673718E+03  0.77620673720E+03  0.50400000000E-02 0.  1.
    8880022    1    1    2    0    0  0.14519468822E+03  0.41937959635E+03 -0.10810149719E+03  0.48170357070E+03  0.15294330000E+03 0.  0.
    8880022    1    1    2    0    0 -0.14519468822E+03 -0.41937959635E+03 -0.36684831713E+03  0.59576008940E+03  0.15294330000E+03 0.  0.
<mgrwt>
<rscale>  0 0.46941708E+03</rscale>
<asrwt>0</asrwt>
<pdfrwt beam="1">  1        1 0.46347219E-01 0.46941708E+03</pdfrwt>
<pdfrwt beam="2">  1       -1 0.11941642E+00 0.46941708E+03</pdfrwt>
<totfact> 0.57184149E+01</totfact>
</mgrwt>
</event>
<event>
 4    1  0.8749406E-009  0.9429250E+03  0.7818608E-02  0.9373459E-01
          1   -1    0    0  501    0  0.00000000000E+00  0.00000000000E+00  0.18748575876E+04  0.18748575876E+04  0.50400000000E-02 0. -1.
         -1   -1    0    0    0  501 -0.00000000000E+00 -0.00000000000E+00 -0.87786664386E+03  0.87786664387E+03  0.50400000000E-02 0.  1.
    8880022    1    1    2    0    0  0.22986369601E+03  0.90159775725E+03  0.14317831159E+04  0.17143833815E+04  0.15294330000E+03 0.  0.
    8880022    1    1    2    0    0 -0.22986369601E+03 -0.90159775725E+03 -0.43479217224E+03  0.10383408499E+04  0.15294330000E+03 0.  0.
<mgrwt>
<rscale>  0 0.94292496E+03</rscale>
<asrwt>0</asrwt>
<pdfrwt beam="1">  1        1 0.28843963E+00 0.94292496E+03</pdfrwt>
<pdfrwt beam="2">  1       -1 0.13505641E+00 0.94292496E+03</pdfrwt>
<totfact> 0.16976726E+00</totfact>
</mgrwt>
</event>
<event>
 4    1  0.8749406E-009  0.3310730E+03  0.7818608E-02  0.1070663E+00
          1   -1    0    0  501    0  0.00000000000E+00  0.00000000000E+00  0.21931193080E+04  0.21931193080E+04  0.50400000000E-02 0. -1.
         -1   -1    0    0    0  501 -0.00000000000E+00 -0.00000000000E+00 -0.10173702234E+04  0.10173702234E+04  0.50400000000E-02 0.  1.
    8880022    1    1    2    0    0  0.24692430110E+03 -0.15889008264E+03  0.21531936365E+04  0.21784976837E+04  0.15294330000E+03 0.  0.
    8880022    1    1    2    0    0 -0.24692430110E+03  0.15889008264E+03 -0.97744455180E+03  0.10319918477E+04  0.15294330000E+03 0.  0.
<mgrwt>
<rscale>  0 0.33107299E+03</rscale>
<asrwt>0</asrwt>
<pdfrwt beam="1">  1        1 0.33740297E+00 0.33107299E+03</pdfrwt>
<pdfrwt beam="2">  1       -1 0.15651850E+00 0.33107299E+03</pdfrwt>
<totfact> 0.83960970E-01</totfact>
</mgrwt>
</event>
<event>
 4    1  0.8749406E-009  0.4319062E+03  0.7818608E-02  0.1033260E+00
          1   -1    0    0  501    0  0.00000000000E+00  0.00000000000E+00  0.11671433822E+04  0.11671433822E+04  0.50400000000E-02 0. -1.
         -1   -1    0    0    0  501 -0.00000000000E+00 -0.00000000000E+00 -0.12174485281E+04  0.12174485281E+04  0.50400000000E-02 0.  1.
    8880022    1    1    2    0    0  0.31808383758E+03  0.24894569293E+03 -0.11364327583E+04  0.12157394264E+04  0.15294330000E+03 0.  1.
    8880022    1    1    2    0    0 -0.31808383758E+03 -0.24894569293E+03  0.10861276124E+04  0.11688524839E+04  0.15294330000E+03 0.  0.
<mgrwt>
<rscale>  0 0.43190617E+03</rscale>
<asrwt>0</asrwt>
<pdfrwt beam="1">  1        1 0.17956052E+00 0.43190617E+03</pdfrwt>
<pdfrwt beam="2">  1       -1 0.18729977E+00 0.43190617E+03</pdfrwt>
<totfact> 0.23496664E+00</totfact>
</mgrwt>
</event>
<event>
 4    1  0.8749406E-009  0.1376565E+04  0.7818608E-02  0.8970959E-01
          1   -1    0    0  501    0  0.00000000000E+00  0.00000000000E+00  0.12668922162E+04  0.12668922162E+04  0.50400000000E-02 0. -1.
         -1   -1    0    0    0  501 -0.00000000000E+00 -0.00000000000E+00 -0.15196196326E+04  0.15196196326E+04  0.50400000000E-02 0.  1.
    8880022    1    1    2    0    0 -0.13063864927E+03  0.13617900795E+04 -0.30104904428E+03  0.14090993071E+04  0.15294330000E+03 0.  0.
    8880022    1    1    2    0    0  0.13063864927E+03 -0.13617900795E+04  0.48321627888E+02  0.13774125417E+04  0.15294330000E+03 0.  0.
<mgrwt>
<rscale>  0 0.13765647E+04</rscale>
<asrwt>0</asrwt>
<pdfrwt beam="1">  1        1 0.19490649E+00 0.13765647E+04</pdfrwt>
<pdfrwt beam="2">  1       -1 0.23378764E+00 0.13765647E+04</pdfrwt>
<totfact> 0.81774195E-01</totfact>
</mgrwt>
</event>
<event>
 4    1  0.8749406E-009  0.1474325E+04  0.7818608E-02  0.8901708E-01
         -1   -1    0    0    0  501 -0.00000000000E+00  0.00000000000E+00  0.17375315274E+04  0.17375315274E+04  0.50400000000E-02 0.  1.
          1   -1    0    0  501    0  0.00000000000E+00 -0.00000000000E+00 -0.26208374973E+04  0.26208374973E+04  0.50400000000E-02 0. -1.
    8880022    1    1    2    0    0 -0.96566671375E+03 -0.11035087854E+04  0.11338164513E+04  0.18598858136E+04  0.15294330000E+03 0.  0.
    8880022    1    1    2    0    0  0.96566671375E+03  0.11035087854E+04 -0.20171224211E+04  0.24984832111E+04  0.15294330000E+03 0.  0.
<mgrwt>
<rscale>  0 0.14743254E+04</rscale>
<asrwt>0</asrwt>
<pdfrwt beam="1">  1        1 0.40320577E+00 0.14743254E+04</pdfrwt>
<pdfrwt beam="2">  1       -1 0.26731254E+00 0.14743254E+04</pdfrwt>
<totfact> 0.56832788E-02</totfact>
</mgrwt>
</event>
<event>
 4    1  0.8749406E-009  0.5054212E+03  0.7818608E-02  0.1012374E+00
          1   -1    0    0  501    0  0.00000000000E+00  0.00000000000E+00  0.17217283423E+04  0.17217283423E+04  0.50400000000E-02 0. -1.
         -1   -1    0    0    0  501 -0.00000000000E+00 -0.00000000000E+00 -0.99089400203E+03  0.99089400204E+03  0.50400000000E-02 0.  1.
    8880022    1    1    2    0    0  0.41516988602E+03  0.24432138657E+03  0.16160712687E+04  0.16932622280E+04  0.15294330000E+03 0.  0.
    8880022    1    1    2    0    0 -0.41516988602E+03 -0.24432138657E+03 -0.88523692847E+03  0.10193601163E+04  0.15294330000E+03 0.  1.
<mgrwt>
<rscale>  0 0.50542124E+03</rscale>
<asrwt>0</asrwt>
<pdfrwt beam="1">  1        1 0.26488128E+00 0.50542124E+03</pdfrwt>
<pdfrwt beam="2">  1       -1 0.15244523E+00 0.50542124E+03</pdfrwt>
<totfact> 0.17167155E+00</totfact>
</mgrwt>
</event>
<event>
 4    1  0.8749406E-009  0.4486274E+03  0.7818608E-02  0.1028132E+00
          1   -1    0    0  501    0  0.00000000000E+00  0.00000000000E+00  0.10192410739E+04  0.10192410740E+04  0.50400000000E-02 0. -1.
         -1   -1    0    0    0  501 -0.00000000000E+00 -0.00000000000E+00 -0.11553272212E+04  0.11553272212E+04  0.50400000000E-02 0.  1.
    8880022    1    1    2    0    0 -0.40923541484E+03  0.10198646750E+03  0.92197155786E+03  0.10253282747E+04  0.15294330000E+03 0.  0.
    8880022    1    1    2    0    0  0.40923541484E+03 -0.10198646750E+03 -0.10580577051E+04  0.11492400205E+04  0.15294330000E+03 0.  0.
<mgrwt>
<rscale>  0 0.44862737E+03</rscale>
<asrwt>0</asrwt>
<pdfrwt beam="1">  1        1 0.15680632E+00 0.44862737E+03</pdfrwt>
<pdfrwt beam="2">  1       -1 0.17774265E+00 0.44862737E+03</pdfrwt>
<totfact> 0.35055640E+00</totfact>
</mgrwt>
</event>
<event>
 4    1  0.8749406E-009  0.9754124E+03  0.7818608E-02  0.9335931E-01
         -1   -1    0    0    0  501 -0.00000000000E+00  0.00000000000E+00  0.29294382619E+04  0.29294382619E+04  0.50400000000E-02 0.  1.
          1   -1    0    0  501    0  0.00000000000E+00 -0.00000000000E+00 -0.94841886336E+03  0.94841886338E+03  0.50400000000E-02 0. -1.
    8880022    1    1    2    0    0  0.27775637108E+03  0.92243653950E+03  0.25627811693E+04  0.27421299652E+04  0.15294330000E+03 0.  0.
    8880022    1    1    2    0    0 -0.27775637108E+03 -0.92243653950E+03 -0.58176177083E+03  0.11357271601E+04  0.15294330000E+03 0.  0.
<mgrwt>
<rscale>  0 0.97541244E+03</rscale>
<asrwt>0</asrwt>
<pdfrwt beam="1">  1        1 0.14591059E+00 0.97541244E+03</pdfrwt>
<pdfrwt beam="2">  1       -1 0.45068281E+00 0.97541244E+03</pdfrwt>
<totfact> 0.54882922E-02</totfact>
</mgrwt>
</event>
<event>
 4    1  0.8749406E-009  0.9268656E+03  0.7818608E-02  0.9392607E-01
         -1   -1    0    0    0  501 -0.00000000000E+00  0.00000000000E+00  0.73969797310E+03  0.73969797312E+03  0.50400000000E-02 0.  1.
          1   -1    0    0  501    0  0.00000000000E+00 -0.00000000000E+00 -0.15698519203E+04  0.15698519203E+04  0.50400000000E-02 0. -1.
    8880022    1    1    2    0    0 -0.68282595287E+03  0.60781327737E+03 -0.10041135956E+04  0.13665006506E+04  0.15294330000E+03 0.  0.
    8880022    1    1    2    0    0  0.68282595287E+03 -0.60781327737E+03  0.17395964847E+03  0.94304924281E+03  0.15294330000E+03 0.  0.
<mgrwt>
<rscale>  0 0.92686564E+03</rscale>
<asrwt>0</asrwt>
<pdfrwt beam="1">  1        1 0.24151568E+00 0.92686564E+03</pdfrwt>
<pdfrwt beam="2">  1       -1 0.11379969E+00 0.92686564E+03</pdfrwt>
<totfact> 0.41853918E+00</totfact>
</mgrwt>
</event>
<event>
 4    1  0.8749406E-009  0.6053443E+03  0.7818608E-02  0.9894380E-01
          1   -1    0    0  501    0  0.00000000000E+00  0.00000000000E+00  0.17516139954E+04  0.17516139954E+04  0.50400000000E-02 0. -1.
         -1   -1    0    0    0  501 -0.00000000000E+00 -0.00000000000E+00 -0.29536164082E+03  0.29536164086E+03  0.50400000000E-02 0.  1.
    8880022    1    1    2    0    0 -0.37780940333E+03  0.44756018428E+03  0.12809118240E+04  0.14167486784E+04  0.15294330000E+03 0.  0.
    8880022    1    1    2    0    0  0.37780940333E+03 -0.44756018428E+03  0.17534053061E+03  0.63022695792E+03  0.15294330000E+03 0.  0.
<mgrwt>
<rscale>  0 0.60534430E+03</rscale>
<asrwt>0</asrwt>
<pdfrwt beam="1">  1        1 0.26947907E+00 0.60534430E+03</pdfrwt>
<pdfrwt beam="2">  1       -1 0.45440254E-01 0.60534430E+03</pdfrwt>
<totfact> 0.22397389E+01</totfact>
</mgrwt>
</event>
<event>
 4    1  0.8749406E-009  0.7414165E+03  0.7818608E-02  0.9648914E-01
          1   -1    0    0  501    0  0.00000000000E+00  0.00000000000E+00  0.11250037901E+04  0.11250037901E+04  0.50400000000E-02 0. -1.
         -1   -1    0    0    0  501 -0.00000000000E+00 -0.00000000000E+00 -0.61286515862E+03  0.61286515864E+03  0.50400000000E-02 0.  1.
    8880022    1    1    2    0    0 -0.60701305133E+03  0.39729325678E+03  0.64731155183E+03  0.98423100668E+03  0.15294330000E+03 0.  0.
    8880022    1    1    2    0    0  0.60701305133E+03 -0.39729325678E+03 -0.13517292032E+03  0.75363794210E+03  0.15294330000E+03 0.  0.
<mgrwt>
<rscale>  0 0.74141650E+03</rscale>
<asrwt>0</asrwt>
<pdfrwt beam="1">  1        1 0.17307751E+00 0.74141650E+03</pdfrwt>
<pdfrwt beam="2">  1       -1 0.94286947E-01 0.74141650E+03</pdfrwt>
<totfact> 0.13665562E+01</totfact>
</mgrwt>
</event>
<event>
 4    1  0.8749406E-009  0.1234711E+04  0.7818608E-02  0.9083005E-01
         -1   -1    0    0    0  501 -0.00000000000E+00  0.00000000000E+00  0.14240841644E+04  0.14240841644E+04  0.50400000000E-02 0.  1.
          1   -1    0    0  501    0  0.00000000000E+00 -0.00000000000E+00 -0.27126830697E+04  0.27126830697E+04  0.50400000000E-02 0. -1.
    8880022    1    1    2    0    0 -0.53471996559E+03 -0.11023589818E+04  0.96500988249E+03  0.15670853495E+04  0.15294330000E+03 0.  0.
    8880022    1    1    2    0    0  0.53471996559E+03  0.11023589818E+04 -0.22536087878E+04  0.25696818845E+04  0.15294330000E+03 0.  0.
<mgrwt>
<rscale>  0 0.12347115E+04</rscale>
<asrwt>0</asrwt>
<pdfrwt beam="1">  1        1 0.41733586E+00 0.12347115E+04</pdfrwt>
<pdfrwt beam="2">  1       -1 0.21908987E+00 0.12347115E+04</pdfrwt>
<totfact> 0.10540933E-01</totfact>
</mgrwt>
</event>
<event>
 4    1  0.8749406E-009  0.5480352E+03  0.7818608E-02  0.1001950E+00
         -1   -1    0    0    0  501 -0.00000000000E+00  0.00000000000E+00  0.39267065219E+03  0.39267065222E+03  0.50400000000E-02 0.  1.
          1   -1    0    0  501    0  0.00000000000E+00 -0.00000000000E+00 -0.87488302365E+03  0.87488302366E+03  0.50400000000E-02 0. -1.
    8880022    1    1    2    0    0 -0.52623584652E+03 -0.51685908454E+01 -0.46584637709E+03  0.71927420401E+03  0.15294330000E+03 0.  0.
    8880022    1    1    2    0    0  0.52623584652E+03  0.51685908454E+01 -0.16365994374E+02  0.54827947187E+03  0.15294330000E+03 0.  0.
<mgrwt>
<rscale>  0 0.54803516E+03</rscale>
<asrwt>0</asrwt>
<pdfrwt beam="1">  1        1 0.13459739E+00 0.54803516E+03</pdfrwt>
<pdfrwt beam="2">  1       -1 0.60410870E-01 0.54803516E+03</pdfrwt>
<totfact> 0.55446992E+01</totfact>
</mgrwt>
</event>
<event>
 4    1  0.8749406E-009  0.3108057E+03  0.7818608E-02  0.1079960E+00
          1   -1    0    0  501    0  0.00000000000E+00  0.00000000000E+00  0.11012069440E+04  0.11012069441E+04  0.50400000000E-02 0. -1.
         -1   -1    0    0    0  501 -0.00000000000E+00 -0.00000000000E+00 -0.50836262742E+03  0.50836262745E+03  0.50400000000E-02 0.  1.
    8880022    1    1    2    0    0 -0.26458210893E+02 -0.26927400215E+03 -0.43564093045E+03  0.53514782860E+03  0.15294330000E+03 0.  0.
    8880022    1    1    2    0    0  0.26458210893E+02  0.26927400215E+03  0.10284852471E+04  0.10744217429E+04  0.15294330000E+03 0.  0.
<mgrwt>
<rscale>  0 0.31080569E+03</rscale>
<asrwt>0</asrwt>
<pdfrwt beam="1">  1        1 0.16941645E+00 0.31080569E+03</pdfrwt>
<pdfrwt beam="2">  1       -1 0.78209636E-01 0.31080569E+03</pdfrwt>
<totfact> 0.23144767E+01</totfact>
</mgrwt>
</event>
<event>
 4    1  0.8749406E-009  0.2346250E+03  0.7818608E-02  0.1123426E+00
         -1   -1    0    0    0  501 -0.00000000000E+00  0.00000000000E+00  0.49091370992E+03  0.49091370995E+03  0.50400000000E-02 0.  1.
          1   -1    0    0  501    0  0.00000000000E+00 -0.00000000000E+00 -0.16670344595E+04  0.16670344595E+04  0.50400000000E-02 0. -1.
    8880022    1    1    2    0    0  0.11402750927E+03 -0.13658320943E+03  0.45399260270E+03  0.51103638060E+03  0.15294330000E+03 0.  1.
    8880022    1    1    2    0    0 -0.11402750927E+03  0.13658320943E+03 -0.16301133523E+04  0.16469117889E+04  0.15294330000E+03 0.  0.
<mgrwt>
<rscale>  0 0.23462502E+03</rscale>
<asrwt>0</asrwt>
<pdfrwt beam="1">  1        1 0.25646684E+00 0.23462502E+03</pdfrwt>
<pdfrwt beam="2">  1       -1 0.75525187E-01 0.23462502E+03</pdfrwt>
<totfact> 0.10584867E+01</totfact>
</mgrwt>
</event>
<event>
 4    1  0.8749406E-009  0.4787848E+03  0.7818608E-02  0.1019470E+00
         -1   -1    0    0    0  501 -0.00000000000E+00  0.00000000000E+00  0.49621622164E+03  0.49621622166E+03  0.50400000000E-02 0.  1.
          1   -1    0    0  501    0  0.00000000000E+00 -0.00000000000E+00 -0.33296421292E+04  0.33296421292E+04  0.50400000000E-02 0. -1.
    8880022    1    1    2    0    0  0.29855468237E+03 -0.34162607357E+03 -0.31919860744E+04  0.32276942272E+04  0.15294330000E+03 0.  0.
    8880022    1    1    2    0    0 -0.29855468237E+03  0.34162607357E+03  0.35856016684E+03  0.59816412360E+03  0.15294330000E+03 0.  0.
<mgrwt>
<rscale>  0 0.47878484E+03</rscale>
<asrwt>0</asrwt>
<pdfrwt beam="1">  1        1 0.51225262E+00 0.47878484E+03</pdfrwt>
<pdfrwt beam="2">  1       -1 0.76340959E-01 0.47878484E+03</pdfrwt>
<totfact> 0.69039795E-01</totfact>
</mgrwt>
</event>
<event>
 4    1  0.8749406E-009  0.1409774E+04  0.7818608E-02  0.8946774E-01
          1   -1    0    0  501    0  0.00000000000E+00  0.00000000000E+00  0.48239279360E+04  0.48239279360E+04  0.50400000000E-02 0. -1.
         -1   -1    0    0    0  501 -0.00000000000E+00 -0.00000000000E+00 -0.54238555469E+03  0.54238555472E+03  0.50400000000E-02 0.  1.
    8880022    1    1    2    0    0 -0.10972573841E+04 -0.87183632772E+03  0.34563133212E+04  0.37327691834E+04  0.15294330000E+03 0.  0.
    8880022    1    1    2    0    0  0.10972573841E+04  0.87183632772E+03  0.82522906008E+03  0.16335443073E+04  0.15294330000E+03 0.  0.
<mgrwt>
<rscale>  0 0.14097745E+04</rscale>
<asrwt>0</asrwt>
<pdfrwt beam="1">  1        1 0.74214276E+00 0.14097745E+04</pdfrwt>
<pdfrwt beam="2">  1       -1 0.83443931E-01 0.14097745E+04</pdfrwt>
<totfact> 0.20332219E-02</totfact>
</mgrwt>
</event>
<event>
 4    1  0.8749406E-009  0.1610266E+03  0.7818608E-02  0.1187543E+00
         -1   -1    0    0    0  501 -0.00000000000E+00  0.00000000000E+00  0.80770379322E+02  0.80770379479E+02  0.50400000000E-02 0.  1.
          1   -1    0    0  501    0  0.00000000000E+00 -0.00000000000E+00 -0.87427367964E+03  0.87427367966E+03  0.50400000000E-02 0. -1.
    8880022    1    1    2    0    0 -0.15956891010E+02 -0.47783867268E+02 -0.16887220632E+02  0.16190970192E+03  0.15294330000E+03 0.  0.
    8880022    1    1    2    0    0  0.15956891010E+02  0.47783867268E+02 -0.77661607969E+03  0.79313435721E+03  0.15294330000E+03 0. -1.
<mgrwt>
<rscale>  0 0.16102662E+03</rscale>
<asrwt>0</asrwt>
<pdfrwt beam="1">  1        1 0.13450364E+00 0.16102662E+03</pdfrwt>
<pdfrwt beam="2">  1       -1 0.12426213E-01 0.16102662E+03</pdfrwt>
<totfact> 0.87327018E+02</totfact>
</mgrwt>
</event>
<event>
 4    1  0.8749406E-009  0.1811308E+04  0.7818608E-02  0.8700309E-01
         -1   -1    0    0    0  501 -0.00000000000E+00  0.00000000000E+00  0.18281765123E+04  0.18281765123E+04  0.50400000000E-02 0.  1.
          1   -1    0    0  501    0  0.00000000000E+00 -0.00000000000E+00 -0.21405080287E+04  0.21405080287E+04  0.50400000000E-02 0. -1.
    8880022    1    1    2    0    0  0.17446104707E+04  0.46236428797E+03 -0.95386842737E+03  0.20471206752E+04  0.15294330000E+03 0.  0.
    8880022    1    1    2    0    0 -0.17446104707E+04 -0.46236428797E+03  0.64153691098E+03  0.19215638658E+04  0.15294330000E+03 0.  0.
<mgrwt>
<rscale>  0 0.18113084E+04</rscale>
<asrwt>0</asrwt>
<pdfrwt beam="1">  1        1 0.32930893E+00 0.18113084E+04</pdfrwt>
<pdfrwt beam="2">  1       -1 0.28125793E+00 0.18113084E+04</pdfrwt>
<totfact> 0.94974758E-02</totfact>
</mgrwt>
</event>
<event>
 4    1  0.8749406E-009  0.1444605E+04  0.7818608E-02  0.8922149E-01
         -1   -1    0    0    0  501 -0.00000000000E+00  0.00000000000E+00  0.18797901157E+04  0.18797901157E+04  0.50400000000E-02 0.  1.
          1   -1    0    0  501    0  0.00000000000E+00 -0.00000000000E+00 -0.12854375285E+04  0.12854375285E+04  0.50400000000E-02 0. -1.
    8880022    1    1    2    0    0 -0.27053642729E+03 -0.14107808581E+04 -0.28721232352E+03  0.14728798865E+04  0.15294330000E+03 0.  0.
    8880022    1    1    2    0    0  0.27053642729E+03  0.14107808581E+04  0.88156491075E+03  0.16923477577E+04  0.15294330000E+03 0.  0.
<mgrwt>
<rscale>  0 0.14446052E+04</rscale>
<asrwt>0</asrwt>
<pdfrwt beam="1">  1        1 0.19775962E+00 0.14446052E+04</pdfrwt>
<pdfrwt beam="2">  1       -1 0.28919848E+00 0.14446052E+04</pdfrwt>
<totfact> 0.34281852E-01</totfact>
</mgrwt>
</event>
<event>
 4    1  0.8749406E-009  0.5627023E+03  0.7818608E-02  0.9985959E-01
         -1   -1    0    0    0  501 -0.00000000000E+00  0.00000000000E+00  0.62147565618E+03  0.62147565620E+03  0.50400000000E-02 0.  1.
          1   -1    0    0  501    0  0.00000000000E+00 -0.00000000000E+00 -0.13212311339E+04  0.13212311339E+04  0.50400000000E-02 0. -1.
    8880022    1    1    2    0    0 -0.23990830341E+03 -0.48547524961E+03  0.41149513627E+03  0.69710982795E+03  0.15294330000E+03 0.  0.
    8880022    1    1    2    0    0  0.23990830341E+03  0.48547524961E+03 -0.11112506140E+04  0.12455969621E+04  0.15294330000E+03 0.  0.
<mgrwt>
<rscale>  0 0.56270229E+03</rscale>
<asrwt>0</asrwt>
<pdfrwt beam="1">  1        1 0.20326633E+00 0.56270229E+03</pdfrwt>
<pdfrwt beam="2">  1       -1 0.95611640E-01 0.56270229E+03</pdfrwt>
<totfact> 0.98632173E+00</totfact>
</mgrwt>
</event>
<event>
 4    1  0.8749406E-009  0.6557789E+03  0.7818608E-02  0.9795995E-01
          1   -1    0    0  501    0  0.00000000000E+00  0.00000000000E+00  0.11504715129E+04  0.11504715129E+04  0.50400000000E-02 0. -1.
         -1   -1    0    0    0  501 -0.00000000000E+00 -0.00000000000E+00 -0.63459020622E+03  0.63459020624E+03  0.50400000000E-02 0.  1.
    8880022    1    1    2    0    0  0.30798343011E+02  0.63695041830E+03 -0.31422575924E+03  0.72717525679E+03  0.15294330000E+03 0.  0.
    8880022    1    1    2    0    0 -0.30798343011E+02 -0.63695041830E+03  0.83010706588E+03  0.10578864623E+04  0.15294330000E+03 0.  0.
<mgrwt>
<rscale>  0 0.65577895E+03</rscale>
<asrwt>0</asrwt>
<pdfrwt beam="1">  1        1 0.17699562E+00 0.65577895E+03</pdfrwt>
<pdfrwt beam="2">  1       -1 0.97629263E-01 0.65577895E+03</pdfrwt>
<totfact> 0.12257232E+01</totfact>
</mgrwt>
</event>
<event>
 4    1  0.8749406E-009  0.9866271E+03  0.7818608E-02  0.9323335E-01
          1   -1    0    0  501    0  0.00000000000E+00  0.00000000000E+00  0.11829810042E+04  0.11829810042E+04  0.50400000000E-02 0. -1.
         -1   -1    0    0    0  501 -0.00000000000E+00 -0.00000000000E+00 -0.13543642858E+04  0.13543642858E+04  0.50400000000E-02 0.  1.
    8880022    1    1    2    0    0 -0.97462607905E+03 -0.12054798230E+02 -0.88044690500E+03  0.13223538549E+04  0.15294330000E+03 0.  1.
    8880022    1    1    2    0    0  0.97462607905E+03  0.12054798230E+02  0.70906362345E+03  0.12149914350E+04  0.15294330000E+03 0.  0.
<mgrwt>
<rscale>  0 0.98662706E+03</rscale>
<asrwt>0</asrwt>
<pdfrwt beam="1">  1        1 0.18199708E+00 0.98662706E+03</pdfrwt>
<pdfrwt beam="2">  1       -1 0.20836374E+00 0.98662706E+03</pdfrwt>
<totfact> 0.14612790E+00</totfact>
</mgrwt>
</event>
<event>
 4    1  0.8749406E-009  0.6744716E+03  0.7818608E-02  0.9761913E-01
         -1   -1    0    0    0  501 -0.00000000000E+00  0.00000000000E+00  0.81944879240E+03  0.81944879242E+03  0.50400000000E-02 0.  1.
          1   -1    0    0  501    0  0.00000000000E+00 -0.00000000000E+00 -0.70527275153E+03  0.70527275155E+03  0.50400000000E-02 0. -1.
    8880022    1    1    2    0    0  0.14436542606E+03  0.64084230120E+03 -0.29464591513E+03  0.73602180644E+03  0.15294330000E+03 0.  0.
    8880022    1    1    2    0    0 -0.14436542606E+03 -0.64084230120E+03  0.40882195600E+03  0.78869973752E+03  0.15294330000E+03 0.  0.
<mgrwt>
<rscale>  0 0.67447156E+03</rscale>
<asrwt>0</asrwt>
<pdfrwt beam="1">  1        1 0.10850350E+00 0.67447156E+03</pdfrwt>
<pdfrwt beam="2">  1       -1 0.12606904E+00 0.67447156E+03</pdfrwt>
<totfact> 0.15320307E+01</totfact>
</mgrwt>
</event>
<event>
 4    1  0.8749406E-009  0.9038997E+03  0.7818608E-02  0.9420720E-01
         -1   -1    0    0    0  501 -0.00000000000E+00  0.00000000000E+00  0.10718447349E+04  0.10718447349E+04  0.50400000000E-02 0.  1.
          1   -1    0    0  501    0  0.00000000000E+00 -0.00000000000E+00 -0.97674070515E+03  0.97674070516E+03  0.50400000000E-02 0. -1.
    8880022    1    1    2    0    0 -0.86951178642E+03  0.19388721906E+03 -0.43242323242E+03  0.10020102322E+04  0.15294330000E+03 0.  0.
    8880022    1    1    2    0    0  0.86951178642E+03 -0.19388721906E+03  0.52752726216E+03  0.10465752079E+04  0.15294330000E+03 0.  0.
<mgrwt>
<rscale>  0 0.90389969E+03</rscale>
<asrwt>0</asrwt>
<pdfrwt beam="1">  1        1 0.15026780E+00 0.90389969E+03</pdfrwt>
<pdfrwt beam="2">  1       -1 0.16489919E+00 0.90389969E+03</pdfrwt>
<totfact> 0.42993037E+00</totfact>
</mgrwt>
</event>
<event>
 4    1  0.8749406E-009  0.1338758E+04  0.7818608E-02  0.8999382E-01
          1   -1    0    0  501    0  0.00000000000E+00  0.00000000000E+00  0.16973033601E+04  0.16973033601E+04  0.50400000000E-02 0. -1.
         -1   -1    0    0    0  501 -0.00000000000E+00 -0.00000000000E+00 -0.18745041532E+04  0.18745041532E+04  0.50400000000E-02 0.  1.
    8880022    1    1    2    0    0  0.52623036915E+03  0.12214593693E+04  0.10915508954E+04  0.17273553203E+04  0.15294330000E+03 0.  0.
    8880022    1    1    2    0    0 -0.52623036915E+03 -0.12214593693E+04 -0.12687516885E+04  0.18444521930E+04  0.15294330000E+03 0.  0.
<mgrwt>
<rscale>  0 0.13387580E+04</rscale>
<asrwt>0</asrwt>
<pdfrwt beam="1">  1        1 0.26112359E+00 0.13387580E+04</pdfrwt>
<pdfrwt beam="2">  1       -1 0.28838525E+00 0.13387580E+04</pdfrwt>
<totfact> 0.18123503E-01</totfact>
</mgrwt>
</event>
<event>
 4    1  0.8749406E-009  0.5181683E+03  0.7818608E-02  0.1009143E+00
          1   -1    0    0  501    0  0.00000000000E+00  0.00000000000E+00  0.30609816928E+04  0.30609816928E+04  0.50400000000E-02 0. -1.
         -1   -1    0    0    0  501 -0.00000000000E+00 -0.00000000000E+00 -0.22793444851E+03  0.22793444857E+03  0.50400000000E-02 0.  1.
    8880022    1    1    2    0    0 -0.20203506779E+03 -0.45198289648E+03  0.27063158254E+04  0.27554752235E+04  0.15294330000E+03 0.  0.
    8880022    1    1    2    0    0  0.20203506779E+03  0.45198289648E+03  0.12673141886E+03  0.53344091788E+03  0.15294330000E+03 0.  1.
<mgrwt>
<rscale>  0 0.51816827E+03</rscale>
<asrwt>0</asrwt>
<pdfrwt beam="1">  1        1 0.47092026E+00 0.51816827E+03</pdfrwt>
<pdfrwt beam="2">  1       -1 0.35066839E-01 0.51816827E+03</pdfrwt>
<totfact> 0.47032592E+00</totfact>
</mgrwt>
</event>
<event>
 4    1  0.8749406E-009  0.5647003E+03  0.7818608E-02  0.9981475E-01
          1   -1    0    0  501    0  0.00000000000E+00  0.00000000000E+00  0.62941766971E+03  0.62941766973E+03  0.50400000000E-02 0. -1.
         -1   -1    0    0    0  501 -0.00000000000E+00 -0.00000000000E+00 -0.17147599926E+04  0.17147599926E+04  0.50400000000E-02 0.  1.
    8880022    1    1    2    0    0  0.88266994045E+02  0.53638021966E+03  0.44114597099E+03  0.71658650770E+03  0.15294330000E+03 0.  0.
    8880022    1    1    2    0    0 -0.88266994045E+02 -0.53638021966E+03 -0.15264882939E+04  0.16275911546E+04  0.15294330000E+03 0.  0.
<mgrwt>
<rscale>  0 0.56470032E+03</rscale>
<asrwt>0</asrwt>
<pdfrwt beam="1">  1        1 0.96833488E-01 0.56470032E+03</pdfrwt>
<pdfrwt beam="2">  1       -1 0.26380923E+00 0.56470032E+03</pdfrwt>
<totfact> 0.19685725E+00</totfact>
</mgrwt>
</event>
<event>
 4    1  0.8749406E-009  0.1227375E+04  0.7818608E-02  0.9089227E-01
          1   -1    0    0  501    0  0.00000000000E+00  0.00000000000E+00  0.37238386366E+04  0.37238386366E+04  0.50400000000E-02 0. -1.
         -1   -1    0    0    0  501 -0.00000000000E+00 -0.00000000000E+00 -0.54627453770E+03  0.54627453772E+03  0.50400000000E-02 0.  1.
    8880022    1    1    2    0    0 -0.11501646630E+04 -0.40022232202E+03  0.50125760126E+03  0.13257856142E+04  0.15294330000E+03 0.  0.
    8880022    1    1    2    0    0  0.11501646630E+04  0.40022232202E+03  0.26763064976E+04  0.29443275601E+04  0.15294330000E+03 0.  0.
<mgrwt>
<rscale>  0 0.12273746E+04</rscale>
<asrwt>0</asrwt>
<pdfrwt beam="1">  1        1 0.57289826E+00 0.12273746E+04</pdfrwt>
<pdfrwt beam="2">  1       -1 0.84042235E-01 0.12273746E+04</pdfrwt>
<totfact> 0.23273428E-01</totfact>
</mgrwt>
</event>
<event>
 4    1  0.8749406E-009  0.5751807E+03  0.7818608E-02  0.9958280E-01
         -1   -1    0    0    0  501 -0.00000000000E+00  0.00000000000E+00  0.13419048560E+04  0.13419048561E+04  0.50400000000E-02 0.  1.
          1   -1    0    0  501    0  0.00000000000E+00 -0.00000000000E+00 -0.16305344283E+04  0.16305344283E+04  0.50400000000E-02 0. -1.
    8880022    1    1    2    0    0 -0.34567445756E+03 -0.43353242755E+03 -0.15135725896E+04  0.16191772088E+04  0.15294330000E+03 0.  0.
    8880022    1    1    2    0    0  0.34567445756E+03  0.43353242755E+03  0.12249430174E+04  0.13532620756E+04  0.15294330000E+03 0.  0.
<mgrwt>
<rscale>  0 0.57518071E+03</rscale>
<asrwt>0</asrwt>
<pdfrwt beam="1">  1        1 0.25085145E+00 0.57518071E+03</pdfrwt>
<pdfrwt beam="2">  1       -1 0.20644690E+00 0.57518071E+03</pdfrwt>
<totfact> 0.79777626E-01</totfact>
</mgrwt>
</event>
<event>
 4    1  0.8749406E-009  0.1001308E+04  0.7818608E-02  0.9307111E-01
          1   -1    0    0  501    0  0.00000000000E+00  0.00000000000E+00  0.70876249496E+03  0.70876249498E+03  0.50400000000E-02 0. -1.
         -1   -1    0    0    0  501 -0.00000000000E+00 -0.00000000000E+00 -0.22455743886E+04  0.22455743886E+04  0.50400000000E-02 0.  1.
    8880022    1    1    2    0    0  0.37111033060E+03 -0.91733525347E+03 -0.16669905733E+04  0.19446017765E+04  0.15294330000E+03 0.  0.
    8880022    1    1    2    0    0 -0.37111033060E+03  0.91733525347E+03  0.13017867968E+03  0.10097351070E+04  0.15294330000E+03 0.  0.
<mgrwt>
<rscale>  0 0.10013084E+04</rscale>
<asrwt>0</asrwt>
<pdfrwt beam="1">  1        1 0.10904039E+00 0.10013084E+04</pdfrwt>
<pdfrwt beam="2">  1       -1 0.34547298E+00 0.10013084E+04</pdfrwt>
<totfact> 0.45378979E-01</totfact>
</mgrwt>
</event>
<event>
 4    1  0.8749406E-009  0.4519303E+03  0.7818608E-02  0.1027148E+00
          1   -1    0    0  501    0  0.00000000000E+00  0.00000000000E+00  0.87470742325E+03  0.87470742327E+03  0.50400000000E-02 0. -1.
         -1   -1    0    0    0  501 -0.00000000000E+00 -0.00000000000E+00 -0.27014652433E+03  0.27014652438E+03  0.50400000000E-02 0.  1.
    8880022    1    1    2    0    0  0.16433631623E+03  0.39222819663E+03  0.91437970860E+02  0.46108777754E+03  0.15294330000E+03 0.  0.
    8880022    1    1    2    0    0 -0.16433631623E+03 -0.39222819663E+03  0.51312292807E+03  0.68376617011E+03  0.15294330000E+03 0.  0.
<mgrwt>
<rscale>  0 0.45193034E+03</rscale>
<asrwt>0</asrwt>
<pdfrwt beam="1">  1        1 0.13457037E+00 0.45193034E+03</pdfrwt>
<pdfrwt beam="2">  1       -1 0.41561004E-01 0.45193034E+03</pdfrwt>
<totfact> 0.11351481E+02</totfact>
</mgrwt>
</event>
<event>
 4    1  0.8749406E-009  0.7772397E+03  0.7818608E-02  0.9593559E-01
         -1   -1    0    0    0  501 -0.00000000000E+00  0.00000000000E+00  0.78675530725E+03  0.78675530727E+03  0.50400000000E-02 0.  1.
          1   -1    0    0  501    0  0.00000000000E+00 -0.00000000000E+00 -0.24814321182E+04  0.24814321182E+04  0.50400000000E-02 0. -1.
    8880022    1    1    2    0    0  0.70688899699E+03 -0.28463640515E+03 -0.22052752898E+04  0.23382345251E+04  0.15294330000E+03 0.  0.
    8880022    1    1    2    0    0 -0.70688899699E+03  0.28463640515E+03  0.51059847893E+03  0.92995290037E+03  0.15294330000E+03 0.  0.
<mgrwt>
<rscale>  0 0.77723973E+03</rscale>
<asrwt>0</asrwt>
<pdfrwt beam="1">  1        1 0.38175878E+00 0.77723973E+03</pdfrwt>
<pdfrwt beam="2">  1       -1 0.12103928E+00 0.77723973E+03</pdfrwt>
<totfact> 0.89782037E-01</totfact>
</mgrwt>
</event>
<event>
 4    1  0.8749406E-009  0.1376823E+04  0.7818608E-02  0.8970768E-01
         -1   -1    0    0    0  501 -0.00000000000E+00  0.00000000000E+00  0.80770347559E+03  0.80770347561E+03  0.50400000000E-02 0.  1.
          1   -1    0    0  501    0  0.00000000000E+00 -0.00000000000E+00 -0.36294288307E+04  0.36294288307E+04  0.50400000000E-02 0. -1.
    8880022    1    1    2    0    0  0.97161698285E+03 -0.96343714196E+03 -0.92066184013E+02  0.13798980119E+04  0.15294330000E+03 0.  0.
    8880022    1    1    2    0    0 -0.97161698285E+03  0.96343714196E+03 -0.27296591711E+04  0.30572342945E+04  0.15294330000E+03 0.  0.
<mgrwt>
<rscale>  0 0.13768233E+04</rscale>
<asrwt>0</asrwt>
<pdfrwt beam="1">  1        1 0.55837366E+00 0.13768233E+04</pdfrwt>
<pdfrwt beam="2">  1       -1 0.12426207E+00 0.13768233E+04</pdfrwt>
<totfact> 0.10933949E-01</totfact>
</mgrwt>
</event>
<event>
 4    1  0.8749406E-009  0.6094416E+03  0.7818608E-02  0.9886009E-01
          1   -1    0    0  501    0  0.00000000000E+00  0.00000000000E+00  0.90124544028E+03  0.90124544029E+03  0.50400000000E-02 0. -1.
         -1   -1    0    0    0  501 -0.00000000000E+00 -0.00000000000E+00 -0.50374807538E+03  0.50374807540E+03  0.50400000000E-02 0.  1.
    8880022    1    1    2    0    0  0.29961081272E+03 -0.50819368489E+03 -0.10086219702E+03  0.61773157299E+03  0.15294330000E+03 0.  0.
    8880022    1    1    2    0    0 -0.29961081272E+03  0.50819368489E+03  0.49835956192E+03  0.78726194271E+03  0.15294330000E+03 0. -1.
<mgrwt>
<rscale>  0 0.60944164E+03</rscale>
<asrwt>0</asrwt>
<pdfrwt beam="1">  1        1 0.13865314E+00 0.60944164E+03</pdfrwt>
<pdfrwt beam="2">  1       -1 0.77499704E-01 0.60944164E+03</pdfrwt>
<totfact> 0.31607680E+01</totfact>
</mgrwt>
</event>
<event>
 4    1  0.8749406E-009  0.1039402E+04  0.7818608E-02  0.9266355E-01
         -1   -1    0    0    0  501 -0.00000000000E+00  0.00000000000E+00  0.51422211295E+03  0.51422211298E+03  0.50400000000E-02 0.  1.
          1   -1    0    0  501    0  0.00000000000E+00 -0.00000000000E+00 -0.23306683600E+04  0.23306683600E+04  0.50400000000E-02 0. -1.
    8880022    1    1    2    0    0  0.94298076588E+03  0.40957579707E+03 -0.46165272963E+03  0.11373126018E+04  0.15294330000E+03 0.  0.
    8880022    1    1    2    0    0 -0.94298076588E+03 -0.40957579707E+03 -0.13547935174E+04  0.17075778712E+04  0.15294330000E+03 0. -1.
<mgrwt>
<rscale>  0 0.10394021E+04</rscale>
<asrwt>0</asrwt>
<pdfrwt beam="1">  1        1 0.35856436E+00 0.10394021E+04</pdfrwt>
<pdfrwt beam="2">  1       -1 0.79111095E-01 0.10394021E+04</pdfrwt>
<totfact> 0.28623870E+00</totfact>
</mgrwt>
</event>
<event>
 4    1  0.8749406E-009  0.6899852E+03  0.7818608E-02  0.9734514E-01
         -1   -1    0    0    0  501 -0.00000000000E+00  0.00000000000E+00  0.20201498985E+04  0.20201498985E+04  0.50400000000E-02 0.  1.
          1   -1    0    0  501    0  0.00000000000E+00 -0.00000000000E+00 -0.50081665334E+03  0.50081665337E+03  0.50400000000E-02 0. -1.
    8880022    1    1    2    0    0 -0.97025663693E+02 -0.66578816294E+03 -0.15749213673E+03  0.70773108132E+03  0.15294330000E+03 0.  0.
    8880022    1    1    2    0    0  0.97025663693E+02  0.66578816294E+03  0.16768253819E+04  0.18132354706E+04  0.15294330000E+03 0.  0.
<mgrwt>
<rscale>  0 0.68998515E+03</rscale>
<asrwt>0</asrwt>
<pdfrwt beam="1">  1        1 0.77048717E-01 0.68998515E+03</pdfrwt>
<pdfrwt beam="2">  1       -1 0.31079229E+00 0.68998515E+03</pdfrwt>
<totfact> 0.13269289E+00</totfact>
</mgrwt>
</event>
<event>
 4    1  0.8749406E-009  0.1274389E+04  0.7818608E-02  0.9050125E-01
         -1   -1    0    0    0  501 -0.00000000000E+00  0.00000000000E+00  0.18883947323E+04  0.18883947323E+04  0.50400000000E-02 0.  1.
          1   -1    0    0  501    0  0.00000000000E+00 -0.00000000000E+00 -0.12793154876E+04  0.12793154876E+04  0.50400000000E-02 0. -1.
    8880022    1    1    2    0    0  0.11710895399E+04 -0.47877329875E+03 -0.60220345401E+03  0.14095088631E+04  0.15294330000E+03 0.  0.
    8880022    1    1    2    0    0 -0.11710895399E+04  0.47877329875E+03  0.12112826987E+04  0.17582013569E+04  0.15294330000E+03 0.  1.
<mgrwt>
<rscale>  0 0.12743886E+04</rscale>
<asrwt>0</asrwt>
<pdfrwt beam="1">  1        1 0.19681777E+00 0.12743886E+04</pdfrwt>
<pdfrwt beam="2">  1       -1 0.29052226E+00 0.12743886E+04</pdfrwt>
<totfact> 0.34667439E-01</totfact>
</mgrwt>
</event>
<event>
 4    1  0.8749406E-009  0.8785912E+03  0.7818608E-02  0.9452746E-01
          1   -1    0    0  501    0  0.00000000000E+00  0.00000000000E+00  0.24734502983E+04  0.24734502983E+04  0.50400000000E-02 0. -1.
         -1   -1    0    0    0  501 -0.00000000000E+00 -0.00000000000E+00 -0.18867732474E+04  0.18867732474E+04  0.50400000000E-02 0.  1.
    8880022    1    1    2    0    0  0.58201486162E+03 -0.64014803222E+03  0.22850041931E+04  0.24480944871E+04  0.15294330000E+03 0.  0.
    8880022    1    1    2    0    0 -0.58201486162E+03  0.64014803222E+03 -0.16983271421E+04  0.19121290587E+04  0.15294330000E+03 0.  0.
<mgrwt>
<rscale>  0 0.87859118E+03</rscale>
<asrwt>0</asrwt>
<pdfrwt beam="1">  1        1 0.38053081E+00 0.87859118E+03</pdfrwt>
<pdfrwt beam="2">  1       -1 0.29027281E+00 0.87859118E+03</pdfrwt>
<totfact> 0.57092998E-02</totfact>
</mgrwt>
</event>
<event>
 4    1  0.8749406E-009  0.9723497E+03  0.7818608E-02  0.9339402E-01
          1   -1    0    0  501    0  0.00000000000E+00  0.00000000000E+00  0.12859141151E+04  0.12859141151E+04  0.50400000000E-02 0. -1.
         -1   -1    0    0    0  501 -0.00000000000E+00 -0.00000000000E+00 -0.11180937228E+04  0.11180937228E+04  0.50400000000E-02 0.  1.
    8880022    1    1    2    0    0 -0.83428873652E+03  0.47543088296E+03 -0.61945280632E+03  0.11529031410E+04  0.15294330000E+03 0.  0.
    8880022    1    1    2    0    0  0.83428873652E+03 -0.47543088296E+03  0.78727319861E+03  0.12511046969E+04  0.15294330000E+03 0.  0.
<mgrwt>
<rscale>  0 0.97234967E+03</rscale>
<asrwt>0</asrwt>
<pdfrwt beam="1">  1        1 0.19783294E+00 0.97234967E+03</pdfrwt>
<pdfrwt beam="2">  1       -1 0.17201442E+00 0.97234967E+03</pdfrwt>
<totfact> 0.22199441E+00</totfact>
</mgrwt>
</event>
<event>
 4    1  0.8749406E-009  0.4016329E+03  0.7818608E-02  0.1043216E+00
         -1   -1    0    0    0  501 -0.00000000000E+00  0.00000000000E+00  0.44983065386E+03  0.44983065388E+03  0.50400000000E-02 0.  1.
          1   -1    0    0  501    0  0.00000000000E+00 -0.00000000000E+00 -0.65528406996E+03  0.65528406998E+03  0.50400000000E-02 0. -1.
    8880022    1    1    2    0    0  0.20289578783E+03  0.31104768678E+03  0.26907389841E+03  0.48343539382E+03  0.15294330000E+03 0.  0.
    8880022    1    1    2    0    0 -0.20289578783E+03 -0.31104768678E+03 -0.47452731451E+03  0.62167933005E+03  0.15294330000E+03 0.  0.
<mgrwt>
<rscale>  0 0.40163294E+03</rscale>
<asrwt>0</asrwt>
<pdfrwt beam="1">  1        1 0.10081293E+00 0.40163294E+03</pdfrwt>
<pdfrwt beam="2">  1       -1 0.69204716E-01 0.40163294E+03</pdfrwt>
<totfact> 0.67420231E+01</totfact>
</mgrwt>
</event>
<event>
 4    1  0.8749406E-009  0.7077956E+03  0.7818608E-02  0.9703993E-01
          1   -1    0    0  501    0  0.00000000000E+00  0.00000000000E+00  0.17021764352E+04  0.17021764352E+04  0.50400000000E-02 0. -1.
         -1   -1    0    0    0  501 -0.00000000000E+00 -0.00000000000E+00 -0.12239917671E+04  0.12239917671E+04  0.50400000000E-02 0.  1.
    8880022    1    1    2    0    0 -0.55284738897E+03 -0.41465970167E+03  0.15141981822E+04  0.16714576548E+04  0.15294330000E+03 0.  0.
    8880022    1    1    2    0    0  0.55284738897E+03  0.41465970167E+03 -0.10360135141E+04  0.12547105476E+04  0.15294330000E+03 0.  0.
<mgrwt>
<rscale>  0 0.70779556E+03</rscale>
<asrwt>0</asrwt>
<pdfrwt beam="1">  1        1 0.26187330E+00 0.70779556E+03</pdfrwt>
<pdfrwt beam="2">  1       -1 0.18830643E+00 0.70779556E+03</pdfrwt>
<totfact> 0.91908270E-01</totfact>
</mgrwt>
</event>
<event>
 4    1  0.8749406E-009  0.6078177E+03  0.7818608E-02  0.9889318E-01
          1   -1    0    0  501    0  0.00000000000E+00  0.00000000000E+00  0.90882537658E+03  0.90882537659E+03  0.50400000000E-02 0. -1.
         -1   -1    0    0    0  501 -0.00000000000E+00 -0.00000000000E+00 -0.54702387797E+03  0.54702387799E+03  0.50400000000E-02 0.  1.
    8880022    1    1    2    0    0  0.54910517046E+03  0.21103139611E+03  0.54983590715E+03  0.81961083215E+03  0.15294330000E+03 0.  0.
    8880022    1    1    2    0    0 -0.54910517046E+03 -0.21103139611E+03 -0.18803440854E+03  0.63623842243E+03  0.15294330000E+03 0.  1.
<mgrwt>
<rscale>  0 0.60781773E+03</rscale>
<asrwt>0</asrwt>
<pdfrwt beam="1">  1        1 0.13981929E+00 0.60781773E+03</pdfrwt>
<pdfrwt beam="2">  1       -1 0.84157521E-01 0.60781773E+03</pdfrwt>
<totfact> 0.26174956E+01</totfact>
</mgrwt>
</event>
<event>
 4    1  0.8749406E-009  0.9078084E+03  0.7818608E-02  0.9415873E-01
          1   -1    0    0  501    0  0.00000000000E+00  0.00000000000E+00  0.94164575018E+03  0.94164575019E+03  0.50400000000E-02 0. -1.
         -1   -1    0    0    0  501 -0.00000000000E+00 -0.00000000000E+00 -0.16620890217E+04  0.16620890217E+04  0.50400000000E-02 0.  1.
    8880022    1    1    2    0    0  0.57011463946E+03  0.68970560070E+03 -0.12559986666E+04  0.15497254019E+04  0.15294330000E+03 0.  0.
    8880022    1    1    2    0    0 -0.57011463946E+03 -0.68970560070E+03  0.53555539510E+03  0.10540093700E+04  0.15294330000E+03 0.  0.
<mgrwt>
<rscale>  0 0.90780844E+03</rscale>
<asrwt>0</asrwt>
<pdfrwt beam="1">  1        1 0.14486858E+00 0.90780844E+03</pdfrwt>
<pdfrwt beam="2">  1       -1 0.25570600E+00 0.90780844E+03</pdfrwt>
<totfact> 0.11016712E+00</totfact>
</mgrwt>
</event>
<event>
 4    1  0.8749406E-009  0.8819993E+03  0.7818608E-02  0.9448367E-01
         -1   -1    0    0    0  501 -0.00000000000E+00  0.00000000000E+00  0.71987493790E+03  0.71987493792E+03  0.50400000000E-02 0.  1.
          1   -1    0    0  501    0  0.00000000000E+00 -0.00000000000E+00 -0.23143513458E+04  0.23143513458E+04  0.50400000000E-02 0. -1.
    8880022    1    1    2    0    0  0.27775128323E+03  0.82303424976E+03 -0.19049092430E+04  0.20991908033E+04  0.15294330000E+03 0.  0.
    8880022    1    1    2    0    0 -0.27775128323E+03 -0.82303424976E+03  0.31043283506E+03  0.93503548045E+03  0.15294330000E+03 0.  0.
<mgrwt>
<rscale>  0 0.88199932E+03</rscale>
<asrwt>0</asrwt>
<pdfrwt beam="1">  1        1 0.35605405E+00 0.88199932E+03</pdfrwt>
<pdfrwt beam="2">  1       -1 0.11074999E+00 0.88199932E+03</pdfrwt>
<totfact> 0.14147481E+00</totfact>
</mgrwt>
</event>
<event>
 4    1  0.8749406E-009  0.1203640E+04  0.7818608E-02  0.9109676E-01
          1   -1    0    0  501    0  0.00000000000E+00  0.00000000000E+00  0.27979881074E+04  0.27979881074E+04  0.50400000000E-02 0. -1.
         -1   -1    0    0    0  501 -0.00000000000E+00 -0.00000000000E+00 -0.71745117830E+03  0.71745117832E+03  0.50400000000E-02 0.  1.
    8880022    1    1    2    0    0 -0.16089573399E+03  0.11829922547E+04  0.19675427396E+04  0.23065069254E+04  0.15294330000E+03 0.  0.
    8880022    1    1    2    0    0  0.16089573399E+03 -0.11829922547E+04  0.11299418948E+03  0.12089323603E+04  0.15294330000E+03 0.  0.
<mgrwt>
<rscale>  0 0.12036402E+04</rscale>
<asrwt>0</asrwt>
<pdfrwt beam="1">  1        1 0.43045971E+00 0.12036402E+04</pdfrwt>
<pdfrwt beam="2">  1       -1 0.11037710E+00 0.12036402E+04</pdfrwt>
<totfact> 0.62801558E-01</totfact>
</mgrwt>
</event>
<event>
 4    1  0.8749406E-009  0.1233236E+04  0.7818608E-02  0.9084252E-01
         -1   -1    0    0    0  501 -0.00000000000E+00  0.00000000000E+00  0.84382961968E+03  0.84382961970E+03  0.50400000000E-02 0.  1.
          1   -1    0    0  501    0  0.00000000000E+00 -0.00000000000E+00 -0.18623592149E+04  0.18623592149E+04  0.50400000000E-02 0. -1.
    8880022    1    1    2    0    0  0.12112949438E+04  0.17391118245E+03 -0.75216228554E+03  0.14445138618E+04  0.15294330000E+03 0.  0.
    8880022    1    1    2    0    0 -0.12112949438E+04 -0.17391118245E+03 -0.26636730965E+03  0.12616749728E+04  0.15294330000E+03 0.  0.
<mgrwt>
<rscale>  0 0.12332365E+04</rscale>
<asrwt>0</asrwt>
<pdfrwt beam="1">  1        1 0.28651680E+00 0.12332365E+04</pdfrwt>
<pdfrwt beam="2">  1       -1 0.12981994E+00 0.12332365E+04</pdfrwt>
<totfact> 0.18418684E+00</totfact>
</mgrwt>
</event>
<event>
 4    1  0.8749406E-009  0.5654695E+03  0.7818608E-02  0.9979754E-01
          1   -1    0    0  501    0  0.00000000000E+00  0.00000000000E+00  0.13123157425E+04  0.13123157425E+04  0.50400000000E-02 0. -1.
         -1   -1    0    0    0  501 -0.00000000000E+00 -0.00000000000E+00 -0.60070607273E+03  0.60070607275E+03  0.50400000000E-02 0.  1.
    8880022    1    1    2    0    0  0.29348803802E+03  0.45850728203E+03 -0.38162797604E+03  0.68219918004E+03  0.15294330000E+03 0.  0.
    8880022    1    1    2    0    0 -0.29348803802E+03 -0.45850728203E+03  0.10932376458E+04  0.12308226352E+04  0.15294330000E+03 0.  0.
<mgrwt>
<rscale>  0 0.56546955E+03</rscale>
<asrwt>0</asrwt>
<pdfrwt beam="1">  1        1 0.20189473E+00 0.56546955E+03</pdfrwt>
<pdfrwt beam="2">  1       -1 0.92416319E-01 0.56546955E+03</pdfrwt>
<totfact> 0.10783673E+01</totfact>
</mgrwt>
</event>
<event>
 4    1  0.8749406E-009  0.1331539E+04  0.7818608E-02  0.9004922E-01
         -1   -1    0    0    0  501 -0.00000000000E+00  0.00000000000E+00  0.61072051773E+03  0.61072051775E+03  0.50400000000E-02 0.  1.
          1   -1    0    0  501    0  0.00000000000E+00 -0.00000000000E+00 -0.38171710571E+04  0.38171710571E+04  0.50400000000E-02 0. -1.
    8880022    1    1    2    0    0  0.65618135555E+03  0.11484904712E+04 -0.51984481750E+03  0.14294175810E+04  0.15294330000E+03 0.  0.
    8880022    1    1    2    0    0 -0.65618135555E+03 -0.11484904712E+04 -0.26866057219E+04  0.29984739938E+04  0.15294330000E+03 0.  0.
<mgrwt>
<rscale>  0 0.13315390E+04</rscale>
<asrwt>0</asrwt>
<pdfrwt beam="1">  1        1 0.58725707E+00 0.13315390E+04</pdfrwt>
<pdfrwt beam="2">  1       -1 0.93957006E-01 0.13315390E+04</pdfrwt>
<totfact> 0.14992736E-01</totfact>
</mgrwt>
</event>
<event>
 4    1  0.8749406E-009  0.1043172E+04  0.7818608E-02  0.9262422E-01
          1   -1    0    0  501    0  0.00000000000E+00  0.00000000000E+00  0.20511211408E+04  0.20511211408E+04  0.50400000000E-02 0. -1.
         -1   -1    0    0    0  501 -0.00000000000E+00 -0.00000000000E+00 -0.71606480329E+03  0.71606480331E+03  0.50400000000E-02 0.  1.
    8880022    1    1    2    0    0 -0.10162803291E+04  0.17885865516E+03 -0.36726553092E+02  0.10438182881E+04  0.15294330000E+03 0.  0.
    8880022    1    1    2    0    0  0.10162803291E+04 -0.17885865516E+03  0.13717828906E+04  0.17233676560E+04  0.15294330000E+03 0.  0.
<mgrwt>
<rscale>  0 0.10431720E+04</rscale>
<asrwt>0</asrwt>
<pdfrwt beam="1">  1        1 0.31555709E+00 0.10431720E+04</pdfrwt>
<pdfrwt beam="2">  1       -1 0.11016382E+00 0.10431720E+04</pdfrwt>
<totfact> 0.21037697E+00</totfact>
</mgrwt>
</event>
<event>
 4    1  0.8749406E-009  0.6953194E+03  0.7818608E-02  0.9725270E-01
         -1   -1    0    0    0  501 -0.00000000000E+00  0.00000000000E+00  0.54698755676E+03  0.54698755679E+03  0.50400000000E-02 0.  1.
          1   -1    0    0  501    0  0.00000000000E+00 -0.00000000000E+00 -0.97970092640E+03  0.97970092641E+03  0.50400000000E-02 0. -1.
    8880022    1    1    2    0    0  0.64696362000E+03 -0.20375351255E+03  0.22376801935E+02  0.69567937569E+03  0.15294330000E+03 0.  0.
    8880022    1    1    2    0    0 -0.64696362000E+03  0.20375351255E+03 -0.45509017157E+03  0.83100910751E+03  0.15294330000E+03 0.  0.
<mgrwt>
<rscale>  0 0.69531940E+03</rscale>
<asrwt>0</asrwt>
<pdfrwt beam="1">  1        1 0.15072322E+00 0.69531940E+03</pdfrwt>
<pdfrwt beam="2">  1       -1 0.84151932E-01 0.69531940E+03</pdfrwt>
<totfact> 0.22737258E+01</totfact>
</mgrwt>
</event>
<event>
 4    1  0.8749406E-009  0.5879508E+03  0.7818608E-02  0.9930724E-01
         -1   -1    0    0    0  501 -0.00000000000E+00  0.00000000000E+00  0.32478478992E+03  0.32478478996E+03  0.50400000000E-02 0.  1.
          1   -1    0    0  501    0  0.00000000000E+00 -0.00000000000E+00 -0.15242942309E+04  0.15242942309E+04  0.50400000000E-02 0. -1.
    8880022    1    1    2    0    0 -0.52956789665E+03  0.20457841900E+03 -0.11076118515E+04  0.12539896943E+04  0.15294330000E+03 0.  0.
    8880022    1    1    2    0    0  0.52956789665E+03 -0.20457841900E+03 -0.91897589459E+02  0.59508932661E+03  0.15294330000E+03 0.  0.
<mgrwt>
<rscale>  0 0.58795080E+03</rscale>
<asrwt>0</asrwt>
<pdfrwt beam="1">  1        1 0.23450680E+00 0.58795080E+03</pdfrwt>
<pdfrwt beam="2">  1       -1 0.49966892E-01 0.58795080E+03</pdfrwt>
<totfact> 0.26737683E+01</totfact>
</mgrwt>
</event>
<event>
 4    1  0.8749406E-009  0.8082325E+03  0.7818608E-02  0.9548177E-01
         -1   -1    0    0    0  501 -0.00000000000E+00  0.00000000000E+00  0.11680641380E+04  0.11680641380E+04  0.50400000000E-02 0.  1.
          1   -1    0    0  501    0  0.00000000000E+00 -0.00000000000E+00 -0.12736131824E+04  0.12736131824E+04  0.50400000000E-02 0. -1.
    8880022    1    1    2    0    0  0.73794024651E+03 -0.29204859078E+03 -0.96709624951E+03  0.12603630412E+04  0.15294330000E+03 0.  0.
    8880022    1    1    2    0    0 -0.73794024651E+03  0.29204859078E+03  0.86154720509E+03  0.11813142793E+04  0.15294330000E+03 0.  1.
<mgrwt>
<rscale>  0 0.80823254E+03</rscale>
<asrwt>0</asrwt>
<pdfrwt beam="1">  1        1 0.19594049E+00 0.80823254E+03</pdfrwt>
<pdfrwt beam="2">  1       -1 0.17970218E+00 0.80823254E+03</pdfrwt>
<totfact> 0.20438316E+00</totfact>
</mgrwt>
</event>
<event>
 4    1  0.8749406E-009  0.6028616E+03  0.7818608E-02  0.9899487E-01
          1   -1    0    0  501    0  0.00000000000E+00  0.00000000000E+00  0.25553622460E+04  0.25553622460E+04  0.50400000000E-02 0. -1.
         -1   -1    0    0    0  501 -0.00000000000E+00 -0.00000000000E+00 -0.16260730238E+03  0.16260730246E+03  0.50400000000E-02 0.  1.
    8880022    1    1    2    0    0 -0.13455851485E+03 -0.56740149971E+03  0.16774907773E+04  0.17825311826E+04  0.15294330000E+03 0.  0.
    8880022    1    1    2    0    0  0.13455851485E+03  0.56740149971E+03  0.71526416629E+03  0.93543836589E+03  0.15294330000E+03 0.  0.
<mgrwt>
<rscale>  0 0.60286160E+03</rscale>
<asrwt>0</asrwt>
<pdfrwt beam="1">  1        1 0.39313262E+00 0.60286160E+03</pdfrwt>
<pdfrwt beam="2">  1       -1 0.25016510E-01 0.60286160E+03</pdfrwt>
<totfact> 0.18651838E+01</totfact>
</mgrwt>
</event>
<event>
 4    1  0.8749406E-009  0.4103446E+03  0.7818608E-02  0.1040255E+00
         -1   -1    0    0    0  501 -0.00000000000E+00  0.00000000000E+00  0.27345291171E+04  0.27345291171E+04  0.50400000000E-02 0.  1.
          1   -1    0    0  501    0  0.00000000000E+00 -0.00000000000E+00 -0.18355836220E+04  0.18355836220E+04  0.50400000000E-02 0. -1.
    8880022    1    1    2    0    0  0.36783156764E+03 -0.98442785667E+02  0.26958749286E+04  0.27269258017E+04  0.15294330000E+03 0.  0.
    8880022    1    1    2    0    0 -0.36783156764E+03  0.98442785667E+02 -0.17969294336E+04  0.18431869375E+04  0.15294330000E+03 0.  0.
<mgrwt>
<rscale>  0 0.41034461E+03</rscale>
<asrwt>0</asrwt>
<pdfrwt beam="1">  1        1 0.28239748E+00 0.41034461E+03</pdfrwt>
<pdfrwt beam="2">  1       -1 0.42069678E+00 0.41034461E+03</pdfrwt>
<totfact> 0.25306597E-02</totfact>
</mgrwt>
</event>
<event>
 4    1  0.8749406E-009  0.6402972E+03  0.7818608E-02  0.9825158E-01
         -1   -1    0    0    0  501 -0.00000000000E+00  0.00000000000E+00  0.11439652964E+04  0.11439652964E+04  0.50400000000E-02 0.  1.
          1   -1    0    0  501    0  0.00000000000E+00 -0.00000000000E+00 -0.46787320061E+03  0.46787320064E+03  0.50400000000E-02 0. -1.
    8880022    1    1    2    0    0 -0.41926083220E+03  0.45913957438E+03 -0.51815436762E+02  0.64239029155E+03  0.15294330000E+03 0.  0.
    8880022    1    1    2    0    0  0.41926083220E+03 -0.45913957438E+03  0.72790753254E+03  0.96944820549E+03  0.15294330000E+03 0.  0.
<mgrwt>
<rscale>  0 0.64029716E+03</rscale>
<asrwt>0</asrwt>
<pdfrwt beam="1">  1        1 0.71980492E-01 0.64029716E+03</pdfrwt>
<pdfrwt beam="2">  1       -1 0.17599466E+00 0.64029716E+03</pdfrwt>
<totfact> 0.11287250E+01</totfact>
</mgrwt>
</event>
<event>
 4    1  0.8749406E-009  0.4494789E+03  0.7818608E-02  0.1027878E+00
         -1   -1    0    0    0  501 -0.00000000000E+00  0.00000000000E+00  0.16111416666E+03  0.16111416674E+03  0.50400000000E-02 0.  1.
          1   -1    0    0  501    0  0.00000000000E+00 -0.00000000000E+00 -0.20237423694E+04  0.20237423694E+04  0.50400000000E-02 0. -1.
    8880022    1    1    2    0    0  0.18602036135E+03 -0.37952083067E+03 -0.25756483934E+03  0.51804530229E+03  0.15294330000E+03 0.  0.
    8880022    1    1    2    0    0 -0.18602036135E+03  0.37952083067E+03 -0.16050633634E+04  0.16668112339E+04  0.15294330000E+03 0.  1.
<mgrwt>
<rscale>  0 0.44947891E+03</rscale>
<asrwt>0</asrwt>
<pdfrwt beam="1">  1        1 0.31134496E+00 0.44947891E+03</pdfrwt>
<pdfrwt beam="2">  1       -1 0.24786796E-01 0.44947891E+03</pdfrwt>
<totfact> 0.44283905E+01</totfact>
</mgrwt>
</event>
<event>
 4    1  0.8749406E-009  0.8000912E+03  0.7818608E-02  0.9559885E-01
         -1   -1    0    0    0  501 -0.00000000000E+00  0.00000000000E+00  0.36384206803E+03  0.36384206806E+03  0.50400000000E-02 0.  1.
          1   -1    0    0  501    0  0.00000000000E+00 -0.00000000000E+00 -0.32503413163E+04  0.32503413163E+04  0.50400000000E-02 0. -1.
    8880022    1    1    2    0    0 -0.74971269551E+03  0.23384860346E+03 -0.21935199370E+03  0.82961511878E+03  0.15294330000E+03 0.  0.
    8880022    1    1    2    0    0  0.74971269551E+03 -0.23384860346E+03 -0.26671472546E+04  0.27845682656E+04  0.15294330000E+03 0.  0.
<mgrwt>
<rscale>  0 0.80009121E+03</rscale>
<asrwt>0</asrwt>
<pdfrwt beam="1">  1        1 0.50005249E+00 0.80009121E+03</pdfrwt>
<pdfrwt beam="2">  1       -1 0.55975705E-01 0.80009121E+03</pdfrwt>
<totfact> 0.13477057E+00</totfact>
</mgrwt>
</event>
<event>
 4    1  0.8749406E-009  0.4065031E+03  0.7818608E-02  0.1041551E+00
         -1   -1    0    0    0  501 -0.00000000000E+00  0.00000000000E+00  0.33311191743E+03  0.33311191747E+03  0.50400000000E-02 0.  1.
          1   -1    0    0  501    0  0.00000000000E+00 -0.00000000000E+00 -0.28607938033E+04  0.28607938033E+04  0.50400000000E-02 0. -1.
    8880022    1    1    2    0    0  0.37397343361E+03 -0.44687752186E+02  0.18806871951E+03  0.44790023500E+03  0.15294330000E+03 0.  1.
    8880022    1    1    2    0    0 -0.37397343361E+03  0.44687752186E+02 -0.27157506054E+04  0.27460054858E+04  0.15294330000E+03 0.  0.
<mgrwt>
<rscale>  0 0.40650311E+03</rscale>
<asrwt>0</asrwt>
<pdfrwt beam="1">  1        1 0.44012211E+00 0.40650311E+03</pdfrwt>
<pdfrwt beam="2">  1       -1 0.51247989E-01 0.40650311E+03</pdfrwt>
<totfact> 0.33825959E+00</totfact>
</mgrwt>
</event>
<event>
 4    1  0.8749406E-009  0.9236836E+03  0.7818608E-02  0.9396451E-01
          1   -1    0    0  501    0  0.00000000000E+00  0.00000000000E+00  0.13803765137E+04  0.13803765137E+04  0.50400000000E-02 0. -1.
         -1   -1    0    0    0  501 -0.00000000000E+00 -0.00000000000E+00 -0.95418331169E+03  0.95418331170E+03  0.50400000000E-02 0.  1.
    8880022    1    1    2    0    0 -0.65655868451E+03  0.63145109646E+03 -0.47967743116E+03  0.10408082842E+04  0.15294330000E+03 0.  0.
    8880022    1    1    2    0    0  0.65655868451E+03 -0.63145109646E+03  0.90587063319E+03  0.12937515413E+04  0.15294330000E+03 0.  0.
<mgrwt>
<rscale>  0 0.92368363E+03</rscale>
<asrwt>0</asrwt>
<pdfrwt beam="1">  1        1 0.21236562E+00 0.92368363E+03</pdfrwt>
<pdfrwt beam="2">  1       -1 0.14679743E+00 0.92368363E+03</pdfrwt>
<totfact> 0.29763842E+00</totfact>
</mgrwt>
</event>
<event>
 4    1  0.8749406E-009  0.5449007E+03  0.7818608E-02  0.1002681E+00
          1   -1    0    0  501    0  0.00000000000E+00  0.00000000000E+00  0.31728000192E+04  0.31728000192E+04  0.50400000000E-02 0. -1.
         -1   -1    0    0    0  501 -0.00000000000E+00 -0.00000000000E+00 -0.75843004980E+03  0.75843004982E+03  0.50400000000E-02 0.  1.
    8880022    1    1    2    0    0 -0.52123908300E+03  0.42836372812E+02 -0.63317133841E+03  0.83535784744E+03  0.15294330000E+03 0.  0.
    8880022    1    1    2    0    0  0.52123908300E+03 -0.42836372812E+02  0.30475413078E+04  0.30958722216E+04  0.15294330000E+03 0.  0.
<mgrwt>
<rscale>  0 0.54490072E+03</rscale>
<asrwt>0</asrwt>
<pdfrwt beam="1">  1        1 0.48812307E+00 0.54490072E+03</pdfrwt>
<pdfrwt beam="2">  1       -1 0.11668155E+00 0.54490072E+03</pdfrwt>
<totfact> 0.34208760E-01</totfact>
</mgrwt>
</event>
<event>
 4    1  0.8749406E-009  0.1396857E+04  0.7818608E-02  0.8956097E-01
          1   -1    0    0  501    0  0.00000000000E+00  0.00000000000E+00  0.13906479368E+04  0.13906479368E+04  0.50400000000E-02 0. -1.
         -1   -1    0    0    0  501 -0.00000000000E+00 -0.00000000000E+00 -0.14646472673E+04  0.14646472673E+04  0.50400000000E-02 0.  1.
    8880022    1    1    2    0    0 -0.11068780732E+04 -0.83823562682E+03 -0.32967105938E+03  0.14352326276E+04  0.15294330000E+03 0.  0.
    8880022    1    1    2    0    0  0.11068780732E+04  0.83823562682E+03  0.25567172892E+03  0.14200625764E+04  0.15294330000E+03 0.  0.
<mgrwt>
<rscale>  0 0.13968571E+04</rscale>
<asrwt>0</asrwt>
<pdfrwt beam="1">  1        1 0.21394584E+00 0.13968571E+04</pdfrwt>
<pdfrwt beam="2">  1       -1 0.22533035E+00 0.13968571E+04</pdfrwt>
<totfact> 0.75740648E-01</totfact>
</mgrwt>
</event>
<event>
 4    1  0.8749406E-009  0.1067642E+04  0.7818608E-02  0.9237317E-01
          1   -1    0    0  501    0  0.00000000000E+00  0.00000000000E+00  0.10441706874E+04  0.10441706875E+04  0.50400000000E-02 0. -1.
         -1   -1    0    0    0  501 -0.00000000000E+00 -0.00000000000E+00 -0.21010958004E+04  0.21010958004E+04  0.50400000000E-02 0.  1.
    8880022    1    1    2    0    0  0.21956353799E+02 -0.10564019881E+04 -0.16185167624E+04  0.19389315112E+04  0.15294330000E+03 0.  0.
    8880022    1    1    2    0    0 -0.21956353799E+02  0.10564019881E+04  0.56159164953E+03  0.12063349766E+04  0.15294330000E+03 0.  0.
<mgrwt>
<rscale>  0 0.10676417E+04</rscale>
<asrwt>0</asrwt>
<pdfrwt beam="1">  1        1 0.16064164E+00 0.10676417E+04</pdfrwt>
<pdfrwt beam="2">  1       -1 0.32324551E+00 0.10676417E+04</pdfrwt>
<totfact> 0.32792515E-01</totfact>
</mgrwt>
</event>
<event>
 4    1  0.8749406E-009  0.6916782E+03  0.7818608E-02  0.9731570E-01
         -1   -1    0    0    0  501 -0.00000000000E+00  0.00000000000E+00  0.21421845902E+03  0.21421845908E+03  0.50400000000E-02 0.  1.
          1   -1    0    0  501    0  0.00000000000E+00 -0.00000000000E+00 -0.23519068814E+04  0.23519068814E+04  0.50400000000E-02 0. -1.
    8880022    1    1    2    0    0  0.67402578534E+03 -0.26763311701E+02 -0.78073747518E+03  0.10430578567E+04  0.15294330000E+03 0.  0.
    8880022    1    1    2    0    0 -0.67402578534E+03  0.26763311701E+02 -0.13569509472E+04  0.15230674838E+04  0.15294330000E+03 0.  0.
<mgrwt>
<rscale>  0 0.69167817E+03</rscale>
<asrwt>0</asrwt>
<pdfrwt beam="1">  1        1 0.36183181E+00 0.69167817E+03</pdfrwt>
<pdfrwt beam="2">  1       -1 0.32956688E-01 0.69167817E+03</pdfrwt>
<totfact> 0.15664030E+01</totfact>
</mgrwt>
</event>
<event>
 4    1  0.8749406E-009  0.1121739E+04  0.7818608E-02  0.9184259E-01
          1   -1    0    0  501    0  0.00000000000E+00  0.00000000000E+00  0.55093353969E+03  0.55093353971E+03  0.50400000000E-02 0. -1.
         -1   -1    0    0    0  501 -0.00000000000E+00 -0.00000000000E+00 -0.38422965481E+04  0.38422965481E+04  0.50400000000E-02 0.  1.
    8880022    1    1    2    0    0  0.96788047374E+03 -0.54599812191E+03 -0.30445992033E+04  0.32446698634E+04  0.15294330000E+03 0.  0.
    8880022    1    1    2    0    0 -0.96788047374E+03  0.54599812191E+03 -0.24676380509E+03  0.11485602244E+04  0.15294330000E+03 0.  0.
<mgrwt>
<rscale>  0 0.11217389E+04</rscale>
<asrwt>0</asrwt>
<pdfrwt beam="1">  1        1 0.84759009E-01 0.11217389E+04</pdfrwt>
<pdfrwt beam="2">  1       -1 0.59112253E+00 0.11217389E+04</pdfrwt>
<totfact> 0.18017607E-02</totfact>
</mgrwt>
</event>
<event>
 4    1  0.8749406E-009  0.9852594E+03  0.7818608E-02  0.9324861E-01
          1   -1    0    0  501    0  0.00000000000E+00  0.00000000000E+00  0.10688958685E+04  0.10688958686E+04  0.50400000000E-02 0. -1.
         -1   -1    0    0    0  501 -0.00000000000E+00 -0.00000000000E+00 -0.11304397932E+04  0.11304397933E+04  0.50400000000E-02 0.  1.
    8880022    1    1    2    0    0  0.56174939953E+02 -0.97169378982E+03  0.45684726763E+03  0.10860228009E+04  0.15294330000E+03 0.  0.
    8880022    1    1    2    0    0 -0.56174939953E+02  0.97169378982E+03 -0.51839119233E+03  0.11133128609E+04  0.15294330000E+03 0.  0.
<mgrwt>
<rscale>  0 0.98525941E+03</rscale>
<asrwt>0</asrwt>
<pdfrwt beam="1">  1        1 0.16444552E+00 0.98525941E+03</pdfrwt>
<pdfrwt beam="2">  1       -1 0.17391381E+00 0.98525941E+03</pdfrwt>
<totfact> 0.30996250E+00</totfact>
</mgrwt>
</event>
<event>
 4    1  0.8749406E-009  0.2122656E+03  0.7818608E-02  0.1139784E+00
          1   -1    0    0  501    0  0.00000000000E+00  0.00000000000E+00  0.21745646754E+04  0.21745646754E+04  0.50400000000E-02 0. -1.
         -1   -1    0    0    0  501 -0.00000000000E+00 -0.00000000000E+00 -0.31443948262E+03  0.31443948266E+03  0.50400000000E-02 0.  1.
    8880022    1    1    2    0    0 -0.14458736642E+03 -0.27559314520E+02 -0.27273782291E+03  0.34560468082E+03  0.15294330000E+03 0.  1.
    8880022    1    1    2    0    0  0.14458736642E+03  0.27559314520E+02  0.21328630157E+04  0.21433994773E+04  0.15294330000E+03 0.  0.
<mgrwt>
<rscale>  0 0.21226558E+03</rscale>
<asrwt>0</asrwt>
<pdfrwt beam="1">  1        1 0.33454842E+00 0.21226558E+03</pdfrwt>
<pdfrwt beam="2">  1       -1 0.48375303E-01 0.21226558E+03</pdfrwt>
<totfact> 0.11884500E+01</totfact>
</mgrwt>
</event>
<event>
 4    1  0.8749406E-009  0.6123684E+03  0.7818608E-02  0.9880073E-01
          1   -1    0    0  501    0  0.00000000000E+00  0.00000000000E+00  0.12702133791E+04  0.12702133792E+04  0.50400000000E-02 0. -1.
         -1   -1    0    0    0  501 -0.00000000000E+00 -0.00000000000E+00 -0.51411476517E+03  0.51411476520E+03  0.50400000000E-02 0.  1.
    8880022    1    1    2    0    0 -0.50076744234E+03 -0.31754594430E+03  0.96019308130E+03  0.11388440914E+04  0.15294330000E+03 0. -1.
    8880022    1    1    2    0    0  0.50076744234E+03  0.31754594430E+03 -0.20409446733E+03  0.64548405298E+03  0.15294330000E+03 0.  0.
<mgrwt>
<rscale>  0 0.61236844E+03</rscale>
<asrwt>0</asrwt>
<pdfrwt beam="1">  1        1 0.19541744E+00 0.61236844E+03</pdfrwt>
<pdfrwt beam="2">  1       -1 0.79094581E-01 0.61236844E+03</pdfrwt>
<totfact> 0.16012602E+01</totfact>
</mgrwt>
</event>
<event>
 4    1  0.8749406E-009  0.9069129E+03  0.7818608E-02  0.9416981E-01
         -1   -1    0    0    0  501 -0.00000000000E+00  0.00000000000E+00  0.68441316702E+03  0.68441316704E+03  0.50400000000E-02 0.  1.
          1   -1    0    0  501    0  0.00000000000E+00 -0.00000000000E+00 -0.14369251885E+04  0.14369251885E+04  0.50400000000E-02 0. -1.
    8880022    1    1    2    0    0 -0.83278981502E+03 -0.32490065086E+03 -0.80535952965E+03  0.12128870244E+04  0.15294330000E+03 0.  0.
    8880022    1    1    2    0    0  0.83278981502E+03  0.32490065086E+03  0.52847508173E+02  0.90845133115E+03  0.15294330000E+03 0.  0.
<mgrwt>
<rscale>  0 0.90691287E+03</rscale>
<asrwt>0</asrwt>
<pdfrwt beam="1">  1        1 0.22106541E+00 0.90691287E+03</pdfrwt>
<pdfrwt beam="2">  1       -1 0.10529433E+00 0.90691287E+03</pdfrwt>
<totfact> 0.62242079E+00</totfact>
</mgrwt>
</event>
<event>
 4    1  0.8749406E-009  0.8556390E+03  0.7818608E-02  0.9482800E-01
         -1   -1    0    0    0  501 -0.00000000000E+00  0.00000000000E+00  0.35416094193E+04  0.35416094193E+04  0.50400000000E-02 0.  1.
          1   -1    0    0  501    0  0.00000000000E+00 -0.00000000000E+00 -0.19838610179E+04  0.19838610180E+04  0.50400000000E-02 0. -1.
    8880022    1    1    2    0    0 -0.82503683249E+03  0.16745334294E+03 -0.18359633106E+04  0.20255565477E+04  0.15294330000E+03 0.  0.
    8880022    1    1    2    0    0  0.82503683249E+03 -0.16745334294E+03  0.33937117120E+04  0.34999138895E+04  0.15294330000E+03 0.  0.
<mgrwt>
<rscale>  0 0.85563897E+03</rscale>
<asrwt>0</asrwt>
<pdfrwt beam="1">  1        1 0.30520939E+00 0.85563897E+03</pdfrwt>
<pdfrwt beam="2">  1       -1 0.54486298E+00 0.85563897E+03</pdfrwt>
<totfact> 0.25646849E-03</totfact>
</mgrwt>
</event>
<event>
 4    1  0.8749406E-009  0.7795751E+03  0.7818608E-02  0.9590061E-01
         -1   -1    0    0    0  501 -0.00000000000E+00  0.00000000000E+00  0.20195601365E+04  0.20195601366E+04  0.50400000000E-02 0.  1.
          1   -1    0    0  501    0  0.00000000000E+00 -0.00000000000E+00 -0.51499075809E+03  0.51499075812E+03  0.50400000000E-02 0. -1.
    8880022    1    1    2    0    0 -0.53720363459E+03  0.54383638189E+03 -0.64757090091E+02  0.78226011595E+03  0.15294330000E+03 0.  0.
    8880022    1    1    2    0    0  0.53720363459E+03 -0.54383638189E+03  0.15693264685E+04  0.17522907787E+04  0.15294330000E+03 0.  0.
<mgrwt>
<rscale>  0 0.77957515E+03</rscale>
<asrwt>0</asrwt>
<pdfrwt beam="1">  1        1 0.79229346E-01 0.77957515E+03</pdfrwt>
<pdfrwt beam="2">  1       -1 0.31070157E+00 0.77957515E+03</pdfrwt>
<totfact> 0.12575285E+00</totfact>
</mgrwt>
</event>
<event>
 4    1  0.8749406E-009  0.7987857E+03  0.7818608E-02  0.9561776E-01
          1   -1    0    0  501    0  0.00000000000E+00  0.00000000000E+00  0.11479831945E+04  0.11479831945E+04  0.50400000000E-02 0. -1.
         -1   -1    0    0    0  501 -0.00000000000E+00 -0.00000000000E+00 -0.16673426864E+04  0.16673426864E+04  0.50400000000E-02 0.  1.
    8880022    1    1    2    0    0 -0.30317500879E+03 -0.72301582511E+03 -0.14090175402E+04  0.16196879486E+04  0.15294330000E+03 0.  0.
    8880022    1    1    2    0    0  0.30317500879E+03  0.72301582511E+03  0.88965804832E+03  0.11956379323E+04  0.15294330000E+03 0.  0.
<mgrwt>
<rscale>  0 0.79878572E+03</rscale>
<asrwt>0</asrwt>
<pdfrwt beam="1">  1        1 0.17661280E+00 0.79878572E+03</pdfrwt>
<pdfrwt beam="2">  1       -1 0.25651426E+00 0.79878572E+03</pdfrwt>
<totfact> 0.77128177E-01</totfact>
</mgrwt>
</event>
<event>
 4    1  0.8749406E-009  0.1169682E+04  0.7818608E-02  0.9139816E-01
          1   -1    0    0  501    0  0.00000000000E+00  0.00000000000E+00  0.17809098414E+04  0.17809098414E+04  0.50400000000E-02 0. -1.
         -1   -1    0    0    0  501 -0.00000000000E+00 -0.00000000000E+00 -0.13102683861E+04  0.13102683861E+04  0.50400000000E-02 0.  1.
    8880022    1    1    2    0    0 -0.26850955842E+03  0.11281249323E+04  0.12294147708E+04  0.16969430095E+04  0.15294330000E+03 0.  0.
    8880022    1    1    2    0    0  0.26850955842E+03 -0.11281249323E+04 -0.75877331549E+03  0.13942352180E+04  0.15294330000E+03 0.  0.
<mgrwt>
<rscale>  0 0.11696815E+04</rscale>
<asrwt>0</asrwt>
<pdfrwt beam="1">  1        1 0.27398613E+00 0.11696815E+04</pdfrwt>
<pdfrwt beam="2">  1       -1 0.20157975E+00 0.11696815E+04</pdfrwt>
<totfact> 0.60668543E-01</totfact>
</mgrwt>
</event>
<event>
 4    1  0.8749406E-009  0.5764693E+03  0.7818608E-02  0.9955464E-01
          1   -1    0    0  501    0  0.00000000000E+00  0.00000000000E+00  0.12694013054E+04  0.12694013054E+04  0.50400000000E-02 0. -1.
         -1   -1    0    0    0  501 -0.00000000000E+00 -0.00000000000E+00 -0.76359729878E+03  0.76359729880E+03  0.50400000000E-02 0.  1.
    8880022    1    1    2    0    0  0.31982898641E+03 -0.45457074600E+03  0.10769325325E+04  0.12215156471E+04  0.15294330000E+03 0.  0.
    8880022    1    1    2    0    0 -0.31982898641E+03  0.45457074600E+03 -0.57112852582E+03  0.81148295711E+03  0.15294330000E+03 0.  0.
<mgrwt>
<rscale>  0 0.57646925E+03</rscale>
<asrwt>0</asrwt>
<pdfrwt beam="1">  1        1 0.19529251E+00 0.57646925E+03</pdfrwt>
<pdfrwt beam="2">  1       -1 0.11747651E+00 0.57646925E+03</pdfrwt>
<totfact> 0.66395441E+00</totfact>
</mgrwt>
</event>
<event>
 4    1  0.8749406E-009  0.3213011E+03  0.7818608E-02  0.1075052E+00
         -1   -1    0    0    0  501 -0.00000000000E+00  0.00000000000E+00  0.21675417655E+03  0.21675417661E+03  0.50400000000E-02 0.  1.
          1   -1    0    0  501    0  0.00000000000E+00 -0.00000000000E+00 -0.18736651006E+04  0.18736651006E+04  0.50400000000E-02 0. -1.
    8880022    1    1    2    0    0  0.27227593344E+03  0.75555196237E+02 -0.17310992046E+04  0.17606643294E+04  0.15294330000E+03 0.  0.
    8880022    1    1    2    0    0 -0.27227593344E+03 -0.75555196237E+02  0.74188280575E+02  0.32975494780E+03  0.15294330000E+03 0.  1.
<mgrwt>
<rscale>  0 0.32130114E+03</rscale>
<asrwt>0</asrwt>
<pdfrwt beam="1">  1        1 0.28825616E+00 0.32130114E+03</pdfrwt>
<pdfrwt beam="2">  1       -1 0.33346798E-01 0.32130114E+03</pdfrwt>
<totfact> 0.34526541E+01</totfact>
</mgrwt>
</event>
<event>
 4    1  0.8749406E-009  0.5202876E+03  0.7818608E-02  0.1008615E+00
          1   -1    0    0  501    0  0.00000000000E+00  0.00000000000E+00  0.12115878344E+04  0.12115878344E+04  0.50400000000E-02 0. -1.
         -1   -1    0    0    0  501 -0.00000000000E+00 -0.00000000000E+00 -0.54204700248E+03  0.54204700250E+03  0.50400000000E-02 0.  1.
    8880022    1    1    2    0    0  0.39752336215E+03  0.29880206940E+03 -0.33747600249E+03  0.62015256623E+03  0.15294330000E+03 0.  0.
    8880022    1    1    2    0    0 -0.39752336215E+03 -0.29880206940E+03  0.10070168344E+04  0.11334822707E+04  0.15294330000E+03 0.  0.
<mgrwt>
<rscale>  0 0.52028757E+03</rscale>
<asrwt>0</asrwt>
<pdfrwt beam="1">  1        1 0.18639813E+00 0.52028757E+03</pdfrwt>
<pdfrwt beam="2">  1       -1 0.83391847E-01 0.52028757E+03</pdfrwt>
<totfact> 0.16016054E+01</totfact>
</mgrwt>
</event>
<event>
 4    1  0.8749406E-009  0.4938292E+03  0.7818608E-02  0.1015402E+00
          1   -1    0    0  501    0  0.00000000000E+00  0.00000000000E+00  0.16638778659E+04  0.16638778659E+04  0.50400000000E-02 0. -1.
         -1   -1    0    0    0  501 -0.00000000000E+00 -0.00000000000E+00 -0.54533147875E+03  0.54533147877E+03  0.50400000000E-02 0.  1.
    8880022    1    1    2    0    0 -0.43388795179E+03 -0.17949048933E+03  0.15038463334E+04  0.15828521845E+04  0.15294330000E+03 0.  0.
    8880022    1    1    2    0    0  0.43388795179E+03  0.17949048933E+03 -0.38529994628E+03  0.62635716016E+03  0.15294330000E+03 0.  0.
<mgrwt>
<rscale>  0 0.49382916E+03</rscale>
<asrwt>0</asrwt>
<pdfrwt beam="1">  1        1 0.25598120E+00 0.49382916E+03</pdfrwt>
<pdfrwt beam="2">  1       -1 0.83897153E-01 0.49382916E+03</pdfrwt>
<totfact> 0.77908810E+00</totfact>
</mgrwt>
</event>
<event>
 4    1  0.8749406E-009  0.6694388E+03  0.7818608E-02  0.9770972E-01
          1   -1    0    0  501    0  0.00000000000E+00  0.00000000000E+00  0.11098842271E+04  0.11098842271E+04  0.50400000000E-02 0. -1.
         -1   -1    0    0    0  501 -0.00000000000E+00 -0.00000000000E+00 -0.96923949651E+03  0.96923949652E+03  0.50400000000E-02 0.  1.
    8880022    1    1    2    0    0 -0.28644051582E+03  0.58541306336E+03  0.86435034506E+03  0.10932748035E+04  0.15294330000E+03 0.  0.
    8880022    1    1    2    0    0  0.28644051582E+03 -0.58541306336E+03 -0.72370561450E+03  0.98584892014E+03  0.15294330000E+03 0.  1.
<mgrwt>
<rscale>  0 0.66943878E+03</rscale>
<asrwt>0</asrwt>
<pdfrwt beam="1">  1        1 0.17075142E+00 0.66943878E+03</pdfrwt>
<pdfrwt beam="2">  1       -1 0.14911377E+00 0.66943878E+03</pdfrwt>
<totfact> 0.46496421E+00</totfact>
</mgrwt>
</event>
<event>
 4    1  0.8749406E-009  0.9946547E+03  0.7818608E-02  0.9314427E-01
         -1   -1    0    0    0  501 -0.00000000000E+00  0.00000000000E+00  0.22369060300E+04  0.22369060300E+04  0.50400000000E-02 0.  1.
          1   -1    0    0  501    0  0.00000000000E+00 -0.00000000000E+00 -0.52765037798E+03  0.52765037800E+03  0.50400000000E-02 0. -1.
    8880022    1    1    2    0    0 -0.95724549887E+03  0.22277182064E+03  0.29862502703E+03  0.10385156662E+04  0.15294330000E+03 0.  0.
    8880022    1    1    2    0    0  0.95724549887E+03 -0.22277182064E+03  0.14106306250E+04  0.17260407418E+04  0.15294330000E+03 0.  0.
<mgrwt>
<rscale>  0 0.99465465E+03</rscale>
<asrwt>0</asrwt>
<pdfrwt beam="1">  1        1 0.81176982E-01 0.99465465E+03</pdfrwt>
<pdfrwt beam="2">  1       -1 0.34413939E+00 0.99465465E+03</pdfrwt>
<totfact> 0.71327996E-01</totfact>
</mgrwt>
</event>
<event>
 4    1  0.8749406E-009  0.1242745E+04  0.7818608E-02  0.9076243E-01
          1   -1    0    0  501    0  0.00000000000E+00  0.00000000000E+00  0.13880532506E+04  0.13880532506E+04  0.50400000000E-02 0. -1.
         -1   -1    0    0    0  501 -0.00000000000E+00 -0.00000000000E+00 -0.18141252898E+04  0.18141252898E+04  0.50400000000E-02 0.  1.
    8880022    1    1    2    0    0  0.16363276198E+03 -0.12223947745E+04  0.78257191474E+03  0.14686167370E+04  0.15294330000E+03 0.  0.
    8880022    1    1    2    0    0 -0.16363276198E+03  0.12223947745E+04 -0.12086439539E+04  0.17335618033E+04  0.15294330000E+03 0.  0.
<mgrwt>
<rscale>  0 0.12427455E+04</rscale>
<asrwt>0</asrwt>
<pdfrwt beam="1">  1        1 0.21354665E+00 0.12427455E+04</pdfrwt>
<pdfrwt beam="2">  1       -1 0.27909620E+00 0.12427455E+04</pdfrwt>
<totfact> 0.34514356E-01</totfact>
</mgrwt>
</event>
<event>
 4    1  0.8749406E-009  0.4198245E+03  0.7818608E-02  0.1037123E+00
         -1   -1    0    0    0  501 -0.00000000000E+00  0.00000000000E+00  0.11916683770E+04  0.11916683770E+04  0.50400000000E-02 0.  1.
          1   -1    0    0  501    0  0.00000000000E+00 -0.00000000000E+00 -0.78679476107E+03  0.78679476108E+03  0.50400000000E-02 0. -1.
    8880022    1    1    2    0    0  0.24900803027E+03 -0.30142319954E+03 -0.68897938599E+03  0.80681174489E+03  0.15294330000E+03 0.  0.
    8880022    1    1    2    0    0 -0.24900803027E+03  0.30142319954E+03  0.10938530019E+04  0.11716513932E+04  0.15294330000E+03 0.  0.
<mgrwt>
<rscale>  0 0.41982448E+03</rscale>
<asrwt>0</asrwt>
<pdfrwt beam="1">  1        1 0.12104535E+00 0.41982448E+03</pdfrwt>
<pdfrwt beam="2">  1       -1 0.18333360E+00 0.41982448E+03</pdfrwt>
<totfact> 0.49587813E+00</totfact>
</mgrwt>
</event>
<event>
 4    1  0.8749406E-009  0.4962201E+03  0.7818608E-02  0.1014770E+00
         -1   -1    0    0    0  501 -0.00000000000E+00  0.00000000000E+00  0.12593034143E+04  0.12593034143E+04  0.50400000000E-02 0.  1.
          1   -1    0    0  501    0  0.00000000000E+00 -0.00000000000E+00 -0.40170455501E+03  0.40170455504E+03  0.50400000000E-02 0. -1.
    8880022    1    1    2    0    0  0.47193517652E+03 -0.10951594796E+02  0.10237810219E+04  0.11377003041E+04  0.15294330000E+03 0.  0.
    8880022    1    1    2    0    0 -0.47193517652E+03  0.10951594796E+02 -0.16618216260E+03  0.52330766519E+03  0.15294330000E+03 0.  0.
<mgrwt>
<rscale>  0 0.49622011E+03</rscale>
<asrwt>0</asrwt>
<pdfrwt beam="1">  1        1 0.61800701E-01 0.49622011E+03</pdfrwt>
<pdfrwt beam="2">  1       -1 0.19373899E+00 0.49622011E+03</pdfrwt>
<totfact> 0.10627348E+01</totfact>
</mgrwt>
</event>
<event>
 4    1  0.8749406E-009  0.1080531E+04  0.7818608E-02  0.9224378E-01
          1   -1    0    0  501    0  0.00000000000E+00  0.00000000000E+00  0.14560010908E+04  0.14560010908E+04  0.50400000000E-02 0. -1.
         -1   -1    0    0    0  501 -0.00000000000E+00 -0.00000000000E+00 -0.21938093295E+04  0.21938093295E+04  0.50400000000E-02 0.  1.
    8880022    1    1    2    0    0 -0.46358830573E+03 -0.96397216787E+03  0.10847075402E+04  0.15310579866E+04  0.15294330000E+03 0.  0.
    8880022    1    1    2    0    0  0.46358830573E+03  0.96397216787E+03 -0.18225157789E+04  0.21187524337E+04  0.15294330000E+03 0.  0.
<mgrwt>
<rscale>  0 0.10805314E+04</rscale>
<asrwt>0</asrwt>
<pdfrwt beam="1">  1        1 0.22400017E+00 0.10805314E+04</pdfrwt>
<pdfrwt beam="2">  1       -1 0.33750913E+00 0.10805314E+04</pdfrwt>
<totfact> 0.13277868E-01</totfact>
</mgrwt>
</event>
<event>
 4    1  0.8749406E-009  0.8926112E+03  0.7818608E-02  0.9434865E-01
          1   -1    0    0  501    0  0.00000000000E+00  0.00000000000E+00  0.90021900736E+03  0.90021900737E+03  0.50400000000E-02 0. -1.
         -1   -1    0    0    0  501 -0.00000000000E+00 -0.00000000000E+00 -0.16129221648E+04  0.16129221648E+04  0.50400000000E-02 0.  1.
    8880022    1    1    2    0    0  0.79025953185E+03 -0.38581460910E+03  0.48776510467E+03  0.10171870480E+04  0.15294330000E+03 0.  0.
    8880022    1    1    2    0    0 -0.79025953185E+03  0.38581460910E+03 -0.12004682621E+04  0.14959541242E+04  0.15294330000E+03 0.  0.
<mgrwt>
<rscale>  0 0.89261117E+03</rscale>
<asrwt>0</asrwt>
<pdfrwt beam="1">  1        1 0.13849523E+00 0.89261117E+03</pdfrwt>
<pdfrwt beam="2">  1       -1 0.24814187E+00 0.89261117E+03</pdfrwt>
<totfact> 0.13352655E+00</totfact>
</mgrwt>
</event>
<event>
 4    1  0.8749406E-009  0.7028439E+03  0.7818608E-02  0.9712381E-01
          1   -1    0    0  501    0  0.00000000000E+00  0.00000000000E+00  0.11378232910E+04  0.11378232910E+04  0.50400000000E-02 0. -1.
         -1   -1    0    0    0  501 -0.00000000000E+00 -0.00000000000E+00 -0.10448664967E+04  0.10448664967E+04  0.50400000000E-02 0.  1.
    8880022    1    1    2    0    0  0.45173709894E+03 -0.51626692274E+03  0.88083232621E+03  0.11268785125E+04  0.15294330000E+03 0. -1.
    8880022    1    1    2    0    0 -0.45173709894E+03  0.51626692274E+03 -0.78787553190E+03  0.10558112752E+04  0.15294330000E+03 0.  0.
<mgrwt>
<rscale>  0 0.70284393E+03</rscale>
<asrwt>0</asrwt>
<pdfrwt beam="1">  1        1 0.17504974E+00 0.70284393E+03</pdfrwt>
<pdfrwt beam="2">  1       -1 0.16074869E+00 0.70284393E+03</pdfrwt>
<totfact> 0.35917858E+00</totfact>
</mgrwt>
</event>
<event>
 4    1  0.8749406E-009  0.1355387E+04  0.7818608E-02  0.8986760E-01
         -1   -1    0    0    0  501 -0.00000000000E+00  0.00000000000E+00  0.11537548409E+04  0.11537548409E+04  0.50400000000E-02 0.  1.
          1   -1    0    0  501    0  0.00000000000E+00 -0.00000000000E+00 -0.21287466447E+04  0.21287466448E+04  0.50400000000E-02 0. -1.
    8880022    1    1    2    0    0  0.11905100981E+04 -0.62957826961E+03 -0.13114318208E+04  0.18859820160E+04  0.15294330000E+03 0.  0.
    8880022    1    1    2    0    0 -0.11905100981E+04  0.62957826961E+03  0.33644001693E+03  0.13965194697E+04  0.15294330000E+03 0.  0.
<mgrwt>
<rscale>  0 0.13553873E+04</rscale>
<asrwt>0</asrwt>
<pdfrwt beam="1">  1        1 0.32749948E+00 0.13553873E+04</pdfrwt>
<pdfrwt beam="2">  1       -1 0.17750075E+00 0.13553873E+04</pdfrwt>
<totfact> 0.50895092E-01</totfact>
</mgrwt>
</event>
<event>
 4    1  0.8749406E-009  0.4645297E+03  0.7818608E-02  0.1023476E+00
          1   -1    0    0  501    0  0.00000000000E+00  0.00000000000E+00  0.16126227011E+04  0.16126227011E+04  0.50400000000E-02 0. -1.
         -1   -1    0    0    0  501 -0.00000000000E+00 -0.00000000000E+00 -0.28629210917E+03  0.28629210921E+03  0.50400000000E-02 0.  1.
    8880022    1    1    2    0    0  0.40651224490E+03  0.16475436877E+03  0.13560767733E+04  0.14334336662E+04  0.15294330000E+03 0.  0.
    8880022    1    1    2    0    0 -0.40651224490E+03 -0.16475436877E+03 -0.29746181303E+02  0.46548114419E+03  0.15294330000E+03 0.  0.
<mgrwt>
<rscale>  0 0.46452972E+03</rscale>
<asrwt>0</asrwt>
<pdfrwt beam="1">  1        1 0.24809580E+00 0.46452972E+03</pdfrwt>
<pdfrwt beam="2">  1       -1 0.44044939E-01 0.46452972E+03</pdfrwt>
<totfact> 0.30149215E+01</totfact>
</mgrwt>
</event>
<event>
 4    1  0.8749406E-009  0.1058374E+04  0.7818608E-02  0.9246741E-01
         -1   -1    0    0    0  501 -0.00000000000E+00  0.00000000000E+00  0.13120851545E+04  0.13120851546E+04  0.50400000000E-02 0.  1.
          1   -1    0    0  501    0  0.00000000000E+00 -0.00000000000E+00 -0.14368122064E+04  0.14368122064E+04  0.50400000000E-02 0. -1.
    8880022    1    1    2    0    0  0.46098265094E+03 -0.94035079259E+03 -0.93794448844E+03  0.14141768397E+04  0.15294330000E+03 0.  0.
    8880022    1    1    2    0    0 -0.46098265094E+03  0.94035079259E+03  0.81321743660E+03  0.13347205212E+04  0.15294330000E+03 0.  0.
<mgrwt>
<rscale>  0 0.10583744E+04</rscale>
<asrwt>0</asrwt>
<pdfrwt beam="1">  1        1 0.22104803E+00 0.10583744E+04</pdfrwt>
<pdfrwt beam="2">  1       -1 0.20185926E+00 0.10583744E+04</pdfrwt>
<totfact> 0.10560276E+00</totfact>
</mgrwt>
</event>
<event>
 4    1  0.8749406E-009  0.5913421E+03  0.7818608E-02  0.9923533E-01
          1   -1    0    0  501    0  0.00000000000E+00  0.00000000000E+00  0.30620208010E+04  0.30620208010E+04  0.50400000000E-02 0. -1.
         -1   -1    0    0    0  501 -0.00000000000E+00 -0.00000000000E+00 -0.15606385814E+03  0.15606385822E+03  0.50400000000E-02 0.  1.
    8880022    1    1    2    0    0 -0.40452655716E+02 -0.56978719658E+03  0.22863358331E+04  0.23615708885E+04  0.15294330000E+03 0.  0.
    8880022    1    1    2    0    0  0.40452655716E+02  0.56978719658E+03  0.61962110975E+03  0.85651377070E+03  0.15294330000E+03 0.  0.
<mgrwt>
<rscale>  0 0.59134213E+03</rscale>
<asrwt>0</asrwt>
<pdfrwt beam="1">  1        1 0.47108015E+00 0.59134213E+03</pdfrwt>
<pdfrwt beam="2">  1       -1 0.24009823E-01 0.59134213E+03</pdfrwt>
<totfact> 0.88688339E+00</totfact>
</mgrwt>
</event>
<event>
 4    1  0.8749406E-009  0.8231064E+03  0.7818608E-02  0.9527161E-01
         -1   -1    0    0    0  501 -0.00000000000E+00  0.00000000000E+00  0.81299809747E+03  0.81299809749E+03  0.50400000000E-02 0.  1.
          1   -1    0    0  501    0  0.00000000000E+00 -0.00000000000E+00 -0.11527602630E+04  0.11527602630E+04  0.50400000000E-02 0. -1.
    8880022    1    1    2    0    0 -0.14198488226E+03 -0.79621155427E+03  0.34750121329E+03  0.89345469510E+03  0.15294330000E+03 0.  0.
    8880022    1    1    2    0    0  0.14198488226E+03  0.79621155427E+03 -0.68726337881E+03  0.10723036654E+04  0.15294330000E+03 0.  0.
<mgrwt>
<rscale>  0 0.82310643E+03</rscale>
<asrwt>0</asrwt>
<pdfrwt beam="1">  1        1 0.17734773E+00 0.82310643E+03</pdfrwt>
<pdfrwt beam="2">  1       -1 0.12507663E+00 0.82310643E+03</pdfrwt>
<totfact> 0.66328761E+00</totfact>
</mgrwt>
</event>
<event>
 4    1  0.8749406E-009  0.4761876E+03  0.7818608E-02  0.1020188E+00
          1   -1    0    0  501    0  0.00000000000E+00  0.00000000000E+00  0.73853841346E+03  0.73853841348E+03  0.50400000000E-02 0. -1.
         -1   -1    0    0    0  501 -0.00000000000E+00 -0.00000000000E+00 -0.62610127971E+03  0.62610127974E+03  0.50400000000E-02 0.  1.
    8880022    1    1    2    0    0 -0.36370555188E+03  0.26661071321E+03  0.54330771601E+03  0.72245271690E+03  0.15294330000E+03 0.  0.
    8880022    1    1    2    0    0  0.36370555188E+03 -0.26661071321E+03 -0.43087058226E+03  0.64218697631E+03  0.15294330000E+03 0.  0.
<mgrwt>
<rscale>  0 0.47618762E+03</rscale>
<asrwt>0</asrwt>
<pdfrwt beam="1">  1        1 0.11362129E+00 0.47618762E+03</pdfrwt>
<pdfrwt beam="2">  1       -1 0.96323274E-01 0.47618762E+03</pdfrwt>
<totfact> 0.27701270E+01</totfact>
</mgrwt>
</event>
<event>
 4    1  0.8749406E-009  0.1151553E+04  0.7818608E-02  0.9156352E-01
          1   -1    0    0  501    0  0.00000000000E+00  0.00000000000E+00  0.16856360045E+04  0.16856360046E+04  0.50400000000E-02 0. -1.
         -1   -1    0    0    0  501 -0.00000000000E+00 -0.00000000000E+00 -0.90634777764E+03  0.90634777765E+03  0.50400000000E-02 0.  1.
    8880022    1    1    2    0    0  0.10592977974E+04 -0.42493643633E+03  0.86053874390E+03  0.14375678701E+04  0.15294330000E+03 0.  0.
    8880022    1    1    2    0    0 -0.10592977974E+04  0.42493643633E+03 -0.81250516989E+02  0.11544159121E+04  0.15294330000E+03 0.  0.
<mgrwt>
<rscale>  0 0.11515531E+04</rscale>
<asrwt>0</asrwt>
<pdfrwt beam="1">  1        1 0.25932861E+00 0.11515531E+04</pdfrwt>
<pdfrwt beam="2">  1       -1 0.13943812E+00 0.11515531E+04</pdfrwt>
<totfact> 0.20393816E+00</totfact>
</mgrwt>
</event>
<event>
 4    1  0.8749406E-009  0.8133616E+03  0.7818608E-02  0.9540876E-01
         -1   -1    0    0    0  501 -0.00000000000E+00  0.00000000000E+00  0.10530612540E+04  0.10530612540E+04  0.50400000000E-02 0.  1.
          1   -1    0    0  501    0  0.00000000000E+00 -0.00000000000E+00 -0.70054651591E+03  0.70054651593E+03  0.50400000000E-02 0. -1.
    8880022    1    1    2    0    0  0.63570114132E+03 -0.48378655996E+03  0.45798180193E+03  0.93343685410E+03  0.15294330000E+03 0.  0.
    8880022    1    1    2    0    0 -0.63570114132E+03  0.48378655996E+03 -0.10546706382E+03  0.82017091587E+03  0.15294330000E+03 0.  0.
<mgrwt>
<rscale>  0 0.81336156E+03</rscale>
<asrwt>0</asrwt>
<pdfrwt beam="1">  1        1 0.10777639E+00 0.81336156E+03</pdfrwt>
<pdfrwt beam="2">  1       -1 0.16200942E+00 0.81336156E+03</pdfrwt>
<totfact> 0.78618811E+00</totfact>
</mgrwt>
</event>
<event>
 4    1  0.8749406E-009  0.1580563E+03  0.7818608E-02  0.1190909E+00
         -1   -1    0    0    0  501 -0.00000000000E+00  0.00000000000E+00  0.10722649783E+04  0.10722649783E+04  0.50400000000E-02 0.  1.
          1   -1    0    0  501    0  0.00000000000E+00 -0.00000000000E+00 -0.60875830709E+03  0.60875830711E+03  0.50400000000E-02 0. -1.
    8880022    1    1    2    0    0  0.77256521491E+00 -0.39869028997E+02 -0.59251754220E+03  0.61323635505E+03  0.15294330000E+03 0. -1.
    8880022    1    1    2    0    0 -0.77256521491E+00  0.39869028997E+02  0.10560242134E+04  0.10677869303E+04  0.15294330000E+03 0.  0.
<mgrwt>
<rscale>  0 0.15805629E+03</rscale>
<asrwt>0</asrwt>
<pdfrwt beam="1">  1        1 0.93655124E-01 0.15805629E+03</pdfrwt>
<pdfrwt beam="2">  1       -1 0.16496384E+00 0.15805629E+03</pdfrwt>
<totfact> 0.10839844E+01</totfact>
</mgrwt>
</event>
<event>
 4    1  0.8749406E-009  0.9913075E+03  0.7818608E-02  0.9318130E-01
         -1   -1    0    0    0  501 -0.00000000000E+00  0.00000000000E+00  0.10471388428E+04  0.10471388428E+04  0.50400000000E-02 0.  1.
          1   -1    0    0  501    0  0.00000000000E+00 -0.00000000000E+00 -0.15980832126E+04  0.15980832126E+04  0.50400000000E-02 0. -1.
    8880022    1    1    2    0    0 -0.81089395204E+03  0.54931770697E+03 -0.11252056285E+04  0.14995927127E+04  0.15294330000E+03 0.  0.
    8880022    1    1    2    0    0  0.81089395204E+03 -0.54931770697E+03  0.57426125872E+03  0.11456293427E+04  0.15294330000E+03 0.  1.
<mgrwt>
<rscale>  0 0.99130752E+03</rscale>
<asrwt>0</asrwt>
<pdfrwt beam="1">  1        1 0.24585896E+00 0.99130752E+03</pdfrwt>
<pdfrwt beam="2">  1       -1 0.16109828E+00 0.99130752E+03</pdfrwt>
<totfact> 0.16173709E+00</totfact>
</mgrwt>
</event>
<event>
 4    1  0.8749406E-009  0.1233569E+04  0.7818608E-02  0.9083971E-01
         -1   -1    0    0    0  501 -0.00000000000E+00  0.00000000000E+00  0.62225988658E+03  0.62225988660E+03  0.50400000000E-02 0.  1.
          1   -1    0    0  501    0  0.00000000000E+00 -0.00000000000E+00 -0.33864497608E+04  0.33864497608E+04  0.50400000000E-02 0. -1.
    8880022    1    1    2    0    0 -0.10921555827E+04  0.55271674019E+03 -0.32551514493E+03  0.12757944091E+04  0.15294330000E+03 0.  0.
    8880022    1    1    2    0    0  0.10921555827E+04 -0.55271674019E+03 -0.24386747293E+04  0.27329152384E+04  0.15294330000E+03 0.  0.
<mgrwt>
<rscale>  0 0.12335685E+04</rscale>
<asrwt>0</asrwt>
<pdfrwt beam="1">  1        1 0.52099226E+00 0.12335685E+04</pdfrwt>
<pdfrwt beam="2">  1       -1 0.95732292E-01 0.12335685E+04</pdfrwt>
<totfact> 0.32176123E-01</totfact>
</mgrwt>
</event>
<event>
 4    1  0.8749406E-009  0.1282711E+04  0.7818608E-02  0.9043389E-01
          1   -1    0    0  501    0  0.00000000000E+00  0.00000000000E+00  0.16690822876E+04  0.16690822877E+04  0.50400000000E-02 0. -1.
         -1   -1    0    0    0  501 -0.00000000000E+00 -0.00000000000E+00 -0.12035556467E+04  0.12035556467E+04  0.50400000000E-02 0.  1.
    8880022    1    1    2    0    0  0.13249053411E+00  0.12735603342E+04  0.84373723504E+03  0.15353306215E+04  0.15294330000E+03 0.  0.
    8880022    1    1    2    0    0 -0.13249053411E+00 -0.12735603342E+04 -0.37821059408E+03  0.13373073128E+04  0.15294330000E+03 0.  0.
<mgrwt>
<rscale>  0 0.12827110E+04</rscale>
<asrwt>0</asrwt>
<pdfrwt beam="1">  1        1 0.25678189E+00 0.12827110E+04</pdfrwt>
<pdfrwt beam="2">  1       -1 0.18516241E+00 0.12827110E+04</pdfrwt>
<totfact> 0.92816302E-01</totfact>
</mgrwt>
</event>
<event>
 4    1  0.8749406E-009  0.3892658E+03  0.7818608E-02  0.1047561E+00
          1   -1    0    0  501    0  0.00000000000E+00  0.00000000000E+00  0.19469835193E+04  0.19469835193E+04  0.50400000000E-02 0. -1.
         -1   -1    0    0    0  501 -0.00000000000E+00 -0.00000000000E+00 -0.23680378002E+03  0.23680378007E+03  0.50400000000E-02 0.  1.
    8880022    1    1    2    0    0  0.14305895464E+03 -0.32813157612E+03  0.17497393200E+04  0.17925165374E+04  0.15294330000E+03 0. -1.
    8880022    1    1    2    0    0 -0.14305895464E+03  0.32813157612E+03 -0.39559580742E+02  0.39127076200E+03  0.15294330000E+03 0.  0.
<mgrwt>
<rscale>  0 0.38926578E+03</rscale>
<asrwt>0</asrwt>
<pdfrwt beam="1">  1        1 0.29953592E+00 0.38926578E+03</pdfrwt>
<pdfrwt beam="2">  1       -1 0.36431351E-01 0.38926578E+03</pdfrwt>
<totfact> 0.25962128E+01</totfact>
</mgrwt>
</event>
<event>
 4    1  0.8749406E-009  0.1247086E+04  0.7818608E-02  0.9072612E-01
          1   -1    0    0  501    0  0.00000000000E+00  0.00000000000E+00  0.76774466797E+03  0.76774466799E+03  0.50400000000E-02 0. -1.
         -1   -1    0    0    0  501 -0.00000000000E+00 -0.00000000000E+00 -0.23500398828E+04  0.23500398828E+04  0.50400000000E-02 0.  1.
    8880022    1    1    2    0    0 -0.10364620898E+04 -0.67644457411E+03 -0.13702785159E+04  0.18528048439E+04  0.15294330000E+03 0.  0.
    8880022    1    1    2    0    0  0.10364620898E+04  0.67644457411E+03 -0.21201669901E+03  0.12649797070E+04  0.15294330000E+03 0.  0.
<mgrwt>
<rscale>  0 0.12470856E+04</rscale>
<asrwt>0</asrwt>
<pdfrwt beam="1">  1        1 0.11811457E+00 0.12470856E+04</pdfrwt>
<pdfrwt beam="2">  1       -1 0.36154460E+00 0.12470856E+04</pdfrwt>
<totfact> 0.30295784E-01</totfact>
</mgrwt>
</event>
<event>
 4    1  0.8749406E-009  0.1089253E+04  0.7818608E-02  0.9215731E-01
          1   -1    0    0  501    0  0.00000000000E+00  0.00000000000E+00  0.21373227799E+04  0.21373227799E+04  0.50400000000E-02 0. -1.
         -1   -1    0    0    0  501 -0.00000000000E+00 -0.00000000000E+00 -0.14419717161E+04  0.14419717161E+04  0.50400000000E-02 0.  1.
    8880022    1    1    2    0    0  0.96916660705E+03 -0.47307103460E+03 -0.10558310056E+04  0.15169874361E+04  0.15294330000E+03 0.  0.
    8880022    1    1    2    0    0 -0.96916660705E+03  0.47307103460E+03  0.17511820694E+04  0.20623070598E+04  0.15294330000E+03 0.  0.
<mgrwt>
<rscale>  0 0.10892528E+04</rscale>
<asrwt>0</asrwt>
<pdfrwt beam="1">  1        1 0.32881889E+00 0.10892528E+04</pdfrwt>
<pdfrwt beam="2">  1       -1 0.22184180E+00 0.10892528E+04</pdfrwt>
<totfact> 0.25719492E-01</totfact>
</mgrwt>
</event>
<event>
 4    1  0.8749406E-009  0.3790950E+03  0.7818608E-02  0.1051269E+00
         -1   -1    0    0    0  501 -0.00000000000E+00  0.00000000000E+00  0.45975051139E+03  0.45975051141E+03  0.50400000000E-02 0.  1.
          1   -1    0    0  501    0  0.00000000000E+00 -0.00000000000E+00 -0.13619780948E+04  0.13619780948E+04  0.50400000000E-02 0. -1.
    8880022    1    1    2    0    0  0.30585268396E+03 -0.16363221343E+03  0.34842007559E+03  0.51488791756E+03  0.15294330000E+03 0.  0.
    8880022    1    1    2    0    0 -0.30585268396E+03  0.16363221343E+03 -0.12506476590E+04  0.13068406887E+04  0.15294330000E+03 0.  0.
<mgrwt>
<rscale>  0 0.37909500E+03</rscale>
<asrwt>0</asrwt>
<pdfrwt beam="1">  1        1 0.20953509E+00 0.37909500E+03</pdfrwt>
<pdfrwt beam="2">  1       -1 0.70730849E-01 0.37909500E+03</pdfrwt>
<totfact> 0.18286003E+01</totfact>
</mgrwt>
</event>
<event>
 4    1  0.8749406E-009  0.7177190E+03  0.7818608E-02  0.9687401E-01
          1   -1    0    0  501    0  0.00000000000E+00  0.00000000000E+00  0.13673355466E+04  0.13673355467E+04  0.50400000000E-02 0. -1.
         -1   -1    0    0    0  501 -0.00000000000E+00 -0.00000000000E+00 -0.74367598859E+03  0.74367598861E+03  0.50400000000E-02 0.  1.
    8880022    1    1    2    0    0  0.13340103694E+03  0.68842792561E+03  0.10532560923E+04  0.12745465446E+04  0.15294330000E+03 0.  0.
    8880022    1    1    2    0    0 -0.13340103694E+03 -0.68842792561E+03 -0.42959653420E+03  0.83646499068E+03  0.15294330000E+03 0.  0.
<mgrwt>
<rscale>  0 0.71771896E+03</rscale>
<asrwt>0</asrwt>
<pdfrwt beam="1">  1        1 0.21035931E+00 0.71771896E+03</pdfrwt>
<pdfrwt beam="2">  1       -1 0.11441169E+00 0.71771896E+03</pdfrwt>
<totfact> 0.58819273E+00</totfact>
</mgrwt>
</event>
<event>
 4    1  0.8749406E-009  0.6813386E+03  0.7818608E-02  0.9749689E-01
         -1   -1    0    0    0  501 -0.00000000000E+00  0.00000000000E+00  0.13146072405E+04  0.13146072406E+04  0.50400000000E-02 0.  1.
          1   -1    0    0  501    0  0.00000000000E+00 -0.00000000000E+00 -0.14292670083E+04  0.14292670083E+04  0.50400000000E-02 0. -1.
    8880022    1    1    2    0    0 -0.54194932008E+03 -0.38356429580E+03  0.11331226114E+04  0.13221910376E+04  0.15294330000E+03 0.  0.
    8880022    1    1    2    0    0  0.54194932008E+03  0.38356429580E+03 -0.12477823791E+04  0.14216832112E+04  0.15294330000E+03 0.  0.
<mgrwt>
<rscale>  0 0.68133860E+03</rscale>
<asrwt>0</asrwt>
<pdfrwt beam="1">  1        1 0.21988723E+00 0.68133860E+03</pdfrwt>
<pdfrwt beam="2">  1       -1 0.20224727E+00 0.68133860E+03</pdfrwt>
<totfact> 0.11357023E+00</totfact>
</mgrwt>
</event>
<event>
 4    1  0.8749406E-009  0.7778468E+03  0.7818608E-02  0.9592648E-01
         -1   -1    0    0    0  501 -0.00000000000E+00  0.00000000000E+00  0.41191026066E+03  0.41191026069E+03  0.50400000000E-02 0.  1.
          1   -1    0    0  501    0  0.00000000000E+00 -0.00000000000E+00 -0.17066809854E+04  0.17066809854E+04  0.50400000000E-02 0. -1.
    8880022    1    1    2    0    0  0.38587490606E+03  0.65784079394E+03 -0.10427978213E+04  0.13009507687E+04  0.15294330000E+03 0.  0.
    8880022    1    1    2    0    0 -0.38587490606E+03 -0.65784079394E+03 -0.25197290344E+03  0.81764047746E+03  0.15294330000E+03 0.  0.
<mgrwt>
<rscale>  0 0.77784678E+03</rscale>
<asrwt>0</asrwt>
<pdfrwt beam="1">  1        1 0.26256630E+00 0.77784678E+03</pdfrwt>
<pdfrwt beam="2">  1       -1 0.63370810E-01 0.77784678E+03</pdfrwt>
<totfact> 0.12340188E+01</totfact>
</mgrwt>
</event>
<event>
 4    1  0.8749406E-009  0.6019662E+03  0.7818608E-02  0.9901335E-01
         -1   -1    0    0    0  501 -0.00000000000E+00  0.00000000000E+00  0.31440688784E+03  0.31440688788E+03  0.50400000000E-02 0.  1.
          1   -1    0    0  501    0  0.00000000000E+00 -0.00000000000E+00 -0.16871259582E+04  0.16871259582E+04  0.50400000000E-02 0. -1.
    8880022    1    1    2    0    0 -0.17032175076E+03 -0.55674240300E+03 -0.12497013085E+04  0.13871253064E+04  0.15294330000E+03 0.  0.
    8880022    1    1    2    0    0  0.17032175076E+03  0.55674240300E+03 -0.12301776182E+03  0.61440753968E+03  0.15294330000E+03 0.  0.
<mgrwt>
<rscale>  0 0.60196616E+03</rscale>
<asrwt>0</asrwt>
<pdfrwt beam="1">  1        1 0.25955783E+00 0.60196616E+03</pdfrwt>
<pdfrwt beam="2">  1       -1 0.48370291E-01 0.60196616E+03</pdfrwt>
<totfact> 0.22028115E+01</totfact>
</mgrwt>
</event>
<event>
 4    1  0.8749406E-009  0.1688986E+04  0.7818608E-02  0.8767671E-01
         -1   -1    0    0    0  501 -0.00000000000E+00  0.00000000000E+00  0.18453279989E+04  0.18453279989E+04  0.50400000000E-02 0.  1.
          1   -1    0    0  501    0  0.00000000000E+00 -0.00000000000E+00 -0.19155904362E+04  0.19155904363E+04  0.50400000000E-02 0. -1.
    8880022    1    1    2    0    0 -0.33065005545E+03 -0.16492281900E+04 -0.86124024712E+03  0.18958927971E+04  0.15294330000E+03 0.  0.
    8880022    1    1    2    0    0  0.33065005545E+03  0.16492281900E+04  0.79097780973E+03  0.18650256380E+04  0.15294330000E+03 0.  0.
<mgrwt>
<rscale>  0 0.16889863E+04</rscale>
<asrwt>0</asrwt>
<pdfrwt beam="1">  1        1 0.29470622E+00 0.16889863E+04</pdfrwt>
<pdfrwt beam="2">  1       -1 0.28389662E+00 0.16889863E+04</pdfrwt>
<totfact> 0.13176384E-01</totfact>
</mgrwt>
</event>
<event>
 4    1  0.8749406E-009  0.1155543E+04  0.7818608E-02  0.9152685E-01
         -1   -1    0    0    0  501 -0.00000000000E+00  0.00000000000E+00  0.14607786221E+04  0.14607786221E+04  0.50400000000E-02 0.  1.
          1   -1    0    0  501    0  0.00000000000E+00 -0.00000000000E+00 -0.18748775002E+04  0.18748775002E+04  0.50400000000E-02 0. -1.
    8880022    1    1    2    0    0  0.11060074050E+04  0.29771874876E+03  0.98688068271E+03  0.15196098079E+04  0.15294330000E+03 0.  0.
    8880022    1    1    2    0    0 -0.11060074050E+04 -0.29771874876E+03 -0.14009795608E+04  0.18160463144E+04  0.15294330000E+03 0.  0.
<mgrwt>
<rscale>  0 0.11555434E+04</rscale>
<asrwt>0</asrwt>
<pdfrwt beam="1">  1        1 0.28844269E+00 0.11555434E+04</pdfrwt>
<pdfrwt beam="2">  1       -1 0.22473517E+00 0.11555434E+04</pdfrwt>
<totfact> 0.36621058E-01</totfact>
</mgrwt>
</event>
<event>
 4    1  0.8749406E-009  0.7910576E+03  0.7818608E-02  0.9573052E-01
         -1   -1    0    0    0  501 -0.00000000000E+00  0.00000000000E+00  0.11086338172E+04  0.11086338172E+04  0.50400000000E-02 0.  1.
          1   -1    0    0  501    0  0.00000000000E+00 -0.00000000000E+00 -0.18852861816E+04  0.18852861816E+04  0.50400000000E-02 0. -1.
    8880022    1    1    2    0    0 -0.75284332290E+03 -0.18869944416E+03  0.86465763502E+03  0.11719236442E+04  0.15294330000E+03 0.  0.
    8880022    1    1    2    0    0  0.75284332290E+03  0.18869944416E+03 -0.16413099994E+04  0.18219963546E+04  0.15294330000E+03 0.  0.
<mgrwt>
<rscale>  0 0.79105765E+03</rscale>
<asrwt>0</asrwt>
<pdfrwt beam="1">  1        1 0.29004403E+00 0.79105765E+03</pdfrwt>
<pdfrwt beam="2">  1       -1 0.17055905E+00 0.79105765E+03</pdfrwt>
<totfact> 0.91125262E-01</totfact>
</mgrwt>
</event>
<event>
 4    1  0.8749406E-009  0.2518553E+03  0.7818608E-02  0.1112138E+00
         -1   -1    0    0    0  501 -0.00000000000E+00  0.00000000000E+00  0.20977968835E+03  0.20977968841E+03  0.50400000000E-02 0.  1.
          1   -1    0    0  501    0  0.00000000000E+00 -0.00000000000E+00 -0.48045444392E+04  0.48045444392E+04  0.50400000000E-02 0. -1.
    8880022    1    1    2    0    0  0.65760681669E+02 -0.18898399520E+03 -0.47243694454E+04  0.47310778610E+04  0.15294330000E+03 0. -1.
    8880022    1    1    2    0    0 -0.65760681669E+02  0.18898399520E+03  0.12960469450E+03  0.28324626661E+03  0.15294330000E+03 0.  0.
<mgrwt>
<rscale>  0 0.25185526E+03</rscale>
<asrwt>0</asrwt>
<pdfrwt beam="1">  1        1 0.73916060E+00 0.25185526E+03</pdfrwt>
<pdfrwt beam="2">  1       -1 0.32273802E-01 0.25185526E+03</pdfrwt>
<totfact> 0.19717987E-01</totfact>
</mgrwt>
</event>
<event>
 4    1  0.8749406E-009  0.3486928E+03  0.7818608E-02  0.1063153E+00
          1   -1    0    0  501    0  0.00000000000E+00  0.00000000000E+00  0.18345426720E+04  0.18345426720E+04  0.50400000000E-02 0. -1.
         -1   -1    0    0    0  501 -0.00000000000E+00 -0.00000000000E+00 -0.71429810839E+02  0.71429811017E+02  0.50400000000E-02 0.  1.
    8880022    1    1    2    0    0  0.30568267101E+03  0.68942977231E+02  0.11375322224E+04  0.11897757097E+04  0.15294330000E+03 0.  0.
    8880022    1    1    2    0    0 -0.30568267101E+03 -0.68942977231E+02  0.62558063878E+03  0.71619677331E+03  0.15294330000E+03 0. -1.
<mgrwt>
<rscale>  0 0.34869282E+03</rscale>
<asrwt>0</asrwt>
<pdfrwt beam="1">  1        1 0.28223733E+00 0.34869282E+03</pdfrwt>
<pdfrwt beam="2">  1       -1 0.10989202E-01 0.34869282E+03</pdfrwt>
<totfact> 0.22470987E+02</totfact>
</mgrwt>
</event>
<event>
 4    1  0.8749406E-009  0.1458415E+04  0.7818608E-02  0.8912587E-01
         -1   -1    0    0    0  501 -0.00000000000E+00  0.00000000000E+00  0.12369574194E+04  0.12369574194E+04  0.50400000000E-02 0.  1.
          1   -1    0    0  501    0  0.00000000000E+00 -0.00000000000E+00 -0.35691908950E+04  0.35691908950E+04  0.50400000000E-02 0. -1.
    8880022    1    1    2    0    0 -0.32922562408E+03  0.14125129499E+04 -0.28960502966E+04  0.32425424159E+04  0.15294330000E+03 0.  0.
    8880022    1    1    2    0    0  0.32922562408E+03 -0.14125129499E+04  0.56381682106E+03  0.15636058985E+04  0.15294330000E+03 0.  0.
<mgrwt>
<rscale>  0 0.14584149E+04</rscale>
<asrwt>0</asrwt>
<pdfrwt beam="1">  1        1 0.54910629E+00 0.14584149E+04</pdfrwt>
<pdfrwt beam="2">  1       -1 0.19030114E+00 0.14584149E+04</pdfrwt>
<totfact> 0.37131281E-02</totfact>
</mgrwt>
</event>
<event>
 4    1  0.8749406E-009  0.1513191E+04  0.7818608E-02  0.8875728E-01
          1   -1    0    0  501    0  0.00000000000E+00  0.00000000000E+00  0.30112895371E+04  0.30112895371E+04  0.50400000000E-02 0. -1.
         -1   -1    0    0    0  501 -0.00000000000E+00 -0.00000000000E+00 -0.12262422068E+04  0.12262422068E+04  0.50400000000E-02 0.  1.
    8880022    1    1    2    0    0  0.12231266276E+04  0.87767702235E+03 -0.41340668666E+03  0.15686466920E+04  0.15294330000E+03 0.  0.
    8880022    1    1    2    0    0 -0.12231266276E+04 -0.87767702235E+03  0.21984540170E+04  0.26688850519E+04  0.15294330000E+03 0.  0.
<mgrwt>
<rscale>  0 0.15131911E+04</rscale>
<asrwt>0</asrwt>
<pdfrwt beam="1">  1        1 0.46327531E+00 0.15131911E+04</pdfrwt>
<pdfrwt beam="2">  1       -1 0.18865265E+00 0.15131911E+04</pdfrwt>
<totfact> 0.10028304E-01</totfact>
</mgrwt>
</event>
<event>
 4    1  0.8749406E-009  0.1582513E+03  0.7818608E-02  0.1190685E+00
         -1   -1    0    0    0  501 -0.00000000000E+00  0.00000000000E+00  0.13218698635E+03  0.13218698645E+03  0.50400000000E-02 0.  1.
          1   -1    0    0  501    0  0.00000000000E+00 -0.00000000000E+00 -0.66885354166E+03  0.66885354168E+03  0.50400000000E-02 0. -1.
    8880022    1    1    2    0    0 -0.39539764510E+02 -0.94032525430E+01 -0.60741735405E+03  0.62769364275E+03  0.15294330000E+03 0. -1.
    8880022    1    1    2    0    0  0.39539764510E+02  0.94032525430E+01  0.70750798733E+02  0.17334688538E+03  0.15294330000E+03 0.  0.
<mgrwt>
<rscale>  0 0.15825128E+03</rscale>
<asrwt>0</asrwt>
<pdfrwt beam="1">  1        1 0.10290054E+00 0.15825128E+03</pdfrwt>
<pdfrwt beam="2">  1       -1 0.20336460E-01 0.15825128E+03</pdfrwt>
<totfact> 0.59737179E+02</totfact>
</mgrwt>
</event>
<event>
 4    1  0.8749406E-009  0.1007602E+04  0.7818608E-02  0.9300246E-01
          1   -1    0    0  501    0  0.00000000000E+00  0.00000000000E+00  0.14714854070E+04  0.14714854070E+04  0.50400000000E-02 0. -1.
         -1   -1    0    0    0  501 -0.00000000000E+00 -0.00000000000E+00 -0.91682302835E+03  0.91682302837E+03  0.50400000000E-02 0.  1.
    8880022    1    1    2    0    0 -0.65993779941E+03  0.74588990455E+03  0.87135332021E+03  0.13321103222E+04  0.15294330000E+03 0. -1.
    8880022    1    1    2    0    0  0.65993779941E+03 -0.74588990455E+03 -0.31669094158E+03  0.10561981132E+04  0.15294330000E+03 0.  0.
<mgrwt>
<rscale>  0 0.10076018E+04</rscale>
<asrwt>0</asrwt>
<pdfrwt beam="1">  1        1 0.22638237E+00 0.10076018E+04</pdfrwt>
<pdfrwt beam="2">  1       -1 0.14104970E+00 0.10076018E+04</pdfrwt>
<totfact> 0.28261591E+00</totfact>
</mgrwt>
</event>
<event>
 4    1  0.8749406E-009  0.9566794E+03  0.7818608E-02  0.9357377E-01
          1   -1    0    0  501    0  0.00000000000E+00  0.00000000000E+00  0.25764662739E+04  0.25764662739E+04  0.50400000000E-02 0. -1.
         -1   -1    0    0    0  501 -0.00000000000E+00 -0.00000000000E+00 -0.48525426027E+03  0.48525426030E+03  0.50400000000E-02 0.  1.
    8880022    1    1    2    0    0  0.80933147001E+02 -0.94090040025E+03  0.25316884414E+03  0.98961096100E+03  0.15294330000E+03 0.  0.
    8880022    1    1    2    0    0 -0.80933147001E+02  0.94090040025E+03  0.18380431695E+04  0.20721095732E+04  0.15294330000E+03 0.  0.
<mgrwt>
<rscale>  0 0.95667936E+03</rscale>
<asrwt>0</asrwt>
<pdfrwt beam="1">  1        1 0.39637942E+00 0.95667936E+03</pdfrwt>
<pdfrwt beam="2">  1       -1 0.74654502E-01 0.95667936E+03</pdfrwt>
<totfact> 0.22216479E+00</totfact>
</mgrwt>
</event>
<event>
 4    1  0.8749406E-009  0.8233158E+03  0.7818608E-02  0.9526868E-01
         -1   -1    0    0    0  501 -0.00000000000E+00  0.00000000000E+00  0.23242364479E+04  0.23242364479E+04  0.50400000000E-02 0.  1.
          1   -1    0    0  501    0  0.00000000000E+00 -0.00000000000E+00 -0.45440029641E+03  0.45440029644E+03  0.50400000000E-02 0. -1.
    8880022    1    1    2    0    0  0.60404334316E+03  0.53813459920E+03  0.10343807417E+03  0.82978810276E+03  0.15294330000E+03 0.  0.
    8880022    1    1    2    0    0 -0.60404334316E+03 -0.53813459920E+03  0.17663980773E+04  0.19488486416E+04  0.15294330000E+03 0.  0.
<mgrwt>
<rscale>  0 0.82331577E+03</rscale>
<asrwt>0</asrwt>
<pdfrwt beam="1">  1        1 0.69907740E-01 0.82331577E+03</pdfrwt>
<pdfrwt beam="2">  1       -1 0.35757483E+00 0.82331577E+03</pdfrwt>
<totfact> 0.73475880E-01</totfact>
</mgrwt>
</event>
<event>
 4    1  0.8749406E-009  0.3076016E+03  0.7818608E-02  0.1081501E+00
          1   -1    0    0  501    0  0.00000000000E+00  0.00000000000E+00  0.36278064001E+04  0.36278064001E+04  0.50400000000E-02 0. -1.
         -1   -1    0    0    0  501 -0.00000000000E+00 -0.00000000000E+00 -0.48243092984E+02  0.48243093247E+02  0.50400000000E-02 0.  1.
    8880022    1    1    2    0    0 -0.14927440042E+03  0.22123340080E+03  0.54402262957E+03  0.62496346993E+03  0.15294330000E+03 0.  1.
    8880022    1    1    2    0    0  0.14927440042E+03 -0.22123340080E+03  0.30355406775E+04  0.30510860234E+04  0.15294330000E+03 0.  0.
<mgrwt>
<rscale>  0 0.30760156E+03</rscale>
<asrwt>0</asrwt>
<pdfrwt beam="1">  1        1 0.55812399E+00 0.30760156E+03</pdfrwt>
<pdfrwt beam="2">  1       -1 0.74220152E-02 0.30760156E+03</pdfrwt>
<totfact> 0.23856517E+01</totfact>
</mgrwt>
</event>
<event>
 4    1  0.8749406E-009  0.3421628E+03  0.7818608E-02  0.1065878E+00
         -1   -1    0    0    0  501 -0.00000000000E+00  0.00000000000E+00  0.89404427891E+02  0.89404428033E+02  0.50400000000E-02 0.  1.
          1   -1    0    0  501    0  0.00000000000E+00 -0.00000000000E+00 -0.29085838629E+04  0.29085838629E+04  0.50400000000E-02 0. -1.
    8880022    1    1    2    0    0  0.22717551779E+03  0.20512198977E+03 -0.25210509121E+04  0.25441645193E+04  0.15294330000E+03 0. -1.
    8880022    1    1    2    0    0 -0.22717551779E+03 -0.20512198977E+03 -0.29812852292E+03  0.45382377171E+03  0.15294330000E+03 0.  0.
<mgrwt>
<rscale>  0 0.34216283E+03</rscale>
<asrwt>0</asrwt>
<pdfrwt beam="1">  1        1 0.44747437E+00 0.34216283E+03</pdfrwt>
<pdfrwt beam="2">  1       -1 0.13754530E-01 0.34216283E+03</pdfrwt>
<totfact> 0.30280353E+01</totfact>
</mgrwt>
</event>
<event>
 4    1  0.8749406E-009  0.9772440E+03  0.7818608E-02  0.9333861E-01
         -1   -1    0    0    0  501 -0.00000000000E+00  0.00000000000E+00  0.68029490970E+03  0.68029490972E+03  0.50400000000E-02 0.  1.
          1   -1    0    0  501    0  0.00000000000E+00 -0.00000000000E+00 -0.16159576906E+04  0.16159576906E+04  0.50400000000E-02 0. -1.
    8880022    1    1    2    0    0  0.87353505134E+03  0.41054930471E+03 -0.51832462059E+02  0.97861763455E+03  0.15294330000E+03 0.  0.
    8880022    1    1    2    0    0 -0.87353505134E+03 -0.41054930471E+03 -0.88383031886E+03  0.13176349658E+04  0.15294330000E+03 0.  0.
<mgrwt>
<rscale>  0 0.97724402E+03</rscale>
<asrwt>0</asrwt>
<pdfrwt beam="1">  1        1 0.24860887E+00 0.97724402E+03</pdfrwt>
<pdfrwt beam="2">  1       -1 0.10466076E+00 0.97724402E+03</pdfrwt>
<totfact> 0.47120646E+00</totfact>
</mgrwt>
</event>
<event>
 4    1  0.8749406E-009  0.5853547E+03  0.7818608E-02  0.9936265E-01
          1   -1    0    0  501    0  0.00000000000E+00  0.00000000000E+00  0.42490195992E+03  0.42490195995E+03  0.50400000000E-02 0. -1.
         -1   -1    0    0    0  501 -0.00000000000E+00 -0.00000000000E+00 -0.88280679305E+03  0.88280679307E+03  0.50400000000E-02 0.  1.
    8880022    1    1    2    0    0 -0.56361320390E+03 -0.39857213954E+02 -0.36590166348E+02  0.58649717340E+03  0.15294330000E+03 0.  0.
    8880022    1    1    2    0    0  0.56361320390E+03  0.39857213954E+02 -0.42131466678E+03  0.72121157962E+03  0.15294330000E+03 0.  0.
<mgrwt>
<rscale>  0 0.58535467E+03</rscale>
<asrwt>0</asrwt>
<pdfrwt beam="1">  1        1 0.65369533E-01 0.58535467E+03</pdfrwt>
<pdfrwt beam="2">  1       -1 0.13581643E+00 0.58535467E+03</pdfrwt>
<totfact> 0.26183262E+01</totfact>
</mgrwt>
</event>
<event>
 4    1  0.8749406E-009  0.4257995E+03  0.7818608E-02  0.1035195E+00
          1   -1    0    0  501    0  0.00000000000E+00  0.00000000000E+00  0.10575167669E+04  0.10575167670E+04  0.50400000000E-02 0. -1.
         -1   -1    0    0    0  501 -0.00000000000E+00 -0.00000000000E+00 -0.32009416297E+03  0.32009416301E+03  0.50400000000E-02 0.  1.
    8880022    1    1    2    0    0  0.39170538996E+03 -0.66935991205E+02 -0.10068536772E+03  0.43754169599E+03  0.15294330000E+03 0.  0.
    8880022    1    1    2    0    0 -0.39170538996E+03  0.66935991205E+02  0.83810797169E+03  0.94006923397E+03  0.15294330000E+03 0.  0.
<mgrwt>
<rscale>  0 0.42579947E+03</rscale>
<asrwt>0</asrwt>
<pdfrwt beam="1">  1        1 0.16269489E+00 0.42579947E+03</pdfrwt>
<pdfrwt beam="2">  1       -1 0.49245256E-01 0.42579947E+03</pdfrwt>
<totfact> 0.60160705E+01</totfact>
</mgrwt>
</event>
<event>
 4    1  0.8749406E-009  0.1168651E+04  0.7818608E-02  0.9140748E-01
         -1   -1    0    0    0  501 -0.00000000000E+00  0.00000000000E+00  0.85406864402E+03  0.85406864404E+03  0.50400000000E-02 0.  1.
          1   -1    0    0  501    0  0.00000000000E+00 -0.00000000000E+00 -0.19038641900E+04  0.19038641900E+04  0.50400000000E-02 0. -1.
    8880022    1    1    2    0    0 -0.14684163584E+03 -0.11492563584E+04  0.26817574924E+02  0.11689582878E+04  0.15294330000E+03 0.  0.
    8880022    1    1    2    0    0  0.14684163584E+03  0.11492563584E+04 -0.10766131209E+04  0.15889745462E+04  0.15294330000E+03 0.  0.
<mgrwt>
<rscale>  0 0.11686506E+04</rscale>
<asrwt>0</asrwt>
<pdfrwt beam="1">  1        1 0.29290218E+00 0.11686506E+04</pdfrwt>
<pdfrwt beam="2">  1       -1 0.13139518E+00 0.11686506E+04</pdfrwt>
<totfact> 0.16874018E+00</totfact>
</mgrwt>
</event>
<event>
 4    1  0.8749406E-009  0.1045318E+04  0.7818608E-02  0.9260192E-01
         -1   -1    0    0    0  501 -0.00000000000E+00  0.00000000000E+00  0.14035478295E+04  0.14035478295E+04  0.50400000000E-02 0.  1.
          1   -1    0    0  501    0  0.00000000000E+00 -0.00000000000E+00 -0.89746692485E+03  0.89746692487E+03  0.50400000000E-02 0. -1.
    8880022    1    1    2    0    0 -0.13061122238E+02  0.10339858816E+04 -0.16580914347E+03  0.10583863763E+04  0.15294330000E+03 0.  0.
    8880022    1    1    2    0    0  0.13061122238E+02 -0.10339858816E+04  0.67189004813E+03  0.12426283781E+04  0.15294330000E+03 0.  0.
<mgrwt>
<rscale>  0 0.10453177E+04</rscale>
<asrwt>0</asrwt>
<pdfrwt beam="1">  1        1 0.13807183E+00 0.10453177E+04</pdfrwt>
<pdfrwt beam="2">  1       -1 0.21593044E+00 0.10453177E+04</pdfrwt>
<totfact> 0.21416170E+00</totfact>
</mgrwt>
</event>
<event>
 4    1  0.8749406E-009  0.5461415E+03  0.7818608E-02  0.1002391E+00
         -1   -1    0    0    0  501 -0.00000000000E+00  0.00000000000E+00  0.88157471844E+03  0.88157471845E+03  0.50400000000E-02 0.  1.
          1   -1    0    0  501    0  0.00000000000E+00 -0.00000000000E+00 -0.94897561907E+03  0.94897561909E+03  0.50400000000E-02 0. -1.
    8880022    1    1    2    0    0  0.15833951930E+03  0.49980739609E+03 -0.76790289283E+03  0.94230851763E+03  0.15294330000E+03 0.  0.
    8880022    1    1    2    0    0 -0.15833951930E+03 -0.49980739609E+03  0.70050199220E+03  0.88824181991E+03  0.15294330000E+03 0.  0.
<mgrwt>
<rscale>  0 0.54614146E+03</rscale>
<asrwt>0</asrwt>
<pdfrwt beam="1">  1        1 0.14599625E+00 0.54614146E+03</pdfrwt>
<pdfrwt beam="2">  1       -1 0.13562688E+00 0.54614146E+03</pdfrwt>
<totfact> 0.80847656E+00</totfact>
</mgrwt>
</event>
<event>
 4    1  0.1018411E-008  0.1184068E+04  0.7818608E-02  0.9126918E-01
         -1   -1    0    0    0  501 -0.00000000000E+00  0.00000000000E+00  0.14379817257E+04  0.14379817257E+04  0.50400000000E-02 0.  1.
          1   -1    0    0  501    0  0.00000000000E+00 -0.00000000000E+00 -0.36237339480E+04  0.36237339480E+04  0.50400000000E-02 0. -1.
    8880022    1    1    2    0    0 -0.10867042353E+04  0.44463264360E+03  0.10708869057E+04  0.15965007675E+04  0.15294330000E+03 0.  0.
    8880022    1    1    2    0    0  0.10867042353E+04 -0.44463264360E+03 -0.32566391280E+04  0.34652149061E+04  0.15294330000E+03 0.  0.
<mgrwt>
<rscale>  0 0.11840675E+04</rscale>
<asrwt>0</asrwt>
<pdfrwt beam="1">  1        1 0.55749753E+00 0.11840675E+04</pdfrwt>
<pdfrwt beam="2">  1       -1 0.22122796E+00 0.11840675E+04</pdfrwt>
<totfact> 0.21611847E-02</totfact>
</mgrwt>
</event>
<event>
 4    1  0.8749406E-009  0.7244280E+03  0.7818608E-02  0.9676346E-01
         -1   -1    0    0    0  501 -0.00000000000E+00  0.00000000000E+00  0.25159846610E+04  0.25159846610E+04  0.50400000000E-02 0.  1.
          1   -1    0    0  501    0  0.00000000000E+00 -0.00000000000E+00 -0.91570163203E+03  0.91570163204E+03  0.50400000000E-02 0. -1.
    8880022    1    1    2    0    0  0.22669272519E+03 -0.67083129976E+03 -0.70766707160E+03  0.10127134647E+04  0.15294330000E+03 0.  0.
    8880022    1    1    2    0    0 -0.22669272519E+03  0.67083129976E+03  0.23079501006E+04  0.24189728283E+04  0.15294330000E+03 0.  0.
<mgrwt>
<rscale>  0 0.72442797E+03</rscale>
<asrwt>0</asrwt>
<pdfrwt beam="1">  1        1 0.14087718E+00 0.72442797E+03</pdfrwt>
<pdfrwt beam="2">  1       -1 0.38707456E+00 0.72442797E+03</pdfrwt>
<totfact> 0.16805327E-01</totfact>
</mgrwt>
</event>
<event>
 4    1  0.8749406E-009  0.5672506E+03  0.7818608E-02  0.9975781E-01
          1   -1    0    0  501    0  0.00000000000E+00  0.00000000000E+00  0.20021123782E+04  0.20021123782E+04  0.50400000000E-02 0. -1.
         -1   -1    0    0    0  501 -0.00000000000E+00 -0.00000000000E+00 -0.22458738821E+03  0.22458738827E+03  0.50400000000E-02 0.  1.
    8880022    1    1    2    0    0  0.52985092403E+03  0.13281401628E+03  0.14824928247E+04  0.15873116244E+04  0.15294330000E+03 0.  0.
    8880022    1    1    2    0    0 -0.52985092403E+03 -0.13281401628E+03  0.29503216519E+03  0.63938814200E+03  0.15294330000E+03 0.  0.
<mgrwt>
<rscale>  0 0.56725058E+03</rscale>
<asrwt>0</asrwt>
<pdfrwt beam="1">  1        1 0.30801730E+00 0.56725058E+03</pdfrwt>
<pdfrwt beam="2">  1       -1 0.34551905E-01 0.56725058E+03</pdfrwt>
<totfact> 0.25219695E+01</totfact>
</mgrwt>
</event>
<event>
 4    1  0.8749406E-009  0.1142363E+04  0.7818608E-02  0.9164858E-01
          1   -1    0    0  501    0  0.00000000000E+00  0.00000000000E+00  0.28999499639E+04  0.28999499639E+04  0.50400000000E-02 0. -1.
         -1   -1    0    0    0  501 -0.00000000000E+00 -0.00000000000E+00 -0.97032177911E+03  0.97032177913E+03  0.50400000000E-02 0.  1.
    8880022    1    1    2    0    0  0.10307353501E+03 -0.11273761274E+04  0.23818712912E+04  0.26416478923E+04  0.15294330000E+03 0.  0.
    8880022    1    1    2    0    0 -0.10307353501E+03  0.11273761274E+04 -0.45224310640E+03  0.12286238507E+04  0.15294330000E+03 0.  0.
<mgrwt>
<rscale>  0 0.11423628E+04</rscale>
<asrwt>0</asrwt>
<pdfrwt beam="1">  1        1 0.44614614E+00 0.11423628E+04</pdfrwt>
<pdfrwt beam="2">  1       -1 0.14928028E+00 0.11423628E+04</pdfrwt>
<totfact> 0.24988747E-01</totfact>
</mgrwt>
</event>
<event>
 4    1  0.8749406E-009  0.6551308E+03  0.7818608E-02  0.9797199E-01
          1   -1    0    0  501    0  0.00000000000E+00  0.00000000000E+00  0.24940475571E+04  0.24940475571E+04  0.50400000000E-02 0. -1.
         -1   -1    0    0    0  501 -0.00000000000E+00 -0.00000000000E+00 -0.83345007721E+03  0.83345007722E+03  0.50400000000E-02 0.  1.
    8880022    1    1    2    0    0  0.57658746045E+03 -0.27083512335E+03 -0.65176713747E+03  0.92411948259E+03  0.15294330000E+03 0.  0.
    8880022    1    1    2    0    0 -0.57658746045E+03  0.27083512335E+03  0.23123646173E+04  0.24033781517E+04  0.15294330000E+03 0.  0.
<mgrwt>
<rscale>  0 0.65513084E+03</rscale>
<asrwt>0</asrwt>
<pdfrwt beam="1">  1        1 0.38369963E+00 0.65513084E+03</pdfrwt>
<pdfrwt beam="2">  1       -1 0.12822309E+00 0.65513084E+03</pdfrwt>
<totfact> 0.78567700E-01</totfact>
</mgrwt>
</event>
<event>
 4    1  0.8749406E-009  0.6240161E+03  0.7818608E-02  0.9856796E-01
         -1   -1    0    0    0  501 -0.00000000000E+00  0.00000000000E+00  0.80493700345E+03  0.80493700347E+03  0.50400000000E-02 0.  1.
          1   -1    0    0  501    0  0.00000000000E+00 -0.00000000000E+00 -0.11718525987E+04  0.11718525987E+04  0.50400000000E-02 0. -1.
    8880022    1    1    2    0    0  0.10034911569E+03  0.59660241750E+03  0.57392861994E+03  0.84781489925E+03  0.15294330000E+03 0.  0.
    8880022    1    1    2    0    0 -0.10034911569E+03 -0.59660241750E+03 -0.94084421514E+03  0.11289747029E+04  0.15294330000E+03 0.  0.
<mgrwt>
<rscale>  0 0.62401606E+03</rscale>
<asrwt>0</asrwt>
<pdfrwt beam="1">  1        1 0.18028502E+00 0.62401606E+03</pdfrwt>
<pdfrwt beam="2">  1       -1 0.12383646E+00 0.62401606E+03</pdfrwt>
<totfact> 0.67951335E+00</totfact>
</mgrwt>
</event>
<event>
 4    1  0.8749406E-009  0.5437976E+03  0.7818608E-02  0.1002940E+00
          1   -1    0    0  501    0  0.00000000000E+00  0.00000000000E+00  0.12139971180E+04  0.12139971180E+04  0.50400000000E-02 0. -1.
         -1   -1    0    0    0  501 -0.00000000000E+00 -0.00000000000E+00 -0.88283821015E+03  0.88283821017E+03  0.50400000000E-02 0.  1.
    8880022    1    1    2    0    0  0.28556780588E+03 -0.43677817253E+03 -0.72655234972E+03  0.90752086128E+03  0.15294330000E+03 0.  0.
    8880022    1    1    2    0    0 -0.28556780588E+03  0.43677817253E+03  0.10577112576E+04  0.11893144669E+04  0.15294330000E+03 0.  0.
<mgrwt>
<rscale>  0 0.54379757E+03</rscale>
<asrwt>0</asrwt>
<pdfrwt beam="1">  1        1 0.18676879E+00 0.54379757E+03</pdfrwt>
<pdfrwt beam="2">  1       -1 0.13582126E+00 0.54379757E+03</pdfrwt>
<totfact> 0.51119647E+00</totfact>
</mgrwt>
</event>
<event>
 4    1  0.8749406E-009  0.6285241E+03  0.7818608E-02  0.9847933E-01
          1   -1    0    0  501    0  0.00000000000E+00  0.00000000000E+00  0.56852039278E+03  0.56852039281E+03  0.50400000000E-02 0. -1.
         -1   -1    0    0    0  501 -0.00000000000E+00 -0.00000000000E+00 -0.97073489999E+03  0.97073490000E+03  0.50400000000E-02 0.  1.
    8880022    1    1    2    0    0 -0.31975611426E+03 -0.51904423230E+03  0.20917789314E+03  0.66241824529E+03  0.15294330000E+03 0.  0.
    8880022    1    1    2    0    0  0.31975611426E+03  0.51904423230E+03 -0.61139240034E+03  0.87683704752E+03  0.15294330000E+03 0.  0.
<mgrwt>
<rscale>  0 0.62852410E+03</rscale>
<asrwt>0</asrwt>
<pdfrwt beam="1">  1        1 0.87464676E-01 0.62852410E+03</pdfrwt>
<pdfrwt beam="2">  1       -1 0.14934383E+00 0.62852410E+03</pdfrwt>
<totfact> 0.13653122E+01</totfact>
</mgrwt>
</event>
<event>
 4    1  0.8749406E-009  0.1401099E+04  0.7818608E-02  0.8953024E-01
          1   -1    0    0  501    0  0.00000000000E+00  0.00000000000E+00  0.14797516417E+04  0.14797516417E+04  0.50400000000E-02 0. -1.
         -1   -1    0    0    0  501 -0.00000000000E+00 -0.00000000000E+00 -0.15955573989E+04  0.15955573989E+04  0.50400000000E-02 0.  1.
    8880022    1    1    2    0    0 -0.12165317178E+04  0.67803908207E+03 -0.68918388891E+03  0.15614264322E+04  0.15294330000E+03 0.  0.
    8880022    1    1    2    0    0  0.12165317178E+04 -0.67803908207E+03  0.57337813164E+03  0.15138826084E+04  0.15294330000E+03 0.  0.
<mgrwt>
<rscale>  0 0.14010989E+04</rscale>
<asrwt>0</asrwt>
<pdfrwt beam="1">  1        1 0.22765410E+00 0.14010989E+04</pdfrwt>
<pdfrwt beam="2">  1       -1 0.24547037E+00 0.14010989E+04</pdfrwt>
<totfact> 0.48244298E-01</totfact>
</mgrwt>
</event>
<event>
 4    1  0.8749406E-009  0.1388589E+04  0.7818608E-02  0.8962120E-01
         -1   -1    0    0    0  501 -0.00000000000E+00  0.00000000000E+00  0.51413820148E+03  0.51413820151E+03  0.50400000000E-02 0.  1.
          1   -1    0    0  501    0  0.00000000000E+00 -0.00000000000E+00 -0.53591200102E+04  0.53591200102E+04  0.50400000000E-02 0. -1.
    8880022    1    1    2    0    0  0.13042719596E+04  0.45129082870E+03 -0.40314833684E+04  0.42639229073E+04  0.15294330000E+03 0.  0.
    8880022    1    1    2    0    0 -0.13042719596E+04 -0.45129082870E+03 -0.81349844029E+03  0.16093353044E+04  0.15294330000E+03 0.  0.
<mgrwt>
<rscale>  0 0.13885894E+04</rscale>
<asrwt>0</asrwt>
<pdfrwt beam="1">  1        1 0.82447996E+00 0.13885894E+04</pdfrwt>
<pdfrwt beam="2">  1       -1 0.79098189E-01 0.13885894E+04</pdfrwt>
<totfact> 0.43447829E-03</totfact>
</mgrwt>
</event>
<event>
 4    1  0.8749406E-009  0.1739619E+04  0.7818608E-02  0.8739085E-01
         -1   -1    0    0    0  501 -0.00000000000E+00  0.00000000000E+00  0.17839105480E+04  0.17839105480E+04  0.50400000000E-02 0.  1.
          1   -1    0    0  501    0  0.00000000000E+00 -0.00000000000E+00 -0.24002048394E+04  0.24002048394E+04  0.50400000000E-02 0. -1.
    8880022    1    1    2    0    0 -0.12089688598E+04  0.12414821960E+04  0.82468889795E+03  0.19251979582E+04  0.15294330000E+03 0.  0.
    8880022    1    1    2    0    0  0.12089688598E+04 -0.12414821960E+04 -0.14409831893E+04  0.22589174292E+04  0.15294330000E+03 0.  0.
<mgrwt>
<rscale>  0 0.17396193E+04</rscale>
<asrwt>0</asrwt>
<pdfrwt beam="1">  1        1 0.36926228E+00 0.17396193E+04</pdfrwt>
<pdfrwt beam="2">  1       -1 0.27444778E+00 0.17396193E+04</pdfrwt>
<totfact> 0.70292350E-02</totfact>
</mgrwt>
</event>
<event>
 4    1  0.8749406E-009  0.4693670E+03  0.7818608E-02  0.1022099E+00
         -1   -1    0    0    0  501 -0.00000000000E+00  0.00000000000E+00  0.84704258564E+03  0.84704258566E+03  0.50400000000E-02 0.  1.
          1   -1    0    0  501    0  0.00000000000E+00 -0.00000000000E+00 -0.33653392673E+03  0.33653392677E+03  0.50400000000E-02 0. -1.
    8880022    1    1    2    0    0  0.28004854487E+03  0.34421880538E+03 -0.26798014514E+02  0.47013142849E+03  0.15294330000E+03 0.  0.
    8880022    1    1    2    0    0 -0.28004854487E+03 -0.34421880538E+03  0.53730667343E+03  0.71344508393E+03  0.15294330000E+03 0.  1.
<mgrwt>
<rscale>  0 0.46936705E+03</rscale>
<asrwt>0</asrwt>
<pdfrwt beam="1">  1        1 0.51774452E-01 0.46936705E+03</pdfrwt>
<pdfrwt beam="2">  1       -1 0.13031424E+00 0.46936705E+03</pdfrwt>
<totfact> 0.40021775E+01</totfact>
</mgrwt>
</event>
<event>
 4    1  0.8749406E-009  0.8774726E+03  0.7818608E-02  0.9454188E-01
         -1   -1    0    0    0  501 -0.00000000000E+00  0.00000000000E+00  0.12378177128E+04  0.12378177129E+04  0.50400000000E-02 0.  1.
          1   -1    0    0  501    0  0.00000000000E+00 -0.00000000000E+00 -0.10800447257E+04  0.10800447257E+04  0.50400000000E-02 0. -1.
    8880022    1    1    2    0    0  0.84578582495E+03  0.17667151824E+03 -0.67581833714E+03  0.11075597342E+04  0.15294330000E+03 0.  0.
    8880022    1    1    2    0    0 -0.84578582495E+03 -0.17667151824E+03  0.83359132432E+03  0.12103027043E+04  0.15294330000E+03 0.  0.
<mgrwt>
<rscale>  0 0.87747259E+03</rscale>
<asrwt>0</asrwt>
<pdfrwt beam="1">  1        1 0.16616073E+00 0.87747259E+03</pdfrwt>
<pdfrwt beam="2">  1       -1 0.19043349E+00 0.87747259E+03</pdfrwt>
<totfact> 0.23524189E+00</totfact>
</mgrwt>
</event>
<event>
 4    1  0.8749406E-009  0.1207489E+04  0.7818608E-02  0.9106327E-01
          1   -1    0    0  501    0  0.00000000000E+00  0.00000000000E+00  0.24293691258E+04  0.24293691258E+04  0.50400000000E-02 0. -1.
         -1   -1    0    0    0  501 -0.00000000000E+00 -0.00000000000E+00 -0.81286176002E+03  0.81286176003E+03  0.50400000000E-02 0.  1.
    8880022    1    1    2    0    0 -0.77436641120E+02  0.11952578603E+04  0.16374990281E+04  0.20345595361E+04  0.15294330000E+03 0.  0.
    8880022    1    1    2    0    0  0.77436641120E+02 -0.11952578603E+04 -0.20991662309E+02  0.12076713497E+04  0.15294330000E+03 0.  0.
<mgrwt>
<rscale>  0 0.12074889E+04</rscale>
<asrwt>0</asrwt>
<pdfrwt beam="1">  1        1 0.37374910E+00 0.12074889E+04</pdfrwt>
<pdfrwt beam="2">  1       -1 0.12505565E+00 0.12074889E+04</pdfrwt>
<totfact> 0.83624600E-01</totfact>
</mgrwt>
</event>
<event>
 4    1  0.8749406E-009  0.8156764E+03  0.7818608E-02  0.9537599E-01
          1   -1    0    0  501    0  0.00000000000E+00  0.00000000000E+00  0.10912149968E+04  0.10912149968E+04  0.50400000000E-02 0. -1.
         -1   -1    0    0    0  501 -0.00000000000E+00 -0.00000000000E+00 -0.87476666872E+03  0.87476666873E+03  0.50400000000E-02 0.  1.
    8880022    1    1    2    0    0 -0.67732584088E+03 -0.42797900607E+03  0.64931509911E+03  0.10425632236E+04  0.15294330000E+03 0.  0.
    8880022    1    1    2    0    0  0.67732584088E+03  0.42797900607E+03 -0.43286677102E+03  0.92341844190E+03  0.15294330000E+03 0.  0.
<mgrwt>
<rscale>  0 0.81567639E+03</rscale>
<asrwt>0</asrwt>
<pdfrwt beam="1">  1        1 0.16787923E+00 0.81567639E+03</pdfrwt>
<pdfrwt beam="2">  1       -1 0.13457949E+00 0.81567639E+03</pdfrwt>
<totfact> 0.61342384E+00</totfact>
</mgrwt>
</event>
<event>
 4    1  0.8749406E-009  0.8481706E+03  0.7818608E-02  0.9492796E-01
          1   -1    0    0  501    0  0.00000000000E+00  0.00000000000E+00  0.18176366248E+04  0.18176366248E+04  0.50400000000E-02 0. -1.
         -1   -1    0    0    0  501 -0.00000000000E+00 -0.00000000000E+00 -0.14513293215E+04  0.14513293215E+04  0.50400000000E-02 0.  1.
    8880022    1    1    2    0    0 -0.61823132408E+03 -0.56017123245E+03 -0.12107592544E+04  0.14782866450E+04  0.15294330000E+03 0.  0.
    8880022    1    1    2    0    0  0.61823132408E+03  0.56017123245E+03  0.15770665577E+04  0.17906793013E+04  0.15294330000E+03 0.  0.
<mgrwt>
<rscale>  0 0.84817064E+03</rscale>
<asrwt>0</asrwt>
<pdfrwt beam="1">  1        1 0.27963640E+00 0.84817064E+03</pdfrwt>
<pdfrwt beam="2">  1       -1 0.22328143E+00 0.84817064E+03</pdfrwt>
<totfact> 0.43177035E-01</totfact>
</mgrwt>
</event>
<event>
 4    1  0.8749406E-009  0.5181938E+03  0.7818608E-02  0.1009136E+00
          1   -1    0    0  501    0  0.00000000000E+00  0.00000000000E+00  0.43679263656E+03  0.43679263659E+03  0.50400000000E-02 0. -1.
         -1   -1    0    0    0  501 -0.00000000000E+00 -0.00000000000E+00 -0.90769015701E+03  0.90769015703E+03  0.50400000000E-02 0.  1.
    8880022    1    1    2    0    0  0.48042454192E+03  0.11968905154E+03  0.14643809705E+03  0.53848767750E+03  0.15294330000E+03 0.  0.
    8880022    1    1    2    0    0 -0.48042454192E+03 -0.11968905154E+03 -0.61733561750E+03  0.80599511611E+03  0.15294330000E+03 0.  0.
<mgrwt>
<rscale>  0 0.51819385E+03</rscale>
<asrwt>0</asrwt>
<pdfrwt beam="1">  1        1 0.67198867E-01 0.51819385E+03</pdfrwt>
<pdfrwt beam="2">  1       -1 0.13964464E+00 0.51819385E+03</pdfrwt>
<totfact> 0.23718982E+01</totfact>
</mgrwt>
</event>
<event>
 4    1  0.8749406E-009  0.1870005E+03  0.7818608E-02  0.1161195E+00
         -1   -1    0    0    0  501 -0.00000000000E+00  0.00000000000E+00  0.12600373338E+03  0.12600373348E+03  0.50400000000E-02 0.  1.
          1   -1    0    0  501    0  0.00000000000E+00 -0.00000000000E+00 -0.21979073336E+04  0.21979073336E+04  0.50400000000E-02 0. -1.
    8880022    1    1    2    0    0 -0.16602881051E+02  0.10631026251E+03 -0.21220739622E+04  0.21302974162E+04  0.15294330000E+03 0. -1.
    8880022    1    1    2    0    0  0.16602881051E+02 -0.10631026251E+03  0.50170361946E+02  0.19361365088E+03  0.15294330000E+03 0.  0.
<mgrwt>
<rscale>  0 0.18700048E+03</rscale>
<asrwt>0</asrwt>
<pdfrwt beam="1">  1        1 0.33813956E+00 0.18700048E+03</pdfrwt>
<pdfrwt beam="2">  1       -1 0.19385191E-01 0.18700048E+03</pdfrwt>
<totfact> 0.55495572E+01</totfact>
</mgrwt>
</event>
<event>
 4    1  0.8749406E-009  0.2015364E+03  0.7818608E-02  0.1148449E+00
         -1   -1    0    0    0  501 -0.00000000000E+00  0.00000000000E+00  0.45838379932E+03  0.45838379935E+03  0.50400000000E-02 0.  1.
          1   -1    0    0  501    0  0.00000000000E+00 -0.00000000000E+00 -0.76715982421E+03  0.76715982422E+03  0.50400000000E-02 0. -1.
    8880022    1    1    2    0    0 -0.62660685998E+01  0.13109540380E+03 -0.73068593057E+03  0.75797021753E+03  0.15294330000E+03 0.  0.
    8880022    1    1    2    0    0  0.62660685998E+01 -0.13109540380E+03  0.42190990568E+03  0.46757340604E+03  0.15294330000E+03 0.  1.
<mgrwt>
<rscale>  0 0.20153640E+03</rscale>
<asrwt>0</asrwt>
<pdfrwt beam="1">  1        1 0.11802459E+00 0.20153640E+03</pdfrwt>
<pdfrwt beam="2">  1       -1 0.70520585E-01 0.20153640E+03</pdfrwt>
<totfact> 0.53829057E+01</totfact>
</mgrwt>
</event>
<event>
 4    1  0.8749406E-009  0.7473956E+03  0.7818608E-02  0.9639445E-01
          1   -1    0    0  501    0  0.00000000000E+00  0.00000000000E+00  0.27242113954E+04  0.27242113954E+04  0.50400000000E-02 0. -1.
         -1   -1    0    0    0  501 -0.00000000000E+00 -0.00000000000E+00 -0.61764498426E+03  0.61764498429E+03  0.50400000000E-02 0.  1.
    8880022    1    1    2    0    0 -0.15186872798E+03  0.71564266774E+03 -0.31240064544E+03  0.81005824156E+03  0.15294330000E+03 0.  0.
    8880022    1    1    2    0    0  0.15186872798E+03 -0.71564266774E+03  0.24189670566E+04  0.25317981382E+04  0.15294330000E+03 0.  0.
<mgrwt>
<rscale>  0 0.74739561E+03</rscale>
<asrwt>0</asrwt>
<pdfrwt beam="1">  1        1 0.41910945E+00 0.74739561E+03</pdfrwt>
<pdfrwt beam="2">  1       -1 0.95022304E-01 0.74739561E+03</pdfrwt>
<totfact> 0.10829696E+00</totfact>
</mgrwt>
</event>
<event>
 4    1  0.8749406E-009  0.5610507E+03  0.7818608E-02  0.9989680E-01
         -1   -1    0    0    0  501 -0.00000000000E+00  0.00000000000E+00  0.27279976101E+03  0.27279976105E+03  0.50400000000E-02 0.  1.
          1   -1    0    0  501    0  0.00000000000E+00 -0.00000000000E+00 -0.21246564649E+04  0.21246564649E+04  0.50400000000E-02 0. -1.
    8880022    1    1    2    0    0 -0.82201253920E+02  0.53350653974E+03 -0.11564640170E+03  0.57284554405E+03  0.15294330000E+03 0.  0.
    8880022    1    1    2    0    0  0.82201253920E+02 -0.53350653974E+03 -0.17362103022E+04  0.18246106819E+04  0.15294330000E+03 0.  0.
<mgrwt>
<rscale>  0 0.56105073E+03</rscale>
<asrwt>0</asrwt>
<pdfrwt beam="1">  1        1 0.32687021E+00 0.56105073E+03</pdfrwt>
<pdfrwt beam="2">  1       -1 0.41969195E-01 0.56105073E+03</pdfrwt>
<totfact> 0.14766425E+01</totfact>
</mgrwt>
</event>
<event>
 4    1  0.8749406E-009  0.7222558E+03  0.7818608E-02  0.9679911E-01
          1   -1    0    0  501    0  0.00000000000E+00  0.00000000000E+00  0.17441895280E+04  0.17441895280E+04  0.50400000000E-02 0. -1.
         -1   -1    0    0    0  501 -0.00000000000E+00 -0.00000000000E+00 -0.67873399707E+03  0.67873399709E+03  0.50400000000E-02 0.  1.
    8880022    1    1    2    0    0  0.57242050724E+03  0.41303336917E+03 -0.37332499491E+03  0.81303444330E+03  0.15294330000E+03 0.  0.
    8880022    1    1    2    0    0 -0.57242050724E+03 -0.41303336917E+03  0.14387805259E+04  0.16098890818E+04  0.15294330000E+03 0.  0.
<mgrwt>
<rscale>  0 0.72225581E+03</rscale>
<asrwt>0</asrwt>
<pdfrwt beam="1">  1        1 0.26833685E+00 0.72225581E+03</pdfrwt>
<pdfrwt beam="2">  1       -1 0.10442061E+00 0.72225581E+03</pdfrwt>
<totfact> 0.40337084E+00</totfact>
</mgrwt>
</event>
<event>
 4    1  0.8749406E-009  0.6875900E+03  0.7818608E-02  0.9738694E-01
          1   -1    0    0  501    0  0.00000000000E+00  0.00000000000E+00  0.28028435474E+04  0.28028435474E+04  0.50400000000E-02 0. -1.
         -1   -1    0    0    0  501 -0.00000000000E+00 -0.00000000000E+00 -0.43582555547E+03  0.43582555550E+03  0.50400000000E-02 0.  1.
    8880022    1    1    2    0    0 -0.59081921870E+03 -0.31673481527E+03  0.24513222483E+04  0.25459302249E+04  0.15294330000E+03 0.  0.
    8880022    1    1    2    0    0  0.59081921870E+03  0.31673481527E+03 -0.84304256333E+02  0.69273887797E+03  0.15294330000E+03 0.  0.
<mgrwt>
<rscale>  0 0.68758995E+03</rscale>
<asrwt>0</asrwt>
<pdfrwt beam="1">  1        1 0.43120669E+00 0.68758995E+03</pdfrwt>
<pdfrwt beam="2">  1       -1 0.67050086E-01 0.68758995E+03</pdfrwt>
<totfact> 0.20278610E+00</totfact>
</mgrwt>
</event>
<event>
 4    1  0.8749406E-009  0.1261526E+04  0.7818608E-02  0.9060645E-01
         -1   -1    0    0    0  501 -0.00000000000E+00  0.00000000000E+00  0.52626253715E+03  0.52626253717E+03  0.50400000000E-02 0.  1.
          1   -1    0    0  501    0  0.00000000000E+00 -0.00000000000E+00 -0.34507852617E+04  0.34507852617E+04  0.50400000000E-02 0. -1.
    8880022    1    1    2    0    0  0.10296683104E+04 -0.71262807596E+03 -0.21615366519E+04  0.25027360937E+04  0.15294330000E+03 0.  0.
    8880022    1    1    2    0    0 -0.10296683104E+04  0.71262807596E+03 -0.76298607261E+03  0.14743117052E+04  0.15294330000E+03 0.  0.
<mgrwt>
<rscale>  0 0.12615258E+04</rscale>
<asrwt>0</asrwt>
<pdfrwt beam="1">  1        1 0.53089003E+00 0.12615258E+04</pdfrwt>
<pdfrwt beam="2">  1       -1 0.80963470E-01 0.12615258E+04</pdfrwt>
<totfact> 0.41369428E-01</totfact>
</mgrwt>
</event>
<event>
 4    1  0.8749406E-009  0.6315217E+03  0.7818608E-02  0.9842084E-01
          1   -1    0    0  501    0  0.00000000000E+00  0.00000000000E+00  0.18616958738E+04  0.18616958738E+04  0.50400000000E-02 0. -1.
         -1   -1    0    0    0  501 -0.00000000000E+00 -0.00000000000E+00 -0.38519283467E+03  0.38519283471E+03  0.50400000000E-02 0.  1.
    8880022    1    1    2    0    0 -0.51792446155E+03  0.32738695438E+03  0.14867159378E+04  0.16152844637E+04  0.15294330000E+03 0.  0.
    8880022    1    1    2    0    0  0.51792446155E+03 -0.32738695438E+03 -0.10212898721E+02  0.63160424483E+03  0.15294330000E+03 0.  0.
<mgrwt>
<rscale>  0 0.63152167E+03</rscale>
<asrwt>0</asrwt>
<pdfrwt beam="1">  1        1 0.28641474E+00 0.63152167E+03</pdfrwt>
<pdfrwt beam="2">  1       -1 0.59260437E-01 0.63152167E+03</pdfrwt>
<totfact> 0.11360747E+01</totfact>
</mgrwt>
</event>
<event>
 4    1  0.8749406E-009  0.1399429E+04  0.7818608E-02  0.8954232E-01
         -1   -1    0    0    0  501 -0.00000000000E+00  0.00000000000E+00  0.16763370460E+04  0.16763370460E+04  0.50400000000E-02 0.  1.
          1   -1    0    0  501    0  0.00000000000E+00 -0.00000000000E+00 -0.28009806269E+04  0.28009806269E+04  0.50400000000E-02 0. -1.
    8880022    1    1    2    0    0  0.59146282706E+03 -0.12590395252E+04 -0.22715048034E+04  0.26679832321E+04  0.15294330000E+03 0.  0.
    8880022    1    1    2    0    0 -0.59146282706E+03  0.12590395252E+04  0.11468612225E+04  0.18093344408E+04  0.15294330000E+03 0.  0.
<mgrwt>
<rscale>  0 0.13994286E+04</rscale>
<asrwt>0</asrwt>
<pdfrwt beam="1">  1        1 0.43092010E+00 0.13994286E+04</pdfrwt>
<pdfrwt beam="2">  1       -1 0.25789801E+00 0.13994286E+04</pdfrwt>
<totfact> 0.49384275E-02</totfact>
</mgrwt>
</event>
<event>
 4    1  0.8749406E-009  0.4729537E+03  0.7818608E-02  0.1021090E+00
          1   -1    0    0  501    0  0.00000000000E+00  0.00000000000E+00  0.16331783736E+04  0.16331783736E+04  0.50400000000E-02 0. -1.
         -1   -1    0    0    0  501 -0.00000000000E+00 -0.00000000000E+00 -0.33573740883E+03  0.33573740887E+03  0.50400000000E-02 0.  1.
    8880022    1    1    2    0    0  0.13321796722E+03 -0.42725468664E+03 -0.10877030242E+03  0.48530013986E+03  0.15294330000E+03 0.  0.
    8880022    1    1    2    0    0 -0.13321796722E+03  0.42725468664E+03  0.14062112671E+04  0.14836156426E+04  0.15294330000E+03 0. -1.
<mgrwt>
<rscale>  0 0.47295375E+03</rscale>
<asrwt>0</asrwt>
<pdfrwt beam="1">  1        1 0.25125821E+00 0.47295375E+03</pdfrwt>
<pdfrwt beam="2">  1       -1 0.51651910E-01 0.47295375E+03</pdfrwt>
<totfact> 0.21679954E+01</totfact>
</mgrwt>
</event>
<event>
 4    1  0.8749406E-009  0.6044203E+03  0.7818608E-02  0.9896278E-01
          1   -1    0    0  501    0  0.00000000000E+00  0.00000000000E+00  0.15060053331E+04  0.15060053331E+04  0.50400000000E-02 0. -1.
         -1   -1    0    0    0  501 -0.00000000000E+00 -0.00000000000E+00 -0.67179595544E+03  0.67179595546E+03  0.50400000000E-02 0.  1.
    8880022    1    1    2    0    0  0.49197248006E+03  0.31606220863E+03 -0.45327442063E+03  0.75550088966E+03  0.15294330000E+03 0.  0.
    8880022    1    1    2    0    0 -0.49197248006E+03 -0.31606220863E+03  0.12874837982E+04  0.14223003989E+04  0.15294330000E+03 0.  0.
<mgrwt>
<rscale>  0 0.60442030E+03</rscale>
<asrwt>0</asrwt>
<pdfrwt beam="1">  1        1 0.23169313E+00 0.60442030E+03</pdfrwt>
<pdfrwt beam="2">  1       -1 0.10335322E+00 0.60442030E+03</pdfrwt>
<totfact> 0.61176457E+00</totfact>
</mgrwt>
</event>
<event>
 4    1  0.8749406E-009  0.8800862E+03  0.7818608E-02  0.9450823E-01
          1   -1    0    0  501    0  0.00000000000E+00  0.00000000000E+00  0.29580656816E+04  0.29580656816E+04  0.50400000000E-02 0. -1.
         -1   -1    0    0    0  501 -0.00000000000E+00 -0.00000000000E+00 -0.38936506590E+03  0.38936506593E+03  0.50400000000E-02 0.  1.
    8880022    1    1    2    0    0 -0.57237632219E+03  0.65080362551E+03  0.22421928651E+04  0.24087300618E+04  0.15294330000E+03 0.  0.
    8880022    1    1    2    0    0  0.57237632219E+03 -0.65080362551E+03  0.32650775056E+03  0.93870068572E+03  0.15294330000E+03 0.  0.
<mgrwt>
<rscale>  0 0.88008617E+03</rscale>
<asrwt>0</asrwt>
<pdfrwt beam="1">  1        1 0.45508705E+00 0.88008617E+03</pdfrwt>
<pdfrwt beam="2">  1       -1 0.59902315E-01 0.88008617E+03</pdfrwt>
<totfact> 0.18982643E+00</totfact>
</mgrwt>
</event>
<event>
 4    1  0.8749406E-009  0.1427272E+04  0.7818608E-02  0.8934311E-01
          1   -1    0    0  501    0  0.00000000000E+00  0.00000000000E+00  0.17694642680E+04  0.17694642680E+04  0.50400000000E-02 0. -1.
         -1   -1    0    0    0  501 -0.00000000000E+00 -0.00000000000E+00 -0.15494658478E+04  0.15494658478E+04  0.50400000000E-02 0.  1.
    8880022    1    1    2    0    0 -0.13175505265E+04 -0.52704400546E+03 -0.73126629981E+03  0.16037009783E+04  0.15294330000E+03 0.  0.
    8880022    1    1    2    0    0  0.13175505265E+04  0.52704400546E+03  0.95126472004E+03  0.17152291375E+04  0.15294330000E+03 0.  0.
<mgrwt>
<rscale>  0 0.14272724E+04</rscale>
<asrwt>0</asrwt>
<pdfrwt beam="1">  1        1 0.27222527E+00 0.14272724E+04</pdfrwt>
<pdfrwt beam="2">  1       -1 0.23837936E+00 0.14272724E+04</pdfrwt>
<totfact> 0.33823387E-01</totfact>
</mgrwt>
</event>
<event>
 4    1  0.8749406E-009  0.8412031E+03  0.7818608E-02  0.9502221E-01
          1   -1    0    0  501    0  0.00000000000E+00  0.00000000000E+00  0.12973945743E+04  0.12973945743E+04  0.50400000000E-02 0. -1.
         -1   -1    0    0    0  501 -0.00000000000E+00 -0.00000000000E+00 -0.92156587256E+03  0.92156587258E+03  0.50400000000E-02 0.  1.
    8880022    1    1    2    0    0  0.64175827033E+03  0.52189779284E+03  0.89673368101E+03  0.12295340302E+04  0.15294330000E+03 0.  0.
    8880022    1    1    2    0    0 -0.64175827033E+03 -0.52189779284E+03 -0.52090497925E+03  0.98942641673E+03  0.15294330000E+03 0.  0.
<mgrwt>
<rscale>  0 0.84120309E+03</rscale>
<asrwt>0</asrwt>
<pdfrwt beam="1">  1        1 0.19959917E+00 0.84120309E+03</pdfrwt>
<pdfrwt beam="2">  1       -1 0.14177936E+00 0.84120309E+03</pdfrwt>
<totfact> 0.37788981E+00</totfact>
</mgrwt>
</event>
<event>
 4    1  0.8749406E-009  0.5069061E+03  0.7818608E-02  0.1011992E+00
          1   -1    0    0  501    0  0.00000000000E+00  0.00000000000E+00  0.43720912455E+03  0.43720912458E+03  0.50400000000E-02 0. -1.
         -1   -1    0    0    0  501 -0.00000000000E+00 -0.00000000000E+00 -0.20488254353E+04  0.20488254353E+04  0.50400000000E-02 0.  1.
    8880022    1    1    2    0    0 -0.23192181409E+03 -0.42399808375E+03  0.24389478655E+03  0.56252859731E+03  0.15294330000E+03 0.  0.
    8880022    1    1    2    0    0  0.23192181409E+03  0.42399808375E+03 -0.18555110973E+04  0.19235059626E+04  0.15294330000E+03 0.  0.
<mgrwt>
<rscale>  0 0.50690606E+03</rscale>
<asrwt>0</asrwt>
<pdfrwt beam="1">  1        1 0.67262943E-01 0.50690606E+03</pdfrwt>
<pdfrwt beam="2">  1       -1 0.31520391E+00 0.50690606E+03</pdfrwt>
<totfact> 0.15574172E+00</totfact>
</mgrwt>
</event>
<event>
 4    1  0.8749406E-009  0.9516398E+03  0.7818608E-02  0.9363236E-01
         -1   -1    0    0    0  501 -0.00000000000E+00  0.00000000000E+00  0.59141636533E+03  0.59141636536E+03  0.50400000000E-02 0.  1.
          1   -1    0    0  501    0  0.00000000000E+00 -0.00000000000E+00 -0.19458935878E+04  0.19458935878E+04  0.50400000000E-02 0. -1.
    8880022    1    1    2    0    0  0.52446926039E+03 -0.77920383502E+03 -0.91625400344E+02  0.95604052665E+03  0.15294330000E+03 0.  0.
    8880022    1    1    2    0    0 -0.52446926039E+03  0.77920383502E+03 -0.12628518222E+04  0.15812694265E+04  0.15294330000E+03 0.  0.
<mgrwt>
<rscale>  0 0.95163978E+03</rscale>
<asrwt>0</asrwt>
<pdfrwt beam="1">  1        1 0.29936824E+00 0.95163978E+03</pdfrwt>
<pdfrwt beam="2">  1       -1 0.90987134E-01 0.95163978E+03</pdfrwt>
<totfact> 0.38896898E+00</totfact>
</mgrwt>
</event>
<event>
 4    1  0.8749406E-009  0.1997954E+04  0.7818608E-02  0.8607578E-01
         -1   -1    0    0    0  501 -0.00000000000E+00  0.00000000000E+00  0.21496416629E+04  0.21496416629E+04  0.50400000000E-02 0.  1.
          1   -1    0    0  501    0  0.00000000000E+00 -0.00000000000E+00 -0.23275622665E+04  0.23275622665E+04  0.50400000000E-02 0. -1.
    8880022    1    1    2    0    0 -0.17419885858E+04  0.96638629333E+03  0.91762130379E+03  0.21986011942E+04  0.15294330000E+03 0.  0.
    8880022    1    1    2    0    0  0.17419885858E+04 -0.96638629333E+03 -0.10955419074E+04  0.22786027352E+04  0.15294330000E+03 0.  0.
<mgrwt>
<rscale>  0 0.19979535E+04</rscale>
<asrwt>0</asrwt>
<pdfrwt beam="1">  1        1 0.35808651E+00 0.19979535E+04</pdfrwt>
<pdfrwt beam="2">  1       -1 0.33071410E+00 0.19979535E+04</pdfrwt>
<totfact> 0.32943710E-02</totfact>
</mgrwt>
</event>
<event>
 4    1  0.8749406E-009  0.3026271E+03  0.7818608E-02  0.1083935E+00
         -1   -1    0    0    0  501 -0.00000000000E+00  0.00000000000E+00  0.10683858197E+04  0.10683858197E+04  0.50400000000E-02 0.  1.
          1   -1    0    0  501    0  0.00000000000E+00 -0.00000000000E+00 -0.28771156177E+03  0.28771156181E+03  0.50400000000E-02 0. -1.
    8880022    1    1    2    0    0  0.62648275595E+01 -0.26105985961E+03 -0.17779285723E+03  0.35098924693E+03  0.15294330000E+03 0.  0.
    8880022    1    1    2    0    0 -0.62648275595E+01  0.26105985961E+03  0.95846711520E+03  0.10051081346E+04  0.15294330000E+03 0.  1.
<mgrwt>
<rscale>  0 0.30262708E+03</rscale>
<asrwt>0</asrwt>
<pdfrwt beam="1">  1        1 0.44263317E-01 0.30262708E+03</pdfrwt>
<pdfrwt beam="2">  1       -1 0.16436705E+00 0.30262708E+03</pdfrwt>
<totfact> 0.27403956E+01</totfact>
</mgrwt>
</event>
<event>
 4    1  0.8749406E-009  0.7581321E+03  0.7818608E-02  0.9622678E-01
         -1   -1    0    0    0  501 -0.00000000000E+00  0.00000000000E+00  0.76153641409E+03  0.76153641411E+03  0.50400000000E-02 0.  1.
          1   -1    0    0  501    0  0.00000000000E+00 -0.00000000000E+00 -0.23693444137E+04  0.23693444137E+04  0.50400000000E-02 0. -1.
    8880022    1    1    2    0    0  0.15432659015E+02 -0.74238429432E+03 -0.20961795009E+04  0.22290654455E+04  0.15294330000E+03 0.  0.
    8880022    1    1    2    0    0 -0.15432659015E+02  0.74238429432E+03  0.48837150130E+03  0.90181538228E+03  0.15294330000E+03 0.  0.
<mgrwt>
<rscale>  0 0.75813209E+03</rscale>
<asrwt>0</asrwt>
<pdfrwt beam="1">  1        1 0.36451452E+00 0.75813209E+03</pdfrwt>
<pdfrwt beam="2">  1       -1 0.11715945E+00 0.75813209E+03</pdfrwt>
<totfact> 0.11628781E+00</totfact>
</mgrwt>
</event>
<event>
 4    1  0.8749406E-009  0.7705179E+03  0.7818608E-02  0.9603700E-01
         -1   -1    0    0    0  501 -0.00000000000E+00  0.00000000000E+00  0.75575910240E+03  0.75575910242E+03  0.50400000000E-02 0.  1.
          1   -1    0    0  501    0  0.00000000000E+00 -0.00000000000E+00 -0.16661421798E+04  0.16661421798E+04  0.50400000000E-02 0. -1.
    8880022    1    1    2    0    0 -0.50714154958E+03 -0.55956552516E+03  0.42515601894E+03  0.88003148904E+03  0.15294330000E+03 0.  0.
    8880022    1    1    2    0    0  0.50714154958E+03  0.55956552516E+03 -0.13355390963E+04  0.15418697932E+04  0.15294330000E+03 0.  0.
<mgrwt>
<rscale>  0 0.77051787E+03</rscale>
<asrwt>0</asrwt>
<pdfrwt beam="1">  1        1 0.25632957E+00 0.77051787E+03</pdfrwt>
<pdfrwt beam="2">  1       -1 0.11627063E+00 0.77051787E+03</pdfrwt>
<totfact> 0.35028946E+00</totfact>
</mgrwt>
</event>
<event>
 4    1  0.8749406E-009  0.2117455E+03  0.7818608E-02  0.1140191E+00
         -1   -1    0    0    0  501 -0.00000000000E+00  0.00000000000E+00  0.80301030421E+03  0.80301030422E+03  0.50400000000E-02 0.  1.
          1   -1    0    0  501    0  0.00000000000E+00 -0.00000000000E+00 -0.76173270383E+03  0.76173270384E+03  0.50400000000E-02 0. -1.
    8880022    1    1    2    0    0 -0.14522749108E+03 -0.18801098343E+02  0.77379070314E+03  0.80223949713E+03  0.15294330000E+03 0.  1.
    8880022    1    1    2    0    0  0.14522749108E+03  0.18801098343E+02 -0.73251310276E+03  0.76250351094E+03  0.15294330000E+03 0.  0.
<mgrwt>
<rscale>  0 0.21174550E+03</rscale>
<asrwt>0</asrwt>
<pdfrwt beam="1">  1        1 0.11718965E+00 0.21174550E+03</pdfrwt>
<pdfrwt beam="2">  1       -1 0.12354005E+00 0.21174550E+03</pdfrwt>
<totfact> 0.15974656E+01</totfact>
</mgrwt>
</event>
<event>
 4    1  0.8749406E-009  0.2263256E+03  0.7818608E-02  0.1129253E+00
          1   -1    0    0  501    0  0.00000000000E+00  0.00000000000E+00  0.30369023613E+03  0.30369023618E+03  0.50400000000E-02 0. -1.
         -1   -1    0    0    0  501 -0.00000000000E+00 -0.00000000000E+00 -0.79558576228E+03  0.79558576230E+03  0.50400000000E-02 0.  1.
    8880022    1    1    2    0    0 -0.16522667534E+03  0.23060230017E+02 -0.73385584869E+03  0.76796333775E+03  0.15294330000E+03 0.  0.
    8880022    1    1    2    0    0  0.16522667534E+03 -0.23060230017E+02  0.24196032255E+03  0.33131266072E+03  0.15294330000E+03 0. -1.
<mgrwt>
<rscale>  0 0.22632561E+03</rscale>
<asrwt>0</asrwt>
<pdfrwt beam="1">  1        1 0.46721575E-01 0.22632561E+03</pdfrwt>
<pdfrwt beam="2">  1       -1 0.12239781E+00 0.22632561E+03</pdfrwt>
<totfact> 0.55570687E+01</totfact>
</mgrwt>
</event>
<event>
 4    1  0.8749406E-009  0.9438362E+03  0.7818608E-02  0.9372384E-01
         -1   -1    0    0    0  501 -0.00000000000E+00  0.00000000000E+00  0.11134783876E+04  0.11134783876E+04  0.50400000000E-02 0.  1.
          1   -1    0    0  501    0  0.00000000000E+00 -0.00000000000E+00 -0.14019239656E+04  0.14019239656E+04  0.50400000000E-02 0. -1.
    8880022    1    1    2    0    0  0.60739153791E+03 -0.70605291956E+03 -0.96830729841E+03  0.13522003856E+04  0.15294330000E+03 0.  0.
    8880022    1    1    2    0    0 -0.60739153791E+03  0.70605291956E+03  0.67986172042E+03  0.11632019676E+04  0.15294330000E+03 0.  0.
<mgrwt>
<rscale>  0 0.94383625E+03</rscale>
<asrwt>0</asrwt>
<pdfrwt beam="1">  1        1 0.21568061E+00 0.94383625E+03</pdfrwt>
<pdfrwt beam="2">  1       -1 0.17130437E+00 0.94383625E+03</pdfrwt>
<totfact> 0.18680309E+00</totfact>
</mgrwt>
</event>
<event>
 4    1  0.8749406E-009  0.2618328E+03  0.7818608E-02  0.1106047E+00
          1   -1    0    0  501    0  0.00000000000E+00  0.00000000000E+00  0.13275229704E+03  0.13275229714E+03  0.50400000000E-02 0. -1.
         -1   -1    0    0    0  501 -0.00000000000E+00 -0.00000000000E+00 -0.10085895102E+04  0.10085895102E+04  0.50400000000E-02 0.  1.
    8880022    1    1    2    0    0 -0.21247458177E+03  0.43927482385E+01 -0.83656179190E+03  0.87657973329E+03  0.15294330000E+03 0.  0.
    8880022    1    1    2    0    0  0.21247458177E+03 -0.43927482385E+01 -0.39275421270E+02  0.26476207407E+03  0.15294330000E+03 0.  0.
<mgrwt>
<rscale>  0 0.26183277E+03</rscale>
<asrwt>0</asrwt>
<pdfrwt beam="1">  1        1 0.20423431E-01 0.26183277E+03</pdfrwt>
<pdfrwt beam="2">  1       -1 0.15516761E+00 0.26183277E+03</pdfrwt>
<totfact> 0.86488111E+01</totfact>
</mgrwt>
</event>
<event>
 4    1  0.8749406E-009  0.4004319E+03  0.7818608E-02  0.1043630E+00
         -1   -1    0    0    0  501 -0.00000000000E+00  0.00000000000E+00  0.28409759285E+03  0.28409759289E+03  0.50400000000E-02 0.  1.
          1   -1    0    0  501    0  0.00000000000E+00 -0.00000000000E+00 -0.18041902320E+04  0.18041902321E+04  0.50400000000E-02 0. -1.
    8880022    1    1    2    0    0 -0.80909820809E+02 -0.36111994665E+03 -0.16255973828E+04  0.16741901083E+04  0.15294330000E+03 0.  0.
    8880022    1    1    2    0    0  0.80909820809E+02  0.36111994665E+03  0.10550474357E+03  0.41409771661E+03  0.15294330000E+03 0.  0.
<mgrwt>
<rscale>  0 0.40043185E+03</rscale>
<asrwt>0</asrwt>
<pdfrwt beam="1">  1        1 0.27756772E+00 0.40043185E+03</pdfrwt>
<pdfrwt beam="2">  1       -1 0.43707323E-01 0.40043185E+03</pdfrwt>
<totfact> 0.23167769E+01</totfact>
</mgrwt>
</event>
<event>
 4    1  0.8749406E-009  0.3042056E+03  0.7818608E-02  0.1083157E+00
          1   -1    0    0  501    0  0.00000000000E+00  0.00000000000E+00  0.20737815655E+04  0.20737815655E+04  0.50400000000E-02 0. -1.
         -1   -1    0    0    0  501 -0.00000000000E+00 -0.00000000000E+00 -0.33894317646E+03  0.33894317650E+03  0.50400000000E-02 0.  1.
    8880022    1    1    2    0    0  0.22118302509E+03 -0.14222318784E+03 -0.25672857838E+03  0.39805851544E+03  0.15294330000E+03 0.  1.
    8880022    1    1    2    0    0 -0.22118302509E+03  0.14222318784E+03  0.19915669675E+04  0.20146662266E+04  0.15294330000E+03 0.  0.
<mgrwt>
<rscale>  0 0.30420555E+03</rscale>
<asrwt>0</asrwt>
<pdfrwt beam="1">  1        1 0.31904331E+00 0.30420555E+03</pdfrwt>
<pdfrwt beam="2">  1       -1 0.52145105E-01 0.30420555E+03</pdfrwt>
<totfact> 0.11488388E+01</totfact>
</mgrwt>
</event>
<event>
 4    1  0.8749406E-009  0.6801369E+03  0.7818608E-02  0.9751817E-01
         -1   -1    0    0    0  501 -0.00000000000E+00  0.00000000000E+00  0.11062705010E+04  0.11062705010E+04  0.50400000000E-02 0.  1.
          1   -1    0    0  501    0  0.00000000000E+00 -0.00000000000E+00 -0.98070165285E+03  0.98070165286E+03  0.50400000000E-02 0. -1.
    8880022    1    1    2    0    0 -0.51286614382E+03 -0.41971768593E+03  0.85309840653E+03  0.10910376536E+04  0.15294330000E+03 0.  0.
    8880022    1    1    2    0    0  0.51286614382E+03  0.41971768593E+03 -0.72752955841E+03  0.99593450022E+03  0.15294330000E+03 0.  0.
<mgrwt>
<rscale>  0 0.68013695E+03</rscale>
<asrwt>0</asrwt>
<pdfrwt beam="1">  1        1 0.15087718E+00 0.68013695E+03</pdfrwt>
<pdfrwt beam="2">  1       -1 0.17019546E+00 0.68013695E+03</pdfrwt>
<totfact> 0.40367531E+00</totfact>
</mgrwt>
</event>
<event>
 4    1  0.8749406E-009  0.1006628E+04  0.7818608E-02  0.9301305E-01
         -1   -1    0    0    0  501 -0.00000000000E+00  0.00000000000E+00  0.11427489057E+04  0.11427489057E+04  0.50400000000E-02 0.  1.
          1   -1    0    0  501    0  0.00000000000E+00 -0.00000000000E+00 -0.11620355119E+04  0.11620355119E+04  0.50400000000E-02 0. -1.
    8880022    1    1    2    0    0  0.99288642158E+03 -0.63917008582E+02  0.55128125404E+03  0.11476983507E+04  0.15294330000E+03 0.  0.
    8880022    1    1    2    0    0 -0.99288642158E+03  0.63917008582E+02 -0.57056786027E+03  0.11570860670E+04  0.15294330000E+03 0.  0.
<mgrwt>
<rscale>  0 0.10066283E+04</rscale>
<asrwt>0</asrwt>
<pdfrwt beam="1">  1        1 0.17877469E+00 0.10066283E+04</pdfrwt>
<pdfrwt beam="2">  1       -1 0.17580752E+00 0.10066283E+04</pdfrwt>
<totfact> 0.25505003E+00</totfact>
</mgrwt>
</event>
<event>
 4    1  0.8749406E-009  0.1285040E+04  0.7818608E-02  0.9041513E-01
         -1   -1    0    0    0  501 -0.00000000000E+00  0.00000000000E+00  0.10305867583E+04  0.10305867583E+04  0.50400000000E-02 0.  1.
          1   -1    0    0  501    0  0.00000000000E+00 -0.00000000000E+00 -0.25855089919E+04  0.25855089919E+04  0.50400000000E-02 0. -1.
    8880022    1    1    2    0    0  0.10631823096E+04 -0.70539343473E+03 -0.18924120269E+04  0.22874770936E+04  0.15294330000E+03 0.  0.
    8880022    1    1    2    0    0 -0.10631823096E+04  0.70539343473E+03  0.33748979323E+03  0.13286186566E+04  0.15294330000E+03 0.  0.
<mgrwt>
<rscale>  0 0.12850401E+04</rscale>
<asrwt>0</asrwt>
<pdfrwt beam="1">  1        1 0.39777061E+00 0.12850401E+04</pdfrwt>
<pdfrwt beam="2">  1       -1 0.15855181E+00 0.12850401E+04</pdfrwt>
<totfact> 0.34530984E-01</totfact>
</mgrwt>
</event>
<event>
 4    1  0.8749406E-009  0.6680389E+03  0.7818608E-02  0.9773507E-01
          1   -1    0    0  501    0  0.00000000000E+00  0.00000000000E+00  0.47376030226E+03  0.47376030228E+03  0.50400000000E-02 0. -1.
         -1   -1    0    0    0  501 -0.00000000000E+00 -0.00000000000E+00 -0.14819379006E+04  0.14819379006E+04  0.50400000000E-02 0.  1.
    8880022    1    1    2    0    0  0.52015345273E+03 -0.39028790763E+03  0.86158599387E+02  0.67357198761E+03  0.15294330000E+03 0.  0.
    8880022    1    1    2    0    0 -0.52015345273E+03  0.39028790763E+03 -0.10943361977E+04  0.12821262153E+04  0.15294330000E+03 0.  0.
<mgrwt>
<rscale>  0 0.66803886E+03</rscale>
<asrwt>0</asrwt>
<pdfrwt beam="1">  1        1 0.72886201E-01 0.66803886E+03</pdfrwt>
<pdfrwt beam="2">  1       -1 0.22799044E+00 0.66803886E+03</pdfrwt>
<totfact> 0.48840727E+00</totfact>
</mgrwt>
</event>
<event>
 4    1  0.8749406E-009  0.2768281E+03  0.7818608E-02  0.1097434E+00
         -1   -1    0    0    0  501 -0.00000000000E+00  0.00000000000E+00  0.24906370889E+03  0.24906370894E+03  0.50400000000E-02 0.  1.
          1   -1    0    0  501    0  0.00000000000E+00 -0.00000000000E+00 -0.12834260620E+04  0.12834260620E+04  0.50400000000E-02 0. -1.
    8880022    1    1    2    0    0 -0.16147702917E+03  0.16482503252E+03 -0.11852926182E+04  0.12171903574E+04  0.15294330000E+03 0.  0.
    8880022    1    1    2    0    0  0.16147702917E+03 -0.16482503252E+03  0.15093026506E+03  0.31529941360E+03  0.15294330000E+03 0.  0.
<mgrwt>
<rscale>  0 0.27682806E+03</rscale>
<asrwt>0</asrwt>
<pdfrwt beam="1">  1        1 0.19745016E+00 0.27682806E+03</pdfrwt>
<pdfrwt beam="2">  1       -1 0.38317494E-01 0.27682806E+03</pdfrwt>
<totfact> 0.67591780E+01</totfact>
</mgrwt>
</event>
<event>
 4    1  0.8749406E-009  0.8164351E+03  0.7818608E-02  0.9536528E-01
          1   -1    0    0  501    0  0.00000000000E+00  0.00000000000E+00  0.74814364680E+03  0.74814364682E+03  0.50400000000E-02 0. -1.
         -1   -1    0    0    0  501 -0.00000000000E+00 -0.00000000000E+00 -0.16697806375E+04  0.16697806375E+04  0.50400000000E-02 0.  1.
    8880022    1    1    2    0    0  0.45384889335E+03 -0.66120788579E+03 -0.12864791962E+04  0.15236781358E+04  0.15294330000E+03 0.  0.
    8880022    1    1    2    0    0 -0.45384889335E+03  0.66120788579E+03  0.36484220549E+03  0.89424614853E+03  0.15294330000E+03 0.  0.
<mgrwt>
<rscale>  0 0.81643514E+03</rscale>
<asrwt>0</asrwt>
<pdfrwt beam="1">  1        1 0.11509902E+00 0.81643514E+03</pdfrwt>
<pdfrwt beam="2">  1       -1 0.25688933E+00 0.81643514E+03</pdfrwt>
<totfact> 0.16020190E+00</totfact>
</mgrwt>
</event>
<event>
 4    1  0.8749406E-009  0.5698554E+03  0.7818608E-02  0.9969999E-01
          1   -1    0    0  501    0  0.00000000000E+00  0.00000000000E+00  0.11339799100E+04  0.11339799100E+04  0.50400000000E-02 0. -1.
         -1   -1    0    0    0  501 -0.00000000000E+00 -0.00000000000E+00 -0.30919423028E+03  0.30919423033E+03  0.50400000000E-02 0.  1.
    8880022    1    1    2    0    0 -0.50040848226E+03 -0.22568757018E+03  0.60845478893E+03  0.83363805794E+03  0.15294330000E+03 0.  0.
    8880022    1    1    2    0    0  0.50040848226E+03  0.22568757018E+03  0.21633089081E+03  0.60953608243E+03  0.15294330000E+03 0.  0.
<mgrwt>
<rscale>  0 0.56985540E+03</rscale>
<asrwt>0</asrwt>
<pdfrwt beam="1">  1        1 0.17445844E+00 0.56985540E+03</pdfrwt>
<pdfrwt beam="2">  1       -1 0.47568344E-01 0.56985540E+03</pdfrwt>
<totfact> 0.55163439E+01</totfact>
</mgrwt>
</event>
<event>
 4    1  0.8749406E-009  0.5440127E+03  0.7818608E-02  0.1002889E+00
         -1   -1    0    0    0  501 -0.00000000000E+00  0.00000000000E+00  0.35584477306E+04  0.35584477306E+04  0.50400000000E-02 0.  1.
          1   -1    0    0  501    0  0.00000000000E+00 -0.00000000000E+00 -0.81366396396E+03  0.81366396397E+03  0.50400000000E-02 0. -1.
    8880022    1    1    2    0    0  0.31720147559E+03  0.41465816051E+03  0.34437135687E+04  0.34864183574E+04  0.15294330000E+03 0.  0.
    8880022    1    1    2    0    0 -0.31720147559E+03 -0.41465816051E+03 -0.69892980212E+03  0.88569333716E+03  0.15294330000E+03 0.  0.
<mgrwt>
<rscale>  0 0.54401270E+03</rscale>
<asrwt>0</asrwt>
<pdfrwt beam="1">  1        1 0.12517907E+00 0.54401270E+03</pdfrwt>
<pdfrwt beam="2">  1       -1 0.54745349E+00 0.54401270E+03</pdfrwt>
<totfact> 0.18624606E-02</totfact>
</mgrwt>
</event>
<event>
 4    1  0.8749406E-009  0.5144021E+03  0.7818608E-02  0.1010087E+00
          1   -1    0    0  501    0  0.00000000000E+00  0.00000000000E+00  0.15335347267E+04  0.15335347267E+04  0.50400000000E-02 0. -1.
         -1   -1    0    0    0  501 -0.00000000000E+00 -0.00000000000E+00 -0.51627267057E+03  0.51627267059E+03  0.50400000000E-02 0.  1.
    8880022    1    1    2    0    0 -0.25716924922E+03 -0.41842782747E+03 -0.32764252329E+03  0.60988453467E+03  0.15294330000E+03 0.  0.
    8880022    1    1    2    0    0  0.25716924922E+03  0.41842782747E+03  0.13449045794E+04  0.14399228626E+04  0.15294330000E+03 0.  0.
<mgrwt>
<rscale>  0 0.51440210E+03</rscale>
<asrwt>0</asrwt>
<pdfrwt beam="1">  1        1 0.23592842E+00 0.51440210E+03</pdfrwt>
<pdfrwt beam="2">  1       -1 0.79426566E-01 0.51440210E+03</pdfrwt>
<totfact> 0.10648477E+01</totfact>
</mgrwt>
</event>
<event>
 4    1  0.8749406E-009  0.5445712E+03  0.7818608E-02  0.1002758E+00
         -1   -1    0    0    0  501 -0.00000000000E+00  0.00000000000E+00  0.50136442391E+03  0.50136442394E+03  0.50400000000E-02 0.  1.
          1   -1    0    0  501    0  0.00000000000E+00 -0.00000000000E+00 -0.84610333549E+03  0.84610333550E+03  0.50400000000E-02 0. -1.
    8880022    1    1    2    0    0  0.51620220885E+03  0.81862030386E+02  0.19720974534E+03  0.57917997990E+03  0.15294330000E+03 0.  0.
    8880022    1    1    2    0    0 -0.51620220885E+03 -0.81862030386E+02 -0.54194865691E+03  0.76828777954E+03  0.15294330000E+03 0.  0.
<mgrwt>
<rscale>  0 0.54457118E+03</rscale>
<asrwt>0</asrwt>
<pdfrwt beam="1">  1        1 0.13016974E+00 0.54457118E+03</pdfrwt>
<pdfrwt beam="2">  1       -1 0.77132988E-01 0.54457118E+03</pdfrwt>
<totfact> 0.35743243E+01</totfact>
</mgrwt>
</event>
<event>
 4    1  0.8749406E-009  0.8463760E+03  0.7818608E-02  0.9495214E-01
         -1   -1    0    0    0  501 -0.00000000000E+00  0.00000000000E+00  0.81933863246E+03  0.81933863248E+03  0.50400000000E-02 0.  1.
          1   -1    0    0  501    0  0.00000000000E+00 -0.00000000000E+00 -0.10289147395E+04  0.10289147395E+04  0.50400000000E-02 0. -1.
    8880022    1    1    2    0    0  0.72138576938E+03 -0.41540742183E+03 -0.46301587197E+03  0.96474665332E+03  0.15294330000E+03 0.  0.
    8880022    1    1    2    0    0 -0.72138576938E+03  0.41540742183E+03  0.25343976497E+03  0.88350671863E+03  0.15294330000E+03 0.  0.
<mgrwt>
<rscale>  0 0.84637604E+03</rscale>
<asrwt>0</asrwt>
<pdfrwt beam="1">  1        1 0.15829457E+00 0.84637604E+03</pdfrwt>
<pdfrwt beam="2">  1       -1 0.12605210E+00 0.84637604E+03</pdfrwt>
<totfact> 0.80356071E+00</totfact>
</mgrwt>
</event>
<event>
 4    1  0.8749406E-009  0.4183096E+03  0.7818608E-02  0.1037618E+00
          1   -1    0    0  501    0  0.00000000000E+00  0.00000000000E+00  0.96983127868E+03  0.96983127869E+03  0.50400000000E-02 0. -1.
         -1   -1    0    0    0  501 -0.00000000000E+00 -0.00000000000E+00 -0.22247375600E+03  0.22247375606E+03  0.50400000000E-02 0.  1.
    8880022    1    1    2    0    0  0.37728557653E+03 -0.96160524072E+02  0.63285114456E+03  0.75860627260E+03  0.15294330000E+03 0.  1.
    8880022    1    1    2    0    0 -0.37728557653E+03  0.96160524072E+02  0.11450637811E+03  0.43369876215E+03  0.15294330000E+03 0.  0.
<mgrwt>
<rscale>  0 0.41830958E+03</rscale>
<asrwt>0</asrwt>
<pdfrwt beam="1">  1        1 0.14920481E+00 0.41830958E+03</pdfrwt>
<pdfrwt beam="2">  1       -1 0.34226731E-01 0.41830958E+03</pdfrwt>
<totfact> 0.13549689E+02</totfact>
</mgrwt>
</event>
<event>
 4    1  0.8749406E-009  0.2813640E+03  0.7818608E-02  0.1094946E+00
         -1   -1    0    0    0  501 -0.00000000000E+00  0.00000000000E+00  0.32759471225E+03  0.32759471229E+03  0.50400000000E-02 0.  1.
          1   -1    0    0  501    0  0.00000000000E+00 -0.00000000000E+00 -0.80015709834E+03  0.80015709835E+03  0.50400000000E-02 0. -1.
    8880022    1    1    2    0    0 -0.19184235046E+03 -0.13773356621E+03  0.23481260891E+03  0.36647324187E+03  0.15294330000E+03 0.  1.
    8880022    1    1    2    0    0  0.19184235046E+03  0.13773356621E+03 -0.70737499500E+03  0.76127856876E+03  0.15294330000E+03 0.  0.
<mgrwt>
<rscale>  0 0.28136396E+03</rscale>
<asrwt>0</asrwt>
<pdfrwt beam="1">  1        1 0.12310109E+00 0.28136396E+03</pdfrwt>
<pdfrwt beam="2">  1       -1 0.50399187E-01 0.28136396E+03</pdfrwt>
<totfact> 0.94311657E+01</totfact>
</mgrwt>
</event>
<event>
 4    1  0.8749406E-009  0.1619886E+04  0.7818608E-02  0.8808423E-01
          1   -1    0    0  501    0  0.00000000000E+00  0.00000000000E+00  0.27687252755E+04  0.27687252755E+04  0.50400000000E-02 0. -1.
         -1   -1    0    0    0  501 -0.00000000000E+00 -0.00000000000E+00 -0.13190940039E+04  0.13190940039E+04  0.50400000000E-02 0.  1.
    8880022    1    1    2    0    0 -0.12854886221E+03 -0.16075184434E+04  0.18092862973E+04  0.24284869599E+04  0.15294330000E+03 0.  0.
    8880022    1    1    2    0    0  0.12854886221E+03  0.16075184434E+04 -0.35965502571E+03  0.16593323195E+04  0.15294330000E+03 0.  0.
<mgrwt>
<rscale>  0 0.16198864E+04</rscale>
<asrwt>0</asrwt>
<pdfrwt beam="1">  1        1 0.42595773E+00 0.16198864E+04</pdfrwt>
<pdfrwt beam="2">  1       -1 0.20293754E+00 0.16198864E+04</pdfrwt>
<totfact> 0.11749048E-01</totfact>
</mgrwt>
</event>
<event>
 4    1  0.8749406E-009  0.6369358E+03  0.7818608E-02  0.9831607E-01
          1   -1    0    0  501    0  0.00000000000E+00  0.00000000000E+00  0.12410000970E+04  0.12410000970E+04  0.50400000000E-02 0. -1.
         -1   -1    0    0    0  501 -0.00000000000E+00 -0.00000000000E+00 -0.76189333718E+03  0.76189333720E+03  0.50400000000E-02 0.  1.
    8880022    1    1    2    0    0 -0.13913943765E+03  0.60244154734E+03 -0.51714067719E+03  0.82043996374E+03  0.15294330000E+03 0.  1.
    8880022    1    1    2    0    0  0.13913943765E+03 -0.60244154734E+03  0.99624743701E+03  0.11824534705E+04  0.15294330000E+03 0.  0.
<mgrwt>
<rscale>  0 0.63693583E+03</rscale>
<asrwt>0</asrwt>
<pdfrwt beam="1">  1        1 0.19092309E+00 0.63693583E+03</pdfrwt>
<pdfrwt beam="2">  1       -1 0.11721436E+00 0.63693583E+03</pdfrwt>
<totfact> 0.69111822E+00</totfact>
</mgrwt>
</event>
<event>
 4    1  0.8749406E-009  0.1494662E+04  0.7818608E-02  0.8888010E-01
          1   -1    0    0  501    0  0.00000000000E+00  0.00000000000E+00  0.36692881564E+04  0.36692881564E+04  0.50400000000E-02 0. -1.
         -1   -1    0    0    0  501 -0.00000000000E+00 -0.00000000000E+00 -0.92174881420E+03  0.92174881421E+03  0.50400000000E-02 0.  1.
    8880022    1    1    2    0    0  0.13984059239E+04 -0.50505843141E+03  0.36304818620E+02  0.14951029529E+04  0.15294330000E+03 0.  0.
    8880022    1    1    2    0    0 -0.13984059239E+04  0.50505843141E+03  0.27112345236E+04  0.30959340177E+04  0.15294330000E+03 0.  0.
<mgrwt>
<rscale>  0 0.14946621E+04</rscale>
<asrwt>0</asrwt>
<pdfrwt beam="1">  1        1 0.56450588E+00 0.14946621E+04</pdfrwt>
<pdfrwt beam="2">  1       -1 0.14180751E+00 0.14946621E+04</pdfrwt>
<totfact> 0.71097133E-02</totfact>
</mgrwt>
</event>
<event>
 4    1  0.8749406E-009  0.7015091E+03  0.7818608E-02  0.9714655E-01
         -1   -1    0    0    0  501 -0.00000000000E+00  0.00000000000E+00  0.43801903225E+03  0.43801903228E+03  0.50400000000E-02 0.  1.
          1   -1    0    0  501    0  0.00000000000E+00 -0.00000000000E+00 -0.15119337448E+04  0.15119337448E+04  0.50400000000E-02 0. -1.
    8880022    1    1    2    0    0  0.15475606877E+02 -0.68445883596E+03 -0.42777147839E+02  0.70281215835E+03  0.15294330000E+03 0.  0.
    8880022    1    1    2    0    0 -0.15475606877E+02  0.68445883596E+03 -0.10311375647E+04  0.12471406188E+04  0.15294330000E+03 0.  0.
<mgrwt>
<rscale>  0 0.70150912E+03</rscale>
<asrwt>0</asrwt>
<pdfrwt beam="1">  1        1 0.23260519E+00 0.70150912E+03</pdfrwt>
<pdfrwt beam="2">  1       -1 0.67387544E-01 0.70150912E+03</pdfrwt>
<totfact> 0.14941323E+01</totfact>
</mgrwt>
</event>
<event>
 4    1  0.8749406E-009  0.1222213E+04  0.7818608E-02  0.9093633E-01
         -1   -1    0    0    0  501 -0.00000000000E+00  0.00000000000E+00  0.99597841128E+03  0.99597841129E+03  0.50400000000E-02 0.  1.
          1   -1    0    0  501    0  0.00000000000E+00 -0.00000000000E+00 -0.16750030331E+04  0.16750030331E+04  0.50400000000E-02 0. -1.
    8880022    1    1    2    0    0  0.22191392921E+03  0.11921266654E+04 -0.77138954907E+03  0.14452838018E+04  0.15294330000E+03 0.  0.
    8880022    1    1    2    0    0 -0.22191392921E+03 -0.11921266654E+04  0.92364927283E+02  0.12256976426E+04  0.15294330000E+03 0.  0.
<mgrwt>
<rscale>  0 0.12222125E+04</rscale>
<asrwt>0</asrwt>
<pdfrwt beam="1">  1        1 0.25769277E+00 0.12222125E+04</pdfrwt>
<pdfrwt beam="2">  1       -1 0.15322745E+00 0.12222125E+04</pdfrwt>
<totfact> 0.15976681E+00</totfact>
</mgrwt>
</event>
<event>
 4    1  0.8749406E-009  0.8717318E+03  0.7818608E-02  0.9461625E-01
          1   -1    0    0  501    0  0.00000000000E+00  0.00000000000E+00  0.12136058868E+04  0.12136058868E+04  0.50400000000E-02 0. -1.
         -1   -1    0    0    0  501 -0.00000000000E+00 -0.00000000000E+00 -0.12414467400E+04  0.12414467400E+04  0.50400000000E-02 0.  1.
    8880022    1    1    2    0    0  0.74002488979E+03 -0.43461224043E+03 -0.87810028150E+03  0.12373263088E+04  0.15294330000E+03 0.  1.
    8880022    1    1    2    0    0 -0.74002488979E+03  0.43461224043E+03  0.85025942830E+03  0.12177263180E+04  0.15294330000E+03 0.  0.
<mgrwt>
<rscale>  0 0.87173178E+03</rscale>
<asrwt>0</asrwt>
<pdfrwt beam="1">  1        1 0.18670860E+00 0.87173178E+03</pdfrwt>
<pdfrwt beam="2">  1       -1 0.19099181E+00 0.87173178E+03</pdfrwt>
<totfact> 0.18591654E+00</totfact>
</mgrwt>
</event>
<event>
 4    1  0.8749406E-009  0.1153058E+04  0.7818608E-02  0.9154967E-01
          1   -1    0    0  501    0  0.00000000000E+00  0.00000000000E+00  0.21862073655E+04  0.21862073655E+04  0.50400000000E-02 0. -1.
         -1   -1    0    0    0  501 -0.00000000000E+00 -0.00000000000E+00 -0.98222534074E+03  0.98222534075E+03  0.50400000000E-02 0.  1.
    8880022    1    1    2    0    0 -0.11171857640E+04  0.24093183649E+03 -0.37566928826E+03  0.12127123518E+04  0.15294330000E+03 0.  0.
    8880022    1    1    2    0    0  0.11171857640E+04 -0.24093183649E+03  0.15796513130E+04  0.19557203544E+04  0.15294330000E+03 0.  0.
<mgrwt>
<rscale>  0 0.11530585E+04</rscale>
<asrwt>0</asrwt>
<pdfrwt beam="1">  1        1 0.33633959E+00 0.11530585E+04</pdfrwt>
<pdfrwt beam="2">  1       -1 0.15111159E+00 0.11530585E+04</pdfrwt>
<totfact> 0.75412340E-01</totfact>
</mgrwt>
</event>
<event>
 4    1  0.8749406E-009  0.2822762E+03  0.7818608E-02  0.1094452E+00
         -1   -1    0    0    0  501 -0.00000000000E+00  0.00000000000E+00  0.70076686076E+03  0.70076686078E+03  0.50400000000E-02 0.  1.
          1   -1    0    0  501    0  0.00000000000E+00 -0.00000000000E+00 -0.13464699449E+04  0.13464699449E+04  0.50400000000E-02 0. -1.
    8880022    1    1    2    0    0  0.22612424570E+03 -0.71805505805E+02  0.65659356705E+03  0.71469921678E+03  0.15294330000E+03 0.  0.
    8880022    1    1    2    0    0 -0.22612424570E+03  0.71805505805E+02 -0.13022966512E+04  0.13325375889E+04  0.15294330000E+03 0.  0.
<mgrwt>
<rscale>  0 0.28227621E+03</rscale>
<asrwt>0</asrwt>
<pdfrwt beam="1">  1        1 0.20714922E+00 0.28227621E+03</pdfrwt>
<pdfrwt beam="2">  1       -1 0.10781029E+00 0.28227621E+03</pdfrwt>
<totfact> 0.78280323E+00</totfact>
</mgrwt>
</event>
<event>
 4    1  0.8749406E-009  0.1069318E+04  0.7818608E-02  0.9235623E-01
          1   -1    0    0  501    0  0.00000000000E+00  0.00000000000E+00  0.27513350095E+04  0.27513350095E+04  0.50400000000E-02 0. -1.
         -1   -1    0    0    0  501 -0.00000000000E+00 -0.00000000000E+00 -0.11575246820E+04  0.11575246820E+04  0.50400000000E-02 0.  1.
    8880022    1    1    2    0    0 -0.79540428673E+03 -0.69812721964E+03  0.23616239991E+04  0.25924330580E+04  0.15294330000E+03 0.  0.
    8880022    1    1    2    0    0  0.79540428673E+03  0.69812721964E+03 -0.76781367161E+03  0.13164266335E+04  0.15294330000E+03 0.  0.
<mgrwt>
<rscale>  0 0.10693181E+04</rscale>
<asrwt>0</asrwt>
<pdfrwt beam="1">  1        1 0.42328230E+00 0.10693181E+04</pdfrwt>
<pdfrwt beam="2">  1       -1 0.17808072E+00 0.10693181E+04</pdfrwt>
<totfact> 0.19595848E-01</totfact>
</mgrwt>
</event>
<event>
 4    1  0.8749406E-009  0.7028821E+03  0.7818608E-02  0.9712316E-01
         -1   -1    0    0    0  501 -0.00000000000E+00  0.00000000000E+00  0.13905549216E+04  0.13905549216E+04  0.50400000000E-02 0.  1.
          1   -1    0    0  501    0  0.00000000000E+00 -0.00000000000E+00 -0.81235502973E+03  0.81235502975E+03  0.50400000000E-02 0. -1.
    8880022    1    1    2    0    0 -0.51724194789E+03 -0.45067984921E+03  0.11152999956E+04  0.13183084966E+04  0.15294330000E+03 0.  0.
    8880022    1    1    2    0    0  0.51724194789E+03  0.45067984921E+03 -0.53710010376E+03  0.88460145468E+03  0.15294330000E+03 0.  0.
<mgrwt>
<rscale>  0 0.70288208E+03</rscale>
<asrwt>0</asrwt>
<pdfrwt beam="1">  1        1 0.12497770E+00 0.70288208E+03</pdfrwt>
<pdfrwt beam="2">  1       -1 0.21393152E+00 0.70288208E+03</pdfrwt>
<totfact> 0.27382839E+00</totfact>
</mgrwt>
</event>
<event>
 4    1  0.8749406E-009  0.1350447E+04  0.7818608E-02  0.8990490E-01
         -1   -1    0    0    0  501 -0.00000000000E+00  0.00000000000E+00  0.22846928917E+04  0.22846928917E+04  0.50400000000E-02 0.  1.
          1   -1    0    0  501    0  0.00000000000E+00 -0.00000000000E+00 -0.14948525075E+04  0.14948525075E+04  0.50400000000E-02 0. -1.
    8880022    1    1    2    0    0 -0.13033372916E+04 -0.31879069020E+03 -0.89513882891E+03  0.16201792419E+04  0.15294330000E+03 0.  0.
    8880022    1    1    2    0    0  0.13033372916E+04  0.31879069020E+03  0.16849792131E+04  0.21593661573E+04  0.15294330000E+03 0.  0.
<mgrwt>
<rscale>  0 0.13504471E+04</rscale>
<asrwt>0</asrwt>
<pdfrwt beam="1">  1        1 0.22997731E+00 0.13504471E+04</pdfrwt>
<pdfrwt beam="2">  1       -1 0.35149121E+00 0.13504471E+04</pdfrwt>
<totfact> 0.96749575E-02</totfact>
</mgrwt>
</event>
<event>
 4    1  0.8749406E-009  0.8329722E+03  0.7818608E-02  0.9513480E-01
          1   -1    0    0  501    0  0.00000000000E+00  0.00000000000E+00  0.11720269754E+04  0.11720269754E+04  0.50400000000E-02 0. -1.
         -1   -1    0    0    0  501 -0.00000000000E+00 -0.00000000000E+00 -0.79651014004E+03  0.79651014005E+03  0.50400000000E-02 0.  1.
    8880022    1    1    2    0    0 -0.61919996835E+03  0.53576338211E+03 -0.31098014237E+03  0.88912952059E+03  0.15294330000E+03 0.  0.
    8880022    1    1    2    0    0  0.61919996835E+03 -0.53576338211E+03  0.68649697772E+03  0.10794075949E+04  0.15294330000E+03 0.  0.
<mgrwt>
<rscale>  0 0.83297218E+03</rscale>
<asrwt>0</asrwt>
<pdfrwt beam="1">  1        1 0.18031184E+00 0.83297218E+03</pdfrwt>
<pdfrwt beam="2">  1       -1 0.12254002E+00 0.83297218E+03</pdfrwt>
<totfact> 0.67452502E+00</totfact>
</mgrwt>
</event>
<event>
 4    1  0.8749406E-009  0.2907474E+03  0.7818608E-02  0.1089960E+00
          1   -1    0    0  501    0  0.00000000000E+00  0.00000000000E+00  0.11823875574E+04  0.11823875574E+04  0.50400000000E-02 0. -1.
         -1   -1    0    0    0  501 -0.00000000000E+00 -0.00000000000E+00 -0.82439480344E+02  0.82439480498E+02  0.50400000000E-02 0.  1.
    8880022    1    1    2    0    0  0.14551556115E+03 -0.19991907578E+03  0.31954174312E+03  0.43201966855E+03  0.15294330000E+03 0.  0.
    8880022    1    1    2    0    0 -0.14551556115E+03  0.19991907578E+03  0.78040633393E+03  0.83280736935E+03  0.15294330000E+03 0. -1.
<mgrwt>
<rscale>  0 0.29074743E+03</rscale>
<asrwt>0</asrwt>
<pdfrwt beam="1">  1        1 0.18190577E+00 0.29074743E+03</pdfrwt>
<pdfrwt beam="2">  1       -1 0.12682997E-01 0.29074743E+03</pdfrwt>
<totfact> 0.49547899E+02</totfact>
</mgrwt>
</event>
<event>
 4    1  0.8749406E-009  0.4253314E+03  0.7818608E-02  0.1035345E+00
          1   -1    0    0  501    0  0.00000000000E+00  0.00000000000E+00  0.29033896777E+04  0.29033896777E+04  0.50400000000E-02 0. -1.
         -1   -1    0    0    0  501 -0.00000000000E+00 -0.00000000000E+00 -0.64125975314E+02  0.64125975512E+02  0.50400000000E-02 0.  1.
    8880022    1    1    2    0    0 -0.27652794226E+03  0.28468828217E+03  0.11698605607E+04  0.12447813083E+04  0.15294330000E+03 0.  0.
    8880022    1    1    2    0    0  0.27652794226E+03 -0.28468828217E+03  0.16694031417E+04  0.17227343450E+04  0.15294330000E+03 0.  0.
<mgrwt>
<rscale>  0 0.42533137E+03</rscale>
<asrwt>0</asrwt>
<pdfrwt beam="1">  1        1 0.44667534E+00 0.42533137E+03</pdfrwt>
<pdfrwt beam="2">  1       -1 0.98655346E-02 0.42533137E+03</pdfrwt>
<totfact> 0.50439843E+01</totfact>
</mgrwt>
</event>
<event>
 4    1  0.8749406E-009  0.1044303E+04  0.7818608E-02  0.9261246E-01
         -1   -1    0    0    0  501 -0.00000000000E+00  0.00000000000E+00  0.21132725695E+04  0.21132725696E+04  0.50400000000E-02 0.  1.
          1   -1    0    0  501    0  0.00000000000E+00 -0.00000000000E+00 -0.61384122800E+03  0.61384122802E+03  0.50400000000E-02 0. -1.
    8880022    1    1    2    0    0  0.85683842102E+03  0.57706559948E+03  0.12939429928E+04  0.16627858874E+04  0.15294330000E+03 0.  0.
    8880022    1    1    2    0    0 -0.85683842102E+03 -0.57706559948E+03  0.20548834879E+03  0.10643279102E+04  0.15294330000E+03 0.  0.
<mgrwt>
<rscale>  0 0.10443028E+04</rscale>
<asrwt>0</asrwt>
<pdfrwt beam="1">  1        1 0.94437112E-01 0.10443028E+04</pdfrwt>
<pdfrwt beam="2">  1       -1 0.32511886E+00 0.10443028E+04</pdfrwt>
<totfact> 0.75900917E-01</totfact>
</mgrwt>
</event>
<event>
 4    1  0.8749406E-009  0.8317199E+03  0.7818608E-02  0.9515206E-01
         -1   -1    0    0    0  501 -0.00000000000E+00  0.00000000000E+00  0.51957105231E+03  0.51957105234E+03  0.50400000000E-02 0.  1.
          1   -1    0    0  501    0  0.00000000000E+00 -0.00000000000E+00 -0.20471878925E+04  0.20471878925E+04  0.50400000000E-02 0. -1.
    8880022    1    1    2    0    0  0.63801067761E+03  0.51118364639E+03 -0.15226790915E+04  0.17350243842E+04  0.15294330000E+03 0.  0.
    8880022    1    1    2    0    0 -0.63801067761E+03 -0.51118364639E+03 -0.49377487620E+01  0.83173456070E+03  0.15294330000E+03 0.  0.
<mgrwt>
<rscale>  0 0.83171990E+03</rscale>
<asrwt>0</asrwt>
<pdfrwt beam="1">  1        1 0.31495198E+00 0.83171990E+03</pdfrwt>
<pdfrwt beam="2">  1       -1 0.79934009E-01 0.83171990E+03</pdfrwt>
<totfact> 0.44848261E+00</totfact>
</mgrwt>
</event>
<event>
 4    1  0.8749406E-009  0.2655977E+03  0.7818608E-02  0.1103826E+00
         -1   -1    0    0    0  501 -0.00000000000E+00  0.00000000000E+00  0.25935071791E+04  0.25935071791E+04  0.50400000000E-02 0.  1.
          1   -1    0    0  501    0  0.00000000000E+00 -0.00000000000E+00 -0.57650836959E+03  0.57650836961E+03  0.50400000000E-02 0. -1.
    8880022    1    1    2    0    0  0.33434355395E+02  0.21455211227E+03  0.25556653274E+04  0.25694293887E+04  0.15294330000E+03 0.  1.
    8880022    1    1    2    0    0 -0.33434355395E+02 -0.21455211227E+03 -0.53866651791E+03  0.60058615996E+03  0.15294330000E+03 0.  0.
<mgrwt>
<rscale>  0 0.26559766E+03</rscale>
<asrwt>0</asrwt>
<pdfrwt beam="1">  1        1 0.88693596E-01 0.26559766E+03</pdfrwt>
<pdfrwt beam="2">  1       -1 0.39900110E+00 0.26559766E+03</pdfrwt>
<totfact> 0.33839821E-01</totfact>
</mgrwt>
</event>
<event>
 4    1  0.8749406E-009  0.5272494E+03  0.7818608E-02  0.1006901E+00
         -1   -1    0    0    0  501 -0.00000000000E+00  0.00000000000E+00  0.12679489873E+04  0.12679489873E+04  0.50400000000E-02 0.  1.
          1   -1    0    0  501    0  0.00000000000E+00 -0.00000000000E+00 -0.16298905627E+04  0.16298905627E+04  0.50400000000E-02 0. -1.
    8880022    1    1    2    0    0  0.37051167302E+03 -0.34252213066E+03  0.11669799216E+04  0.12805600729E+04  0.15294330000E+03 0.  0.
    8880022    1    1    2    0    0 -0.37051167302E+03  0.34252213066E+03 -0.15289214971E+04  0.16172794771E+04  0.15294330000E+03 0.  0.
<mgrwt>
<rscale>  0 0.52724943E+03</rscale>
<asrwt>0</asrwt>
<pdfrwt beam="1">  1        1 0.25075239E+00 0.52724943E+03</pdfrwt>
<pdfrwt beam="2">  1       -1 0.19506908E+00 0.52724943E+03</pdfrwt>
<totfact> 0.96782040E-01</totfact>
</mgrwt>
</event>
<event>
 4    1  0.8749406E-009  0.1302836E+04  0.7818608E-02  0.9027319E-01
         -1   -1    0    0    0  501 -0.00000000000E+00  0.00000000000E+00  0.10037493335E+04  0.10037493335E+04  0.50400000000E-02 0.  1.
          1   -1    0    0  501    0  0.00000000000E+00 -0.00000000000E+00 -0.23187050172E+04  0.23187050172E+04  0.50400000000E-02 0. -1.
    8880022    1    1    2    0    0  0.69552995089E+03  0.10909762329E+04 -0.15217875664E+04  0.20033022996E+04  0.15294330000E+03 0.  0.
    8880022    1    1    2    0    0 -0.69552995089E+03 -0.10909762329E+04  0.20683188262E+03  0.13191520511E+04  0.15294330000E+03 0.  0.
<mgrwt>
<rscale>  0 0.13028364E+04</rscale>
<asrwt>0</asrwt>
<pdfrwt beam="1">  1        1 0.35672385E+00 0.13028364E+04</pdfrwt>
<pdfrwt beam="2">  1       -1 0.15442297E+00 0.13028364E+04</pdfrwt>
<totfact> 0.56600454E-01</totfact>
</mgrwt>
</event>
<event>
 4    1  0.8749406E-009  0.9327222E+03  0.7818608E-02  0.9385577E-01
          1   -1    0    0  501    0  0.00000000000E+00  0.00000000000E+00  0.11962679942E+04  0.11962679942E+04  0.50400000000E-02 0. -1.
         -1   -1    0    0    0  501 -0.00000000000E+00 -0.00000000000E+00 -0.96373049035E+03  0.96373049037E+03  0.50400000000E-02 0.  1.
    8880022    1    1    2    0    0 -0.24675858052E+02  0.91976638826E+03 -0.41873266213E+03  0.10224029549E+04  0.15294330000E+03 0.  0.
    8880022    1    1    2    0    0  0.24675858052E+02 -0.91976638826E+03  0.65127016600E+03  0.11375955296E+04  0.15294330000E+03 0.  0.
<mgrwt>
<rscale>  0 0.93272223E+03</rscale>
<asrwt>0</asrwt>
<pdfrwt beam="1">  1        1 0.18404123E+00 0.93272223E+03</pdfrwt>
<pdfrwt beam="2">  1       -1 0.14826623E+00 0.93272223E+03</pdfrwt>
<totfact> 0.39174502E+00</totfact>
</mgrwt>
</event>
<event>
 4    1  0.8749406E-009  0.1076348E+04  0.7818608E-02  0.9228556E-01
          1   -1    0    0  501    0  0.00000000000E+00  0.00000000000E+00  0.12003993106E+04  0.12003993106E+04  0.50400000000E-02 0. -1.
         -1   -1    0    0    0  501 -0.00000000000E+00 -0.00000000000E+00 -0.11198782503E+04  0.11198782503E+04  0.50400000000E-02 0.  1.
    8880022    1    1    2    0    0  0.34192359544E+02  0.10648775373E+04 -0.39101680742E+03  0.11451720760E+04  0.15294330000E+03 0.  0.
    8880022    1    1    2    0    0 -0.34192359544E+02 -0.10648775373E+04  0.47153786775E+03  0.11751054849E+04  0.15294330000E+03 0.  0.
<mgrwt>
<rscale>  0 0.10763480E+04</rscale>
<asrwt>0</asrwt>
<pdfrwt beam="1">  1        1 0.18467682E+00 0.10763480E+04</pdfrwt>
<pdfrwt beam="2">  1       -1 0.17228896E+00 0.10763480E+04</pdfrwt>
<totfact> 0.25136363E+00</totfact>
</mgrwt>
</event>
<event>
 4    1  0.8749406E-009  0.3898342E+03  0.7818608E-02  0.1047358E+00
         -1   -1    0    0    0  501 -0.00000000000E+00  0.00000000000E+00  0.50998723770E+03  0.50998723773E+03  0.50400000000E-02 0.  1.
          1   -1    0    0  501    0  0.00000000000E+00 -0.00000000000E+00 -0.13694503321E+04  0.13694503322E+04  0.50400000000E-02 0. -1.
    8880022    1    1    2    0    0  0.35239893167E+03  0.66287386959E+02 -0.12609457988E+04  0.13198314230E+04  0.15294330000E+03 0.  0.
    8880022    1    1    2    0    0 -0.35239893167E+03 -0.66287386959E+02  0.40148270434E+03  0.55960614686E+03  0.15294330000E+03 0.  0.
<mgrwt>
<rscale>  0 0.38983417E+03</rscale>
<asrwt>0</asrwt>
<pdfrwt beam="1">  1        1 0.21068467E+00 0.38983417E+03</pdfrwt>
<pdfrwt beam="2">  1       -1 0.78459576E-01 0.38983417E+03</pdfrwt>
<totfact> 0.14562287E+01</totfact>
</mgrwt>
</event>
<event>
 4    1  0.8749406E-009  0.7684708E+03  0.7818608E-02  0.9606810E-01
          1   -1    0    0  501    0  0.00000000000E+00  0.00000000000E+00  0.96526732186E+03  0.96526732187E+03  0.50400000000E-02 0. -1.
         -1   -1    0    0    0  501 -0.00000000000E+00 -0.00000000000E+00 -0.72731751424E+03  0.72731751426E+03  0.50400000000E-02 0.  1.
    8880022    1    1    2    0    0  0.44870860990E+02  0.75175947126E+03  0.45625333713E+03  0.89370826193E+03  0.15294330000E+03 0.  0.
    8880022    1    1    2    0    0 -0.44870860990E+02 -0.75175947126E+03 -0.21830352951E+03  0.79887657420E+03  0.15294330000E+03 0.  0.
<mgrwt>
<rscale>  0 0.76847079E+03</rscale>
<asrwt>0</asrwt>
<pdfrwt beam="1">  1        1 0.14850267E+00 0.76847079E+03</pdfrwt>
<pdfrwt beam="2">  1       -1 0.11189500E+00 0.76847079E+03</pdfrwt>
<totfact> 0.12151259E+01</totfact>
</mgrwt>
</event>
<event>
 4    1  0.8749406E-009  0.3369403E+03  0.7818608E-02  0.1068107E+00
         -1   -1    0    0    0  501 -0.00000000000E+00  0.00000000000E+00  0.17338437958E+03  0.17338437965E+03  0.50400000000E-02 0.  1.
          1   -1    0    0  501    0  0.00000000000E+00 -0.00000000000E+00 -0.28972061959E+04  0.28972061959E+04  0.50400000000E-02 0. -1.
    8880022    1    1    2    0    0  0.29754319618E+03 -0.40064284267E+02 -0.11203688748E+02  0.33712649869E+03  0.15294330000E+03 0.  1.
    8880022    1    1    2    0    0 -0.29754319618E+03  0.40064284267E+02 -0.27126181276E+04  0.27334640769E+04  0.15294330000E+03 0.  0.
<mgrwt>
<rscale>  0 0.33694028E+03</rscale>
<asrwt>0</asrwt>
<pdfrwt beam="1">  1        1 0.44572400E+00 0.33694028E+03</pdfrwt>
<pdfrwt beam="2">  1       -1 0.26674522E-01 0.33694028E+03</pdfrwt>
<totfact> 0.10452829E+01</totfact>
</mgrwt>
</event>
<event>
 4    1  0.8749406E-009  0.3125838E+03  0.7818608E-02  0.1079114E+00
          1   -1    0    0  501    0  0.00000000000E+00  0.00000000000E+00  0.14131298196E+04  0.14131298196E+04  0.50400000000E-02 0. -1.
         -1   -1    0    0    0  501 -0.00000000000E+00 -0.00000000000E+00 -0.11650181227E+04  0.11650181227E+04  0.50400000000E-02 0.  1.
    8880022    1    1    2    0    0 -0.13577532714E+03 -0.23639388647E+03 -0.11261799927E+04  0.11687557649E+04  0.15294330000E+03 0.  0.
    8880022    1    1    2    0    0  0.13577532714E+03  0.23639388647E+03  0.13742916896E+04  0.14093921775E+04  0.15294330000E+03 0.  0.
<mgrwt>
<rscale>  0 0.31258385E+03</rscale>
<asrwt>0</asrwt>
<pdfrwt beam="1">  1        1 0.21740459E+00 0.31258385E+03</pdfrwt>
<pdfrwt beam="2">  1       -1 0.17923356E+00 0.31258385E+03</pdfrwt>
<totfact> 0.18927443E+00</totfact>
</mgrwt>
</event>
<event>
 4    1  0.8749406E-009  0.1174690E+04  0.7818608E-02  0.9135303E-01
          1   -1    0    0  501    0  0.00000000000E+00  0.00000000000E+00  0.32473512039E+04  0.32473512039E+04  0.50400000000E-02 0. -1.
         -1   -1    0    0    0  501 -0.00000000000E+00 -0.00000000000E+00 -0.45378344869E+03  0.45378344872E+03  0.50400000000E-02 0.  1.
    8880022    1    1    2    0    0 -0.11446602582E+04 -0.21507632824E+03  0.93014570333E+03  0.14983549700E+04  0.15294330000E+03 0.  1.
    8880022    1    1    2    0    0  0.11446602582E+04  0.21507632824E+03  0.18634220518E+04  0.22027796826E+04  0.15294330000E+03 0. -1.
<mgrwt>
<rscale>  0 0.11746900E+04</rscale>
<asrwt>0</asrwt>
<pdfrwt beam="1">  1        1 0.49959248E+00 0.11746900E+04</pdfrwt>
<pdfrwt beam="2">  1       -1 0.69812840E-01 0.11746900E+04</pdfrwt>
<totfact> 0.81738714E-01</totfact>
</mgrwt>
</event>
<event>
 4    1  0.8749406E-009  0.7947495E+03  0.7818608E-02  0.9567648E-01
         -1   -1    0    0    0  501 -0.00000000000E+00  0.00000000000E+00  0.77537515531E+03  0.77537515533E+03  0.50400000000E-02 0.  1.
          1   -1    0    0  501    0  0.00000000000E+00 -0.00000000000E+00 -0.13248507414E+04  0.13248507414E+04  0.50400000000E-02 0. -1.
    8880022    1    1    2    0    0  0.52158131488E+03  0.57981730634E+03 -0.92642761879E+03  0.12206125358E+04  0.15294330000E+03 0.  0.
    8880022    1    1    2    0    0 -0.52158131488E+03 -0.57981730634E+03  0.37695203267E+03  0.87961336093E+03  0.15294330000E+03 0.  0.
<mgrwt>
<rscale>  0 0.79474954E+03</rscale>
<asrwt>0</asrwt>
<pdfrwt beam="1">  1        1 0.20382319E+00 0.79474954E+03</pdfrwt>
<pdfrwt beam="2">  1       -1 0.11928849E+00 0.79474954E+03</pdfrwt>
<totfact> 0.56283223E+00</totfact>
</mgrwt>
</event>
<event>
 4    1  0.8749406E-009  0.5145646E+03  0.7818608E-02  0.1010046E+00
          1   -1    0    0  501    0  0.00000000000E+00  0.00000000000E+00  0.17868400678E+04  0.17868400678E+04  0.50400000000E-02 0. -1.
         -1   -1    0    0    0  501 -0.00000000000E+00 -0.00000000000E+00 -0.40195760665E+03  0.40195760668E+03  0.50400000000E-02 0.  1.
    8880022    1    1    2    0    0 -0.18052265204E+03  0.45694273041E+03 -0.17714131757E+03  0.54420197186E+03  0.15294330000E+03 0.  0.
    8880022    1    1    2    0    0  0.18052265204E+03 -0.45694273041E+03  0.15620237787E+04  0.16445957026E+04  0.15294330000E+03 0.  0.
<mgrwt>
<rscale>  0 0.51456461E+03</rscale>
<asrwt>0</asrwt>
<pdfrwt beam="1">  1        1 0.27489848E+00 0.51456461E+03</pdfrwt>
<pdfrwt beam="2">  1       -1 0.61839631E-01 0.51456461E+03</pdfrwt>
<totfact> 0.11997521E+01</totfact>
</mgrwt>
</event>
<event>
 4    1  0.8749406E-009  0.5925491E+03  0.7818608E-02  0.9920986E-01
         -1   -1    0    0    0  501 -0.00000000000E+00  0.00000000000E+00  0.30093723286E+03  0.30093723290E+03  0.50400000000E-02 0.  1.
          1   -1    0    0  501    0  0.00000000000E+00 -0.00000000000E+00 -0.30945670364E+04  0.30945670364E+04  0.50400000000E-02 0. -1.
    8880022    1    1    2    0    0  0.12440565827E+03  0.55878977754E+03 -0.56802641928E+02  0.59526546719E+03  0.15294330000E+03 0.  0.
    8880022    1    1    2    0    0 -0.12440565827E+03 -0.55878977754E+03 -0.27368271616E+04  0.28002388021E+04  0.15294330000E+03 0.  0.
<mgrwt>
<rscale>  0 0.59254910E+03</rscale>
<asrwt>0</asrwt>
<pdfrwt beam="1">  1        1 0.47608722E+00 0.59254910E+03</pdfrwt>
<pdfrwt beam="2">  1       -1 0.46298038E-01 0.59254910E+03</pdfrwt>
<totfact> 0.26355893E+00</totfact>
</mgrwt>
</event>
<event>
 4    1  0.8749406E-009  0.8220321E+03  0.7818608E-02  0.9528663E-01
         -1   -1    0    0    0  501 -0.00000000000E+00  0.00000000000E+00  0.76672257399E+03  0.76672257400E+03  0.50400000000E-02 0.  1.
          1   -1    0    0  501    0  0.00000000000E+00 -0.00000000000E+00 -0.15504718283E+04  0.15504718283E+04  0.50400000000E-02 0. -1.
    8880022    1    1    2    0    0  0.35873888988E+03 -0.72363770493E+03  0.36925588285E+03  0.90115852054E+03  0.15294330000E+03 0.  0.
    8880022    1    1    2    0    0 -0.35873888988E+03  0.72363770493E+03 -0.11530051372E+04  0.14160358818E+04  0.15294330000E+03 0.  0.
<mgrwt>
<rscale>  0 0.82203210E+03</rscale>
<asrwt>0</asrwt>
<pdfrwt beam="1">  1        1 0.23853413E+00 0.82203210E+03</pdfrwt>
<pdfrwt beam="2">  1       -1 0.11795732E+00 0.82203210E+03</pdfrwt>
<totfact> 0.40194225E+00</totfact>
</mgrwt>
</event>
<event>
 4    1  0.8749406E-009  0.1873848E+04  0.7818608E-02  0.8667984E-01
          1   -1    0    0  501    0  0.00000000000E+00  0.00000000000E+00  0.28626009954E+04  0.28626009954E+04  0.50400000000E-02 0. -1.
         -1   -1    0    0    0  501 -0.00000000000E+00 -0.00000000000E+00 -0.20371340458E+04  0.20371340458E+04  0.50400000000E-02 0.  1.
    8880022    1    1    2    0    0 -0.14522975355E+04  0.11742005624E+04  0.19580400401E+04  0.27102080260E+04  0.15294330000E+03 0.  0.
    8880022    1    1    2    0    0  0.14522975355E+04 -0.11742005624E+04 -0.11325730905E+04  0.21895270153E+04  0.15294330000E+03 0.  0.
<mgrwt>
<rscale>  0 0.18738481E+04</rscale>
<asrwt>0</asrwt>
<pdfrwt beam="1">  1        1 0.44040015E+00 0.18738481E+04</pdfrwt>
<pdfrwt beam="2">  1       -1 0.31340524E+00 0.18738481E+04</pdfrwt>
<totfact> 0.18246535E-02</totfact>
</mgrwt>
</event>
<event>
 4    1  0.8749406E-009  0.7255045E+03  0.7818608E-02  0.9674584E-01
          1   -1    0    0  501    0  0.00000000000E+00  0.00000000000E+00  0.11331962703E+04  0.11331962704E+04  0.50400000000E-02 0. -1.
         -1   -1    0    0    0  501 -0.00000000000E+00 -0.00000000000E+00 -0.93205549540E+03  0.93205549541E+03  0.50400000000E-02 0.  1.
    8880022    1    1    2    0    0 -0.52584414949E+03  0.47587082471E+03  0.83195192296E+03  0.11038572220E+04  0.15294330000E+03 0.  0.
    8880022    1    1    2    0    0  0.52584414949E+03 -0.47587082471E+03 -0.63081114801E+03  0.96139454379E+03  0.15294330000E+03 0.  0.
<mgrwt>
<rscale>  0 0.72550449E+03</rscale>
<asrwt>0</asrwt>
<pdfrwt beam="1">  1        1 0.17433789E+00 0.72550449E+03</pdfrwt>
<pdfrwt beam="2">  1       -1 0.14339315E+00 0.72550449E+03</pdfrwt>
<totfact> 0.49088421E+00</totfact>
</mgrwt>
</event>
<event>
 4    1  0.8749406E-009  0.9054899E+03  0.7818608E-02  0.9418745E-01
          1   -1    0    0  501    0  0.00000000000E+00  0.00000000000E+00  0.14631129197E+04  0.14631129197E+04  0.50400000000E-02 0. -1.
         -1   -1    0    0    0  501 -0.00000000000E+00 -0.00000000000E+00 -0.16733585489E+04  0.16733585489E+04  0.50400000000E-02 0.  1.
    8880022    1    1    2    0    0  0.53395809461E+03 -0.71512867791E+03  0.11738418463E+04  0.14825034927E+04  0.15294330000E+03 0.  0.
    8880022    1    1    2    0    0 -0.53395809461E+03  0.71512867791E+03 -0.13840874754E+04  0.16539679759E+04  0.15294330000E+03 0.  0.
<mgrwt>
<rscale>  0 0.90548988E+03</rscale>
<asrwt>0</asrwt>
<pdfrwt beam="1">  1        1 0.22509429E+00 0.90548988E+03</pdfrwt>
<pdfrwt beam="2">  1       -1 0.25743978E+00 0.90548988E+03</pdfrwt>
<totfact> 0.44510654E-01</totfact>
</mgrwt>
</event>
<event>
 4    1  0.8749406E-009  0.1195384E+04  0.7818608E-02  0.9116906E-01
         -1   -1    0    0    0  501 -0.00000000000E+00  0.00000000000E+00  0.15599152282E+04  0.15599152282E+04  0.50400000000E-02 0.  1.
          1   -1    0    0  501    0  0.00000000000E+00 -0.00000000000E+00 -0.14030810113E+04  0.14030810113E+04  0.50400000000E-02 0. -1.
    8880022    1    1    2    0    0 -0.11846838689E+04  0.45568584564E+02  0.95127331690E+03  0.15276992314E+04  0.15294330000E+03 0.  0.
    8880022    1    1    2    0    0  0.11846838689E+04 -0.45568584564E+02 -0.79443909992E+03  0.14352970081E+04  0.15294330000E+03 0.  0.
<mgrwt>
<rscale>  0 0.11953845E+04</rscale>
<asrwt>0</asrwt>
<pdfrwt beam="1">  1        1 0.21585862E+00 0.11953845E+04</pdfrwt>
<pdfrwt beam="2">  1       -1 0.23998696E+00 0.11953845E+04</pdfrwt>
<totfact> 0.60824248E-01</totfact>
</mgrwt>
</event>
<event>
 4    1  0.8749406E-009  0.7403136E+03  0.7818608E-02  0.9650671E-01
         -1   -1    0    0    0  501 -0.00000000000E+00  0.00000000000E+00  0.81057828616E+03  0.81057828617E+03  0.50400000000E-02 0.  1.
          1   -1    0    0  501    0  0.00000000000E+00 -0.00000000000E+00 -0.17908837280E+04  0.17908837280E+04  0.50400000000E-02 0. -1.
    8880022    1    1    2    0    0  0.19876232044E+03  0.69653865658E+03  0.53606937694E+03  0.91402111028E+03  0.15294330000E+03 0.  0.
    8880022    1    1    2    0    0 -0.19876232044E+03 -0.69653865658E+03 -0.15163748188E+04  0.16874409039E+04  0.15294330000E+03 0.  0.
<mgrwt>
<rscale>  0 0.74031359E+03</rscale>
<asrwt>0</asrwt>
<pdfrwt beam="1">  1        1 0.27552057E+00 0.74031359E+03</pdfrwt>
<pdfrwt beam="2">  1       -1 0.12470435E+00 0.74031359E+03</pdfrwt>
<totfact> 0.24472758E+00</totfact>
</mgrwt>
</event>
<event>
 4    1  0.8749406E-009  0.1095477E+04  0.7818608E-02  0.9209612E-01
          1   -1    0    0  501    0  0.00000000000E+00  0.00000000000E+00  0.31884839182E+04  0.31884839182E+04  0.50400000000E-02 0. -1.
         -1   -1    0    0    0  501 -0.00000000000E+00 -0.00000000000E+00 -0.73194256672E+03  0.73194256674E+03  0.50400000000E-02 0.  1.
    8880022    1    1    2    0    0 -0.14629480318E+03  0.10748376219E+04  0.25945047131E+04  0.28162962277E+04  0.15294330000E+03 0.  0.
    8880022    1    1    2    0    0  0.14629480318E+03 -0.10748376219E+04 -0.13796336159E+03  0.11041302573E+04  0.15294330000E+03 0.  0.
<mgrwt>
<rscale>  0 0.10954769E+04</rscale>
<asrwt>0</asrwt>
<pdfrwt beam="1">  1        1 0.49053598E+00 0.10954769E+04</pdfrwt>
<pdfrwt beam="2">  1       -1 0.11260655E+00 0.10954769E+04</pdfrwt>
<totfact> 0.31761417E-01</totfact>
</mgrwt>
</event>
<event>
 4    1  0.8749406E-009  0.5176086E+03  0.7818608E-02  0.1009282E+00
         -1   -1    0    0    0  501 -0.00000000000E+00  0.00000000000E+00  0.29819230263E+03  0.29819230267E+03  0.50400000000E-02 0.  1.
          1   -1    0    0  501    0  0.00000000000E+00 -0.00000000000E+00 -0.18242877473E+04  0.18242877473E+04  0.50400000000E-02 0. -1.
    8880022    1    1    2    0    0  0.15296522020E+03  0.47024315520E+03 -0.15190590221E+04  0.16048236506E+04  0.15294330000E+03 0.  0.
    8880022    1    1    2    0    0 -0.15296522020E+03 -0.47024315520E+03 -0.70364225337E+01  0.51765639942E+03  0.15294330000E+03 0.  1.
<mgrwt>
<rscale>  0 0.51760857E+03</rscale>
<asrwt>0</asrwt>
<pdfrwt beam="1">  1        1 0.28065965E+00 0.51760857E+03</pdfrwt>
<pdfrwt beam="2">  1       -1 0.45875740E-01 0.51760857E+03</pdfrwt>
<totfact> 0.20010486E+01</totfact>
</mgrwt>
</event>
<event>
 4    1  0.8749406E-009  0.7528655E+03  0.7818608E-02  0.9630865E-01
         -1   -1    0    0    0  501 -0.00000000000E+00  0.00000000000E+00  0.51672122821E+03  0.51672122824E+03  0.50400000000E-02 0.  1.
          1   -1    0    0  501    0  0.00000000000E+00 -0.00000000000E+00 -0.27061455754E+04  0.27061455755E+04  0.50400000000E-02 0. -1.
    8880022    1    1    2    0    0  0.28822799525E+03  0.67848322656E+03  0.14792410161E+03  0.76726009855E+03  0.15294330000E+03 0.  0.
    8880022    1    1    2    0    0 -0.28822799525E+03 -0.67848322656E+03 -0.23373484488E+04  0.24556067051E+04  0.15294330000E+03 0.  0.
<mgrwt>
<rscale>  0 0.75286554E+03</rscale>
<asrwt>0</asrwt>
<pdfrwt beam="1">  1        1 0.41633008E+00 0.75286554E+03</pdfrwt>
<pdfrwt beam="2">  1       -1 0.79495575E-01 0.75286554E+03</pdfrwt>
<totfact> 0.16418582E+00</totfact>
</mgrwt>
</event>
<event>
 4    1  0.8749406E-009  0.5525150E+03  0.7818608E-02  0.1000913E+00
         -1   -1    0    0    0  501 -0.00000000000E+00  0.00000000000E+00  0.30426959164E+03  0.30426959168E+03  0.50400000000E-02 0.  1.
          1   -1    0    0  501    0  0.00000000000E+00 -0.00000000000E+00 -0.16818508140E+04  0.16818508140E+04  0.50400000000E-02 0. -1.
    8880022    1    1    2    0    0 -0.45440393336E+03 -0.27458747219E+03 -0.58016461686E+02  0.55555267741E+03  0.15294330000E+03 0.  0.
    8880022    1    1    2    0    0  0.45440393336E+03  0.27458747219E+03 -0.13195647606E+04  0.14305677282E+04  0.15294330000E+03 0.  0.
<mgrwt>
<rscale>  0 0.55251504E+03</rscale>
<asrwt>0</asrwt>
<pdfrwt beam="1">  1        1 0.25874627E+00 0.55251504E+03</pdfrwt>
<pdfrwt beam="2">  1       -1 0.46810707E-01 0.55251504E+03</pdfrwt>
<totfact> 0.23814521E+01</totfact>
</mgrwt>
</event>
<event>
 4    1  0.8749406E-009  0.8578512E+03  0.7818608E-02  0.9479860E-01
         -1   -1    0    0    0  501 -0.00000000000E+00  0.00000000000E+00  0.87871539816E+03  0.87871539817E+03  0.50400000000E-02 0.  1.
          1   -1    0    0  501    0  0.00000000000E+00 -0.00000000000E+00 -0.17639808621E+04  0.17639808621E+04  0.50400000000E-02 0. -1.
    8880022    1    1    2    0    0 -0.83367426709E+03 -0.13230346027E+03  0.51498610770E+03  0.10005595102E+04  0.15294330000E+03 0.  0.
    8880022    1    1    2    0    0  0.83367426709E+03  0.13230346027E+03 -0.14002515716E+04  0.16421367501E+04  0.15294330000E+03 0.  0.
<mgrwt>
<rscale>  0 0.85785118E+03</rscale>
<asrwt>0</asrwt>
<pdfrwt beam="1">  1        1 0.27138167E+00 0.85785118E+03</pdfrwt>
<pdfrwt beam="2">  1       -1 0.13518698E+00 0.85785118E+03</pdfrwt>
<totfact> 0.20385529E+00</totfact>
</mgrwt>
</event>
<event>
 4    1  0.8749406E-009  0.3469927E+03  0.7818608E-02  0.1063856E+00
         -1   -1    0    0    0  501 -0.00000000000E+00  0.00000000000E+00  0.30714076639E+03  0.30714076644E+03  0.50400000000E-02 0.  1.
          1   -1    0    0  501    0  0.00000000000E+00 -0.00000000000E+00 -0.99523794617E+03  0.99523794619E+03  0.50400000000E-02 0. -1.
    8880022    1    1    2    0    0  0.17898636747E+02 -0.31095319217E+03  0.16292183294E+03  0.38333722175E+03  0.15294330000E+03 0.  0.
    8880022    1    1    2    0    0 -0.17898636747E+02  0.31095319217E+03 -0.85101901272E+03  0.91904149087E+03  0.15294330000E+03 0.  0.
<mgrwt>
<rscale>  0 0.34699265E+03</rscale>
<asrwt>0</asrwt>
<pdfrwt beam="1">  1        1 0.15311353E+00 0.34699265E+03</pdfrwt>
<pdfrwt beam="2">  1       -1 0.47252426E-01 0.34699265E+03</pdfrwt>
<totfact> 0.73388286E+01</totfact>
</mgrwt>
</event>
<event>
 4    1  0.8749406E-009  0.5680146E+03  0.7818608E-02  0.9974082E-01
          1   -1    0    0  501    0  0.00000000000E+00  0.00000000000E+00  0.65876481871E+03  0.65876481873E+03  0.50400000000E-02 0. -1.
         -1   -1    0    0    0  501 -0.00000000000E+00 -0.00000000000E+00 -0.10425254729E+04  0.10425254729E+04  0.50400000000E-02 0.  1.
    8880022    1    1    2    0    0  0.52185004256E+03 -0.16407767257E+03  0.42752251249E+03  0.71092622772E+03  0.15294330000E+03 0.  0.
    8880022    1    1    2    0    0 -0.52185004256E+03  0.16407767257E+03 -0.81128316669E+03  0.99036406393E+03  0.15294330000E+03 0.  1.
<mgrwt>
<rscale>  0 0.56801461E+03</rscale>
<asrwt>0</asrwt>
<pdfrwt beam="1">  1        1 0.10134843E+00 0.56801461E+03</pdfrwt>
<pdfrwt beam="2">  1       -1 0.16038853E+00 0.56801461E+03</pdfrwt>
<totfact> 0.91887460E+00</totfact>
</mgrwt>
</event>
<event>
 4    1  0.8749406E-009  0.1184206E+04  0.7818608E-02  0.9126795E-01
          1   -1    0    0  501    0  0.00000000000E+00  0.00000000000E+00  0.22390170118E+04  0.22390170118E+04  0.50400000000E-02 0. -1.
         -1   -1    0    0    0  501 -0.00000000000E+00 -0.00000000000E+00 -0.14054355420E+04  0.14054355421E+04  0.50400000000E-02 0.  1.
    8880022    1    1    2    0    0  0.42671769011E+03 -0.10940124878E+04 -0.93995212652E+03  0.15119037547E+04  0.15294330000E+03 0.  0.
    8880022    1    1    2    0    0 -0.42671769011E+03  0.10940124878E+04  0.17735335963E+04  0.21325487991E+04  0.15294330000E+03 0.  0.
<mgrwt>
<rscale>  0 0.11842056E+04</rscale>
<asrwt>0</asrwt>
<pdfrwt beam="1">  1        1 0.34446416E+00 0.11842056E+04</pdfrwt>
<pdfrwt beam="2">  1       -1 0.21622085E+00 0.11842056E+04</pdfrwt>
<totfact> 0.23569354E-01</totfact>
</mgrwt>
</event>
<event>
 4    1  0.8749406E-009  0.5241814E+03  0.7818608E-02  0.1007653E+00
          1   -1    0    0  501    0  0.00000000000E+00  0.00000000000E+00  0.15153154873E+04  0.15153154873E+04  0.50400000000E-02 0. -1.
         -1   -1    0    0    0  501 -0.00000000000E+00 -0.00000000000E+00 -0.17331843540E+04  0.17331843540E+04  0.50400000000E-02 0.  1.
    8880022    1    1    2    0    0  0.36339975066E+03 -0.34542020008E+03 -0.16458730011E+04  0.17273285971E+04  0.15294330000E+03 0.  0.
    8880022    1    1    2    0    0 -0.36339975066E+03  0.34542020008E+03  0.14280041344E+04  0.15211712442E+04  0.15294330000E+03 0.  0.
<mgrwt>
<rscale>  0 0.52418141E+03</rscale>
<asrwt>0</asrwt>
<pdfrwt beam="1">  1        1 0.23312546E+00 0.52418141E+03</pdfrwt>
<pdfrwt beam="2">  1       -1 0.26664375E+00 0.52418141E+03</pdfrwt>
<totfact> 0.39399100E-01</totfact>
</mgrwt>
</event>
<event>
 4    1  0.8749406E-009  0.1618933E+04  0.7818608E-02  0.8809001E-01
         -1   -1    0    0    0  501 -0.00000000000E+00  0.00000000000E+00  0.91868327467E+03  0.91868327468E+03  0.50400000000E-02 0.  1.
          1   -1    0    0  501    0  0.00000000000E+00 -0.00000000000E+00 -0.42298213778E+04  0.42298213778E+04  0.50400000000E-02 0. -1.
    8880022    1    1    2    0    0 -0.12480664465E+04  0.10197461058E+04 -0.31242895576E+04  0.35188249271E+04  0.15294330000E+03 0.  0.
    8880022    1    1    2    0    0  0.12480664465E+04 -0.10197461058E+04 -0.18684854552E+03  0.16296797253E+04  0.15294330000E+03 0.  0.
<mgrwt>
<rscale>  0 0.16189329E+04</rscale>
<asrwt>0</asrwt>
<pdfrwt beam="1">  1        1 0.65074174E+00 0.16189329E+04</pdfrwt>
<pdfrwt beam="2">  1       -1 0.14133589E+00 0.16189329E+04</pdfrwt>
<totfact> 0.23054720E-02</totfact>
</mgrwt>
</event>
<event>
 4    1  0.8749406E-009  0.3606798E+03  0.7818608E-02  0.1058315E+00
          1   -1    0    0  501    0  0.00000000000E+00  0.00000000000E+00  0.92833658016E+03  0.92833658017E+03  0.50400000000E-02 0. -1.
         -1   -1    0    0    0  501 -0.00000000000E+00 -0.00000000000E+00 -0.25122139786E+03  0.25122139791E+03  0.50400000000E-02 0.  1.
    8880022    1    1    2    0    0 -0.13159090634E+03 -0.29896837695E+03 -0.53632634841E+02  0.36464553964E+03  0.15294330000E+03 0.  0.
    8880022    1    1    2    0    0  0.13159090634E+03  0.29896837695E+03  0.73074781714E+03  0.81491243844E+03  0.15294330000E+03 0.  0.
<mgrwt>
<rscale>  0 0.36067979E+03</rscale>
<asrwt>0</asrwt>
<pdfrwt beam="1">  1        1 0.14282101E+00 0.36067979E+03</pdfrwt>
<pdfrwt beam="2">  1       -1 0.38649446E-01 0.36067979E+03</pdfrwt>
<totfact> 0.11868912E+02</totfact>
</mgrwt>
</event>
<event>
 4    1  0.8749406E-009  0.1254086E+04  0.7818608E-02  0.9066790E-01
         -1   -1    0    0    0  501 -0.00000000000E+00  0.00000000000E+00  0.25776604198E+04  0.25776604198E+04  0.50400000000E-02 0.  1.
          1   -1    0    0  501    0  0.00000000000E+00 -0.00000000000E+00 -0.10065673503E+04  0.10065673503E+04  0.50400000000E-02 0. -1.
    8880022    1    1    2    0    0  0.67221579073E+03  0.10475997128E+04 -0.33912730939E+03  0.12991297905E+04  0.15294330000E+03 0.  0.
    8880022    1    1    2    0    0 -0.67221579073E+03 -0.10475997128E+04  0.19102203788E+04  0.22850979796E+04  0.15294330000E+03 0.  0.
<mgrwt>
<rscale>  0 0.12540857E+04</rscale>
<asrwt>0</asrwt>
<pdfrwt beam="1">  1        1 0.15485652E+00 0.12540857E+04</pdfrwt>
<pdfrwt beam="2">  1       -1 0.39656313E+00 0.12540857E+04</pdfrwt>
<totfact> 0.11108908E-01</totfact>
</mgrwt>
</event>
<event>
 4    1  0.8749406E-009  0.4853923E+03  0.7818608E-02  0.1017664E+00
         -1   -1    0    0    0  501 -0.00000000000E+00  0.00000000000E+00  0.33649704985E+03  0.33649704988E+03  0.50400000000E-02 0.  1.
          1   -1    0    0  501    0  0.00000000000E+00 -0.00000000000E+00 -0.25457956628E+04  0.25457956628E+04  0.50400000000E-02 0. -1.
    8880022    1    1    2    0    0 -0.40646820356E+03 -0.21678941423E+03 -0.23317153265E+04  0.23817015068E+04  0.15294330000E+03 0.  0.
    8880022    1    1    2    0    0  0.40646820356E+03  0.21678941423E+03  0.12241671356E+03  0.50059120588E+03  0.15294330000E+03 0.  1.
<mgrwt>
<rscale>  0 0.48539232E+03</rscale>
<asrwt>0</asrwt>
<pdfrwt beam="1">  1        1 0.39166086E+00 0.48539232E+03</pdfrwt>
<pdfrwt beam="2">  1       -1 0.51768778E-01 0.48539232E+03</pdfrwt>
<totfact> 0.53189282E+00</totfact>
</mgrwt>
</event>
<event>
 4    1  0.8749406E-009  0.9997326E+03  0.7818608E-02  0.9308838E-01
          1   -1    0    0  501    0  0.00000000000E+00  0.00000000000E+00  0.15352785527E+04  0.15352785527E+04  0.50400000000E-02 0. -1.
         -1   -1    0    0    0  501 -0.00000000000E+00 -0.00000000000E+00 -0.66285302977E+03  0.66285302979E+03  0.50400000000E-02 0.  1.
    8880022    1    1    2    0    0  0.90959044795E+03  0.38564083783E+03  0.28923817853E+03  0.10407324420E+04  0.15294330000E+03 0.  0.
    8880022    1    1    2    0    0 -0.90959044795E+03 -0.38564083783E+03  0.58318734436E+03  0.11573991405E+04  0.15294330000E+03 0.  0.
<mgrwt>
<rscale>  0 0.99973261E+03</rscale>
<asrwt>0</asrwt>
<pdfrwt beam="1">  1        1 0.23619670E+00 0.99973261E+03</pdfrwt>
<pdfrwt beam="2">  1       -1 0.10197739E+00 0.99973261E+03</pdfrwt>
<totfact> 0.56675984E+00</totfact>
</mgrwt>
</event>
<event>
 4    1  0.8749406E-009  0.8657989E+03  0.7818608E-02  0.9469374E-01
          1   -1    0    0  501    0  0.00000000000E+00  0.00000000000E+00  0.58019015366E+03  0.58019015368E+03  0.50400000000E-02 0. -1.
         -1   -1    0    0    0  501 -0.00000000000E+00 -0.00000000000E+00 -0.20936111301E+04  0.20936111301E+04  0.50400000000E-02 0.  1.
    8880022    1    1    2    0    0 -0.84202211919E+03  0.13120514146E+03  0.70530514016E+02  0.86866693546E+03  0.15294330000E+03 0.  0.
    8880022    1    1    2    0    0  0.84202211919E+03 -0.13120514146E+03 -0.15839514904E+04  0.18051343483E+04  0.15294330000E+03 0.  0.
<mgrwt>
<rscale>  0 0.86579887E+03</rscale>
<asrwt>0</asrwt>
<pdfrwt beam="1">  1        1 0.89260025E-01 0.86579887E+03</pdfrwt>
<pdfrwt beam="2">  1       -1 0.32209402E+00 0.86579887E+03</pdfrwt>
<totfact> 0.88498081E-01</totfact>
</mgrwt>
</event>
<event>
 4    1  0.8749406E-009  0.1246381E+04  0.7818608E-02  0.9073200E-01
         -1   -1    0    0    0  501 -0.00000000000E+00  0.00000000000E+00  0.96976640624E+03  0.96976640625E+03  0.50400000000E-02 0.  1.
          1   -1    0    0  501    0  0.00000000000E+00 -0.00000000000E+00 -0.29647550440E+04  0.29647550440E+04  0.50400000000E-02 0. -1.
    8880022    1    1    2    0    0  0.92830554432E+03  0.81751072148E+03 -0.23313004398E+04  0.26435635716E+04  0.15294330000E+03 0.  0.
    8880022    1    1    2    0    0 -0.92830554432E+03 -0.81751072148E+03  0.33631180202E+03  0.12909578787E+04  0.15294330000E+03 0.  0.
<mgrwt>
<rscale>  0 0.12463814E+04</rscale>
<asrwt>0</asrwt>
<pdfrwt beam="1">  1        1 0.45611616E+00 0.12463814E+04</pdfrwt>
<pdfrwt beam="2">  1       -1 0.14919483E+00 0.12463814E+04</pdfrwt>
<totfact> 0.22117845E-01</totfact>
</mgrwt>
</event>
<event>
 4    1  0.8749406E-009  0.8861931E+03  0.7818608E-02  0.9443007E-01
         -1   -1    0    0    0  501 -0.00000000000E+00  0.00000000000E+00  0.65828070615E+03  0.65828070617E+03  0.50400000000E-02 0.  1.
          1   -1    0    0  501    0  0.00000000000E+00 -0.00000000000E+00 -0.19270078215E+04  0.19270078215E+04  0.50400000000E-02 0. -1.
    8880022    1    1    2    0    0 -0.86555800433E+03  0.11294228347E+03  0.16341692818E+03  0.90113448701E+03  0.15294330000E+03 0.  0.
    8880022    1    1    2    0    0  0.86555800433E+03 -0.11294228347E+03 -0.14321440435E+04  0.16841540407E+04  0.15294330000E+03 0.  0.
<mgrwt>
<rscale>  0 0.88619313E+03</rscale>
<asrwt>0</asrwt>
<pdfrwt beam="1">  1        1 0.29646274E+00 0.88619313E+03</pdfrwt>
<pdfrwt beam="2">  1       -1 0.10127396E+00 0.88619313E+03</pdfrwt>
<totfact> 0.31754492E+00</totfact>
</mgrwt>
</event>
<event>
 4    1  0.8749406E-009  0.4514084E+03  0.7818608E-02  0.1027303E+00
          1   -1    0    0  501    0  0.00000000000E+00  0.00000000000E+00  0.11409272351E+04  0.11409272351E+04  0.50400000000E-02 0. -1.
         -1   -1    0    0    0  501 -0.00000000000E+00 -0.00000000000E+00 -0.58216717241E+03  0.58216717244E+03  0.50400000000E-02 0.  1.
    8880022    1    1    2    0    0 -0.41791255841E+03 -0.75676938135E+02 -0.43794032987E+03  0.62893663511E+03  0.15294330000E+03 0.  0.
    8880022    1    1    2    0    0  0.41791255841E+03  0.75676938135E+02  0.99670039258E+03  0.10941577725E+04  0.15294330000E+03 0. -1.
<mgrwt>
<rscale>  0 0.45140842E+03</rscale>
<asrwt>0</asrwt>
<pdfrwt beam="1">  1        1 0.17552727E+00 0.45140842E+03</pdfrwt>
<pdfrwt beam="2">  1       -1 0.89564181E-01 0.45140842E+03</pdfrwt>
<totfact> 0.15661113E+01</totfact>
</mgrwt>
</event>
<event>
 4    1  0.8749406E-009  0.1053219E+04  0.7818608E-02  0.9252027E-01
         -1   -1    0    0    0  501 -0.00000000000E+00  0.00000000000E+00  0.12532057409E+04  0.12532057410E+04  0.50400000000E-02 0.  1.
          1   -1    0    0  501    0  0.00000000000E+00 -0.00000000000E+00 -0.34096984079E+04  0.34096984079E+04  0.50400000000E-02 0. -1.
    8880022    1    1    2    0    0 -0.25628932005E+03 -0.10100467391E+04 -0.30843837976E+04  0.32592474123E+04  0.15294330000E+03 0.  0.
    8880022    1    1    2    0    0  0.25628932005E+03  0.10100467391E+04  0.92789113062E+03  0.14036567366E+04  0.15294330000E+03 0.  0.
<mgrwt>
<rscale>  0 0.10532190E+04</rscale>
<asrwt>0</asrwt>
<pdfrwt beam="1">  1        1 0.52456898E+00 0.10532190E+04</pdfrwt>
<pdfrwt beam="2">  1       -1 0.19280088E+00 0.10532190E+04</pdfrwt>
<totfact> 0.50989450E-02</totfact>
</mgrwt>
</event>
<event>
 4    1  0.8749406E-009  0.5960325E+03  0.7818608E-02  0.9913672E-01
         -1   -1    0    0    0  501 -0.00000000000E+00  0.00000000000E+00  0.69517543686E+03  0.69517543688E+03  0.50400000000E-02 0.  1.
          1   -1    0    0  501    0  0.00000000000E+00 -0.00000000000E+00 -0.88046808694E+03  0.88046808696E+03  0.50400000000E-02 0. -1.
    8880022    1    1    2    0    0 -0.57582604888E+03 -0.16954386710E+02  0.41767373467E+03  0.72780910371E+03  0.15294330000E+03 0.  0.
    8880022    1    1    2    0    0  0.57582604888E+03  0.16954386710E+02 -0.60296638475E+03  0.84783442013E+03  0.15294330000E+03 0.  0.
<mgrwt>
<rscale>  0 0.59603250E+03</rscale>
<asrwt>0</asrwt>
<pdfrwt beam="1">  1        1 0.13545663E+00 0.59603250E+03</pdfrwt>
<pdfrwt beam="2">  1       -1 0.10695007E+00 0.59603250E+03</pdfrwt>
<totfact> 0.16193581E+01</totfact>
</mgrwt>
</event>
<event>
 4    1  0.8749406E-009  0.6437798E+03  0.7818608E-02  0.9818522E-01
         -1   -1    0    0    0  501 -0.00000000000E+00  0.00000000000E+00  0.17070923548E+03  0.17070923556E+03  0.50400000000E-02 0.  1.
          1   -1    0    0  501    0  0.00000000000E+00 -0.00000000000E+00 -0.25223453181E+04  0.25223453181E+04  0.50400000000E-02 0. -1.
    8880022    1    1    2    0    0 -0.57530679399E+03 -0.24511794543E+03 -0.14364769316E+04  0.15741405091E+04  0.15294330000E+03 0.  0.
    8880022    1    1    2    0    0  0.57530679399E+03  0.24511794543E+03 -0.91515915097E+03  0.11189140445E+04  0.15294330000E+03 0.  1.
<mgrwt>
<rscale>  0 0.64377975E+03</rscale>
<asrwt>0</asrwt>
<pdfrwt beam="1">  1        1 0.38805310E+00 0.64377975E+03</pdfrwt>
<pdfrwt beam="2">  1       -1 0.26262961E-01 0.64377975E+03</pdfrwt>
<totfact> 0.17949743E+01</totfact>
</mgrwt>
</event>
<event>
 4    1  0.8749406E-009  0.3763774E+03  0.7818608E-02  0.1052281E+00
          1   -1    0    0  501    0  0.00000000000E+00  0.00000000000E+00  0.11750364075E+04  0.11750364075E+04  0.50400000000E-02 0. -1.
         -1   -1    0    0    0  501 -0.00000000000E+00 -0.00000000000E+00 -0.16645451027E+03  0.16645451034E+03  0.50400000000E-02 0.  1.
    8880022    1    1    2    0    0 -0.31148486373E+03 -0.14575825905E+03  0.15208217033E+03  0.40594202784E+03  0.15294330000E+03 0.  0.
    8880022    1    1    2    0    0  0.31148486373E+03  0.14575825905E+03  0.85649972691E+03  0.93554889003E+03  0.15294330000E+03 0.  0.
<mgrwt>
<rscale>  0 0.37637739E+03</rscale>
<asrwt>0</asrwt>
<pdfrwt beam="1">  1        1 0.18077483E+00 0.37637739E+03</pdfrwt>
<pdfrwt beam="2">  1       -1 0.25608386E-01 0.37637739E+03</pdfrwt>
<totfact> 0.15818190E+02</totfact>
</mgrwt>
</event>
<event>
 4    1  0.8749406E-009  0.6655311E+03  0.7818608E-02  0.9778065E-01
         -1   -1    0    0    0  501 -0.00000000000E+00  0.00000000000E+00  0.67699001893E+03  0.67699001895E+03  0.50400000000E-02 0.  1.
          1   -1    0    0  501    0  0.00000000000E+00 -0.00000000000E+00 -0.31400915782E+04  0.31400915782E+04  0.50400000000E-02 0. -1.
    8880022    1    1    2    0    0 -0.62483761991E+03  0.17063969143E+03 -0.29296599607E+04  0.30043034291E+04  0.15294330000E+03 0.  0.
    8880022    1    1    2    0    0  0.62483761991E+03 -0.17063969143E+03  0.46655840143E+03  0.81277816808E+03  0.15294330000E+03 0.  0.
<mgrwt>
<rscale>  0 0.66553107E+03</rscale>
<asrwt>0</asrwt>
<pdfrwt beam="1">  1        1 0.48309100E+00 0.66553107E+03</pdfrwt>
<pdfrwt beam="2">  1       -1 0.10415231E+00 0.66553107E+03</pdfrwt>
<totfact> 0.45419889E-01</totfact>
</mgrwt>
</event>
<event>
 4    1  0.8749406E-009  0.8890920E+03  0.7818608E-02  0.9439321E-01
          1   -1    0    0  501    0  0.00000000000E+00  0.00000000000E+00  0.60647608695E+03  0.60647608697E+03  0.50400000000E-02 0. -1.
         -1   -1    0    0    0  501 -0.00000000000E+00 -0.00000000000E+00 -0.16565916572E+04  0.16565916572E+04  0.50400000000E-02 0.  1.
    8880022    1    1    2    0    0 -0.67170966871E+03 -0.56204898143E+03 -0.25878144566E+01  0.88909576895E+03  0.15294330000E+03 0.  0.
    8880022    1    1    2    0    0  0.67170966871E+03  0.56204898143E+03 -0.10475277558E+04  0.13739719752E+04  0.15294330000E+03 0.  0.
<mgrwt>
<rscale>  0 0.88909200E+03</rscale>
<asrwt>0</asrwt>
<pdfrwt beam="1">  1        1 0.93304014E-01 0.88909200E+03</pdfrwt>
<pdfrwt beam="2">  1       -1 0.25486025E+00 0.88909200E+03</pdfrwt>
<totfact> 0.22366617E+00</totfact>
</mgrwt>
</event>
<event>
 4    1  0.8749406E-009  0.7982814E+03  0.7818608E-02  0.9562508E-01
          1   -1    0    0  501    0  0.00000000000E+00  0.00000000000E+00  0.85458806736E+03  0.85458806737E+03  0.50400000000E-02 0. -1.
         -1   -1    0    0    0  501 -0.00000000000E+00 -0.00000000000E+00 -0.87084660846E+03  0.87084660848E+03  0.50400000000E-02 0.  1.
    8880022    1    1    2    0    0  0.49254965037E+03  0.60930816446E+03  0.31893550556E+03  0.85963545011E+03  0.15294330000E+03 0.  0.
    8880022    1    1    2    0    0 -0.49254965037E+03 -0.60930816446E+03 -0.33519404666E+03  0.86579922574E+03  0.15294330000E+03 0.  0.
<mgrwt>
<rscale>  0 0.79828144E+03</rscale>
<asrwt>0</asrwt>
<pdfrwt beam="1">  1        1 0.13147509E+00 0.79828144E+03</pdfrwt>
<pdfrwt beam="2">  1       -1 0.13397640E+00 0.79828144E+03</pdfrwt>
<totfact> 0.95589775E+00</totfact>
</mgrwt>
</event>
<event>
 4    1  0.8749406E-009  0.7032719E+03  0.7818608E-02  0.9711653E-01
          1   -1    0    0  501    0  0.00000000000E+00  0.00000000000E+00  0.22620321210E+04  0.22620321210E+04  0.50400000000E-02 0. -1.
         -1   -1    0    0    0  501 -0.00000000000E+00 -0.00000000000E+00 -0.29465328993E+03  0.29465328997E+03  0.50400000000E-02 0.  1.
    8880022    1    1    2    0    0 -0.65004159970E+03  0.22055752529E+03  0.33444184878E+03  0.77874431396E+03  0.15294330000E+03 0.  0.
    8880022    1    1    2    0    0  0.65004159970E+03 -0.22055752529E+03  0.16329369823E+04  0.17779410970E+04  0.15294330000E+03 0.  0.
<mgrwt>
<rscale>  0 0.70327189E+03</rscale>
<asrwt>0</asrwt>
<pdfrwt beam="1">  1        1 0.34800494E+00 0.70327189E+03</pdfrwt>
<pdfrwt beam="2">  1       -1 0.45331276E-01 0.70327189E+03</pdfrwt>
<totfact> 0.10099243E+01</totfact>
</mgrwt>
</event>
<event>
 4    1  0.8749406E-009  0.1007982E+04  0.7818608E-02  0.9299833E-01
          1   -1    0    0  501    0  0.00000000000E+00  0.00000000000E+00  0.19044822412E+04  0.19044822412E+04  0.50400000000E-02 0. -1.
         -1   -1    0    0    0  501 -0.00000000000E+00 -0.00000000000E+00 -0.67100278782E+03  0.67100278784E+03  0.50400000000E-02 0.  1.
    8880022    1    1    2    0    0 -0.99433359239E+03 -0.62743057943E+02  0.33786202179E+02  0.10085480379E+04  0.15294330000E+03 0.  0.
    8880022    1    1    2    0    0  0.99433359239E+03  0.62743057943E+02  0.11996932512E+04  0.15669369912E+04  0.15294330000E+03 0.  0.
<mgrwt>
<rscale>  0 0.10079820E+04</rscale>
<asrwt>0</asrwt>
<pdfrwt beam="1">  1        1 0.29299726E+00 0.10079820E+04</pdfrwt>
<pdfrwt beam="2">  1       -1 0.10323120E+00 0.10079820E+04</pdfrwt>
<totfact> 0.30912576E+00</totfact>
</mgrwt>
</event>
<event>
 4    1  0.8749406E-009  0.4151283E+03  0.7818608E-02  0.1038664E+00
          1   -1    0    0  501    0  0.00000000000E+00  0.00000000000E+00  0.19353015974E+04  0.19353015974E+04  0.50400000000E-02 0. -1.
         -1   -1    0    0    0  501 -0.00000000000E+00 -0.00000000000E+00 -0.13689086212E+03  0.13689086222E+03  0.50400000000E-02 0.  1.
    8880022    1    1    2    0    0  0.32949808665E+03 -0.20092496119E+03  0.28667295731E+03  0.50449268241E+03  0.15294330000E+03 0.  0.
    8880022    1    1    2    0    0 -0.32949808665E+03  0.20092496119E+03  0.15117377780E+04  0.15676997772E+04  0.15294330000E+03 0.  0.
<mgrwt>
<rscale>  0 0.41512827E+03</rscale>
<asrwt>0</asrwt>
<pdfrwt beam="1">  1        1 0.29773870E+00 0.41512827E+03</pdfrwt>
<pdfrwt beam="2">  1       -1 0.21060133E-01 0.41512827E+03</pdfrwt>
<totfact> 0.66948659E+01</totfact>
</mgrwt>
</event>
<event>
 4    1  0.8749406E-009  0.9709318E+03  0.7818608E-02  0.9341014E-01
          1   -1    0    0  501    0  0.00000000000E+00  0.00000000000E+00  0.10690125716E+04  0.10690125716E+04  0.50400000000E-02 0. -1.
         -1   -1    0    0    0  501 -0.00000000000E+00 -0.00000000000E+00 -0.14048031205E+04  0.14048031206E+04  0.50400000000E-02 0.  1.
    8880022    1    1    2    0    0  0.91875697190E+02 -0.95439813696E+03  0.58678160472E+03  0.11344695907E+04  0.15294330000E+03 0.  0.
    8880022    1    1    2    0    0 -0.91875697190E+02  0.95439813696E+03 -0.92257215371E+03  0.13393461014E+04  0.15294330000E+03 0.  0.
<mgrwt>
<rscale>  0 0.97093182E+03</rscale>
<asrwt>0</asrwt>
<pdfrwt beam="1">  1        1 0.16446347E+00 0.97093182E+03</pdfrwt>
<pdfrwt beam="2">  1       -1 0.21612356E+00 0.97093182E+03</pdfrwt>
<totfact> 0.15790244E+00</totfact>
</mgrwt>
</event>
<event>
 4    1  0.8749406E-009  0.1200479E+04  0.7818608E-02  0.9112437E-01
          1   -1    0    0  501    0  0.00000000000E+00  0.00000000000E+00  0.28813107049E+04  0.28813107049E+04  0.50400000000E-02 0. -1.
         -1   -1    0    0    0  501 -0.00000000000E+00 -0.00000000000E+00 -0.56549970514E+03  0.56549970517E+03  0.50400000000E-02 0.  1.
    8880022    1    1    2    0    0 -0.43467138485E+03  0.11085215285E+04  0.17436659125E+04  0.21169604766E+04  0.15294330000E+03 0.  0.
    8880022    1    1    2    0    0  0.43467138485E+03 -0.11085215285E+04  0.57214508729E+03  0.13298499336E+04  0.15294330000E+03 0.  0.
<mgrwt>
<rscale>  0 0.12004794E+04</rscale>
<asrwt>0</asrwt>
<pdfrwt beam="1">  1        1 0.44327857E+00 0.12004794E+04</pdfrwt>
<pdfrwt beam="2">  1       -1 0.86999955E-01 0.12004794E+04</pdfrwt>
<totfact> 0.94426768E-01</totfact>
</mgrwt>
</event>
<event>
 4    1  0.8749406E-009  0.2290777E+03  0.7818608E-02  0.1127291E+00
         -1   -1    0    0    0  501 -0.00000000000E+00  0.00000000000E+00  0.10747010883E+04  0.10747010883E+04  0.50400000000E-02 0.  1.
          1   -1    0    0  501    0  0.00000000000E+00 -0.00000000000E+00 -0.72023173164E+03  0.72023173166E+03  0.50400000000E-02 0. -1.
    8880022    1    1    2    0    0 -0.60208841248E+01 -0.17043679504E+03 -0.68927540620E+03  0.72634509068E+03  0.15294330000E+03 0. -1.
    8880022    1    1    2    0    0  0.60208841248E+01  0.17043679504E+03  0.10437447628E+04  0.10685877292E+04  0.15294330000E+03 0.  0.
<mgrwt>
<rscale>  0 0.22907773E+03</rscale>
<asrwt>0</asrwt>
<pdfrwt beam="1">  1        1 0.11080488E+00 0.22907773E+03</pdfrwt>
<pdfrwt beam="2">  1       -1 0.16533863E+00 0.22907773E+03</pdfrwt>
<totfact> 0.81531260E+00</totfact>
</mgrwt>
</event>
<event>
 4    1  0.8749406E-009  0.9925135E+03  0.7818608E-02  0.9316794E-01
          1   -1    0    0  501    0  0.00000000000E+00  0.00000000000E+00  0.14506232655E+04  0.14506232656E+04  0.50400000000E-02 0. -1.
         -1   -1    0    0    0  501 -0.00000000000E+00 -0.00000000000E+00 -0.87702333916E+03  0.87702333918E+03  0.50400000000E-02 0.  1.
    8880022    1    1    2    0    0  0.87930059977E+03 -0.43419097384E+03  0.83971276295E+03  0.13000771222E+04  0.15294330000E+03 0.  0.
    8880022    1    1    2    0    0 -0.87930059977E+03  0.43419097384E+03 -0.26611283657E+03  0.10275694825E+04  0.15294330000E+03 0.  0.
<mgrwt>
<rscale>  0 0.99251348E+03</rscale>
<asrwt>0</asrwt>
<pdfrwt beam="1">  1        1 0.22317281E+00 0.99251348E+03</pdfrwt>
<pdfrwt beam="2">  1       -1 0.13492667E+00 0.99251348E+03</pdfrwt>
<totfact> 0.32855901E+00</totfact>
</mgrwt>
</event>
<event>
 4    1  0.8749406E-009  0.2964675E+03  0.7818608E-02  0.1087020E+00
         -1   -1    0    0    0  501 -0.00000000000E+00  0.00000000000E+00  0.10092467338E+03  0.10092467351E+03  0.50400000000E-02 0.  1.
          1   -1    0    0  501    0  0.00000000000E+00 -0.00000000000E+00 -0.36199663203E+04  0.36199663203E+04  0.50400000000E-02 0. -1.
    8880022    1    1    2    0    0  0.25394224755E+03 -0.38313825334E+01 -0.33808048194E+04  0.33937787530E+04  0.15294330000E+03 0.  0.
    8880022    1    1    2    0    0 -0.25394224755E+03  0.38313825334E+01 -0.13823682755E+03  0.32711224082E+03  0.15294330000E+03 0.  1.
<mgrwt>
<rscale>  0 0.29646753E+03</rscale>
<asrwt>0</asrwt>
<pdfrwt beam="1">  1        1 0.55691780E+00 0.29646753E+03</pdfrwt>
<pdfrwt beam="2">  1       -1 0.15526876E-01 0.29646753E+03</pdfrwt>
<totfact> 0.76663473E+00</totfact>
</mgrwt>
</event>
<event>
 4    1  0.8749406E-009  0.1732110E+04  0.7818608E-02  0.8743260E-01
         -1   -1    0    0    0  501 -0.00000000000E+00  0.00000000000E+00  0.10333993103E+04  0.10333993103E+04  0.50400000000E-02 0.  1.
          1   -1    0    0  501    0  0.00000000000E+00 -0.00000000000E+00 -0.44326507656E+04  0.44326507656E+04  0.50400000000E-02 0. -1.
    8880022    1    1    2    0    0 -0.29019001024E+03  0.17007652384E+04 -0.33049921976E+04  0.37313774558E+04  0.15294330000E+03 0.  0.
    8880022    1    1    2    0    0  0.29019001024E+03 -0.17007652384E+04 -0.94259257725E+02  0.17346726201E+04  0.15294330000E+03 0.  0.
<mgrwt>
<rscale>  0 0.17321098E+04</rscale>
<asrwt>0</asrwt>
<pdfrwt beam="1">  1        1 0.68194626E+00 0.17321098E+04</pdfrwt>
<pdfrwt beam="2">  1       -1 0.15898451E+00 0.17321098E+04</pdfrwt>
<totfact> 0.10501114E-02</totfact>
</mgrwt>
</event>
<event>
 4    1  0.8749406E-009  0.7752465E+03  0.7818608E-02  0.9596554E-01
          1   -1    0    0  501    0  0.00000000000E+00  0.00000000000E+00  0.80327941830E+03  0.80327941832E+03  0.50400000000E-02 0. -1.
         -1   -1    0    0    0  501 -0.00000000000E+00 -0.00000000000E+00 -0.12055470062E+04  0.12055470062E+04  0.50400000000E-02 0.  1.
    8880022    1    1    2    0    0  0.24367373533E+03 -0.71988793619E+03 -0.81978674879E+03  0.11282984962E+04  0.15294330000E+03 0.  0.
    8880022    1    1    2    0    0 -0.24367373533E+03  0.71988793619E+03  0.41751916086E+03  0.88052792838E+03  0.15294330000E+03 0.  0.
<mgrwt>
<rscale>  0 0.77524653E+03</rscale>
<asrwt>0</asrwt>
<pdfrwt beam="1">  1        1 0.12358145E+00 0.77524653E+03</pdfrwt>
<pdfrwt beam="2">  1       -1 0.18546877E+00 0.77524653E+03</pdfrwt>
<totfact> 0.43160366E+00</totfact>
</mgrwt>
</event>
<event>
 4    1  0.8749406E-009  0.7449854E+03  0.7818608E-02  0.9643250E-01
         -1   -1    0    0    0  501 -0.00000000000E+00  0.00000000000E+00  0.10031011759E+04  0.10031011759E+04  0.50400000000E-02 0.  1.
          1   -1    0    0  501    0  0.00000000000E+00 -0.00000000000E+00 -0.12873461969E+04  0.12873461969E+04  0.50400000000E-02 0. -1.
    8880022    1    1    2    0    0  0.17694229075E+03  0.70732100369E+03  0.72266233817E+03  0.10379036971E+04  0.15294330000E+03 0.  0.
    8880022    1    1    2    0    0 -0.17694229075E+03 -0.70732100369E+03 -0.10069073592E+04  0.12525436757E+04  0.15294330000E+03 0.  0.
<mgrwt>
<rscale>  0 0.74498539E+03</rscale>
<asrwt>0</asrwt>
<pdfrwt beam="1">  1        1 0.19805326E+00 0.74498539E+03</pdfrwt>
<pdfrwt beam="2">  1       -1 0.15432326E+00 0.74498539E+03</pdfrwt>
<totfact> 0.31113171E+00</totfact>
</mgrwt>
</event>
<event>
 4    1  0.8749406E-009  0.8005428E+03  0.7818608E-02  0.9559232E-01
         -1   -1    0    0    0  501 -0.00000000000E+00  0.00000000000E+00  0.10685308602E+04  0.10685308602E+04  0.50400000000E-02 0.  1.
          1   -1    0    0  501    0  0.00000000000E+00 -0.00000000000E+00 -0.87830646412E+03  0.87830646413E+03  0.50400000000E-02 0. -1.
    8880022    1    1    2    0    0  0.58762540571E+03  0.52170247549E+03 -0.45306451682E+03  0.91985661914E+03  0.15294330000E+03 0.  0.
    8880022    1    1    2    0    0 -0.58762540571E+03 -0.52170247549E+03  0.64328891287E+03  0.10269807052E+04  0.15294330000E+03 0.  0.
<mgrwt>
<rscale>  0 0.80054278E+03</rscale>
<asrwt>0</asrwt>
<pdfrwt beam="1">  1        1 0.13512407E+00 0.80054278E+03</pdfrwt>
<pdfrwt beam="2">  1       -1 0.16438936E+00 0.80054278E+03</pdfrwt>
<totfact> 0.52793325E+00</totfact>
</mgrwt>
</event>
<event>
 4    1  0.8749406E-009  0.7029344E+03  0.7818608E-02  0.9712227E-01
          1   -1    0    0  501    0  0.00000000000E+00  0.00000000000E+00  0.24605674656E+04  0.24605674656E+04  0.50400000000E-02 0. -1.
         -1   -1    0    0    0  501 -0.00000000000E+00 -0.00000000000E+00 -0.62246285892E+03  0.62246285894E+03  0.50400000000E-02 0.  1.
    8880022    1    1    2    0    0  0.37747073288E+03  0.57292321784E+03 -0.34966965022E+03  0.78510234048E+03  0.15294330000E+03 0.  0.
    8880022    1    1    2    0    0 -0.37747073288E+03 -0.57292321784E+03  0.21877742569E+04  0.22979279841E+04  0.15294330000E+03 0.  0.
<mgrwt>
<rscale>  0 0.70293444E+03</rscale>
<asrwt>0</asrwt>
<pdfrwt beam="1">  1        1 0.37854885E+00 0.70293444E+03</pdfrwt>
<pdfrwt beam="2">  1       -1 0.95763515E-01 0.70293444E+03</pdfrwt>
<totfact> 0.16313300E+00</totfact>
</mgrwt>
</event>
<event>
 4    1  0.8749406E-009  0.2599806E+03  0.7818608E-02  0.1107155E+00
          1   -1    0    0  501    0  0.00000000000E+00  0.00000000000E+00  0.25207800884E+03  0.25207800889E+03  0.50400000000E-02 0. -1.
         -1   -1    0    0    0  501 -0.00000000000E+00 -0.00000000000E+00 -0.59961984220E+03  0.59961984222E+03  0.50400000000E-02 0.  1.
    8880022    1    1    2    0    0  0.37808779666E+02 -0.20680602817E+03 -0.49040095634E+03  0.55505223908E+03  0.15294330000E+03 0.  0.
    8880022    1    1    2    0    0 -0.37808779666E+02  0.20680602817E+03  0.14285912298E+03  0.29664561203E+03  0.15294330000E+03 0.  0.
<mgrwt>
<rscale>  0 0.25998056E+03</rscale>
<asrwt>0</asrwt>
<pdfrwt beam="1">  1        1 0.38781232E-01 0.25998056E+03</pdfrwt>
<pdfrwt beam="2">  1       -1 0.92249206E-01 0.25998056E+03</pdfrwt>
<totfact> 0.13294389E+02</totfact>
</mgrwt>
</event>
<event>
 4    1  0.8749406E-009  0.9302807E+03  0.7818608E-02  0.9388501E-01
         -1   -1    0    0    0  501 -0.00000000000E+00  0.00000000000E+00  0.39989239466E+03  0.39989239469E+03  0.50400000000E-02 0.  1.
          1   -1    0    0  501    0  0.00000000000E+00 -0.00000000000E+00 -0.24422686708E+04  0.24422686708E+04  0.50400000000E-02 0. -1.
    8880022    1    1    2    0    0 -0.83855644636E+03 -0.37263071244E+03 -0.15007522027E+04  0.17656951573E+04  0.15294330000E+03 0.  0.
    8880022    1    1    2    0    0  0.83855644636E+03  0.37263071244E+03 -0.54162407346E+03  0.10764659082E+04  0.15294330000E+03 0.  0.
<mgrwt>
<rscale>  0 0.93028072E+03</rscale>
<asrwt>0</asrwt>
<pdfrwt beam="1">  1        1 0.37573363E+00 0.93028072E+03</pdfrwt>
<pdfrwt beam="2">  1       -1 0.61521908E-01 0.93028072E+03</pdfrwt>
<totfact> 0.40916878E+00</totfact>
</mgrwt>
</event>
<event>
 4    1  0.8749406E-009  0.1297245E+04  0.7818608E-02  0.9031753E-01
          1   -1    0    0  501    0  0.00000000000E+00  0.00000000000E+00  0.24446950474E+04  0.24446950474E+04  0.50400000000E-02 0. -1.
         -1   -1    0    0    0  501 -0.00000000000E+00 -0.00000000000E+00 -0.77290870659E+03  0.77290870661E+03  0.50400000000E-02 0.  1.
    8880022    1    1    2    0    0 -0.64422512102E+03  0.11155386079E+04  0.13679738504E+04  0.18852576749E+04  0.15294330000E+03 0.  0.
    8880022    1    1    2    0    0  0.64422512102E+03 -0.11155386079E+04  0.30381249045E+03  0.13323460792E+04  0.15294330000E+03 0.  0.
<mgrwt>
<rscale>  0 0.12972448E+04</rscale>
<asrwt>0</asrwt>
<pdfrwt beam="1">  1        1 0.37610693E+00 0.12972448E+04</pdfrwt>
<pdfrwt beam="2">  1       -1 0.11890903E+00 0.12972448E+04</pdfrwt>
<totfact> 0.91427325E-01</totfact>
</mgrwt>
</event>
<event>
 4    1  0.8749406E-009  0.8820019E+03  0.7818608E-02  0.9448364E-01
         -1   -1    0    0    0  501 -0.00000000000E+00  0.00000000000E+00  0.97937761136E+03  0.97937761138E+03  0.50400000000E-02 0.  1.
          1   -1    0    0  501    0  0.00000000000E+00 -0.00000000000E+00 -0.22507327690E+04  0.22507327690E+04  0.50400000000E-02 0. -1.
    8880022    1    1    2    0    0  0.80512869575E+03 -0.32604206017E+03 -0.19348579665E+04  0.21264060396E+04  0.15294330000E+03 0.  0.
    8880022    1    1    2    0    0 -0.80512869575E+03  0.32604206017E+03  0.66350280879E+03  0.11037043408E+04  0.15294330000E+03 0.  0.
<mgrwt>
<rscale>  0 0.88200187E+03</rscale>
<asrwt>0</asrwt>
<pdfrwt beam="1">  1        1 0.34626658E+00 0.88200187E+03</pdfrwt>
<pdfrwt beam="2">  1       -1 0.15067348E+00 0.88200187E+03</pdfrwt>
<totfact> 0.71830212E-01</totfact>
</mgrwt>
</event>
<event>
 4    1  0.8749406E-009  0.6928323E+03  0.7818608E-02  0.9729569E-01
          1   -1    0    0  501    0  0.00000000000E+00  0.00000000000E+00  0.13569774556E+04  0.13569774556E+04  0.50400000000E-02 0. -1.
         -1   -1    0    0    0  501 -0.00000000000E+00 -0.00000000000E+00 -0.80585534177E+03  0.80585534179E+03  0.50400000000E-02 0.  1.
    8880022    1    1    2    0    0 -0.59144601812E+03 -0.32682809297E+03 -0.53444678963E+03  0.87501429626E+03  0.15294330000E+03 0.  0.
    8880022    1    1    2    0    0  0.59144601812E+03  0.32682809297E+03  0.10855689034E+04  0.12878185011E+04  0.15294330000E+03 0.  0.
<mgrwt>
<rscale>  0 0.69283234E+03</rscale>
<asrwt>0</asrwt>
<pdfrwt beam="1">  1        1 0.20876576E+00 0.69283234E+03</pdfrwt>
<pdfrwt beam="2">  1       -1 0.12397775E+00 0.69283234E+03</pdfrwt>
<totfact> 0.49430995E+00</totfact>
</mgrwt>
</event>
<event>
 4    1  0.8749406E-009  0.7148311E+03  0.7818608E-02  0.9692200E-01
          1   -1    0    0  501    0  0.00000000000E+00  0.00000000000E+00  0.71350447309E+03  0.71350447311E+03  0.50400000000E-02 0. -1.
         -1   -1    0    0    0  501 -0.00000000000E+00 -0.00000000000E+00 -0.28366784513E+04  0.28366784513E+04  0.50400000000E-02 0.  1.
    8880022    1    1    2    0    0  0.58962974376E+03  0.37407033603E+03  0.47315963953E+03  0.85724182616E+03  0.15294330000E+03 0.  0.
    8880022    1    1    2    0    0 -0.58962974376E+03 -0.37407033603E+03 -0.25963336177E+04  0.26929410982E+04  0.15294330000E+03 0.  0.
<mgrwt>
<rscale>  0 0.71483110E+03</rscale>
<asrwt>0</asrwt>
<pdfrwt beam="1">  1        1 0.10976992E+00 0.71483110E+03</pdfrwt>
<pdfrwt beam="2">  1       -1 0.43641206E+00 0.71483110E+03</pdfrwt>
<totfact> 0.11581833E-01</totfact>
</mgrwt>
</event>
<event>
 4    1  0.8749406E-009  0.6678008E+03  0.7818608E-02  0.9773939E-01
          1   -1    0    0  501    0  0.00000000000E+00  0.00000000000E+00  0.27145396021E+04  0.27145396021E+04  0.50400000000E-02 0. -1.
         -1   -1    0    0    0  501 -0.00000000000E+00 -0.00000000000E+00 -0.35029524718E+03  0.35029524722E+03  0.50400000000E-02 0.  1.
    8880022    1    1    2    0    0  0.61016991161E+03 -0.22418505112E+03  0.65442810050E+02  0.67099975603E+03  0.15294330000E+03 0.  0.
    8880022    1    1    2    0    0 -0.61016991161E+03  0.22418505112E+03  0.22988015448E+04  0.23938350933E+04  0.15294330000E+03 0.  0.
<mgrwt>
<rscale>  0 0.66780080E+03</rscale>
<asrwt>0</asrwt>
<pdfrwt beam="1">  1        1 0.41762149E+00 0.66780080E+03</pdfrwt>
<pdfrwt beam="2">  1       -1 0.53891575E-01 0.66780080E+03</pdfrwt>
<totfact> 0.36076547E+00</totfact>
</mgrwt>
</event>
<event>
 4    1  0.8749406E-009  0.5982667E+03  0.7818608E-02  0.9909009E-01
         -1   -1    0    0    0  501 -0.00000000000E+00  0.00000000000E+00  0.27789345317E+03  0.27789345322E+03  0.50400000000E-02 0.  1.
          1   -1    0    0  501    0  0.00000000000E+00 -0.00000000000E+00 -0.18888171238E+04  0.18888171239E+04  0.50400000000E-02 0. -1.
    8880022    1    1    2    0    0  0.17936273637E+03 -0.54987308424E+03 -0.19444674775E+03  0.62907280238E+03  0.15294330000E+03 0.  0.
    8880022    1    1    2    0    0 -0.17936273637E+03  0.54987308424E+03 -0.14164769229E+04  0.15376377747E+04  0.15294330000E+03 0.  0.
<mgrwt>
<rscale>  0 0.59826671E+03</rscale>
<asrwt>0</asrwt>
<pdfrwt beam="1">  1        1 0.29058724E+00 0.59826671E+03</pdfrwt>
<pdfrwt beam="2">  1       -1 0.42752840E-01 0.59826671E+03</pdfrwt>
<totfact> 0.20330455E+01</totfact>
</mgrwt>
</event>
<event>
 4    1  0.8749406E-009  0.1228046E+04  0.7818608E-02  0.9088656E-01
         -1   -1    0    0    0  501 -0.00000000000E+00  0.00000000000E+00  0.14151411789E+04  0.14151411789E+04  0.50400000000E-02 0.  1.
          1   -1    0    0  501    0  0.00000000000E+00 -0.00000000000E+00 -0.15742734298E+04  0.15742734298E+04  0.50400000000E-02 0. -1.
    8880022    1    1    2    0    0  0.70020615043E+03 -0.99720500193E+03  0.77000215217E+03  0.14494831618E+04  0.15294330000E+03 0.  0.
    8880022    1    1    2    0    0 -0.70020615043E+03  0.99720500193E+03 -0.92913440311E+03  0.15399314469E+04  0.15294330000E+03 0.  0.
<mgrwt>
<rscale>  0 0.12280465E+04</rscale>
<asrwt>0</asrwt>
<pdfrwt beam="1">  1        1 0.24219591E+00 0.12280465E+04</pdfrwt>
<pdfrwt beam="2">  1       -1 0.21771403E+00 0.12280465E+04</pdfrwt>
<totfact> 0.64709740E-01</totfact>
</mgrwt>
</event>
<event>
 4    1  0.8749406E-009  0.4046047E+03  0.7818608E-02  0.1042197E+00
         -1   -1    0    0    0  501 -0.00000000000E+00  0.00000000000E+00  0.65798401541E+03  0.65798401543E+03  0.50400000000E-02 0.  1.
          1   -1    0    0  501    0  0.00000000000E+00 -0.00000000000E+00 -0.12225671792E+04  0.12225671793E+04  0.50400000000E-02 0. -1.
    8880022    1    1    2    0    0 -0.34167941172E+03  0.15352024638E+03  0.55687246351E+03  0.68833994514E+03  0.15294330000E+03 0.  0.
    8880022    1    1    2    0    0  0.34167941172E+03 -0.15352024638E+03 -0.11214556273E+04  0.11922112495E+04  0.15294330000E+03 0.  0.
<mgrwt>
<rscale>  0 0.40460467E+03</rscale>
<asrwt>0</asrwt>
<pdfrwt beam="1">  1        1 0.18808726E+00 0.40460467E+03</pdfrwt>
<pdfrwt beam="2">  1       -1 0.10122831E+00 0.40460467E+03</pdfrwt>
<totfact> 0.10557438E+01</totfact>
</mgrwt>
</event>
<event>
 4    1  0.8749406E-009  0.1052496E+04  0.7818608E-02  0.9252771E-01
          1   -1    0    0  501    0  0.00000000000E+00  0.00000000000E+00  0.11349992041E+04  0.11349992042E+04  0.50400000000E-02 0. -1.
         -1   -1    0    0    0  501 -0.00000000000E+00 -0.00000000000E+00 -0.14792786799E+04  0.14792786799E+04  0.50400000000E-02 0.  1.
    8880022    1    1    2    0    0  0.67331917841E+03 -0.79435385553E+03 -0.93457878300E+03  0.14075460626E+04  0.15294330000E+03 0.  0.
    8880022    1    1    2    0    0 -0.67331917841E+03  0.79435385553E+03  0.59029930722E+03  0.12067318215E+04  0.15294330000E+03 0.  0.
<mgrwt>
<rscale>  0 0.10524963E+04</rscale>
<asrwt>0</asrwt>
<pdfrwt beam="1">  1        1 0.17461526E+00 0.10524963E+04</pdfrwt>
<pdfrwt beam="2">  1       -1 0.22758133E+00 0.10524963E+04</pdfrwt>
<totfact> 0.11681615E+00</totfact>
</mgrwt>
</event>
<event>
 4    1  0.8749406E-009  0.1568971E+04  0.7818608E-02  0.8839840E-01
          1   -1    0    0  501    0  0.00000000000E+00  0.00000000000E+00  0.91815546026E+03  0.91815546027E+03  0.50400000000E-02 0. -1.
         -1   -1    0    0    0  501 -0.00000000000E+00 -0.00000000000E+00 -0.27966131329E+04  0.27966131329E+04  0.50400000000E-02 0.  1.
    8880022    1    1    2    0    0  0.12067647921E+04  0.99095731750E+03 -0.56174731966E+03  0.16665021370E+04  0.15294330000E+03 0.  0.
    8880022    1    1    2    0    0 -0.12067647921E+04 -0.99095731750E+03 -0.13167103530E+04  0.20482664561E+04  0.15294330000E+03 0.  0.
<mgrwt>
<rscale>  0 0.15689708E+04</rscale>
<asrwt>0</asrwt>
<pdfrwt beam="1">  1        1 0.14125469E+00 0.15689708E+04</pdfrwt>
<pdfrwt beam="2">  1       -1 0.43024817E+00 0.15689708E+04</pdfrwt>
<totfact> 0.73692651E-02</totfact>
</mgrwt>
</event>
<event>
 4    1  0.8749406E-009  0.1286811E+04  0.7818608E-02  0.9040090E-01
          1   -1    0    0  501    0  0.00000000000E+00  0.00000000000E+00  0.27596454583E+04  0.27596454583E+04  0.50400000000E-02 0. -1.
         -1   -1    0    0    0  501 -0.00000000000E+00 -0.00000000000E+00 -0.75885884723E+03  0.75885884725E+03  0.50400000000E-02 0.  1.
    8880022    1    1    2    0    0 -0.48484752349E+03 -0.11821228794E+04  0.18052262345E+04  0.22169179132E+04  0.15294330000E+03 0.  0.
    8880022    1    1    2    0    0  0.48484752349E+03  0.11821228794E+04  0.19556037665E+03  0.13015863924E+04  0.15294330000E+03 0.  0.
<mgrwt>
<rscale>  0 0.12868113E+04</rscale>
<asrwt>0</asrwt>
<pdfrwt beam="1">  1        1 0.42456083E+00 0.12868113E+04</pdfrwt>
<pdfrwt beam="2">  1       -1 0.11674752E+00 0.12868113E+04</pdfrwt>
<totfact> 0.57757425E-01</totfact>
</mgrwt>
</event>
<event>
 4    1  0.8749406E-009  0.7893359E+03  0.7818608E-02  0.9575582E-01
         -1   -1    0    0    0  501 -0.00000000000E+00  0.00000000000E+00  0.16835356988E+04  0.16835356988E+04  0.50400000000E-02 0.  1.
          1   -1    0    0  501    0  0.00000000000E+00 -0.00000000000E+00 -0.64296445262E+03  0.64296445264E+03  0.50400000000E-02 0. -1.
    8880022    1    1    2    0    0  0.63676475408E+03 -0.44067020297E+03 -0.23753263010E+03  0.82430151232E+03  0.15294330000E+03 0.  0.
    8880022    1    1    2    0    0 -0.63676475408E+03  0.44067020297E+03  0.12781038763E+04  0.15021986392E+04  0.15294330000E+03 0.  1.
<mgrwt>
<rscale>  0 0.78933594E+03</rscale>
<asrwt>0</asrwt>
<pdfrwt beam="1">  1        1 0.98917608E-01 0.78933594E+03</pdfrwt>
<pdfrwt beam="2">  1       -1 0.25900549E+00 0.78933594E+03</pdfrwt>
<totfact> 0.19606989E+00</totfact>
</mgrwt>
</event>
<event>
 4    1  0.8749406E-009  0.4652110E+03  0.7818608E-02  0.1023281E+00
          1   -1    0    0  501    0  0.00000000000E+00  0.00000000000E+00  0.14735423336E+04  0.14735423336E+04  0.50400000000E-02 0. -1.
         -1   -1    0    0    0  501 -0.00000000000E+00 -0.00000000000E+00 -0.30865725766E+03  0.30865725770E+03  0.50400000000E-02 0.  1.
    8880022    1    1    2    0    0 -0.36315115076E+03  0.24728693060E+03 -0.62703990113E+02  0.46941775396E+03  0.15294330000E+03 0.  0.
    8880022    1    1    2    0    0  0.36315115076E+03 -0.24728693060E+03  0.12275890661E+04  0.13127818373E+04  0.15294330000E+03 0.  0.
<mgrwt>
<rscale>  0 0.46521096E+03</rscale>
<asrwt>0</asrwt>
<pdfrwt beam="1">  1        1 0.22669882E+00 0.46521096E+03</pdfrwt>
<pdfrwt beam="2">  1       -1 0.47485731E-01 0.46521096E+03</pdfrwt>
<totfact> 0.32542524E+01</totfact>
</mgrwt>
</event>
<event>
 4    1  0.8749406E-009  0.6268061E+03  0.7818608E-02  0.9851301E-01
          1   -1    0    0  501    0  0.00000000000E+00  0.00000000000E+00  0.17817924255E+04  0.17817924255E+04  0.50400000000E-02 0. -1.
         -1   -1    0    0    0  501 -0.00000000000E+00 -0.00000000000E+00 -0.48802993311E+03  0.48802993313E+03  0.50400000000E-02 0.  1.
    8880022    1    1    2    0    0  0.37497479156E+03 -0.47842252978E+03  0.14871622497E+04  0.16138579310E+04  0.15294330000E+03 0.  0.
    8880022    1    1    2    0    0 -0.37497479156E+03  0.47842252978E+03 -0.19339975729E+03  0.65596442772E+03  0.15294330000E+03 0.  0.
<mgrwt>
<rscale>  0 0.62680608E+03</rscale>
<asrwt>0</asrwt>
<pdfrwt beam="1">  1        1 0.27412191E+00 0.62680608E+03</pdfrwt>
<pdfrwt beam="2">  1       -1 0.75081530E-01 0.62680608E+03</pdfrwt>
<totfact> 0.79773746E+00</totfact>
</mgrwt>
</event>
<event>
 4    1  0.8749406E-009  0.8938609E+03  0.7818608E-02  0.9433288E-01
          1   -1    0    0  501    0  0.00000000000E+00  0.00000000000E+00  0.99911120280E+03  0.99911120282E+03  0.50400000000E-02 0. -1.
         -1   -1    0    0    0  501 -0.00000000000E+00 -0.00000000000E+00 -0.19250618614E+04  0.19250618614E+04  0.50400000000E-02 0.  1.
    8880022    1    1    2    0    0  0.11475857752E+03  0.87317012867E+03 -0.15808605352E+04  0.18160691863E+04  0.15294330000E+03 0.  0.
    8880022    1    1    2    0    0 -0.11475857752E+03 -0.87317012867E+03  0.65490987662E+03  0.11081038779E+04  0.15294330000E+03 0.  0.
<mgrwt>
<rscale>  0 0.89386087E+03</rscale>
<asrwt>0</asrwt>
<pdfrwt beam="1">  1        1 0.15370942E+00 0.89386087E+03</pdfrwt>
<pdfrwt beam="2">  1       -1 0.29616336E+00 0.89386087E+03</pdfrwt>
<totfact> 0.54685425E-01</totfact>
</mgrwt>
</event>
<event>
 4    1  0.8749406E-009  0.5932859E+03  0.7818608E-02  0.9919434E-01
         -1   -1    0    0    0  501 -0.00000000000E+00  0.00000000000E+00  0.58491484582E+03  0.58491484585E+03  0.50400000000E-02 0.  1.
          1   -1    0    0  501    0  0.00000000000E+00 -0.00000000000E+00 -0.86651720495E+03  0.86651720496E+03  0.50400000000E-02 0. -1.
    8880022    1    1    2    0    0 -0.33471996643E+03  0.46535904026E+03  0.26033172411E+03  0.64788945961E+03  0.15294330000E+03 0.  0.
    8880022    1    1    2    0    0  0.33471996643E+03 -0.46535904026E+03 -0.54193408323E+03  0.80354259120E+03  0.15294330000E+03 0.  0.
<mgrwt>
<rscale>  0 0.59328589E+03</rscale>
<asrwt>0</asrwt>
<pdfrwt beam="1">  1        1 0.13331034E+00 0.59328589E+03</pdfrwt>
<pdfrwt beam="2">  1       -1 0.89986900E-01 0.59328589E+03</pdfrwt>
<totfact> 0.24556789E+01</totfact>
</mgrwt>
</event>
<event>
 4    1  0.8749406E-009  0.4156335E+03  0.7818608E-02  0.1038497E+00
          1   -1    0    0  501    0  0.00000000000E+00  0.00000000000E+00  0.71741530691E+03  0.71741530693E+03  0.50400000000E-02 0. -1.
         -1   -1    0    0    0  501 -0.00000000000E+00 -0.00000000000E+00 -0.37939037482E+03  0.37939037486E+03  0.50400000000E-02 0.  1.
    8880022    1    1    2    0    0 -0.18034491621E+03  0.34181172519E+03 -0.16244540505E+03  0.44625072204E+03  0.15294330000E+03 0.  0.
    8880022    1    1    2    0    0  0.18034491621E+03 -0.34181172519E+03  0.50047033713E+03  0.65055495975E+03  0.15294330000E+03 0.  0.
<mgrwt>
<rscale>  0 0.41563349E+03</rscale>
<asrwt>0</asrwt>
<pdfrwt beam="1">  1        1 0.11037159E+00 0.41563349E+03</pdfrwt>
<pdfrwt beam="2">  1       -1 0.58367750E-01 0.41563349E+03</pdfrwt>
<totfact> 0.82403344E+01</totfact>
</mgrwt>
</event>
<event>
 4    1  0.8749406E-009  0.7389857E+03  0.7818608E-02  0.9652790E-01
         -1   -1    0    0    0  501 -0.00000000000E+00  0.00000000000E+00  0.24377363993E+04  0.24377363993E+04  0.50400000000E-02 0.  1.
          1   -1    0    0  501    0  0.00000000000E+00 -0.00000000000E+00 -0.28306603655E+03  0.28306603660E+03  0.50400000000E-02 0. -1.
    8880022    1    1    2    0    0  0.55507933402E+02  0.72085160285E+03  0.16986638012E+04  0.18524466326E+04  0.15294330000E+03 0.  0.
    8880022    1    1    2    0    0 -0.55507933402E+02 -0.72085160285E+03  0.45600656157E+03  0.86835580335E+03  0.15294330000E+03 0.  0.
<mgrwt>
<rscale>  0 0.73898567E+03</rscale>
<asrwt>0</asrwt>
<pdfrwt beam="1">  1        1 0.43548620E-01 0.73898567E+03</pdfrwt>
<pdfrwt beam="2">  1       -1 0.37503638E+00 0.73898567E+03</pdfrwt>
<totfact> 0.10656743E+00</totfact>
</mgrwt>
</event>
<event>
 4    1  0.8749406E-009  0.4702908E+03  0.7818608E-02  0.1021838E+00
          1   -1    0    0  501    0  0.00000000000E+00  0.00000000000E+00  0.97717154745E+03  0.97717154746E+03  0.50400000000E-02 0. -1.
         -1   -1    0    0    0  501 -0.00000000000E+00 -0.00000000000E+00 -0.36954470597E+03  0.36954470601E+03  0.50400000000E-02 0.  1.
    8880022    1    1    2    0    0 -0.39103069920E+03 -0.21184148694E+03 -0.11535690662E+03  0.48423206443E+03  0.15294330000E+03 0.  0.
    8880022    1    1    2    0    0  0.39103069920E+03  0.21184148694E+03  0.72298374810E+03  0.86248418903E+03  0.15294330000E+03 0.  0.
<mgrwt>
<rscale>  0 0.47029084E+03</rscale>
<asrwt>0</asrwt>
<pdfrwt beam="1">  1        1 0.15033408E+00 0.47029084E+03</pdfrwt>
<pdfrwt beam="2">  1       -1 0.56853031E-01 0.47029084E+03</pdfrwt>
<totfact> 0.52324739E+01</totfact>
</mgrwt>
</event>
<event>
 4    1  0.8749406E-009  0.1398847E+04  0.7818608E-02  0.8954653E-01
          1   -1    0    0  501    0  0.00000000000E+00  0.00000000000E+00  0.21837615811E+04  0.21837615811E+04  0.50400000000E-02 0. -1.
         -1   -1    0    0    0  501 -0.00000000000E+00 -0.00000000000E+00 -0.15580623934E+04  0.15580623934E+04  0.50400000000E-02 0.  1.
    8880022    1    1    2    0    0  0.12945733255E+04  0.50740762770E+03  0.15323776311E+04  0.20748386571E+04  0.15294330000E+03 0.  0.
    8880022    1    1    2    0    0 -0.12945733255E+04 -0.50740762770E+03 -0.90667844339E+03  0.16669853174E+04  0.15294330000E+03 0.  0.
<mgrwt>
<rscale>  0 0.13988475E+04</rscale>
<asrwt>0</asrwt>
<pdfrwt beam="1">  1        1 0.33596332E+00 0.13988475E+04</pdfrwt>
<pdfrwt beam="2">  1       -1 0.23970191E+00 0.13988475E+04</pdfrwt>
<totfact> 0.17397027E-01</totfact>
</mgrwt>
</event>
<event>
 4    1  0.8749406E-009  0.3785686E+03  0.7818608E-02  0.1051464E+00
          1   -1    0    0  501    0  0.00000000000E+00  0.00000000000E+00  0.15581672888E+04  0.15581672888E+04  0.50400000000E-02 0. -1.
         -1   -1    0    0    0  501 -0.00000000000E+00 -0.00000000000E+00 -0.81079260086E+03  0.81079260088E+03  0.50400000000E-02 0.  1.
    8880022    1    1    2    0    0  0.71658750527E+02  0.33880308514E+03  0.14889620189E+04  0.15363339656E+04  0.15294330000E+03 0.  0.
    8880022    1    1    2    0    0 -0.71658750527E+02 -0.33880308514E+03 -0.74158733097E+03  0.83262592411E+03  0.15294330000E+03 0.  0.
<mgrwt>
<rscale>  0 0.37856857E+03</rscale>
<asrwt>0</asrwt>
<pdfrwt beam="1">  1        1 0.23971804E+00 0.37856857E+03</pdfrwt>
<pdfrwt beam="2">  1       -1 0.12473732E+00 0.37856857E+03</pdfrwt>
<totfact> 0.38439628E+00</totfact>
</mgrwt>
</event>
<event>
 4    1  0.8749406E-009  0.5826052E+03  0.7818608E-02  0.9942167E-01
          1   -1    0    0  501    0  0.00000000000E+00  0.00000000000E+00  0.59243926249E+03  0.59243926252E+03  0.50400000000E-02 0. -1.
         -1   -1    0    0    0  501 -0.00000000000E+00 -0.00000000000E+00 -0.22645406920E+04  0.22645406920E+04  0.50400000000E-02 0.  1.
    8880022    1    1    2    0    0 -0.11236132488E+03  0.55082852619E+03  0.39857918226E+03  0.70589953261E+03  0.15294330000E+03 0.  0.
    8880022    1    1    2    0    0  0.11236132488E+03 -0.55082852619E+03 -0.20706806118E+04  0.21510804219E+04  0.15294330000E+03 0.  0.
<mgrwt>
<rscale>  0 0.58260517E+03</rscale>
<asrwt>0</asrwt>
<pdfrwt beam="1">  1        1 0.91144503E-01 0.58260517E+03</pdfrwt>
<pdfrwt beam="2">  1       -1 0.34839087E+00 0.58260517E+03</pdfrwt>
<totfact> 0.61549855E-01</totfact>
</mgrwt>
</event>
<event>
 4    1  0.8749406E-009  0.1852481E+04  0.7818608E-02  0.8678878E-01
          1   -1    0    0  501    0  0.00000000000E+00  0.00000000000E+00  0.25539366156E+04  0.25539366156E+04  0.50400000000E-02 0. -1.
         -1   -1    0    0    0  501 -0.00000000000E+00 -0.00000000000E+00 -0.20888222793E+04  0.20888222793E+04  0.50400000000E-02 0.  1.
    8880022    1    1    2    0    0  0.23146812874E+03  0.18315882999E+04  0.16190374692E+04  0.24602778653E+04  0.15294330000E+03 0.  0.
    8880022    1    1    2    0    0 -0.23146812874E+03 -0.18315882999E+04 -0.11539231329E+04  0.21824810296E+04  0.15294330000E+03 0.  0.
<mgrwt>
<rscale>  0 0.18524807E+04</rscale>
<asrwt>0</asrwt>
<pdfrwt beam="1">  1        1 0.39291332E+00 0.18524807E+04</pdfrwt>
<pdfrwt beam="2">  1       -1 0.32135727E+00 0.18524807E+04</pdfrwt>
<totfact> 0.26853076E-02</totfact>
</mgrwt>
</event>
<event>
 4    1  0.8749406E-009  0.1808472E+04  0.7818608E-02  0.8701807E-01
         -1   -1    0    0    0  501 -0.00000000000E+00  0.00000000000E+00  0.13039394884E+04  0.13039394885E+04  0.50400000000E-02 0.  1.
          1   -1    0    0  501    0  0.00000000000E+00 -0.00000000000E+00 -0.26330084458E+04  0.26330084458E+04  0.50400000000E-02 0. -1.
    8880022    1    1    2    0    0 -0.69886954771E+03 -0.16609513492E+04 -0.10930704638E+04  0.21131428539E+04  0.15294330000E+03 0.  0.
    8880022    1    1    2    0    0  0.69886954771E+03  0.16609513492E+04 -0.23599849353E+03  0.18238050803E+04  0.15294330000E+03 0.  0.
<mgrwt>
<rscale>  0 0.18084716E+04</rscale>
<asrwt>0</asrwt>
<pdfrwt beam="1">  1        1 0.40507822E+00 0.18084716E+04</pdfrwt>
<pdfrwt beam="2">  1       -1 0.20060608E+00 0.18084716E+04</pdfrwt>
<totfact> 0.14891800E-01</totfact>
</mgrwt>
</event>
<event>
 4    1  0.8749406E-009  0.2058883E+03  0.7818608E-02  0.1144864E+00
          1   -1    0    0  501    0  0.00000000000E+00  0.00000000000E+00  0.56747034824E+03  0.56747034826E+03  0.50400000000E-02 0. -1.
         -1   -1    0    0    0  501 -0.00000000000E+00 -0.00000000000E+00 -0.15673438480E+03  0.15673438488E+03  0.50400000000E-02 0.  1.
    8880022    1    1    2    0    0  0.98544486500E+01 -0.13748172552E+03  0.46733547442E+03  0.51067840533E+03  0.15294330000E+03 0.  0.
    8880022    1    1    2    0    0 -0.98544486500E+01  0.13748172552E+03 -0.56599510978E+02  0.21352632781E+03  0.15294330000E+03 0.  0.
<mgrwt>
<rscale>  0 0.20588829E+03</rscale>
<asrwt>0</asrwt>
<pdfrwt beam="1">  1        1 0.87303133E-01 0.20588829E+03</pdfrwt>
<pdfrwt beam="2">  1       -1 0.24112981E-01 0.20588829E+03</pdfrwt>
<totfact> 0.56671019E+02</totfact>
</mgrwt>
</event>
<event>
 4    1  0.8749406E-009  0.1005341E+04  0.7818608E-02  0.9302706E-01
         -1   -1    0    0    0  501 -0.00000000000E+00  0.00000000000E+00  0.13937231642E+04  0.13937231642E+04  0.50400000000E-02 0.  1.
          1   -1    0    0  501    0  0.00000000000E+00 -0.00000000000E+00 -0.15235448063E+04  0.15235448063E+04  0.50400000000E-02 0. -1.
    8880022    1    1    2    0    0 -0.92588249138E+03  0.36063868003E+03 -0.11207977821E+04  0.15056221195E+04  0.15294330000E+03 0.  0.
    8880022    1    1    2    0    0  0.92588249138E+03 -0.36063868003E+03  0.99097614004E+03  0.14116458510E+04  0.15294330000E+03 0.  0.
<mgrwt>
<rscale>  0 0.10053409E+04</rscale>
<asrwt>0</asrwt>
<pdfrwt beam="1">  1        1 0.23439151E+00 0.10053409E+04</pdfrwt>
<pdfrwt beam="2">  1       -1 0.21441895E+00 0.10053409E+04</pdfrwt>
<totfact> 0.76167438E-01</totfact>
</mgrwt>
</event>
<event>
 4    1  0.8749406E-009  0.4076654E+03  0.7818608E-02  0.1041157E+00
         -1   -1    0    0    0  501 -0.00000000000E+00  0.00000000000E+00  0.87547279971E+03  0.87547279972E+03  0.50400000000E-02 0.  1.
          1   -1    0    0  501    0  0.00000000000E+00 -0.00000000000E+00 -0.54804541227E+03  0.54804541229E+03  0.50400000000E-02 0. -1.
    8880022    1    1    2    0    0  0.10458399980E+03 -0.36312748840E+03  0.73914947947E+03  0.84411669327E+03  0.15294330000E+03 0.  0.
    8880022    1    1    2    0    0 -0.10458399980E+03  0.36312748840E+03 -0.41172209202E+03  0.57940151874E+03  0.15294330000E+03 0.  0.
<mgrwt>
<rscale>  0 0.40766535E+03</rscale>
<asrwt>0</asrwt>
<pdfrwt beam="1">  1        1 0.84314680E-01 0.40766535E+03</pdfrwt>
<pdfrwt beam="2">  1       -1 0.13468812E+00 0.40766535E+03</pdfrwt>
<totfact> 0.19512711E+01</totfact>
</mgrwt>
</event>
<event>
 4    1  0.8749406E-009  0.5846252E+03  0.7818608E-02  0.9937827E-01
          1   -1    0    0  501    0  0.00000000000E+00  0.00000000000E+00  0.18253089065E+04  0.18253089065E+04  0.50400000000E-02 0. -1.
         -1   -1    0    0    0  501 -0.00000000000E+00 -0.00000000000E+00 -0.42518339614E+03  0.42518339617E+03  0.50400000000E-02 0.  1.
    8880022    1    1    2    0    0  0.76797806051E+01 -0.56421272923E+03 -0.14169731009E+03  0.60155196247E+03  0.15294330000E+03 0.  0.
    8880022    1    1    2    0    0 -0.76797806051E+01  0.56421272923E+03  0.15418228204E+04  0.16489403402E+04  0.15294330000E+03 0.  0.
<mgrwt>
<rscale>  0 0.58462521E+03</rscale>
<asrwt>0</asrwt>
<pdfrwt beam="1">  1        1 0.28081675E+00 0.58462521E+03</pdfrwt>
<pdfrwt beam="2">  1       -1 0.65412831E-01 0.58462521E+03</pdfrwt>
<totfact> 0.99673740E+00</totfact>
</mgrwt>
</event>
<event>
 4    1  0.8749406E-009  0.5745630E+03  0.7818608E-02  0.9959632E-01
         -1   -1    0    0    0  501 -0.00000000000E+00  0.00000000000E+00  0.87626568768E+03  0.87626568769E+03  0.50400000000E-02 0.  1.
          1   -1    0    0  501    0  0.00000000000E+00 -0.00000000000E+00 -0.92299907400E+03  0.92299907401E+03  0.50400000000E-02 0. -1.
    8880022    1    1    2    0    0  0.42104584867E+03 -0.35979358059E+03  0.66872642196E+03  0.88165622992E+03  0.15294330000E+03 0.  0.
    8880022    1    1    2    0    0 -0.42104584867E+03  0.35979358059E+03 -0.71545980828E+03  0.91760853178E+03  0.15294330000E+03 0.  0.
<mgrwt>
<rscale>  0 0.57456303E+03</rscale>
<asrwt>0</asrwt>
<pdfrwt beam="1">  1        1 0.14199986E+00 0.57456303E+03</pdfrwt>
<pdfrwt beam="2">  1       -1 0.13481011E+00 0.57456303E+03</pdfrwt>
<totfact> 0.85608987E+00</totfact>
</mgrwt>
</event>
<event>
 4    1  0.8749406E-009  0.8992962E+03  0.7818608E-02  0.9426462E-01
          1   -1    0    0  501    0  0.00000000000E+00  0.00000000000E+00  0.10425392564E+04  0.10425392564E+04  0.50400000000E-02 0. -1.
         -1   -1    0    0    0  501 -0.00000000000E+00 -0.00000000000E+00 -0.10137232476E+04  0.10137232476E+04  0.50400000000E-02 0.  1.
    8880022    1    1    2    0    0 -0.54561021292E+03  0.69832042714E+03  0.51256605143E+03  0.10351123289E+04  0.15294330000E+03 0.  0.
    8880022    1    1    2    0    0  0.54561021292E+03 -0.69832042714E+03 -0.48375004263E+03  0.10211501751E+04  0.15294330000E+03 0.  0.
<mgrwt>
<rscale>  0 0.89929616E+03</rscale>
<asrwt>0</asrwt>
<pdfrwt beam="1">  1        1 0.16039065E+00 0.89929616E+03</pdfrwt>
<pdfrwt beam="2">  1       -1 0.15595742E+00 0.89929616E+03</pdfrwt>
<totfact> 0.44676765E+00</totfact>
</mgrwt>
</event>
<event>
 4    1  0.8749406E-009  0.9248401E+03  0.7818608E-02  0.9395052E-01
          1   -1    0    0  501    0  0.00000000000E+00  0.00000000000E+00  0.21668702997E+04  0.21668702997E+04  0.50400000000E-02 0. -1.
         -1   -1    0    0    0  501 -0.00000000000E+00 -0.00000000000E+00 -0.46287245578E+03  0.46287245580E+03  0.50400000000E-02 0.  1.
    8880022    1    1    2    0    0 -0.83507308334E+03 -0.36686584193E+03  0.34749946978E+03  0.98797020958E+03  0.15294330000E+03 0.  0.
    8880022    1    1    2    0    0  0.83507308334E+03  0.36686584193E+03  0.13564983741E+04  0.16417725459E+04  0.15294330000E+03 0.  0.
<mgrwt>
<rscale>  0 0.92484012E+03</rscale>
<asrwt>0</asrwt>
<pdfrwt beam="1">  1        1 0.33336466E+00 0.92484012E+03</pdfrwt>
<pdfrwt beam="2">  1       -1 0.71211147E-01 0.92484012E+03</pdfrwt>
<totfact> 0.46807218E+00</totfact>
</mgrwt>
</event>
<event>
 4    1  0.8749406E-009  0.7895288E+03  0.7818608E-02  0.9575299E-01
         -1   -1    0    0    0  501 -0.00000000000E+00  0.00000000000E+00  0.57664607720E+03  0.57664607722E+03  0.50400000000E-02 0.  1.
          1   -1    0    0  501    0  0.00000000000E+00 -0.00000000000E+00 -0.20412740053E+04  0.20412740053E+04  0.50400000000E-02 0. -1.
    8880022    1    1    2    0    0  0.56093231756E+03 -0.53415264752E+03 -0.16300998834E+04  0.18112375323E+04  0.15294330000E+03 0.  0.
    8880022    1    1    2    0    0 -0.56093231756E+03  0.53415264752E+03  0.16547195530E+03  0.80668255016E+03  0.15294330000E+03 0.  0.
<mgrwt>
<rscale>  0 0.78952883E+03</rscale>
<asrwt>0</asrwt>
<pdfrwt beam="1">  1        1 0.31404215E+00 0.78952883E+03</pdfrwt>
<pdfrwt beam="2">  1       -1 0.88714782E-01 0.78952883E+03</pdfrwt>
<totfact> 0.36396822E+00</totfact>
</mgrwt>
</event>
<event>
 4    1  0.8749406E-009  0.1526072E+04  0.7818608E-02  0.8867298E-01
          1   -1    0    0  501    0  0.00000000000E+00  0.00000000000E+00  0.18237958490E+04  0.18237958490E+04  0.50400000000E-02 0. -1.
         -1   -1    0    0    0  501 -0.00000000000E+00 -0.00000000000E+00 -0.17003277009E+04  0.17003277009E+04  0.50400000000E-02 0.  1.
    8880022    1    1    2    0    0  0.64080864953E+03 -0.13765418125E+04 -0.81752971963E+03  0.17312566483E+04  0.15294330000E+03 0.  0.
    8880022    1    1    2    0    0 -0.64080864953E+03  0.13765418125E+04  0.94099786771E+03  0.17928669016E+04  0.15294330000E+03 0.  0.
<mgrwt>
<rscale>  0 0.15260717E+04</rscale>
<asrwt>0</asrwt>
<pdfrwt beam="1">  1        1 0.28058398E+00 0.15260717E+04</pdfrwt>
<pdfrwt beam="2">  1       -1 0.26158888E+00 0.15260717E+04</pdfrwt>
<totfact> 0.21636990E-01</totfact>
</mgrwt>
</event>
<event>
 4    1  0.8749406E-009  0.1007893E+04  0.7818608E-02  0.9299931E-01
          1   -1    0    0  501    0  0.00000000000E+00  0.00000000000E+00  0.15932612900E+04  0.15932612901E+04  0.50400000000E-02 0. -1.
         -1   -1    0    0    0  501 -0.00000000000E+00 -0.00000000000E+00 -0.70841921766E+03  0.70841921768E+03  0.50400000000E-02 0.  1.
    8880022    1    1    2    0    0 -0.41574226135E+03 -0.90532539238E+03  0.80631623743E+03  0.12907335983E+04  0.15294330000E+03 0.  0.
    8880022    1    1    2    0    0  0.41574226135E+03  0.90532539238E+03  0.78525834963E+02  0.10109469095E+04  0.15294330000E+03 0.  0.
<mgrwt>
<rscale>  0 0.10078925E+04</rscale>
<asrwt>0</asrwt>
<pdfrwt beam="1">  1        1 0.24511712E+00 0.10078925E+04</pdfrwt>
<pdfrwt beam="2">  1       -1 0.10898757E+00 0.10078925E+04</pdfrwt>
<totfact> 0.44232406E+00</totfact>
</mgrwt>
</event>
<event>
 4    1  0.8749406E-009  0.6556922E+03  0.7818608E-02  0.9796156E-01
         -1   -1    0    0    0  501 -0.00000000000E+00  0.00000000000E+00  0.34648437315E+03  0.34648437319E+03  0.50400000000E-02 0.  1.
          1   -1    0    0  501    0  0.00000000000E+00 -0.00000000000E+00 -0.14887690352E+04  0.14887690353E+04  0.50400000000E-02 0. -1.
    8880022    1    1    2    0    0 -0.60068906754E+03 -0.21380665093E+03 -0.19667451334E+03  0.68455325363E+03  0.15294330000E+03 0.  0.
    8880022    1    1    2    0    0  0.60068906754E+03  0.21380665093E+03 -0.94561014875E+03  0.11507001548E+04  0.15294330000E+03 0.  0.
<mgrwt>
<rscale>  0 0.65569222E+03</rscale>
<asrwt>0</asrwt>
<pdfrwt beam="1">  1        1 0.22904139E+00 0.65569222E+03</pdfrwt>
<pdfrwt beam="2">  1       -1 0.53305289E-01 0.65569222E+03</pdfrwt>
<totfact> 0.24742738E+01</totfact>
</mgrwt>
</event>
<event>
 4    1  0.8749406E-009  0.5507594E+03  0.7818608E-02  0.1001318E+00
         -1   -1    0    0    0  501 -0.00000000000E+00  0.00000000000E+00  0.13474892788E+04  0.13474892788E+04  0.50400000000E-02 0.  1.
          1   -1    0    0  501    0  0.00000000000E+00 -0.00000000000E+00 -0.13192103721E+04  0.13192103721E+04  0.50400000000E-02 0. -1.
    8880022    1    1    2    0    0  0.83320831155E+02 -0.52249582245E+03  0.12284094988E+04  0.13462265022E+04  0.15294330000E+03 0.  0.
    8880022    1    1    2    0    0 -0.83320831155E+02  0.52249582245E+03 -0.12001305921E+04  0.13204731487E+04  0.15294330000E+03 0.  0.
<mgrwt>
<rscale>  0 0.55075938E+03</rscale>
<asrwt>0</asrwt>
<pdfrwt beam="1">  1        1 0.20295544E+00 0.55075938E+03</pdfrwt>
<pdfrwt beam="2">  1       -1 0.20730604E+00 0.55075938E+03</pdfrwt>
<totfact> 0.12929354E+00</totfact>
</mgrwt>
</event>
<event>
 4    1  0.8749406E-009  0.9064848E+03  0.7818608E-02  0.9417511E-01
         -1   -1    0    0    0  501 -0.00000000000E+00  0.00000000000E+00  0.11276236549E+04  0.11276236549E+04  0.50400000000E-02 0.  1.
          1   -1    0    0  501    0  0.00000000000E+00 -0.00000000000E+00 -0.14695772538E+04  0.14695772538E+04  0.50400000000E-02 0. -1.
    8880022    1    1    2    0    0  0.84170475360E+03  0.29976030013E+03  0.75106043846E+03  0.11772028564E+04  0.15294330000E+03 0.  0.
    8880022    1    1    2    0    0 -0.84170475360E+03 -0.29976030013E+03 -0.10930140374E+04  0.14199980523E+04  0.15294330000E+03 0.  0.
<mgrwt>
<rscale>  0 0.90648485E+03</rscale>
<asrwt>0</asrwt>
<pdfrwt beam="1">  1        1 0.22608881E+00 0.90648485E+03</pdfrwt>
<pdfrwt beam="2">  1       -1 0.17348056E+00 0.90648485E+03</pdfrwt>
<totfact> 0.16255319E+00</totfact>
</mgrwt>
</event>
<event>
 4    1  0.8749406E-009  0.1828422E+04  0.7818608E-02  0.8691329E-01
          1   -1    0    0  501    0  0.00000000000E+00  0.00000000000E+00  0.20435213576E+04  0.20435213576E+04  0.50400000000E-02 0. -1.
         -1   -1    0    0    0  501 -0.00000000000E+00 -0.00000000000E+00 -0.19127519003E+04  0.19127519003E+04  0.50400000000E-02 0.  1.
    8880022    1    1    2    0    0 -0.61294102648E+03  0.17158204704E+04 -0.68710431580E+03  0.19532640841E+04  0.15294330000E+03 0.  0.
    8880022    1    1    2    0    0  0.61294102648E+03 -0.17158204704E+04  0.81787377311E+03  0.20030091738E+04  0.15294330000E+03 0.  0.
<mgrwt>
<rscale>  0 0.18284223E+04</rscale>
<asrwt>0</asrwt>
<pdfrwt beam="1">  1        1 0.31438790E+00 0.18284223E+04</pdfrwt>
<pdfrwt beam="2">  1       -1 0.29426952E+00 0.18284223E+04</pdfrwt>
<totfact> 0.90894426E-02</totfact>
</mgrwt>
</event>
<event>
 4    1  0.8749406E-009  0.2511567E+03  0.7818608E-02  0.1112576E+00
          1   -1    0    0  501    0  0.00000000000E+00  0.00000000000E+00  0.77702259707E+03  0.77702259709E+03  0.50400000000E-02 0. -1.
         -1   -1    0    0    0  501 -0.00000000000E+00 -0.00000000000E+00 -0.36260286925E+03  0.36260286929E+03  0.50400000000E-02 0.  1.
    8880022    1    1    2    0    0  0.18655830488E+03 -0.69885976941E+02 -0.29478031733E+03  0.38726623838E+03  0.15294330000E+03 0.  0.
    8880022    1    1    2    0    0 -0.18655830488E+03  0.69885976941E+02  0.70920004515E+03  0.75235922800E+03  0.15294330000E+03 0.  0.
<mgrwt>
<rscale>  0 0.25115673E+03</rscale>
<asrwt>0</asrwt>
<pdfrwt beam="1">  1        1 0.11954194E+00 0.25115673E+03</pdfrwt>
<pdfrwt beam="2">  1       -1 0.55785058E-01 0.25115673E+03</pdfrwt>
<totfact> 0.82087644E+01</totfact>
</mgrwt>
</event>
<event>
 4    1  0.8749406E-009  0.4054717E+03  0.7818608E-02  0.1041901E+00
          1   -1    0    0  501    0  0.00000000000E+00  0.00000000000E+00  0.10441842815E+04  0.10441842816E+04  0.50400000000E-02 0. -1.
         -1   -1    0    0    0  501 -0.00000000000E+00 -0.00000000000E+00 -0.32777531077E+03  0.32777531081E+03  0.50400000000E-02 0.  1.
    8880022    1    1    2    0    0  0.19850559781E+03 -0.31876507493E+03  0.85269983412E+03  0.94419505690E+03  0.15294330000E+03 0.  0.
    8880022    1    1    2    0    0 -0.19850559781E+03  0.31876507493E+03 -0.13629086334E+03  0.42776453547E+03  0.15294330000E+03 0.  0.
<mgrwt>
<rscale>  0 0.40547170E+03</rscale>
<asrwt>0</asrwt>
<pdfrwt beam="1">  1        1 0.16064374E+00 0.40547170E+03</pdfrwt>
<pdfrwt beam="2">  1       -1 0.50426971E-01 0.40547170E+03</pdfrwt>
<totfact> 0.59091561E+01</totfact>
</mgrwt>
</event>
<event>
 4    1  0.8749406E-009  0.1061423E+04  0.7818608E-02  0.9243629E-01
         -1   -1    0    0    0  501 -0.00000000000E+00  0.00000000000E+00  0.11440543888E+04  0.11440543889E+04  0.50400000000E-02 0.  1.
          1   -1    0    0  501    0  0.00000000000E+00 -0.00000000000E+00 -0.26920341852E+04  0.26920341852E+04  0.50400000000E-02 0. -1.
    8880022    1    1    2    0    0  0.91640167464E+03 -0.51325921076E+03 -0.23014504944E+04  0.25344216457E+04  0.15294330000E+03 0.  0.
    8880022    1    1    2    0    0 -0.91640167464E+03  0.51325921076E+03  0.75347069804E+03  0.13016669284E+04  0.15294330000E+03 0.  0.
<mgrwt>
<rscale>  0 0.10614230E+04</rscale>
<asrwt>0</asrwt>
<pdfrwt beam="1">  1        1 0.41415910E+00 0.10614230E+04</pdfrwt>
<pdfrwt beam="2">  1       -1 0.17600837E+00 0.10614230E+04</pdfrwt>
<totfact> 0.22352875E-01</totfact>
</mgrwt>
</event>
<event>
 4    1  0.8749406E-009  0.1345751E+04  0.7818608E-02  0.8994051E-01
          1   -1    0    0  501    0  0.00000000000E+00  0.00000000000E+00  0.19339919423E+04  0.19339919423E+04  0.50400000000E-02 0. -1.
         -1   -1    0    0    0  501 -0.00000000000E+00 -0.00000000000E+00 -0.18890730354E+04  0.18890730354E+04  0.50400000000E-02 0.  1.
    8880022    1    1    2    0    0  0.48997400033E+02  0.13361339084E+04 -0.13349867473E+04  0.18955832440E+04  0.15294330000E+03 0.  0.
    8880022    1    1    2    0    0 -0.48997400033E+02 -0.13361339084E+04  0.13799056541E+04  0.19274817337E+04  0.15294330000E+03 0.  0.
<mgrwt>
<rscale>  0 0.13457512E+04</rscale>
<asrwt>0</asrwt>
<pdfrwt beam="1">  1        1 0.29753722E+00 0.13457512E+04</pdfrwt>
<pdfrwt beam="2">  1       -1 0.29062662E+00 0.13457512E+04</pdfrwt>
<totfact> 0.12088489E-01</totfact>
</mgrwt>
</event>
<event>
 4    1  0.8749406E-009  0.5272840E+03  0.7818608E-02  0.1006893E+00
         -1   -1    0    0    0  501 -0.00000000000E+00  0.00000000000E+00  0.38721962095E+03  0.38721962098E+03  0.50400000000E-02 0.  1.
          1   -1    0    0  501    0  0.00000000000E+00 -0.00000000000E+00 -0.18319909191E+04  0.18319909191E+04  0.50400000000E-02 0. -1.
    8880022    1    1    2    0    0 -0.24443269031E+03 -0.44146277644E+03  0.14287174185E+03  0.54629727320E+03  0.15294330000E+03 0.  1.
    8880022    1    1    2    0    0  0.24443269031E+03  0.44146277644E+03 -0.15876430400E+04  0.16729132669E+04  0.15294330000E+03 0.  0.
<mgrwt>
<rscale>  0 0.52728396E+03</rscale>
<asrwt>0</asrwt>
<pdfrwt beam="1">  1        1 0.28184475E+00 0.52728396E+03</pdfrwt>
<pdfrwt beam="2">  1       -1 0.59572250E-01 0.52728396E+03</pdfrwt>
<totfact> 0.12016031E+01</totfact>
</mgrwt>
</event>
<event>
 4    1  0.8749406E-009  0.1184463E+04  0.7818608E-02  0.9126566E-01
          1   -1    0    0  501    0  0.00000000000E+00  0.00000000000E+00  0.20144079403E+04  0.20144079403E+04  0.50400000000E-02 0. -1.
         -1   -1    0    0    0  501 -0.00000000000E+00 -0.00000000000E+00 -0.17438007000E+04  0.17438007000E+04  0.50400000000E-02 0.  1.
    8880022    1    1    2    0    0  0.19828538471E+03 -0.11576885757E+04 -0.13209826772E+04  0.17742454223E+04  0.15294330000E+03 0.  0.
    8880022    1    1    2    0    0 -0.19828538471E+03  0.11576885757E+04  0.15915899175E+04  0.19839632181E+04  0.15294330000E+03 0.  0.
<mgrwt>
<rscale>  0 0.11844626E+04</rscale>
<asrwt>0</asrwt>
<pdfrwt beam="1">  1        1 0.30990891E+00 0.11844626E+04</pdfrwt>
<pdfrwt beam="2">  1       -1 0.26827703E+00 0.11844626E+04</pdfrwt>
<totfact> 0.15236084E-01</totfact>
</mgrwt>
</event>
<event>
 4    1  0.8749406E-009  0.3915764E+03  0.7818608E-02  0.1046736E+00
         -1   -1    0    0    0  501 -0.00000000000E+00  0.00000000000E+00  0.12627938309E+04  0.12627938309E+04  0.50400000000E-02 0.  1.
          1   -1    0    0  501    0  0.00000000000E+00 -0.00000000000E+00 -0.10526600455E+04  0.10526600455E+04  0.50400000000E-02 0. -1.
    8880022    1    1    2    0    0  0.29226297283E+03 -0.21100419985E+03  0.11939774736E+04  0.12565485578E+04  0.15294330000E+03 0.  0.
    8880022    1    1    2    0    0 -0.29226297283E+03  0.21100419985E+03 -0.98384368828E+03  0.10589053185E+04  0.15294330000E+03 0. -1.
<mgrwt>
<rscale>  0 0.39157639E+03</rscale>
<asrwt>0</asrwt>
<pdfrwt beam="1">  1        1 0.16194770E+00 0.39157639E+03</pdfrwt>
<pdfrwt beam="2">  1       -1 0.19427597E+00 0.39157639E+03</pdfrwt>
<totfact> 0.25859115E+00</totfact>
</mgrwt>
</event>
<event>
 4    1  0.8749406E-009  0.1136568E+04  0.7818608E-02  0.9170265E-01
         -1   -1    0    0    0  501 -0.00000000000E+00  0.00000000000E+00  0.47462881299E+03  0.47462881301E+03  0.50400000000E-02 0.  1.
          1   -1    0    0  501    0  0.00000000000E+00 -0.00000000000E+00 -0.31403030305E+04  0.31403030305E+04  0.50400000000E-02 0. -1.
    8880022    1    1    2    0    0 -0.11234796587E+04 -0.78671204322E+02 -0.19927647611E+04  0.22941008583E+04  0.15294330000E+03 0.  0.
    8880022    1    1    2    0    0  0.11234796587E+04  0.78671204322E+02 -0.67290945640E+03  0.13208309852E+04  0.15294330000E+03 0.  0.
<mgrwt>
<rscale>  0 0.11365682E+04</rscale>
<asrwt>0</asrwt>
<pdfrwt beam="1">  1        1 0.48312353E+00 0.11365682E+04</pdfrwt>
<pdfrwt beam="2">  1       -1 0.73019819E-01 0.11365682E+04</pdfrwt>
<totfact> 0.89922135E-01</totfact>
</mgrwt>
</event>
<event>
 4    1  0.8749406E-009  0.8109509E+03  0.7818608E-02  0.9544300E-01
          1   -1    0    0  501    0  0.00000000000E+00  0.00000000000E+00  0.71922461152E+03  0.71922461154E+03  0.50400000000E-02 0. -1.
         -1   -1    0    0    0  501 -0.00000000000E+00 -0.00000000000E+00 -0.13221238264E+04  0.13221238264E+04  0.50400000000E-02 0.  1.
    8880022    1    1    2    0    0 -0.93332480465E+02  0.79091007293E+03 -0.86827224180E+03  0.11880816614E+04  0.15294330000E+03 0.  0.
    8880022    1    1    2    0    0  0.93332480465E+02 -0.79091007293E+03  0.26537302696E+03  0.85326677646E+03  0.15294330000E+03 0.  0.
<mgrwt>
<rscale>  0 0.81095089E+03</rscale>
<asrwt>0</asrwt>
<pdfrwt beam="1">  1        1 0.11064994E+00 0.81095089E+03</pdfrwt>
<pdfrwt beam="2">  1       -1 0.20340367E+00 0.81095089E+03</pdfrwt>
<totfact> 0.38347953E+00</totfact>
</mgrwt>
</event>
<event>
 4    1  0.8749406E-009  0.1101309E+04  0.7818608E-02  0.9203917E-01
         -1   -1    0    0    0  501 -0.00000000000E+00  0.00000000000E+00  0.12838643707E+04  0.12838643707E+04  0.50400000000E-02 0.  1.
          1   -1    0    0  501    0  0.00000000000E+00 -0.00000000000E+00 -0.11639053492E+04  0.11639053492E+04  0.50400000000E-02 0. -1.
    8880022    1    1    2    0    0  0.10502311781E+04 -0.29411563649E+03  0.59110372639E+03  0.12499139185E+04  0.15294330000E+03 0.  0.
    8880022    1    1    2    0    0 -0.10502311781E+04  0.29411563649E+03 -0.47114470493E+03  0.11978558015E+04  0.15294330000E+03 0.  0.
<mgrwt>
<rscale>  0 0.11013089E+04</rscale>
<asrwt>0</asrwt>
<pdfrwt beam="1">  1        1 0.17906236E+00 0.11013089E+04</pdfrwt>
<pdfrwt beam="2">  1       -1 0.19751760E+00 0.11013089E+04</pdfrwt>
<totfact> 0.17638927E+00</totfact>
</mgrwt>
</event>
<event>
 4    1  0.8749406E-009  0.4920347E+03  0.7818608E-02  0.1015879E+00
         -1   -1    0    0    0  501 -0.00000000000E+00  0.00000000000E+00  0.34899075724E+03  0.34899075728E+03  0.50400000000E-02 0.  1.
          1   -1    0    0  501    0  0.00000000000E+00 -0.00000000000E+00 -0.14016945612E+04  0.14016945612E+04  0.50400000000E-02 0. -1.
    8880022    1    1    2    0    0 -0.37800514310E+03 -0.27535183896E+03 -0.11484565854E+04  0.12494201475E+04  0.15294330000E+03 0.  0.
    8880022    1    1    2    0    0  0.37800514310E+03  0.27535183896E+03  0.95752781472E+02  0.50126517095E+03  0.15294330000E+03 0.  0.
<mgrwt>
<rscale>  0 0.49203473E+03</rscale>
<asrwt>0</asrwt>
<pdfrwt beam="1">  1        1 0.21564531E+00 0.49203473E+03</pdfrwt>
<pdfrwt beam="2">  1       -1 0.53690887E-01 0.49203473E+03</pdfrwt>
<totfact> 0.28759886E+01</totfact>
</mgrwt>
</event>
<event>
 4    1  0.8749406E-009  0.5488865E+03  0.7818608E-02  0.1001752E+00
         -1   -1    0    0    0  501 -0.00000000000E+00  0.00000000000E+00  0.91348261440E+03  0.91348261441E+03  0.50400000000E-02 0.  1.
          1   -1    0    0  501    0  0.00000000000E+00 -0.00000000000E+00 -0.99858354807E+03  0.99858354808E+03  0.50400000000E-02 0. -1.
    8880022    1    1    2    0    0 -0.28402359280E+03 -0.44408937730E+03 -0.82493454114E+03  0.99085489679E+03  0.15294330000E+03 0.  0.
    8880022    1    1    2    0    0  0.28402359280E+03  0.44408937730E+03  0.73983360747E+03  0.92121126570E+03  0.15294330000E+03 0.  0.
<mgrwt>
<rscale>  0 0.54888654E+03</rscale>
<asrwt>0</asrwt>
<pdfrwt beam="1">  1        1 0.15362824E+00 0.54888654E+03</pdfrwt>
<pdfrwt beam="2">  1       -1 0.14053579E+00 0.54888654E+03</pdfrwt>
<totfact> 0.67481175E+00</totfact>
</mgrwt>
</event>
<event>
 4    1  0.8749406E-009  0.1007525E+04  0.7818608E-02  0.9300329E-01
         -1   -1    0    0    0  501 -0.00000000000E+00  0.00000000000E+00  0.80633568905E+03  0.80633568907E+03  0.50400000000E-02 0.  1.
          1   -1    0    0  501    0  0.00000000000E+00 -0.00000000000E+00 -0.16012626286E+04  0.16012626286E+04  0.50400000000E-02 0. -1.
    8880022    1    1    2    0    0  0.75619678381E+03  0.64798303300E+03 -0.95408126324E+03  0.13875800146E+04  0.15294330000E+03 0.  0.
    8880022    1    1    2    0    0 -0.75619678381E+03 -0.64798303300E+03  0.15915432371E+03  0.10200183031E+04  0.15294330000E+03 0.  0.
<mgrwt>
<rscale>  0 0.10075253E+04</rscale>
<asrwt>0</asrwt>
<pdfrwt beam="1">  1        1 0.24634810E+00 0.10075253E+04</pdfrwt>
<pdfrwt beam="2">  1       -1 0.12405164E+00 0.10075253E+04</pdfrwt>
<totfact> 0.31932504E+00</totfact>
</mgrwt>
</event>
<event>
 4    1  0.8749406E-009  0.1253651E+04  0.7818608E-02  0.9067150E-01
          1   -1    0    0  501    0  0.00000000000E+00  0.00000000000E+00  0.24228135181E+04  0.24228135181E+04  0.50400000000E-02 0. -1.
         -1   -1    0    0    0  501 -0.00000000000E+00 -0.00000000000E+00 -0.12534203431E+04  0.12534203431E+04  0.50400000000E-02 0.  1.
    8880022    1    1    2    0    0  0.21974880694E+03  0.12247282440E+04 -0.69205905487E+03  0.14319868010E+04  0.15294330000E+03 0.  0.
    8880022    1    1    2    0    0 -0.21974880694E+03 -0.12247282440E+04  0.18614522299E+04  0.22442470602E+04  0.15294330000E+03 0.  0.
<mgrwt>
<rscale>  0 0.12536509E+04</rscale>
<asrwt>0</asrwt>
<pdfrwt beam="1">  1        1 0.37274054E+00 0.12536509E+04</pdfrwt>
<pdfrwt beam="2">  1       -1 0.19283390E+00 0.12536509E+04</pdfrwt>
<totfact> 0.25268524E-01</totfact>
</mgrwt>
</event>
<event>
 4    1  0.8749406E-009  0.1087741E+04  0.7818608E-02  0.9217223E-01
          1   -1    0    0  501    0  0.00000000000E+00  0.00000000000E+00  0.23566527312E+04  0.23566527312E+04  0.50400000000E-02 0. -1.
         -1   -1    0    0    0  501 -0.00000000000E+00 -0.00000000000E+00 -0.86264907750E+03  0.86264907751E+03  0.50400000000E-02 0.  1.
    8880022    1    1    2    0    0  0.10580812175E+04 -0.20063226157E+03 -0.29368717387E+03  0.11266911628E+04  0.15294330000E+03 0.  0.
    8880022    1    1    2    0    0 -0.10580812175E+04  0.20063226157E+03  0.17876908276E+04  0.20926106459E+04  0.15294330000E+03 0.  0.
<mgrwt>
<rscale>  0 0.10877412E+04</rscale>
<asrwt>0</asrwt>
<pdfrwt beam="1">  1        1 0.36256195E+00 0.10877412E+04</pdfrwt>
<pdfrwt beam="2">  1       -1 0.13271524E+00 0.10877412E+04</pdfrwt>
<totfact> 0.82070838E-01</totfact>
</mgrwt>
</event>
<event>
 4    1  0.8749406E-009  0.1209359E+04  0.7818608E-02  0.9104704E-01
         -1   -1    0    0    0  501 -0.00000000000E+00  0.00000000000E+00  0.79273161715E+03  0.79273161716E+03  0.50400000000E-02 0.  1.
          1   -1    0    0  501    0  0.00000000000E+00 -0.00000000000E+00 -0.20075305786E+04  0.20075305786E+04  0.50400000000E-02 0. -1.
    8880022    1    1    2    0    0 -0.61297638450E+03 -0.10312217594E+04 -0.20895093047E+03  0.12272776823E+04  0.15294330000E+03 0.  0.
    8880022    1    1    2    0    0  0.61297638450E+03  0.10312217594E+04 -0.10058480310E+04  0.15729845134E+04  0.15294330000E+03 0.  0.
<mgrwt>
<rscale>  0 0.12093593E+04</rscale>
<asrwt>0</asrwt>
<pdfrwt beam="1">  1        1 0.30885086E+00 0.12093593E+04</pdfrwt>
<pdfrwt beam="2">  1       -1 0.12195871E+00 0.12093593E+04</pdfrwt>
<totfact> 0.17229952E+00</totfact>
</mgrwt>
</event>
<event>
 4    1  0.8749406E-009  0.1185847E+04  0.7818608E-02  0.9125336E-01
          1   -1    0    0  501    0  0.00000000000E+00  0.00000000000E+00  0.34768838514E+04  0.34768838514E+04  0.50400000000E-02 0. -1.
         -1   -1    0    0    0  501 -0.00000000000E+00 -0.00000000000E+00 -0.57573298685E+03  0.57573298687E+03  0.50400000000E-02 0.  1.
    8880022    1    1    2    0    0 -0.11027436642E+04  0.40840851385E+03  0.25557974384E+04  0.28175048008E+04  0.15294330000E+03 0.  0.
    8880022    1    1    2    0    0  0.11027436642E+04 -0.40840851385E+03  0.34535342612E+03  0.12351120375E+04  0.15294330000E+03 0.  1.
<mgrwt>
<rscale>  0 0.11858469E+04</rscale>
<asrwt>0</asrwt>
<pdfrwt beam="1">  1        1 0.53490520E+00 0.11858469E+04</pdfrwt>
<pdfrwt beam="2">  1       -1 0.88574307E-01 0.11858469E+04</pdfrwt>
<totfact> 0.32835808E-01</totfact>
</mgrwt>
</event>
<event>
 4    1  0.8749406E-009  0.2315868E+03  0.7818608E-02  0.1125528E+00
          1   -1    0    0  501    0  0.00000000000E+00  0.00000000000E+00  0.52651530611E+03  0.52651530614E+03  0.50400000000E-02 0. -1.
         -1   -1    0    0    0  501 -0.00000000000E+00 -0.00000000000E+00 -0.16725240071E+04  0.16725240072E+04  0.50400000000E-02 0.  1.
    8880022    1    1    2    0    0 -0.69916031367E+02  0.15922484321E+03  0.49250690526E+03  0.54423846509E+03  0.15294330000E+03 0.  0.
    8880022    1    1    2    0    0  0.69916031367E+02 -0.15922484321E+03 -0.16385156063E+04  0.16548008482E+04  0.15294330000E+03 0.  1.
<mgrwt>
<rscale>  0 0.23158682E+03</rscale>
<asrwt>0</asrwt>
<pdfrwt beam="1">  1        1 0.81002355E-01 0.23158682E+03</pdfrwt>
<pdfrwt beam="2">  1       -1 0.25731138E+00 0.23158682E+03</pdfrwt>
<totfact> 0.31166550E+00</totfact>
</mgrwt>
</event>
<event>
 4    1  0.8749406E-009  0.4429625E+03  0.7818608E-02  0.1029842E+00
         -1   -1    0    0    0  501 -0.00000000000E+00  0.00000000000E+00  0.10123817033E+04  0.10123817033E+04  0.50400000000E-02 0.  1.
          1   -1    0    0  501    0  0.00000000000E+00 -0.00000000000E+00 -0.98470575366E+03  0.98470575367E+03  0.50400000000E-02 0. -1.
    8880022    1    1    2    0    0 -0.11733087133E+03 -0.39882023966E+03  0.90873244765E+03  0.10109453157E+04  0.15294330000E+03 0.  0.
    8880022    1    1    2    0    0  0.11733087133E+03  0.39882023966E+03 -0.88105649805E+03  0.98614214123E+03  0.15294330000E+03 0.  0.
<mgrwt>
<rscale>  0 0.44296249E+03</rscale>
<asrwt>0</asrwt>
<pdfrwt beam="1">  1        1 0.15149319E+00 0.44296249E+03</pdfrwt>
<pdfrwt beam="2">  1       -1 0.15575103E+00 0.44296249E+03</pdfrwt>
<totfact> 0.54019111E+00</totfact>
</mgrwt>
</event>
<event>
 4    1  0.8749406E-009  0.4586348E+03  0.7818608E-02  0.1025178E+00
         -1   -1    0    0    0  501 -0.00000000000E+00  0.00000000000E+00  0.15239595915E+04  0.15239595915E+04  0.50400000000E-02 0.  1.
          1   -1    0    0  501    0  0.00000000000E+00 -0.00000000000E+00 -0.17878887228E+04  0.17878887228E+04  0.50400000000E-02 0. -1.
    8880022    1    1    2    0    0 -0.17994082080E+03 -0.39316088980E+03 -0.17226859611E+04  0.17826925585E+04  0.15294330000E+03 0.  0.
    8880022    1    1    2    0    0  0.17994082080E+03  0.39316088980E+03  0.14587568298E+04  0.15291557559E+04  0.15294330000E+03 0.  0.
<mgrwt>
<rscale>  0 0.45863475E+03</rscale>
<asrwt>0</asrwt>
<pdfrwt beam="1">  1        1 0.27505980E+00 0.45863475E+03</pdfrwt>
<pdfrwt beam="2">  1       -1 0.23445532E+00 0.45863475E+03</pdfrwt>
<totfact> 0.42659820E-01</totfact>
</mgrwt>
</event>
<event>
 4    1  0.8749406E-009  0.4354790E+03  0.7818608E-02  0.1032143E+00
          1   -1    0    0  501    0  0.00000000000E+00  0.00000000000E+00  0.15604699560E+04  0.15604699560E+04  0.50400000000E-02 0. -1.
         -1   -1    0    0    0  501 -0.00000000000E+00 -0.00000000000E+00 -0.55171958515E+03  0.55171958517E+03  0.50400000000E-02 0.  1.
    8880022    1    1    2    0    0  0.30716800253E+03  0.26813822859E+03  0.14369297983E+04  0.15014690106E+04  0.15294330000E+03 0.  0.
    8880022    1    1    2    0    0 -0.30716800253E+03 -0.26813822859E+03 -0.42817942746E+03  0.61072053062E+03  0.15294330000E+03 0.  0.
<mgrwt>
<rscale>  0 0.43547898E+03</rscale>
<asrwt>0</asrwt>
<pdfrwt beam="1">  1        1 0.24007230E+00 0.43547898E+03</pdfrwt>
<pdfrwt beam="2">  1       -1 0.84879936E-01 0.43547898E+03</pdfrwt>
<totfact> 0.90471177E+00</totfact>
</mgrwt>
</event>
<event>
 4    1  0.8749406E-009  0.7630985E+03  0.7818608E-02  0.9615022E-01
          1   -1    0    0  501    0  0.00000000000E+00  0.00000000000E+00  0.18833727524E+04  0.18833727524E+04  0.50400000000E-02 0. -1.
         -1   -1    0    0    0  501 -0.00000000000E+00 -0.00000000000E+00 -0.47298337665E+03  0.47298337668E+03  0.50400000000E-02 0.  1.
    8880022    1    1    2    0    0 -0.57371227167E+03 -0.47935573918E+03  0.11870046302E+02  0.76319083220E+03  0.15294330000E+03 0.  0.
    8880022    1    1    2    0    0  0.57371227167E+03  0.47935573918E+03  0.13985193294E+04  0.15931652969E+04  0.15294330000E+03 0.  0.
<mgrwt>
<rscale>  0 0.76309852E+03</rscale>
<asrwt>0</asrwt>
<pdfrwt beam="1">  1        1 0.28974965E+00 0.76309852E+03</pdfrwt>
<pdfrwt beam="2">  1       -1 0.72766675E-01 0.76309852E+03</pdfrwt>
<totfact> 0.71078961E+00</totfact>
</mgrwt>
</event>
<event>
 4    1  0.8749406E-009  0.1977324E+03  0.7818608E-02  0.1151666E+00
          1   -1    0    0  501    0  0.00000000000E+00  0.00000000000E+00  0.97563709097E+03  0.97563709098E+03  0.50400000000E-02 0. -1.
         -1   -1    0    0    0  501 -0.00000000000E+00 -0.00000000000E+00 -0.79425060785E+02  0.79425060944E+02  0.50400000000E-02 0.  1.
    8880022    1    1    2    0    0  0.62254638504E+02  0.10876948832E+03  0.81942328783E+03  0.84294283274E+03  0.15294330000E+03 0.  0.
    8880022    1    1    2    0    0 -0.62254638504E+02 -0.10876948832E+03  0.76788742348E+02  0.21211931919E+03  0.15294330000E+03 0.  1.
<mgrwt>
<rscale>  0 0.19773238E+03</rscale>
<asrwt>0</asrwt>
<pdfrwt beam="1">  1        1 0.15009802E+00 0.19773238E+03</pdfrwt>
<pdfrwt beam="2">  1       -1 0.12219240E-01 0.19773238E+03</pdfrwt>
<totfact> 0.74820524E+02</totfact>
</mgrwt>
</event>
<event>
 4    1  0.8749406E-009  0.1214805E+04  0.7818608E-02  0.9099995E-01
          1   -1    0    0  501    0  0.00000000000E+00  0.00000000000E+00  0.24137115414E+04  0.24137115414E+04  0.50400000000E-02 0. -1.
         -1   -1    0    0    0  501 -0.00000000000E+00 -0.00000000000E+00 -0.88880737793E+03  0.88880737794E+03  0.50400000000E-02 0.  1.
    8880022    1    1    2    0    0  0.82505325438E+03 -0.87843459758E+03 -0.16005072800E+03  0.12253032699E+04  0.15294330000E+03 0.  0.
    8880022    1    1    2    0    0 -0.82505325438E+03  0.87843459758E+03  0.16849548914E+04  0.20772156494E+04  0.15294330000E+03 0. -1.
<mgrwt>
<rscale>  0 0.12148053E+04</rscale>
<asrwt>0</asrwt>
<pdfrwt beam="1">  1        1 0.37134024E+00 0.12148053E+04</pdfrwt>
<pdfrwt beam="2">  1       -1 0.13673960E+00 0.12148053E+04</pdfrwt>
<totfact> 0.68224521E-01</totfact>
</mgrwt>
</event>
<event>
 4    1  0.8749406E-009  0.1214949E+04  0.7818608E-02  0.9099871E-01
         -1   -1    0    0    0  501 -0.00000000000E+00  0.00000000000E+00  0.74959285583E+03  0.74959285585E+03  0.50400000000E-02 0.  1.
          1   -1    0    0  501    0  0.00000000000E+00 -0.00000000000E+00 -0.41838096445E+04  0.41838096445E+04  0.50400000000E-02 0. -1.
    8880022    1    1    2    0    0  0.91553337655E+03  0.78390616424E+03  0.77537265493E+02  0.12174210112E+04  0.15294330000E+03 0.  0.
    8880022    1    1    2    0    0 -0.91553337655E+03 -0.78390616424E+03 -0.35117540541E+04  0.37159814892E+04  0.15294330000E+03 0. -1.
<mgrwt>
<rscale>  0 0.12149493E+04</rscale>
<asrwt>0</asrwt>
<pdfrwt beam="1">  1        1 0.64366301E+00 0.12149493E+04</pdfrwt>
<pdfrwt beam="2">  1       -1 0.11532198E+00 0.12149493E+04</pdfrwt>
<totfact> 0.45342762E-02</totfact>
</mgrwt>
</event>
<event>
 4    1  0.8749406E-009  0.1171215E+04  0.7818608E-02  0.9138432E-01
          1   -1    0    0  501    0  0.00000000000E+00  0.00000000000E+00  0.10018468590E+04  0.10018468590E+04  0.50400000000E-02 0. -1.
         -1   -1    0    0    0  501 -0.00000000000E+00 -0.00000000000E+00 -0.14523225155E+04  0.14523225155E+04  0.50400000000E-02 0.  1.
    8880022    1    1    2    0    0 -0.11411062137E+04 -0.21501179706E+03 -0.51877261615E+03  0.12809645367E+04  0.15294330000E+03 0.  0.
    8880022    1    1    2    0    0  0.11411062137E+04  0.21501179706E+03  0.68296959598E+02  0.11732048379E+04  0.15294330000E+03 0.  0.
<mgrwt>
<rscale>  0 0.11712152E+04</rscale>
<asrwt>0</asrwt>
<pdfrwt beam="1">  1        1 0.15413029E+00 0.11712152E+04</pdfrwt>
<pdfrwt beam="2">  1       -1 0.22343423E+00 0.11712152E+04</pdfrwt>
<totfact> 0.15498305E+00</totfact>
</mgrwt>
</event>
<event>
 4    1  0.8749406E-009  0.5167427E+03  0.7818608E-02  0.1009499E+00
         -1   -1    0    0    0  501 -0.00000000000E+00  0.00000000000E+00  0.38408186771E+03  0.38408186775E+03  0.50400000000E-02 0.  1.
          1   -1    0    0  501    0  0.00000000000E+00 -0.00000000000E+00 -0.81310603827E+03  0.81310603828E+03  0.50400000000E-02 0. -1.
    8880022    1    1    2    0    0 -0.46934066731E+03  0.15280943088E+03  0.13407711002E+02  0.51691663147E+03  0.15294330000E+03 0.  0.
    8880022    1    1    2    0    0  0.46934066731E+03 -0.15280943088E+03 -0.44243188156E+03  0.68027127456E+03  0.15294330000E+03 0.  0.
<mgrwt>
<rscale>  0 0.51674272E+03</rscale>
<asrwt>0</asrwt>
<pdfrwt beam="1">  1        1 0.12509324E+00 0.51674272E+03</pdfrwt>
<pdfrwt beam="2">  1       -1 0.59089518E-01 0.51674272E+03</pdfrwt>
<totfact> 0.65439175E+01</totfact>
</mgrwt>
</event>
<event>
 4    1  0.8749406E-009  0.5056039E+03  0.7818608E-02  0.1012326E+00
          1   -1    0    0  501    0  0.00000000000E+00  0.00000000000E+00  0.25002876408E+04  0.25002876408E+04  0.50400000000E-02 0. -1.
         -1   -1    0    0    0  501 -0.00000000000E+00 -0.00000000000E+00 -0.89079425691E+03  0.89079425693E+03  0.50400000000E-02 0.  1.
    8880022    1    1    2    0    0 -0.43191615975E+03  0.21375701583E+03  0.24000186157E+04  0.24526974211E+04  0.15294330000E+03 0. -1.
    8880022    1    1    2    0    0  0.43191615975E+03 -0.21375701583E+03 -0.79052523179E+03  0.93838447663E+03  0.15294330000E+03 0.  0.
<mgrwt>
<rscale>  0 0.50560388E+03</rscale>
<asrwt>0</asrwt>
<pdfrwt beam="1">  1        1 0.38465963E+00 0.50560388E+03</pdfrwt>
<pdfrwt beam="2">  1       -1 0.13704527E+00 0.50560388E+03</pdfrwt>
<totfact> 0.68841755E-01</totfact>
</mgrwt>
</event>
<event>
 4    1  0.8749406E-009  0.8700159E+03  0.7818608E-02  0.9463859E-01
          1   -1    0    0  501    0  0.00000000000E+00  0.00000000000E+00  0.14569087104E+04  0.14569087104E+04  0.50400000000E-02 0. -1.
         -1   -1    0    0    0  501 -0.00000000000E+00 -0.00000000000E+00 -0.15827207544E+04  0.15827207544E+04  0.50400000000E-02 0.  1.
    8880022    1    1    2    0    0 -0.12584615691E+03 -0.84717103740E+03  0.11827304285E+04  0.14682571101E+04  0.15294330000E+03 0.  0.
    8880022    1    1    2    0    0  0.12584615691E+03  0.84717103740E+03 -0.13085424725E+04  0.15713723547E+04  0.15294330000E+03 0.  0.
<mgrwt>
<rscale>  0 0.87001590E+03</rscale>
<asrwt>0</asrwt>
<pdfrwt beam="1">  1        1 0.22413980E+00 0.87001590E+03</pdfrwt>
<pdfrwt beam="2">  1       -1 0.24349550E+00 0.87001590E+03</pdfrwt>
<totfact> 0.55706580E-01</totfact>
</mgrwt>
</event>
<event>
 4    1  0.8749406E-009  0.6436602E+03  0.7818608E-02  0.9818749E-01
          1   -1    0    0  501    0  0.00000000000E+00  0.00000000000E+00  0.13102321360E+04  0.13102321360E+04  0.50400000000E-02 0. -1.
         -1   -1    0    0    0  501 -0.00000000000E+00 -0.00000000000E+00 -0.62108278970E+03  0.62108278972E+03  0.50400000000E-02 0.  1.
    8880022    1    1    2    0    0 -0.13144542510E+03 -0.61125188811E+03 -0.33199599515E+03  0.72423736738E+03  0.15294330000E+03 0.  0.
    8880022    1    1    2    0    0  0.13144542510E+03  0.61125188811E+03  0.10211453415E+04  0.12070775584E+04  0.15294330000E+03 0.  0.
<mgrwt>
<rscale>  0 0.64366018E+03</rscale>
<asrwt>0</asrwt>
<pdfrwt beam="1">  1        1 0.20157417E+00 0.64366018E+03</pdfrwt>
<pdfrwt beam="2">  1       -1 0.95551200E-01 0.64366018E+03</pdfrwt>
<totfact> 0.99050006E+00</totfact>
</mgrwt>
</event>
<event>
 4    1  0.8749406E-009  0.9473399E+03  0.7818608E-02  0.9368265E-01
          1   -1    0    0  501    0  0.00000000000E+00  0.00000000000E+00  0.20417265177E+04  0.20417265177E+04  0.50400000000E-02 0. -1.
         -1   -1    0    0    0  501 -0.00000000000E+00 -0.00000000000E+00 -0.65971000324E+03  0.65971000326E+03  0.50400000000E-02 0.  1.
    8880022    1    1    2    0    0 -0.82916674263E+03 -0.43190704521E+03  0.14712904172E+04  0.17498995193E+04  0.15294330000E+03 0.  0.
    8880022    1    1    2    0    0  0.82916674263E+03  0.43190704521E+03 -0.89273902787E+02  0.95153700166E+03  0.15294330000E+03 0.  0.
<mgrwt>
<rscale>  0 0.94733987E+03</rscale>
<asrwt>0</asrwt>
<pdfrwt beam="1">  1        1 0.31411177E+00 0.94733987E+03</pdfrwt>
<pdfrwt beam="2">  1       -1 0.10149385E+00 0.94733987E+03</pdfrwt>
<totfact> 0.26216229E+00</totfact>
</mgrwt>
</event>
<event>
 4    1  0.8749406E-009  0.1357549E+04  0.7818608E-02  0.8985133E-01
          1   -1    0    0  501    0  0.00000000000E+00  0.00000000000E+00  0.89675999955E+03  0.89675999956E+03  0.50400000000E-02 0. -1.
         -1   -1    0    0    0  501 -0.00000000000E+00 -0.00000000000E+00 -0.27111990000E+04  0.27111990001E+04  0.50400000000E-02 0.  1.
    8880022    1    1    2    0    0  0.60735791144E+03  0.12044351881E+04 -0.17946465458E+04  0.22502656804E+04  0.15294330000E+03 0.  0.
    8880022    1    1    2    0    0 -0.60735791144E+03 -0.12044351881E+04 -0.19792454710E+02  0.13576933193E+04  0.15294330000E+03 0.  0.
<mgrwt>
<rscale>  0 0.13575490E+04</rscale>
<asrwt>0</asrwt>
<pdfrwt beam="1">  1        1 0.13796308E+00 0.13575490E+04</pdfrwt>
<pdfrwt beam="2">  1       -1 0.41710753E+00 0.13575490E+04</pdfrwt>
<totfact> 0.97090328E-02</totfact>
</mgrwt>
</event>
<event>
 4    1  0.8749406E-009  0.7828241E+03  0.7818608E-02  0.9585217E-01
         -1   -1    0    0    0  501 -0.00000000000E+00  0.00000000000E+00  0.91494223992E+03  0.91494223993E+03  0.50400000000E-02 0.  1.
          1   -1    0    0  501    0  0.00000000000E+00 -0.00000000000E+00 -0.75612815627E+03  0.75612815628E+03  0.50400000000E-02 0. -1.
    8880022    1    1    2    0    0  0.76445122161E+03 -0.70966108107E+02  0.36175455283E+03  0.86236875421E+03  0.15294330000E+03 0.  0.
    8880022    1    1    2    0    0 -0.76445122161E+03  0.70966108107E+02 -0.20294046918E+03  0.80870164200E+03  0.15294330000E+03 0.  0.
<mgrwt>
<rscale>  0 0.78282406E+03</rscale>
<asrwt>0</asrwt>
<pdfrwt beam="1">  1        1 0.11632741E+00 0.78282406E+03</pdfrwt>
<pdfrwt beam="2">  1       -1 0.14076034E+00 0.78282406E+03</pdfrwt>
<totfact> 0.10257803E+01</totfact>
</mgrwt>
</event>
<event>
 4    1  0.8749406E-009  0.2715546E+03  0.7818608E-02  0.1100393E+00
         -1   -1    0    0    0  501 -0.00000000000E+00  0.00000000000E+00  0.36145772966E+03  0.36145772969E+03  0.50400000000E-02 0.  1.
          1   -1    0    0  501    0  0.00000000000E+00 -0.00000000000E+00 -0.41710694122E+03  0.41710694125E+03  0.50400000000E-02 0. -1.
    8880022    1    1    2    0    0 -0.11378584437E+03 -0.19339860745E+03  0.25042019345E+03  0.36939432324E+03  0.15294330000E+03 0.  0.
    8880022    1    1    2    0    0  0.11378584437E+03  0.19339860745E+03 -0.30606940501E+03  0.40917034770E+03  0.15294330000E+03 0.  0.
<mgrwt>
<rscale>  0 0.27155459E+03</rscale>
<asrwt>0</asrwt>
<pdfrwt beam="1">  1        1 0.64170298E-01 0.27155459E+03</pdfrwt>
<pdfrwt beam="2">  1       -1 0.55608882E-01 0.27155459E+03</pdfrwt>
<totfact> 0.19478727E+02</totfact>
</mgrwt>
</event>
<event>
 4    1  0.8749406E-009  0.1236564E+04  0.7818608E-02  0.9081441E-01
          1   -1    0    0  501    0  0.00000000000E+00  0.00000000000E+00  0.87358721134E+03  0.87358721135E+03  0.50400000000E-02 0. -1.
         -1   -1    0    0    0  501 -0.00000000000E+00 -0.00000000000E+00 -0.19530647309E+04  0.19530647309E+04  0.50400000000E-02 0.  1.
    8880022    1    1    2    0    0 -0.82286864640E+03 -0.91026679793E+03 -0.99506053731E+03  0.15872099983E+04  0.15294330000E+03 0.  0.
    8880022    1    1    2    0    0  0.82286864640E+03  0.91026679793E+03 -0.84416982245E+02  0.12394419440E+04  0.15294330000E+03 0.  0.
<mgrwt>
<rscale>  0 0.12365638E+04</rscale>
<asrwt>0</asrwt>
<pdfrwt beam="1">  1        1 0.13439803E+00 0.12365638E+04</pdfrwt>
<pdfrwt beam="2">  1       -1 0.30047150E+00 0.12365638E+04</pdfrwt>
<totfact> 0.61609280E-01</totfact>
</mgrwt>
</event>
<event>
 4    1  0.8749406E-009  0.3800083E+03  0.7818608E-02  0.1050931E+00
          1   -1    0    0  501    0  0.00000000000E+00  0.00000000000E+00  0.16713017333E+04  0.16713017333E+04  0.50400000000E-02 0. -1.
         -1   -1    0    0    0  501 -0.00000000000E+00 -0.00000000000E+00 -0.18822071772E+03  0.18822071779E+03  0.50400000000E-02 0.  1.
    8880022    1    1    2    0    0 -0.30666502161E+03 -0.16422910309E+03  0.57710157405E+02  0.38436538484E+03  0.15294330000E+03 0.  0.
    8880022    1    1    2    0    0  0.30666502161E+03  0.16422910309E+03  0.14253708581E+04  0.14751570662E+04  0.15294330000E+03 0.  0.
<mgrwt>
<rscale>  0 0.38000827E+03</rscale>
<asrwt>0</asrwt>
<pdfrwt beam="1">  1        1 0.25712334E+00 0.38000827E+03</pdfrwt>
<pdfrwt beam="2">  1       -1 0.28957034E-01 0.38000827E+03</pdfrwt>
<totfact> 0.58909772E+01</totfact>
</mgrwt>
</event>
<event>
 4    1  0.8749406E-009  0.3777647E+03  0.7818608E-02  0.1051763E+00
          1   -1    0    0  501    0  0.00000000000E+00  0.00000000000E+00  0.21989053823E+04  0.21989053823E+04  0.50400000000E-02 0. -1.
         -1   -1    0    0    0  501 -0.00000000000E+00 -0.00000000000E+00 -0.36283031941E+03  0.36283031944E+03  0.50400000000E-02 0.  1.
    8880022    1    1    2    0    0 -0.10354869479E+02 -0.34526412247E+03  0.20787130080E+04  0.21127597971E+04  0.15294330000E+03 0.  0.
    8880022    1    1    2    0    0  0.10354869479E+02  0.34526412247E+03 -0.24263794507E+03  0.44897590469E+03  0.15294330000E+03 0.  0.
<mgrwt>
<rscale>  0 0.37776473E+03</rscale>
<asrwt>0</asrwt>
<pdfrwt beam="1">  1        1 0.33829313E+00 0.37776473E+03</pdfrwt>
<pdfrwt beam="2">  1       -1 0.55820050E-01 0.37776473E+03</pdfrwt>
<totfact> 0.81304755E+00</totfact>
</mgrwt>
</event>
<event>
 4    1  0.8749406E-009  0.8949670E+03  0.7818608E-02  0.9431895E-01
          1   -1    0    0  501    0  0.00000000000E+00  0.00000000000E+00  0.21946996999E+04  0.21946996999E+04  0.50400000000E-02 0. -1.
         -1   -1    0    0    0  501 -0.00000000000E+00 -0.00000000000E+00 -0.67739460383E+03  0.67739460385E+03  0.50400000000E-02 0.  1.
    8880022    1    1    2    0    0  0.44330210362E+03 -0.76227124745E+03 -0.21663148796E+03  0.92081217648E+03  0.15294330000E+03 0.  0.
    8880022    1    1    2    0    0 -0.44330210362E+03  0.76227124745E+03  0.17339365840E+04  0.19512821273E+04  0.15294330000E+03 0.  0.
<mgrwt>
<rscale>  0 0.89496696E+03</rscale>
<asrwt>0</asrwt>
<pdfrwt beam="1">  1        1 0.33764610E+00 0.89496696E+03</pdfrwt>
<pdfrwt beam="2">  1       -1 0.10421456E+00 0.89496696E+03</pdfrwt>
<totfact> 0.19613234E+00</totfact>
</mgrwt>
</event>
