<event>
 4    2  0.4063641E+000  0.1761195E+03  0.7546771E-02  0.1171612E+00
         21   -1    0    0  503  502  0.00000000000E+00  0.00000000000E+00  0.18320788163E+03  0.18320788163E+03  0.00000000000E+00 0.  1.
         21   -1    0    0  501  503 -0.00000000000E+00 -0.00000000000E+00 -0.20500806766E+03  0.20500806766E+03  0.00000000000E+00 0.  1.
          6    1    1    2  501    0  0.26329764930E+02 -0.19895473610E+02 -0.91904406516E+02  0.19865675505E+03  0.17300000000E+03 0.  1.
         -6    1    1    2    0  502 -0.26329764930E+02  0.19895473610E+02  0.70104220485E+02  0.18955919424E+03  0.17300000000E+03 0.  1.
<mgrwt>
<rscale>  2 0.17611952E+03</rscale>
<asrwt>0</asrwt>
<pdfrwt beam="1">  1       21 0.28185828E-01 0.17611952E+03</pdfrwt>
<pdfrwt beam="2">  1       21 0.31539703E-01 0.17611952E+03</pdfrwt>
<totfact> 0.11692110E+05</totfact>
</mgrwt>
</event>
<event>
 4    2  0.4063641E+000  0.2121536E+03  0.7546771E-02  0.1139872E+00
         21   -1    0    0  501  502  0.00000000000E+00  0.00000000000E+00  0.16789083742E+04  0.16789083742E+04  0.00000000000E+00 0. -1.
         21   -1    0    0  502  503 -0.00000000000E+00 -0.00000000000E+00 -0.39822597555E+02  0.39822597555E+02  0.00000000000E+00 0.  1.
          6    1    1    2  501    0  0.86226100429E+02 -0.87436831466E+02  0.13108113726E+04  0.13278688167E+04  0.17300000000E+03 0. -1.
         -6    1    1    2    0  503 -0.86226100429E+02  0.87436831466E+02  0.32827440412E+03  0.39086215510E+03  0.17300000000E+03 0.  1.
<mgrwt>
<rscale>  2 0.21215358E+03</rscale>
<asrwt>0</asrwt>
<pdfrwt beam="1">  1       21 0.25829354E+00 0.21215358E+03</pdfrwt>
<pdfrwt beam="2">  1       21 0.61265548E-02 0.21215358E+03</pdfrwt>
<totfact> 0.11108093E+04</totfact>
</mgrwt>
</event>
<event>
 4    2  0.4063641E+000  0.3504979E+03  0.7546771E-02  0.1062411E+00
         21   -1    0    0  503  502  0.00000000000E+00  0.00000000000E+00  0.68308956299E+03  0.68308956299E+03  0.00000000000E+00 0.  1.
         21   -1    0    0  501  503 -0.00000000000E+00 -0.00000000000E+00 -0.18567443138E+03  0.18567443138E+03  0.00000000000E+00 0. -1.
          6    1    1    2  501    0  0.23433739282E+01  0.30481848272E+03  0.17172585217E+03  0.39030573543E+03  0.17300000000E+03 0. -1.
         -6    1    1    2    0  502 -0.23433739282E+01 -0.30481848272E+03  0.32568927944E+03  0.47845825894E+03  0.17300000000E+03 0.  1.
<mgrwt>
<rscale>  2 0.35049793E+03</rscale>
<asrwt>0</asrwt>
<pdfrwt beam="1">  1       21 0.10509070E+00 0.35049793E+03</pdfrwt>
<pdfrwt beam="2">  1       21 0.28565297E-01 0.35049793E+03</pdfrwt>
<totfact> 0.78344691E+03</totfact>
</mgrwt>
</event>
<event>
 4    2  0.4063641E+000  0.2508527E+03  0.7546771E-02  0.1112767E+00
         21   -1    0    0  501  502  0.00000000000E+00  0.00000000000E+00  0.96058866223E+02  0.96058866223E+02  0.00000000000E+00 0.  1.
         21   -1    0    0  502  503 -0.00000000000E+00 -0.00000000000E+00 -0.74548036667E+03  0.74548036667E+03  0.00000000000E+00 0.  1.
          6    1    1    2  501    0 -0.36774474392E+02 -0.17789236047E+03 -0.47122877734E+03  0.53383856593E+03  0.17300000000E+03 0.  1.
         -6    1    1    2    0  503  0.36774474392E+02  0.17789236047E+03 -0.17819272311E+03  0.30770066696E+03  0.17300000000E+03 0.  1.
<mgrwt>
<rscale>  2 0.25085265E+03</rscale>
<asrwt>0</asrwt>
<pdfrwt beam="1">  1       21 0.14778287E-01 0.25085265E+03</pdfrwt>
<pdfrwt beam="2">  1       21 0.11468929E+00 0.25085265E+03</pdfrwt>
<totfact> 0.23024819E+04</totfact>
</mgrwt>
</event>
<event>
 4    2  0.4063641E+000  0.2152203E+03  0.7546771E-02  0.1137498E+00
         21   -1    0    0  503  502  0.00000000000E+00  0.00000000000E+00  0.78698204008E+03  0.78698204008E+03  0.00000000000E+00 0. -1.
         21   -1    0    0  501  503 -0.00000000000E+00 -0.00000000000E+00 -0.96754066499E+02  0.96754066499E+02  0.00000000000E+00 0. -1.
          6    1    1    2  501    0  0.12307061157E+03 -0.35275827016E+02  0.62165413048E+03  0.65785531642E+03  0.17300000000E+03 0. -1.
         -6    1    1    2    0  502 -0.12307061157E+03  0.35275827016E+02  0.68573843100E+02  0.22588079015E+03  0.17300000000E+03 0. -1.
<mgrwt>
<rscale>  2 0.21522026E+03</rscale>
<asrwt>0</asrwt>
<pdfrwt beam="1">  1       21 0.12107416E+00 0.21522026E+03</pdfrwt>
<pdfrwt beam="2">  1       21 0.14885241E-01 0.21522026E+03</pdfrwt>
<totfact> 0.20260939E+04</totfact>
</mgrwt>
</event>
<event>
 4    2  0.4063641E+000  0.1786191E+03  0.7546771E-02  0.1169146E+00
         21   -1    0    0  503  502  0.00000000000E+00  0.00000000000E+00  0.48502620322E+03  0.48502620322E+03  0.00000000000E+00 0.  1.
         21   -1    0    0  501  503 -0.00000000000E+00 -0.00000000000E+00 -0.88615477457E+02  0.88615477457E+02  0.00000000000E+00 0.  1.
          6    1    1    2  501    0 -0.18754513003E+02  0.40299456921E+02  0.34380683887E+03  0.38743763426E+03  0.17300000000E+03 0.  1.
         -6    1    1    2    0  502  0.18754513003E+02 -0.40299456921E+02  0.52603886892E+02  0.18620404642E+03  0.17300000000E+03 0.  1.
<mgrwt>
<rscale>  2 0.17861909E+03</rscale>
<asrwt>0</asrwt>
<pdfrwt beam="1">  1       21 0.74619414E-01 0.17861909E+03</pdfrwt>
<pdfrwt beam="2">  1       21 0.13633151E-01 0.17861909E+03</pdfrwt>
<totfact> 0.75472426E+04</totfact>
</mgrwt>
</event>
<event>
 4    2  0.4063641E+000  0.1879413E+03  0.7546771E-02  0.1160331E+00
         21   -1    0    0  503  502  0.00000000000E+00  0.00000000000E+00  0.31028998919E+02  0.31028998919E+02  0.00000000000E+00 0.  1.
         21   -1    0    0  501  503 -0.00000000000E+00 -0.00000000000E+00 -0.13136558106E+04  0.13136558106E+04  0.00000000000E+00 0. -1.
          6    1    1    2  501    0  0.24125975247E+02 -0.69360304224E+02 -0.88692322474E+03  0.90661718552E+03  0.17300000000E+03 0. -1.
         -6    1    1    2    0  502 -0.24125975247E+02  0.69360304224E+02 -0.39570358693E+03  0.43806762400E+03  0.17300000000E+03 0.  1.
<mgrwt>
<rscale>  2 0.18794125E+03</rscale>
<asrwt>0</asrwt>
<pdfrwt beam="1">  1       21 0.47736923E-02 0.18794125E+03</pdfrwt>
<pdfrwt beam="2">  1       21 0.20210089E+00 0.18794125E+03</pdfrwt>
<totfact> 0.37996098E+04</totfact>
</mgrwt>
</event>
<event>
 4    2  0.4063641E+000  0.3465770E+03  0.7546771E-02  0.1064029E+00
         21   -1    0    0  503  502  0.00000000000E+00  0.00000000000E+00  0.82446862145E+03  0.82446862145E+03  0.00000000000E+00 0. -1.
         21   -1    0    0  501  503 -0.00000000000E+00 -0.00000000000E+00 -0.16503259610E+03  0.16503259610E+03  0.00000000000E+00 0.  1.
          6    1    1    2  501    0 -0.26098129214E+03  0.14857776719E+03  0.16033267483E+03  0.38186667093E+03  0.17300000000E+03 0.  1.
         -6    1    1    2    0  502  0.26098129214E+03 -0.14857776719E+03  0.49910335052E+03  0.60763454662E+03  0.17300000000E+03 0. -1.
<mgrwt>
<rscale>  2 0.34657696E+03</rscale>
<asrwt>0</asrwt>
<pdfrwt beam="1">  1       21 0.12684132E+00 0.34657696E+03</pdfrwt>
<pdfrwt beam="2">  1       21 0.25389631E-01 0.34657696E+03</pdfrwt>
<totfact> 0.61761464E+03</totfact>
</mgrwt>
</event>
<event>
 4    2  0.4063641E+000  0.1793403E+03  0.7546771E-02  0.1168443E+00
         21   -1    0    0  503  502  0.00000000000E+00  0.00000000000E+00  0.10965625529E+03  0.10965625529E+03  0.00000000000E+00 0.  1.
         21   -1    0    0  501  503 -0.00000000000E+00 -0.00000000000E+00 -0.31832829082E+03  0.31832829082E+03  0.00000000000E+00 0.  1.
          6    1    1    2  501    0  0.24488596870E+02  0.40425887525E+02 -0.16433109358E+03  0.24324401755E+03  0.17300000000E+03 0.  1.
         -6    1    1    2    0  502 -0.24488596870E+02 -0.40425887525E+02 -0.44340941955E+02  0.18474052856E+03  0.17300000000E+03 0.  1.
<mgrwt>
<rscale>  2 0.17934030E+03</rscale>
<asrwt>0</asrwt>
<pdfrwt beam="1">  1       21 0.16870193E-01 0.17934030E+03</pdfrwt>
<pdfrwt beam="2">  1       21 0.48973582E-01 0.17934030E+03</pdfrwt>
<totfact> 0.12646627E+05</totfact>
</mgrwt>
</event>
<event>
 4    2  0.4063641E+000  0.2226874E+03  0.7546771E-02  0.1131895E+00
         21   -1    0    0  501  502  0.00000000000E+00  0.00000000000E+00  0.15983284315E+03  0.15983284315E+03  0.00000000000E+00 0.  1.
         21   -1    0    0  502  503 -0.00000000000E+00 -0.00000000000E+00 -0.44106985614E+03  0.44106985614E+03  0.00000000000E+00 0.  1.
          6    1    1    2  501    0 -0.13671265714E+03 -0.31149816076E+02  0.23003417901E+02  0.22387232723E+03  0.17300000000E+03 0.  1.
         -6    1    1    2    0  503  0.13671265714E+03  0.31149816076E+02 -0.30424043090E+03  0.37703037206E+03  0.17300000000E+03 0.  1.
<mgrwt>
<rscale>  2 0.22268736E+03</rscale>
<asrwt>0</asrwt>
<pdfrwt beam="1">  1       21 0.24589669E-01 0.22268736E+03</pdfrwt>
<pdfrwt beam="2">  1       21 0.67856900E-01 0.22268736E+03</pdfrwt>
<totfact> 0.30522173E+04</totfact>
</mgrwt>
</event>
<event>
 4    2  0.4063641E+000  0.2137649E+03  0.7546771E-02  0.1138619E+00
         21   -1    0    0  503  502  0.00000000000E+00  0.00000000000E+00  0.10063328232E+04  0.10063328232E+04  0.00000000000E+00 0. -1.
         21   -1    0    0  501  503 -0.00000000000E+00 -0.00000000000E+00 -0.53875886145E+02  0.53875886145E+02  0.00000000000E+00 0.  1.
          6    1    1    2  501    0  0.10864687595E+03 -0.62946778642E+02  0.26606620967E+03  0.34130143352E+03  0.17300000000E+03 0.  1.
         -6    1    1    2    0  502 -0.10864687595E+03  0.62946778642E+02  0.68639072739E+03  0.71890727583E+03  0.17300000000E+03 0. -1.
<mgrwt>
<rscale>  2 0.21376492E+03</rscale>
<asrwt>0</asrwt>
<pdfrwt beam="1">  1       21 0.15482042E+00 0.21376492E+03</pdfrwt>
<pdfrwt beam="2">  1       21 0.82885987E-02 0.21376492E+03</pdfrwt>
<totfact> 0.30612161E+04</totfact>
</mgrwt>
</event>
<event>
 4    2  0.4063641E+000  0.2387887E+03  0.7546771E-02  0.1120602E+00
         21   -1    0    0  503  502  0.00000000000E+00  0.00000000000E+00  0.25378468034E+03  0.25378468034E+03  0.00000000000E+00 0. -1.
         21   -1    0    0  501  503 -0.00000000000E+00 -0.00000000000E+00 -0.22474337964E+03  0.22474337964E+03  0.00000000000E+00 0. -1.
          6    1    1    2  501    0 -0.36953740567E+02  0.16039160178E+03  0.10465720467E+02  0.23901794110E+03  0.17300000000E+03 0. -1.
         -6    1    1    2    0  502  0.36953740567E+02 -0.16039160178E+03  0.18575580225E+02  0.23951011888E+03  0.17300000000E+03 0. -1.
<mgrwt>
<rscale>  2 0.23878870E+03</rscale>
<asrwt>0</asrwt>
<pdfrwt beam="1">  1       21 0.39043797E-01 0.23878870E+03</pdfrwt>
<pdfrwt beam="2">  1       21 0.34575904E-01 0.23878870E+03</pdfrwt>
<totfact> 0.49931843E+04</totfact>
</mgrwt>
</event>
<event>
 4    2  0.4063641E+000  0.1936767E+03  0.7546771E-02  0.1155186E+00
         21   -1    0    0  503  502  0.00000000000E+00  0.00000000000E+00  0.13194188511E+03  0.13194188511E+03  0.00000000000E+00 0. -1.
         21   -1    0    0  501  503 -0.00000000000E+00 -0.00000000000E+00 -0.30694681365E+03  0.30694681365E+03  0.00000000000E+00 0. -1.
          6    1    1    2  501    0 -0.17979323237E+02 -0.85196210106E+02 -0.14711360975E+03  0.24321403013E+03  0.17300000000E+03 0. -1.
         -6    1    1    2    0  502  0.17979323237E+02  0.85196210106E+02 -0.27891318792E+02  0.19567466863E+03  0.17300000000E+03 0. -1.
<mgrwt>
<rscale>  2 0.19367666E+03</rscale>
<asrwt>0</asrwt>
<pdfrwt beam="1">  1       21 0.20298752E-01 0.19367666E+03</pdfrwt>
<pdfrwt beam="2">  1       21 0.47222586E-01 0.19367666E+03</pdfrwt>
<totfact> 0.96297781E+04</totfact>
</mgrwt>
</event>
<event>
 4    2  0.4063641E+000  0.1886997E+03  0.7546771E-02  0.1159639E+00
         21   -1    0    0  501  502  0.00000000000E+00  0.00000000000E+00  0.15527692760E+04  0.15527692760E+04  0.00000000000E+00 0.  1.
         21   -1    0    0  502  503 -0.00000000000E+00 -0.00000000000E+00 -0.42984640356E+02  0.42984640356E+02  0.00000000000E+00 0. -1.
          6    1    1    2  501    0 -0.12886939873E+02 -0.74246215108E+02  0.12998575082E+04  0.13134828188E+04  0.17300000000E+03 0.  1.
         -6    1    1    2    0  503  0.12886939873E+02  0.74246215108E+02  0.20992712746E+03  0.28227109757E+03  0.17300000000E+03 0. -1.
<mgrwt>
<rscale>  2 0.18869969E+03</rscale>
<asrwt>0</asrwt>
<pdfrwt beam="1">  1       21 0.23888754E+00 0.18869969E+03</pdfrwt>
<pdfrwt beam="2">  1       21 0.66130228E-02 0.18869969E+03</pdfrwt>
<totfact> 0.12953499E+04</totfact>
</mgrwt>
</event>
<event>
 4    2  0.4063641E+000  0.2115094E+03  0.7546771E-02  0.1140376E+00
         21   -1    0    0  503  502  0.00000000000E+00  0.00000000000E+00  0.12204806876E+03  0.12204806876E+03  0.00000000000E+00 0.  1.
         21   -1    0    0  501  503 -0.00000000000E+00 -0.00000000000E+00 -0.42519918952E+03  0.42519918952E+03  0.00000000000E+00 0.  1.
          6    1    1    2  501    0  0.11530155431E+03 -0.38894274816E+02 -0.25320130926E+03  0.32991986307E+03  0.17300000000E+03 0.  1.
         -6    1    1    2    0  502 -0.11530155431E+03  0.38894274816E+02 -0.49949811495E+02  0.21732739521E+03  0.17300000000E+03 0.  1.
<mgrwt>
<rscale>  2 0.21150937E+03</rscale>
<asrwt>0</asrwt>
<pdfrwt beam="1">  1       21 0.18776626E-01 0.21150937E+03</pdfrwt>
<pdfrwt beam="2">  1       21 0.65415258E-01 0.21150937E+03</pdfrwt>
<totfact> 0.55308264E+04</totfact>
</mgrwt>
</event>
<event>
 4    2  0.4063641E+000  0.1886421E+03  0.7546771E-02  0.1159692E+00
         21   -1    0    0  501  502  0.00000000000E+00  0.00000000000E+00  0.69468401537E+02  0.69468401537E+02  0.00000000000E+00 0.  1.
         21   -1    0    0  502  503 -0.00000000000E+00 -0.00000000000E+00 -0.16180015736E+04  0.16180015736E+04  0.00000000000E+00 0.  1.
          6    1    1    2  501    0 -0.68599723392E+02  0.30836798310E+02 -0.76767635722E+02  0.20366418456E+03  0.17300000000E+03 0.  1.
         -6    1    1    2    0  503  0.68599723392E+02 -0.30836798310E+02 -0.14717655363E+04  0.14838057905E+04  0.17300000000E+03 0.  1.
<mgrwt>
<rscale>  2 0.18864207E+03</rscale>
<asrwt>0</asrwt>
<pdfrwt beam="1">  1       21 0.10687446E-01 0.18864207E+03</pdfrwt>
<pdfrwt beam="2">  1       21 0.24892333E+00 0.18864207E+03</pdfrwt>
<totfact> 0.48874656E+03</totfact>
</mgrwt>
</event>
<event>
 4    2  0.4063641E+000  0.1760427E+03  0.7546771E-02  0.1171689E+00
         21   -1    0    0  501  502  0.00000000000E+00  0.00000000000E+00  0.41957472619E+03  0.41957472619E+03  0.00000000000E+00 0. -1.
         21   -1    0    0  502  503 -0.00000000000E+00 -0.00000000000E+00 -0.17436899811E+03  0.17436899811E+03  0.00000000000E+00 0. -1.
          6    1    1    2  501    0 -0.31065950414E+02  0.98465745838E+01  0.34806657712E+03  0.39005306103E+03  0.17300000000E+03 0. -1.
         -6    1    1    2    0  503  0.31065950414E+02 -0.98465745838E+01 -0.10286084904E+03  0.20389066328E+03  0.17300000000E+03 0. -1.
<mgrwt>
<rscale>  2 0.17604275E+03</rscale>
<asrwt>0</asrwt>
<pdfrwt beam="1">  1       21 0.64549957E-01 0.17604275E+03</pdfrwt>
<pdfrwt beam="2">  1       21 0.26826000E-01 0.17604275E+03</pdfrwt>
<totfact> 0.29549307E+04</totfact>
</mgrwt>
</event>
<event>
 4    2  0.4063641E+000  0.1826186E+03  0.7546771E-02  0.1165293E+00
         21   -1    0    0  503  502  0.00000000000E+00  0.00000000000E+00  0.17472513548E+04  0.17472513548E+04  0.00000000000E+00 0. -1.
         21   -1    0    0  501  503 -0.00000000000E+00 -0.00000000000E+00 -0.60346010970E+02  0.60346010970E+02  0.00000000000E+00 0. -1.
          6    1    1    2  501    0 -0.53202318332E+02 -0.24291530476E+02  0.96131142145E+02  0.20637529314E+03  0.17300000000E+03 0. -1.
         -6    1    1    2    0  502  0.53202318332E+02  0.24291530476E+02  0.15907742017E+04  0.16012220727E+04  0.17300000000E+03 0. -1.
<mgrwt>
<rscale>  2 0.18261863E+03</rscale>
<asrwt>0</asrwt>
<pdfrwt beam="1">  1       21 0.26880786E+00 0.18261863E+03</pdfrwt>
<pdfrwt beam="2">  1       21 0.92840030E-02 0.18261863E+03</pdfrwt>
<totfact> 0.48310723E+03</totfact>
</mgrwt>
</event>
<event>
 4    2  0.4063641E+000  0.1827300E+03  0.7546771E-02  0.1165187E+00
         21   -1    0    0  503  502  0.00000000000E+00  0.00000000000E+00  0.24640314775E+03  0.24640314775E+03  0.00000000000E+00 0. -1.
         21   -1    0    0  501  503 -0.00000000000E+00 -0.00000000000E+00 -0.29933025398E+03  0.29933025398E+03  0.00000000000E+00 0. -1.
          6    1    1    2  501    0  0.70204302372E-01  0.58832270658E+02 -0.22832724930E+03  0.29244413787E+03  0.17300000000E+03 0. -1.
         -6    1    1    2    0  502 -0.70204302372E-01 -0.58832270658E+02  0.17540014307E+03  0.25328926387E+03  0.17300000000E+03 0. -1.
<mgrwt>
<rscale>  2 0.18272997E+03</rscale>
<asrwt>0</asrwt>
<pdfrwt beam="1">  1       21 0.37908176E-01 0.18272997E+03</pdfrwt>
<pdfrwt beam="2">  1       21 0.46050808E-01 0.18272997E+03</pdfrwt>
<totfact> 0.30488278E+04</totfact>
</mgrwt>
</event>
<event>
 4    2  0.4063641E+000  0.1869122E+03  0.7546771E-02  0.1161276E+00
         21   -1    0    0  503  502  0.00000000000E+00  0.00000000000E+00  0.79241471521E+03  0.79241471521E+03  0.00000000000E+00 0. -1.
         21   -1    0    0  501  503 -0.00000000000E+00 -0.00000000000E+00 -0.76033079518E+02  0.76033079518E+02  0.00000000000E+00 0. -1.
          6    1    1    2  501    0  0.43291067495E+02 -0.55973656770E+02  0.76733324934E+02  0.20204991941E+03  0.17300000000E+03 0. -1.
         -6    1    1    2    0  502 -0.43291067495E+02  0.55973656770E+02  0.63964831075E+03  0.66639787532E+03  0.17300000000E+03 0. -1.
<mgrwt>
<rscale>  2 0.18691219E+03</rscale>
<asrwt>0</asrwt>
<pdfrwt beam="1">  1       21 0.12190995E+00 0.18691219E+03</pdfrwt>
<pdfrwt beam="2">  1       21 0.11697397E-01 0.18691219E+03</pdfrwt>
<totfact> 0.31292820E+04</totfact>
</mgrwt>
</event>
<event>
 4    2  0.4063641E+000  0.1828189E+03  0.7546771E-02  0.1165102E+00
         21   -1    0    0  503  502  0.00000000000E+00  0.00000000000E+00  0.41946767921E+03  0.41946767921E+03  0.00000000000E+00 0. -1.
         21   -1    0    0  501  503 -0.00000000000E+00 -0.00000000000E+00 -0.12274944881E+03  0.12274944881E+03  0.00000000000E+00 0. -1.
          6    1    1    2  501    0 -0.55131367029E+02  0.21313591127E+02 -0.12232734927E+02  0.18322766331E+03  0.17300000000E+03 0. -1.
         -6    1    1    2    0  502  0.55131367029E+02 -0.21313591127E+02  0.30895096533E+03  0.35898946472E+03  0.17300000000E+03 0. -1.
<mgrwt>
<rscale>  2 0.18281886E+03</rscale>
<asrwt>0</asrwt>
<pdfrwt beam="1">  1       21 0.64533488E-01 0.18281886E+03</pdfrwt>
<pdfrwt beam="2">  1       21 0.18884531E-01 0.18281886E+03</pdfrwt>
<totfact> 0.57126045E+04</totfact>
</mgrwt>
</event>
<event>
 4    2  0.4063641E+000  0.1743489E+03  0.7546771E-02  0.1173387E+00
         21   -1    0    0  501  502  0.00000000000E+00  0.00000000000E+00  0.54600338866E+03  0.54600338866E+03  0.00000000000E+00 0.  1.
         21   -1    0    0  502  503 -0.00000000000E+00 -0.00000000000E+00 -0.10380614523E+03  0.10380614523E+03  0.00000000000E+00 0.  1.
          6    1    1    2  501    0 -0.14918929269E+02  0.15683231322E+02  0.44234061777E+03  0.47546057705E+03  0.17300000000E+03 0.  1.
         -6    1    1    2    0  503  0.14918929269E+02 -0.15683231322E+02 -0.14337434975E+00  0.17434895684E+03  0.17300000000E+03 0.  1.
<mgrwt>
<rscale>  2 0.17434890E+03</rscale>
<asrwt>0</asrwt>
<pdfrwt beam="1">  1       21 0.84000520E-01 0.17434890E+03</pdfrwt>
<pdfrwt beam="2">  1       21 0.15970177E-01 0.17434890E+03</pdfrwt>
<totfact> 0.43477197E+04</totfact>
</mgrwt>
</event>
<event>
 4    2  0.4063641E+000  0.2089374E+03  0.7546771E-02  0.1142410E+00
         21   -1    0    0  503  502  0.00000000000E+00  0.00000000000E+00  0.63342207507E+03  0.63342207507E+03  0.00000000000E+00 0. -1.
         21   -1    0    0  501  503 -0.00000000000E+00 -0.00000000000E+00 -0.30804557810E+03  0.30804557810E+03  0.00000000000E+00 0.  1.
          6    1    1    2  501    0  0.95907693669E+02  0.67286944838E+02 -0.25205740064E+03  0.32739540600E+03  0.17300000000E+03 0.  1.
         -6    1    1    2    0  502 -0.95907693669E+02 -0.67286944838E+02  0.57743389761E+03  0.61407224718E+03  0.17300000000E+03 0. -1.
<mgrwt>
<rscale>  2 0.20893736E+03</rscale>
<asrwt>0</asrwt>
<pdfrwt beam="1">  1       21 0.97449550E-01 0.20893736E+03</pdfrwt>
<pdfrwt beam="2">  1       21 0.47391628E-01 0.20893736E+03</pdfrwt>
<totfact> 0.36671818E+03</totfact>
</mgrwt>
</event>
<event>
 4    2  0.4063641E+000  0.2795194E+03  0.7546771E-02  0.1095952E+00
         21   -1    0    0  503  502  0.00000000000E+00  0.00000000000E+00  0.40595799130E+04  0.40595799130E+04  0.00000000000E+00 0.  1.
         21   -1    0    0  501  503 -0.00000000000E+00 -0.00000000000E+00 -0.19262080119E+02  0.19262080119E+02  0.00000000000E+00 0.  1.
          6    1    1    2  501    0 -0.11767911264E+03 -0.18534752154E+03  0.19614157185E+04  0.19812326209E+04  0.17300000000E+03 0.  1.
         -6    1    1    2    0  502  0.11767911264E+03  0.18534752154E+03  0.20789021144E+04  0.20976093722E+04  0.17300000000E+03 0.  1.
<mgrwt>
<rscale>  2 0.27951937E+03</rscale>
<asrwt>0</asrwt>
<pdfrwt beam="1">  1       21 0.62455008E+00 0.27951937E+03</pdfrwt>
<pdfrwt beam="2">  1       21 0.29634002E-02 0.27951937E+03</pdfrwt>
<totfact> 0.12480088E+02</totfact>
</mgrwt>
</event>
<event>
 4    2  0.4063641E+000  0.2025384E+03  0.7546771E-02  0.1147615E+00
         21   -1    0    0  503  502  0.00000000000E+00  0.00000000000E+00  0.67189860620E+02  0.67189860620E+02  0.00000000000E+00 0.  1.
         21   -1    0    0  501  503 -0.00000000000E+00 -0.00000000000E+00 -0.88669639750E+03  0.88669639750E+03  0.00000000000E+00 0. -1.
          6    1    1    2  501    0  0.60923350237E+02  0.85913673349E+02 -0.67592381613E+03  0.70561662331E+03  0.17300000000E+03 0. -1.
         -6    1    1    2    0  502 -0.60923350237E+02 -0.85913673349E+02 -0.14358272075E+03  0.24826963481E+03  0.17300000000E+03 0.  1.
<mgrwt>
<rscale>  2 0.20253843E+03</rscale>
<asrwt>0</asrwt>
<pdfrwt beam="1">  1       21 0.10336902E-01 0.20253843E+03</pdfrwt>
<pdfrwt beam="2">  1       21 0.13641482E+00 0.20253843E+03</pdfrwt>
<totfact> 0.29097661E+04</totfact>
</mgrwt>
</event>
<event>
 4    2  0.4063641E+000  0.2150863E+03  0.7546771E-02  0.1137600E+00
         21   -1    0    0  503  502  0.00000000000E+00  0.00000000000E+00  0.53332892835E+02  0.53332892835E+02  0.00000000000E+00 0.  1.
         21   -1    0    0  501  503 -0.00000000000E+00 -0.00000000000E+00 -0.10258805948E+04  0.10258805948E+04  0.00000000000E+00 0.  1.
          6    1    1    2  501    0  0.54019920385E+02 -0.11582296983E+03 -0.69834773035E+03  0.73071996320E+03  0.17300000000E+03 0.  1.
         -6    1    1    2    0  502 -0.54019920385E+02  0.11582296983E+03 -0.27419997163E+03  0.34849352445E+03  0.17300000000E+03 0.  1.
<mgrwt>
<rscale>  2 0.21508629E+03</rscale>
<asrwt>0</asrwt>
<pdfrwt beam="1">  1       21 0.82050601E-02 0.21508629E+03</pdfrwt>
<pdfrwt beam="2">  1       21 0.15782779E+00 0.21508629E+03</pdfrwt>
<totfact> 0.29565715E+04</totfact>
</mgrwt>
</event>
<event>
 4    2  0.4063641E+000  0.1882192E+03  0.7546771E-02  0.1160077E+00
         21   -1    0    0  501  502  0.00000000000E+00  0.00000000000E+00  0.91279036300E+03  0.91279036300E+03  0.00000000000E+00 0.  1.
         21   -1    0    0  502  503 -0.00000000000E+00 -0.00000000000E+00 -0.55400919283E+02  0.55400919283E+02  0.00000000000E+00 0. -1.
          6    1    1    2  501    0 -0.68296903481E+02 -0.28861712326E+02  0.69360118095E+03  0.71868565011E+03  0.17300000000E+03 0.  1.
         -6    1    1    2    0  503  0.68296903481E+02  0.28861712326E+02  0.16378826277E+03  0.24950563217E+03  0.17300000000E+03 0. -1.
<mgrwt>
<rscale>  2 0.18821920E+03</rscale>
<asrwt>0</asrwt>
<pdfrwt beam="1">  1       21 0.14042928E+00 0.18821920E+03</pdfrwt>
<pdfrwt beam="2">  1       21 0.85232190E-02 0.18821920E+03</pdfrwt>
<totfact> 0.38242856E+04</totfact>
</mgrwt>
</event>
<event>
 4    2  0.4063641E+000  0.1751559E+03  0.7546771E-02  0.1172575E+00
         21   -1    0    0  503  502  0.00000000000E+00  0.00000000000E+00  0.89423095158E+03  0.89423095158E+03  0.00000000000E+00 0. -1.
         21   -1    0    0  501  503 -0.00000000000E+00 -0.00000000000E+00 -0.34472354515E+02  0.34472354515E+02  0.00000000000E+00 0. -1.
          6    1    1    2  501    0 -0.26812949049E+02 -0.56266575376E+01  0.46190745606E+03  0.49400211687E+03  0.17300000000E+03 0. -1.
         -6    1    1    2    0  502  0.26812949049E+02  0.56266575376E+01  0.39785114101E+03  0.43470118923E+03  0.17300000000E+03 0. -1.
<mgrwt>
<rscale>  2 0.17515591E+03</rscale>
<asrwt>0</asrwt>
<pdfrwt beam="1">  1       21 0.13757397E+00 0.17515591E+03</pdfrwt>
<pdfrwt beam="2">  1       21 0.53034398E-02 0.17515591E+03</pdfrwt>
<totfact> 0.91859777E+04</totfact>
</mgrwt>
</event>
<event>
 4    2  0.4063641E+000  0.1816326E+03  0.7546771E-02  0.1166232E+00
         21   -1    0    0  501  502  0.00000000000E+00  0.00000000000E+00  0.26061052964E+03  0.26061052964E+03  0.00000000000E+00 0.  1.
         21   -1    0    0  502  503 -0.00000000000E+00 -0.00000000000E+00 -0.17746090800E+03  0.17746090800E+03  0.00000000000E+00 0.  1.
          6    1    1    2  501    0  0.52448216208E+02  0.17623705934E+02  0.15884911560E+03  0.24129536241E+03  0.17300000000E+03 0.  1.
         -6    1    1    2    0  503 -0.52448216208E+02 -0.17623705934E+02 -0.75699493970E+02  0.19677607523E+03  0.17300000000E+03 0.  1.
<mgrwt>
<rscale>  2 0.18163262E+03</rscale>
<asrwt>0</asrwt>
<pdfrwt beam="1">  1       21 0.40093928E-01 0.18163262E+03</pdfrwt>
<pdfrwt beam="2">  1       21 0.27301678E-01 0.18163262E+03</pdfrwt>
<totfact> 0.77038813E+04</totfact>
</mgrwt>
</event>
<event>
 4    2  0.4063641E+000  0.3018879E+03  0.7546771E-02  0.1084301E+00
         21   -1    0    0  503  502  0.00000000000E+00  0.00000000000E+00  0.41940734702E+03  0.41940734702E+03  0.00000000000E+00 0.  1.
         21   -1    0    0  501  503 -0.00000000000E+00 -0.00000000000E+00 -0.21744059006E+03  0.21744059006E+03  0.00000000000E+00 0.  1.
          6    1    1    2  501    0  0.24232823218E+03 -0.49843035127E+02  0.92823925613E+02  0.31583632063E+03  0.17300000000E+03 0.  1.
         -6    1    1    2    0  502 -0.24232823218E+03  0.49843035127E+02  0.10914283135E+03  0.32101161645E+03  0.17300000000E+03 0.  1.
<mgrwt>
<rscale>  2 0.30188789E+03</rscale>
<asrwt>0</asrwt>
<pdfrwt beam="1">  1       21 0.64524207E-01 0.30188789E+03</pdfrwt>
<pdfrwt beam="2">  1       21 0.33452398E-01 0.30188789E+03</pdfrwt>
<totfact> 0.18040432E+04</totfact>
</mgrwt>
</event>
<event>
 4    2  0.4063641E+000  0.1855569E+03  0.7546771E-02  0.1162531E+00
         21   -1    0    0  503  502  0.00000000000E+00  0.00000000000E+00  0.36958200214E+03  0.36958200214E+03  0.00000000000E+00 0.  1.
         21   -1    0    0  501  503 -0.00000000000E+00 -0.00000000000E+00 -0.11872187608E+03  0.11872187608E+03  0.00000000000E+00 0. -1.
          6    1    1    2  501    0  0.64986115436E+02 -0.16708790194E+02  0.12146883393E+02  0.18595409553E+03  0.17300000000E+03 0. -1.
         -6    1    1    2    0  502 -0.64986115436E+02  0.16708790194E+02  0.23871324266E+03  0.30234978269E+03  0.17300000000E+03 0.  1.
<mgrwt>
<rscale>  2 0.18555694E+03</rscale>
<asrwt>0</asrwt>
<pdfrwt beam="1">  1       21 0.56858769E-01 0.18555694E+03</pdfrwt>
<pdfrwt beam="2">  1       21 0.18264904E-01 0.18555694E+03</pdfrwt>
<totfact> 0.79666361E+04</totfact>
</mgrwt>
</event>
<event>
 4    2  0.4063641E+000  0.1958686E+03  0.7546771E-02  0.1153272E+00
         21   -1    0    0  503  502  0.00000000000E+00  0.00000000000E+00  0.10977520352E+03  0.10977520352E+03  0.00000000000E+00 0.  1.
         21   -1    0    0  501  503 -0.00000000000E+00 -0.00000000000E+00 -0.58158728001E+03  0.58158728001E+03  0.00000000000E+00 0. -1.
          6    1    1    2  501    0 -0.61179422047E+02 -0.68502382376E+02 -0.45428486551E+03  0.49471126640E+03  0.17300000000E+03 0. -1.
         -6    1    1    2    0  502  0.61179422047E+02  0.68502382376E+02 -0.17527210975E+02  0.19665121713E+03  0.17300000000E+03 0.  1.
<mgrwt>
<rscale>  2 0.19586857E+03</rscale>
<asrwt>0</asrwt>
<pdfrwt beam="1">  1       21 0.16888493E-01 0.19586857E+03</pdfrwt>
<pdfrwt beam="2">  1       21 0.89474965E-01 0.19586857E+03</pdfrwt>
<totfact> 0.33567342E+04</totfact>
</mgrwt>
</event>
<event>
 4    2  0.4063641E+000  0.1900382E+03  0.7546771E-02  0.1158427E+00
         21   -1    0    0  501  502  0.00000000000E+00  0.00000000000E+00  0.13662592079E+03  0.13662592079E+03  0.00000000000E+00 0. -1.
         21   -1    0    0  502  503 -0.00000000000E+00 -0.00000000000E+00 -0.10278783673E+04  0.10278783673E+04  0.00000000000E+00 0. -1.
          6    1    1    2  501    0 -0.42265505147E+02  0.66326122461E+02  0.56205484243E+02  0.19817563903E+03  0.17300000000E+03 0. -1.
         -6    1    1    2    0  503  0.42265505147E+02 -0.66326122461E+02 -0.94745793079E+03  0.96632864910E+03  0.17300000000E+03 0. -1.
<mgrwt>
<rscale>  2 0.19003823E+03</rscale>
<asrwt>0</asrwt>
<pdfrwt beam="1">  1       21 0.21019372E-01 0.19003823E+03</pdfrwt>
<pdfrwt beam="2">  1       21 0.15813514E+00 0.19003823E+03</pdfrwt>
<totfact> 0.54754992E+03</totfact>
</mgrwt>
</event>
<event>
 4    2  0.4063641E+000  0.1795098E+03  0.7546771E-02  0.1168278E+00
         21   -1    0    0  501  502  0.00000000000E+00  0.00000000000E+00  0.36672025186E+03  0.36672025186E+03  0.00000000000E+00 0. -1.
         21   -1    0    0  502  503 -0.00000000000E+00 -0.00000000000E+00 -0.14447287843E+03  0.14447287843E+03  0.00000000000E+00 0. -1.
          6    1    1    2  501    0 -0.38300824720E+02 -0.28771968869E+02  0.27110909275E+03  0.32515214829E+03  0.17300000000E+03 0. -1.
         -6    1    1    2    0  503  0.38300824720E+02  0.28771968869E+02 -0.48861719321E+02  0.18604098200E+03  0.17300000000E+03 0. -1.
<mgrwt>
<rscale>  2 0.17950983E+03</rscale>
<asrwt>0</asrwt>
<pdfrwt beam="1">  1       21 0.56418500E-01 0.17950983E+03</pdfrwt>
<pdfrwt beam="2">  1       21 0.22226597E-01 0.17950983E+03</pdfrwt>
<totfact> 0.56291754E+04</totfact>
</mgrwt>
</event>
<event>
 4    2  0.4063641E+000  0.1883285E+03  0.7546771E-02  0.1159978E+00
         21   -1    0    0  503  502  0.00000000000E+00  0.00000000000E+00  0.47025949307E+03  0.47025949307E+03  0.00000000000E+00 0. -1.
         21   -1    0    0  501  503 -0.00000000000E+00 -0.00000000000E+00 -0.87508702558E+02  0.87508702558E+02  0.00000000000E+00 0.  1.
          6    1    1    2  501    0  0.77515942269E+01  0.74017194253E+02  0.87726968741E+02  0.20775864194E+03  0.17300000000E+03 0. -1.
         -6    1    1    2    0  502 -0.77515942269E+01 -0.74017194253E+02  0.29502382178E+03  0.35000955369E+03  0.17300000000E+03 0. -1.
<mgrwt>
<rscale>  2 0.18832852E+03</rscale>
<asrwt>0</asrwt>
<pdfrwt beam="1">  1       21 0.72347613E-01 0.18832852E+03</pdfrwt>
<pdfrwt beam="2">  1       21 0.13462878E-01 0.18832852E+03</pdfrwt>
<totfact> 0.82353922E+04</totfact>
</mgrwt>
</event>
<event>
 4    2  0.4063641E+000  0.1839695E+03  0.7546771E-02  0.1164016E+00
         21   -1    0    0  503  502  0.00000000000E+00  0.00000000000E+00  0.15686015810E+03  0.15686015810E+03  0.00000000000E+00 0. -1.
         21   -1    0    0  501  503 -0.00000000000E+00 -0.00000000000E+00 -0.21989614084E+03  0.21989614084E+03  0.00000000000E+00 0. -1.
          6    1    1    2  501    0  0.51998323496E+02  0.34813017759E+02 -0.57341210818E+02  0.19269869307E+03  0.17300000000E+03 0. -1.
         -6    1    1    2    0  502 -0.51998323496E+02 -0.34813017759E+02 -0.56947719215E+01  0.18405760587E+03  0.17300000000E+03 0. -1.
<mgrwt>
<rscale>  2 0.18396949E+03</rscale>
<asrwt>0</asrwt>
<pdfrwt beam="1">  1       21 0.24132332E-01 0.18396949E+03</pdfrwt>
<pdfrwt beam="2">  1       21 0.33830175E-01 0.18396949E+03</pdfrwt>
<totfact> 0.13676993E+05</totfact>
</mgrwt>
</event>
<event>
 4    2  0.4063641E+000  0.1910319E+03  0.7546771E-02  0.1157534E+00
         21   -1    0    0  503  502  0.00000000000E+00  0.00000000000E+00  0.53874742797E+03  0.53874742797E+03  0.00000000000E+00 0.  1.
         21   -1    0    0  501  503 -0.00000000000E+00 -0.00000000000E+00 -0.41075055264E+03  0.41075055264E+03  0.00000000000E+00 0.  1.
          6    1    1    2  501    0  0.78593542212E+02  0.19678303991E+02 -0.36984252718E+03  0.41626515040E+03  0.17300000000E+03 0.  1.
         -6    1    1    2    0  502 -0.78593542212E+02 -0.19678303991E+02  0.49783940251E+03  0.53323283021E+03  0.17300000000E+03 0.  1.
<mgrwt>
<rscale>  2 0.19103188E+03</rscale>
<asrwt>0</asrwt>
<pdfrwt beam="1">  1       21 0.82884220E-01 0.19103188E+03</pdfrwt>
<pdfrwt beam="2">  1       21 0.63192392E-01 0.19103188E+03</pdfrwt>
<totfact> 0.29450910E+03</totfact>
</mgrwt>
</event>
<event>
 4    2  0.4063641E+000  0.2116419E+03  0.7546771E-02  0.1140272E+00
         21   -1    0    0  501  502  0.00000000000E+00  0.00000000000E+00  0.84197389488E+03  0.84197389488E+03  0.00000000000E+00 0.  1.
         21   -1    0    0  502  503 -0.00000000000E+00 -0.00000000000E+00 -0.92010921447E+02  0.92010921447E+02  0.00000000000E+00 0. -1.
          6    1    1    2  501    0 -0.48184173412E+02  0.11198913105E+03  0.67828117636E+03  0.71053334492E+03  0.17300000000E+03 0.  1.
         -6    1    1    2    0  503  0.48184173412E+02 -0.11198913105E+03  0.71681797074E+02  0.22345147141E+03  0.17300000000E+03 0. -1.
<mgrwt>
<rscale>  2 0.21164187E+03</rscale>
<asrwt>0</asrwt>
<pdfrwt beam="1">  1       21 0.12953444E+00 0.21164187E+03</pdfrwt>
<pdfrwt beam="2">  1       21 0.14155527E-01 0.21164187E+03</pdfrwt>
<totfact> 0.18778303E+04</totfact>
</mgrwt>
</event>
<event>
 4    2  0.4063641E+000  0.2053610E+03  0.7546771E-02  0.1145293E+00
         21   -1    0    0  503  502  0.00000000000E+00  0.00000000000E+00  0.46555160119E+03  0.46555160119E+03  0.00000000000E+00 0.  1.
         21   -1    0    0  501  503 -0.00000000000E+00 -0.00000000000E+00 -0.71152133837E+03  0.71152133837E+03  0.00000000000E+00 0.  1.
          6    1    1    2  501    0 -0.53053616778E+02 -0.97105415723E+02 -0.67278151320E+03  0.70342598226E+03  0.17300000000E+03 0.  1.
         -6    1    1    2    0  502  0.53053616778E+02  0.97105415723E+02  0.42681177602E+03  0.47364695731E+03  0.17300000000E+03 0.  1.
<mgrwt>
<rscale>  2 0.20536102E+03</rscale>
<asrwt>0</asrwt>
<pdfrwt beam="1">  1       21 0.71623323E-01 0.20536102E+03</pdfrwt>
<pdfrwt beam="2">  1       21 0.10946482E+00 0.20536102E+03</pdfrwt>
<totfact> 0.11496396E+03</totfact>
</mgrwt>
</event>
<event>
 4    2  0.4063641E+000  0.3045722E+03  0.7546771E-02  0.1082977E+00
         21   -1    0    0  503  502  0.00000000000E+00  0.00000000000E+00  0.14065675509E+04  0.14065675509E+04  0.00000000000E+00 0. -1.
         21   -1    0    0  501  503 -0.00000000000E+00 -0.00000000000E+00 -0.69261045906E+02  0.69261045906E+02  0.00000000000E+00 0.  1.
          6    1    1    2  501    0  0.90595259761E+02 -0.23372576115E+03  0.50733162631E+03  0.59173440965E+03  0.17300000000E+03 0. -1.
         -6    1    1    2    0  502 -0.90595259761E+02  0.23372576115E+03  0.82997487873E+03  0.88409418719E+03  0.17300000000E+03 0.  1.
<mgrwt>
<rscale>  2 0.30457221E+03</rscale>
<asrwt>0</asrwt>
<pdfrwt beam="1">  1       21 0.21639499E+00 0.30457221E+03</pdfrwt>
<pdfrwt beam="2">  1       21 0.10655547E-01 0.30457221E+03</pdfrwt>
<totfact> 0.70723339E+03</totfact>
</mgrwt>
</event>
<event>
 4    2  0.4063641E+000  0.1796564E+03  0.7546771E-02  0.1168136E+00
         21   -1    0    0  503  502  0.00000000000E+00  0.00000000000E+00  0.56682469418E+02  0.56682469418E+02  0.00000000000E+00 0.  1.
         21   -1    0    0  501  503 -0.00000000000E+00 -0.00000000000E+00 -0.90047528172E+03  0.90047528172E+03  0.00000000000E+00 0.  1.
          6    1    1    2  501    0 -0.29094475758E+01 -0.48362944611E+02 -0.71207430288E+03  0.73438835238E+03  0.17300000000E+03 0.  1.
         -6    1    1    2    0  502  0.29094475758E+01  0.48362944611E+02 -0.13171850942E+03  0.22276939875E+03  0.17300000000E+03 0.  1.
<mgrwt>
<rscale>  2 0.17965645E+03</rscale>
<asrwt>0</asrwt>
<pdfrwt beam="1">  1       21 0.87203801E-02 0.17965645E+03</pdfrwt>
<pdfrwt beam="2">  1       21 0.13853466E+00 0.17965645E+03</pdfrwt>
<totfact> 0.38244398E+04</totfact>
</mgrwt>
</event>
<event>
 4    2  0.4063641E+000  0.1752505E+03  0.7546771E-02  0.1172480E+00
         21   -1    0    0  503  502  0.00000000000E+00  0.00000000000E+00  0.24877013702E+02  0.24877013702E+02  0.00000000000E+00 0. -1.
         21   -1    0    0  501  503 -0.00000000000E+00 -0.00000000000E+00 -0.12657424610E+04  0.12657424610E+04  0.00000000000E+00 0. -1.
          6    1    1    2  501    0 -0.27798209932E+02  0.33155088328E+01 -0.72168200519E+03  0.74265580836E+03  0.17300000000E+03 0.  1.
         -6    1    1    2    0  502  0.27798209932E+02 -0.33155088328E+01 -0.51918344212E+03  0.54796366636E+03  0.17300000000E+03 0.  1.
<mgrwt>
<rscale>  2 0.17525049E+03</rscale>
<asrwt>0</asrwt>
<pdfrwt beam="1">  1       21 0.38272331E-02 0.17525049E+03</pdfrwt>
<pdfrwt beam="2">  1       21 0.19472960E+00 0.17525049E+03</pdfrwt>
<totfact> 0.61949193E+04</totfact>
</mgrwt>
</event>
<event>
 4    2  0.4063641E+000  0.2341236E+03  0.7546771E-02  0.1123771E+00
         21   -1    0    0  503  502  0.00000000000E+00  0.00000000000E+00  0.60465736229E+03  0.60465736229E+03  0.00000000000E+00 0.  1.
         21   -1    0    0  501  503 -0.00000000000E+00 -0.00000000000E+00 -0.15836711451E+03  0.15836711451E+03  0.00000000000E+00 0.  1.
          6    1    1    2  501    0 -0.69379009694E+02 -0.14167362470E+03  0.47261397185E+03  0.52742566235E+03  0.17300000000E+03 0.  1.
         -6    1    1    2    0  502  0.69379009694E+02  0.14167362470E+03 -0.26323724065E+02  0.23559881445E+03  0.17300000000E+03 0.  1.
<mgrwt>
<rscale>  2 0.23412361E+03</rscale>
<asrwt>0</asrwt>
<pdfrwt beam="1">  1       21 0.93024209E-01 0.23412361E+03</pdfrwt>
<pdfrwt beam="2">  1       21 0.24364172E-01 0.23412361E+03</pdfrwt>
<totfact> 0.15091389E+04</totfact>
</mgrwt>
</event>
<event>
 4    2  0.4063641E+000  0.2522809E+03  0.7546771E-02  0.1111872E+00
         21   -1    0    0  501  502  0.00000000000E+00  0.00000000000E+00  0.20285752064E+03  0.20285752064E+03  0.00000000000E+00 0. -1.
         21   -1    0    0  502  503 -0.00000000000E+00 -0.00000000000E+00 -0.32329728195E+03  0.32329728195E+03  0.00000000000E+00 0.  1.
          6    1    1    2  501    0  0.10296178253E+03  0.15203793776E+03 -0.15000826589E+02  0.25272650827E+03  0.17300000000E+03 0. -1.
         -6    1    1    2    0  503 -0.10296178253E+03 -0.15203793776E+03 -0.10543893473E+03  0.27342829433E+03  0.17300000000E+03 0.  1.
<mgrwt>
<rscale>  2 0.25228092E+03</rscale>
<asrwt>0</asrwt>
<pdfrwt beam="1">  1       21 0.31208850E-01 0.25228092E+03</pdfrwt>
<pdfrwt beam="2">  1       21 0.49738042E-01 0.25228092E+03</pdfrwt>
<totfact> 0.36940782E+04</totfact>
</mgrwt>
</event>
<event>
 4    2  0.4063641E+000  0.2017122E+03  0.7546771E-02  0.1148302E+00
         21   -1    0    0  501  502  0.00000000000E+00  0.00000000000E+00  0.52171518681E+03  0.52171518681E+03  0.00000000000E+00 0.  1.
         21   -1    0    0  502  503 -0.00000000000E+00 -0.00000000000E+00 -0.96364067465E+02  0.96364067465E+02  0.00000000000E+00 0.  1.
          6    1    1    2  501    0 -0.10250061719E+03 -0.15887968817E+02  0.34762669852E+03  0.40191059404E+03  0.17300000000E+03 0.  1.
         -6    1    1    2    0  503  0.10250061719E+03  0.15887968817E+02  0.77724420832E+02  0.21616866024E+03  0.17300000000E+03 0.  1.
<mgrwt>
<rscale>  2 0.20171218E+03</rscale>
<asrwt>0</asrwt>
<pdfrwt beam="1">  1       21 0.80263874E-01 0.20171218E+03</pdfrwt>
<pdfrwt beam="2">  1       21 0.14825241E-01 0.20171218E+03</pdfrwt>
<totfact> 0.54464677E+04</totfact>
</mgrwt>
</event>
<event>
 4    2  0.4063641E+000  0.2241748E+03  0.7546771E-02  0.1130808E+00
         21   -1    0    0  501  502  0.00000000000E+00  0.00000000000E+00  0.70131916324E+02  0.70131916324E+02  0.00000000000E+00 0.  1.
         21   -1    0    0  502  503 -0.00000000000E+00 -0.00000000000E+00 -0.83361259366E+03  0.83361259366E+03  0.00000000000E+00 0.  1.
          6    1    1    2  501    0 -0.13345663423E+03 -0.50146661717E+02 -0.21242072556E+03  0.30883154882E+03  0.17300000000E+03 0.  1.
         -6    1    1    2    0  503  0.13345663423E+03  0.50146661717E+02 -0.55105995178E+03  0.59491296116E+03  0.17300000000E+03 0.  1.
<mgrwt>
<rscale>  2 0.22417484E+03</rscale>
<asrwt>0</asrwt>
<pdfrwt beam="1">  1       21 0.10789525E-01 0.22417484E+03</pdfrwt>
<pdfrwt beam="2">  1       21 0.12824810E+00 0.22417484E+03</pdfrwt>
<totfact> 0.31157061E+04</totfact>
</mgrwt>
</event>
<event>
 4    2  0.4063641E+000  0.3962692E+03  0.7546771E-02  0.1045079E+00
         21   -1    0    0  503  502  0.00000000000E+00  0.00000000000E+00  0.34943366404E+03  0.34943366404E+03  0.00000000000E+00 0. -1.
         21   -1    0    0  501  503 -0.00000000000E+00 -0.00000000000E+00 -0.48868062298E+03  0.48868062298E+03  0.00000000000E+00 0.  1.
          6    1    1    2  501    0 -0.25488469318E+02 -0.35559893189E+03 -0.18845956822E+03  0.43880094722E+03  0.17300000000E+03 0. -1.
         -6    1    1    2    0  502  0.25488469318E+02  0.35559893189E+03  0.49212609286E+02  0.39931333980E+03  0.17300000000E+03 0.  1.
<mgrwt>
<rscale>  2 0.39626918E+03</rscale>
<asrwt>0</asrwt>
<pdfrwt beam="1">  1       21 0.53759025E-01 0.39626918E+03</pdfrwt>
<pdfrwt beam="2">  1       21 0.75181634E-01 0.39626918E+03</pdfrwt>
<totfact> 0.46333849E+03</totfact>
</mgrwt>
</event>
<event>
 4    2  0.4063641E+000  0.1735311E+03  0.7546771E-02  0.1174215E+00
         21   -1    0    0  503  502  0.00000000000E+00  0.00000000000E+00  0.14726738901E+03  0.14726738901E+03  0.00000000000E+00 0. -1.
         21   -1    0    0  501  503 -0.00000000000E+00 -0.00000000000E+00 -0.25394351886E+03  0.25394351886E+03  0.00000000000E+00 0. -1.
          6    1    1    2  501    0  0.13297163968E+02 -0.26892554440E+01 -0.14187455672E+03  0.22414601604E+03  0.17300000000E+03 0. -1.
         -6    1    1    2    0  502 -0.13297163968E+02  0.26892554440E+01  0.35198426862E+02  0.17706489183E+03  0.17300000000E+03 0. -1.
<mgrwt>
<rscale>  2 0.17353111E+03</rscale>
<asrwt>0</asrwt>
<pdfrwt beam="1">  1       21 0.22656521E-01 0.17353111E+03</pdfrwt>
<pdfrwt beam="2">  1       21 0.39068234E-01 0.17353111E+03</pdfrwt>
<totfact> 0.11614831E+05</totfact>
</mgrwt>
</event>
<event>
 4    2  0.4063641E+000  0.1899519E+03  0.7546771E-02  0.1158505E+00
         21   -1    0    0  503  502  0.00000000000E+00  0.00000000000E+00  0.17803191283E+03  0.17803191283E+03  0.00000000000E+00 0. -1.
         21   -1    0    0  501  503 -0.00000000000E+00 -0.00000000000E+00 -0.26079759441E+03  0.26079759441E+03  0.00000000000E+00 0. -1.
          6    1    1    2  501    0 -0.55301010307E+02 -0.55628334688E+02 -0.14496990229E+03  0.23895184856E+03  0.17300000000E+03 0. -1.
         -6    1    1    2    0  502  0.55301010307E+02  0.55628334688E+02  0.62204220713E+02  0.19987765867E+03  0.17300000000E+03 0. -1.
<mgrwt>
<rscale>  2 0.18995187E+03</rscale>
<asrwt>0</asrwt>
<pdfrwt beam="1">  1       21 0.27389525E-01 0.18995187E+03</pdfrwt>
<pdfrwt beam="2">  1       21 0.40122707E-01 0.18995187E+03</pdfrwt>
<totfact> 0.76193832E+04</totfact>
</mgrwt>
</event>
<event>
 4    2  0.4063641E+000  0.1738386E+03  0.7546771E-02  0.1173903E+00
         21   -1    0    0  501  502  0.00000000000E+00  0.00000000000E+00  0.13383846233E+03  0.13383846233E+03  0.00000000000E+00 0. -1.
         21   -1    0    0  502  503 -0.00000000000E+00 -0.00000000000E+00 -0.33005473613E+03  0.33005473613E+03  0.00000000000E+00 0. -1.
          6    1    1    2  501    0  0.13124295760E+02 -0.10890184817E+02  0.32255551586E+02  0.17680572353E+03  0.17300000000E+03 0. -1.
         -6    1    1    2    0  503 -0.13124295760E+02  0.10890184817E+02 -0.22847182539E+03  0.28708747493E+03  0.17300000000E+03 0. -1.
<mgrwt>
<rscale>  2 0.17383856E+03</rscale>
<asrwt>0</asrwt>
<pdfrwt beam="1">  1       21 0.20590533E-01 0.17383856E+03</pdfrwt>
<pdfrwt beam="2">  1       21 0.50777651E-01 0.17383856E+03</pdfrwt>
<totfact> 0.81283560E+04</totfact>
</mgrwt>
</event>
<event>
 4    2  0.4063641E+000  0.1734737E+03  0.7546771E-02  0.1174273E+00
         21   -1    0    0  503  502  0.00000000000E+00  0.00000000000E+00  0.16383729204E+03  0.16383729204E+03  0.00000000000E+00 0.  1.
         21   -1    0    0  501  503 -0.00000000000E+00 -0.00000000000E+00 -0.34267059160E+03  0.34267059160E+03  0.00000000000E+00 0.  1.
          6    1    1    2  501    0 -0.32565178891E+01  0.12390765494E+02 -0.26192402180E+03  0.31416131076E+03  0.17300000000E+03 0.  1.
         -6    1    1    2    0  502  0.32565178891E+01 -0.12390765494E+02  0.83090722236E+02  0.19234657288E+03  0.17300000000E+03 0.  1.
<mgrwt>
<rscale>  2 0.17347373E+03</rscale>
<asrwt>0</asrwt>
<pdfrwt beam="1">  1       21 0.25205737E-01 0.17347373E+03</pdfrwt>
<pdfrwt beam="2">  1       21 0.52718552E-01 0.17347373E+03</pdfrwt>
<totfact> 0.51323746E+04</totfact>
</mgrwt>
</event>
<event>
 4    2  0.4063641E+000  0.1836422E+03  0.7546771E-02  0.1164324E+00
         21   -1    0    0  503  502  0.00000000000E+00  0.00000000000E+00  0.14689902578E+03  0.14689902578E+03  0.00000000000E+00 0.  1.
         21   -1    0    0  501  503 -0.00000000000E+00 -0.00000000000E+00 -0.27229045223E+03  0.27229045223E+03  0.00000000000E+00 0.  1.
          6    1    1    2  501    0 -0.61478752925E+02 -0.39795341975E+01 -0.14570987353E+03  0.23442662177E+03  0.17300000000E+03 0. -1.
         -6    1    1    2    0  502  0.61478752925E+02  0.39795341975E+01  0.20318447069E+02  0.18476285624E+03  0.17300000000E+03 0. -1.
<mgrwt>
<rscale>  2 0.18364224E+03</rscale>
<asrwt>0</asrwt>
<pdfrwt beam="1">  1       21 0.22599850E-01 0.18364224E+03</pdfrwt>
<pdfrwt beam="2">  1       21 0.41890838E-01 0.18364224E+03</pdfrwt>
<totfact> 0.10097910E+05</totfact>
</mgrwt>
</event>
<event>
 4    2  0.4063641E+000  0.2144057E+03  0.7546771E-02  0.1138124E+00
         21   -1    0    0  503  502  0.00000000000E+00  0.00000000000E+00  0.28298017150E+03  0.28298017150E+03  0.00000000000E+00 0. -1.
         21   -1    0    0  501  503 -0.00000000000E+00 -0.00000000000E+00 -0.32865961189E+03  0.32865961189E+03  0.00000000000E+00 0. -1.
          6    1    1    2  501    0 -0.10663501958E+03  0.68335770280E+02 -0.24032112242E+03  0.32206217844E+03  0.17300000000E+03 0. -1.
         -6    1    1    2    0  502  0.10663501958E+03 -0.68335770280E+02  0.19464168203E+03  0.28957760494E+03  0.17300000000E+03 0. -1.
<mgrwt>
<rscale>  2 0.21440570E+03</rscale>
<asrwt>0</asrwt>
<pdfrwt beam="1">  1       21 0.43535411E-01 0.21440570E+03</pdfrwt>
<pdfrwt beam="2">  1       21 0.50563017E-01 0.21440570E+03</pdfrwt>
<totfact> 0.18632631E+04</totfact>
</mgrwt>
</event>
<event>
 4    2  0.4063641E+000  0.1735403E+03  0.7546771E-02  0.1174205E+00
         21   -1    0    0  501  502  0.00000000000E+00  0.00000000000E+00  0.11575232258E+03  0.11575232258E+03  0.00000000000E+00 0. -1.
         21   -1    0    0  502  503 -0.00000000000E+00 -0.00000000000E+00 -0.49198246424E+03  0.49198246424E+03  0.00000000000E+00 0. -1.
          6    1    1    2  501    0  0.13661449918E+02 -0.78514364215E+00  0.20463569194E+02  0.17474269464E+03  0.17300000000E+03 0. -1.
         -6    1    1    2    0  503 -0.13661449918E+02  0.78514364215E+00 -0.39669371085E+03  0.43299209219E+03  0.17300000000E+03 0. -1.
<mgrwt>
<rscale>  2 0.17354035E+03</rscale>
<asrwt>0</asrwt>
<pdfrwt beam="1">  1       21 0.17808049E-01 0.17354035E+03</pdfrwt>
<pdfrwt beam="2">  1       21 0.75689611E-01 0.17354035E+03</pdfrwt>
<totfact> 0.45039945E+04</totfact>
</mgrwt>
</event>
<event>
 4    2  0.4063641E+000  0.2524940E+03  0.7546771E-02  0.1111739E+00
         21   -1    0    0  501  502  0.00000000000E+00  0.00000000000E+00  0.14455280398E+04  0.14455280398E+04  0.00000000000E+00 0.  1.
         21   -1    0    0  502  503 -0.00000000000E+00 -0.00000000000E+00 -0.44184388379E+02  0.44184388379E+02  0.00000000000E+00 0. -1.
          6    1    1    2  501    0 -0.12591031075E+03  0.13405521366E+03  0.66885109981E+03  0.71492307305E+03  0.17300000000E+03 0. -1.
         -6    1    1    2    0  503  0.12591031075E+03 -0.13405521366E+03  0.73249255164E+03  0.77478935516E+03  0.17300000000E+03 0.  1.
<mgrwt>
<rscale>  2 0.25249397E+03</rscale>
<asrwt>0</asrwt>
<pdfrwt beam="1">  1       21 0.22238889E+00 0.25249397E+03</pdfrwt>
<pdfrwt beam="2">  1       21 0.67975993E-02 0.25249397E+03</pdfrwt>
<totfact> 0.14795347E+04</totfact>
</mgrwt>
</event>
<event>
 4    2  0.4063641E+000  0.1901988E+03  0.7546771E-02  0.1158282E+00
         21   -1    0    0  501  502  0.00000000000E+00  0.00000000000E+00  0.75082032488E+02  0.75082032488E+02  0.00000000000E+00 0. -1.
         21   -1    0    0  502  503 -0.00000000000E+00 -0.00000000000E+00 -0.10372323251E+04  0.10372323251E+04  0.00000000000E+00 0. -1.
          6    1    1    2  501    0  0.33430124738E+02 -0.71617007212E+02 -0.74098342746E+02  0.20412283890E+03  0.17300000000E+03 0. -1.
         -6    1    1    2    0  503 -0.33430124738E+02  0.71617007212E+02 -0.88805194992E+03  0.90819151874E+03  0.17300000000E+03 0. -1.
<mgrwt>
<rscale>  2 0.19019876E+03</rscale>
<asrwt>0</asrwt>
<pdfrwt beam="1">  1       21 0.11551082E-01 0.19019876E+03</pdfrwt>
<pdfrwt beam="2">  1       21 0.15957420E+00 0.19019876E+03</pdfrwt>
<totfact> 0.15953288E+04</totfact>
</mgrwt>
</event>
<event>
 4    2  0.4063641E+000  0.1772673E+03  0.7546771E-02  0.1170474E+00
         21   -1    0    0  503  502  0.00000000000E+00  0.00000000000E+00  0.34592348556E+04  0.34592348556E+04  0.00000000000E+00 0.  1.
         21   -1    0    0  501  503 -0.00000000000E+00 -0.00000000000E+00 -0.92254346890E+01  0.92254346890E+01  0.00000000000E+00 0.  1.
          6    1    1    2  501    0 -0.38658666199E+02 -0.46204017227E+00  0.15102790500E+04  0.15206467423E+04  0.17300000000E+03 0. -1.
         -6    1    1    2    0  502  0.38658666199E+02  0.46204017227E+00  0.19397303710E+04  0.19478135481E+04  0.17300000000E+03 0. -1.
<mgrwt>
<rscale>  2 0.17726733E+03</rscale>
<asrwt>0</asrwt>
<pdfrwt beam="1">  1       21 0.53218894E+00 0.17726733E+03</pdfrwt>
<pdfrwt beam="2">  1       21 0.14193004E-02 0.17726733E+03</pdfrwt>
<totfact> 0.24417629E+03</totfact>
</mgrwt>
</event>
<event>
 4    2  0.4063641E+000  0.1860852E+03  0.7546771E-02  0.1162040E+00
         21   -1    0    0  501  502  0.00000000000E+00  0.00000000000E+00  0.82324087696E+03  0.82324087696E+03  0.00000000000E+00 0. -1.
         21   -1    0    0  502  503 -0.00000000000E+00 -0.00000000000E+00 -0.47496397537E+02  0.47496397537E+02  0.00000000000E+00 0. -1.
          6    1    1    2  501    0  0.65772047370E+02 -0.19306635306E+02  0.53512918267E+03  0.56656063270E+03  0.17300000000E+03 0. -1.
         -6    1    1    2    0  503 -0.65772047370E+02  0.19306635306E+02  0.24061529675E+03  0.30417664179E+03  0.17300000000E+03 0. -1.
<mgrwt>
<rscale>  2 0.18608522E+03</rscale>
<asrwt>0</asrwt>
<pdfrwt beam="1">  1       21 0.12665243E+00 0.18608522E+03</pdfrwt>
<pdfrwt beam="2">  1       21 0.73071387E-02 0.18608522E+03</pdfrwt>
<totfact> 0.65034072E+04</totfact>
</mgrwt>
</event>
<event>
 4    2  0.4063641E+000  0.1792977E+03  0.7546771E-02  0.1168484E+00
         21   -1    0    0  503  502  0.00000000000E+00  0.00000000000E+00  0.72326450795E+02  0.72326450795E+02  0.00000000000E+00 0. -1.
         21   -1    0    0  501  503 -0.00000000000E+00 -0.00000000000E+00 -0.11906719962E+04  0.11906719962E+04  0.00000000000E+00 0. -1.
          6    1    1    2  501    0  0.28287258138E+02  0.37663128509E+02 -0.10590944473E+04  0.10741642000E+04  0.17300000000E+03 0. -1.
         -6    1    1    2    0  502 -0.28287258138E+02 -0.37663128509E+02 -0.59251098118E+02  0.18883424703E+03  0.17300000000E+03 0. -1.
<mgrwt>
<rscale>  2 0.17929774E+03</rscale>
<asrwt>0</asrwt>
<pdfrwt beam="1">  1       21 0.11127146E-01 0.17929774E+03</pdfrwt>
<pdfrwt beam="2">  1       21 0.18318031E+00 0.17929774E+03</pdfrwt>
<totfact> 0.11752990E+04</totfact>
</mgrwt>
</event>
<event>
 4    2  0.4063641E+000  0.1863281E+03  0.7546771E-02  0.1161815E+00
         21   -1    0    0  501  502  0.00000000000E+00  0.00000000000E+00  0.28407941088E+02  0.28407941088E+02  0.00000000000E+00 0. -1.
         21   -1    0    0  502  503 -0.00000000000E+00 -0.00000000000E+00 -0.12312822076E+04  0.12312822076E+04  0.00000000000E+00 0.  1.
          6    1    1    2  501    0  0.57738548251E+02  0.38150026331E+02 -0.65574279057E+03  0.68170138026E+03  0.17300000000E+03 0.  1.
         -6    1    1    2    0  503 -0.57738548251E+02 -0.38150026331E+02 -0.54713147595E+03  0.57798876844E+03  0.17300000000E+03 0. -1.
<mgrwt>
<rscale>  2 0.18632811E+03</rscale>
<asrwt>0</asrwt>
<pdfrwt beam="1">  1       21 0.43704510E-02 0.18632811E+03</pdfrwt>
<pdfrwt beam="2">  1       21 0.18942809E+00 0.18632811E+03</pdfrwt>
<totfact> 0.53335126E+04</totfact>
</mgrwt>
</event>
<event>
 4    2  0.4063641E+000  0.2482232E+03  0.7546771E-02  0.1114433E+00
         21   -1    0    0  503  502  0.00000000000E+00  0.00000000000E+00  0.75463391372E+03  0.75463391372E+03  0.00000000000E+00 0.  1.
         21   -1    0    0  501  503 -0.00000000000E+00 -0.00000000000E+00 -0.13900667412E+03  0.13900667412E+03  0.00000000000E+00 0.  1.
          6    1    1    2  501    0 -0.10810338582E+03 -0.14141935306E+03  0.20793408296E+02  0.24909263593E+03  0.17300000000E+03 0.  1.
         -6    1    1    2    0  502  0.10810338582E+03  0.14141935306E+03  0.59483383130E+03  0.64454795191E+03  0.17300000000E+03 0.  1.
<mgrwt>
<rscale>  2 0.24822324E+03</rscale>
<asrwt>0</asrwt>
<pdfrwt beam="1">  1       21 0.11609752E+00 0.24822324E+03</pdfrwt>
<pdfrwt beam="2">  1       21 0.21385643E-01 0.24822324E+03</pdfrwt>
<totfact> 0.11255866E+04</totfact>
</mgrwt>
</event>
<event>
 4    2  0.4063641E+000  0.1987449E+03  0.7546771E-02  0.1150802E+00
         21   -1    0    0  501  502  0.00000000000E+00  0.00000000000E+00  0.20939489896E+03  0.20939489896E+03  0.00000000000E+00 0.  1.
         21   -1    0    0  502  503 -0.00000000000E+00 -0.00000000000E+00 -0.49830819139E+03  0.49830819139E+03  0.00000000000E+00 0.  1.
          6    1    1    2  501    0 -0.40057630601E+02  0.89251992901E+02  0.13449106283E+03  0.23997370270E+03  0.17300000000E+03 0.  1.
         -6    1    1    2    0  503  0.40057630601E+02 -0.89251992901E+02 -0.42340435526E+03  0.46772938764E+03  0.17300000000E+03 0.  1.
<mgrwt>
<rscale>  2 0.19874489E+03</rscale>
<asrwt>0</asrwt>
<pdfrwt beam="1">  1       21 0.32214600E-01 0.19874489E+03</pdfrwt>
<pdfrwt beam="2">  1       21 0.76662798E-01 0.19874489E+03</pdfrwt>
<totfact> 0.13976919E+04</totfact>
</mgrwt>
</event>
<event>
 4    2  0.4063641E+000  0.1852569E+03  0.7546771E-02  0.1162810E+00
         21   -1    0    0  501  502  0.00000000000E+00  0.00000000000E+00  0.82340358213E+03  0.82340358213E+03  0.00000000000E+00 0.  1.
         21   -1    0    0  502  503 -0.00000000000E+00 -0.00000000000E+00 -0.56829272574E+02  0.56829272574E+02  0.00000000000E+00 0.  1.
          6    1    1    2  501    0 -0.52590382611E+02  0.40315666160E+02  0.61051747433E+03  0.63800602485E+03  0.17300000000E+03 0.  1.
         -6    1    1    2    0  503  0.52590382611E+02 -0.40315666160E+02  0.15605683523E+03  0.24222682986E+03  0.17300000000E+03 0.  1.
<mgrwt>
<rscale>  2 0.18525685E+03</rscale>
<asrwt>0</asrwt>
<pdfrwt beam="1">  1       21 0.12667747E+00 0.18525685E+03</pdfrwt>
<pdfrwt beam="2">  1       21 0.87429656E-02 0.18525685E+03</pdfrwt>
<totfact> 0.47599563E+04</totfact>
</mgrwt>
</event>
<event>
 4    2  0.4063641E+000  0.2416709E+03  0.7546771E-02  0.1118685E+00
         21   -1    0    0  501  502  0.00000000000E+00  0.00000000000E+00  0.25299950740E+03  0.25299950740E+03  0.00000000000E+00 0. -1.
         21   -1    0    0  502  503 -0.00000000000E+00 -0.00000000000E+00 -0.45508208007E+03  0.45508208007E+03  0.00000000000E+00 0.  1.
          6    1    1    2  501    0  0.97543611772E+02 -0.13769918391E+03 -0.34955922968E+03  0.42496644161E+03  0.17300000000E+03 0.  1.
         -6    1    1    2    0  503 -0.97543611772E+02  0.13769918391E+03  0.14747665701E+03  0.28311514585E+03  0.17300000000E+03 0. -1.
<mgrwt>
<rscale>  2 0.24167089E+03</rscale>
<asrwt>0</asrwt>
<pdfrwt beam="1">  1       21 0.38923001E-01 0.24167089E+03</pdfrwt>
<pdfrwt beam="2">  1       21 0.70012627E-01 0.24167089E+03</pdfrwt>
<totfact> 0.11434104E+04</totfact>
</mgrwt>
</event>
<event>
 4    2  0.4063641E+000  0.2028839E+03  0.7546771E-02  0.1147328E+00
         21   -1    0    0  501  502  0.00000000000E+00  0.00000000000E+00  0.16481295040E+03  0.16481295040E+03  0.00000000000E+00 0. -1.
         21   -1    0    0  502  503 -0.00000000000E+00 -0.00000000000E+00 -0.29900310619E+03  0.29900310619E+03  0.00000000000E+00 0.  1.
          6    1    1    2  501    0 -0.10598240842E+03 -0.76851537110E+00 -0.16121885998E+03  0.25913969654E+03  0.17300000000E+03 0.  1.
         -6    1    1    2    0  503  0.10598240842E+03  0.76851537110E+00  0.27028704187E+02  0.20467636004E+03  0.17300000000E+03 0. -1.
<mgrwt>
<rscale>  2 0.20288386E+03</rscale>
<asrwt>0</asrwt>
<pdfrwt beam="1">  1       21 0.25355839E-01 0.20288386E+03</pdfrwt>
<pdfrwt beam="2">  1       21 0.46000478E-01 0.20288386E+03</pdfrwt>
<totfact> 0.66464470E+04</totfact>
</mgrwt>
</event>
<event>
 4    2  0.4063641E+000  0.1894184E+03  0.7546771E-02  0.1158987E+00
         21   -1    0    0  503  502  0.00000000000E+00  0.00000000000E+00  0.47032371795E+02  0.47032371795E+02  0.00000000000E+00 0. -1.
         21   -1    0    0  501  503 -0.00000000000E+00 -0.00000000000E+00 -0.89929418859E+03  0.89929418859E+03  0.00000000000E+00 0. -1.
          6    1    1    2  501    0  0.60315272391E+02 -0.48087372293E+02 -0.24183548021E+03  0.30718679487E+03  0.17300000000E+03 0. -1.
         -6    1    1    2    0  502 -0.60315272391E+02  0.48087372293E+02 -0.61042633659E+03  0.63913976552E+03  0.17300000000E+03 0. -1.
<mgrwt>
<rscale>  2 0.18941839E+03</rscale>
<asrwt>0</asrwt>
<pdfrwt beam="1">  1       21 0.72357498E-02 0.18941839E+03</pdfrwt>
<pdfrwt beam="2">  1       21 0.13835295E+00 0.18941839E+03</pdfrwt>
<totfact> 0.52791490E+04</totfact>
</mgrwt>
</event>
<event>
 4    2  0.4063641E+000  0.1761183E+03  0.7546771E-02  0.1171614E+00
         21   -1    0    0  503  502  0.00000000000E+00  0.00000000000E+00  0.45076730729E+02  0.45076730729E+02  0.00000000000E+00 0. -1.
         21   -1    0    0  501  503 -0.00000000000E+00 -0.00000000000E+00 -0.70154402633E+03  0.70154402633E+03  0.00000000000E+00 0.  1.
          6    1    1    2  501    0 -0.31463661894E+02 -0.99337103347E+01 -0.27657005301E+03  0.32788509396E+03  0.17300000000E+03 0. -1.
         -6    1    1    2    0  502  0.31463661894E+02  0.99337103347E+01 -0.37989724259E+03  0.41873566310E+03  0.17300000000E+03 0.  1.
<mgrwt>
<rscale>  2 0.17611826E+03</rscale>
<asrwt>0</asrwt>
<pdfrwt beam="1">  1       21 0.69348818E-02 0.17611826E+03</pdfrwt>
<pdfrwt beam="2">  1       21 0.10792985E+00 0.17611826E+03</pdfrwt>
<totfact> 0.10584070E+05</totfact>
</mgrwt>
</event>
<event>
 4    2  0.4063641E+000  0.2299400E+03  0.7546771E-02  0.1126682E+00
         21   -1    0    0  503  502  0.00000000000E+00  0.00000000000E+00  0.36561530863E+03  0.36561530863E+03  0.00000000000E+00 0. -1.
         21   -1    0    0  501  503 -0.00000000000E+00 -0.00000000000E+00 -0.17024188216E+03  0.17024188216E+03  0.00000000000E+00 0.  1.
          6    1    1    2  501    0 -0.11938437637E+03 -0.93224259091E+02 -0.62714152314E+01  0.23002548218E+03  0.17300000000E+03 0.  1.
         -6    1    1    2    0  502  0.11938437637E+03  0.93224259091E+02  0.20164484170E+03  0.30583170861E+03  0.17300000000E+03 0. -1.
<mgrwt>
<rscale>  2 0.22993997E+03</rscale>
<asrwt>0</asrwt>
<pdfrwt beam="1">  1       21 0.56248509E-01 0.22993997E+03</pdfrwt>
<pdfrwt beam="2">  1       21 0.26191059E-01 0.22993997E+03</pdfrwt>
<totfact> 0.40465146E+04</totfact>
</mgrwt>
</event>
<event>
 4    2  0.4063641E+000  0.2209071E+03  0.7546771E-02  0.1133209E+00
         21   -1    0    0  503  502  0.00000000000E+00  0.00000000000E+00  0.33363813651E+03  0.33363813651E+03  0.00000000000E+00 0. -1.
         21   -1    0    0  501  503 -0.00000000000E+00 -0.00000000000E+00 -0.33515603029E+03  0.33515603029E+03  0.00000000000E+00 0. -1.
          6    1    1    2  501    0  0.13636924316E+03  0.16564236211E+02 -0.25179920982E+03  0.33496684383E+03  0.17300000000E+03 0. -1.
         -6    1    1    2    0  502 -0.13636924316E+03 -0.16564236211E+02  0.25028131605E+03  0.33382732297E+03  0.17300000000E+03 0. -1.
<mgrwt>
<rscale>  2 0.22090709E+03</rscale>
<asrwt>0</asrwt>
<pdfrwt beam="1">  1       21 0.51328944E-01 0.22090709E+03</pdfrwt>
<pdfrwt beam="2">  1       21 0.51562466E-01 0.22090709E+03</pdfrwt>
<totfact> 0.12659285E+04</totfact>
</mgrwt>
</event>
<event>
 4    2  0.4063641E+000  0.2244906E+03  0.7546771E-02  0.1130579E+00
         21   -1    0    0  501  502  0.00000000000E+00  0.00000000000E+00  0.25224398829E+03  0.25224398829E+03  0.00000000000E+00 0.  1.
         21   -1    0    0  502  503 -0.00000000000E+00 -0.00000000000E+00 -0.28523470275E+03  0.28523470275E+03  0.00000000000E+00 0.  1.
          6    1    1    2  501    0 -0.13074949446E+03 -0.58065662620E+02  0.13059031787E+03  0.25971115224E+03  0.17300000000E+03 0.  1.
         -6    1    1    2    0  503  0.13074949446E+03  0.58065662620E+02 -0.16358103233E+03  0.27776753881E+03  0.17300000000E+03 0.  1.
<mgrwt>
<rscale>  2 0.22449065E+03</rscale>
<asrwt>0</asrwt>
<pdfrwt beam="1">  1       21 0.38806767E-01 0.22449065E+03</pdfrwt>
<pdfrwt beam="2">  1       21 0.43882262E-01 0.22449065E+03</pdfrwt>
<totfact> 0.31417876E+04</totfact>
</mgrwt>
</event>
<event>
 4    2  0.4063641E+000  0.2530069E+03  0.7546771E-02  0.1111419E+00
         21   -1    0    0  501  502  0.00000000000E+00  0.00000000000E+00  0.11510809392E+03  0.11510809392E+03  0.00000000000E+00 0.  1.
         21   -1    0    0  502  503 -0.00000000000E+00 -0.00000000000E+00 -0.62262921638E+03  0.62262921638E+03  0.00000000000E+00 0. -1.
          6    1    1    2  501    0 -0.54188606150E+02  0.17648536848E+03 -0.13319083512E+03  0.28592357175E+03  0.17300000000E+03 0.  1.
         -6    1    1    2    0  503  0.54188606150E+02 -0.17648536848E+03 -0.37433028734E+03  0.45181373855E+03  0.17300000000E+03 0. -1.
<mgrwt>
<rscale>  2 0.25300690E+03</rscale>
<asrwt>0</asrwt>
<pdfrwt beam="1">  1       21 0.17708938E-01 0.25300690E+03</pdfrwt>
<pdfrwt beam="2">  1       21 0.95789110E-01 0.25300690E+03</pdfrwt>
<totfact> 0.25457853E+04</totfact>
</mgrwt>
</event>
<event>
 4    2  0.4063641E+000  0.2073441E+03  0.7546771E-02  0.1143687E+00
         21   -1    0    0  501  502  0.00000000000E+00  0.00000000000E+00  0.90550408276E+02  0.90550408276E+02  0.00000000000E+00 0.  1.
         21   -1    0    0  502  503 -0.00000000000E+00 -0.00000000000E+00 -0.12584517544E+04  0.12584517544E+04  0.00000000000E+00 0. -1.
          6    1    1    2  501    0  0.66895828228E+02 -0.92668980747E+02 -0.51681577729E+02  0.21368803734E+03  0.17300000000E+03 0.  1.
         -6    1    1    2    0  503 -0.66895828228E+02  0.92668980747E+02 -0.11162197684E+04  0.11353141253E+04  0.17300000000E+03 0. -1.
<mgrwt>
<rscale>  2 0.20734414E+03</rscale>
<asrwt>0</asrwt>
<pdfrwt beam="1">  1       21 0.13930833E-01 0.20734414E+03</pdfrwt>
<pdfrwt beam="2">  1       21 0.19360795E+00 0.20734414E+03</pdfrwt>
<totfact> 0.65425058E+03</totfact>
</mgrwt>
</event>
<event>
 4    2  0.4063641E+000  0.2008063E+03  0.7546771E-02  0.1149061E+00
         21   -1    0    0  501  502  0.00000000000E+00  0.00000000000E+00  0.59071388728E+03  0.59071388728E+03  0.00000000000E+00 0.  1.
         21   -1    0    0  502  503 -0.00000000000E+00 -0.00000000000E+00 -0.80658419016E+02  0.80658419016E+02  0.00000000000E+00 0.  1.
          6    1    1    2  501    0  0.12555472869E+02 -0.10117573219E+03  0.38662926149E+03  0.43566656347E+03  0.17300000000E+03 0.  1.
         -6    1    1    2    0  503 -0.12555472869E+02  0.10117573219E+03  0.12342620677E+03  0.23570574283E+03  0.17300000000E+03 0.  1.
<mgrwt>
<rscale>  2 0.20080630E+03</rscale>
<asrwt>0</asrwt>
<pdfrwt beam="1">  1       21 0.90879057E-01 0.20080630E+03</pdfrwt>
<pdfrwt beam="2">  1       21 0.12408988E-01 0.20080630E+03</pdfrwt>
<totfact> 0.56537862E+04</totfact>
</mgrwt>
</event>
<event>
 4    2  0.4063641E+000  0.2233062E+03  0.7546771E-02  0.1131442E+00
         21   -1    0    0  503  502  0.00000000000E+00  0.00000000000E+00  0.73132141946E+02  0.73132141946E+02  0.00000000000E+00 0.  1.
         21   -1    0    0  501  503 -0.00000000000E+00 -0.00000000000E+00 -0.76159343633E+03  0.76159343633E+03  0.00000000000E+00 0.  1.
          6    1    1    2  501    0 -0.48923447109E+02  0.13245062402E+03 -0.47927617966E+03  0.52874504997E+03  0.17300000000E+03 0.  1.
         -6    1    1    2    0  502  0.48923447109E+02 -0.13245062402E+03 -0.20918511473E+03  0.30598052831E+03  0.17300000000E+03 0.  1.
<mgrwt>
<rscale>  2 0.22330623E+03</rscale>
<asrwt>0</asrwt>
<pdfrwt beam="1">  1       21 0.11251098E-01 0.22330623E+03</pdfrwt>
<pdfrwt beam="2">  1       21 0.11716822E+00 0.22330623E+03</pdfrwt>
<totfact> 0.36264030E+04</totfact>
</mgrwt>
</event>
<event>
 4    2  0.4063641E+000  0.1869139E+03  0.7546771E-02  0.1161275E+00
         21   -1    0    0  503  502  0.00000000000E+00  0.00000000000E+00  0.66886800498E+03  0.66886800498E+03  0.00000000000E+00 0.  1.
         21   -1    0    0  501  503 -0.00000000000E+00 -0.00000000000E+00 -0.14482482937E+03  0.14482482937E+03  0.00000000000E+00 0.  1.
          6    1    1    2  501    0  0.21111534043E+02 -0.67543284122E+02 -0.63287340569E+02  0.19733747636E+03  0.17300000000E+03 0.  1.
         -6    1    1    2    0  502 -0.21111534043E+02  0.67543284122E+02  0.58733051618E+03  0.61635535800E+03  0.17300000000E+03 0.  1.
<mgrwt>
<rscale>  2 0.18691386E+03</rscale>
<asrwt>0</asrwt>
<pdfrwt beam="1">  1       21 0.10290277E+00 0.18691386E+03</pdfrwt>
<pdfrwt beam="2">  1       21 0.22280743E-01 0.18691386E+03</pdfrwt>
<totfact> 0.14506705E+04</totfact>
</mgrwt>
</event>
<event>
 4    2  0.4063641E+000  0.1904788E+03  0.7546771E-02  0.1158030E+00
         21   -1    0    0  503  502  0.00000000000E+00  0.00000000000E+00  0.75883251771E+03  0.75883251771E+03  0.00000000000E+00 0.  1.
         21   -1    0    0  501  503 -0.00000000000E+00 -0.00000000000E+00 -0.61713777906E+02  0.61713777906E+02  0.00000000000E+00 0.  1.
          6    1    1    2  501    0 -0.71166492526E+02  0.35895927242E+02  0.15384457904E+03  0.24484758882E+03  0.17300000000E+03 0.  1.
         -6    1    1    2    0  502  0.71166492526E+02 -0.35895927242E+02  0.54327416077E+03  0.57569870680E+03  0.17300000000E+03 0.  1.
<mgrwt>
<rscale>  2 0.19047884E+03</rscale>
<asrwt>0</asrwt>
<pdfrwt beam="1">  1       21 0.11674346E+00 0.19047884E+03</pdfrwt>
<pdfrwt beam="2">  1       21 0.94944279E-02 0.19047884E+03</pdfrwt>
<totfact> 0.50306842E+04</totfact>
</mgrwt>
</event>
<event>
 4    2  0.4063641E+000  0.2602867E+03  0.7546771E-02  0.1106971E+00
         21   -1    0    0  501  502  0.00000000000E+00  0.00000000000E+00  0.16358979591E+04  0.16358979591E+04  0.00000000000E+00 0. -1.
         21   -1    0    0  502  503 -0.00000000000E+00 -0.00000000000E+00 -0.87320354070E+02  0.87320354070E+02  0.00000000000E+00 0. -1.
          6    1    1    2  501    0  0.63828727325E+02  0.18370101809E+03  0.13990135289E+04  0.14230207393E+04  0.17300000000E+03 0. -1.
         -6    1    1    2    0  503 -0.63828727325E+02 -0.18370101809E+03  0.14956407614E+03  0.30019757386E+03  0.17300000000E+03 0. -1.
<mgrwt>
<rscale>  2 0.26028671E+03</rscale>
<asrwt>0</asrwt>
<pdfrwt beam="1">  1       21 0.25167659E+00 0.26028671E+03</pdfrwt>
<pdfrwt beam="2">  1       21 0.13433902E-01 0.26028671E+03</pdfrwt>
<totfact> 0.29187807E+03</totfact>
</mgrwt>
</event>
<event>
 4    2  0.4063641E+000  0.2055586E+03  0.7546771E-02  0.1145132E+00
         21   -1    0    0  501  502  0.00000000000E+00  0.00000000000E+00  0.10449617945E+04  0.10449617945E+04  0.00000000000E+00 0. -1.
         21   -1    0    0  502  503 -0.00000000000E+00 -0.00000000000E+00 -0.19888195300E+03  0.19888195300E+03  0.00000000000E+00 0.  1.
          6    1    1    2  501    0 -0.30346693902E+02  0.10679153916E+03  0.97814902813E+03  0.99951482025E+03  0.17300000000E+03 0. -1.
         -6    1    1    2    0  503  0.30346693902E+02 -0.10679153916E+03 -0.13206918658E+03  0.24432892729E+03  0.17300000000E+03 0.  1.
<mgrwt>
<rscale>  2 0.20555864E+03</rscale>
<asrwt>0</asrwt>
<pdfrwt beam="1">  1       21 0.16076335E+00 0.20555864E+03</pdfrwt>
<pdfrwt beam="2">  1       21 0.30597224E-01 0.20555864E+03</pdfrwt>
<totfact> 0.25175214E+03</totfact>
</mgrwt>
</event>
<event>
 4    2  0.4063641E+000  0.1872893E+03  0.7546771E-02  0.1160929E+00
         21   -1    0    0  501  502  0.00000000000E+00  0.00000000000E+00  0.67111095771E+03  0.67111095771E+03  0.00000000000E+00 0. -1.
         21   -1    0    0  502  503 -0.00000000000E+00 -0.00000000000E+00 -0.67520035730E+02  0.67520035730E+02  0.00000000000E+00 0. -1.
          6    1    1    2  501    0  0.12109758846E+02 -0.70722121917E+02  0.47732604671E+03  0.51275473636E+03  0.17300000000E+03 0. -1.
         -6    1    1    2    0  503 -0.12109758846E+02  0.70722121917E+02  0.12626487527E+03  0.22587625709E+03  0.17300000000E+03 0. -1.
<mgrwt>
<rscale>  2 0.18728925E+03</rscale>
<asrwt>0</asrwt>
<pdfrwt beam="1">  1       21 0.10324784E+00 0.18728925E+03</pdfrwt>
<pdfrwt beam="2">  1       21 0.10387698E-01 0.18728925E+03</pdfrwt>
<totfact> 0.57858875E+04</totfact>
</mgrwt>
</event>
<event>
 4    2  0.4063641E+000  0.2000716E+03  0.7546771E-02  0.1149679E+00
         21   -1    0    0  503  502  0.00000000000E+00  0.00000000000E+00  0.66524243707E+02  0.66524243707E+02  0.00000000000E+00 0.  1.
         21   -1    0    0  501  503 -0.00000000000E+00 -0.00000000000E+00 -0.12299423925E+04  0.12299423925E+04  0.00000000000E+00 0. -1.
          6    1    1    2  501    0 -0.30375199179E+02  0.95796523262E+02 -0.10449932259E+04  0.10639734343E+04  0.17300000000E+03 0. -1.
         -6    1    1    2    0  502  0.30375199179E+02 -0.95796523262E+02 -0.11842492288E+03  0.23249320195E+03  0.17300000000E+03 0.  1.
<mgrwt>
<rscale>  2 0.20007155E+03</rscale>
<asrwt>0</asrwt>
<pdfrwt beam="1">  1       21 0.10234499E-01 0.20007155E+03</pdfrwt>
<pdfrwt beam="2">  1       21 0.18922191E+00 0.20007155E+03</pdfrwt>
<totfact> 0.12219974E+04</totfact>
</mgrwt>
</event>
<event>
 4    2  0.4063641E+000  0.1750539E+03  0.7546771E-02  0.1172678E+00
         21   -1    0    0  503  502  0.00000000000E+00  0.00000000000E+00  0.11316737946E+04  0.11316737946E+04  0.00000000000E+00 0. -1.
         21   -1    0    0  501  503 -0.00000000000E+00 -0.00000000000E+00 -0.11461111748E+03  0.11461111748E+03  0.00000000000E+00 0. -1.
          6    1    1    2  501    0 -0.25724959867E+02 -0.72867877841E+01 -0.36045632723E+02  0.17872649069E+03  0.17300000000E+03 0. -1.
         -6    1    1    2    0  502  0.25724959867E+02  0.72867877841E+01  0.10531083098E+04  0.10675584214E+04  0.17300000000E+03 0. -1.
<mgrwt>
<rscale>  2 0.17505391E+03</rscale>
<asrwt>0</asrwt>
<pdfrwt beam="1">  1       21 0.17410365E+00 0.17505391E+03</pdfrwt>
<pdfrwt beam="2">  1       21 0.17632480E-01 0.17505391E+03</pdfrwt>
<totfact> 0.59179938E+03</totfact>
</mgrwt>
</event>
<event>
 4    2  0.4063641E+000  0.1907797E+03  0.7546771E-02  0.1157760E+00
         21   -1    0    0  503  502  0.00000000000E+00  0.00000000000E+00  0.20664487766E+03  0.20664487766E+03  0.00000000000E+00 0.  1.
         21   -1    0    0  501  503 -0.00000000000E+00 -0.00000000000E+00 -0.48494663662E+03  0.48494663662E+03  0.00000000000E+00 0.  1.
          6    1    1    2  501    0 -0.22024648055E+02  0.77348720252E+02 -0.41509501348E+03  0.45683780477E+03  0.17300000000E+03 0.  1.
         -6    1    1    2    0  502  0.22024648055E+02 -0.77348720252E+02  0.13679325452E+03  0.23475370951E+03  0.17300000000E+03 0.  1.
<mgrwt>
<rscale>  2 0.19077974E+03</rscale>
<asrwt>0</asrwt>
<pdfrwt beam="1">  1       21 0.31791520E-01 0.19077974E+03</pdfrwt>
<pdfrwt beam="2">  1       21 0.74607175E-01 0.19077974E+03</pdfrwt>
<totfact> 0.15322782E+04</totfact>
</mgrwt>
</event>
<event>
 4    2  0.4063641E+000  0.2044210E+03  0.7546771E-02  0.1146062E+00
         21   -1    0    0  503  502  0.00000000000E+00  0.00000000000E+00  0.58764910297E+02  0.58764910297E+02  0.00000000000E+00 0.  1.
         21   -1    0    0  501  503 -0.00000000000E+00 -0.00000000000E+00 -0.16326827283E+04  0.16326827283E+04  0.00000000000E+00 0.  1.
          6    1    1    2  501    0  0.82623883547E+02 -0.70938162563E+02 -0.14223542402E+04  0.14369688631E+04  0.17300000000E+03 0. -1.
         -6    1    1    2    0  502 -0.82623883547E+02  0.70938162563E+02 -0.15156357782E+03  0.25447877546E+03  0.17300000000E+03 0. -1.
<mgrwt>
<rscale>  2 0.20442096E+03</rscale>
<asrwt>0</asrwt>
<pdfrwt beam="1">  1       21 0.90407555E-02 0.20442096E+03</pdfrwt>
<pdfrwt beam="2">  1       21 0.25118196E+00 0.20442096E+03</pdfrwt>
<totfact> 0.62678909E+03</totfact>
</mgrwt>
</event>
<event>
 4    2  0.4063641E+000  0.2110537E+03  0.7546771E-02  0.1140734E+00
         21   -1    0    0  503  502  0.00000000000E+00  0.00000000000E+00  0.47061072502E+03  0.47061072502E+03  0.00000000000E+00 0. -1.
         21   -1    0    0  501  503 -0.00000000000E+00 -0.00000000000E+00 -0.11177178551E+03  0.11177178551E+03  0.00000000000E+00 0.  1.
          6    1    1    2  501    0  0.10620083632E+03  0.57758700443E+02  0.29338578837E+03  0.36141237656E+03  0.17300000000E+03 0. -1.
         -6    1    1    2    0  502 -0.10620083632E+03 -0.57758700443E+02  0.65453151140E+02  0.22097013397E+03  0.17300000000E+03 0.  1.
<mgrwt>
<rscale>  2 0.21105375E+03</rscale>
<asrwt>0</asrwt>
<pdfrwt beam="1">  1       21 0.72401649E-01 0.21105375E+03</pdfrwt>
<pdfrwt beam="2">  1       21 0.17195660E-01 0.21105375E+03</pdfrwt>
<totfact> 0.52064214E+04</totfact>
</mgrwt>
</event>
<event>
 4    2  0.4063641E+000  0.2149562E+03  0.7546771E-02  0.1137700E+00
         21   -1    0    0  503  502  0.00000000000E+00  0.00000000000E+00  0.26930872932E+03  0.26930872932E+03  0.00000000000E+00 0.  1.
         21   -1    0    0  501  503 -0.00000000000E+00 -0.00000000000E+00 -0.23164396170E+03  0.23164396170E+03  0.00000000000E+00 0. -1.
          6    1    1    2  501    0  0.79749947502E+02 -0.99584812361E+02 -0.10871965744E+03  0.24088618245E+03  0.17300000000E+03 0. -1.
         -6    1    1    2    0  502 -0.79749947502E+02  0.99584812361E+02  0.14638442506E+03  0.26006650857E+03  0.17300000000E+03 0.  1.
<mgrwt>
<rscale>  2 0.21495625E+03</rscale>
<asrwt>0</asrwt>
<pdfrwt beam="1">  1       21 0.41432112E-01 0.21495625E+03</pdfrwt>
<pdfrwt beam="2">  1       21 0.35637532E-01 0.21495625E+03</pdfrwt>
<totfact> 0.42115499E+04</totfact>
</mgrwt>
</event>
<event>
 4    2  0.4063641E+000  0.2138395E+03  0.7546771E-02  0.1138561E+00
         21   -1    0    0  503  502  0.00000000000E+00  0.00000000000E+00  0.44857785701E+03  0.44857785701E+03  0.00000000000E+00 0.  1.
         21   -1    0    0  501  503 -0.00000000000E+00 -0.00000000000E+00 -0.11150429342E+03  0.11150429342E+03  0.00000000000E+00 0. -1.
          6    1    1    2  501    0 -0.39455896967E+02  0.11933806872E+03  0.86513523278E+02  0.23067711668E+03  0.17300000000E+03 0. -1.
         -6    1    1    2    0  502  0.39455896967E+02 -0.11933806872E+03  0.25056004031E+03  0.32940503374E+03  0.17300000000E+03 0. -1.
<mgrwt>
<rscale>  2 0.21383952E+03</rscale>
<asrwt>0</asrwt>
<pdfrwt beam="1">  1       21 0.69011977E-01 0.21383952E+03</pdfrwt>
<pdfrwt beam="2">  1       21 0.17154507E-01 0.21383952E+03</pdfrwt>
<totfact> 0.58078583E+04</totfact>
</mgrwt>
</event>
<event>
 4    2  0.4063641E+000  0.2099718E+03  0.7546771E-02  0.1141588E+00
         21   -1    0    0  501  502  0.00000000000E+00  0.00000000000E+00  0.17820553363E+03  0.17820553363E+03  0.00000000000E+00 0.  1.
         21   -1    0    0  502  503 -0.00000000000E+00 -0.00000000000E+00 -0.32701270503E+03  0.32701270503E+03  0.00000000000E+00 0.  1.
          6    1    1    2  501    0  0.30518855607E+02  0.11501201832E+03  0.50236037736E+02  0.21589771743E+03  0.17300000000E+03 0.  1.
         -6    1    1    2    0  503 -0.30518855607E+02 -0.11501201832E+03 -0.19904320913E+03  0.28932052123E+03  0.17300000000E+03 0.  1.
<mgrwt>
<rscale>  2 0.20997182E+03</rscale>
<asrwt>0</asrwt>
<pdfrwt beam="1">  1       21 0.27416236E-01 0.20997182E+03</pdfrwt>
<pdfrwt beam="2">  1       21 0.50309647E-01 0.20997182E+03</pdfrwt>
<totfact> 0.47330140E+04</totfact>
</mgrwt>
</event>
<event>
 4    2  0.4063641E+000  0.2267359E+03  0.7546771E-02  0.1128959E+00
         21   -1    0    0  501  502  0.00000000000E+00  0.00000000000E+00  0.14392011747E+03  0.14392011747E+03  0.00000000000E+00 0.  1.
         21   -1    0    0  502  503 -0.00000000000E+00 -0.00000000000E+00 -0.13198175202E+04  0.13198175202E+04  0.00000000000E+00 0.  1.
          6    1    1    2  501    0  0.13992476755E+03  0.43602890003E+02  0.37082634384E+02  0.22974828479E+03  0.17300000000E+03 0.  1.
         -6    1    1    2    0  503 -0.13992476755E+03 -0.43602890003E+02 -0.12129800372E+04  0.12339893529E+04  0.17300000000E+03 0.  1.
<mgrwt>
<rscale>  2 0.22673587E+03</rscale>
<asrwt>0</asrwt>
<pdfrwt beam="1">  1       21 0.22141557E-01 0.22673587E+03</pdfrwt>
<pdfrwt beam="2">  1       21 0.20304885E+00 0.22673587E+03</pdfrwt>
<totfact> 0.23690541E+03</totfact>
</mgrwt>
</event>
<event>
 4    2  0.4063641E+000  0.1948422E+03  0.7546771E-02  0.1154165E+00
         21   -1    0    0  501  502  0.00000000000E+00  0.00000000000E+00  0.15723413941E+03  0.15723413941E+03  0.00000000000E+00 0.  1.
         21   -1    0    0  502  503 -0.00000000000E+00 -0.00000000000E+00 -0.32452509379E+03  0.32452509379E+03  0.00000000000E+00 0.  1.
          6    1    1    2  501    0 -0.89086175986E+02 -0.99071330516E+01  0.38231792132E+02  0.19855771948E+03  0.17300000000E+03 0.  1.
         -6    1    1    2    0  503  0.89086175986E+02  0.99071330516E+01 -0.20552274651E+03  0.28320151372E+03  0.17300000000E+03 0.  1.
<mgrwt>
<rscale>  2 0.19484224E+03</rscale>
<asrwt>0</asrwt>
<pdfrwt beam="1">  1       21 0.24189868E-01 0.19484224E+03</pdfrwt>
<pdfrwt beam="2">  1       21 0.49926938E-01 0.19484224E+03</pdfrwt>
<totfact> 0.61583490E+04</totfact>
</mgrwt>
</event>
<event>
 4    2  0.4063641E+000  0.1855232E+03  0.7546771E-02  0.1162562E+00
         21   -1    0    0  501  502  0.00000000000E+00  0.00000000000E+00  0.21751400821E+03  0.21751400821E+03  0.00000000000E+00 0.  1.
         21   -1    0    0  502  503 -0.00000000000E+00 -0.00000000000E+00 -0.15884073603E+03  0.15884073603E+03  0.00000000000E+00 0.  1.
          6    1    1    2  501    0  0.41024491201E+02  0.52979875287E+02  0.17740192701E+02  0.18636949992E+03  0.17300000000E+03 0.  1.
         -6    1    1    2    0  503 -0.41024491201E+02 -0.52979875287E+02  0.40933079483E+02  0.18998524432E+03  0.17300000000E+03 0.  1.
<mgrwt>
<rscale>  2 0.18552325E+03</rscale>
<asrwt>0</asrwt>
<pdfrwt beam="1">  1       21 0.33463694E-01 0.18552325E+03</pdfrwt>
<pdfrwt beam="2">  1       21 0.24437036E-01 0.18552325E+03</pdfrwt>
<totfact> 0.13637672E+05</totfact>
</mgrwt>
</event>
<event>
 4    2  0.4063641E+000  0.1791475E+03  0.7546771E-02  0.1168631E+00
         21   -1    0    0  501  502  0.00000000000E+00  0.00000000000E+00  0.32138404509E+03  0.32138404509E+03  0.00000000000E+00 0.  1.
         21   -1    0    0  502  503 -0.00000000000E+00 -0.00000000000E+00 -0.60762344022E+03  0.60762344022E+03  0.00000000000E+00 0.  1.
          6    1    1    2  501    0  0.42145671092E+02 -0.19712172311E+02  0.28150193673E+03  0.33367224594E+03  0.17300000000E+03 0.  1.
         -6    1    1    2    0  503 -0.42145671092E+02  0.19712172311E+02 -0.56774133186E+03  0.59533523936E+03  0.17300000000E+03 0.  1.
<mgrwt>
<rscale>  2 0.17914750E+03</rscale>
<asrwt>0</asrwt>
<pdfrwt beam="1">  1       21 0.49443699E-01 0.17914750E+03</pdfrwt>
<pdfrwt beam="2">  1       21 0.93480529E-01 0.17914750E+03</pdfrwt>
<totfact> 0.37946740E+03</totfact>
</mgrwt>
</event>
<event>
 4    2  0.4063641E+000  0.1809857E+03  0.7546771E-02  0.1166853E+00
         21   -1    0    0  501  502  0.00000000000E+00  0.00000000000E+00  0.65140247195E+03  0.65140247195E+03  0.00000000000E+00 0.  1.
         21   -1    0    0  502  503 -0.00000000000E+00 -0.00000000000E+00 -0.11973822917E+03  0.11973822917E+03  0.00000000000E+00 0.  1.
          6    1    1    2  501    0  0.29425172205E+02 -0.44282880418E+02  0.55948430836E+03  0.58802934073E+03  0.17300000000E+03 0.  1.
         -6    1    1    2    0  503 -0.29425172205E+02  0.44282880418E+02 -0.27820065579E+02  0.18311136040E+03  0.17300000000E+03 0.  1.
<mgrwt>
<rscale>  2 0.18098567E+03</rscale>
<asrwt>0</asrwt>
<pdfrwt beam="1">  1       21 0.10021576E+00 0.18098567E+03</pdfrwt>
<pdfrwt beam="2">  1       21 0.18421266E-01 0.18098567E+03</pdfrwt>
<totfact> 0.22125997E+04</totfact>
</mgrwt>
</event>
<event>
 4    2  0.4063641E+000  0.1798146E+03  0.7546771E-02  0.1167983E+00
         21   -1    0    0  501  502  0.00000000000E+00  0.00000000000E+00  0.26960956277E+02  0.26960956277E+02  0.00000000000E+00 0. -1.
         21   -1    0    0  502  503 -0.00000000000E+00 -0.00000000000E+00 -0.12123492902E+04  0.12123492902E+04  0.00000000000E+00 0. -1.
          6    1    1    2  501    0  0.42788697900E+02  0.23945994588E+02 -0.65707264906E+03  0.68123252232E+03  0.17300000000E+03 0. -1.
         -6    1    1    2    0  503 -0.42788697900E+02 -0.23945994588E+02 -0.52831568483E+03  0.55807772412E+03  0.17300000000E+03 0. -1.
<mgrwt>
<rscale>  2 0.17981458E+03</rscale>
<asrwt>0</asrwt>
<pdfrwt beam="1">  1       21 0.41478404E-02 0.17981458E+03</pdfrwt>
<pdfrwt beam="2">  1       21 0.18651523E+00 0.17981458E+03</pdfrwt>
<totfact> 0.61119113E+04</totfact>
</mgrwt>
</event>
<event>
 4    2  0.4063641E+000  0.1848975E+03  0.7546771E-02  0.1163146E+00
         21   -1    0    0  501  502  0.00000000000E+00  0.00000000000E+00  0.13866323912E+03  0.13866323912E+03  0.00000000000E+00 0.  1.
         21   -1    0    0  502  503 -0.00000000000E+00 -0.00000000000E+00 -0.25299476407E+03  0.25299476407E+03  0.00000000000E+00 0.  1.
          6    1    1    2  501    0  0.25847808341E+02  0.59916328126E+02 -0.25904333868E+02  0.18670326747E+03  0.17300000000E+03 0.  1.
         -6    1    1    2    0  503 -0.25847808341E+02 -0.59916328126E+02 -0.88427191076E+02  0.20495473572E+03  0.17300000000E+03 0.  1.
<mgrwt>
<rscale>  2 0.18489747E+03</rscale>
<asrwt>0</asrwt>
<pdfrwt beam="1">  1       21 0.21332806E-01 0.18489747E+03</pdfrwt>
<pdfrwt beam="2">  1       21 0.38922271E-01 0.18489747E+03</pdfrwt>
<totfact> 0.13052947E+05</totfact>
</mgrwt>
</event>
<event>
 4    2  0.4063641E+000  0.1882078E+03  0.7546771E-02  0.1160088E+00
         21   -1    0    0  501  502  0.00000000000E+00  0.00000000000E+00  0.48213033620E+03  0.48213033620E+03  0.00000000000E+00 0.  1.
         21   -1    0    0  502  503 -0.00000000000E+00 -0.00000000000E+00 -0.12375880171E+03  0.12375880171E+03  0.00000000000E+00 0.  1.
          6    1    1    2  501    0 -0.53364420872E+02  0.51433596249E+02  0.37229819584E+03  0.41716678064E+03  0.17300000000E+03 0.  1.
         -6    1    1    2    0  503  0.53364420872E+02 -0.51433596249E+02 -0.13926661359E+02  0.18872235727E+03  0.17300000000E+03 0.  1.
<mgrwt>
<rscale>  2 0.18820780E+03</rscale>
<asrwt>0</asrwt>
<pdfrwt beam="1">  1       21 0.74173897E-01 0.18820780E+03</pdfrwt>
<pdfrwt beam="2">  1       21 0.19039816E-01 0.18820780E+03</pdfrwt>
<totfact> 0.41323085E+04</totfact>
</mgrwt>
</event>
<event>
 4    2  0.4063641E+000  0.2414476E+03  0.7546771E-02  0.1118832E+00
         21   -1    0    0  503  502  0.00000000000E+00  0.00000000000E+00  0.83359783592E+02  0.83359783592E+02  0.00000000000E+00 0. -1.
         21   -1    0    0  501  503 -0.00000000000E+00 -0.00000000000E+00 -0.70066561120E+03  0.70066561120E+03  0.00000000000E+00 0.  1.
          6    1    1    2  501    0  0.16489182898E+03 -0.34331148244E+02 -0.32569539099E+03  0.40543116643E+03  0.17300000000E+03 0. -1.
         -6    1    1    2    0  502 -0.16489182898E+03  0.34331148244E+02 -0.29161043662E+03  0.37859422836E+03  0.17300000000E+03 0.  1.
<mgrwt>
<rscale>  2 0.24144760E+03</rscale>
<asrwt>0</asrwt>
<pdfrwt beam="1">  1       21 0.12824582E-01 0.24144760E+03</pdfrwt>
<pdfrwt beam="2">  1       21 0.10779471E+00 0.24144760E+03</pdfrwt>
<totfact> 0.34828553E+04</totfact>
</mgrwt>
</event>
<event>
 4    2  0.4063641E+000  0.2179996E+03  0.7546771E-02  0.1135383E+00
         21   -1    0    0  501  502  0.00000000000E+00  0.00000000000E+00  0.58691084464E+03  0.58691084464E+03  0.00000000000E+00 0. -1.
         21   -1    0    0  502  503 -0.00000000000E+00 -0.00000000000E+00 -0.11015727884E+03  0.11015727884E+03  0.00000000000E+00 0. -1.
          6    1    1    2  501    0 -0.13257120544E+03 -0.44362045840E+01  0.41777359696E+03  0.47123092294E+03  0.17300000000E+03 0. -1.
         -6    1    1    2    0  503  0.13257120544E+03  0.44362045840E+01  0.58979968840E+02  0.22583720054E+03  0.17300000000E+03 0. -1.
<mgrwt>
<rscale>  2 0.21799955E+03</rscale>
<asrwt>0</asrwt>
<pdfrwt beam="1">  1       21 0.90293974E-01 0.21799955E+03</pdfrwt>
<pdfrwt beam="2">  1       21 0.16947274E-01 0.21799955E+03</pdfrwt>
<totfact> 0.32267476E+04</totfact>
</mgrwt>
</event>
<event>
 4    2  0.4063641E+000  0.1938359E+03  0.7546771E-02  0.1155046E+00
         21   -1    0    0  503  502  0.00000000000E+00  0.00000000000E+00  0.19903250265E+03  0.19903250265E+03  0.00000000000E+00 0. -1.
         21   -1    0    0  501  503 -0.00000000000E+00 -0.00000000000E+00 -0.32550481672E+03  0.32550481672E+03  0.00000000000E+00 0. -1.
          6    1    1    2  501    0 -0.31692584384E+02 -0.81479642802E+02 -0.23321676234E+03  0.30325304670E+03  0.17300000000E+03 0. -1.
         -6    1    1    2    0  502  0.31692584384E+02  0.81479642802E+02  0.10674444827E+03  0.22128427267E+03  0.17300000000E+03 0. -1.
<mgrwt>
<rscale>  2 0.19383589E+03</rscale>
<asrwt>0</asrwt>
<pdfrwt beam="1">  1       21 0.30620385E-01 0.19383589E+03</pdfrwt>
<pdfrwt beam="2">  1       21 0.50077664E-01 0.19383589E+03</pdfrwt>
<totfact> 0.38867402E+04</totfact>
</mgrwt>
</event>
<event>
 4    2  0.4063641E+000  0.1853461E+03  0.7546771E-02  0.1162727E+00
         21   -1    0    0  501  502  0.00000000000E+00  0.00000000000E+00  0.31243174800E+03  0.31243174800E+03  0.00000000000E+00 0.  1.
         21   -1    0    0  502  503 -0.00000000000E+00 -0.00000000000E+00 -0.13989468946E+03  0.13989468946E+03  0.00000000000E+00 0.  1.
          6    1    1    2  501    0  0.66422413564E+02  0.34993451026E+01 -0.18360168672E+02  0.18625326369E+03  0.17300000000E+03 0.  1.
         -6    1    1    2    0  503 -0.66422413564E+02 -0.34993451026E+01  0.19089722721E+03  0.26607317376E+03  0.17300000000E+03 0.  1.
<mgrwt>
<rscale>  2 0.18534612E+03</rscale>
<asrwt>0</asrwt>
<pdfrwt beam="1">  1       21 0.48066422E-01 0.18534612E+03</pdfrwt>
<pdfrwt beam="2">  1       21 0.21522260E-01 0.18534612E+03</pdfrwt>
<totfact> 0.83451671E+04</totfact>
</mgrwt>
</event>
<event>
 4    2  0.4063641E+000  0.2067555E+03  0.7546771E-02  0.1144161E+00
         21   -1    0    0  501  502  0.00000000000E+00  0.00000000000E+00  0.39683206980E+03  0.39683206980E+03  0.00000000000E+00 0. -1.
         21   -1    0    0  502  503 -0.00000000000E+00 -0.00000000000E+00 -0.10930427071E+03  0.10930427071E+03  0.00000000000E+00 0.  1.
          6    1    1    2  501    0  0.29576713593E+02 -0.10928885766E+03  0.11332294359E+03  0.23577515972E+03  0.17300000000E+03 0. -1.
         -6    1    1    2    0  503 -0.29576713593E+02  0.10928885766E+03  0.17420485550E+03  0.27036118078E+03  0.17300000000E+03 0. -1.
<mgrwt>
<rscale>  2 0.20675550E+03</rscale>
<asrwt>0</asrwt>
<pdfrwt beam="1">  1       21 0.61051087E-01 0.20675550E+03</pdfrwt>
<pdfrwt beam="2">  1       21 0.16816042E-01 0.20675550E+03</pdfrwt>
<totfact> 0.78961965E+04</totfact>
</mgrwt>
</event>
<event>
 4    2  0.4063641E+000  0.2735086E+03  0.7546771E-02  0.1099288E+00
         21   -1    0    0  501  502  0.00000000000E+00  0.00000000000E+00  0.14340765300E+03  0.14340765300E+03  0.00000000000E+00 0. -1.
         21   -1    0    0  502  503 -0.00000000000E+00 -0.00000000000E+00 -0.52961158012E+03  0.52961158012E+03  0.00000000000E+00 0.  1.
          6    1    1    2  501    0 -0.25657245716E+02  0.21028470323E+03 -0.15181316468E+03  0.31281653991E+03  0.17300000000E+03 0. -1.
         -6    1    1    2    0  503  0.25657245716E+02 -0.21028470323E+03 -0.23439076244E+03  0.36020269320E+03  0.17300000000E+03 0.  1.
<mgrwt>
<rscale>  2 0.27350859E+03</rscale>
<asrwt>0</asrwt>
<pdfrwt beam="1">  1       21 0.22062716E-01 0.27350859E+03</pdfrwt>
<pdfrwt beam="2">  1       21 0.81478704E-01 0.27350859E+03</pdfrwt>
<totfact> 0.24315878E+04</totfact>
</mgrwt>
</event>
<event>
 4    2  0.4063641E+000  0.1940682E+03  0.7546771E-02  0.1154842E+00
         21   -1    0    0  503  502  0.00000000000E+00  0.00000000000E+00  0.10768827287E+04  0.10768827287E+04  0.00000000000E+00 0.  1.
         21   -1    0    0  501  503 -0.00000000000E+00 -0.00000000000E+00 -0.35607907848E+02  0.35607907848E+02  0.00000000000E+00 0.  1.
          6    1    1    2  501    0 -0.63626350433E+02  0.60705450616E+02  0.44639643146E+03  0.48675685740E+03  0.17300000000E+03 0.  1.
         -6    1    1    2    0  502  0.63626350433E+02 -0.60705450616E+02  0.59487838938E+03  0.62573377914E+03  0.17300000000E+03 0.  1.
<mgrwt>
<rscale>  2 0.19406819E+03</rscale>
<asrwt>0</asrwt>
<pdfrwt beam="1">  1       21 0.16567424E+00 0.19406819E+03</pdfrwt>
<pdfrwt beam="2">  1       21 0.54781405E-02 0.19406819E+03</pdfrwt>
<totfact> 0.52699690E+04</totfact>
</mgrwt>
</event>
<event>
 4    2  0.4063641E+000  0.1987213E+03  0.7546771E-02  0.1150822E+00
         21   -1    0    0  503  502  0.00000000000E+00  0.00000000000E+00  0.55083510189E+03  0.55083510189E+03  0.00000000000E+00 0. -1.
         21   -1    0    0  501  503 -0.00000000000E+00 -0.00000000000E+00 -0.10520941560E+03  0.10520941560E+03  0.00000000000E+00 0. -1.
          6    1    1    2  501    0 -0.93505991547E+02 -0.28596783998E+02  0.37666525400E+02  0.20225952053E+03  0.17300000000E+03 0. -1.
         -6    1    1    2    0  502  0.93505991547E+02  0.28596783998E+02  0.40795916089E+03  0.45378499695E+03  0.17300000000E+03 0. -1.
<mgrwt>
<rscale>  2 0.19872128E+03</rscale>
<asrwt>0</asrwt>
<pdfrwt beam="1">  1       21 0.84743860E-01 0.19872128E+03</pdfrwt>
<pdfrwt beam="2">  1       21 0.16186064E-01 0.19872128E+03</pdfrwt>
<totfact> 0.41057672E+04</totfact>
</mgrwt>
</event>
<event>
 4    2  0.4063641E+000  0.2630305E+03  0.7546771E-02  0.1105336E+00
         21   -1    0    0  501  502  0.00000000000E+00  0.00000000000E+00  0.89078947528E+03  0.89078947528E+03  0.00000000000E+00 0. -1.
         21   -1    0    0  502  503 -0.00000000000E+00 -0.00000000000E+00 -0.10662506012E+03  0.10662506012E+03  0.00000000000E+00 0.  1.
          6    1    1    2  501    0 -0.12208135632E+03  0.15605179285E+03  0.65197854979E+03  0.70303701823E+03  0.17300000000E+03 0. -1.
         -6    1    1    2    0  503  0.12208135632E+03 -0.15605179285E+03  0.13218586537E+03  0.29437751717E+03  0.17300000000E+03 0.  1.
<mgrwt>
<rscale>  2 0.26303045E+03</rscale>
<asrwt>0</asrwt>
<pdfrwt beam="1">  1       21 0.13704453E+00 0.26303045E+03</pdfrwt>
<pdfrwt beam="2">  1       21 0.16403856E-01 0.26303045E+03</pdfrwt>
<totfact> 0.12046415E+04</totfact>
</mgrwt>
</event>
<event>
 4    2  0.4063641E+000  0.1941377E+03  0.7546771E-02  0.1154781E+00
         21   -1    0    0  501  502  0.00000000000E+00  0.00000000000E+00  0.51422835612E+03  0.51422835612E+03  0.00000000000E+00 0. -1.
         21   -1    0    0  502  503 -0.00000000000E+00 -0.00000000000E+00 -0.98732179056E+02  0.98732179056E+02  0.00000000000E+00 0.  1.
          6    1    1    2  501    0 -0.58994300564E+02 -0.65422626359E+02  0.36331703115E+03  0.41193289825E+03  0.17300000000E+03 0. -1.
         -6    1    1    2    0  503  0.58994300564E+02  0.65422626359E+02  0.52179145914E+02  0.20102763692E+03  0.17300000000E+03 0.  1.
<mgrwt>
<rscale>  2 0.19413770E+03</rscale>
<asrwt>0</asrwt>
<pdfrwt beam="1">  1       21 0.79112053E-01 0.19413770E+03</pdfrwt>
<pdfrwt beam="2">  1       21 0.15189566E-01 0.19413770E+03</pdfrwt>
<totfact> 0.54041839E+04</totfact>
</mgrwt>
</event>
<event>
 4    2  0.4063641E+000  0.1881403E+03  0.7546771E-02  0.1160149E+00
         21   -1    0    0  501  502  0.00000000000E+00  0.00000000000E+00  0.66921393188E+03  0.66921393188E+03  0.00000000000E+00 0. -1.
         21   -1    0    0  502  503 -0.00000000000E+00 -0.00000000000E+00 -0.58726787641E+02  0.58726787641E+02  0.00000000000E+00 0.  1.
          6    1    1    2  501    0 -0.38939889709E+02  0.62860519720E+02  0.41995895958E+03  0.46017636585E+03  0.17300000000E+03 0. -1.
         -6    1    1    2    0  503  0.38939889709E+02 -0.62860519720E+02  0.19052818466E+03  0.26776435367E+03  0.17300000000E+03 0.  1.
<mgrwt>
<rscale>  2 0.18814027E+03</rscale>
<asrwt>0</asrwt>
<pdfrwt beam="1">  1       21 0.10295598E+00 0.18814027E+03</pdfrwt>
<pdfrwt beam="2">  1       21 0.90348909E-02 0.18814027E+03</pdfrwt>
<totfact> 0.74456117E+04</totfact>
</mgrwt>
</event>
<event>
 4    2  0.4063641E+000  0.3590399E+03  0.7546771E-02  0.1058965E+00
         21   -1    0    0  503  502  0.00000000000E+00  0.00000000000E+00  0.10211127135E+04  0.10211127135E+04  0.00000000000E+00 0.  1.
         21   -1    0    0  501  503 -0.00000000000E+00 -0.00000000000E+00 -0.26722524466E+03  0.26722524466E+03  0.00000000000E+00 0.  1.
          6    1    1    2  501    0 -0.10848619860E+03  0.29531574352E+03 -0.90943609130E+02  0.37037870309E+03  0.17300000000E+03 0.  1.
         -6    1    1    2    0  502  0.10848619860E+03 -0.29531574352E+03  0.84483107796E+03  0.91795925506E+03  0.17300000000E+03 0.  1.
<mgrwt>
<rscale>  2 0.35903989E+03</rscale>
<asrwt>0</asrwt>
<pdfrwt beam="1">  1       21 0.15709426E+00 0.35903989E+03</pdfrwt>
<pdfrwt beam="2">  1       21 0.41111577E-01 0.35903989E+03</pdfrwt>
<totfact> 0.13332616E+03</totfact>
</mgrwt>
</event>
<event>
 4    2  0.4063641E+000  0.2579766E+03  0.7546771E-02  0.1108365E+00
         21   -1    0    0  503  502  0.00000000000E+00  0.00000000000E+00  0.34313052678E+03  0.34313052678E+03  0.00000000000E+00 0.  1.
         21   -1    0    0  501  503 -0.00000000000E+00 -0.00000000000E+00 -0.19849028700E+03  0.19849028700E+03  0.00000000000E+00 0.  1.
          6    1    1    2  501    0  0.11997139947E+03  0.14909665482E+03  0.31385700043E+02  0.25987883972E+03  0.17300000000E+03 0.  1.
         -6    1    1    2    0  502 -0.11997139947E+03 -0.14909665482E+03  0.11325453974E+03  0.28174197405E+03  0.17300000000E+03 0.  1.
<mgrwt>
<rscale>  2 0.25797664E+03</rscale>
<asrwt>0</asrwt>
<pdfrwt beam="1">  1       21 0.52789312E-01 0.25797664E+03</pdfrwt>
<pdfrwt beam="2">  1       21 0.30536967E-01 0.25797664E+03</pdfrwt>
<totfact> 0.33930284E+04</totfact>
</mgrwt>
</event>
<event>
 4    2  0.4063641E+000  0.3207034E+03  0.7546771E-02  0.1075326E+00
         21   -1    0    0  503  502  0.00000000000E+00  0.00000000000E+00  0.14341454867E+03  0.14341454867E+03  0.00000000000E+00 0. -1.
         21   -1    0    0  501  503 -0.00000000000E+00 -0.00000000000E+00 -0.78617749026E+03  0.78617749026E+03  0.00000000000E+00 0.  1.
          6    1    1    2  501    0  0.26796525374E+03 -0.33410901188E+02 -0.45910017104E+03  0.56002110012E+03  0.17300000000E+03 0.  1.
         -6    1    1    2    0  502 -0.26796525374E+03  0.33410901188E+02 -0.18366277054E+03  0.36957093881E+03  0.17300000000E+03 0. -1.
<mgrwt>
<rscale>  2 0.32070339E+03</rscale>
<asrwt>0</asrwt>
<pdfrwt beam="1">  1       21 0.22063777E-01 0.32070339E+03</pdfrwt>
<pdfrwt beam="2">  1       21 0.12095038E+00 0.32070339E+03</pdfrwt>
<totfact> 0.92361242E+03</totfact>
</mgrwt>
</event>
<event>
 4    2  0.4063641E+000  0.1923418E+03  0.7546771E-02  0.1156366E+00
         21   -1    0    0  503  502  0.00000000000E+00  0.00000000000E+00  0.89434868800E+02  0.89434868800E+02  0.00000000000E+00 0. -1.
         21   -1    0    0  501  503 -0.00000000000E+00 -0.00000000000E+00 -0.42373340411E+03  0.42373340411E+03  0.00000000000E+00 0. -1.
          6    1    1    2  501    0  0.47993815604E+02 -0.69014308382E+02 -0.12758245736E+03  0.23080871847E+03  0.17300000000E+03 0. -1.
         -6    1    1    2    0  502 -0.47993815604E+02  0.69014308382E+02 -0.20671607795E+03  0.28235955444E+03  0.17300000000E+03 0. -1.
<mgrwt>
<rscale>  2 0.19234183E+03</rscale>
<asrwt>0</asrwt>
<pdfrwt beam="1">  1       21 0.13759210E-01 0.19234183E+03</pdfrwt>
<pdfrwt beam="2">  1       21 0.65189755E-01 0.19234183E+03</pdfrwt>
<totfact> 0.99385071E+04</totfact>
</mgrwt>
</event>
<event>
 4    2  0.4063641E+000  0.3106605E+03  0.7546771E-02  0.1080030E+00
         21   -1    0    0  501  502  0.00000000000E+00  0.00000000000E+00  0.81012987428E+03  0.81012987428E+03  0.00000000000E+00 0.  1.
         21   -1    0    0  502  503 -0.00000000000E+00 -0.00000000000E+00 -0.16446905502E+03  0.16446905502E+03  0.00000000000E+00 0.  1.
          6    1    1    2  501    0 -0.11428301866E+03  0.23134458805E+03  0.57868609043E+03  0.65680097293E+03  0.17300000000E+03 0.  1.
         -6    1    1    2    0  503  0.11428301866E+03 -0.23134458805E+03  0.66974728830E+02  0.31779795637E+03  0.17300000000E+03 0.  1.
<mgrwt>
<rscale>  2 0.31066047E+03</rscale>
<asrwt>0</asrwt>
<pdfrwt beam="1">  1       21 0.12463536E+00 0.31066047E+03</pdfrwt>
<pdfrwt beam="2">  1       21 0.25302932E-01 0.31066047E+03</pdfrwt>
<totfact> 0.66112601E+03</totfact>
</mgrwt>
</event>
<event>
 4    2  0.4063641E+000  0.1793459E+03  0.7546771E-02  0.1168438E+00
         21   -1    0    0  503  502  0.00000000000E+00  0.00000000000E+00  0.60681069190E+03  0.60681069190E+03  0.00000000000E+00 0.  1.
         21   -1    0    0  501  503 -0.00000000000E+00 -0.00000000000E+00 -0.93026570528E+02  0.93026570528E+02  0.00000000000E+00 0.  1.
          6    1    1    2  501    0 -0.17347417856E+02 -0.43988836813E+02  0.27381786899E+02  0.18142412443E+03  0.17300000000E+03 0.  1.
         -6    1    1    2    0  502  0.17347417856E+02  0.43988836813E+02  0.48640233448E+03  0.51841313800E+03  0.17300000000E+03 0.  1.
<mgrwt>
<rscale>  2 0.17934590E+03</rscale>
<asrwt>0</asrwt>
<pdfrwt beam="1">  1       21 0.93355489E-01 0.17934590E+03</pdfrwt>
<pdfrwt beam="2">  1       21 0.14311780E-01 0.17934590E+03</pdfrwt>
<totfact> 0.41511079E+04</totfact>
</mgrwt>
</event>
<event>
 4    2  0.4063641E+000  0.1734063E+03  0.7546771E-02  0.1174341E+00
         21   -1    0    0  503  502  0.00000000000E+00  0.00000000000E+00  0.30920566246E+03  0.30920566246E+03  0.00000000000E+00 0. -1.
         21   -1    0    0  501  503 -0.00000000000E+00 -0.00000000000E+00 -0.14304579509E+03  0.14304579509E+03  0.00000000000E+00 0. -1.
          6    1    1    2  501    0 -0.31982329563E+00 -0.11858940631E+02 -0.44867952104E+02  0.17911691681E+03  0.17300000000E+03 0. -1.
         -6    1    1    2    0  502  0.31982329563E+00  0.11858940631E+02  0.21102781947E+03  0.27313454075E+03  0.17300000000E+03 0. -1.
<mgrwt>
<rscale>  2 0.17340628E+03</rscale>
<asrwt>0</asrwt>
<pdfrwt beam="1">  1       21 0.47570102E-01 0.17340628E+03</pdfrwt>
<pdfrwt beam="2">  1       21 0.22007046E-01 0.17340628E+03</pdfrwt>
<totfact> 0.82170147E+04</totfact>
</mgrwt>
</event>
<event>
 4    2  0.4063641E+000  0.1855780E+03  0.7546771E-02  0.1162511E+00
         21   -1    0    0  503  502  0.00000000000E+00  0.00000000000E+00  0.14698758047E+03  0.14698758047E+03  0.00000000000E+00 0. -1.
         21   -1    0    0  501  503 -0.00000000000E+00 -0.00000000000E+00 -0.41898779892E+03  0.41898779892E+03  0.00000000000E+00 0. -1.
          6    1    1    2  501    0 -0.59800915580E+01 -0.66891298886E+02 -0.32388238850E+03  0.37328140717E+03  0.17300000000E+03 0. -1.
         -6    1    1    2    0  502  0.59800915580E+01  0.66891298886E+02  0.51882170045E+02  0.19269397222E+03  0.17300000000E+03 0. -1.
<mgrwt>
<rscale>  2 0.18557804E+03</rscale>
<asrwt>0</asrwt>
<pdfrwt beam="1">  1       21 0.22613474E-01 0.18557804E+03</pdfrwt>
<pdfrwt beam="2">  1       21 0.64459661E-01 0.18557804E+03</pdfrwt>
<totfact> 0.40818651E+04</totfact>
</mgrwt>
</event>
<event>
 4    2  0.4063641E+000  0.2249475E+03  0.7546771E-02  0.1130247E+00
         21   -1    0    0  503  502  0.00000000000E+00  0.00000000000E+00  0.51581882630E+03  0.51581882630E+03  0.00000000000E+00 0. -1.
         21   -1    0    0  501  503 -0.00000000000E+00 -0.00000000000E+00 -0.98120701771E+02  0.98120701771E+02  0.00000000000E+00 0.  1.
          6    1    1    2  501    0 -0.88771851124E+02  0.11310145567E+03  0.21340004196E+03  0.31006605544E+03  0.17300000000E+03 0. -1.
         -6    1    1    2    0  502  0.88771851124E+02 -0.11310145567E+03  0.20429808257E+03  0.30387347263E+03  0.17300000000E+03 0.  1.
<mgrwt>
<rscale>  2 0.22494751E+03</rscale>
<asrwt>0</asrwt>
<pdfrwt beam="1">  1       21 0.79356741E-01 0.22494751E+03</pdfrwt>
<pdfrwt beam="2">  1       21 0.15095493E-01 0.22494751E+03</pdfrwt>
<totfact> 0.53491544E+04</totfact>
</mgrwt>
</event>
<event>
 4    2  0.4063641E+000  0.1797942E+03  0.7546771E-02  0.1168002E+00
         21   -1    0    0  503  502  0.00000000000E+00  0.00000000000E+00  0.12013218485E+03  0.12013218485E+03  0.00000000000E+00 0. -1.
         21   -1    0    0  501  503 -0.00000000000E+00 -0.00000000000E+00 -0.31853242002E+03  0.31853242002E+03  0.00000000000E+00 0. -1.
          6    1    1    2  501    0 -0.48526832122E+02 -0.64879550127E+01 -0.18561550617E+03  0.25841645289E+03  0.17300000000E+03 0. -1.
         -6    1    1    2    0  502  0.48526832122E+02  0.64879550127E+01 -0.12784728994E+02  0.18024815198E+03  0.17300000000E+03 0. -1.
<mgrwt>
<rscale>  2 0.17979418E+03</rscale>
<asrwt>0</asrwt>
<pdfrwt beam="1">  1       21 0.18481875E-01 0.17979418E+03</pdfrwt>
<pdfrwt beam="2">  1       21 0.49004986E-01 0.17979418E+03</pdfrwt>
<totfact> 0.10673527E+05</totfact>
</mgrwt>
</event>
<event>
 4    2  0.4063641E+000  0.1953667E+03  0.7546771E-02  0.1153708E+00
         21   -1    0    0  501  502  0.00000000000E+00  0.00000000000E+00  0.52681189479E+02  0.52681189479E+02  0.00000000000E+00 0. -1.
         21   -1    0    0  502  503 -0.00000000000E+00 -0.00000000000E+00 -0.10460290643E+04  0.10460290643E+04  0.00000000000E+00 0. -1.
          6    1    1    2  501    0  0.47844571775E+02 -0.77136605088E+02 -0.19210664910E+03  0.27399475090E+03  0.17300000000E+03 0. -1.
         -6    1    1    2    0  503 -0.47844571775E+02  0.77136605088E+02 -0.80124122576E+03  0.82471550292E+03  0.17300000000E+03 0. -1.
<mgrwt>
<rscale>  2 0.19536673E+03</rscale>
<asrwt>0</asrwt>
<pdfrwt beam="1">  1       21 0.81047990E-02 0.19536673E+03</pdfrwt>
<pdfrwt beam="2">  1       21 0.16092754E+00 0.19536673E+03</pdfrwt>
<totfact> 0.29019262E+04</totfact>
</mgrwt>
</event>
<event>
 4    2  0.4063641E+000  0.2638289E+03  0.7546771E-02  0.1104864E+00
         21   -1    0    0  501  502  0.00000000000E+00  0.00000000000E+00  0.62635251437E+02  0.62635251437E+02  0.00000000000E+00 0.  1.
         21   -1    0    0  502  503 -0.00000000000E+00 -0.00000000000E+00 -0.11399480902E+04  0.11399480902E+04  0.00000000000E+00 0. -1.
          6    1    1    2  501    0 -0.18986623054E+03  0.60228570745E+02 -0.63400143757E+03  0.68670480490E+03  0.17300000000E+03 0. -1.
         -6    1    1    2    0  503  0.18986623054E+03 -0.60228570745E+02 -0.44331140117E+03  0.51587853672E+03  0.17300000000E+03 0.  1.
<mgrwt>
<rscale>  2 0.26382886E+03</rscale>
<asrwt>0</asrwt>
<pdfrwt beam="1">  1       21 0.96361933E-02 0.26382886E+03</pdfrwt>
<pdfrwt beam="2">  1       21 0.17537661E+00 0.26382886E+03</pdfrwt>
<totfact> 0.16192205E+04</totfact>
</mgrwt>
</event>
<event>
 4    2  0.4063641E+000  0.2592178E+03  0.7546771E-02  0.1107614E+00
         21   -1    0    0  501  502  0.00000000000E+00  0.00000000000E+00  0.12679282047E+04  0.12679282047E+04  0.00000000000E+00 0.  1.
         21   -1    0    0  502  503 -0.00000000000E+00 -0.00000000000E+00 -0.12257646907E+03  0.12257646907E+03  0.00000000000E+00 0.  1.
          6    1    1    2  501    0  0.16458054715E+03  0.10088656452E+03  0.10965002388E+04  0.11267238478E+04  0.17300000000E+03 0.  1.
         -6    1    1    2    0  503 -0.16458054715E+03 -0.10088656452E+03  0.48851496760E+02  0.26378082595E+03  0.17300000000E+03 0.  1.
<mgrwt>
<rscale>  2 0.25921778E+03</rscale>
<asrwt>0</asrwt>
<pdfrwt beam="1">  1       21 0.19506587E+00 0.25921778E+03</pdfrwt>
<pdfrwt beam="2">  1       21 0.18857919E-01 0.25921778E+03</pdfrwt>
<totfact> 0.35191928E+03</totfact>
</mgrwt>
</event>
<event>
 4    2  0.4063641E+000  0.2277519E+03  0.7546771E-02  0.1128232E+00
         21   -1    0    0  501  502  0.00000000000E+00  0.00000000000E+00  0.21421638666E+03  0.21421638666E+03  0.00000000000E+00 0. -1.
         21   -1    0    0  502  503 -0.00000000000E+00 -0.00000000000E+00 -0.39998021345E+03  0.39998021345E+03  0.00000000000E+00 0. -1.
          6    1    1    2  501    0  0.13596892806E+03 -0.58773828934E+02  0.10003193924E+03  0.24875148488E+03  0.17300000000E+03 0. -1.
         -6    1    1    2    0  503 -0.13596892806E+03  0.58773828934E+02 -0.28579576603E+03  0.36544511523E+03  0.17300000000E+03 0. -1.
<mgrwt>
<rscale>  2 0.22775187E+03</rscale>
<asrwt>0</asrwt>
<pdfrwt beam="1">  1       21 0.32956367E-01 0.22775187E+03</pdfrwt>
<pdfrwt beam="2">  1       21 0.61535417E-01 0.22775187E+03</pdfrwt>
<totfact> 0.21323326E+04</totfact>
</mgrwt>
</event>
<event>
 4    2  0.4063641E+000  0.2941248E+03  0.7546771E-02  0.1088215E+00
         21   -1    0    0  503  502  0.00000000000E+00  0.00000000000E+00  0.19130442296E+03  0.19130442296E+03  0.00000000000E+00 0. -1.
         21   -1    0    0  501  503 -0.00000000000E+00 -0.00000000000E+00 -0.74178543708E+03  0.74178543708E+03  0.00000000000E+00 0.  1.
          6    1    1    2  501    0  0.50422425830E+01  0.23781286290E+03 -0.56673927017E+03  0.63851607835E+03  0.17300000000E+03 0.  1.
         -6    1    1    2    0  502 -0.50422425830E+01 -0.23781286290E+03  0.16258256048E+02  0.29457378169E+03  0.17300000000E+03 0. -1.
<mgrwt>
<rscale>  2 0.29412477E+03</rscale>
<asrwt>0</asrwt>
<pdfrwt beam="1">  1       21 0.29431450E-01 0.29412477E+03</pdfrwt>
<pdfrwt beam="2">  1       21 0.11412084E+00 0.29412477E+03</pdfrwt>
<totfact> 0.61924062E+03</totfact>
</mgrwt>
</event>
<event>
 4    2  0.4063641E+000  0.1783693E+03  0.7546771E-02  0.1169391E+00
         21   -1    0    0  501  502  0.00000000000E+00  0.00000000000E+00  0.97572690349E+02  0.97572690349E+02  0.00000000000E+00 0.  1.
         21   -1    0    0  502  503 -0.00000000000E+00 -0.00000000000E+00 -0.36776263902E+03  0.36776263902E+03  0.00000000000E+00 0.  1.
          6    1    1    2  501    0  0.69281146653E+01  0.42879105546E+02 -0.56756131535E+02  0.18718139580E+03  0.17300000000E+03 0.  1.
         -6    1    1    2    0  503 -0.69281146653E+01 -0.42879105546E+02 -0.21343381714E+03  0.27815393358E+03  0.17300000000E+03 0.  1.
<mgrwt>
<rscale>  2 0.17836933E+03</rscale>
<asrwt>0</asrwt>
<pdfrwt beam="1">  1       21 0.15011183E-01 0.17836933E+03</pdfrwt>
<pdfrwt beam="2">  1       21 0.56578867E-01 0.17836933E+03</pdfrwt>
<totfact> 0.11567561E+05</totfact>
</mgrwt>
</event>
<event>
 4    2  0.4063641E+000  0.1738593E+03  0.7546771E-02  0.1173882E+00
         21   -1    0    0  501  502  0.00000000000E+00  0.00000000000E+00  0.62416806479E+02  0.62416806479E+02  0.00000000000E+00 0.  1.
         21   -1    0    0  502  503 -0.00000000000E+00 -0.00000000000E+00 -0.61333283898E+03  0.61333283898E+03  0.00000000000E+00 0.  1.
          6    1    1    2  501    0 -0.11793942661E+02  0.12607322049E+02 -0.12047073164E+03  0.21151888529E+03  0.17300000000E+03 0.  1.
         -6    1    1    2    0  503  0.11793942661E+02 -0.12607322049E+02 -0.43044530086E+03  0.46423076016E+03  0.17300000000E+03 0.  1.
<mgrwt>
<rscale>  2 0.17385926E+03</rscale>
<asrwt>0</asrwt>
<pdfrwt beam="1">  1       21 0.96025858E-02 0.17385926E+03</pdfrwt>
<pdfrwt beam="2">  1       21 0.94358896E-01 0.17385926E+03</pdfrwt>
<totfact> 0.82706506E+04</totfact>
</mgrwt>
</event>
<event>
 4    2  0.4063641E+000  0.2039561E+03  0.7546771E-02  0.1146444E+00
         21   -1    0    0  501  502  0.00000000000E+00  0.00000000000E+00  0.15653684451E+03  0.15653684451E+03  0.00000000000E+00 0.  1.
         21   -1    0    0  502  503 -0.00000000000E+00 -0.00000000000E+00 -0.36908593669E+03  0.36908593669E+03  0.00000000000E+00 0. -1.
          6    1    1    2  501    0 -0.94611570996E+02  0.52131904576E+02  0.32793501031E+02  0.20657564849E+03  0.17300000000E+03 0.  1.
         -6    1    1    2    0  503  0.94611570996E+02 -0.52131904576E+02 -0.24534259322E+03  0.31904713270E+03  0.17300000000E+03 0. -1.
<mgrwt>
<rscale>  2 0.20395609E+03</rscale>
<asrwt>0</asrwt>
<pdfrwt beam="1">  1       21 0.24082592E-01 0.20395609E+03</pdfrwt>
<pdfrwt beam="2">  1       21 0.56782451E-01 0.20395609E+03</pdfrwt>
<totfact> 0.47149909E+04</totfact>
</mgrwt>
</event>
<event>
 4    2  0.4063641E+000  0.2171143E+03  0.7546771E-02  0.1136053E+00
         21   -1    0    0  501  502  0.00000000000E+00  0.00000000000E+00  0.25517642380E+04  0.25517642380E+04  0.00000000000E+00 0. -1.
         21   -1    0    0  502  503 -0.00000000000E+00 -0.00000000000E+00 -0.18253832659E+03  0.18253832659E+03  0.00000000000E+00 0. -1.
          6    1    1    2  501    0 -0.10618768767E+02  0.13075493408E+03  0.24807413138E+04  0.24902241018E+04  0.17300000000E+03 0. -1.
         -6    1    1    2    0  503  0.10618768767E+02 -0.13075493408E+03 -0.11151540239E+03  0.24407846281E+03  0.17300000000E+03 0. -1.
<mgrwt>
<rscale>  2 0.21711428E+03</rscale>
<asrwt>0</asrwt>
<pdfrwt beam="1">  1       21 0.39257909E+00 0.21711428E+03</pdfrwt>
<pdfrwt beam="2">  1       21 0.28082821E-01 0.21711428E+03</pdfrwt>
<totfact> 0.11255097E+02</totfact>
</mgrwt>
</event>
<event>
 4    2  0.4063641E+000  0.2221049E+03  0.7546771E-02  0.1132323E+00
         21   -1    0    0  503  502  0.00000000000E+00  0.00000000000E+00  0.38393051024E+03  0.38393051024E+03  0.00000000000E+00 0.  1.
         21   -1    0    0  501  503 -0.00000000000E+00 -0.00000000000E+00 -0.19123344239E+03  0.19123344239E+03  0.00000000000E+00 0.  1.
          6    1    1    2  501    0  0.58030522487E+02  0.12662567221E+03 -0.68380284131E+02  0.23239291225E+03  0.17300000000E+03 0.  1.
         -6    1    1    2    0  502 -0.58030522487E+02 -0.12662567221E+03  0.26107735198E+03  0.34277104038E+03  0.17300000000E+03 0.  1.
<mgrwt>
<rscale>  2 0.22210494E+03</rscale>
<asrwt>0</asrwt>
<pdfrwt beam="1">  1       21 0.59066232E-01 0.22210494E+03</pdfrwt>
<pdfrwt beam="2">  1       21 0.29420530E-01 0.22210494E+03</pdfrwt>
<totfact> 0.29196932E+04</totfact>
</mgrwt>
</event>
<event>
 4    2  0.4063641E+000  0.1852878E+03  0.7546771E-02  0.1162781E+00
         21   -1    0    0  503  502  0.00000000000E+00  0.00000000000E+00  0.28663221983E+03  0.28663221983E+03  0.00000000000E+00 0. -1.
         21   -1    0    0  501  503 -0.00000000000E+00 -0.00000000000E+00 -0.14630392240E+03  0.14630392240E+03  0.00000000000E+00 0. -1.
          6    1    1    2  501    0 -0.66333565695E+02  0.15551605951E+01 -0.22012379374E+02  0.18659074282E+03  0.17300000000E+03 0. -1.
         -6    1    1    2    0  502  0.66333565695E+02 -0.15551605951E+01  0.16234067680E+03  0.24634539940E+03  0.17300000000E+03 0. -1.
<mgrwt>
<rscale>  2 0.18528778E+03</rscale>
<asrwt>0</asrwt>
<pdfrwt beam="1">  1       21 0.44097265E-01 0.18528778E+03</pdfrwt>
<pdfrwt beam="2">  1       21 0.22508296E-01 0.18528778E+03</pdfrwt>
<totfact> 0.91590306E+04</totfact>
</mgrwt>
</event>
<event>
 4    2  0.4063641E+000  0.2039934E+03  0.7546771E-02  0.1146413E+00
         21   -1    0    0  501  502  0.00000000000E+00  0.00000000000E+00  0.28088245662E+03  0.28088245662E+03  0.00000000000E+00 0. -1.
         21   -1    0    0  502  503 -0.00000000000E+00 -0.00000000000E+00 -0.48588957934E+03  0.48588957934E+03  0.00000000000E+00 0. -1.
          6    1    1    2  501    0  0.40133785671E+02 -0.10036724025E+03  0.21713352058E+03  0.29792661752E+03  0.17300000000E+03 0. -1.
         -6    1    1    2    0  503 -0.40133785671E+02  0.10036724025E+03 -0.42214064329E+03  0.46884541844E+03  0.17300000000E+03 0. -1.
<mgrwt>
<rscale>  2 0.20399339E+03</rscale>
<asrwt>0</asrwt>
<pdfrwt beam="1">  1       21 0.43212686E-01 0.20399339E+03</pdfrwt>
<pdfrwt beam="2">  1       21 0.74752242E-01 0.20399339E+03</pdfrwt>
<totfact> 0.81800655E+03</totfact>
</mgrwt>
</event>
<event>
 4    2  0.4063641E+000  0.1859460E+03  0.7546771E-02  0.1162169E+00
         21   -1    0    0  503  502  0.00000000000E+00  0.00000000000E+00  0.99437715745E+02  0.99437715745E+02  0.00000000000E+00 0.  1.
         21   -1    0    0  501  503 -0.00000000000E+00 -0.00000000000E+00 -0.44273212741E+03  0.44273212741E+03  0.00000000000E+00 0. -1.
          6    1    1    2  501    0  0.49774226374E+02  0.46577074917E+02 -0.29723221713E+03  0.35060360583E+03  0.17300000000E+03 0. -1.
         -6    1    1    2    0  502 -0.49774226374E+02 -0.46577074917E+02 -0.46062194536E+02  0.19156623733E+03  0.17300000000E+03 0. -1.
<mgrwt>
<rscale>  2 0.18594595E+03</rscale>
<asrwt>0</asrwt>
<pdfrwt beam="1">  1       21 0.15298110E-01 0.18594595E+03</pdfrwt>
<pdfrwt beam="2">  1       21 0.68112634E-01 0.18594595E+03</pdfrwt>
<totfact> 0.74682620E+04</totfact>
</mgrwt>
</event>
<event>
 4    2  0.4063641E+000  0.2820346E+03  0.7546771E-02  0.1094583E+00
         21   -1    0    0  503  502  0.00000000000E+00  0.00000000000E+00  0.29551524621E+03  0.29551524621E+03  0.00000000000E+00 0. -1.
         21   -1    0    0  501  503 -0.00000000000E+00 -0.00000000000E+00 -0.27371292862E+03  0.27371292862E+03  0.00000000000E+00 0.  1.
          6    1    1    2  501    0  0.21880871858E+03  0.41680356031E+02  0.47572795424E+02  0.28601866769E+03  0.17300000000E+03 0. -1.
         -6    1    1    2    0  502 -0.21880871858E+03 -0.41680356031E+02 -0.25770477833E+02  0.28320950713E+03  0.17300000000E+03 0.  1.
<mgrwt>
<rscale>  2 0.28203459E+03</rscale>
<asrwt>0</asrwt>
<pdfrwt beam="1">  1       21 0.45463884E-01 0.28203459E+03</pdfrwt>
<pdfrwt beam="2">  1       21 0.42109681E-01 0.28203459E+03</pdfrwt>
<totfact> 0.24100835E+04</totfact>
</mgrwt>
</event>
<event>
 4    2  0.4063641E+000  0.1779327E+03  0.7546771E-02  0.1169819E+00
         21   -1    0    0  503  502  0.00000000000E+00  0.00000000000E+00  0.22022863060E+04  0.22022863060E+04  0.00000000000E+00 0. -1.
         21   -1    0    0  501  503 -0.00000000000E+00 -0.00000000000E+00 -0.31659099733E+02  0.31659099733E+02  0.00000000000E+00 0. -1.
          6    1    1    2  501    0  0.13044392335E+01  0.41585195357E+02  0.26002791549E+03  0.31507863601E+03  0.17300000000E+03 0. -1.
         -6    1    1    2    0  502 -0.13044392335E+01 -0.41585195357E+02  0.19105992907E+04  0.19188667697E+04  0.17300000000E+03 0. -1.
<mgrwt>
<rscale>  2 0.17793266E+03</rscale>
<asrwt>0</asrwt>
<pdfrwt beam="1">  1       21 0.33881316E+00 0.17793266E+03</pdfrwt>
<pdfrwt beam="2">  1       21 0.48706324E-02 0.17793266E+03</pdfrwt>
<totfact> 0.58300901E+03</totfact>
</mgrwt>
</event>
<event>
 4    2  0.4063641E+000  0.1934065E+03  0.7546771E-02  0.1155424E+00
         21   -1    0    0  503  502  0.00000000000E+00  0.00000000000E+00  0.20741064892E+02  0.20741064892E+02  0.00000000000E+00 0. -1.
         21   -1    0    0  501  503 -0.00000000000E+00 -0.00000000000E+00 -0.23794872374E+04  0.23794872374E+04  0.00000000000E+00 0. -1.
          6    1    1    2  501    0  0.83743861545E+02 -0.21541807618E+02 -0.17698393008E+04  0.17803755881E+04  0.17300000000E+03 0. -1.
         -6    1    1    2    0  502 -0.83743861545E+02  0.21541807618E+02 -0.58890687166E+03  0.61985271421E+03  0.17300000000E+03 0. -1.
<mgrwt>
<rscale>  2 0.19340652E+03</rscale>
<asrwt>0</asrwt>
<pdfrwt beam="1">  1       21 0.31909360E-02 0.19340652E+03</pdfrwt>
<pdfrwt beam="2">  1       21 0.36607462E+00 0.19340652E+03</pdfrwt>
<totfact> 0.80077584E+03</totfact>
</mgrwt>
</event>
<event>
 4    2  0.4063641E+000  0.1811929E+03  0.7546771E-02  0.1166654E+00
         21   -1    0    0  501  502  0.00000000000E+00  0.00000000000E+00  0.47688932062E+02  0.47688932062E+02  0.00000000000E+00 0.  1.
         21   -1    0    0  502  503 -0.00000000000E+00 -0.00000000000E+00 -0.94670366035E+03  0.94670366035E+03  0.00000000000E+00 0.  1.
          6    1    1    2  501    0 -0.23451942995E+02 -0.48496002513E+02 -0.18981780384E+03  0.26241504253E+03  0.17300000000E+03 0.  1.
         -6    1    1    2    0  503  0.23451942995E+02  0.48496002513E+02 -0.70919692445E+03  0.73197754989E+03  0.17300000000E+03 0.  1.
<mgrwt>
<rscale>  2 0.18119287E+03</rscale>
<asrwt>0</asrwt>
<pdfrwt beam="1">  1       21 0.73367591E-02 0.18119287E+03</pdfrwt>
<pdfrwt beam="2">  1       21 0.14564671E+00 0.18119287E+03</pdfrwt>
<totfact> 0.45324017E+04</totfact>
</mgrwt>
</event>
<event>
 4    2  0.4063641E+000  0.2324307E+03  0.7546771E-02  0.1124941E+00
         21   -1    0    0  503  502  0.00000000000E+00  0.00000000000E+00  0.12778232027E+03  0.12778232027E+03  0.00000000000E+00 0. -1.
         21   -1    0    0  501  503 -0.00000000000E+00 -0.00000000000E+00 -0.43455692098E+03  0.43455692098E+03  0.00000000000E+00 0.  1.
          6    1    1    2  501    0  0.11676811799E+03  0.10227525137E+03 -0.19967125753E+03  0.30641904560E+03  0.17300000000E+03 0.  1.
         -6    1    1    2    0  502 -0.11676811799E+03 -0.10227525137E+03 -0.10710334318E+03  0.25592019565E+03  0.17300000000E+03 0. -1.
<mgrwt>
<rscale>  2 0.23243068E+03</rscale>
<asrwt>0</asrwt>
<pdfrwt beam="1">  1       21 0.19658819E-01 0.23243068E+03</pdfrwt>
<pdfrwt beam="2">  1       21 0.66854911E-01 0.23243068E+03</pdfrwt>
<totfact> 0.47949461E+04</totfact>
</mgrwt>
</event>
<event>
 4    2  0.4063641E+000  0.2027045E+03  0.7546771E-02  0.1147477E+00
         21   -1    0    0  503  502  0.00000000000E+00  0.00000000000E+00  0.50858887046E+02  0.50858887046E+02  0.00000000000E+00 0.  1.
         21   -1    0    0  501  503 -0.00000000000E+00 -0.00000000000E+00 -0.90194894854E+03  0.90194894854E+03  0.00000000000E+00 0.  1.
          6    1    1    2  501    0  0.78902829977E+02  0.70245786470E+02 -0.27171158275E+03  0.33899308443E+03  0.17300000000E+03 0.  1.
         -6    1    1    2    0  502 -0.78902829977E+02 -0.70245786470E+02 -0.57937847875E+03  0.61381475115E+03  0.17300000000E+03 0.  1.
<mgrwt>
<rscale>  2 0.20270453E+03</rscale>
<asrwt>0</asrwt>
<pdfrwt beam="1">  1       21 0.78244445E-02 0.20270453E+03</pdfrwt>
<pdfrwt beam="2">  1       21 0.13876137E+00 0.20270453E+03</pdfrwt>
<totfact> 0.45407624E+04</totfact>
</mgrwt>
</event>
<event>
 4    2  0.4063641E+000  0.2281134E+03  0.7546771E-02  0.1127975E+00
         21   -1    0    0  503  502  0.00000000000E+00  0.00000000000E+00  0.34986942941E+03  0.34986942941E+03  0.00000000000E+00 0. -1.
         21   -1    0    0  501  503 -0.00000000000E+00 -0.00000000000E+00 -0.17764951175E+03  0.17764951175E+03  0.00000000000E+00 0. -1.
          6    1    1    2  501    0 -0.85102764359E+02  0.12191891055E+03 -0.20311611976E+02  0.22901585716E+03  0.17300000000E+03 0. -1.
         -6    1    1    2    0  502  0.85102764359E+02 -0.12191891055E+03  0.19253152964E+03  0.29850308399E+03  0.17300000000E+03 0. -1.
<mgrwt>
<rscale>  2 0.22811335E+03</rscale>
<asrwt>0</asrwt>
<pdfrwt beam="1">  1       21 0.53826066E-01 0.22811335E+03</pdfrwt>
<pdfrwt beam="2">  1       21 0.27330694E-01 0.22811335E+03</pdfrwt>
<totfact> 0.40959044E+04</totfact>
</mgrwt>
</event>
<event>
 4    2  0.4063641E+000  0.2286561E+03  0.7546771E-02  0.1127589E+00
         21   -1    0    0  501  502  0.00000000000E+00  0.00000000000E+00  0.75934191537E+03  0.75934191537E+03  0.00000000000E+00 0. -1.
         21   -1    0    0  502  503 -0.00000000000E+00 -0.00000000000E+00 -0.86623809516E+03  0.86623809516E+03  0.00000000000E+00 0. -1.
          6    1    1    2  501    0 -0.19414744571E+02 -0.14824876091E+03  0.72637041303E+03  0.76151008158E+03  0.17300000000E+03 0. -1.
         -6    1    1    2    0  503  0.19414744571E+02  0.14824876091E+03 -0.83326659282E+03  0.86406992896E+03  0.17300000000E+03 0. -1.
<mgrwt>
<rscale>  2 0.22865613E+03</rscale>
<asrwt>0</asrwt>
<pdfrwt beam="1">  1       21 0.11682183E+00 0.22865613E+03</pdfrwt>
<pdfrwt beam="2">  1       21 0.13326740E+00 0.22865613E+03</pdfrwt>
<totfact> 0.21958497E+02</totfact>
</mgrwt>
</event>
<event>
 4    2  0.4063641E+000  0.1938367E+03  0.7546771E-02  0.1155046E+00
         21   -1    0    0  503  502  0.00000000000E+00  0.00000000000E+00  0.22301480201E+03  0.22301480201E+03  0.00000000000E+00 0.  1.
         21   -1    0    0  501  503 -0.00000000000E+00 -0.00000000000E+00 -0.25540111653E+03  0.25540111653E+03  0.00000000000E+00 0.  1.
          6    1    1    2  501    0 -0.86314086549E+02  0.13911611626E+02 -0.15574537059E+03  0.24865493145E+03  0.17300000000E+03 0.  1.
         -6    1    1    2    0  502  0.86314086549E+02 -0.13911611626E+02  0.12335905607E+03  0.22976098709E+03  0.17300000000E+03 0.  1.
<mgrwt>
<rscale>  2 0.19383667E+03</rscale>
<asrwt>0</asrwt>
<pdfrwt beam="1">  1       21 0.34309970E-01 0.19383667E+03</pdfrwt>
<pdfrwt beam="2">  1       21 0.39292479E-01 0.19383667E+03</pdfrwt>
<totfact> 0.51092251E+04</totfact>
</mgrwt>
</event>
<event>
 4    2  0.4063641E+000  0.1746512E+03  0.7546771E-02  0.1173082E+00
         21   -1    0    0  503  502  0.00000000000E+00  0.00000000000E+00  0.10246270725E+03  0.10246270725E+03  0.00000000000E+00 0. -1.
         21   -1    0    0  501  503 -0.00000000000E+00 -0.00000000000E+00 -0.30418291906E+03  0.30418291906E+03  0.00000000000E+00 0. -1.
          6    1    1    2  501    0  0.20268305982E+02  0.12775912453E+02 -0.71174689112E+02  0.18859709578E+03  0.17300000000E+03 0.  1.
         -6    1    1    2    0  502 -0.20268305982E+02 -0.12775912453E+02 -0.13054552270E+03  0.21804853052E+03  0.17300000000E+03 0.  1.
<mgrwt>
<rscale>  2 0.17465116E+03</rscale>
<asrwt>0</asrwt>
<pdfrwt beam="1">  1       21 0.15763494E-01 0.17465116E+03</pdfrwt>
<pdfrwt beam="2">  1       21 0.46797371E-01 0.17465116E+03</pdfrwt>
<totfact> 0.15754297E+05</totfact>
</mgrwt>
</event>
<event>
 4    2  0.4063641E+000  0.1802658E+03  0.7546771E-02  0.1167546E+00
         21   -1    0    0  503  502  0.00000000000E+00  0.00000000000E+00  0.62170528456E+02  0.62170528456E+02  0.00000000000E+00 0.  1.
         21   -1    0    0  501  503 -0.00000000000E+00 -0.00000000000E+00 -0.57423314656E+03  0.57423314656E+03  0.00000000000E+00 0.  1.
          6    1    1    2  501    0  0.47703870849E+02  0.17062032787E+02 -0.35136657673E+03  0.39491042466E+03  0.17300000000E+03 0.  1.
         -6    1    1    2    0  502 -0.47703870849E+02 -0.17062032787E+02 -0.16069604137E+03  0.24149325036E+03  0.17300000000E+03 0.  1.
<mgrwt>
<rscale>  2 0.18026584E+03</rscale>
<asrwt>0</asrwt>
<pdfrwt beam="1">  1       21 0.95646965E-02 0.18026584E+03</pdfrwt>
<pdfrwt beam="2">  1       21 0.88343563E-01 0.18026584E+03</pdfrwt>
<totfact> 0.96739149E+04</totfact>
</mgrwt>
</event>
<event>
 4    2  0.4063641E+000  0.2007408E+03  0.7546771E-02  0.1149116E+00
         21   -1    0    0  501  502  0.00000000000E+00  0.00000000000E+00  0.24014140748E+03  0.24014140748E+03  0.00000000000E+00 0.  1.
         21   -1    0    0  502  503 -0.00000000000E+00 -0.00000000000E+00 -0.16785891359E+03  0.16785891359E+03  0.00000000000E+00 0.  1.
          6    1    1    2  501    0  0.97630867588E+02  0.28914950214E+02  0.32475615471E+02  0.20335074687E+03  0.17300000000E+03 0.  1.
         -6    1    1    2    0  503 -0.97630867588E+02 -0.28914950214E+02  0.39806878411E+02  0.20464957420E+03  0.17300000000E+03 0.  1.
<mgrwt>
<rscale>  2 0.20074078E+03</rscale>
<asrwt>0</asrwt>
<pdfrwt beam="1">  1       21 0.36944832E-01 0.20074078E+03</pdfrwt>
<pdfrwt beam="2">  1       21 0.25824448E-01 0.20074078E+03</pdfrwt>
<totfact> 0.10025998E+05</totfact>
</mgrwt>
</event>
<event>
 4    2  0.4063641E+000  0.2178217E+03  0.7546771E-02  0.1135518E+00
         21   -1    0    0  501  502  0.00000000000E+00  0.00000000000E+00  0.14806383686E+03  0.14806383686E+03  0.00000000000E+00 0.  1.
         21   -1    0    0  502  503 -0.00000000000E+00 -0.00000000000E+00 -0.68432920133E+03  0.68432920133E+03  0.00000000000E+00 0.  1.
          6    1    1    2  501    0 -0.11418417752E+03  0.66927445123E+02  0.35359518852E+02  0.22067307240E+03  0.17300000000E+03 0.  1.
         -6    1    1    2    0  503  0.11418417752E+03 -0.66927445123E+02 -0.57162488332E+03  0.61171996578E+03  0.17300000000E+03 0.  1.
<mgrwt>
<rscale>  2 0.21782174E+03</rscale>
<asrwt>0</asrwt>
<pdfrwt beam="1">  1       21 0.22779052E-01 0.21782174E+03</pdfrwt>
<pdfrwt beam="2">  1       21 0.10528142E+00 0.21782174E+03</pdfrwt>
<totfact> 0.12905585E+04</totfact>
</mgrwt>
</event>
<event>
 4    2  0.4063641E+000  0.2217092E+03  0.7546771E-02  0.1132615E+00
         21   -1    0    0  503  502  0.00000000000E+00  0.00000000000E+00  0.14412549336E+03  0.14412549336E+03  0.00000000000E+00 0.  1.
         21   -1    0    0  501  503 -0.00000000000E+00 -0.00000000000E+00 -0.58351011020E+03  0.58351011020E+03  0.00000000000E+00 0. -1.
          6    1    1    2  501    0  0.47757255812E+02  0.13017386234E+03 -0.45420899387E+03  0.50543130100E+03  0.17300000000E+03 0. -1.
         -6    1    1    2    0  502 -0.47757255812E+02 -0.13017386234E+03  0.14824377026E+02  0.22220430255E+03  0.17300000000E+03 0.  1.
<mgrwt>
<rscale>  2 0.22170925E+03</rscale>
<asrwt>0</asrwt>
<pdfrwt beam="1">  1       21 0.22173153E-01 0.22170925E+03</pdfrwt>
<pdfrwt beam="2">  1       21 0.89770785E-01 0.22170925E+03</pdfrwt>
<totfact> 0.19755723E+04</totfact>
</mgrwt>
</event>
<event>
 4    2  0.4063641E+000  0.2112078E+03  0.7546771E-02  0.1140613E+00
         21   -1    0    0  501  502  0.00000000000E+00  0.00000000000E+00  0.13489939958E+04  0.13489939958E+04  0.00000000000E+00 0. -1.
         21   -1    0    0  502  503 -0.00000000000E+00 -0.00000000000E+00 -0.27467616841E+03  0.27467616841E+03  0.00000000000E+00 0. -1.
          6    1    1    2  501    0  0.21233867784E+02  0.11928481517E+03  0.12985591206E+04  0.13156232492E+04  0.17300000000E+03 0. -1.
         -6    1    1    2    0  503 -0.21233867784E+02 -0.11928481517E+03 -0.22424129318E+03  0.30804691499E+03  0.17300000000E+03 0. -1.
<mgrwt>
<rscale>  2 0.21120782E+03</rscale>
<asrwt>0</asrwt>
<pdfrwt beam="1">  1       21 0.20753753E+00 0.21120782E+03</pdfrwt>
<pdfrwt beam="2">  1       21 0.42257873E-01 0.21120782E+03</pdfrwt>
<totfact> 0.63414975E+02</totfact>
</mgrwt>
</event>
<event>
 4    2  0.4063641E+000  0.2981464E+03  0.7546771E-02  0.1086171E+00
         21   -1    0    0  501  502  0.00000000000E+00  0.00000000000E+00  0.62719688511E+02  0.62719688511E+02  0.00000000000E+00 0. -1.
         21   -1    0    0  502  503 -0.00000000000E+00 -0.00000000000E+00 -0.14173803851E+04  0.14173803851E+04  0.00000000000E+00 0. -1.
          6    1    1    2  501    0  0.52505490326E+02  0.23707687622E+03 -0.67105873273E+03  0.73430994445E+03  0.17300000000E+03 0. -1.
         -6    1    1    2    0  503 -0.52505490326E+02 -0.23707687622E+03 -0.68360196385E+03  0.74579012914E+03  0.17300000000E+03 0. -1.
<mgrwt>
<rscale>  2 0.29814639E+03</rscale>
<asrwt>0</asrwt>
<pdfrwt beam="1">  1       21 0.96491839E-02 0.29814639E+03</pdfrwt>
<pdfrwt beam="2">  1       21 0.21805850E+00 0.29814639E+03</pdfrwt>
<totfact> 0.82724936E+03</totfact>
</mgrwt>
</event>
<event>
 4    2  0.4063641E+000  0.2017262E+03  0.7546771E-02  0.1148291E+00
         21   -1    0    0  503  502  0.00000000000E+00  0.00000000000E+00  0.15229342809E+03  0.15229342809E+03  0.00000000000E+00 0. -1.
         21   -1    0    0  501  503 -0.00000000000E+00 -0.00000000000E+00 -0.26797893086E+03  0.26797893086E+03  0.00000000000E+00 0. -1.
          6    1    1    2  501    0  0.10504193289E+02  0.10321871236E+03 -0.69141526907E+02  0.21324631626E+03  0.17300000000E+03 0. -1.
         -6    1    1    2    0  502 -0.10504193289E+02 -0.10321871236E+03 -0.46543975865E+02  0.20702604268E+03  0.17300000000E+03 0. -1.
<mgrwt>
<rscale>  2 0.20172615E+03</rscale>
<asrwt>0</asrwt>
<pdfrwt beam="1">  1       21 0.23429758E-01 0.20172615E+03</pdfrwt>
<pdfrwt beam="2">  1       21 0.41227527E-01 0.20172615E+03</pdfrwt>
<totfact> 0.96736611E+04</totfact>
</mgrwt>
</event>
<event>
 4    2  0.4063641E+000  0.2023127E+03  0.7546771E-02  0.1147802E+00
         21   -1    0    0  503  502  0.00000000000E+00  0.00000000000E+00  0.21450813914E+03  0.21450813914E+03  0.00000000000E+00 0. -1.
         21   -1    0    0  501  503 -0.00000000000E+00 -0.00000000000E+00 -0.41145916184E+03  0.41145916184E+03  0.00000000000E+00 0.  1.
          6    1    1    2  501    0  0.50831445417E+02  0.91747534709E+02 -0.32767241458E+03  0.38509694526E+03  0.17300000000E+03 0.  1.
         -6    1    1    2    0  502 -0.50831445417E+02 -0.91747534709E+02  0.13072139188E+03  0.24087035572E+03  0.17300000000E+03 0. -1.
<mgrwt>
<rscale>  2 0.20231274E+03</rscale>
<asrwt>0</asrwt>
<pdfrwt beam="1">  1       21 0.33001253E-01 0.20231274E+03</pdfrwt>
<pdfrwt beam="2">  1       21 0.63301409E-01 0.20231274E+03</pdfrwt>
<totfact> 0.20288541E+04</totfact>
</mgrwt>
</event>
<event>
 4    2  0.4063641E+000  0.2134506E+03  0.7546771E-02  0.1138862E+00
         21   -1    0    0  501  502  0.00000000000E+00  0.00000000000E+00  0.10779765537E+03  0.10779765537E+03  0.00000000000E+00 0. -1.
         21   -1    0    0  502  503 -0.00000000000E+00 -0.00000000000E+00 -0.47682783993E+03  0.47682783993E+03  0.00000000000E+00 0. -1.
          6    1    1    2  501    0 -0.93439590350E+01  0.12467895963E+03 -0.85986973714E+02  0.23011934337E+03  0.17300000000E+03 0. -1.
         -6    1    1    2    0  503  0.93439590350E+01 -0.12467895963E+03 -0.28304321085E+03  0.35450615192E+03  0.17300000000E+03 0. -1.
<mgrwt>
<rscale>  2 0.21345059E+03</rscale>
<asrwt>0</asrwt>
<pdfrwt beam="1">  1       21 0.16584254E-01 0.21345059E+03</pdfrwt>
<pdfrwt beam="2">  1       21 0.73358131E-01 0.21345059E+03</pdfrwt>
<totfact> 0.53993211E+04</totfact>
</mgrwt>
</event>
<event>
 4    2  0.4063641E+000  0.2114576E+03  0.7546771E-02  0.1140417E+00
         21   -1    0    0  503  502  0.00000000000E+00  0.00000000000E+00  0.36051808188E+03  0.36051808188E+03  0.00000000000E+00 0.  1.
         21   -1    0    0  501  503 -0.00000000000E+00 -0.00000000000E+00 -0.14790248942E+03  0.14790248942E+03  0.00000000000E+00 0.  1.
          6    1    1    2  501    0 -0.11068372805E+02 -0.12109012611E+03  0.41732523714E+01  0.21149880272E+03  0.17300000000E+03 0.  1.
         -6    1    1    2    0  502  0.11068372805E+02  0.12109012611E+03  0.20844234008E+03  0.29692176858E+03  0.17300000000E+03 0.  1.
<mgrwt>
<rscale>  2 0.21145763E+03</rscale>
<asrwt>0</asrwt>
<pdfrwt beam="1">  1       21 0.55464320E-01 0.21145763E+03</pdfrwt>
<pdfrwt beam="2">  1       21 0.22754229E-01 0.21145763E+03</pdfrwt>
<totfact> 0.55009799E+04</totfact>
</mgrwt>
</event>
<event>
 4    2  0.4063641E+000  0.2124993E+03  0.7546771E-02  0.1139602E+00
         21   -1    0    0  503  502  0.00000000000E+00  0.00000000000E+00  0.70607654392E+02  0.70607654392E+02  0.00000000000E+00 0.  1.
         21   -1    0    0  501  503 -0.00000000000E+00 -0.00000000000E+00 -0.69302205745E+03  0.69302205745E+03  0.00000000000E+00 0.  1.
          6    1    1    2  501    0  0.83938034778E+02 -0.90450956836E+02 -0.41728126900E+03  0.46827302584E+03  0.17300000000E+03 0.  1.
         -6    1    1    2    0  502 -0.83938034778E+02  0.90450956836E+02 -0.20513313405E+03  0.29535668600E+03  0.17300000000E+03 0.  1.
<mgrwt>
<rscale>  2 0.21249934E+03</rscale>
<asrwt>0</asrwt>
<pdfrwt beam="1">  1       21 0.10862716E-01 0.21249934E+03</pdfrwt>
<pdfrwt beam="2">  1       21 0.10661878E+00 0.21249934E+03</pdfrwt>
<totfact> 0.48851318E+04</totfact>
</mgrwt>
</event>
<event>
 4    2  0.4063641E+000  0.2219631E+03  0.7546771E-02  0.1132428E+00
         21   -1    0    0  501  502  0.00000000000E+00  0.00000000000E+00  0.65882614936E+02  0.65882614936E+02  0.00000000000E+00 0.  1.
         21   -1    0    0  502  503 -0.00000000000E+00 -0.00000000000E+00 -0.74788570860E+03  0.74788570860E+03  0.00000000000E+00 0.  1.
          6    1    1    2  501    0 -0.13586711037E+03  0.29643730439E+02 -0.33688490260E+03  0.40343408388E+03  0.17300000000E+03 0.  1.
         -6    1    1    2    0  503  0.13586711037E+03 -0.29643730439E+02 -0.34511819106E+03  0.41033423965E+03  0.17300000000E+03 0.  1.
<mgrwt>
<rscale>  2 0.22196311E+03</rscale>
<asrwt>0</asrwt>
<pdfrwt beam="1">  1       21 0.10135787E-01 0.22196311E+03</pdfrwt>
<pdfrwt beam="2">  1       21 0.11505934E+00 0.22196311E+03</pdfrwt>
<totfact> 0.45692125E+04</totfact>
</mgrwt>
</event>
<event>
 4    2  0.4063641E+000  0.2135106E+03  0.7546771E-02  0.1138816E+00
         21   -1    0    0  501  502  0.00000000000E+00  0.00000000000E+00  0.11933364134E+04  0.11933364134E+04  0.00000000000E+00 0. -1.
         21   -1    0    0  502  503 -0.00000000000E+00 -0.00000000000E+00 -0.83845379986E+02  0.83845379986E+02  0.00000000000E+00 0. -1.
          6    1    1    2  501    0 -0.73483232805E+02  0.10128182588E+03  0.10259139809E+04  0.10478961255E+04  0.17300000000E+03 0. -1.
         -6    1    1    2    0  503  0.73483232805E+02 -0.10128182588E+03  0.83577052495E+02  0.22928566781E+03  0.17300000000E+03 0. -1.
<mgrwt>
<rscale>  2 0.21351064E+03</rscale>
<asrwt>0</asrwt>
<pdfrwt beam="1">  1       21 0.18359021E+00 0.21351064E+03</pdfrwt>
<pdfrwt beam="2">  1       21 0.12899290E-01 0.21351064E+03</pdfrwt>
<totfact> 0.87215587E+03</totfact>
</mgrwt>
</event>
<event>
 4    2  0.4063641E+000  0.1904523E+03  0.7546771E-02  0.1158054E+00
         21   -1    0    0  501  502  0.00000000000E+00  0.00000000000E+00  0.65578644519E+02  0.65578644519E+02  0.00000000000E+00 0.  1.
         21   -1    0    0  502  503 -0.00000000000E+00 -0.00000000000E+00 -0.60596977386E+03  0.60596977386E+03  0.00000000000E+00 0.  1.
          6    1    1    2  501    0 -0.75848159004E+02 -0.24292461190E+02 -0.17102264545E+03  0.25597033451E+03  0.17300000000E+03 0.  1.
         -6    1    1    2    0  503  0.75848159004E+02  0.24292461190E+02 -0.36936848389E+03  0.41557808386E+03  0.17300000000E+03 0.  1.
<mgrwt>
<rscale>  2 0.19045227E+03</rscale>
<asrwt>0</asrwt>
<pdfrwt beam="1">  1       21 0.10089022E-01 0.19045227E+03</pdfrwt>
<pdfrwt beam="2">  1       21 0.93226120E-01 0.19045227E+03</pdfrwt>
<totfact> 0.77408267E+04</totfact>
</mgrwt>
</event>
<event>
 4    2  0.4063641E+000  0.1947170E+03  0.7546771E-02  0.1154274E+00
         21   -1    0    0  501  502  0.00000000000E+00  0.00000000000E+00  0.42065954679E+03  0.42065954679E+03  0.00000000000E+00 0.  1.
         21   -1    0    0  502  503 -0.00000000000E+00 -0.00000000000E+00 -0.90393710571E+02  0.90393710571E+02  0.00000000000E+00 0. -1.
          6    1    1    2  501    0 -0.67682778271E+02 -0.58350271799E+02  0.17889296116E+03  0.26441899373E+03  0.17300000000E+03 0.  1.
         -6    1    1    2    0  503  0.67682778271E+02  0.58350271799E+02  0.15137287507E+03  0.24663426364E+03  0.17300000000E+03 0.  1.
<mgrwt>
<rscale>  2 0.19471701E+03</rscale>
<asrwt>0</asrwt>
<pdfrwt beam="1">  1       21 0.64716852E-01 0.19471701E+03</pdfrwt>
<pdfrwt beam="2">  1       21 0.13906725E-01 0.19471701E+03</pdfrwt>
<totfact> 0.98946261E+04</totfact>
</mgrwt>
</event>
<event>
 4    2  0.4063641E+000  0.2558117E+03  0.7546771E-02  0.1109686E+00
         21   -1    0    0  501  502  0.00000000000E+00  0.00000000000E+00  0.25377368777E+03  0.25377368777E+03  0.00000000000E+00 0. -1.
         21   -1    0    0  502  503 -0.00000000000E+00 -0.00000000000E+00 -0.25812184859E+03  0.25812184859E+03  0.00000000000E+00 0. -1.
          6    1    1    2  501    0  0.34329593130E+02 -0.18528919936E+03  0.58838183329E+01  0.25587932250E+03  0.17300000000E+03 0. -1.
         -6    1    1    2    0  503 -0.34329593130E+02  0.18528919936E+03 -0.10231979155E+02  0.25601621386E+03  0.17300000000E+03 0. -1.
<mgrwt>
<rscale>  2 0.25581167E+03</rscale>
<asrwt>0</asrwt>
<pdfrwt beam="1">  1       21 0.39042106E-01 0.25581167E+03</pdfrwt>
<pdfrwt beam="2">  1       21 0.39711054E-01 0.25581167E+03</pdfrwt>
<totfact> 0.37533772E+04</totfact>
</mgrwt>
</event>
<event>
 4    2  0.4063641E+000  0.2335600E+03  0.7546771E-02  0.1124159E+00
         21   -1    0    0  501  502  0.00000000000E+00  0.00000000000E+00  0.56643868437E+02  0.56643868437E+02  0.00000000000E+00 0.  1.
         21   -1    0    0  502  503 -0.00000000000E+00 -0.00000000000E+00 -0.14430094805E+04  0.14430094805E+04  0.00000000000E+00 0. -1.
          6    1    1    2  501    0 -0.88994652916E+02 -0.12923327383E+03 -0.26073540137E+03  0.35004747798E+03  0.17300000000E+03 0.  1.
         -6    1    1    2    0  503  0.88994652916E+02  0.12923327383E+03 -0.11256302107E+04  0.11496058710E+04  0.17300000000E+03 0. -1.
<mgrwt>
<rscale>  2 0.23356003E+03</rscale>
<asrwt>0</asrwt>
<pdfrwt beam="1">  1       21 0.87144413E-02 0.23356003E+03</pdfrwt>
<pdfrwt beam="2">  1       21 0.22200146E+00 0.23356003E+03</pdfrwt>
<totfact> 0.97698864E+03</totfact>
</mgrwt>
</event>
<event>
 4    2  0.4063641E+000  0.2236876E+03  0.7546771E-02  0.1131163E+00
         21   -1    0    0  501  502  0.00000000000E+00  0.00000000000E+00  0.91436323351E+03  0.91436323351E+03  0.00000000000E+00 0.  1.
         21   -1    0    0  502  503 -0.00000000000E+00 -0.00000000000E+00 -0.63020706321E+02  0.63020706321E+02  0.00000000000E+00 0.  1.
          6    1    1    2  501    0  0.14042469111E+03  0.19699187915E+02  0.60300373409E+03  0.64315601156E+03  0.17300000000E+03 0.  1.
         -6    1    1    2    0  503 -0.14042469111E+03 -0.19699187915E+02  0.24833879310E+03  0.33422792827E+03  0.17300000000E+03 0.  1.
<mgrwt>
<rscale>  2 0.22368762E+03</rscale>
<asrwt>0</asrwt>
<pdfrwt beam="1">  1       21 0.14067126E+00 0.22368762E+03</pdfrwt>
<pdfrwt beam="2">  1       21 0.96954940E-02 0.22368762E+03</pdfrwt>
<totfact> 0.29735918E+04</totfact>
</mgrwt>
</event>
<event>
 4    2  0.4063641E+000  0.1767050E+03  0.7546771E-02  0.1171031E+00
         21   -1    0    0  501  502  0.00000000000E+00  0.00000000000E+00  0.51490498248E+03  0.51490498248E+03  0.00000000000E+00 0.  1.
         21   -1    0    0  502  503 -0.00000000000E+00 -0.00000000000E+00 -0.11163531476E+03  0.11163531476E+03  0.00000000000E+00 0.  1.
          6    1    1    2  501    0 -0.28317127164E+02  0.22221326101E+02 -0.10092369659E+02  0.17699294605E+03  0.17300000000E+03 0.  1.
         -6    1    1    2    0  503  0.28317127164E+02 -0.22221326101E+02  0.41336203738E+03  0.44954735120E+03  0.17300000000E+03 0.  1.
<mgrwt>
<rscale>  2 0.17670497E+03</rscale>
<asrwt>0</asrwt>
<pdfrwt beam="1">  1       21 0.79216150E-01 0.17670497E+03</pdfrwt>
<pdfrwt beam="2">  1       21 0.17174664E-01 0.17670497E+03</pdfrwt>
<totfact> 0.43402421E+04</totfact>
</mgrwt>
</event>
<event>
 4    2  0.4063641E+000  0.1899952E+03  0.7546771E-02  0.1158466E+00
         21   -1    0    0  501  502  0.00000000000E+00  0.00000000000E+00  0.98233141305E+03  0.98233141305E+03  0.00000000000E+00 0. -1.
         21   -1    0    0  502  503 -0.00000000000E+00 -0.00000000000E+00 -0.36983275888E+02  0.36983275888E+02  0.00000000000E+00 0. -1.
          6    1    1    2  501    0  0.62488032267E+02  0.47586050042E+02  0.51337086550E+03  0.54740097906E+03  0.17300000000E+03 0. -1.
         -6    1    1    2    0  503 -0.62488032267E+02 -0.47586050042E+02  0.43197727166E+03  0.47191370988E+03  0.17300000000E+03 0. -1.
<mgrwt>
<rscale>  2 0.18999523E+03</rscale>
<asrwt>0</asrwt>
<pdfrwt beam="1">  1       21 0.15112789E+00 0.18999523E+03</pdfrwt>
<pdfrwt beam="2">  1       21 0.56897355E-02 0.18999523E+03</pdfrwt>
<totfact> 0.63364430E+04</totfact>
</mgrwt>
</event>
<event>
 4    2  0.4063641E+000  0.1946211E+03  0.7546771E-02  0.1154358E+00
         21   -1    0    0  501  502  0.00000000000E+00  0.00000000000E+00  0.48724665870E+03  0.48724665870E+03  0.00000000000E+00 0.  1.
         21   -1    0    0  502  503 -0.00000000000E+00 -0.00000000000E+00 -0.15477149340E+03  0.15477149340E+03  0.00000000000E+00 0.  1.
          6    1    1    2  501    0 -0.56482294325E+02  0.68979275214E+02  0.39270864915E+03  0.43828925734E+03  0.17300000000E+03 0.  1.
         -6    1    1    2    0  503  0.56482294325E+02 -0.68979275214E+02 -0.60233483852E+02  0.20372889476E+03  0.17300000000E+03 0.  1.
<mgrwt>
<rscale>  2 0.19462114E+03</rscale>
<asrwt>0</asrwt>
<pdfrwt beam="1">  1       21 0.74961024E-01 0.19462114E+03</pdfrwt>
<pdfrwt beam="2">  1       21 0.23810999E-01 0.19462114E+03</pdfrwt>
<totfact> 0.26425922E+04</totfact>
</mgrwt>
</event>
<event>
 4    2  0.4063641E+000  0.2402808E+03  0.7546771E-02  0.1119606E+00
         21   -1    0    0  503  502  0.00000000000E+00  0.00000000000E+00  0.21184637478E+04  0.21184637478E+04  0.00000000000E+00 0. -1.
         21   -1    0    0  501  503 -0.00000000000E+00 -0.00000000000E+00 -0.31182052959E+02  0.31182052959E+02  0.00000000000E+00 0.  1.
          6    1    1    2  501    0 -0.17603442228E+02 -0.16581911932E+03  0.14251622213E+04  0.14452758279E+04  0.17300000000E+03 0. -1.
         -6    1    1    2    0  502  0.17603442228E+02  0.16581911932E+03  0.66211947349E+03  0.70436997287E+03  0.17300000000E+03 0.  1.
<mgrwt>
<rscale>  2 0.24028080E+03</rscale>
<asrwt>0</asrwt>
<pdfrwt beam="1">  1       21 0.32591739E+00 0.24028080E+03</pdfrwt>
<pdfrwt beam="2">  1       21 0.47972406E-02 0.24028080E+03</pdfrwt>
<totfact> 0.66309650E+03</totfact>
</mgrwt>
</event>
<event>
 4    2  0.4063641E+000  0.2107100E+03  0.7546771E-02  0.1141005E+00
         21   -1    0    0  501  502  0.00000000000E+00  0.00000000000E+00  0.19615527568E+03  0.19615527568E+03  0.00000000000E+00 0. -1.
         21   -1    0    0  502  503 -0.00000000000E+00 -0.00000000000E+00 -0.54353980200E+03  0.54353980200E+03  0.00000000000E+00 0. -1.
          6    1    1    2  501    0 -0.84251422803E+01  0.11999466056E+03  0.10884147289E+03  0.23716063713E+03  0.17300000000E+03 0. -1.
         -6    1    1    2    0  503  0.84251422803E+01 -0.11999466056E+03 -0.45622599921E+03  0.50253444055E+03  0.17300000000E+03 0. -1.
<mgrwt>
<rscale>  2 0.21070999E+03</rscale>
<asrwt>0</asrwt>
<pdfrwt beam="1">  1       21 0.30177735E-01 0.21070999E+03</pdfrwt>
<pdfrwt beam="2">  1       21 0.83621507E-01 0.21070999E+03</pdfrwt>
<totfact> 0.12948831E+04</totfact>
</mgrwt>
</event>
<event>
 4    2  0.4063641E+000  0.2048698E+03  0.7546771E-02  0.1145694E+00
         21   -1    0    0  503  502  0.00000000000E+00  0.00000000000E+00  0.55601672524E+03  0.55601672524E+03  0.00000000000E+00 0.  1.
         21   -1    0    0  501  503 -0.00000000000E+00 -0.00000000000E+00 -0.48185727890E+03  0.48185727890E+03  0.00000000000E+00 0.  1.
          6    1    1    2  501    0  0.10147420628E+03 -0.41780734020E+02 -0.43947938047E+03  0.48488531648E+03  0.17300000000E+03 0.  1.
         -6    1    1    2    0  502 -0.10147420628E+03  0.41780734020E+02  0.51363882681E+03  0.55298868766E+03  0.17300000000E+03 0.  1.
<mgrwt>
<rscale>  2 0.20486982E+03</rscale>
<asrwt>0</asrwt>
<pdfrwt beam="1">  1       21 0.85541035E-01 0.20486982E+03</pdfrwt>
<pdfrwt beam="2">  1       21 0.74131889E-01 0.20486982E+03</pdfrwt>
<totfact> 0.19058972E+03</totfact>
</mgrwt>
</event>
<event>
 4    2  0.4063641E+000  0.2112804E+03  0.7546771E-02  0.1140556E+00
         21   -1    0    0  501  502  0.00000000000E+00  0.00000000000E+00  0.12103151222E+04  0.12103151222E+04  0.00000000000E+00 0. -1.
         21   -1    0    0  502  503 -0.00000000000E+00 -0.00000000000E+00 -0.37654180699E+02  0.37654180699E+02  0.00000000000E+00 0.  1.
          6    1    1    2  501    0 -0.77946800320E+02  0.92923112907E+02  0.49700091593E+03  0.54004566384E+03  0.17300000000E+03 0. -1.
         -6    1    1    2    0  503  0.77946800320E+02 -0.92923112907E+02  0.67566002560E+03  0.70792363909E+03  0.17300000000E+03 0.  1.
<mgrwt>
<rscale>  2 0.21128040E+03</rscale>
<asrwt>0</asrwt>
<pdfrwt beam="1">  1       21 0.18620230E+00 0.21128040E+03</pdfrwt>
<pdfrwt beam="2">  1       21 0.57929518E-02 0.21128040E+03</pdfrwt>
<totfact> 0.34182034E+04</totfact>
</mgrwt>
</event>
<event>
 4    2  0.4063641E+000  0.2142047E+03  0.7546771E-02  0.1138279E+00
         21   -1    0    0  503  502  0.00000000000E+00  0.00000000000E+00  0.49882428146E+03  0.49882428146E+03  0.00000000000E+00 0. -1.
         21   -1    0    0  501  503 -0.00000000000E+00 -0.00000000000E+00 -0.10561129447E+03  0.10561129447E+03  0.00000000000E+00 0. -1.
          6    1    1    2  501    0  0.12571053327E+03  0.12309297366E+02  0.88044974271E+02  0.23159355447E+03  0.17300000000E+03 0. -1.
         -6    1    1    2    0  502 -0.12571053327E+03 -0.12309297366E+02  0.30516801272E+03  0.37284202146E+03  0.17300000000E+03 0. -1.
<mgrwt>
<rscale>  2 0.21420471E+03</rscale>
<asrwt>0</asrwt>
<pdfrwt beam="1">  1       21 0.76742196E-01 0.21420471E+03</pdfrwt>
<pdfrwt beam="2">  1       21 0.16247892E-01 0.21420471E+03</pdfrwt>
<totfact> 0.50663494E+04</totfact>
</mgrwt>
</event>
<event>
 4    2  0.4063641E+000  0.1793862E+03  0.7546771E-02  0.1168398E+00
         21   -1    0    0  501  502  0.00000000000E+00  0.00000000000E+00  0.13568670453E+03  0.13568670453E+03  0.00000000000E+00 0.  1.
         21   -1    0    0  502  503 -0.00000000000E+00 -0.00000000000E+00 -0.23733923890E+03  0.23733923890E+03  0.00000000000E+00 0.  1.
          6    1    1    2  501    0 -0.37523548162E+02  0.29024155814E+02 -0.55956088430E+02  0.18791088877E+03  0.17300000000E+03 0. -1.
         -6    1    1    2    0  503  0.37523548162E+02 -0.29024155814E+02 -0.45696445936E+02  0.18511505465E+03  0.17300000000E+03 0. -1.
<mgrwt>
<rscale>  2 0.17938623E+03</rscale>
<asrwt>0</asrwt>
<pdfrwt beam="1">  1       21 0.20874878E-01 0.17938623E+03</pdfrwt>
<pdfrwt beam="2">  1       21 0.36513729E-01 0.17938623E+03</pdfrwt>
<totfact> 0.15476368E+05</totfact>
</mgrwt>
</event>
<event>
 4    2  0.4063641E+000  0.1803891E+03  0.7546771E-02  0.1167427E+00
         21   -1    0    0  501  502  0.00000000000E+00  0.00000000000E+00  0.23151889883E+03  0.23151889883E+03  0.00000000000E+00 0. -1.
         21   -1    0    0  502  503 -0.00000000000E+00 -0.00000000000E+00 -0.17340731755E+03  0.17340731755E+03  0.00000000000E+00 0. -1.
          6    1    1    2  501    0 -0.34480278855E+01  0.50983655945E+02 -0.59073721753E+02  0.18981550693E+03  0.17300000000E+03 0. -1.
         -6    1    1    2    0  503  0.34480278855E+01 -0.50983655945E+02  0.11718530304E+03  0.21511070945E+03  0.17300000000E+03 0. -1.
<mgrwt>
<rscale>  2 0.18038909E+03</rscale>
<asrwt>0</asrwt>
<pdfrwt beam="1">  1       21 0.35618292E-01 0.18038909E+03</pdfrwt>
<pdfrwt beam="2">  1       21 0.26678049E-01 0.18038909E+03</pdfrwt>
<totfact> 0.10211400E+05</totfact>
</mgrwt>
</event>
<event>
 4    2  0.4063641E+000  0.2130880E+03  0.7546771E-02  0.1139144E+00
         21   -1    0    0  501  502  0.00000000000E+00  0.00000000000E+00  0.18846722564E+03  0.18846722564E+03  0.00000000000E+00 0. -1.
         21   -1    0    0  502  503 -0.00000000000E+00 -0.00000000000E+00 -0.24105719896E+03  0.24105719896E+03  0.00000000000E+00 0. -1.
          6    1    1    2  501    0  0.11375747798E+03 -0.50366184084E+02 -0.21270681682E+02  0.21414704806E+03  0.17300000000E+03 0. -1.
         -6    1    1    2    0  503 -0.11375747798E+03  0.50366184084E+02 -0.31319291640E+02  0.21537737654E+03  0.17300000000E+03 0. -1.
<mgrwt>
<rscale>  2 0.21308805E+03</rscale>
<asrwt>0</asrwt>
<pdfrwt beam="1">  1       21 0.28994958E-01 0.21308805E+03</pdfrwt>
<pdfrwt beam="2">  1       21 0.37085723E-01 0.21308805E+03</pdfrwt>
<totfact> 0.79155851E+04</totfact>
</mgrwt>
</event>
<event>
 4    2  0.4063641E+000  0.4078225E+03  0.7546771E-02  0.1041104E+00
         21   -1    0    0  501  502  0.00000000000E+00  0.00000000000E+00  0.36140911663E+03  0.36140911663E+03  0.00000000000E+00 0. -1.
         21   -1    0    0  502  503 -0.00000000000E+00 -0.00000000000E+00 -0.77315690578E+03  0.77315690578E+03  0.00000000000E+00 0.  1.
          6    1    1    2  501    0  0.32767014484E+03 -0.17035991393E+03  0.15504584064E+03  0.43630085582E+03  0.17300000000E+03 0. -1.
         -6    1    1    2    0  503 -0.32767014484E+03  0.17035991393E+03 -0.56679362979E+03  0.69826516658E+03  0.17300000000E+03 0.  1.
<mgrwt>
<rscale>  2 0.40782254E+03</rscale>
<asrwt>0</asrwt>
<pdfrwt beam="1">  1       21 0.55601403E-01 0.40782254E+03</pdfrwt>
<pdfrwt beam="2">  1       21 0.11894721E+00 0.40782254E+03</pdfrwt>
<totfact> 0.14313084E+03</totfact>
</mgrwt>
</event>
<event>
 4    2  0.4063641E+000  0.2516231E+03  0.7546771E-02  0.1112283E+00
         21   -1    0    0  501  502  0.00000000000E+00  0.00000000000E+00  0.14180245413E+04  0.14180245413E+04  0.00000000000E+00 0.  1.
         21   -1    0    0  502  503 -0.00000000000E+00 -0.00000000000E+00 -0.48682895953E+02  0.48682895953E+02  0.00000000000E+00 0. -1.
          6    1    1    2  501    0 -0.13730874257E+03  0.12054669408E+03  0.89575543179E+03  0.93042570355E+03  0.17300000000E+03 0.  1.
         -6    1    1    2    0  503  0.13730874257E+03 -0.12054669408E+03  0.47358621359E+03  0.53628173374E+03  0.17300000000E+03 0. -1.
<mgrwt>
<rscale>  2 0.25162312E+03</rscale>
<asrwt>0</asrwt>
<pdfrwt beam="1">  1       21 0.21815759E+00 0.25162312E+03</pdfrwt>
<pdfrwt beam="2">  1       21 0.74896774E-02 0.25162312E+03</pdfrwt>
<totfact> 0.13287603E+04</totfact>
</mgrwt>
</event>
<event>
 4    2  0.4063641E+000  0.2052750E+03  0.7546771E-02  0.1145363E+00
         21   -1    0    0  503  502  0.00000000000E+00  0.00000000000E+00  0.21804958344E+03  0.21804958344E+03  0.00000000000E+00 0. -1.
         21   -1    0    0  501  503 -0.00000000000E+00 -0.00000000000E+00 -0.43734075157E+03  0.43734075157E+03  0.00000000000E+00 0. -1.
          6    1    1    2  501    0  0.26890798734E+02 -0.10717139526E+03 -0.35445988423E+03  0.40960912166E+03  0.17300000000E+03 0. -1.
         -6    1    1    2    0  502 -0.26890798734E+02  0.10717139526E+03  0.13516871611E+03  0.24578121334E+03  0.17300000000E+03 0. -1.
<mgrwt>
<rscale>  2 0.20527499E+03</rscale>
<asrwt>0</asrwt>
<pdfrwt beam="1">  1       21 0.33546090E-01 0.20527499E+03</pdfrwt>
<pdfrwt beam="2">  1       21 0.67283193E-01 0.20527499E+03</pdfrwt>
<totfact> 0.17164878E+04</totfact>
</mgrwt>
</event>
<event>
 4    2  0.4063641E+000  0.1948546E+03  0.7546771E-02  0.1154154E+00
         21   -1    0    0  501  502  0.00000000000E+00  0.00000000000E+00  0.49262489157E+02  0.49262489157E+02  0.00000000000E+00 0.  1.
         21   -1    0    0  502  503 -0.00000000000E+00 -0.00000000000E+00 -0.77110608824E+03  0.77110608824E+03  0.00000000000E+00 0.  1.
          6    1    1    2  501    0 -0.24637249214E+02  0.86210873141E+02 -0.35191958933E+03  0.40226322980E+03  0.17300000000E+03 0.  1.
         -6    1    1    2    0  503  0.24637249214E+02 -0.86210873141E+02 -0.36992400975E+03  0.41810534759E+03  0.17300000000E+03 0.  1.
<mgrwt>
<rscale>  2 0.19485458E+03</rscale>
<asrwt>0</asrwt>
<pdfrwt beam="1">  1       21 0.75788453E-02 0.19485458E+03</pdfrwt>
<pdfrwt beam="2">  1       21 0.11863169E+00 0.19485458E+03</pdfrwt>
<totfact> 0.71550132E+04</totfact>
</mgrwt>
</event>
<event>
 4    2  0.4063641E+000  0.2367689E+03  0.7546771E-02  0.1121964E+00
         21   -1    0    0  501  502  0.00000000000E+00  0.00000000000E+00  0.89972636841E+02  0.89972636841E+02  0.00000000000E+00 0. -1.
         21   -1    0    0  502  503 -0.00000000000E+00 -0.00000000000E+00 -0.63748039130E+03  0.63748039130E+03  0.00000000000E+00 0.  1.
          6    1    1    2  501    0  0.15310105606E+03 -0.51870600642E+02 -0.21907256341E+03  0.32257135740E+03  0.17300000000E+03 0. -1.
         -6    1    1    2    0  503 -0.15310105606E+03  0.51870600642E+02 -0.32843519105E+03  0.40488167074E+03  0.17300000000E+03 0.  1.
<mgrwt>
<rscale>  2 0.23676886E+03</rscale>
<asrwt>0</asrwt>
<pdfrwt beam="1">  1       21 0.13841944E-01 0.23676886E+03</pdfrwt>
<pdfrwt beam="2">  1       21 0.98073906E-01 0.23676886E+03</pdfrwt>
<totfact> 0.38147164E+04</totfact>
</mgrwt>
</event>
<event>
 4    2  0.4063641E+000  0.2499496E+03  0.7546771E-02  0.1113337E+00
         21   -1    0    0  503  502  0.00000000000E+00  0.00000000000E+00  0.23919631816E+03  0.23919631816E+03  0.00000000000E+00 0.  1.
         21   -1    0    0  501  503 -0.00000000000E+00 -0.00000000000E+00 -0.26144177574E+03  0.26144177574E+03  0.00000000000E+00 0. -1.
          6    1    1    2  501    0  0.16646592890E+03 -0.69533448158E+02 -0.32980781198E+01  0.24997136479E+03  0.17300000000E+03 0.  1.
         -6    1    1    2    0  502 -0.16646592890E+03  0.69533448158E+02 -0.18947379460E+02  0.25066672911E+03  0.17300000000E+03 0. -1.
<mgrwt>
<rscale>  2 0.24994961E+03</rscale>
<asrwt>0</asrwt>
<pdfrwt beam="1">  1       21 0.36799433E-01 0.24994961E+03</pdfrwt>
<pdfrwt beam="2">  1       21 0.40221812E-01 0.24994961E+03</pdfrwt>
<totfact> 0.41307310E+04</totfact>
</mgrwt>
</event>
<event>
 4    2  0.4063641E+000  0.1909404E+03  0.7546771E-02  0.1157616E+00
         21   -1    0    0  501  502  0.00000000000E+00  0.00000000000E+00  0.57622832728E+03  0.57622832728E+03  0.00000000000E+00 0. -1.
         21   -1    0    0  502  503 -0.00000000000E+00 -0.00000000000E+00 -0.11751232843E+03  0.11751232843E+03  0.00000000000E+00 0. -1.
          6    1    1    2  501    0  0.17755659259E+02 -0.78828873058E+02  0.46502164592E+03  0.50269611679E+03  0.17300000000E+03 0. -1.
         -6    1    1    2    0  503 -0.17755659259E+02  0.78828873058E+02 -0.63056470670E+01  0.19104453891E+03  0.17300000000E+03 0. -1.
<mgrwt>
<rscale>  2 0.19094045E+03</rscale>
<asrwt>0</asrwt>
<pdfrwt beam="1">  1       21 0.88650510E-01 0.19094045E+03</pdfrwt>
<pdfrwt beam="2">  1       21 0.18078820E-01 0.19094045E+03</pdfrwt>
<totfact> 0.30327668E+04</totfact>
</mgrwt>
</event>
<event>
 4    2  0.4063641E+000  0.3019555E+03  0.7546771E-02  0.1084267E+00
         21   -1    0    0  501  502  0.00000000000E+00  0.00000000000E+00  0.11705669102E+04  0.11705669102E+04  0.00000000000E+00 0. -1.
         21   -1    0    0  502  503 -0.00000000000E+00 -0.00000000000E+00 -0.88943302494E+02  0.88943302494E+02  0.00000000000E+00 0.  1.
          6    1    1    2  501    0  0.97583400100E+02 -0.22743257810E+03  0.31882172840E+03  0.43911774282E+03  0.17300000000E+03 0. -1.
         -6    1    1    2    0  503 -0.97583400100E+02  0.22743257810E+03  0.76280187929E+03  0.82039246986E+03  0.17300000000E+03 0.  1.
<mgrwt>
<rscale>  2 0.30195546E+03</rscale>
<asrwt>0</asrwt>
<pdfrwt beam="1">  1       21 0.18008721E+00 0.30195546E+03</pdfrwt>
<pdfrwt beam="2">  1       21 0.13683586E-01 0.30195546E+03</pdfrwt>
<totfact> 0.78224823E+03</totfact>
</mgrwt>
</event>
<event>
 4    2  0.4063641E+000  0.2059504E+03  0.7546771E-02  0.1144814E+00
         21   -1    0    0  503  502  0.00000000000E+00  0.00000000000E+00  0.55347137736E+03  0.55347137736E+03  0.00000000000E+00 0.  1.
         21   -1    0    0  501  503 -0.00000000000E+00 -0.00000000000E+00 -0.87397871815E+02  0.87397871815E+02  0.00000000000E+00 0.  1.
          6    1    1    2  501    0  0.99905681251E+02 -0.50054341394E+02  0.12059126341E+03  0.23865840662E+03  0.17300000000E+03 0.  1.
         -6    1    1    2    0  502 -0.99905681251E+02  0.50054341394E+02  0.34548224214E+03  0.40221084256E+03  0.17300000000E+03 0.  1.
<mgrwt>
<rscale>  2 0.20595044E+03</rscale>
<asrwt>0</asrwt>
<pdfrwt beam="1">  1       21 0.85149441E-01 0.20595044E+03</pdfrwt>
<pdfrwt beam="2">  1       21 0.13445827E-01 0.20595044E+03</pdfrwt>
<totfact> 0.56717934E+04</totfact>
</mgrwt>
</event>
<event>
 4    2  0.4063641E+000  0.1919011E+03  0.7546771E-02  0.1156758E+00
         21   -1    0    0  503  502  0.00000000000E+00  0.00000000000E+00  0.18161662570E+04  0.18161662570E+04  0.00000000000E+00 0.  1.
         21   -1    0    0  501  503 -0.00000000000E+00 -0.00000000000E+00 -0.37425134008E+02  0.37425134008E+02  0.00000000000E+00 0.  1.
          6    1    1    2  501    0  0.14381005296E+02  0.81793860883E+02  0.26201575458E+03  0.32477423641E+03  0.17300000000E+03 0.  1.
         -6    1    1    2    0  502 -0.14381005296E+02 -0.81793860883E+02  0.15167253684E+04  0.15288171546E+04  0.17300000000E+03 0.  1.
<mgrwt>
<rscale>  2 0.19190114E+03</rscale>
<asrwt>0</asrwt>
<pdfrwt beam="1">  1       21 0.27941013E+00 0.19190114E+03</pdfrwt>
<pdfrwt beam="2">  1       21 0.57577143E-02 0.19190114E+03</pdfrwt>
<totfact> 0.94967046E+03</totfact>
</mgrwt>
</event>
<event>
 4    2  0.4063641E+000  0.1774395E+03  0.7546771E-02  0.1170304E+00
         21   -1    0    0  501  502  0.00000000000E+00  0.00000000000E+00  0.33888235587E+03  0.33888235587E+03  0.00000000000E+00 0.  1.
         21   -1    0    0  502  503 -0.00000000000E+00 -0.00000000000E+00 -0.10474850731E+03  0.10474850731E+03  0.00000000000E+00 0.  1.
          6    1    1    2  501    0  0.95680174670E+01 -0.38265444911E+02  0.19164443752E+03  0.26117500199E+03  0.17300000000E+03 0. -1.
         -6    1    1    2    0  503 -0.95680174670E+01  0.38265444911E+02  0.42489411038E+02  0.18245586119E+03  0.17300000000E+03 0. -1.
<mgrwt>
<rscale>  2 0.17743954E+03</rscale>
<asrwt>0</asrwt>
<pdfrwt beam="1">  1       21 0.52135747E-01 0.17743954E+03</pdfrwt>
<pdfrwt beam="2">  1       21 0.16115155E-01 0.17743954E+03</pdfrwt>
<totfact> 0.12079759E+05</totfact>
</mgrwt>
</event>
<event>
 4    2  0.4063641E+000  0.1827715E+03  0.7546771E-02  0.1165147E+00
         21   -1    0    0  501  502  0.00000000000E+00  0.00000000000E+00  0.15707068949E+03  0.15707068949E+03  0.00000000000E+00 0. -1.
         21   -1    0    0  502  503 -0.00000000000E+00 -0.00000000000E+00 -0.36040587314E+03  0.36040587314E+03  0.00000000000E+00 0. -1.
          6    1    1    2  501    0  0.55295593106E+02 -0.20464842005E+02  0.63984382206E+02  0.19364765308E+03  0.17300000000E+03 0. -1.
         -6    1    1    2    0  503 -0.55295593106E+02  0.20464842005E+02 -0.26731956586E+03  0.32382890956E+03  0.17300000000E+03 0. -1.
<mgrwt>
<rscale>  2 0.18277148E+03</rscale>
<asrwt>0</asrwt>
<pdfrwt beam="1">  1       21 0.24164722E-01 0.18277148E+03</pdfrwt>
<pdfrwt beam="2">  1       21 0.55447057E-01 0.18277148E+03</pdfrwt>
<totfact> 0.49781252E+04</totfact>
</mgrwt>
</event>
<event>
 4    2  0.4063641E+000  0.2648520E+03  0.7546771E-02  0.1104263E+00
         21   -1    0    0  503  502  0.00000000000E+00  0.00000000000E+00  0.54838368666E+03  0.54838368666E+03  0.00000000000E+00 0. -1.
         21   -1    0    0  501  503 -0.00000000000E+00 -0.00000000000E+00 -0.13175138272E+03  0.13175138272E+03  0.00000000000E+00 0. -1.
          6    1    1    2  501    0  0.19138438425E+03  0.59913483870E+02  0.26634411353E+03  0.37561389071E+03  0.17300000000E+03 0. -1.
         -6    1    1    2    0  502 -0.19138438425E+03 -0.59913483870E+02  0.15028819041E+03  0.30452117867E+03  0.17300000000E+03 0. -1.
<mgrwt>
<rscale>  2 0.26485205E+03</rscale>
<asrwt>0</asrwt>
<pdfrwt beam="1">  1       21 0.84366720E-01 0.26485205E+03</pdfrwt>
<pdfrwt beam="2">  1       21 0.20269444E-01 0.26485205E+03</pdfrwt>
<totfact> 0.26451622E+04</totfact>
</mgrwt>
</event>
<event>
 4    2  0.4063641E+000  0.1783299E+03  0.7546771E-02  0.1169429E+00
         21   -1    0    0  501  502  0.00000000000E+00  0.00000000000E+00  0.27077473724E+03  0.27077473724E+03  0.00000000000E+00 0.  1.
         21   -1    0    0  502  503 -0.00000000000E+00 -0.00000000000E+00 -0.11813386972E+03  0.11813386972E+03  0.00000000000E+00 0. -1.
          6    1    1    2  501    0 -0.34724312268E+02 -0.25821941980E+02  0.61487765900E+02  0.18863270105E+03  0.17300000000E+03 0. -1.
         -6    1    1    2    0  503  0.34724312268E+02  0.25821941980E+02  0.91153101619E+02  0.20027590590E+03  0.17300000000E+03 0.  1.
<mgrwt>
<rscale>  2 0.17832989E+03</rscale>
<asrwt>0</asrwt>
<pdfrwt beam="1">  1       21 0.41657652E-01 0.17832989E+03</pdfrwt>
<pdfrwt beam="2">  1       21 0.18174442E-01 0.17832989E+03</pdfrwt>
<totfact> 0.15370724E+05</totfact>
</mgrwt>
</event>
<event>
 4    2  0.4063641E+000  0.2030885E+03  0.7546771E-02  0.1147159E+00
         21   -1    0    0  503  502  0.00000000000E+00  0.00000000000E+00  0.53913221517E+03  0.53913221517E+03  0.00000000000E+00 0. -1.
         21   -1    0    0  501  503 -0.00000000000E+00 -0.00000000000E+00 -0.81539929848E+02  0.81539929848E+02  0.00000000000E+00 0. -1.
          6    1    1    2  501    0 -0.94721950434E+02  0.48411653589E+02  0.15166075034E+03  0.25346778748E+03  0.17300000000E+03 0. -1.
         -6    1    1    2    0  502  0.94721950434E+02 -0.48411653589E+02  0.30593153497E+03  0.36720435753E+03  0.17300000000E+03 0. -1.
<mgrwt>
<rscale>  2 0.20308849E+03</rscale>
<asrwt>0</asrwt>
<pdfrwt beam="1">  1       21 0.82943415E-01 0.20308849E+03</pdfrwt>
<pdfrwt beam="2">  1       21 0.12544605E-01 0.20308849E+03</pdfrwt>
<totfact> 0.68341012E+04</totfact>
</mgrwt>
</event>
<event>
 4    2  0.4063641E+000  0.1790106E+03  0.7546771E-02  0.1168764E+00
         21   -1    0    0  503  502  0.00000000000E+00  0.00000000000E+00  0.15664514533E+03  0.15664514533E+03  0.00000000000E+00 0. -1.
         21   -1    0    0  501  503 -0.00000000000E+00 -0.00000000000E+00 -0.20501822689E+03  0.20501822689E+03  0.00000000000E+00 0. -1.
          6    1    1    2  501    0  0.47522205222E+01 -0.45751692663E+02 -0.32647608661E+02  0.18196336811E+03  0.17300000000E+03 0. -1.
         -6    1    1    2    0  502 -0.47522205222E+01  0.45751692663E+02 -0.15725472893E+02  0.17970000412E+03  0.17300000000E+03 0. -1.
<mgrwt>
<rscale>  2 0.17901062E+03</rscale>
<asrwt>0</asrwt>
<pdfrwt beam="1">  1       21 0.24099253E-01 0.17901062E+03</pdfrwt>
<pdfrwt beam="2">  1       21 0.31541266E-01 0.17901062E+03</pdfrwt>
<totfact> 0.15762484E+05</totfact>
</mgrwt>
</event>
<event>
 4    2  0.4063641E+000  0.2768244E+03  0.7546771E-02  0.1097436E+00
         21   -1    0    0  503  502  0.00000000000E+00  0.00000000000E+00  0.93974641049E+02  0.93974641049E+02  0.00000000000E+00 0.  1.
         21   -1    0    0  501  503 -0.00000000000E+00 -0.00000000000E+00 -0.10444983974E+04  0.10444983974E+04  0.00000000000E+00 0.  1.
          6    1    1    2  501    0 -0.35660260000E+02 -0.21314564794E+03 -0.74182586915E+03  0.79179374936E+03  0.17300000000E+03 0.  1.
         -6    1    1    2    0  502  0.35660260000E+02  0.21314564794E+03 -0.20869788725E+03  0.34667928914E+03  0.17300000000E+03 0.  1.
<mgrwt>
<rscale>  2 0.27682435E+03</rscale>
<asrwt>0</asrwt>
<pdfrwt beam="1">  1       21 0.14457638E-01 0.27682435E+03</pdfrwt>
<pdfrwt beam="2">  1       21 0.16069206E+00 0.27682435E+03</pdfrwt>
<totfact> 0.98704328E+03</totfact>
</mgrwt>
</event>
<event>
 4    2  0.4063641E+000  0.2181301E+03  0.7546771E-02  0.1135285E+00
         21   -1    0    0  501  502  0.00000000000E+00  0.00000000000E+00  0.36985351105E+03  0.36985351105E+03  0.00000000000E+00 0. -1.
         21   -1    0    0  502  503 -0.00000000000E+00 -0.00000000000E+00 -0.13051176961E+03  0.13051176961E+03  0.00000000000E+00 0. -1.
          6    1    1    2  501    0  0.13284165192E+03  0.21998084780E+01  0.14957163285E+03  0.26448519240E+03  0.17300000000E+03 0. -1.
         -6    1    1    2    0  503 -0.13284165192E+03 -0.21998084780E+01  0.89770108591E+02  0.23588008826E+03  0.17300000000E+03 0. -1.
<mgrwt>
<rscale>  2 0.21813011E+03</rscale>
<asrwt>0</asrwt>
<pdfrwt beam="1">  1       21 0.56900540E-01 0.21813011E+03</pdfrwt>
<pdfrwt beam="2">  1       21 0.20078734E-01 0.21813011E+03</pdfrwt>
<totfact> 0.65752592E+04</totfact>
</mgrwt>
</event>
<event>
 4    2  0.4063641E+000  0.2471284E+03  0.7546771E-02  0.1115133E+00
         21   -1    0    0  501  502  0.00000000000E+00  0.00000000000E+00  0.14243124994E+04  0.14243124994E+04  0.00000000000E+00 0.  1.
         21   -1    0    0  502  503 -0.00000000000E+00 -0.00000000000E+00 -0.51317808924E+02  0.51317808924E+02  0.00000000000E+00 0. -1.
          6    1    1    2  501    0  0.13978320579E+03  0.10772222492E+03  0.98570056225E+03  0.10162076662E+04  0.17300000000E+03 0.  1.
         -6    1    1    2    0  503 -0.13978320579E+03 -0.10772222492E+03  0.38729412820E+03  0.45942264213E+03  0.17300000000E+03 0. -1.
<mgrwt>
<rscale>  2 0.24712835E+03</rscale>
<asrwt>0</asrwt>
<pdfrwt beam="1">  1       21 0.21912497E+00 0.24712835E+03</pdfrwt>
<pdfrwt beam="2">  1       21 0.78950486E-02 0.24712835E+03</pdfrwt>
<totfact> 0.11987793E+04</totfact>
</mgrwt>
</event>
<event>
 4    2  0.4063641E+000  0.2004344E+03  0.7546771E-02  0.1149373E+00
         21   -1    0    0  501  502  0.00000000000E+00  0.00000000000E+00  0.35719124320E+03  0.35719124320E+03  0.00000000000E+00 0. -1.
         21   -1    0    0  502  503 -0.00000000000E+00 -0.00000000000E+00 -0.28845937823E+03  0.28845937823E+03  0.00000000000E+00 0.  1.
          6    1    1    2  501    0 -0.60716282367E+02 -0.80984564488E+02  0.28652011068E+03  0.34966804322E+03  0.17300000000E+03 0. -1.
         -6    1    1    2    0  503  0.60716282367E+02  0.80984564488E+02 -0.21778824571E+03  0.29598257820E+03  0.17300000000E+03 0.  1.
<mgrwt>
<rscale>  2 0.20043444E+03</rscale>
<asrwt>0</asrwt>
<pdfrwt beam="1">  1       21 0.54952499E-01 0.20043444E+03</pdfrwt>
<pdfrwt beam="2">  1       21 0.44378366E-01 0.20043444E+03</pdfrwt>
<totfact> 0.15161053E+04</totfact>
</mgrwt>
</event>
<event>
 4    2  0.4063641E+000  0.3069472E+03  0.7546771E-02  0.1081818E+00
         21   -1    0    0  503  502  0.00000000000E+00  0.00000000000E+00  0.59669241256E+02  0.59669241256E+02  0.00000000000E+00 0. -1.
         21   -1    0    0  501  503 -0.00000000000E+00 -0.00000000000E+00 -0.16266879509E+04  0.16266879509E+04  0.00000000000E+00 0. -1.
          6    1    1    2  501    0 -0.81267503694E+02 -0.24017327250E+03 -0.63911256619E+03  0.70900033868E+03  0.17300000000E+03 0. -1.
         -6    1    1    2    0  502  0.81267503694E+02  0.24017327250E+03 -0.92790614341E+03  0.97735685344E+03  0.17300000000E+03 0. -1.
<mgrwt>
<rscale>  2 0.30694724E+03</rscale>
<asrwt>0</asrwt>
<pdfrwt beam="1">  1       21 0.91798819E-02 0.30694724E+03</pdfrwt>
<pdfrwt beam="2">  1       21 0.25025972E+00 0.30694724E+03</pdfrwt>
<totfact> 0.57003684E+03</totfact>
</mgrwt>
</event>
<event>
 4    2  0.4063641E+000  0.1878967E+03  0.7546771E-02  0.1160372E+00
         21   -1    0    0  503  502  0.00000000000E+00  0.00000000000E+00  0.34337056427E+04  0.34337056427E+04  0.00000000000E+00 0.  1.
         21   -1    0    0  501  503 -0.00000000000E+00 -0.00000000000E+00 -0.28105824904E+02  0.28105824904E+02  0.00000000000E+00 0.  1.
          6    1    1    2  501    0  0.20806950068E+02 -0.70308194210E+02  0.32439637977E+03  0.37488422553E+03  0.17300000000E+03 0.  1.
         -6    1    1    2    0  502 -0.20806950068E+02  0.70308194210E+02  0.30812034380E+04  0.30869272420E+04  0.17300000000E+03 0.  1.
<mgrwt>
<rscale>  2 0.18789670E+03</rscale>
<asrwt>0</asrwt>
<pdfrwt beam="1">  1       21 0.52826207E+00 0.18789670E+03</pdfrwt>
<pdfrwt beam="2">  1       21 0.43239758E-02 0.18789670E+03</pdfrwt>
<totfact> 0.41166908E+02</totfact>
</mgrwt>
</event>
<event>
 4    2  0.4063641E+000  0.1895201E+03  0.7546771E-02  0.1158895E+00
         21   -1    0    0  501  502  0.00000000000E+00  0.00000000000E+00  0.55058600573E+03  0.55058600573E+03  0.00000000000E+00 0.  1.
         21   -1    0    0  502  503 -0.00000000000E+00 -0.00000000000E+00 -0.13853400502E+03  0.13853400502E+03  0.00000000000E+00 0.  1.
          6    1    1    2  501    0 -0.36755167347E+01 -0.77300445449E+02  0.45665632160E+03  0.49442174745E+03  0.17300000000E+03 0.  1.
         -6    1    1    2    0  503  0.36755167347E+01  0.77300445449E+02 -0.44604320897E+02  0.19469826330E+03  0.17300000000E+03 0.  1.
<mgrwt>
<rscale>  2 0.18952010E+03</rscale>
<asrwt>0</asrwt>
<pdfrwt beam="1">  1       21 0.84705538E-01 0.18952010E+03</pdfrwt>
<pdfrwt beam="2">  1       21 0.21312924E-01 0.18952010E+03</pdfrwt>
<totfact> 0.24793973E+04</totfact>
</mgrwt>
</event>
<event>
 4    2  0.4063641E+000  0.2382362E+03  0.7546771E-02  0.1120973E+00
         21   -1    0    0  501  502  0.00000000000E+00  0.00000000000E+00  0.91753039257E+03  0.91753039257E+03  0.00000000000E+00 0.  1.
         21   -1    0    0  502  503 -0.00000000000E+00 -0.00000000000E+00 -0.13365493868E+03  0.13365493868E+03  0.00000000000E+00 0. -1.
          6    1    1    2  501    0 -0.15491750518E+03 -0.53179427458E+02  0.77715887140E+03  0.81285447426E+03  0.17300000000E+03 0.  1.
         -6    1    1    2    0  503  0.15491750518E+03  0.53179427458E+02  0.67165824784E+01  0.23833085699E+03  0.17300000000E+03 0. -1.
<mgrwt>
<rscale>  2 0.23823620E+03</rscale>
<asrwt>0</asrwt>
<pdfrwt beam="1">  1       21 0.14115852E+00 0.23823620E+03</pdfrwt>
<pdfrwt beam="2">  1       21 0.20562299E-01 0.23823620E+03</pdfrwt>
<totfact> 0.74275396E+03</totfact>
</mgrwt>
</event>
<event>
 4    2  0.4063641E+000  0.1730656E+03  0.7546771E-02  0.1174688E+00
         21   -1    0    0  501  502  0.00000000000E+00  0.00000000000E+00  0.32460990838E+02  0.32460990838E+02  0.00000000000E+00 0. -1.
         21   -1    0    0  502  503 -0.00000000000E+00 -0.00000000000E+00 -0.12368124713E+04  0.12368124713E+04  0.00000000000E+00 0. -1.
          6    1    1    2  501    0  0.28794393234E+01  0.37952572815E+01 -0.28234723568E+03  0.33116711287E+03  0.17300000000E+03 0. -1.
         -6    1    1    2    0  503 -0.28794393234E+01 -0.37952572815E+01 -0.92200424482E+03  0.93810634931E+03  0.17300000000E+03 0. -1.
<mgrwt>
<rscale>  2 0.17306558E+03</rscale>
<asrwt>0</asrwt>
<pdfrwt beam="1">  1       21 0.49939990E-02 0.17306558E+03</pdfrwt>
<pdfrwt beam="2">  1       21 0.19027883E+00 0.17306558E+03</pdfrwt>
<totfact> 0.42413682E+04</totfact>
</mgrwt>
</event>
<event>
 4    2  0.4063641E+000  0.2190468E+03  0.7546771E-02  0.1134596E+00
         21   -1    0    0  501  502  0.00000000000E+00  0.00000000000E+00  0.57038177904E+03  0.57038177904E+03  0.00000000000E+00 0. -1.
         21   -1    0    0  502  503 -0.00000000000E+00 -0.00000000000E+00 -0.31633681522E+03  0.31633681522E+03  0.00000000000E+00 0.  1.
          6    1    1    2  501    0  0.94418307976E+02 -0.95591176129E+02  0.50688477489E+03  0.55218988116E+03  0.17300000000E+03 0. -1.
         -6    1    1    2    0  503 -0.94418307976E+02  0.95591176129E+02 -0.25283981107E+03  0.33452871311E+03  0.17300000000E+03 0.  1.
<mgrwt>
<rscale>  2 0.21904678E+03</rscale>
<asrwt>0</asrwt>
<pdfrwt beam="1">  1       21 0.87751042E-01 0.21904678E+03</pdfrwt>
<pdfrwt beam="2">  1       21 0.48667203E-01 0.21904678E+03</pdfrwt>
<totfact> 0.43986040E+03</totfact>
</mgrwt>
</event>
<event>
 4    2  0.4063641E+000  0.1812217E+03  0.7546771E-02  0.1166626E+00
         21   -1    0    0  501  502  0.00000000000E+00  0.00000000000E+00  0.15093358552E+04  0.15093358552E+04  0.00000000000E+00 0. -1.
         21   -1    0    0  502  503 -0.00000000000E+00 -0.00000000000E+00 -0.26077531931E+02  0.26077531931E+02  0.00000000000E+00 0. -1.
          6    1    1    2  501    0  0.62795176320E+01  0.53599208944E+02  0.10540508605E+04  0.10695160233E+04  0.17300000000E+03 0. -1.
         -6    1    1    2    0  503 -0.62795176320E+01 -0.53599208944E+02  0.42920746276E+03  0.46589736383E+03  0.17300000000E+03 0. -1.
<mgrwt>
<rscale>  2 0.18122171E+03</rscale>
<asrwt>0</asrwt>
<pdfrwt beam="1">  1       21 0.23220545E+00 0.18122171E+03</pdfrwt>
<pdfrwt beam="2">  1       21 0.40119292E-02 0.18122171E+03</pdfrwt>
<totfact> 0.33369003E+04</totfact>
</mgrwt>
</event>
<event>
 4    2  0.4063641E+000  0.1779523E+03  0.7546771E-02  0.1169800E+00
         21   -1    0    0  501  502  0.00000000000E+00  0.00000000000E+00  0.10263062716E+03  0.10263062716E+03  0.00000000000E+00 0. -1.
         21   -1    0    0  502  503 -0.00000000000E+00 -0.00000000000E+00 -0.31064053551E+03  0.31064053551E+03  0.00000000000E+00 0.  1.
          6    1    1    2  501    0 -0.73503320229E+01 -0.41036304154E+02 -0.12094345615E+03  0.21516116105E+03  0.17300000000E+03 0. -1.
         -6    1    1    2    0  503  0.73503320229E+01  0.41036304154E+02 -0.87066452201E+02  0.19811000161E+03  0.17300000000E+03 0. -1.
<mgrwt>
<rscale>  2 0.17795226E+03</rscale>
<asrwt>0</asrwt>
<pdfrwt beam="1">  1       21 0.15789328E-01 0.17795226E+03</pdfrwt>
<pdfrwt beam="2">  1       21 0.47790851E-01 0.17795226E+03</pdfrwt>
<totfact> 0.15024430E+05</totfact>
</mgrwt>
</event>
<event>
 4    2  0.4063641E+000  0.1907492E+03  0.7546771E-02  0.1157787E+00
         21   -1    0    0  503  502  0.00000000000E+00  0.00000000000E+00  0.92045684984E+03  0.92045684984E+03  0.00000000000E+00 0.  1.
         21   -1    0    0  501  503 -0.00000000000E+00 -0.00000000000E+00 -0.67122315429E+02  0.67122315429E+02  0.00000000000E+00 0. -1.
          6    1    1    2  501    0  0.57358562019E+02  0.56269595269E+02  0.74326357309E+03  0.76734999256E+03  0.17300000000E+03 0.  1.
         -6    1    1    2    0  502 -0.57358562019E+02 -0.56269595269E+02  0.11007096132E+03  0.22022917271E+03  0.17300000000E+03 0. -1.
<mgrwt>
<rscale>  2 0.19074924E+03</rscale>
<asrwt>0</asrwt>
<pdfrwt beam="1">  1       21 0.14160874E+00 0.19074924E+03</pdfrwt>
<pdfrwt beam="2">  1       21 0.10326511E-01 0.19074924E+03</pdfrwt>
<totfact> 0.26664980E+04</totfact>
</mgrwt>
</event>
<event>
 4    2  0.4063641E+000  0.1792562E+03  0.7546771E-02  0.1168525E+00
         21   -1    0    0  503  502  0.00000000000E+00  0.00000000000E+00  0.20037998263E+03  0.20037998263E+03  0.00000000000E+00 0. -1.
         21   -1    0    0  501  503 -0.00000000000E+00 -0.00000000000E+00 -0.16401219631E+03  0.16401219631E+03  0.00000000000E+00 0. -1.
          6    1    1    2  501    0 -0.66478610071E+01  0.46471223603E+02 -0.90072263149E+01  0.17948230778E+03  0.17300000000E+03 0.  1.
         -6    1    1    2    0  502  0.66478610071E+01 -0.46471223603E+02  0.45375012638E+02  0.18490987116E+03  0.17300000000E+03 0.  1.
<mgrwt>
<rscale>  2 0.17925615E+03</rscale>
<asrwt>0</asrwt>
<pdfrwt beam="1">  1       21 0.30827690E-01 0.17925615E+03</pdfrwt>
<pdfrwt beam="2">  1       21 0.25232646E-01 0.17925615E+03</pdfrwt>
<totfact> 0.15101774E+05</totfact>
</mgrwt>
</event>
<event>
 4    2  0.4063641E+000  0.1875445E+03  0.7546771E-02  0.1160695E+00
         21   -1    0    0  501  502  0.00000000000E+00  0.00000000000E+00  0.51210178414E+03  0.51210178414E+03  0.00000000000E+00 0.  1.
         21   -1    0    0  502  503 -0.00000000000E+00 -0.00000000000E+00 -0.17217404552E+03  0.17217404552E+03  0.00000000000E+00 0.  1.
          6    1    1    2  501    0 -0.59126535828E+02 -0.41808891939E+02  0.43522141704E+03  0.47390992027E+03  0.17300000000E+03 0.  1.
         -6    1    1    2    0  503  0.59126535828E+02  0.41808891939E+02 -0.95293678425E+02  0.21036590939E+03  0.17300000000E+03 0.  1.
<mgrwt>
<rscale>  2 0.18754448E+03</rscale>
<asrwt>0</asrwt>
<pdfrwt beam="1">  1       21 0.78784889E-01 0.18754448E+03</pdfrwt>
<pdfrwt beam="2">  1       21 0.26488315E-01 0.18754448E+03</pdfrwt>
<totfact> 0.19363580E+04</totfact>
</mgrwt>
</event>
<event>
 4    2  0.4063641E+000  0.1985725E+03  0.7546771E-02  0.1150949E+00
         21   -1    0    0  501  502  0.00000000000E+00  0.00000000000E+00  0.65391132690E+03  0.65391132690E+03  0.00000000000E+00 0. -1.
         21   -1    0    0  502  503 -0.00000000000E+00 -0.00000000000E+00 -0.13898223722E+03  0.13898223722E+03  0.00000000000E+00 0. -1.
          6    1    1    2  501    0  0.97152614408E+02  0.79635735229E+01  0.55575734485E+03  0.59016715881E+03  0.17300000000E+03 0. -1.
         -6    1    1    2    0  503 -0.97152614408E+02 -0.79635735229E+01 -0.40828255169E+02  0.20272640531E+03  0.17300000000E+03 0. -1.
<mgrwt>
<rscale>  2 0.19857253E+03</rscale>
<asrwt>0</asrwt>
<pdfrwt beam="1">  1       21 0.10060174E+00 0.19857253E+03</pdfrwt>
<pdfrwt beam="2">  1       21 0.21381883E-01 0.19857253E+03</pdfrwt>
<totfact> 0.16420616E+04</totfact>
</mgrwt>
</event>
<event>
 4    2  0.4063641E+000  0.1739472E+03  0.7546771E-02  0.1173793E+00
         21   -1    0    0  503  502  0.00000000000E+00  0.00000000000E+00  0.18543174915E+03  0.18543174915E+03  0.00000000000E+00 0.  1.
         21   -1    0    0  501  503 -0.00000000000E+00 -0.00000000000E+00 -0.22001308528E+03  0.22001308528E+03  0.00000000000E+00 0.  1.
          6    1    1    2  501    0 -0.50439494588E+01 -0.17412542295E+02 -0.12032954237E+03  0.21151084327E+03  0.17300000000E+03 0.  1.
         -6    1    1    2    0  502  0.50439494588E+01  0.17412542295E+02  0.85748206234E+02  0.19393399116E+03  0.17300000000E+03 0.  1.
<mgrwt>
<rscale>  2 0.17394723E+03</rscale>
<asrwt>0</asrwt>
<pdfrwt beam="1">  1       21 0.28527961E-01 0.17394723E+03</pdfrwt>
<pdfrwt beam="2">  1       21 0.33848167E-01 0.17394723E+03</pdfrwt>
<totfact> 0.99514951E+04</totfact>
</mgrwt>
</event>
<event>
 4    2  0.4063641E+000  0.1766883E+03  0.7546771E-02  0.1171047E+00
         21   -1    0    0  503  502  0.00000000000E+00  0.00000000000E+00  0.12132313845E+03  0.12132313845E+03  0.00000000000E+00 0. -1.
         21   -1    0    0  501  503 -0.00000000000E+00 -0.00000000000E+00 -0.46426497731E+03  0.46426497731E+03  0.00000000000E+00 0. -1.
          6    1    1    2  501    0  0.28335005689E+02 -0.22065143942E+02 -0.36695339914E+03  0.40727575458E+03  0.17300000000E+03 0. -1.
         -6    1    1    2    0  502 -0.28335005689E+02  0.22065143942E+02  0.24011560285E+02  0.17831236119E+03  0.17300000000E+03 0. -1.
<mgrwt>
<rscale>  2 0.17668827E+03</rscale>
<asrwt>0</asrwt>
<pdfrwt beam="1">  1       21 0.18665098E-01 0.17668827E+03</pdfrwt>
<pdfrwt beam="2">  1       21 0.71425380E-01 0.17668827E+03</pdfrwt>
<totfact> 0.46889007E+04</totfact>
</mgrwt>
</event>
<event>
 4    2  0.4063641E+000  0.2150897E+03  0.7546771E-02  0.1137598E+00
         21   -1    0    0  501  502  0.00000000000E+00  0.00000000000E+00  0.56171530382E+03  0.56171530382E+03  0.00000000000E+00 0. -1.
         21   -1    0    0  502  503 -0.00000000000E+00 -0.00000000000E+00 -0.84582465735E+02  0.84582465735E+02  0.00000000000E+00 0. -1.
          6    1    1    2  501    0  0.18975677610E+02  0.12639028244E+03  0.29093332856E+03  0.36180904011E+03  0.17300000000E+03 0. -1.
         -6    1    1    2    0  503 -0.18975677610E+02 -0.12639028244E+03  0.18619950952E+03  0.28448872944E+03  0.17300000000E+03 0. -1.
<mgrwt>
<rscale>  2 0.21508970E+03</rscale>
<asrwt>0</asrwt>
<pdfrwt beam="1">  1       21 0.86417737E-01 0.21508970E+03</pdfrwt>
<pdfrwt beam="2">  1       21 0.13012687E-01 0.21508970E+03</pdfrwt>
<totfact> 0.57916822E+04</totfact>
</mgrwt>
</event>
<event>
 4    2  0.4063641E+000  0.1782715E+03  0.7546771E-02  0.1169486E+00
         21   -1    0    0  503  502  0.00000000000E+00  0.00000000000E+00  0.10920837380E+03  0.10920837380E+03  0.00000000000E+00 0. -1.
         21   -1    0    0  501  503 -0.00000000000E+00 -0.00000000000E+00 -0.51892715200E+03  0.51892715200E+03  0.00000000000E+00 0. -1.
          6    1    1    2  501    0 -0.16996690961E+02  0.39532720697E+02 -0.41300090582E+03  0.44983382679E+03  0.17300000000E+03 0. -1.
         -6    1    1    2    0  502  0.16996690961E+02 -0.39532720697E+02  0.32821276246E+01  0.17830169901E+03  0.17300000000E+03 0. -1.
<mgrwt>
<rscale>  2 0.17827149E+03</rscale>
<asrwt>0</asrwt>
<pdfrwt beam="1">  1       21 0.16801289E-01 0.17827149E+03</pdfrwt>
<pdfrwt beam="2">  1       21 0.79834945E-01 0.17827149E+03</pdfrwt>
<totfact> 0.44368568E+04</totfact>
</mgrwt>
</event>
<event>
 4    2  0.4063641E+000  0.2335579E+03  0.7546771E-02  0.1124160E+00
         21   -1    0    0  503  502  0.00000000000E+00  0.00000000000E+00  0.59922956985E+03  0.59922956985E+03  0.00000000000E+00 0. -1.
         21   -1    0    0  501  503 -0.00000000000E+00 -0.00000000000E+00 -0.13276234994E+03  0.13276234994E+03  0.00000000000E+00 0.  1.
          6    1    1    2  501    0 -0.38399855639E+02 -0.15213720639E+03  0.28040395101E+02  0.23523507867E+03  0.17300000000E+03 0.  1.
         -6    1    1    2    0  502  0.38399855639E+02  0.15213720639E+03  0.43842682481E+03  0.49675684112E+03  0.17300000000E+03 0. -1.
<mgrwt>
<rscale>  2 0.23355787E+03</rscale>
<asrwt>0</asrwt>
<pdfrwt beam="1">  1       21 0.92189163E-01 0.23355787E+03</pdfrwt>
<pdfrwt beam="2">  1       21 0.20424977E-01 0.23355787E+03</pdfrwt>
<totfact> 0.21541078E+04</totfact>
</mgrwt>
</event>
<event>
 4    2  0.4063641E+000  0.2168717E+03  0.7546771E-02  0.1136237E+00
         21   -1    0    0  501  502  0.00000000000E+00  0.00000000000E+00  0.12013858499E+03  0.12013858499E+03  0.00000000000E+00 0.  1.
         21   -1    0    0  502  503 -0.00000000000E+00 -0.00000000000E+00 -0.49732240765E+03  0.49732240765E+03  0.00000000000E+00 0.  1.
          6    1    1    2  501    0  0.12655864623E+03  0.32973270918E+02 -0.46173808948E+02  0.22173260510E+03  0.17300000000E+03 0.  1.
         -6    1    1    2    0  503 -0.12655864623E+03 -0.32973270918E+02 -0.33101001371E+03  0.39572838754E+03  0.17300000000E+03 0.  1.
<mgrwt>
<rscale>  2 0.21687168E+03</rscale>
<asrwt>0</asrwt>
<pdfrwt beam="1">  1       21 0.18482859E-01 0.21687168E+03</pdfrwt>
<pdfrwt beam="2">  1       21 0.76511139E-01 0.21687168E+03</pdfrwt>
<totfact> 0.40148006E+04</totfact>
</mgrwt>
</event>
<event>
 4    2  0.4063641E+000  0.2498231E+03  0.7546771E-02  0.1113417E+00
         21   -1    0    0  501  502  0.00000000000E+00  0.00000000000E+00  0.33746338507E+03  0.33746338507E+03  0.00000000000E+00 0. -1.
         21   -1    0    0  502  503 -0.00000000000E+00 -0.00000000000E+00 -0.36347985357E+03  0.36347985357E+03  0.00000000000E+00 0. -1.
          6    1    1    2  501    0 -0.32235637449E+02 -0.17732296791E+03  0.23261889441E+03  0.34135483196E+03  0.17300000000E+03 0. -1.
         -6    1    1    2    0  503  0.32235637449E+02  0.17732296791E+03 -0.25863536290E+03  0.35958840667E+03  0.17300000000E+03 0. -1.
<mgrwt>
<rscale>  2 0.24982308E+03</rscale>
<asrwt>0</asrwt>
<pdfrwt beam="1">  1       21 0.51917444E-01 0.24982308E+03</pdfrwt>
<pdfrwt beam="2">  1       21 0.55919977E-01 0.24982308E+03</pdfrwt>
<totfact> 0.10237219E+04</totfact>
</mgrwt>
</event>
<event>
 4    2  0.4063641E+000  0.1741414E+03  0.7546771E-02  0.1173597E+00
         21   -1    0    0  501  502  0.00000000000E+00  0.00000000000E+00  0.31286837311E+03  0.31286837311E+03  0.00000000000E+00 0. -1.
         21   -1    0    0  502  503 -0.00000000000E+00 -0.00000000000E+00 -0.10435074950E+03  0.10435074950E+03  0.00000000000E+00 0. -1.
          6    1    1    2  501    0  0.17456742944E+02 -0.95648702308E+01  0.15990222998E+03  0.23641900890E+03  0.17300000000E+03 0. -1.
         -6    1    1    2    0  503 -0.17456742944E+02  0.95648702308E+01  0.48615393631E+02  0.18080011370E+03  0.17300000000E+03 0. -1.
<mgrwt>
<rscale>  2 0.17414139E+03</rscale>
<asrwt>0</asrwt>
<pdfrwt beam="1">  1       21 0.48133596E-01 0.17414139E+03</pdfrwt>
<pdfrwt beam="2">  1       21 0.16053962E-01 0.17414139E+03</pdfrwt>
<totfact> 0.14380224E+05</totfact>
</mgrwt>
</event>
<event>
 4    2  0.4063641E+000  0.2424094E+03  0.7546771E-02  0.1118198E+00
         21   -1    0    0  501  502  0.00000000000E+00  0.00000000000E+00  0.19976412574E+03  0.19976412574E+03  0.00000000000E+00 0.  1.
         21   -1    0    0  502  503 -0.00000000000E+00 -0.00000000000E+00 -0.29885349478E+03  0.29885349478E+03  0.00000000000E+00 0.  1.
          6    1    1    2  501    0  0.99578693096E+01 -0.16951156700E+03 -0.18296660612E+02  0.24309894754E+03  0.17300000000E+03 0.  1.
         -6    1    1    2    0  503 -0.99578693096E+01  0.16951156700E+03 -0.80792708420E+02  0.25551867298E+03  0.17300000000E+03 0.  1.
<mgrwt>
<rscale>  2 0.24240943E+03</rscale>
<asrwt>0</asrwt>
<pdfrwt beam="1">  1       21 0.30732942E-01 0.24240943E+03</pdfrwt>
<pdfrwt beam="2">  1       21 0.45977461E-01 0.24240943E+03</pdfrwt>
<totfact> 0.45039745E+04</totfact>
</mgrwt>
</event>
<event>
 4    2  0.4063641E+000  0.1778178E+03  0.7546771E-02  0.1169932E+00
         21   -1    0    0  501  502  0.00000000000E+00  0.00000000000E+00  0.70777076016E+02  0.70777076016E+02  0.00000000000E+00 0. -1.
         21   -1    0    0  502  503 -0.00000000000E+00 -0.00000000000E+00 -0.72832660721E+03  0.72832660721E+03  0.00000000000E+00 0. -1.
          6    1    1    2  501    0 -0.39456056847E+02  0.11548813099E+02 -0.80339172142E+02  0.19512441694E+03  0.17300000000E+03 0. -1.
         -6    1    1    2    0  503  0.39456056847E+02 -0.11548813099E+02 -0.57721035906E+03  0.60397926629E+03  0.17300000000E+03 0. -1.
<mgrwt>
<rscale>  2 0.17781776E+03</rscale>
<asrwt>0</asrwt>
<pdfrwt beam="1">  1       21 0.10888780E-01 0.17781776E+03</pdfrwt>
<pdfrwt beam="2">  1       21 0.11205025E+00 0.17781776E+03</pdfrwt>
<totfact> 0.43924468E+04</totfact>
</mgrwt>
</event>
<event>
 4    2  0.4063641E+000  0.1970208E+03  0.7546771E-02  0.1152277E+00
         21   -1    0    0  503  502  0.00000000000E+00  0.00000000000E+00  0.18662099651E+04  0.18662099651E+04  0.00000000000E+00 0.  1.
         21   -1    0    0  501  503 -0.00000000000E+00 -0.00000000000E+00 -0.20833994462E+02  0.20833994462E+02  0.00000000000E+00 0. -1.
          6    1    1    2  501    0  0.81993591026E+02 -0.46532055137E+02  0.88457943566E+03  0.90625490847E+03  0.17300000000E+03 0. -1.
         -6    1    1    2    0  502 -0.81993591026E+02  0.46532055137E+02  0.96079653499E+03  0.98078905111E+03  0.17300000000E+03 0.  1.
<mgrwt>
<rscale>  2 0.19702076E+03</rscale>
<asrwt>0</asrwt>
<pdfrwt beam="1">  1       21 0.28710910E+00 0.19702076E+03</pdfrwt>
<pdfrwt beam="2">  1       21 0.32052314E-02 0.19702076E+03</pdfrwt>
<totfact> 0.22866672E+04</totfact>
</mgrwt>
</event>
<event>
 4    2  0.4063641E+000  0.1745268E+03  0.7546771E-02  0.1173208E+00
         21   -1    0    0  501  502  0.00000000000E+00  0.00000000000E+00  0.13417027379E+03  0.13417027379E+03  0.00000000000E+00 0.  1.
         21   -1    0    0  502  503 -0.00000000000E+00 -0.00000000000E+00 -0.25007066475E+03  0.25007066475E+03  0.00000000000E+00 0.  1.
          6    1    1    2  501    0  0.22424856515E+02 -0.52657767289E+01  0.37621384725E+00  0.17452720169E+03  0.17300000000E+03 0.  1.
         -6    1    1    2    0  503 -0.22424856515E+02  0.52657767289E+01 -0.11627660480E+03  0.20971373684E+03  0.17300000000E+03 0.  1.
<mgrwt>
<rscale>  2 0.17452680E+03</rscale>
<asrwt>0</asrwt>
<pdfrwt beam="1">  1       21 0.20641581E-01 0.17452680E+03</pdfrwt>
<pdfrwt beam="2">  1       21 0.38472410E-01 0.17452680E+03</pdfrwt>
<totfact> 0.14261675E+05</totfact>
</mgrwt>
</event>
<event>
 4    2  0.4063641E+000  0.2260403E+03  0.7546771E-02  0.1129458E+00
         21   -1    0    0  503  502  0.00000000000E+00  0.00000000000E+00  0.50842547210E+03  0.50842547210E+03  0.00000000000E+00 0.  1.
         21   -1    0    0  501  503 -0.00000000000E+00 -0.00000000000E+00 -0.14079991700E+03  0.14079991700E+03  0.00000000000E+00 0.  1.
          6    1    1    2  501    0 -0.13272283620E+03  0.59580922959E+02  0.10135458750E+02  0.22626746375E+03  0.17300000000E+03 0.  1.
         -6    1    1    2    0  502  0.13272283620E+03 -0.59580922959E+02  0.35749009635E+03  0.42295792535E+03  0.17300000000E+03 0.  1.
<mgrwt>
<rscale>  2 0.22604035E+03</rscale>
<asrwt>0</asrwt>
<pdfrwt beam="1">  1       21 0.78219303E-01 0.22604035E+03</pdfrwt>
<pdfrwt beam="2">  1       21 0.21661526E-01 0.22604035E+03</pdfrwt>
<totfact> 0.28242326E+04</totfact>
</mgrwt>
</event>
<event>
 4    2  0.4063641E+000  0.2101361E+03  0.7546771E-02  0.1141458E+00
         21   -1    0    0  503  502  0.00000000000E+00  0.00000000000E+00  0.43119938184E+03  0.43119938184E+03  0.00000000000E+00 0.  1.
         21   -1    0    0  501  503 -0.00000000000E+00 -0.00000000000E+00 -0.10392734719E+03  0.10392734719E+03  0.00000000000E+00 0.  1.
          6    1    1    2  501    0  0.11669464942E+03 -0.24708924934E+02  0.13125782596E+03  0.24776155685E+03  0.17300000000E+03 0.  1.
         -6    1    1    2    0  502 -0.11669464942E+03  0.24708924934E+02  0.19601420869E+03  0.28736517218E+03  0.17300000000E+03 0.  1.
<mgrwt>
<rscale>  2 0.21013608E+03</rscale>
<asrwt>0</asrwt>
<pdfrwt beam="1">  1       21 0.66338365E-01 0.21013608E+03</pdfrwt>
<pdfrwt beam="2">  1       21 0.15988823E-01 0.21013608E+03</pdfrwt>
<totfact> 0.72220128E+04</totfact>
</mgrwt>
</event>
<event>
 4    2  0.4063641E+000  0.2269096E+03  0.7546771E-02  0.1128834E+00
         21   -1    0    0  501  502  0.00000000000E+00  0.00000000000E+00  0.36776978738E+03  0.36776978738E+03  0.00000000000E+00 0.  1.
         21   -1    0    0  502  503 -0.00000000000E+00 -0.00000000000E+00 -0.33924254413E+03  0.33924254413E+03  0.00000000000E+00 0. -1.
          6    1    1    2  501    0  0.75336901446E+02  0.12602896646E+03  0.28517818173E+03  0.36443729837E+03  0.17300000000E+03 0.  1.
         -6    1    1    2    0  503 -0.75336901446E+02 -0.12602896646E+03 -0.25665093848E+03  0.34257503314E+03  0.17300000000E+03 0. -1.
<mgrwt>
<rscale>  2 0.22690956E+03</rscale>
<asrwt>0</asrwt>
<pdfrwt beam="1">  1       21 0.56579967E-01 0.22690956E+03</pdfrwt>
<pdfrwt beam="2">  1       21 0.52191161E-01 0.22690956E+03</pdfrwt>
<totfact> 0.10004685E+04</totfact>
</mgrwt>
</event>
<event>
 4    2  0.4063641E+000  0.1868674E+03  0.7546771E-02  0.1161317E+00
         21   -1    0    0  503  502  0.00000000000E+00  0.00000000000E+00  0.42877965545E+03  0.42877965545E+03  0.00000000000E+00 0.  1.
         21   -1    0    0  501  503 -0.00000000000E+00 -0.00000000000E+00 -0.84769813180E+02  0.84769813180E+02  0.00000000000E+00 0.  1.
          6    1    1    2  501    0 -0.11304416083E+02  0.69732693056E+02  0.12110713239E+03  0.22267998522E+03  0.17300000000E+03 0.  1.
         -6    1    1    2    0  502  0.11304416083E+02 -0.69732693056E+02  0.22290270988E+03  0.29086948340E+03  0.17300000000E+03 0.  1.
<mgrwt>
<rscale>  2 0.18686744E+03</rscale>
<asrwt>0</asrwt>
<pdfrwt beam="1">  1       21 0.65966099E-01 0.18686744E+03</pdfrwt>
<pdfrwt beam="2">  1       21 0.13041510E-01 0.18686744E+03</pdfrwt>
<totfact> 0.10689870E+05</totfact>
</mgrwt>
</event>
<event>
 4    2  0.4063641E+000  0.3567081E+03  0.7546771E-02  0.1059895E+00
         21   -1    0    0  503  502  0.00000000000E+00  0.00000000000E+00  0.33768198976E+03  0.33768198976E+03  0.00000000000E+00 0.  1.
         21   -1    0    0  501  503 -0.00000000000E+00 -0.00000000000E+00 -0.37682550732E+03  0.37682550732E+03  0.00000000000E+00 0.  1.
          6    1    1    2  501    0 -0.27614357125E+03  0.14510816299E+03 -0.22132202185E+02  0.35739401965E+03  0.17300000000E+03 0.  1.
         -6    1    1    2    0  502  0.27614357125E+03 -0.14510816299E+03 -0.17011315378E+02  0.35711347743E+03  0.17300000000E+03 0.  1.
<mgrwt>
<rscale>  2 0.35670808E+03</rscale>
<asrwt>0</asrwt>
<pdfrwt beam="1">  1       21 0.51951076E-01 0.35670808E+03</pdfrwt>
<pdfrwt beam="2">  1       21 0.57973155E-01 0.35670808E+03</pdfrwt>
<totfact> 0.90115219E+03</totfact>
</mgrwt>
</event>
<event>
 4    2  0.4063641E+000  0.1903206E+03  0.7546771E-02  0.1158172E+00
         21   -1    0    0  503  502  0.00000000000E+00  0.00000000000E+00  0.93853069853E+03  0.93853069853E+03  0.00000000000E+00 0. -1.
         21   -1    0    0  501  503 -0.00000000000E+00 -0.00000000000E+00 -0.45189240822E+02  0.45189240822E+02  0.00000000000E+00 0. -1.
          6    1    1    2  501    0 -0.74292684741E+02  0.27812438917E+02  0.63457187431E+03  0.66249784787E+03  0.17300000000E+03 0. -1.
         -6    1    1    2    0  502  0.74292684741E+02 -0.27812438917E+02  0.25876958339E+03  0.32122209148E+03  0.17300000000E+03 0. -1.
<mgrwt>
<rscale>  2 0.19032061E+03</rscale>
<asrwt>0</asrwt>
<pdfrwt beam="1">  1       21 0.14438932E+00 0.19032061E+03</pdfrwt>
<pdfrwt beam="2">  1       21 0.69521916E-02 0.19032061E+03</pdfrwt>
<totfact> 0.50620521E+04</totfact>
</mgrwt>
</event>
<event>
 4    2  0.4063641E+000  0.2617668E+03  0.7546771E-02  0.1106086E+00
         21   -1    0    0  503  502  0.00000000000E+00  0.00000000000E+00  0.19902579943E+03  0.19902579943E+03  0.00000000000E+00 0. -1.
         21   -1    0    0  501  503 -0.00000000000E+00 -0.00000000000E+00 -0.37024821642E+03  0.37024821642E+03  0.00000000000E+00 0.  1.
          6    1    1    2  501    0  0.26747702281E+02 -0.19462122903E+03 -0.16098372020E+03  0.30730704602E+03  0.17300000000E+03 0. -1.
         -6    1    1    2    0  502 -0.26747702281E+02  0.19462122903E+03 -0.10238696793E+02  0.26196696983E+03  0.17300000000E+03 0.  1.
<mgrwt>
<rscale>  2 0.26176681E+03</rscale>
<asrwt>0</asrwt>
<pdfrwt beam="1">  1       21 0.30619354E-01 0.26176681E+03</pdfrwt>
<pdfrwt beam="2">  1       21 0.56961263E-01 0.26176681E+03</pdfrwt>
<totfact> 0.28655826E+04</totfact>
</mgrwt>
</event>
<event>
 4    2  0.4063641E+000  0.2409305E+03  0.7546771E-02  0.1119175E+00
         21   -1    0    0  503  502  0.00000000000E+00  0.00000000000E+00  0.25037569406E+03  0.25037569406E+03  0.00000000000E+00 0. -1.
         21   -1    0    0  501  503 -0.00000000000E+00 -0.00000000000E+00 -0.24740229799E+03  0.24740229799E+03  0.00000000000E+00 0. -1.
          6    1    1    2  501    0  0.16235718213E+03 -0.41936030505E+02 -0.60932656698E+02  0.24851614413E+03  0.17300000000E+03 0. -1.
         -6    1    1    2    0  502 -0.16235718213E+03  0.41936030505E+02  0.63906052764E+02  0.24926184791E+03  0.17300000000E+03 0. -1.
<mgrwt>
<rscale>  2 0.24093046E+03</rscale>
<asrwt>0</asrwt>
<pdfrwt beam="1">  1       21 0.38519338E-01 0.24093046E+03</pdfrwt>
<pdfrwt beam="2">  1       21 0.38061892E-01 0.24093046E+03</pdfrwt>
<totfact> 0.42290772E+04</totfact>
</mgrwt>
</event>
<event>
 4    2  0.4063641E+000  0.1963330E+03  0.7546771E-02  0.1152870E+00
         21   -1    0    0  503  502  0.00000000000E+00  0.00000000000E+00  0.10447579851E+03  0.10447579851E+03  0.00000000000E+00 0. -1.
         21   -1    0    0  501  503 -0.00000000000E+00 -0.00000000000E+00 -0.54053754361E+03  0.54053754361E+03  0.00000000000E+00 0. -1.
          6    1    1    2  501    0 -0.86012305704E+02  0.34921671836E+02 -0.39973512338E+03  0.44534796369E+03  0.17300000000E+03 0. -1.
         -6    1    1    2    0  502  0.86012305704E+02 -0.34921671836E+02 -0.36326621720E+02  0.19966537843E+03  0.17300000000E+03 0. -1.
<mgrwt>
<rscale>  2 0.19633298E+03</rscale>
<asrwt>0</asrwt>
<pdfrwt beam="1">  1       21 0.16073199E-01 0.19633298E+03</pdfrwt>
<pdfrwt beam="2">  1       21 0.83159624E-01 0.19633298E+03</pdfrwt>
<totfact> 0.43474080E+04</totfact>
</mgrwt>
</event>
<event>
 4    2  0.4063641E+000  0.1812717E+03  0.7546771E-02  0.1166578E+00
         21   -1    0    0  503  502  0.00000000000E+00  0.00000000000E+00  0.84174300466E+02  0.84174300466E+02  0.00000000000E+00 0. -1.
         21   -1    0    0  501  503 -0.00000000000E+00 -0.00000000000E+00 -0.51784645138E+03  0.51784645138E+03  0.00000000000E+00 0. -1.
          6    1    1    2  501    0  0.54014395769E+02 -0.35878248559E+01 -0.36618075616E+03  0.40859242971E+03  0.17300000000E+03 0. -1.
         -6    1    1    2    0  502 -0.54014395769E+02  0.35878248559E+01 -0.67491394756E+02  0.19342832213E+03  0.17300000000E+03 0. -1.
<mgrwt>
<rscale>  2 0.18127170E+03</rscale>
<asrwt>0</asrwt>
<pdfrwt beam="1">  1       21 0.12949892E-01 0.18127170E+03</pdfrwt>
<pdfrwt beam="2">  1       21 0.79668686E-01 0.18127170E+03</pdfrwt>
<totfact> 0.71415378E+04</totfact>
</mgrwt>
</event>
<event>
 4    2  0.4063641E+000  0.2169213E+03  0.7546771E-02  0.1136199E+00
         21   -1    0    0  501  502  0.00000000000E+00  0.00000000000E+00  0.21647991585E+04  0.21647991585E+04  0.00000000000E+00 0. -1.
         21   -1    0    0  502  503 -0.00000000000E+00 -0.00000000000E+00 -0.97142588391E+02  0.97142588391E+02  0.00000000000E+00 0.  1.
          6    1    1    2  501    0 -0.13057480954E+03 -0.87227535295E+01  0.20302660444E+04  0.20418215099E+04  0.17300000000E+03 0. -1.
         -6    1    1    2    0  503  0.13057480954E+03  0.87227535295E+01  0.37390525721E+02  0.22012023699E+03  0.17300000000E+03 0.  1.
<mgrwt>
<rscale>  2 0.21692134E+03</rscale>
<asrwt>0</asrwt>
<pdfrwt beam="1">  1       21 0.33304599E+00 0.21692134E+03</pdfrwt>
<pdfrwt beam="2">  1       21 0.14945015E-01 0.21692134E+03</pdfrwt>
<totfact> 0.83979192E+02</totfact>
</mgrwt>
</event>
<event>
 4    2  0.4063641E+000  0.3268070E+03  0.7546771E-02  0.1072558E+00
         21   -1    0    0  501  502  0.00000000000E+00  0.00000000000E+00  0.90243369868E+02  0.90243369868E+02  0.00000000000E+00 0.  1.
         21   -1    0    0  502  503 -0.00000000000E+00 -0.00000000000E+00 -0.17118540638E+04  0.17118540638E+04  0.00000000000E+00 0. -1.
          6    1    1    2  501    0  0.20477559898E+03 -0.18692448913E+03 -0.31021966814E+03  0.45059854980E+03  0.17300000000E+03 0.  1.
         -6    1    1    2    0  503 -0.20477559898E+03  0.18692448913E+03 -0.13113910258E+04  0.13514988839E+04  0.17300000000E+03 0. -1.
<mgrwt>
<rscale>  2 0.32680699E+03</rscale>
<asrwt>0</asrwt>
<pdfrwt beam="1">  1       21 0.13883597E-01 0.32680699E+03</pdfrwt>
<pdfrwt beam="2">  1       21 0.26336214E+00 0.32680699E+03</pdfrwt>
<totfact> 0.22275419E+03</totfact>
</mgrwt>
</event>
<event>
 4    2  0.4063641E+000  0.1778160E+03  0.7546771E-02  0.1169934E+00
         21   -1    0    0  501  502  0.00000000000E+00  0.00000000000E+00  0.42426947973E+03  0.42426947973E+03  0.00000000000E+00 0. -1.
         21   -1    0    0  502  503 -0.00000000000E+00 -0.00000000000E+00 -0.12958927651E+03  0.12958927651E+03  0.00000000000E+00 0.  1.
          6    1    1    2  501    0 -0.36824514349E+02  0.18261813727E+02  0.32785822396E+03  0.37297393168E+03  0.17300000000E+03 0. -1.
         -6    1    1    2    0  503  0.36824514349E+02 -0.18261813727E+02 -0.33178020738E+02  0.18088482456E+03  0.17300000000E+03 0.  1.
<mgrwt>
<rscale>  2 0.17781602E+03</rscale>
<asrwt>0</asrwt>
<pdfrwt beam="1">  1       21 0.65272227E-01 0.17781602E+03</pdfrwt>
<pdfrwt beam="2">  1       21 0.19936812E-01 0.17781602E+03</pdfrwt>
<totfact> 0.50505469E+04</totfact>
</mgrwt>
</event>
<event>
 4    2  0.4063641E+000  0.1892203E+03  0.7546771E-02  0.1159166E+00
         21   -1    0    0  501  502  0.00000000000E+00  0.00000000000E+00  0.17138752607E+03  0.17138752607E+03  0.00000000000E+00 0. -1.
         21   -1    0    0  502  503 -0.00000000000E+00 -0.00000000000E+00 -0.44872140957E+03  0.44872140957E+03  0.00000000000E+00 0.  1.
          6    1    1    2  501    0  0.58739480752E+02 -0.49244320072E+02  0.87998744087E+02  0.20868183586E+03  0.17300000000E+03 0. -1.
         -6    1    1    2    0  503 -0.58739480752E+02  0.49244320072E+02 -0.36533262758E+03  0.41142709978E+03  0.17300000000E+03 0.  1.
<mgrwt>
<rscale>  2 0.18922032E+03</rscale>
<asrwt>0</asrwt>
<pdfrwt beam="1">  1       21 0.26367312E-01 0.18922032E+03</pdfrwt>
<pdfrwt beam="2">  1       21 0.69034061E-01 0.18922032E+03</pdfrwt>
<totfact> 0.26183719E+04</totfact>
</mgrwt>
</event>
<event>
 4    2  0.4063641E+000  0.2980996E+03  0.7546771E-02  0.1086194E+00
         21   -1    0    0  501  502  0.00000000000E+00  0.00000000000E+00  0.85916325311E+02  0.85916325311E+02  0.00000000000E+00 0.  1.
         21   -1    0    0  502  503 -0.00000000000E+00 -0.00000000000E+00 -0.11831667818E+04  0.11831667818E+04  0.00000000000E+00 0.  1.
          6    1    1    2  501    0 -0.13749765553E+03  0.20007188125E+03 -0.32354665404E+03  0.43993840511E+03  0.17300000000E+03 0.  1.
         -6    1    1    2    0  503  0.13749765553E+03 -0.20007188125E+03 -0.77370380250E+03  0.82914470205E+03  0.17300000000E+03 0.  1.
<mgrwt>
<rscale>  2 0.29809959E+03</rscale>
<asrwt>0</asrwt>
<pdfrwt beam="1">  1       21 0.13217896E-01 0.29809959E+03</pdfrwt>
<pdfrwt beam="2">  1       21 0.18202566E+00 0.29809959E+03</pdfrwt>
<totfact> 0.80959826E+03</totfact>
</mgrwt>
</event>
<event>
 4    2  0.4063641E+000  0.1736099E+03  0.7546771E-02  0.1174135E+00
         21   -1    0    0  503  502  0.00000000000E+00  0.00000000000E+00  0.11712330851E+04  0.11712330851E+04  0.00000000000E+00 0. -1.
         21   -1    0    0  501  503 -0.00000000000E+00 -0.00000000000E+00 -0.28760474025E+02  0.28760474025E+02  0.00000000000E+00 0. -1.
          6    1    1    2  501    0  0.75566050937E+01  0.12421127205E+02  0.37659856040E+03  0.41468887419E+03  0.17300000000E+03 0. -1.
         -6    1    1    2    0  502 -0.75566050937E+01 -0.12421127205E+02  0.76587405066E+03  0.78530468491E+03  0.17300000000E+03 0. -1.
<mgrwt>
<rscale>  2 0.17360987E+03</rscale>
<asrwt>0</asrwt>
<pdfrwt beam="1">  1       21 0.18018967E+00 0.17360987E+03</pdfrwt>
<pdfrwt beam="2">  1       21 0.44246892E-02 0.17360987E+03</pdfrwt>
<totfact> 0.60691464E+04</totfact>
</mgrwt>
</event>
<event>
 4    2  0.4063641E+000  0.1833022E+03  0.7546771E-02  0.1164645E+00
         21   -1    0    0  503  502  0.00000000000E+00  0.00000000000E+00  0.59980802669E+03  0.59980802669E+03  0.00000000000E+00 0. -1.
         21   -1    0    0  501  503 -0.00000000000E+00 -0.00000000000E+00 -0.57428124886E+02  0.57428124886E+02  0.00000000000E+00 0. -1.
          6    1    1    2  501    0 -0.54402499006E+02  0.26666080335E+02  0.21968562250E+03  0.28611446044E+03  0.17300000000E+03 0. -1.
         -6    1    1    2    0  502  0.54402499006E+02 -0.26666080335E+02  0.32269427930E+03  0.37112169114E+03  0.17300000000E+03 0. -1.
<mgrwt>
<rscale>  2 0.18330224E+03</rscale>
<asrwt>0</asrwt>
<pdfrwt beam="1">  1       21 0.92278153E-01 0.18330224E+03</pdfrwt>
<pdfrwt beam="2">  1       21 0.88350966E-02 0.18330224E+03</pdfrwt>
<totfact> 0.10040737E+05</totfact>
</mgrwt>
</event>
<event>
 4    2  0.4063641E+000  0.2554556E+03  0.7546771E-02  0.1109905E+00
         21   -1    0    0  501  502  0.00000000000E+00  0.00000000000E+00  0.68379697322E+03  0.68379697322E+03  0.00000000000E+00 0. -1.
         21   -1    0    0  502  503 -0.00000000000E+00 -0.00000000000E+00 -0.11687060695E+03  0.11687060695E+03  0.00000000000E+00 0. -1.
          6    1    1    2  501    0  0.52254891068E+02 -0.18054915804E+03  0.45491664619E+03  0.52173434533E+03  0.17300000000E+03 0. -1.
         -6    1    1    2    0  503 -0.52254891068E+02  0.18054915804E+03  0.11200972007E+03  0.27893323484E+03  0.17300000000E+03 0. -1.
<mgrwt>
<rscale>  2 0.25545562E+03</rscale>
<asrwt>0</asrwt>
<pdfrwt beam="1">  1       21 0.10519953E+00 0.25545562E+03</pdfrwt>
<pdfrwt beam="2">  1       21 0.17980094E-01 0.25545562E+03</pdfrwt>
<totfact> 0.19751143E+04</totfact>
</mgrwt>
</event>
<event>
 4    2  0.4063641E+000  0.1820840E+03  0.7546771E-02  0.1165801E+00
         21   -1    0    0  501  502  0.00000000000E+00  0.00000000000E+00  0.61826068125E+03  0.61826068125E+03  0.00000000000E+00 0.  1.
         21   -1    0    0  502  503 -0.00000000000E+00 -0.00000000000E+00 -0.12839611799E+03  0.12839611799E+03  0.00000000000E+00 0.  1.
          6    1    1    2  501    0 -0.22346152725E+02  0.52213450553E+02  0.52982431194E+03  0.56023958847E+03  0.17300000000E+03 0. -1.
         -6    1    1    2    0  503  0.22346152725E+02 -0.52213450553E+02 -0.39959748684E+02  0.18641721078E+03  0.17300000000E+03 0. -1.
<mgrwt>
<rscale>  2 0.18208403E+03</rscale>
<asrwt>0</asrwt>
<pdfrwt beam="1">  1       21 0.95117026E-01 0.18208403E+03</pdfrwt>
<pdfrwt beam="2">  1       21 0.19753249E-01 0.18208403E+03</pdfrwt>
<totfact> 0.21960267E+04</totfact>
</mgrwt>
</event>
<event>
 4    2  0.4063641E+000  0.2177556E+03  0.7546771E-02  0.1135567E+00
         21   -1    0    0  501  502  0.00000000000E+00  0.00000000000E+00  0.68213426761E+02  0.68213426761E+02  0.00000000000E+00 0. -1.
         21   -1    0    0  502  503 -0.00000000000E+00 -0.00000000000E+00 -0.77496927180E+03  0.77496927180E+03  0.00000000000E+00 0. -1.
          6    1    1    2  501    0 -0.12811236742E+03 -0.32798487221E+02 -0.21806322549E+03  0.30817055304E+03  0.17300000000E+03 0. -1.
         -6    1    1    2    0  503  0.12811236742E+03  0.32798487221E+02 -0.48869261955E+03  0.53501214552E+03  0.17300000000E+03 0. -1.
<mgrwt>
<rscale>  2 0.21775564E+03</rscale>
<asrwt>0</asrwt>
<pdfrwt beam="1">  1       21 0.10494373E-01 0.21775564E+03</pdfrwt>
<pdfrwt beam="2">  1       21 0.11922605E+00 0.21775564E+03</pdfrwt>
<totfact> 0.39439381E+04</totfact>
</mgrwt>
</event>
<event>
 4    2  0.4063641E+000  0.2272496E+03  0.7546771E-02  0.1128591E+00
         21   -1    0    0  503  502  0.00000000000E+00  0.00000000000E+00  0.60604337134E+03  0.60604337134E+03  0.00000000000E+00 0. -1.
         21   -1    0    0  501  503 -0.00000000000E+00 -0.00000000000E+00 -0.87327638134E+02  0.87327638134E+02  0.00000000000E+00 0. -1.
          6    1    1    2  501    0  0.44560052745E+02  0.14045566566E+03  0.20540152625E+03  0.30632038669E+03  0.17300000000E+03 0.  1.
         -6    1    1    2    0  502 -0.44560052745E+02 -0.14045566566E+03  0.31331420696E+03  0.38705062279E+03  0.17300000000E+03 0.  1.
<mgrwt>
<rscale>  2 0.22724963E+03</rscale>
<asrwt>0</asrwt>
<pdfrwt beam="1">  1       21 0.93237439E-01 0.22724963E+03</pdfrwt>
<pdfrwt beam="2">  1       21 0.13435022E-01 0.22724963E+03</pdfrwt>
<totfact> 0.45569011E+04</totfact>
</mgrwt>
</event>
<event>
 4    2  0.4063641E+000  0.1883291E+03  0.7546771E-02  0.1159977E+00
         21   -1    0    0  503  502  0.00000000000E+00  0.00000000000E+00  0.25670850954E+03  0.25670850954E+03  0.00000000000E+00 0. -1.
         21   -1    0    0  501  503 -0.00000000000E+00 -0.00000000000E+00 -0.13984983114E+03  0.13984983114E+03  0.00000000000E+00 0. -1.
          6    1    1    2  501    0 -0.47615810312E+02 -0.57197614770E+02  0.80200130838E+02  0.20469463479E+03  0.17300000000E+03 0. -1.
         -6    1    1    2    0  502  0.47615810312E+02  0.57197614770E+02  0.36658547560E+02  0.19186370589E+03  0.17300000000E+03 0. -1.
<mgrwt>
<rscale>  2 0.18832905E+03</rscale>
<asrwt>0</asrwt>
<pdfrwt beam="1">  1       21 0.39493617E-01 0.18832905E+03</pdfrwt>
<pdfrwt beam="2">  1       21 0.21515359E-01 0.18832905E+03</pdfrwt>
<totfact> 0.12460032E+05</totfact>
</mgrwt>
</event>
<event>
 4    2  0.4063641E+000  0.2446424E+03  0.7546771E-02  0.1116738E+00
         21   -1    0    0  503  502  0.00000000000E+00  0.00000000000E+00  0.12979059659E+03  0.12979059659E+03  0.00000000000E+00 0. -1.
         21   -1    0    0  501  503 -0.00000000000E+00 -0.00000000000E+00 -0.50611517280E+03  0.50611517280E+03  0.00000000000E+00 0.  1.
          6    1    1    2  501    0  0.99775811125E+02 -0.14130002385E+03 -0.28295800743E+03  0.37405232682E+03  0.17300000000E+03 0.  1.
         -6    1    1    2    0  502 -0.99775811125E+02  0.14130002385E+03 -0.93366568774E+02  0.26185344258E+03  0.17300000000E+03 0. -1.
<mgrwt>
<rscale>  2 0.24464241E+03</rscale>
<asrwt>0</asrwt>
<pdfrwt beam="1">  1       21 0.19967784E-01 0.24464241E+03</pdfrwt>
<pdfrwt beam="2">  1       21 0.77863872E-01 0.24464241E+03</pdfrwt>
<totfact> 0.32970975E+04</totfact>
</mgrwt>
</event>
<event>
 4    2  0.4063641E+000  0.2040170E+03  0.7546771E-02  0.1146393E+00
         21   -1    0    0  503  502  0.00000000000E+00  0.00000000000E+00  0.14653365131E+03  0.14653365131E+03  0.00000000000E+00 0.  1.
         21   -1    0    0  501  503 -0.00000000000E+00 -0.00000000000E+00 -0.35845517244E+03  0.35845517244E+03  0.00000000000E+00 0. -1.
          6    1    1    2  501    0  0.96893090367E+02 -0.48017296461E+02 -0.22099707297E+03  0.30077007495E+03  0.17300000000E+03 0. -1.
         -6    1    1    2    0  502 -0.96893090367E+02  0.48017296461E+02  0.90755518407E+01  0.20421874880E+03  0.17300000000E+03 0.  1.
<mgrwt>
<rscale>  2 0.20401699E+03</rscale>
<asrwt>0</asrwt>
<pdfrwt beam="1">  1       21 0.22543639E-01 0.20401699E+03</pdfrwt>
<pdfrwt beam="2">  1       21 0.55146949E-01 0.20401699E+03</pdfrwt>
<totfact> 0.56868281E+04</totfact>
</mgrwt>
</event>
<event>
 4    2  0.4063641E+000  0.3825683E+03  0.7546771E-02  0.1049989E+00
         21   -1    0    0  503  502  0.00000000000E+00  0.00000000000E+00  0.16067192641E+03  0.16067192641E+03  0.00000000000E+00 0.  1.
         21   -1    0    0  501  503 -0.00000000000E+00 -0.00000000000E+00 -0.18317208288E+04  0.18317208288E+04  0.00000000000E+00 0. -1.
          6    1    1    2  501    0 -0.29638351645E+03 -0.16907486279E+03 -0.15418408700E+04  0.15885942737E+04  0.17300000000E+03 0. -1.
         -6    1    1    2    0  502  0.29638351645E+03  0.16907486279E+03 -0.12920803241E+03  0.40379848153E+03  0.17300000000E+03 0.  1.
<mgrwt>
<rscale>  2 0.38256829E+03</rscale>
<asrwt>0</asrwt>
<pdfrwt beam="1">  1       21 0.24718757E-01 0.38256829E+03</pdfrwt>
<pdfrwt beam="2">  1       21 0.28180322E+00 0.38256829E+03</pdfrwt>
<totfact> 0.56253750E+02</totfact>
</mgrwt>
</event>
<event>
 4    2  0.4063641E+000  0.2237024E+03  0.7546771E-02  0.1131152E+00
         21   -1    0    0  501  502  0.00000000000E+00  0.00000000000E+00  0.24238836242E+03  0.24238836242E+03  0.00000000000E+00 0.  1.
         21   -1    0    0  502  503 -0.00000000000E+00 -0.00000000000E+00 -0.74362740341E+03  0.74362740341E+03  0.00000000000E+00 0.  1.
          6    1    1    2  501    0  0.11775544523E+03 -0.79040641848E+02  0.16839803522E+03  0.28000118966E+03  0.17300000000E+03 0.  1.
         -6    1    1    2    0  503 -0.11775544523E+03  0.79040641848E+02 -0.66963707621E+03  0.70601457618E+03  0.17300000000E+03 0.  1.
<mgrwt>
<rscale>  2 0.22370241E+03</rscale>
<asrwt>0</asrwt>
<pdfrwt beam="1">  1       21 0.37290518E-01 0.22370241E+03</pdfrwt>
<pdfrwt beam="2">  1       21 0.11440421E+00 0.22370241E+03</pdfrwt>
<totfact> 0.40176081E+03</totfact>
</mgrwt>
</event>
<event>
 4    2  0.4063641E+000  0.1986074E+03  0.7546771E-02  0.1150919E+00
         21   -1    0    0  503  502  0.00000000000E+00  0.00000000000E+00  0.12479503393E+04  0.12479503393E+04  0.00000000000E+00 0. -1.
         21   -1    0    0  501  503 -0.00000000000E+00 -0.00000000000E+00 -0.80422683166E+02  0.80422683166E+02  0.00000000000E+00 0. -1.
          6    1    1    2  501    0 -0.94571962369E+02  0.23917664912E+02  0.66303461733E+02  0.20938256804E+03  0.17300000000E+03 0. -1.
         -6    1    1    2    0  502  0.94571962369E+02 -0.23917664912E+02  0.11012241944E+04  0.11189904544E+04  0.17300000000E+03 0. -1.
<mgrwt>
<rscale>  2 0.19860743E+03</rscale>
<asrwt>0</asrwt>
<pdfrwt beam="1">  1       21 0.19199234E+00 0.19860743E+03</pdfrwt>
<pdfrwt beam="2">  1       21 0.12372721E-01 0.19860743E+03</pdfrwt>
<totfact> 0.83651747E+03</totfact>
</mgrwt>
</event>
<event>
 4    2  0.4063641E+000  0.1791792E+03  0.7546771E-02  0.1168600E+00
         21   -1    0    0  503  502  0.00000000000E+00  0.00000000000E+00  0.20428198758E+03  0.20428198758E+03  0.00000000000E+00 0. -1.
         21   -1    0    0  501  503 -0.00000000000E+00 -0.00000000000E+00 -0.58481355830E+03  0.58481355830E+03  0.00000000000E+00 0. -1.
          6    1    1    2  501    0 -0.28287829461E+01 -0.46563821136E+02 -0.52765899875E+03  0.55725147861E+03  0.17300000000E+03 0. -1.
         -6    1    1    2    0  502  0.28287829461E+01  0.46563821136E+02  0.14712742803E+03  0.23184406728E+03  0.17300000000E+03 0. -1.
<mgrwt>
<rscale>  2 0.17917922E+03</rscale>
<asrwt>0</asrwt>
<pdfrwt beam="1">  1       21 0.31427998E-01 0.17917922E+03</pdfrwt>
<pdfrwt beam="2">  1       21 0.89971317E-01 0.17917922E+03</pdfrwt>
<totfact> 0.10327469E+04</totfact>
</mgrwt>
</event>
<event>
 4    2  0.4063641E+000  0.2915463E+03  0.7546771E-02  0.1089545E+00
         21   -1    0    0  501  502  0.00000000000E+00  0.00000000000E+00  0.19948951674E+04  0.19948951674E+04  0.00000000000E+00 0.  1.
         21   -1    0    0  502  503 -0.00000000000E+00 -0.00000000000E+00 -0.77925430582E+02  0.77925430582E+02  0.00000000000E+00 0. -1.
          6    1    1    2  501    0 -0.21214665921E+03  0.10031954449E+03  0.16562101140E+04  0.16816751047E+04  0.17300000000E+03 0.  1.
         -6    1    1    2    0  503  0.21214665921E+03 -0.10031954449E+03  0.26075962279E+03  0.39114549326E+03  0.17300000000E+03 0. -1.
<mgrwt>
<rscale>  2 0.29154625E+03</rscale>
<asrwt>0</asrwt>
<pdfrwt beam="1">  1       21 0.30690691E+00 0.29154625E+03</pdfrwt>
<pdfrwt beam="2">  1       21 0.11988529E-01 0.29154625E+03</pdfrwt>
<totfact> 0.16501393E+03</totfact>
</mgrwt>
</event>
<event>
 4    2  0.4063641E+000  0.1966510E+03  0.7546771E-02  0.1152596E+00
         21   -1    0    0  503  502  0.00000000000E+00  0.00000000000E+00  0.60176875248E+03  0.60176875248E+03  0.00000000000E+00 0. -1.
         21   -1    0    0  501  503 -0.00000000000E+00 -0.00000000000E+00 -0.89941577649E+02  0.89941577649E+02  0.00000000000E+00 0. -1.
          6    1    1    2  501    0 -0.31787515901E+02 -0.87932791045E+02  0.71115574418E+02  0.20911491299E+03  0.17300000000E+03 0. -1.
         -6    1    1    2    0  502  0.31787515901E+02  0.87932791045E+02  0.44071160041E+03  0.48259541714E+03  0.17300000000E+03 0. -1.
<mgrwt>
<rscale>  2 0.19665102E+03</rscale>
<asrwt>0</asrwt>
<pdfrwt beam="1">  1       21 0.92579805E-01 0.19665102E+03</pdfrwt>
<pdfrwt beam="2">  1       21 0.13837166E-01 0.19665102E+03</pdfrwt>
<totfact> 0.44591144E+04</totfact>
</mgrwt>
</event>
<event>
 4    2  0.4063641E+000  0.1808583E+03  0.7546771E-02  0.1166975E+00
         21   -1    0    0  503  502  0.00000000000E+00  0.00000000000E+00  0.73524010951E+03  0.73524010951E+03  0.00000000000E+00 0. -1.
         21   -1    0    0  501  503 -0.00000000000E+00 -0.00000000000E+00 -0.83103704368E+02  0.83103704368E+02  0.00000000000E+00 0. -1.
          6    1    1    2  501    0 -0.11491334228E+02  0.51465214190E+02  0.47151278981E+02  0.18690361726E+03  0.17300000000E+03 0. -1.
         -6    1    1    2    0  502  0.11491334228E+02 -0.51465214190E+02  0.60498512616E+03  0.63144019662E+03  0.17300000000E+03 0. -1.
<mgrwt>
<rscale>  2 0.18085828E+03</rscale>
<asrwt>0</asrwt>
<pdfrwt beam="1">  1       21 0.11311386E+00 0.18085828E+03</pdfrwt>
<pdfrwt beam="2">  1       21 0.12785186E-01 0.18085828E+03</pdfrwt>
<totfact> 0.32183439E+04</totfact>
</mgrwt>
</event>
<event>
 4    2  0.4063641E+000  0.1805496E+03  0.7546771E-02  0.1167272E+00
         21   -1    0    0  503  502  0.00000000000E+00  0.00000000000E+00  0.13941903264E+03  0.13941903264E+03  0.00000000000E+00 0. -1.
         21   -1    0    0  501  503 -0.00000000000E+00 -0.00000000000E+00 -0.72821472382E+03  0.72821472382E+03  0.00000000000E+00 0. -1.
          6    1    1    2  501    0  0.34755472772E+02 -0.38225760915E+02  0.63052870503E+02  0.19124281990E+03  0.17300000000E+03 0. -1.
         -6    1    1    2    0  502 -0.34755472772E+02  0.38225760915E+02 -0.65184856168E+03  0.67639093655E+03  0.17300000000E+03 0. -1.
<mgrwt>
<rscale>  2 0.18054958E+03</rscale>
<asrwt>0</asrwt>
<pdfrwt beam="1">  1       21 0.21449082E-01 0.18054958E+03</pdfrwt>
<pdfrwt beam="2">  1       21 0.11203303E+00 0.18054958E+03</pdfrwt>
<totfact> 0.12755256E+04</totfact>
</mgrwt>
</event>
<event>
 4    2  0.4063641E+000  0.1854616E+03  0.7546771E-02  0.1162620E+00
         21   -1    0    0  503  502  0.00000000000E+00  0.00000000000E+00  0.13587407314E+03  0.13587407314E+03  0.00000000000E+00 0.  1.
         21   -1    0    0  501  503 -0.00000000000E+00 -0.00000000000E+00 -0.25953007426E+03  0.25953007426E+03  0.00000000000E+00 0.  1.
          6    1    1    2  501    0  0.49337118310E+02  0.45087176470E+02 -0.92834995890E+02  0.20739899032E+03  0.17300000000E+03 0.  1.
         -6    1    1    2    0  502 -0.49337118310E+02 -0.45087176470E+02 -0.30821005233E+02  0.18800515708E+03  0.17300000000E+03 0.  1.
<mgrwt>
<rscale>  2 0.18546160E+03</rscale>
<asrwt>0</asrwt>
<pdfrwt beam="1">  1       21 0.20903704E-01 0.18546160E+03</pdfrwt>
<pdfrwt beam="2">  1       21 0.39927704E-01 0.18546160E+03</pdfrwt>
<totfact> 0.12878698E+05</totfact>
</mgrwt>
</event>
<event>
 4    2  0.4063641E+000  0.1824588E+03  0.7546771E-02  0.1165444E+00
         21   -1    0    0  501  502  0.00000000000E+00  0.00000000000E+00  0.62567585345E+02  0.62567585345E+02  0.00000000000E+00 0.  1.
         21   -1    0    0  502  503 -0.00000000000E+00 -0.00000000000E+00 -0.53360759063E+03  0.53360759063E+03  0.00000000000E+00 0.  1.
          6    1    1    2  501    0 -0.48620147484E+02  0.31595930728E+02 -0.21959266735E+03  0.28550334697E+03  0.17300000000E+03 0.  1.
         -6    1    1    2    0  503  0.48620147484E+02 -0.31595930728E+02 -0.25144733794E+03  0.31067182900E+03  0.17300000000E+03 0.  1.
<mgrwt>
<rscale>  2 0.18245882E+03</rscale>
<asrwt>0</asrwt>
<pdfrwt beam="1">  1       21 0.96257821E-02 0.18245882E+03</pdfrwt>
<pdfrwt beam="2">  1       21 0.82093478E-01 0.18245882E+03</pdfrwt>
<totfact> 0.11302098E+05</totfact>
</mgrwt>
</event>
<event>
 4    2  0.4063641E+000  0.1874318E+03  0.7546771E-02  0.1160798E+00
         21   -1    0    0  501  502  0.00000000000E+00  0.00000000000E+00  0.70186764833E+02  0.70186764833E+02  0.00000000000E+00 0. -1.
         21   -1    0    0  502  503 -0.00000000000E+00 -0.00000000000E+00 -0.64436068314E+03  0.64436068314E+03  0.00000000000E+00 0. -1.
          6    1    1    2  501    0  0.27553199280E+02  0.66651990240E+02 -0.11829160107E+03  0.22163837546E+03  0.17300000000E+03 0. -1.
         -6    1    1    2    0  503 -0.27553199280E+02 -0.66651990240E+02 -0.45588231724E+03  0.49290907251E+03  0.17300000000E+03 0. -1.
<mgrwt>
<rscale>  2 0.18743177E+03</rscale>
<asrwt>0</asrwt>
<pdfrwt beam="1">  1       21 0.10797964E-01 0.18743177E+03</pdfrwt>
<pdfrwt beam="2">  1       21 0.99132412E-01 0.18743177E+03</pdfrwt>
<totfact> 0.59506168E+04</totfact>
</mgrwt>
</event>
<event>
 4    2  0.4063641E+000  0.2028744E+03  0.7546771E-02  0.1147336E+00
         21   -1    0    0  501  502  0.00000000000E+00  0.00000000000E+00  0.72887865916E+02  0.72887865916E+02  0.00000000000E+00 0.  1.
         21   -1    0    0  502  503 -0.00000000000E+00 -0.00000000000E+00 -0.68155737439E+03  0.68155737439E+03  0.00000000000E+00 0.  1.
          6    1    1    2  501    0 -0.10589683226E+03 -0.38591730423E+01 -0.14812106947E+03  0.25119292092E+03  0.17300000000E+03 0.  1.
         -6    1    1    2    0  503  0.10589683226E+03  0.38591730423E+01 -0.46054843900E+03  0.50325231938E+03  0.17300000000E+03 0.  1.
<mgrwt>
<rscale>  2 0.20287442E+03</rscale>
<asrwt>0</asrwt>
<pdfrwt beam="1">  1       21 0.11213518E-01 0.20287442E+03</pdfrwt>
<pdfrwt beam="2">  1       21 0.10485498E+00 0.20287442E+03</pdfrwt>
<totfact> 0.48290108E+04</totfact>
</mgrwt>
</event>
<event>
 4    2  0.4063641E+000  0.2774097E+03  0.7546771E-02  0.1097112E+00
         21   -1    0    0  503  502  0.00000000000E+00  0.00000000000E+00  0.15502490889E+03  0.15502490889E+03  0.00000000000E+00 0. -1.
         21   -1    0    0  501  503 -0.00000000000E+00 -0.00000000000E+00 -0.64278764872E+03  0.64278764872E+03  0.00000000000E+00 0.  1.
          6    1    1    2  501    0 -0.21250756966E+03  0.43216535662E+02 -0.43423991563E+03  0.51528675555E+03  0.17300000000E+03 0.  1.
         -6    1    1    2    0  502  0.21250756966E+03 -0.43216535662E+02 -0.53522824204E+02  0.28252580206E+03  0.17300000000E+03 0. -1.
<mgrwt>
<rscale>  2 0.27740969E+03</rscale>
<asrwt>0</asrwt>
<pdfrwt beam="1">  1       21 0.23849985E-01 0.27740969E+03</pdfrwt>
<pdfrwt beam="2">  1       21 0.98890410E-01 0.27740969E+03</pdfrwt>
<totfact> 0.13303211E+04</totfact>
</mgrwt>
</event>
<event>
 4    2  0.4063641E+000  0.2044889E+03  0.7546771E-02  0.1146006E+00
         21   -1    0    0  501  502  0.00000000000E+00  0.00000000000E+00  0.14656505628E+03  0.14656505628E+03  0.00000000000E+00 0.  1.
         21   -1    0    0  502  503 -0.00000000000E+00 -0.00000000000E+00 -0.51422476696E+03  0.51422476696E+03  0.00000000000E+00 0.  1.
          6    1    1    2  501    0  0.10066357612E+03 -0.41875399182E+02  0.36614383646E+02  0.20774098706E+03  0.17300000000E+03 0.  1.
         -6    1    1    2    0  503 -0.10066357612E+03  0.41875399182E+02 -0.40427409433E+03  0.45304883618E+03  0.17300000000E+03 0.  1.
<mgrwt>
<rscale>  2 0.20448889E+03</rscale>
<asrwt>0</asrwt>
<pdfrwt beam="1">  1       21 0.22548470E-01 0.20448889E+03</pdfrwt>
<pdfrwt beam="2">  1       21 0.79111502E-01 0.20448889E+03</pdfrwt>
<totfact> 0.25813347E+04</totfact>
</mgrwt>
</event>
<event>
 4    2  0.4063641E+000  0.1997057E+03  0.7546771E-02  0.1149988E+00
         21   -1    0    0  503  502  0.00000000000E+00  0.00000000000E+00  0.94129814506E+02  0.94129814506E+02  0.00000000000E+00 0. -1.
         21   -1    0    0  501  503 -0.00000000000E+00 -0.00000000000E+00 -0.42730525572E+03  0.42730525572E+03  0.00000000000E+00 0. -1.
          6    1    1    2  501    0 -0.91821678377E+02 -0.39014683921E+02 -0.14262433870E+03  0.24540592530E+03  0.17300000000E+03 0. -1.
         -6    1    1    2    0  502  0.91821678377E+02  0.39014683921E+02 -0.19055110251E+03  0.27602914493E+03  0.17300000000E+03 0. -1.
<mgrwt>
<rscale>  2 0.19970570E+03</rscale>
<asrwt>0</asrwt>
<pdfrwt beam="1">  1       21 0.14481510E-01 0.19970570E+03</pdfrwt>
<pdfrwt beam="2">  1       21 0.65739271E-01 0.19970570E+03</pdfrwt>
<totfact> 0.88660999E+04</totfact>
</mgrwt>
</event>
<event>
 4    2  0.4063641E+000  0.2062798E+03  0.7546771E-02  0.1144546E+00
         21   -1    0    0  501  502  0.00000000000E+00  0.00000000000E+00  0.56235109943E+03  0.56235109943E+03  0.00000000000E+00 0. -1.
         21   -1    0    0  502  503 -0.00000000000E+00 -0.00000000000E+00 -0.11760400214E+03  0.11760400214E+03  0.00000000000E+00 0. -1.
          6    1    1    2  501    0  0.64682088640E+02 -0.91861662621E+02  0.42539346535E+03  0.47276943431E+03  0.17300000000E+03 0. -1.
         -6    1    1    2    0  503 -0.64682088640E+02  0.91861662621E+02  0.19353631939E+02  0.20718566726E+03  0.17300000000E+03 0. -1.
<mgrwt>
<rscale>  2 0.20627976E+03</rscale>
<asrwt>0</asrwt>
<pdfrwt beam="1">  1       21 0.86515552E-01 0.20627976E+03</pdfrwt>
<pdfrwt beam="2">  1       21 0.18092924E-01 0.20627976E+03</pdfrwt>
<totfact> 0.31759254E+04</totfact>
</mgrwt>
</event>
<event>
 4    2  0.4063641E+000  0.1871902E+03  0.7546771E-02  0.1161020E+00
         21   -1    0    0  501  502  0.00000000000E+00  0.00000000000E+00  0.45513409090E+03  0.45513409090E+03  0.00000000000E+00 0.  1.
         21   -1    0    0  502  503 -0.00000000000E+00 -0.00000000000E+00 -0.87322197697E+02  0.87322197697E+02  0.00000000000E+00 0.  1.
          6    1    1    2  501    0 -0.55529952631E+02  0.45028797610E+02  0.27720918796E+03  0.33449230505E+03  0.17300000000E+03 0.  1.
         -6    1    1    2    0  503  0.55529952631E+02 -0.45028797610E+02  0.90602705248E+02  0.20796398354E+03  0.17300000000E+03 0.  1.
<mgrwt>
<rscale>  2 0.18719019E+03</rscale>
<asrwt>0</asrwt>
<pdfrwt beam="1">  1       21 0.70020628E-01 0.18719019E+03</pdfrwt>
<pdfrwt beam="2">  1       21 0.13434184E-01 0.18719019E+03</pdfrwt>
<totfact> 0.88905901E+04</totfact>
</mgrwt>
</event>
<event>
 4    2  0.4063641E+000  0.2091827E+03  0.7546771E-02  0.1142215E+00
         21   -1    0    0  503  502  0.00000000000E+00  0.00000000000E+00  0.75822038666E+03  0.75822038666E+03  0.00000000000E+00 0.  1.
         21   -1    0    0  501  503 -0.00000000000E+00 -0.00000000000E+00 -0.20101352129E+03  0.20101352129E+03  0.00000000000E+00 0. -1.
          6    1    1    2  501    0  0.19271668517E+02  0.11600439502E+03 -0.12635391742E+03  0.24438234249E+03  0.17300000000E+03 0. -1.
         -6    1    1    2    0  502 -0.19271668517E+02 -0.11600439502E+03  0.68356078279E+03  0.71485156546E+03  0.17300000000E+03 0.  1.
<mgrwt>
<rscale>  2 0.20918274E+03</rscale>
<asrwt>0</asrwt>
<pdfrwt beam="1">  1       21 0.11664929E+00 0.20918274E+03</pdfrwt>
<pdfrwt beam="2">  1       21 0.30925157E-01 0.20918274E+03</pdfrwt>
<totfact> 0.56136902E+03</totfact>
</mgrwt>
</event>
<event>
 4    2  0.4063641E+000  0.2260338E+03  0.7546771E-02  0.1129463E+00
         21   -1    0    0  503  502  0.00000000000E+00  0.00000000000E+00  0.84892615139E+03  0.84892615139E+03  0.00000000000E+00 0. -1.
         21   -1    0    0  501  503 -0.00000000000E+00 -0.00000000000E+00 -0.32567273898E+03  0.32567273898E+03  0.00000000000E+00 0.  1.
          6    1    1    2  501    0 -0.64642937495E+02  0.13032105564E+03 -0.26863761478E+03  0.35108041100E+03  0.17300000000E+03 0.  1.
         -6    1    1    2    0  502  0.64642937495E+02 -0.13032105564E+03  0.79189102719E+03  0.82351847937E+03  0.17300000000E+03 0. -1.
<mgrwt>
<rscale>  2 0.22603382E+03</rscale>
<asrwt>0</asrwt>
<pdfrwt beam="1">  1       21 0.13060402E+00 0.22603382E+03</pdfrwt>
<pdfrwt beam="2">  1       21 0.50103499E-01 0.22603382E+03</pdfrwt>
<totfact> 0.15721876E+03</totfact>
</mgrwt>
</event>
<event>
 4    2  0.4063641E+000  0.2074100E+03  0.7546771E-02  0.1143634E+00
         21   -1    0    0  501  502  0.00000000000E+00  0.00000000000E+00  0.32376188321E+03  0.32376188321E+03  0.00000000000E+00 0. -1.
         21   -1    0    0  502  503 -0.00000000000E+00 -0.00000000000E+00 -0.15393226010E+03  0.15393226010E+03  0.00000000000E+00 0. -1.
          6    1    1    2  501    0  0.17674517871E+02 -0.11303771342E+03  0.17326066892E+03  0.27025575411E+03  0.17300000000E+03 0. -1.
         -6    1    1    2    0  503 -0.17674517871E+02  0.11303771342E+03 -0.34310458037E+01  0.20743838920E+03  0.17300000000E+03 0. -1.
<mgrwt>
<rscale>  2 0.20741001E+03</rscale>
<asrwt>0</asrwt>
<pdfrwt beam="1">  1       21 0.49809520E-01 0.20741001E+03</pdfrwt>
<pdfrwt beam="2">  1       21 0.23681886E-01 0.20741001E+03</pdfrwt>
<totfact> 0.64063124E+04</totfact>
</mgrwt>
</event>
<event>
 4    2  0.4063641E+000  0.1878992E+03  0.7546771E-02  0.1160370E+00
         21   -1    0    0  501  502  0.00000000000E+00  0.00000000000E+00  0.24987613719E+03  0.24987613719E+03  0.00000000000E+00 0.  1.
         21   -1    0    0  502  503 -0.00000000000E+00 -0.00000000000E+00 -0.30045818158E+03  0.30045818158E+03  0.00000000000E+00 0.  1.
          6    1    1    2  501    0  0.53970924988E+02  0.49641384905E+02  0.17498388985E+03  0.25675959485E+03  0.17300000000E+03 0.  1.
         -6    1    1    2    0  503 -0.53970924988E+02 -0.49641384905E+02 -0.22556593424E+03  0.29357472393E+03  0.17300000000E+03 0.  1.
<mgrwt>
<rscale>  2 0.18789925E+03</rscale>
<asrwt>0</asrwt>
<pdfrwt beam="1">  1       21 0.38442483E-01 0.18789925E+03</pdfrwt>
<pdfrwt beam="2">  1       21 0.46224336E-01 0.18789925E+03</pdfrwt>
<totfact> 0.29334438E+04</totfact>
</mgrwt>
</event>
<event>
 4    2  0.4063641E+000  0.1868131E+03  0.7546771E-02  0.1161368E+00
         21   -1    0    0  503  502  0.00000000000E+00  0.00000000000E+00  0.19175102395E+02  0.19175102395E+02  0.00000000000E+00 0. -1.
         21   -1    0    0  501  503 -0.00000000000E+00 -0.00000000000E+00 -0.27364586269E+04  0.27364586269E+04  0.00000000000E+00 0.  1.
          6    1    1    2  501    0 -0.29151317491E+02  0.64189810665E+02 -0.21559899093E+04  0.21640683030E+04  0.17300000000E+03 0.  1.
         -6    1    1    2    0  502  0.29151317491E+02 -0.64189810665E+02 -0.56129361525E+03  0.59156542633E+03  0.17300000000E+03 0. -1.
<mgrwt>
<rscale>  2 0.18681309E+03</rscale>
<asrwt>0</asrwt>
<pdfrwt beam="1">  1       21 0.29500177E-02 0.18681309E+03</pdfrwt>
<pdfrwt beam="2">  1       21 0.42099336E+00 0.18681309E+03</pdfrwt>
<totfact> 0.42151713E+03</totfact>
</mgrwt>
</event>
<event>
 4    2  0.4063641E+000  0.1952690E+03  0.7546771E-02  0.1153793E+00
         21   -1    0    0  503  502  0.00000000000E+00  0.00000000000E+00  0.24871732689E+03  0.24871732689E+03  0.00000000000E+00 0.  1.
         21   -1    0    0  501  503 -0.00000000000E+00 -0.00000000000E+00 -0.69727426467E+03  0.69727426467E+03  0.00000000000E+00 0.  1.
          6    1    1    2  501    0 -0.51809990968E+02  0.74274544128E+02 -0.64205308057E+03  0.67109026318E+03  0.17300000000E+03 0.  1.
         -6    1    1    2    0  502  0.51809990968E+02 -0.74274544128E+02  0.19349614279E+03  0.27490132838E+03  0.17300000000E+03 0.  1.
<mgrwt>
<rscale>  2 0.19526900E+03</rscale>
<asrwt>0</asrwt>
<pdfrwt beam="1">  1       21 0.38264204E-01 0.19526900E+03</pdfrwt>
<pdfrwt beam="2">  1       21 0.10727296E+00 0.19526900E+03</pdfrwt>
<totfact> 0.45609204E+03</totfact>
</mgrwt>
</event>
<event>
 4    2  0.4063641E+000  0.1769707E+03  0.7546771E-02  0.1170767E+00
         21   -1    0    0  501  502  0.00000000000E+00  0.00000000000E+00  0.83159620593E+02  0.83159620593E+02  0.00000000000E+00 0.  1.
         21   -1    0    0  502  503 -0.00000000000E+00 -0.00000000000E+00 -0.55995187181E+03  0.55995187181E+03  0.00000000000E+00 0.  1.
          6    1    1    2  501    0  0.24061243090E+02  0.28472683127E+02 -0.54398047183E+02  0.18514260623E+03  0.17300000000E+03 0.  1.
         -6    1    1    2    0  503 -0.24061243090E+02 -0.28472683127E+02 -0.42239420403E+03  0.45796888617E+03  0.17300000000E+03 0.  1.
<mgrwt>
<rscale>  2 0.17697072E+03</rscale>
<asrwt>0</asrwt>
<pdfrwt beam="1">  1       21 0.12793788E-01 0.17697072E+03</pdfrwt>
<pdfrwt beam="2">  1       21 0.86146440E-01 0.17697072E+03</pdfrwt>
<totfact> 0.61235778E+04</totfact>
</mgrwt>
</event>
<event>
 4    2  0.4063641E+000  0.1917451E+03  0.7546771E-02  0.1156897E+00
         21   -1    0    0  503  502  0.00000000000E+00  0.00000000000E+00  0.13750191428E+04  0.13750191428E+04  0.00000000000E+00 0.  1.
         21   -1    0    0  501  503 -0.00000000000E+00 -0.00000000000E+00 -0.56803129950E+02  0.56803129950E+02  0.00000000000E+00 0.  1.
          6    1    1    2  501    0 -0.79737252396E+02  0.21889455244E+02  0.11799424737E+04  0.11954206034E+04  0.17300000000E+03 0.  1.
         -6    1    1    2    0  502  0.79737252396E+02 -0.21889455244E+02  0.13827353917E+03  0.23640166942E+03  0.17300000000E+03 0.  1.
<mgrwt>
<rscale>  2 0.19174509E+03</rscale>
<asrwt>0</asrwt>
<pdfrwt beam="1">  1       21 0.21154138E+00 0.19174509E+03</pdfrwt>
<pdfrwt beam="2">  1       21 0.87389441E-02 0.19174509E+03</pdfrwt>
<totfact> 0.11682178E+04</totfact>
</mgrwt>
</event>
<event>
 4    2  0.4063641E+000  0.1822961E+03  0.7546771E-02  0.1165599E+00
         21   -1    0    0  501  502  0.00000000000E+00  0.00000000000E+00  0.16549029739E+04  0.16549029739E+04  0.00000000000E+00 0. -1.
         21   -1    0    0  502  503 -0.00000000000E+00 -0.00000000000E+00 -0.20116812476E+02  0.20116812476E+02  0.00000000000E+00 0.  1.
          6    1    1    2  501    0 -0.53625128981E+02  0.20669560661E+02  0.78199030566E+03  0.80295748539E+03  0.17300000000E+03 0.  1.
         -6    1    1    2    0  503  0.53625128981E+02 -0.20669560661E+02  0.85279585580E+03  0.87206230102E+03  0.17300000000E+03 0. -1.
<mgrwt>
<rscale>  2 0.18229615E+03</rscale>
<asrwt>0</asrwt>
<pdfrwt beam="1">  1       21 0.25460035E+00 0.18229615E+03</pdfrwt>
<pdfrwt beam="2">  1       21 0.30948955E-02 0.18229615E+03</pdfrwt>
<totfact> 0.37872705E+04</totfact>
</mgrwt>
</event>
<event>
 4    2  0.4063641E+000  0.1910802E+03  0.7546771E-02  0.1157491E+00
         21   -1    0    0  501  502  0.00000000000E+00  0.00000000000E+00  0.49896937183E+03  0.49896937183E+03  0.00000000000E+00 0.  1.
         21   -1    0    0  502  503 -0.00000000000E+00 -0.00000000000E+00 -0.11850018989E+03  0.11850018989E+03  0.00000000000E+00 0.  1.
          6    1    1    2  501    0  0.18333943087E+02  0.79034806314E+02  0.38117602018E+03  0.42638807727E+03  0.17300000000E+03 0.  1.
         -6    1    1    2    0  503 -0.18333943087E+02 -0.79034806314E+02 -0.70683824726E+00  0.19108148445E+03  0.17300000000E+03 0.  1.
<mgrwt>
<rscale>  2 0.19108018E+03</rscale>
<asrwt>0</asrwt>
<pdfrwt beam="1">  1       21 0.76764518E-01 0.19108018E+03</pdfrwt>
<pdfrwt beam="2">  1       21 0.18230799E-01 0.19108018E+03</pdfrwt>
<totfact> 0.41422174E+04</totfact>
</mgrwt>
</event>
<event>
 4    2  0.4063641E+000  0.1814815E+03  0.7546771E-02  0.1166377E+00
         21   -1    0    0  503  502  0.00000000000E+00  0.00000000000E+00  0.71036307818E+03  0.71036307818E+03  0.00000000000E+00 0. -1.
         21   -1    0    0  501  503 -0.00000000000E+00 -0.00000000000E+00 -0.75291093770E+02  0.75291093770E+02  0.00000000000E+00 0. -1.
          6    1    1    2  501    0 -0.34026080767E+02  0.42997259616E+02  0.74047059418E+02  0.19600639152E+03  0.17300000000E+03 0. -1.
         -6    1    1    2    0  502  0.34026080767E+02 -0.42997259616E+02  0.56102492499E+03  0.58964778043E+03  0.17300000000E+03 0. -1.
<mgrwt>
<rscale>  2 0.18148151E+03</rscale>
<asrwt>0</asrwt>
<pdfrwt beam="1">  1       21 0.10928662E+00 0.18148151E+03</pdfrwt>
<pdfrwt beam="2">  1       21 0.11583246E-01 0.18148151E+03</pdfrwt>
<totfact> 0.41718114E+04</totfact>
</mgrwt>
</event>
<event>
 4    2  0.4063641E+000  0.2451948E+03  0.7546771E-02  0.1116380E+00
         21   -1    0    0  503  502  0.00000000000E+00  0.00000000000E+00  0.11090469568E+04  0.11090469568E+04  0.00000000000E+00 0.  1.
         21   -1    0    0  501  503 -0.00000000000E+00 -0.00000000000E+00 -0.54225269936E+02  0.54225269936E+02  0.00000000000E+00 0.  1.
          6    1    1    2  501    0  0.59473946756E+02  0.16326151817E+03  0.51737705421E+03  0.57253776284E+03  0.17300000000E+03 0.  1.
         -6    1    1    2    0  502 -0.59473946756E+02 -0.16326151817E+03  0.53744463262E+03  0.59073446386E+03  0.17300000000E+03 0.  1.
<mgrwt>
<rscale>  2 0.24519477E+03</rscale>
<asrwt>0</asrwt>
<pdfrwt beam="1">  1       21 0.17062259E+00 0.24519477E+03</pdfrwt>
<pdfrwt beam="2">  1       21 0.83423500E-02 0.24519477E+03</pdfrwt>
<totfact> 0.22793758E+04</totfact>
</mgrwt>
</event>
<event>
 4    2  0.4063641E+000  0.2319764E+03  0.7546771E-02  0.1125256E+00
         21   -1    0    0  501  502  0.00000000000E+00  0.00000000000E+00  0.11321846923E+03  0.11321846923E+03  0.00000000000E+00 0.  1.
         21   -1    0    0  502  503 -0.00000000000E+00 -0.00000000000E+00 -0.48704095308E+03  0.48704095308E+03  0.00000000000E+00 0.  1.
          6    1    1    2  501    0  0.12777039522E+03  0.86941189518E+02 -0.14031746143E+03  0.27111258604E+03  0.17300000000E+03 0.  1.
         -6    1    1    2    0  503 -0.12777039522E+03 -0.86941189518E+02 -0.23350502241E+03  0.32914683627E+03  0.17300000000E+03 0.  1.
<mgrwt>
<rscale>  2 0.23197639E+03</rscale>
<asrwt>0</asrwt>
<pdfrwt beam="1">  1       21 0.17418226E-01 0.23197639E+03</pdfrwt>
<pdfrwt beam="2">  1       21 0.74929378E-01 0.23197639E+03</pdfrwt>
<totfact> 0.46642999E+04</totfact>
</mgrwt>
</event>
<event>
 4    2  0.4063641E+000  0.1889721E+03  0.7546771E-02  0.1159392E+00
         21   -1    0    0  501  502  0.00000000000E+00  0.00000000000E+00  0.47600434687E+03  0.47600434687E+03  0.00000000000E+00 0.  1.
         21   -1    0    0  502  503 -0.00000000000E+00 -0.00000000000E+00 -0.18112491226E+03  0.18112491226E+03  0.00000000000E+00 0.  1.
          6    1    1    2  501    0  0.41563727316E+02 -0.63670242338E+02  0.39891591970E+03  0.44141177394E+03  0.17300000000E+03 0.  1.
         -6    1    1    2    0  503 -0.41563727316E+02  0.63670242338E+02 -0.10403648509E+03  0.21571748519E+03  0.17300000000E+03 0.  1.
<mgrwt>
<rscale>  2 0.18897207E+03</rscale>
<asrwt>0</asrwt>
<pdfrwt beam="1">  1       21 0.73231438E-01 0.18897207E+03</pdfrwt>
<pdfrwt beam="2">  1       21 0.27865371E-01 0.18897207E+03</pdfrwt>
<totfact> 0.20665081E+04</totfact>
</mgrwt>
</event>
<event>
 4    2  0.4063641E+000  0.1752229E+03  0.7546771E-02  0.1172508E+00
         21   -1    0    0  503  502  0.00000000000E+00  0.00000000000E+00  0.13718882009E+03  0.13718882009E+03  0.00000000000E+00 0.  1.
         21   -1    0    0  501  503 -0.00000000000E+00 -0.00000000000E+00 -0.22589693021E+03  0.22589693021E+03  0.00000000000E+00 0.  1.
          6    1    1    2  501    0  0.10772628546E+02 -0.25651919372E+02 -0.26869462010E+02  0.17727108755E+03  0.17300000000E+03 0.  1.
         -6    1    1    2    0  502 -0.10772628546E+02  0.25651919372E+02 -0.61838648105E+02  0.18581466275E+03  0.17300000000E+03 0.  1.
<mgrwt>
<rscale>  2 0.17522292E+03</rscale>
<asrwt>0</asrwt>
<pdfrwt beam="1">  1       21 0.21105972E-01 0.17522292E+03</pdfrwt>
<pdfrwt beam="2">  1       21 0.34753374E-01 0.17522292E+03</pdfrwt>
<totfact> 0.16745371E+05</totfact>
</mgrwt>
</event>
<event>
 4    2  0.4063641E+000  0.1771396E+03  0.7546771E-02  0.1170600E+00
         21   -1    0    0  501  502  0.00000000000E+00  0.00000000000E+00  0.51050306656E+03  0.51050306656E+03  0.00000000000E+00 0.  1.
         21   -1    0    0  502  503 -0.00000000000E+00 -0.00000000000E+00 -0.17672459585E+03  0.17672459585E+03  0.00000000000E+00 0.  1.
          6    1    1    2  501    0  0.38042286585E+02 -0.14855064923E+01  0.44438693539E+03  0.47839123178E+03  0.17300000000E+03 0.  1.
         -6    1    1    2    0  503 -0.38042286585E+02  0.14855064923E+01 -0.11060846469E+03  0.20883643063E+03  0.17300000000E+03 0.  1.
<mgrwt>
<rscale>  2 0.17713956E+03</rscale>
<asrwt>0</asrwt>
<pdfrwt beam="1">  1       21 0.78538933E-01 0.17713956E+03</pdfrwt>
<pdfrwt beam="2">  1       21 0.27188400E-01 0.17713956E+03</pdfrwt>
<totfact> 0.18666994E+04</totfact>
</mgrwt>
</event>
<event>
 4    2  0.4063641E+000  0.2078774E+03  0.7546771E-02  0.1143258E+00
         21   -1    0    0  501  502  0.00000000000E+00  0.00000000000E+00  0.35953674506E+03  0.35953674506E+03  0.00000000000E+00 0.  1.
         21   -1    0    0  502  503 -0.00000000000E+00 -0.00000000000E+00 -0.15537682169E+03  0.15537682169E+03  0.00000000000E+00 0.  1.
          6    1    1    2  501    0  0.11188846844E+03 -0.27658153461E+02  0.22459697795E+03  0.30603399374E+03  0.17300000000E+03 0.  1.
         -6    1    1    2    0  503 -0.11188846844E+03  0.27658153461E+02 -0.20437054576E+02  0.20887957301E+03  0.17300000000E+03 0.  1.
<mgrwt>
<rscale>  2 0.20787737E+03</rscale>
<asrwt>0</asrwt>
<pdfrwt beam="1">  1       21 0.55313345E-01 0.20787737E+03</pdfrwt>
<pdfrwt beam="2">  1       21 0.23904126E-01 0.20787737E+03</pdfrwt>
<totfact> 0.50466796E+04</totfact>
</mgrwt>
</event>
<event>
 4    2  0.4063641E+000  0.1883732E+03  0.7546771E-02  0.1159937E+00
         21   -1    0    0  503  502  0.00000000000E+00  0.00000000000E+00  0.20771893945E+03  0.20771893945E+03  0.00000000000E+00 0. -1.
         21   -1    0    0  501  503 -0.00000000000E+00 -0.00000000000E+00 -0.18249686433E+03  0.18249686433E+03  0.00000000000E+00 0. -1.
          6    1    1    2  501    0  0.44248127943E+02  0.59979579280E+02  0.61944355764E+02  0.19829662117E+03  0.17300000000E+03 0. -1.
         -6    1    1    2    0  502 -0.44248127943E+02 -0.59979579280E+02 -0.36722280641E+02  0.19191918261E+03  0.17300000000E+03 0. -1.
<mgrwt>
<rscale>  2 0.18837316E+03</rscale>
<asrwt>0</asrwt>
<pdfrwt beam="1">  1       21 0.31956760E-01 0.18837316E+03</pdfrwt>
<pdfrwt beam="2">  1       21 0.28076441E-01 0.18837316E+03</pdfrwt>
<totfact> 0.11430738E+05</totfact>
</mgrwt>
</event>
<event>
 4    2  0.4063641E+000  0.2261762E+03  0.7546771E-02  0.1129360E+00
         21   -1    0    0  503  502  0.00000000000E+00  0.00000000000E+00  0.75579482257E+02  0.75579482257E+02  0.00000000000E+00 0.  1.
         21   -1    0    0  501  503 -0.00000000000E+00 -0.00000000000E+00 -0.73176598329E+03  0.73176598329E+03  0.00000000000E+00 0.  1.
          6    1    1    2  501    0 -0.13622720710E+03  0.51660603225E+02 -0.43868138288E+03  0.49355549391E+03  0.17300000000E+03 0. -1.
         -6    1    1    2    0  502  0.13622720710E+03 -0.51660603225E+02 -0.21750511815E+03  0.31378997164E+03  0.17300000000E+03 0. -1.
<mgrwt>
<rscale>  2 0.22617619E+03</rscale>
<asrwt>0</asrwt>
<pdfrwt beam="1">  1       21 0.11627612E-01 0.22617619E+03</pdfrwt>
<pdfrwt beam="2">  1       21 0.11257938E+00 0.22617619E+03</pdfrwt>
<totfact> 0.37650214E+04</totfact>
</mgrwt>
</event>
<event>
 4    2  0.4063641E+000  0.2071206E+03  0.7546771E-02  0.1143867E+00
         21   -1    0    0  503  502  0.00000000000E+00  0.00000000000E+00  0.43907551433E+03  0.43907551433E+03  0.00000000000E+00 0.  1.
         21   -1    0    0  501  503 -0.00000000000E+00 -0.00000000000E+00 -0.98419863012E+02  0.98419863012E+02  0.00000000000E+00 0.  1.
          6    1    1    2  501    0  0.11325918616E+03 -0.11929743660E+02  0.14739042653E+03  0.25421034571E+03  0.17300000000E+03 0.  1.
         -6    1    1    2    0  502 -0.11325918616E+03  0.11929743660E+02  0.19326522478E+03  0.28328503163E+03  0.17300000000E+03 0.  1.
<mgrwt>
<rscale>  2 0.20712065E+03</rscale>
<asrwt>0</asrwt>
<pdfrwt beam="1">  1       21 0.67550078E-01 0.20712065E+03</pdfrwt>
<pdfrwt beam="2">  1       21 0.15141518E-01 0.20712065E+03</pdfrwt>
<totfact> 0.76782063E+04</totfact>
</mgrwt>
</event>
<event>
 4    2  0.4063641E+000  0.2013750E+03  0.7546771E-02  0.1148584E+00
         21   -1    0    0  501  502  0.00000000000E+00  0.00000000000E+00  0.95208211626E+02  0.95208211626E+02  0.00000000000E+00 0. -1.
         21   -1    0    0  502  503 -0.00000000000E+00 -0.00000000000E+00 -0.43930262002E+03  0.43930262002E+03  0.00000000000E+00 0. -1.
          6    1    1    2  501    0 -0.83297088043E+02 -0.60700045219E+02 -0.12541611186E+03  0.23723638313E+03  0.17300000000E+03 0. -1.
         -6    1    1    2    0  503  0.83297088043E+02  0.60700045219E+02 -0.21867829653E+03  0.29727444851E+03  0.17300000000E+03 0. -1.
<mgrwt>
<rscale>  2 0.20137502E+03</rscale>
<asrwt>0</asrwt>
<pdfrwt beam="1">  1       21 0.14647417E-01 0.20137502E+03</pdfrwt>
<pdfrwt beam="2">  1       21 0.67585019E-01 0.20137502E+03</pdfrwt>
<totfact> 0.81678623E+04</totfact>
</mgrwt>
</event>
<event>
 4    2  0.4063641E+000  0.2277802E+03  0.7546771E-02  0.1128212E+00
         21   -1    0    0  503  502  0.00000000000E+00  0.00000000000E+00  0.45262405123E+03  0.45262405123E+03  0.00000000000E+00 0. -1.
         21   -1    0    0  501  503 -0.00000000000E+00 -0.00000000000E+00 -0.14566640811E+03  0.14566640811E+03  0.00000000000E+00 0. -1.
          6    1    1    2  501    0 -0.97795480633E+02 -0.11131428631E+03  0.29156345352E+03  0.36999064015E+03  0.17300000000E+03 0. -1.
         -6    1    1    2    0  502  0.97795480633E+02  0.11131428631E+03  0.15394189594E+02  0.22829981919E+03  0.17300000000E+03 0. -1.
<mgrwt>
<rscale>  2 0.22778022E+03</rscale>
<asrwt>0</asrwt>
<pdfrwt beam="1">  1       21 0.69634469E-01 0.22778022E+03</pdfrwt>
<pdfrwt beam="2">  1       21 0.22410217E-01 0.22778022E+03</pdfrwt>
<totfact> 0.34315820E+04</totfact>
</mgrwt>
</event>
<event>
 4    2  0.4063641E+000  0.1884479E+03  0.7546771E-02  0.1159869E+00
         21   -1    0    0  501  502  0.00000000000E+00  0.00000000000E+00  0.18436312128E+04  0.18436312128E+04  0.00000000000E+00 0. -1.
         21   -1    0    0  502  503 -0.00000000000E+00 -0.00000000000E+00 -0.16565751432E+03  0.16565751432E+03  0.00000000000E+00 0. -1.
          6    1    1    2  501    0  0.38393780552E+02  0.64105529426E+02  0.17834177810E+04  0.17933464760E+04  0.17300000000E+03 0. -1.
         -6    1    1    2    0  503 -0.38393780552E+02 -0.64105529426E+02 -0.10544408253E+03  0.21594225114E+03  0.17300000000E+03 0. -1.
<mgrwt>
<rscale>  2 0.18844787E+03</rscale>
<asrwt>0</asrwt>
<pdfrwt beam="1">  1       21 0.28363556E+00 0.18844787E+03</pdfrwt>
<pdfrwt beam="2">  1       21 0.25485773E-01 0.18844787E+03</pdfrwt>
<totfact> 0.62276970E+02</totfact>
</mgrwt>
</event>
<event>
 4    2  0.4063641E+000  0.2205874E+03  0.7546771E-02  0.1133446E+00
         21   -1    0    0  503  502  0.00000000000E+00  0.00000000000E+00  0.63676702454E+03  0.63676702454E+03  0.00000000000E+00 0. -1.
         21   -1    0    0  501  503 -0.00000000000E+00 -0.00000000000E+00 -0.77225927772E+02  0.77225927772E+02  0.00000000000E+00 0.  1.
          6    1    1    2  501    0 -0.97997299509E+02  0.95531817467E+02  0.24319678173E+03  0.32833439281E+03  0.17300000000E+03 0.  1.
         -6    1    1    2    0  502  0.97997299509E+02 -0.95531817467E+02  0.31634431504E+03  0.38565855950E+03  0.17300000000E+03 0. -1.
<mgrwt>
<rscale>  2 0.22058740E+03</rscale>
<asrwt>0</asrwt>
<pdfrwt beam="1">  1       21 0.97964154E-01 0.22058740E+03</pdfrwt>
<pdfrwt beam="2">  1       21 0.11880912E-01 0.22058740E+03</pdfrwt>
<totfact> 0.50778485E+04</totfact>
</mgrwt>
</event>
<event>
 4    2  0.4063641E+000  0.1751930E+03  0.7546771E-02  0.1172538E+00
         21   -1    0    0  503  502  0.00000000000E+00  0.00000000000E+00  0.21939632396E+04  0.21939632396E+04  0.00000000000E+00 0. -1.
         21   -1    0    0  501  503 -0.00000000000E+00 -0.00000000000E+00 -0.14234469632E+02  0.14234469632E+02  0.00000000000E+00 0. -1.
          6    1    1    2  501    0 -0.17382467547E+02 -0.21481486291E+02  0.94504372365E+03  0.96114527728E+03  0.17300000000E+03 0. -1.
         -6    1    1    2    0  502  0.17382467547E+02  0.21481486291E+02  0.12346850463E+04  0.12470524319E+04  0.17300000000E+03 0. -1.
<mgrwt>
<rscale>  2 0.17519305E+03</rscale>
<asrwt>0</asrwt>
<pdfrwt beam="1">  1       21 0.33753254E+00 0.17519305E+03</pdfrwt>
<pdfrwt beam="2">  1       21 0.21899201E-02 0.17519305E+03</pdfrwt>
<totfact> 0.22409134E+04</totfact>
</mgrwt>
</event>
<event>
 4    2  0.4063641E+000  0.2607387E+03  0.7546771E-02  0.1106700E+00
         21   -1    0    0  503  502  0.00000000000E+00  0.00000000000E+00  0.92643974330E+03  0.92643974330E+03  0.00000000000E+00 0.  1.
         21   -1    0    0  501  503 -0.00000000000E+00 -0.00000000000E+00 -0.11852868081E+03  0.11852868081E+03  0.00000000000E+00 0.  1.
          6    1    1    2  501    0  0.17797567657E+03 -0.79877112695E+02  0.81499310232E+02  0.27317912100E+03  0.17300000000E+03 0.  1.
         -6    1    1    2    0  502 -0.17797567657E+03  0.79877112695E+02  0.72641175225E+03  0.77178930311E+03  0.17300000000E+03 0.  1.
<mgrwt>
<rscale>  2 0.26073875E+03</rscale>
<asrwt>0</asrwt>
<pdfrwt beam="1">  1       21 0.14252919E+00 0.26073875E+03</pdfrwt>
<pdfrwt beam="2">  1       21 0.18235182E-01 0.26073875E+03</pdfrwt>
<totfact> 0.89454489E+03</totfact>
</mgrwt>
</event>
<event>
 4    2  0.4063641E+000  0.1805027E+03  0.7546771E-02  0.1167317E+00
         21   -1    0    0  503  502  0.00000000000E+00  0.00000000000E+00  0.17259218307E+02  0.17259218307E+02  0.00000000000E+00 0.  1.
         21   -1    0    0  501  503 -0.00000000000E+00 -0.00000000000E+00 -0.18877717267E+04  0.18877717267E+04  0.00000000000E+00 0.  1.
          6    1    1    2  501    0  0.49425190333E+02 -0.14469786465E+02 -0.93784244297E+03  0.95505480052E+03  0.17300000000E+03 0.  1.
         -6    1    1    2    0  502 -0.49425190333E+02  0.14469786465E+02 -0.93267006544E+03  0.94997614450E+03  0.17300000000E+03 0.  1.
<mgrwt>
<rscale>  2 0.18050270E+03</rscale>
<asrwt>0</asrwt>
<pdfrwt beam="1">  1       21 0.26552656E-02 0.18050270E+03</pdfrwt>
<pdfrwt beam="2">  1       21 0.29042628E+00 0.18050270E+03</pdfrwt>
<totfact> 0.30343506E+04</totfact>
</mgrwt>
</event>
<event>
 4    2  0.4063641E+000  0.2004096E+03  0.7546771E-02  0.1149394E+00
         21   -1    0    0  503  502  0.00000000000E+00  0.00000000000E+00  0.13088551488E+03  0.13088551488E+03  0.00000000000E+00 0. -1.
         21   -1    0    0  501  503 -0.00000000000E+00 -0.00000000000E+00 -0.76410242667E+03  0.76410242667E+03  0.00000000000E+00 0. -1.
          6    1    1    2  501    0 -0.57762903036E+02  0.83056880989E+02 -0.66277329739E+03  0.69241060230E+03  0.17300000000E+03 0. -1.
         -6    1    1    2    0  502  0.57762903036E+02 -0.83056880989E+02  0.29556385596E+02  0.20257733925E+03  0.17300000000E+03 0. -1.
<mgrwt>
<rscale>  2 0.20040958E+03</rscale>
<asrwt>0</asrwt>
<pdfrwt beam="1">  1       21 0.20136233E-01 0.20040958E+03</pdfrwt>
<pdfrwt beam="2">  1       21 0.11755422E+00 0.20040958E+03</pdfrwt>
<totfact> 0.12596049E+04</totfact>
</mgrwt>
</event>
<event>
 4    2  0.4063641E+000  0.1755796E+03  0.7546771E-02  0.1172151E+00
         21   -1    0    0  501  502  0.00000000000E+00  0.00000000000E+00  0.47450105126E+02  0.47450105126E+02  0.00000000000E+00 0. -1.
         21   -1    0    0  502  503 -0.00000000000E+00 -0.00000000000E+00 -0.12577878466E+04  0.12577878466E+04  0.00000000000E+00 0. -1.
          6    1    1    2  501    0 -0.26012316830E+02 -0.14918272807E+02 -0.15139425333E+03  0.23183704500E+03  0.17300000000E+03 0. -1.
         -6    1    1    2    0  503  0.26012316830E+02  0.14918272807E+02 -0.10589434881E+04  0.10734009067E+04  0.17300000000E+03 0. -1.
<mgrwt>
<rscale>  2 0.17557960E+03</rscale>
<asrwt>0</asrwt>
<pdfrwt beam="1">  1       21 0.73000171E-02 0.17557960E+03</pdfrwt>
<pdfrwt beam="2">  1       21 0.19350580E+00 0.17557960E+03</pdfrwt>
<totfact> 0.21080934E+04</totfact>
</mgrwt>
</event>
<event>
 4    2  0.4063641E+000  0.1749337E+03  0.7546771E-02  0.1172798E+00
         21   -1    0    0  501  502  0.00000000000E+00  0.00000000000E+00  0.10320934157E+03  0.10320934157E+03  0.00000000000E+00 0.  1.
         21   -1    0    0  502  503 -0.00000000000E+00 -0.00000000000E+00 -0.62331713573E+03  0.62331713573E+03  0.00000000000E+00 0.  1.
          6    1    1    2  501    0 -0.44369244929E+01  0.25556005278E+02  0.29837267433E+01  0.17495913331E+03  0.17300000000E+03 0.  1.
         -6    1    1    2    0  503  0.44369244929E+01 -0.25556005278E+02 -0.52309152090E+03  0.55156734398E+03  0.17300000000E+03 0.  1.
<mgrwt>
<rscale>  2 0.17493369E+03</rscale>
<asrwt>0</asrwt>
<pdfrwt beam="1">  1       21 0.15878360E-01 0.17493369E+03</pdfrwt>
<pdfrwt beam="2">  1       21 0.95894946E-01 0.17493369E+03</pdfrwt>
<totfact> 0.32361118E+04</totfact>
</mgrwt>
</event>
<event>
 4    2  0.4063641E+000  0.1993870E+03  0.7546771E-02  0.1150257E+00
         21   -1    0    0  503  502  0.00000000000E+00  0.00000000000E+00  0.20103293109E+04  0.20103293109E+04  0.00000000000E+00 0. -1.
         21   -1    0    0  501  503 -0.00000000000E+00 -0.00000000000E+00 -0.17686765459E+03  0.17686765459E+03  0.00000000000E+00 0. -1.
          6    1    1    2  501    0 -0.90081136207E+02  0.41370918758E+02 -0.11391870243E+03  0.22963587434E+03  0.17300000000E+03 0. -1.
         -6    1    1    2    0  502  0.90081136207E+02 -0.41370918758E+02  0.19473803588E+04  0.19575610912E+04  0.17300000000E+03 0. -1.
<mgrwt>
<rscale>  2 0.19938697E+03</rscale>
<asrwt>0</asrwt>
<pdfrwt beam="1">  1       21 0.30928142E+00 0.19938697E+03</pdfrwt>
<pdfrwt beam="2">  1       21 0.27210410E-01 0.19938697E+03</pdfrwt>
<totfact> 0.38477868E+02</totfact>
</mgrwt>
</event>
<event>
 4    2  0.4063641E+000  0.1787442E+03  0.7546771E-02  0.1169024E+00
         21   -1    0    0  503  502  0.00000000000E+00  0.00000000000E+00  0.91146996111E+02  0.91146996111E+02  0.00000000000E+00 0.  1.
         21   -1    0    0  501  503 -0.00000000000E+00 -0.00000000000E+00 -0.42874394505E+03  0.42874394505E+03  0.00000000000E+00 0.  1.
          6    1    1    2  501    0  0.44796951126E+02 -0.37052326054E+01 -0.27982667458E+03  0.33204286378E+03  0.17300000000E+03 0.  1.
         -6    1    1    2    0  502 -0.44796951126E+02  0.37052326054E+01 -0.57770274366E+02  0.18784807739E+03  0.17300000000E+03 0.  1.
<mgrwt>
<rscale>  2 0.17874422E+03</rscale>
<asrwt>0</asrwt>
<pdfrwt beam="1">  1       21 0.14022615E-01 0.17874422E+03</pdfrwt>
<pdfrwt beam="2">  1       21 0.65960606E-01 0.17874422E+03</pdfrwt>
<totfact> 0.94101090E+04</totfact>
</mgrwt>
</event>
<event>
 4    2  0.4063641E+000  0.1809131E+03  0.7546771E-02  0.1166922E+00
         21   -1    0    0  501  502  0.00000000000E+00  0.00000000000E+00  0.47482887506E+02  0.47482887506E+02  0.00000000000E+00 0.  1.
         21   -1    0    0  502  503 -0.00000000000E+00 -0.00000000000E+00 -0.13186353368E+04  0.13186353368E+04  0.00000000000E+00 0.  1.
          6    1    1    2  501    0 -0.45356786376E+02 -0.27263958373E+02 -0.16368723088E+03  0.24397350481E+03  0.17300000000E+03 0.  1.
         -6    1    1    2    0  503  0.45356786376E+02  0.27263958373E+02 -0.11074652184E+04  0.11221447194E+04  0.17300000000E+03 0.  1.
<mgrwt>
<rscale>  2 0.18091313E+03</rscale>
<asrwt>0</asrwt>
<pdfrwt beam="1">  1       21 0.73050594E-02 0.18091313E+03</pdfrwt>
<pdfrwt beam="2">  1       21 0.20286698E+00 0.18091313E+03</pdfrwt>
<totfact> 0.18254449E+04</totfact>
</mgrwt>
</event>
<event>
 4    2  0.4063641E+000  0.2372649E+03  0.7546771E-02  0.1121628E+00
         21   -1    0    0  501  502  0.00000000000E+00  0.00000000000E+00  0.11922548825E+04  0.11922548825E+04  0.00000000000E+00 0.  1.
         21   -1    0    0  502  503 -0.00000000000E+00 -0.00000000000E+00 -0.70171497511E+02  0.70171497511E+02  0.00000000000E+00 0. -1.
          6    1    1    2  501    0 -0.12302598127E+03  0.10597275225E+03  0.92206084531E+03  0.95209811403E+03  0.17300000000E+03 0.  1.
         -6    1    1    2    0  503  0.12302598127E+03 -0.10597275225E+03  0.20002253968E+03  0.31032826598E+03  0.17300000000E+03 0. -1.
<mgrwt>
<rscale>  2 0.23726487E+03</rscale>
<asrwt>0</asrwt>
<pdfrwt beam="1">  1       21 0.18342381E+00 0.23726487E+03</pdfrwt>
<pdfrwt beam="2">  1       21 0.10795616E-01 0.23726487E+03</pdfrwt>
<totfact> 0.11829210E+04</totfact>
</mgrwt>
</event>
<event>
 4    2  0.4063641E+000  0.2260758E+03  0.7546771E-02  0.1129433E+00
         21   -1    0    0  501  502  0.00000000000E+00  0.00000000000E+00  0.10117907307E+03  0.10117907307E+03  0.00000000000E+00 0. -1.
         21   -1    0    0  502  503 -0.00000000000E+00 -0.00000000000E+00 -0.53904077646E+03  0.53904077646E+03  0.00000000000E+00 0. -1.
          6    1    1    2  501    0 -0.14040335722E+03 -0.38316914599E+02 -0.13866157329E+03  0.26521184093E+03  0.17300000000E+03 0. -1.
         -6    1    1    2    0  503  0.14040335722E+03  0.38316914599E+02 -0.29920013009E+03  0.37500800859E+03  0.17300000000E+03 0. -1.
<mgrwt>
<rscale>  2 0.22607585E+03</rscale>
<asrwt>0</asrwt>
<pdfrwt beam="1">  1       21 0.15566011E-01 0.22607585E+03</pdfrwt>
<pdfrwt beam="2">  1       21 0.82929352E-01 0.22607585E+03</pdfrwt>
<totfact> 0.45722531E+04</totfact>
</mgrwt>
</event>
<event>
 4    2  0.4063641E+000  0.1798440E+03  0.7546771E-02  0.1167954E+00
         21   -1    0    0  501  502  0.00000000000E+00  0.00000000000E+00  0.42236701252E+03  0.42236701252E+03  0.00000000000E+00 0. -1.
         21   -1    0    0  502  503 -0.00000000000E+00 -0.00000000000E+00 -0.77864334674E+02  0.77864334674E+02  0.00000000000E+00 0. -1.
          6    1    1    2  501    0  0.38488271746E+01 -0.48990234918E+02  0.20440380904E+03  0.27225865227E+03  0.17300000000E+03 0. -1.
         -6    1    1    2    0  503 -0.38488271746E+01  0.48990234918E+02  0.14009886881E+03  0.22797269492E+03  0.17300000000E+03 0. -1.
<mgrwt>
<rscale>  2 0.17984398E+03</rscale>
<asrwt>0</asrwt>
<pdfrwt beam="1">  1       21 0.64979539E-01 0.17984398E+03</pdfrwt>
<pdfrwt beam="2">  1       21 0.11979129E-01 0.17984398E+03</pdfrwt>
<totfact> 0.12896459E+05</totfact>
</mgrwt>
</event>
<event>
 4    2  0.4063641E+000  0.1762270E+03  0.7546771E-02  0.1171505E+00
         21   -1    0    0  501  502  0.00000000000E+00  0.00000000000E+00  0.18025613984E+03  0.18025613984E+03  0.00000000000E+00 0. -1.
         21   -1    0    0  502  503 -0.00000000000E+00 -0.00000000000E+00 -0.26508206796E+03  0.26508206796E+03  0.00000000000E+00 0. -1.
          6    1    1    2  501    0  0.26054687383E+02 -0.21168890407E+02  0.89330751765E+02  0.19757518029E+03  0.17300000000E+03 0. -1.
         -6    1    1    2    0  503 -0.26054687383E+02  0.21168890407E+02 -0.17415667988E+03  0.24776302751E+03  0.17300000000E+03 0. -1.
<mgrwt>
<rscale>  2 0.17622704E+03</rscale>
<asrwt>0</asrwt>
<pdfrwt beam="1">  1       21 0.27731714E-01 0.17622704E+03</pdfrwt>
<pdfrwt beam="2">  1       21 0.40781857E-01 0.17622704E+03</pdfrwt>
<totfact> 0.72395463E+04</totfact>
</mgrwt>
</event>
<event>
 4    2  0.4063641E+000  0.2180508E+03  0.7546771E-02  0.1135345E+00
         21   -1    0    0  501  502  0.00000000000E+00  0.00000000000E+00  0.12626701217E+03  0.12626701217E+03  0.00000000000E+00 0.  1.
         21   -1    0    0  502  503 -0.00000000000E+00 -0.00000000000E+00 -0.37665007873E+03  0.37665007873E+03  0.00000000000E+00 0. -1.
          6    1    1    2  501    0  0.12359753289E+03 -0.48381905138E+02 -0.12923895800E+03  0.25347360247E+03  0.17300000000E+03 0. -1.
         -6    1    1    2    0  503 -0.12359753289E+03  0.48381905138E+02 -0.12114410856E+03  0.24944348843E+03  0.17300000000E+03 0. -1.
<mgrwt>
<rscale>  2 0.21805082E+03</rscale>
<asrwt>0</asrwt>
<pdfrwt beam="1">  1       21 0.19425694E-01 0.21805082E+03</pdfrwt>
<pdfrwt beam="2">  1       21 0.57946166E-01 0.21805082E+03</pdfrwt>
<totfact> 0.67280520E+04</totfact>
</mgrwt>
</event>
<event>
 4    2  0.4063641E+000  0.2214973E+03  0.7546771E-02  0.1132772E+00
         21   -1    0    0  503  502  0.00000000000E+00  0.00000000000E+00  0.17947432928E+03  0.17947432928E+03  0.00000000000E+00 0. -1.
         21   -1    0    0  501  503 -0.00000000000E+00 -0.00000000000E+00 -0.34619424186E+03  0.34619424186E+03  0.00000000000E+00 0. -1.
          6    1    1    2  501    0  0.13822509772E+03 -0.50861588440E+01 -0.20391651112E+03  0.30106974301E+03  0.17300000000E+03 0. -1.
         -6    1    1    2    0  502 -0.13822509772E+03  0.50861588440E+01  0.37196598534E+02  0.22459882812E+03  0.17300000000E+03 0. -1.
<mgrwt>
<rscale>  2 0.22149728E+03</rscale>
<asrwt>0</asrwt>
<pdfrwt beam="1">  1       21 0.27611435E-01 0.22149728E+03</pdfrwt>
<pdfrwt beam="2">  1       21 0.53260653E-01 0.22149728E+03</pdfrwt>
<totfact> 0.41188745E+04</totfact>
</mgrwt>
</event>
<event>
 4    2  0.4063641E+000  0.1835403E+03  0.7546771E-02  0.1164420E+00
         21   -1    0    0  503  502  0.00000000000E+00  0.00000000000E+00  0.12947805504E+03  0.12947805504E+03  0.00000000000E+00 0. -1.
         21   -1    0    0  501  503 -0.00000000000E+00 -0.00000000000E+00 -0.49326559428E+03  0.49326559428E+03  0.00000000000E+00 0. -1.
          6    1    1    2  501    0 -0.35728241268E+02 -0.49814967223E+02 -0.39593658811E+03  0.43640900539E+03  0.17300000000E+03 0. -1.
         -6    1    1    2    0  502  0.35728241268E+02  0.49814967223E+02  0.32149048871E+02  0.18633464393E+03  0.17300000000E+03 0. -1.
<mgrwt>
<rscale>  2 0.18354029E+03</rscale>
<asrwt>0</asrwt>
<pdfrwt beam="1">  1       21 0.19919701E-01 0.18354029E+03</pdfrwt>
<pdfrwt beam="2">  1       21 0.75887014E-01 0.18354029E+03</pdfrwt>
<totfact> 0.36189511E+04</totfact>
</mgrwt>
</event>
<event>
 4    2  0.4063641E+000  0.2486874E+03  0.7546771E-02  0.1114137E+00
         21   -1    0    0  501  502  0.00000000000E+00  0.00000000000E+00  0.57840267934E+03  0.57840267934E+03  0.00000000000E+00 0.  1.
         21   -1    0    0  502  503 -0.00000000000E+00 -0.00000000000E+00 -0.27312025383E+03  0.27312025383E+03  0.00000000000E+00 0. -1.
          6    1    1    2  501    0  0.16950413322E+03 -0.56433940770E+02  0.48476448497E+03  0.54483212712E+03  0.17300000000E+03 0.  1.
         -6    1    1    2    0  503 -0.16950413322E+03  0.56433940770E+02 -0.17948205947E+03  0.30669080605E+03  0.17300000000E+03 0. -1.
<mgrwt>
<rscale>  2 0.24868744E+03</rscale>
<asrwt>0</asrwt>
<pdfrwt beam="1">  1       21 0.88985027E-01 0.24868744E+03</pdfrwt>
<pdfrwt beam="2">  1       21 0.42018501E-01 0.24868744E+03</pdfrwt>
<totfact> 0.56543206E+03</totfact>
</mgrwt>
</event>
<event>
 4    2  0.4063641E+000  0.1828112E+03  0.7546771E-02  0.1165110E+00
         21   -1    0    0  503  502  0.00000000000E+00  0.00000000000E+00  0.78696131404E+03  0.78696131404E+03  0.00000000000E+00 0. -1.
         21   -1    0    0  501  503 -0.00000000000E+00 -0.00000000000E+00 -0.43140786993E+02  0.43140786993E+02  0.00000000000E+00 0. -1.
          6    1    1    2  501    0 -0.20336951199E+02 -0.55473796027E+02  0.42377824432E+03  0.46152782580E+03  0.17300000000E+03 0. -1.
         -6    1    1    2    0  502  0.20336951199E+02  0.55473796027E+02  0.32004228273E+03  0.36857427523E+03  0.17300000000E+03 0. -1.
<mgrwt>
<rscale>  2 0.18281120E+03</rscale>
<asrwt>0</asrwt>
<pdfrwt beam="1">  1       21 0.12107096E+00 0.18281120E+03</pdfrwt>
<pdfrwt beam="2">  1       21 0.66370448E-02 0.18281120E+03</pdfrwt>
<totfact> 0.86036282E+04</totfact>
</mgrwt>
</event>
<event>
 4    2  0.4063641E+000  0.1952435E+03  0.7546771E-02  0.1153815E+00
         21   -1    0    0  503  502  0.00000000000E+00  0.00000000000E+00  0.55897465258E+02  0.55897465258E+02  0.00000000000E+00 0. -1.
         21   -1    0    0  501  503 -0.00000000000E+00 -0.00000000000E+00 -0.76623174864E+03  0.76623174864E+03  0.00000000000E+00 0. -1.
          6    1    1    2  501    0 -0.85641311078E+02 -0.29267386002E+02 -0.49148814743E+03  0.52884838386E+03  0.17300000000E+03 0. -1.
         -6    1    1    2    0  502  0.85641311078E+02  0.29267386002E+02 -0.21884613595E+03  0.29328083004E+03  0.17300000000E+03 0. -1.
<mgrwt>
<rscale>  2 0.19524347E+03</rscale>
<asrwt>0</asrwt>
<pdfrwt beam="1">  1       21 0.85996103E-02 0.19524347E+03</pdfrwt>
<pdfrwt beam="2">  1       21 0.11788180E+00 0.19524347E+03</pdfrwt>
<totfact> 0.58302829E+04</totfact>
</mgrwt>
</event>
<event>
 4    2  0.4063641E+000  0.2137273E+03  0.7546771E-02  0.1138648E+00
         21   -1    0    0  501  502  0.00000000000E+00  0.00000000000E+00  0.33042752580E+03  0.33042752580E+03  0.00000000000E+00 0. -1.
         21   -1    0    0  502  503 -0.00000000000E+00 -0.00000000000E+00 -0.14031797942E+03  0.14031797942E+03  0.00000000000E+00 0.  1.
          6    1    1    2  501    0  0.33790298394E+02  0.12086590915E+03  0.12367594947E+03  0.24693135228E+03  0.17300000000E+03 0. -1.
         -6    1    1    2    0  503 -0.33790298394E+02 -0.12086590915E+03  0.66433596902E+02  0.22381415294E+03  0.17300000000E+03 0. -1.
<mgrwt>
<rscale>  2 0.21372728E+03</rscale>
<asrwt>0</asrwt>
<pdfrwt beam="1">  1       21 0.50835004E-01 0.21372728E+03</pdfrwt>
<pdfrwt beam="2">  1       21 0.21587382E-01 0.21372728E+03</pdfrwt>
<totfact> 0.72958362E+04</totfact>
</mgrwt>
</event>
<event>
 4    2  0.4063641E+000  0.2587610E+03  0.7546771E-02  0.1107890E+00
         21   -1    0    0  501  502  0.00000000000E+00  0.00000000000E+00  0.95426184638E+02  0.95426184638E+02  0.00000000000E+00 0. -1.
         21   -1    0    0  502  503 -0.00000000000E+00 -0.00000000000E+00 -0.82590336596E+03  0.82590336596E+03  0.00000000000E+00 0. -1.
          6    1    1    2  501    0 -0.15952868337E+03  0.10760504139E+03 -0.18657022361E+03  0.31900735742E+03  0.17300000000E+03 0. -1.
         -6    1    1    2    0  503  0.15952868337E+03 -0.10760504139E+03 -0.54390695771E+03  0.60232219317E+03  0.17300000000E+03 0. -1.
<mgrwt>
<rscale>  2 0.25876098E+03</rscale>
<asrwt>0</asrwt>
<pdfrwt beam="1">  1       21 0.14680951E-01 0.25876098E+03</pdfrwt>
<pdfrwt beam="2">  1       21 0.12706206E+00 0.25876098E+03</pdfrwt>
<totfact> 0.17967698E+04</totfact>
</mgrwt>
</event>
<event>
 4    2  0.4063641E+000  0.2272342E+03  0.7546771E-02  0.1128602E+00
         21   -1    0    0  501  502  0.00000000000E+00  0.00000000000E+00  0.40238056129E+03  0.40238056129E+03  0.00000000000E+00 0. -1.
         21   -1    0    0  502  503 -0.00000000000E+00 -0.00000000000E+00 -0.13371232749E+03  0.13371232749E+03  0.00000000000E+00 0. -1.
          6    1    1    2  501    0  0.90882850813E+02 -0.11595977332E+03  0.18813921510E+03  0.29501139954E+03  0.17300000000E+03 0. -1.
         -6    1    1    2    0  503 -0.90882850813E+02  0.11595977332E+03  0.80529018708E+02  0.24108148924E+03  0.17300000000E+03 0. -1.
<mgrwt>
<rscale>  2 0.22723416E+03</rscale>
<asrwt>0</asrwt>
<pdfrwt beam="1">  1       21 0.61904701E-01 0.22723416E+03</pdfrwt>
<pdfrwt beam="2">  1       21 0.20571128E-01 0.22723416E+03</pdfrwt>
<totfact> 0.52204991E+04</totfact>
</mgrwt>
</event>
<event>
 4    2  0.4063641E+000  0.1828474E+03  0.7546771E-02  0.1165075E+00
         21   -1    0    0  503  502  0.00000000000E+00  0.00000000000E+00  0.14050314773E+03  0.14050314773E+03  0.00000000000E+00 0. -1.
         21   -1    0    0  501  503 -0.00000000000E+00 -0.00000000000E+00 -0.29702309103E+03  0.29702309103E+03  0.00000000000E+00 0. -1.
          6    1    1    2  501    0 -0.57510011069E+02  0.14027434791E+02  0.19297867469E+02  0.18386293261E+03  0.17300000000E+03 0. -1.
         -6    1    1    2    0  502  0.57510011069E+02 -0.14027434791E+02 -0.17581781078E+03  0.25366330615E+03  0.17300000000E+03 0. -1.
<mgrwt>
<rscale>  2 0.18284740E+03</rscale>
<asrwt>0</asrwt>
<pdfrwt beam="1">  1       21 0.21615869E-01 0.18284740E+03</pdfrwt>
<pdfrwt beam="2">  1       21 0.45695860E-01 0.18284740E+03</pdfrwt>
<totfact> 0.91968154E+04</totfact>
</mgrwt>
</event>
<event>
 4    2  0.4063641E+000  0.2142219E+03  0.7546771E-02  0.1138266E+00
         21   -1    0    0  501  502  0.00000000000E+00  0.00000000000E+00  0.82992221530E+02  0.82992221530E+02  0.00000000000E+00 0.  1.
         21   -1    0    0  502  503 -0.00000000000E+00 -0.00000000000E+00 -0.12794951425E+04  0.12794951425E+04  0.00000000000E+00 0. -1.
          6    1    1    2  501    0 -0.12004881137E+03 -0.39373925333E+02 -0.84902412633E+02  0.23043316336E+03  0.17300000000E+03 0.  1.
         -6    1    1    2    0  503  0.12004881137E+03  0.39373925333E+02 -0.11116005083E+04  0.11320542006E+04  0.17300000000E+03 0. -1.
<mgrwt>
<rscale>  2 0.21422190E+03</rscale>
<asrwt>0</asrwt>
<pdfrwt beam="1">  1       21 0.12768034E-01 0.21422190E+03</pdfrwt>
<pdfrwt beam="2">  1       21 0.19684540E+00 0.21422190E+03</pdfrwt>
<totfact> 0.72535566E+03</totfact>
</mgrwt>
</event>
<event>
 4    2  0.4063641E+000  0.2147884E+03  0.7546771E-02  0.1137829E+00
         21   -1    0    0  503  502  0.00000000000E+00  0.00000000000E+00  0.51898212891E+02  0.51898212891E+02  0.00000000000E+00 0.  1.
         21   -1    0    0  501  503 -0.00000000000E+00 -0.00000000000E+00 -0.88972112496E+03  0.88972112496E+03  0.00000000000E+00 0.  1.
          6    1    1    2  501    0 -0.12688589807E+03  0.10248306307E+02 -0.40490319936E+03  0.45834556807E+03  0.17300000000E+03 0.  1.
         -6    1    1    2    0  502  0.12688589807E+03 -0.10248306307E+02 -0.43291971271E+03  0.48327376978E+03  0.17300000000E+03 0.  1.
<mgrwt>
<rscale>  2 0.21478840E+03</rscale>
<asrwt>0</asrwt>
<pdfrwt beam="1">  1       21 0.79843405E-02 0.21478840E+03</pdfrwt>
<pdfrwt beam="2">  1       21 0.13688017E+00 0.21478840E+03</pdfrwt>
<totfact> 0.45109068E+04</totfact>
</mgrwt>
</event>
<event>
 4    2  0.4063641E+000  0.1754812E+03  0.7546771E-02  0.1172249E+00
         21   -1    0    0  501  502  0.00000000000E+00  0.00000000000E+00  0.47876546588E+03  0.47876546588E+03  0.00000000000E+00 0. -1.
         21   -1    0    0  502  503 -0.00000000000E+00 -0.00000000000E+00 -0.13092746656E+03  0.13092746656E+03  0.00000000000E+00 0. -1.
          6    1    1    2  501    0  0.42696523007E+01  0.29093227915E+02  0.39135476349E+03  0.42889648722E+03  0.17300000000E+03 0. -1.
         -6    1    1    2    0  503 -0.42696523007E+01 -0.29093227915E+02 -0.43516764173E+02  0.18079644522E+03  0.17300000000E+03 0. -1.
<mgrwt>
<rscale>  2 0.17548118E+03</rscale>
<asrwt>0</asrwt>
<pdfrwt beam="1">  1       21 0.73656224E-01 0.17548118E+03</pdfrwt>
<pdfrwt beam="2">  1       21 0.20142687E-01 0.17548118E+03</pdfrwt>
<totfact> 0.38044496E+04</totfact>
</mgrwt>
</event>
<event>
 4    2  0.4063641E+000  0.1884872E+03  0.7546771E-02  0.1159833E+00
         21   -1    0    0  501  502  0.00000000000E+00  0.00000000000E+00  0.22469351087E+03  0.22469351087E+03  0.00000000000E+00 0. -1.
         21   -1    0    0  502  503 -0.00000000000E+00 -0.00000000000E+00 -0.16017187127E+03  0.16017187127E+03  0.00000000000E+00 0. -1.
          6    1    1    2  501    0 -0.40199807770E+02 -0.63106381467E+02  0.10454753691E+02  0.18877696311E+03  0.17300000000E+03 0. -1.
         -6    1    1    2    0  503  0.40199807770E+02  0.63106381467E+02  0.54066885915E+02  0.19608841903E+03  0.17300000000E+03 0. -1.
<mgrwt>
<rscale>  2 0.18848724E+03</rscale>
<asrwt>0</asrwt>
<pdfrwt beam="1">  1       21 0.34568232E-01 0.18848724E+03</pdfrwt>
<pdfrwt beam="2">  1       21 0.24641826E-01 0.18848724E+03</pdfrwt>
<totfact> 0.12575831E+05</totfact>
</mgrwt>
</event>
<event>
 4    2  0.4063641E+000  0.2242178E+03  0.7546771E-02  0.1130777E+00
         21   -1    0    0  503  502  0.00000000000E+00  0.00000000000E+00  0.63207652551E+03  0.63207652551E+03  0.00000000000E+00 0.  1.
         21   -1    0    0  501  503 -0.00000000000E+00 -0.00000000000E+00 -0.81987613406E+02  0.81987613406E+02  0.00000000000E+00 0. -1.
          6    1    1    2  501    0 -0.69402141781E+02  0.12461131645E+03  0.33676746854E+03  0.40458122218E+03  0.17300000000E+03 0.  1.
         -6    1    1    2    0  502  0.69402141781E+02 -0.12461131645E+03  0.21332144357E+03  0.30948291674E+03  0.17300000000E+03 0.  1.
<mgrwt>
<rscale>  2 0.22421783E+03</rscale>
<asrwt>0</asrwt>
<pdfrwt beam="1">  1       21 0.97242539E-01 0.22421783E+03</pdfrwt>
<pdfrwt beam="2">  1       21 0.12613479E-01 0.22421783E+03</pdfrwt>
<totfact> 0.46325721E+04</totfact>
</mgrwt>
</event>
<event>
 4    2  0.4063641E+000  0.2276607E+03  0.7546771E-02  0.1128297E+00
         21   -1    0    0  503  502  0.00000000000E+00  0.00000000000E+00  0.58350755342E+02  0.58350755342E+02  0.00000000000E+00 0. -1.
         21   -1    0    0  501  503 -0.00000000000E+00 -0.00000000000E+00 -0.89569962218E+03  0.89569962218E+03  0.00000000000E+00 0.  1.
          6    1    1    2  501    0  0.11368742744E+03  0.94739501279E+02 -0.46221096043E+03  0.51523623340E+03  0.17300000000E+03 0.  1.
         -6    1    1    2    0  502 -0.11368742744E+03 -0.94739501279E+02 -0.37513790641E+03  0.43881414413E+03  0.17300000000E+03 0. -1.
<mgrwt>
<rscale>  2 0.22766072E+03</rscale>
<asrwt>0</asrwt>
<pdfrwt beam="1">  1       21 0.89770406E-02 0.22766072E+03</pdfrwt>
<pdfrwt beam="2">  1       21 0.13779992E+00 0.22766072E+03</pdfrwt>
<totfact> 0.35859648E+04</totfact>
</mgrwt>
</event>
<event>
 4    2  0.4063641E+000  0.2921423E+03  0.7546771E-02  0.1089236E+00
         21   -1    0    0  503  502  0.00000000000E+00  0.00000000000E+00  0.54288611903E+02  0.54288611903E+02  0.00000000000E+00 0. -1.
         21   -1    0    0  501  503 -0.00000000000E+00 -0.00000000000E+00 -0.16443761699E+04  0.16443761699E+04  0.00000000000E+00 0.  1.
          6    1    1    2  501    0  0.47326030225E+02 -0.23060436428E+03 -0.61698035927E+03  0.68265063516E+03  0.17300000000E+03 0. -1.
         -6    1    1    2    0  502 -0.47326030225E+02  0.23060436428E+03 -0.97310719874E+03  0.10160141467E+04  0.17300000000E+03 0.  1.
<mgrwt>
<rscale>  2 0.29214230E+03</rscale>
<asrwt>0</asrwt>
<pdfrwt beam="1">  1       21 0.83520945E-02 0.29214230E+03</pdfrwt>
<pdfrwt beam="2">  1       21 0.25298094E+00 0.29214230E+03</pdfrwt>
<totfact> 0.65501287E+03</totfact>
</mgrwt>
</event>
<event>
 4    2  0.4063641E+000  0.1933828E+03  0.7546771E-02  0.1155445E+00
         21   -1    0    0  503  502  0.00000000000E+00  0.00000000000E+00  0.29499463377E+04  0.29499463377E+04  0.00000000000E+00 0. -1.
         21   -1    0    0  501  503 -0.00000000000E+00 -0.00000000000E+00 -0.13689081968E+02  0.13689081968E+02  0.00000000000E+00 0. -1.
          6    1    1    2  501    0 -0.52191770974E+02 -0.68876249888E+02  0.10652420482E+04  0.10826530100E+04  0.17300000000E+03 0. -1.
         -6    1    1    2    0  502  0.52191770974E+02  0.68876249888E+02  0.18710152075E+04  0.18809824097E+04  0.17300000000E+03 0. -1.
<mgrwt>
<rscale>  2 0.19338283E+03</rscale>
<asrwt>0</asrwt>
<pdfrwt beam="1">  1       21 0.45383739E+00 0.19338283E+03</pdfrwt>
<pdfrwt beam="2">  1       21 0.21060150E-02 0.19338283E+03</pdfrwt>
<totfact> 0.44341665E+03</totfact>
</mgrwt>
</event>
<event>
 4    2  0.4063641E+000  0.1834258E+03  0.7546771E-02  0.1164528E+00
         21   -1    0    0  501  502  0.00000000000E+00  0.00000000000E+00  0.85896299692E+03  0.85896299692E+03  0.00000000000E+00 0.  1.
         21   -1    0    0  502  503 -0.00000000000E+00 -0.00000000000E+00 -0.68268053962E+02  0.68268053962E+02  0.00000000000E+00 0.  1.
          6    1    1    2  501    0 -0.60882380665E+02 -0.30592688838E+01  0.69802907269E+03  0.72172682486E+03  0.17300000000E+03 0.  1.
         -6    1    1    2    0  503  0.60882380665E+02  0.30592688838E+01  0.92665870275E+02  0.20550422603E+03  0.17300000000E+03 0.  1.
<mgrwt>
<rscale>  2 0.18342580E+03</rscale>
<asrwt>0</asrwt>
<pdfrwt beam="1">  1       21 0.13214815E+00 0.18342580E+03</pdfrwt>
<pdfrwt beam="2">  1       21 0.10502778E-01 0.18342580E+03</pdfrwt>
<totfact> 0.31023068E+04</totfact>
</mgrwt>
</event>
<event>
 4    2  0.4063641E+000  0.2098810E+03  0.7546771E-02  0.1141660E+00
         21   -1    0    0  503  502  0.00000000000E+00  0.00000000000E+00  0.35750311508E+03  0.35750311508E+03  0.00000000000E+00 0. -1.
         21   -1    0    0  501  503 -0.00000000000E+00 -0.00000000000E+00 -0.15263779325E+03  0.15263779325E+03  0.00000000000E+00 0. -1.
          6    1    1    2  501    0  0.76835130730E+00  0.11882947109E+03 -0.95537010828E+01  0.21009832643E+03  0.17300000000E+03 0.  1.
         -6    1    1    2    0  502 -0.76835130730E+00 -0.11882947109E+03  0.21441902292E+03  0.30004258190E+03  0.17300000000E+03 0.  1.
<mgrwt>
<rscale>  2 0.20988100E+03</rscale>
<asrwt>0</asrwt>
<pdfrwt beam="1">  1       21 0.55000479E-01 0.20988100E+03</pdfrwt>
<pdfrwt beam="2">  1       21 0.23482738E-01 0.20988100E+03</pdfrwt>
<totfact> 0.52785650E+04</totfact>
</mgrwt>
</event>
<event>
 4    2  0.4063641E+000  0.1873081E+03  0.7546771E-02  0.1160912E+00
         21   -1    0    0  501  502  0.00000000000E+00  0.00000000000E+00  0.61212908704E+02  0.61212908704E+02  0.00000000000E+00 0.  1.
         21   -1    0    0  502  503 -0.00000000000E+00 -0.00000000000E+00 -0.65849997993E+03  0.65849997993E+03  0.00000000000E+00 0.  1.
          6    1    1    2  501    0 -0.43994482692E+02 -0.56743338537E+02 -0.16909061847E+03  0.25234095631E+03  0.17300000000E+03 0.  1.
         -6    1    1    2    0  503  0.43994482692E+02  0.56743338537E+02 -0.42819645275E+03  0.46737193233E+03  0.17300000000E+03 0.  1.
<mgrwt>
<rscale>  2 0.18730809E+03</rscale>
<asrwt>0</asrwt>
<pdfrwt beam="1">  1       21 0.94173704E-02 0.18730809E+03</pdfrwt>
<pdfrwt beam="2">  1       21 0.10130769E+00 0.18730809E+03</pdfrwt>
<totfact> 0.71972499E+04</totfact>
</mgrwt>
</event>
<event>
 4    2  0.4063641E+000  0.2191819E+03  0.7546771E-02  0.1134494E+00
         21   -1    0    0  501  502  0.00000000000E+00  0.00000000000E+00  0.16963113744E+03  0.16963113744E+03  0.00000000000E+00 0.  1.
         21   -1    0    0  502  503 -0.00000000000E+00 -0.00000000000E+00 -0.39484454948E+03  0.39484454948E+03  0.00000000000E+00 0.  1.
          6    1    1    2  501    0  0.11583672625E+03 -0.68509501590E+02 -0.26268145434E+03  0.34211437475E+03  0.17300000000E+03 0.  1.
         -6    1    1    2    0  503 -0.11583672625E+03  0.68509501590E+02  0.37468042308E+02  0.22236131217E+03  0.17300000000E+03 0.  1.
<mgrwt>
<rscale>  2 0.21918189E+03</rscale>
<asrwt>0</asrwt>
<pdfrwt beam="1">  1       21 0.26097098E-01 0.21918189E+03</pdfrwt>
<pdfrwt beam="2">  1       21 0.60745315E-01 0.21918189E+03</pdfrwt>
<totfact> 0.34722684E+04</totfact>
</mgrwt>
</event>
<event>
 4    2  0.4063641E+000  0.1768054E+03  0.7546771E-02  0.1170931E+00
         21   -1    0    0  501  502  0.00000000000E+00  0.00000000000E+00  0.52362691866E+03  0.52362691866E+03  0.00000000000E+00 0.  1.
         21   -1    0    0  502  503 -0.00000000000E+00 -0.00000000000E+00 -0.10216645262E+03  0.10216645262E+03  0.00000000000E+00 0.  1.
          6    1    1    2  501    0 -0.14580937682E+02  0.33444898029E+02  0.41246155469E+03  0.44875906569E+03  0.17300000000E+03 0.  1.
         -6    1    1    2    0  503  0.14580937682E+02 -0.33444898029E+02  0.89989113506E+01  0.17703430558E+03  0.17300000000E+03 0.  1.
<mgrwt>
<rscale>  2 0.17680544E+03</rscale>
<asrwt>0</asrwt>
<pdfrwt beam="1">  1       21 0.80557986E-01 0.17680544E+03</pdfrwt>
<pdfrwt beam="2">  1       21 0.15717916E-01 0.17680544E+03</pdfrwt>
<totfact> 0.49149330E+04</totfact>
</mgrwt>
</event>
<event>
 4    2  0.4063641E+000  0.2290719E+03  0.7546771E-02  0.1127295E+00
         21   -1    0    0  501  502  0.00000000000E+00  0.00000000000E+00  0.37089690300E+03  0.37089690300E+03  0.00000000000E+00 0. -1.
         21   -1    0    0  502  503 -0.00000000000E+00 -0.00000000000E+00 -0.15974058746E+03  0.15974058746E+03  0.00000000000E+00 0. -1.
          6    1    1    2  501    0  0.50325385336E+01  0.15006542176E+03  0.19528692151E+03  0.30101650945E+03  0.17300000000E+03 0. -1.
         -6    1    1    2    0  503 -0.50325385336E+01 -0.15006542176E+03  0.15869394032E+02  0.22962098101E+03  0.17300000000E+03 0. -1.
<mgrwt>
<rscale>  2 0.22907195E+03</rscale>
<asrwt>0</asrwt>
<pdfrwt beam="1">  1       21 0.57061062E-01 0.22907195E+03</pdfrwt>
<pdfrwt beam="2">  1       21 0.24575475E-01 0.22907195E+03</pdfrwt>
<totfact> 0.44365431E+04</totfact>
</mgrwt>
</event>
<event>
 4    2  0.4063641E+000  0.1808781E+03  0.7546771E-02  0.1166956E+00
         21   -1    0    0  501  502  0.00000000000E+00  0.00000000000E+00  0.60239783079E+03  0.60239783079E+03  0.00000000000E+00 0.  1.
         21   -1    0    0  502  503 -0.00000000000E+00 -0.00000000000E+00 -0.13485246236E+03  0.13485246236E+03  0.00000000000E+00 0.  1.
          6    1    1    2  501    0  0.17543564560E+02 -0.49800786192E+02  0.51865466218E+03  0.54929004503E+03  0.17300000000E+03 0.  1.
         -6    1    1    2    0  503 -0.17543564560E+02  0.49800786192E+02 -0.51109293758E+02  0.18796024811E+03  0.17300000000E+03 0.  1.
<mgrwt>
<rscale>  2 0.18087812E+03</rscale>
<asrwt>0</asrwt>
<pdfrwt beam="1">  1       21 0.92676588E-01 0.18087812E+03</pdfrwt>
<pdfrwt beam="2">  1       21 0.20746533E-01 0.18087812E+03</pdfrwt>
<totfact> 0.21305232E+04</totfact>
</mgrwt>
</event>
<event>
 4    2  0.4063641E+000  0.2152650E+03  0.7546771E-02  0.1137463E+00
         21   -1    0    0  503  502  0.00000000000E+00  0.00000000000E+00  0.21488348690E+04  0.21488348690E+04  0.00000000000E+00 0.  1.
         21   -1    0    0  501  503 -0.00000000000E+00 -0.00000000000E+00 -0.21708511358E+02  0.21708511358E+02  0.00000000000E+00 0.  1.
          6    1    1    2  501    0 -0.26322688847E+01 -0.12807457325E+03  0.97523732923E+03  0.99871260804E+03  0.17300000000E+03 0.  1.
         -6    1    1    2    0  502  0.26322688847E+01  0.12807457325E+03  0.11518890284E+04  0.11718307723E+04  0.17300000000E+03 0.  1.
<mgrwt>
<rscale>  2 0.21526501E+03</rscale>
<asrwt>0</asrwt>
<pdfrwt beam="1">  1       21 0.33058981E+00 0.21526501E+03</pdfrwt>
<pdfrwt beam="2">  1       21 0.33397727E-02 0.21526501E+03</pdfrwt>
<totfact> 0.11741903E+04</totfact>
</mgrwt>
</event>
<event>
 4    2  0.4063641E+000  0.1915745E+03  0.7546771E-02  0.1157049E+00
         21   -1    0    0  503  502  0.00000000000E+00  0.00000000000E+00  0.21064696633E+03  0.21064696633E+03  0.00000000000E+00 0.  1.
         21   -1    0    0  501  503 -0.00000000000E+00 -0.00000000000E+00 -0.17525242736E+03  0.17525242736E+03  0.00000000000E+00 0. -1.
          6    1    1    2  501    0  0.81026612671E+02 -0.14368880641E+02  0.29512624469E+01  0.19159719894E+03  0.17300000000E+03 0.  1.
         -6    1    1    2    0  502 -0.81026612671E+02  0.14368880641E+02  0.32443276529E+02  0.19430219475E+03  0.17300000000E+03 0. -1.
<mgrwt>
<rscale>  2 0.19157447E+03</rscale>
<asrwt>0</asrwt>
<pdfrwt beam="1">  1       21 0.32407226E-01 0.19157447E+03</pdfrwt>
<pdfrwt beam="2">  1       21 0.26961912E-01 0.19157447E+03</pdfrwt>
<totfact> 0.12011444E+05</totfact>
</mgrwt>
</event>
<event>
 4    2  0.4063641E+000  0.1947216E+03  0.7546771E-02  0.1154270E+00
         21   -1    0    0  503  502  0.00000000000E+00  0.00000000000E+00  0.16243688047E+03  0.16243688047E+03  0.00000000000E+00 0. -1.
         21   -1    0    0  501  503 -0.00000000000E+00 -0.00000000000E+00 -0.50343683042E+03  0.50343683042E+03  0.00000000000E+00 0. -1.
          6    1    1    2  501    0 -0.34595307096E+02 -0.82405416050E+02 -0.41432735136E+03  0.45780306023E+03  0.17300000000E+03 0. -1.
         -6    1    1    2    0  502  0.34595307096E+02  0.82405416050E+02  0.73327401420E+02  0.20807065066E+03  0.17300000000E+03 0. -1.
<mgrwt>
<rscale>  2 0.19472156E+03</rscale>
<asrwt>0</asrwt>
<pdfrwt beam="1">  1       21 0.24990290E-01 0.19472156E+03</pdfrwt>
<pdfrwt beam="2">  1       21 0.77451819E-01 0.19472156E+03</pdfrwt>
<totfact> 0.22398368E+04</totfact>
</mgrwt>
</event>
<event>
 4    2  0.4063641E+000  0.1778086E+03  0.7546771E-02  0.1169941E+00
         21   -1    0    0  503  502  0.00000000000E+00  0.00000000000E+00  0.22137190994E+02  0.22137190994E+02  0.00000000000E+00 0.  1.
         21   -1    0    0  501  503 -0.00000000000E+00 -0.00000000000E+00 -0.17757512509E+04  0.17757512509E+04  0.00000000000E+00 0.  1.
          6    1    1    2  501    0 -0.28476817963E+00 -0.41070909505E+02 -0.12745141797E+04  0.12868575271E+04  0.17300000000E+03 0.  1.
         -6    1    1    2    0  502  0.28476817963E+00  0.41070909505E+02 -0.47909988021E+03  0.51103091483E+03  0.17300000000E+03 0.  1.
<mgrwt>
<rscale>  2 0.17780861E+03</rscale>
<asrwt>0</asrwt>
<pdfrwt beam="1">  1       21 0.34057224E-02 0.17780861E+03</pdfrwt>
<pdfrwt beam="2">  1       21 0.27319244E+00 0.17780861E+03</pdfrwt>
<totfact> 0.25321522E+04</totfact>
</mgrwt>
</event>
<event>
 4    2  0.4063641E+000  0.2728257E+03  0.7546771E-02  0.1099673E+00
         21   -1    0    0  503  502  0.00000000000E+00  0.00000000000E+00  0.44504879193E+02  0.44504879193E+02  0.00000000000E+00 0. -1.
         21   -1    0    0  501  503 -0.00000000000E+00 -0.00000000000E+00 -0.18353161362E+04  0.18353161362E+04  0.00000000000E+00 0.  1.
          6    1    1    2  501    0 -0.18441828995E+03 -0.10244390531E+03 -0.11753658306E+04  0.12066145595E+04  0.17300000000E+03 0. -1.
         -6    1    1    2    0  502  0.18441828995E+03  0.10244390531E+03 -0.61544542644E+03  0.67320645594E+03  0.17300000000E+03 0. -1.
<mgrwt>
<rscale>  2 0.27282569E+03</rscale>
<asrwt>0</asrwt>
<pdfrwt beam="1">  1       21 0.68469040E-02 0.27282569E+03</pdfrwt>
<pdfrwt beam="2">  1       21 0.28235635E+00 0.27282569E+03</pdfrwt>
<totfact> 0.62971771E+03</totfact>
</mgrwt>
</event>
<event>
 4    2  0.4063641E+000  0.1829280E+03  0.7546771E-02  0.1164999E+00
         21   -1    0    0  501  502  0.00000000000E+00  0.00000000000E+00  0.10313895837E+03  0.10313895837E+03  0.00000000000E+00 0.  1.
         21   -1    0    0  502  503 -0.00000000000E+00 -0.00000000000E+00 -0.33265271042E+03  0.33265271042E+03  0.00000000000E+00 0.  1.
          6    1    1    2  501    0 -0.19480601274E+02  0.56161889711E+02 -0.14898893774E+03  0.23592446937E+03  0.17300000000E+03 0. -1.
         -6    1    1    2    0  503  0.19480601274E+02 -0.56161889711E+02 -0.80524814310E+02  0.19986719941E+03  0.17300000000E+03 0. -1.
<mgrwt>
<rscale>  2 0.18292800E+03</rscale>
<asrwt>0</asrwt>
<pdfrwt beam="1">  1       21 0.15867532E-01 0.18292800E+03</pdfrwt>
<pdfrwt beam="2">  1       21 0.51177340E-01 0.18292800E+03</pdfrwt>
<totfact> 0.12892952E+05</totfact>
</mgrwt>
</event>
<event>
 4    2  0.4063641E+000  0.2047046E+03  0.7546771E-02  0.1145829E+00
         21   -1    0    0  501  502  0.00000000000E+00  0.00000000000E+00  0.15588538787E+03  0.15588538787E+03  0.00000000000E+00 0. -1.
         21   -1    0    0  502  503 -0.00000000000E+00 -0.00000000000E+00 -0.66032218563E+03  0.66032218563E+03  0.00000000000E+00 0. -1.
          6    1    1    2  501    0  0.84058317272E+02 -0.70065535854E+02  0.62023286889E+02  0.21389452572E+03  0.17300000000E+03 0. -1.
         -6    1    1    2    0  503 -0.84058317272E+02  0.70065535854E+02 -0.56646008465E+03  0.60231304778E+03  0.17300000000E+03 0. -1.
<mgrwt>
<rscale>  2 0.20470462E+03</rscale>
<asrwt>0</asrwt>
<pdfrwt beam="1">  1       21 0.23982367E-01 0.20470462E+03</pdfrwt>
<pdfrwt beam="2">  1       21 0.10158803E+00 0.20470462E+03</pdfrwt>
<totfact> 0.12858847E+04</totfact>
</mgrwt>
</event>
<event>
 4    2  0.4063641E+000  0.1794756E+03  0.7546771E-02  0.1168311E+00
         21   -1    0    0  501  502  0.00000000000E+00  0.00000000000E+00  0.72314837838E+02  0.72314837838E+02  0.00000000000E+00 0. -1.
         21   -1    0    0  502  503 -0.00000000000E+00 -0.00000000000E+00 -0.52649723217E+03  0.52649723217E+03  0.00000000000E+00 0.  1.
          6    1    1    2  501    0 -0.22011100042E+02 -0.42403027440E+02 -0.10960852853E+03  0.21029867995E+03  0.17300000000E+03 0. -1.
         -6    1    1    2    0  503  0.22011100042E+02  0.42403027440E+02 -0.34457386580E+03  0.38851339006E+03  0.17300000000E+03 0.  1.
<mgrwt>
<rscale>  2 0.17947564E+03</rscale>
<asrwt>0</asrwt>
<pdfrwt beam="1">  1       21 0.11125360E-01 0.17947564E+03</pdfrwt>
<pdfrwt beam="2">  1       21 0.80999574E-01 0.17947564E+03</pdfrwt>
<totfact> 0.90301739E+04</totfact>
</mgrwt>
</event>
<event>
 4    2  0.4063641E+000  0.1767206E+03  0.7546771E-02  0.1171015E+00
         21   -1    0    0  503  502  0.00000000000E+00  0.00000000000E+00  0.50275800421E+03  0.50275800421E+03  0.00000000000E+00 0.  1.
         21   -1    0    0  501  503 -0.00000000000E+00 -0.00000000000E+00 -0.83098548265E+02  0.83098548265E+02  0.00000000000E+00 0.  1.
          6    1    1    2  501    0  0.95122923105E+01  0.34794719090E+02  0.62640373164E+02  0.18749392665E+03  0.17300000000E+03 0.  1.
         -6    1    1    2    0  502 -0.95122923105E+01 -0.34794719090E+02  0.35701908278E+03  0.39836262582E+03  0.17300000000E+03 0.  1.
<mgrwt>
<rscale>  2 0.17672056E+03</rscale>
<asrwt>0</asrwt>
<pdfrwt beam="1">  1       21 0.77347383E-01 0.17672056E+03</pdfrwt>
<pdfrwt beam="2">  1       21 0.12784392E-01 0.17672056E+03</pdfrwt>
<totfact> 0.78262396E+04</totfact>
</mgrwt>
</event>
<event>
 4    2  0.4063641E+000  0.2156351E+03  0.7546771E-02  0.1137180E+00
         21   -1    0    0  501  502  0.00000000000E+00  0.00000000000E+00  0.22639048763E+03  0.22639048763E+03  0.00000000000E+00 0.  1.
         21   -1    0    0  502  503 -0.00000000000E+00 -0.00000000000E+00 -0.29247424465E+03  0.29247424465E+03  0.00000000000E+00 0. -1.
          6    1    1    2  501    0 -0.69471344559E+02  0.10836611727E+03  0.10852073961E+03  0.24140263878E+03  0.17300000000E+03 0.  1.
         -6    1    1    2    0  503  0.69471344559E+02 -0.10836611727E+03 -0.17460449662E+03  0.27746209349E+03  0.17300000000E+03 0.  1.
<mgrwt>
<rscale>  2 0.21563507E+03</rscale>
<asrwt>0</asrwt>
<pdfrwt beam="1">  1       21 0.34829306E-01 0.21563507E+03</pdfrwt>
<pdfrwt beam="2">  1       21 0.44996038E-01 0.21563507E+03</pdfrwt>
<totfact> 0.37219301E+04</totfact>
</mgrwt>
</event>
<event>
 4    2  0.4063641E+000  0.1927977E+03  0.7546771E-02  0.1155962E+00
         21   -1    0    0  503  502  0.00000000000E+00  0.00000000000E+00  0.17787110034E+03  0.17787110034E+03  0.00000000000E+00 0. -1.
         21   -1    0    0  501  503 -0.00000000000E+00 -0.00000000000E+00 -0.28767048633E+03  0.28767048633E+03  0.00000000000E+00 0. -1.
          6    1    1    2  501    0 -0.85064163456E+02 -0.24584374256E+01 -0.17664449550E+03  0.26148467185E+03  0.17300000000E+03 0. -1.
         -6    1    1    2    0  502  0.85064163456E+02  0.24584374256E+01  0.66845109516E+02  0.20405691482E+03  0.17300000000E+03 0. -1.
<mgrwt>
<rscale>  2 0.19279771E+03</rscale>
<asrwt>0</asrwt>
<pdfrwt beam="1">  1       21 0.27364785E-01 0.19279771E+03</pdfrwt>
<pdfrwt beam="2">  1       21 0.44256998E-01 0.19279771E+03</pdfrwt>
<totfact> 0.62446688E+04</totfact>
</mgrwt>
</event>
<event>
 4    2  0.4063641E+000  0.2158191E+03  0.7546771E-02  0.1137039E+00
         21   -1    0    0  503  502  0.00000000000E+00  0.00000000000E+00  0.14963907928E+03  0.14963907928E+03  0.00000000000E+00 0.  1.
         21   -1    0    0  501  503 -0.00000000000E+00 -0.00000000000E+00 -0.35286470131E+03  0.35286470131E+03  0.00000000000E+00 0. -1.
          6    1    1    2  501    0 -0.51122440102E+02  0.11847109259E+03 -0.18787749693E+03  0.28613957698E+03  0.17300000000E+03 0. -1.
         -6    1    1    2    0  502  0.51122440102E+02 -0.11847109259E+03 -0.15348125111E+02  0.21636420361E+03  0.17300000000E+03 0.  1.
<mgrwt>
<rscale>  2 0.21581915E+03</rscale>
<asrwt>0</asrwt>
<pdfrwt beam="1">  1       21 0.23021397E-01 0.21581915E+03</pdfrwt>
<pdfrwt beam="2">  1       21 0.54286877E-01 0.21581915E+03</pdfrwt>
<totfact> 0.56198967E+04</totfact>
</mgrwt>
</event>
<event>
 4    2  0.4063641E+000  0.2003531E+03  0.7546771E-02  0.1149441E+00
         21   -1    0    0  501  502  0.00000000000E+00  0.00000000000E+00  0.25206829023E+03  0.25206829023E+03  0.00000000000E+00 0. -1.
         21   -1    0    0  502  503 -0.00000000000E+00 -0.00000000000E+00 -0.50809311262E+03  0.50809311262E+03  0.00000000000E+00 0.  1.
          6    1    1    2  501    0  0.55629956118E+02  0.84366333283E+02  0.18692226992E+03  0.27400968086E+03  0.17300000000E+03 0. -1.
         -6    1    1    2    0  503 -0.55629956118E+02 -0.84366333283E+02 -0.44294709232E+03  0.48615172200E+03  0.17300000000E+03 0.  1.
<mgrwt>
<rscale>  2 0.20035311E+03</rscale>
<asrwt>0</asrwt>
<pdfrwt beam="1">  1       21 0.38779738E-01 0.20035311E+03</pdfrwt>
<pdfrwt beam="2">  1       21 0.78168170E-01 0.20035311E+03</pdfrwt>
<totfact> 0.92409398E+03</totfact>
</mgrwt>
</event>
<event>
 4    2  0.4063641E+000  0.1755109E+03  0.7546771E-02  0.1172220E+00
         21   -1    0    0  503  502  0.00000000000E+00  0.00000000000E+00  0.11065790541E+02  0.11065790541E+02  0.00000000000E+00 0.  1.
         21   -1    0    0  501  503 -0.00000000000E+00 -0.00000000000E+00 -0.29146650292E+04  0.29146650292E+04  0.00000000000E+00 0.  1.
          6    1    1    2  501    0 -0.29576605727E+02 -0.54644092770E+00 -0.17618646521E+04  0.17705849674E+04  0.17300000000E+03 0. -1.
         -6    1    1    2    0  502  0.29576605727E+02  0.54644092770E+00 -0.11417345865E+04  0.11551458524E+04  0.17300000000E+03 0. -1.
<mgrwt>
<rscale>  2 0.17551089E+03</rscale>
<asrwt>0</asrwt>
<pdfrwt beam="1">  1       21 0.17024282E-02 0.17551089E+03</pdfrwt>
<pdfrwt beam="2">  1       21 0.44841030E+00 0.17551089E+03</pdfrwt>
<totfact> 0.69874374E+03</totfact>
</mgrwt>
</event>
<event>
 4    2  0.4063641E+000  0.1992721E+03  0.7546771E-02  0.1150355E+00
         21   -1    0    0  501  502  0.00000000000E+00  0.00000000000E+00  0.97164011165E+02  0.97164011165E+02  0.00000000000E+00 0.  1.
         21   -1    0    0  502  503 -0.00000000000E+00 -0.00000000000E+00 -0.47257457923E+03  0.47257457923E+03  0.00000000000E+00 0.  1.
          6    1    1    2  501    0  0.68566617370E+00 -0.98893473573E+02 -0.29244911111E+03  0.35388680654E+03  0.17300000000E+03 0.  1.
         -6    1    1    2    0  503 -0.68566617370E+00  0.98893473573E+02 -0.82961456953E+02  0.21585178385E+03  0.17300000000E+03 0.  1.
<mgrwt>
<rscale>  2 0.19927215E+03</rscale>
<asrwt>0</asrwt>
<pdfrwt beam="1">  1       21 0.14948310E-01 0.19927215E+03</pdfrwt>
<pdfrwt beam="2">  1       21 0.72703781E-01 0.19927215E+03</pdfrwt>
<totfact> 0.67057014E+04</totfact>
</mgrwt>
</event>
<event>
 4    2  0.4063641E+000  0.2130749E+03  0.7546771E-02  0.1139154E+00
         21   -1    0    0  501  502  0.00000000000E+00  0.00000000000E+00  0.72802917147E+03  0.72802917147E+03  0.00000000000E+00 0. -1.
         21   -1    0    0  502  503 -0.00000000000E+00 -0.00000000000E+00 -0.70185507751E+02  0.70185507751E+02  0.00000000000E+00 0. -1.
          6    1    1    2  501    0  0.85071136921E+02  0.90745851332E+02  0.46217692074E+03  0.50892869239E+03  0.17300000000E+03 0. -1.
         -6    1    1    2    0  503 -0.85071136921E+02 -0.90745851332E+02  0.19566674298E+03  0.28928598684E+03  0.17300000000E+03 0. -1.
<mgrwt>
<rscale>  2 0.21307489E+03</rscale>
<asrwt>0</asrwt>
<pdfrwt beam="1">  1       21 0.11200448E+00 0.21307489E+03</pdfrwt>
<pdfrwt beam="2">  1       21 0.10797771E-01 0.21307489E+03</pdfrwt>
<totfact> 0.43801589E+04</totfact>
</mgrwt>
</event>
<event>
 4    2  0.4063641E+000  0.3383979E+03  0.7546771E-02  0.1067480E+00
         21   -1    0    0  503  502  0.00000000000E+00  0.00000000000E+00  0.11224475707E+04  0.11224475707E+04  0.00000000000E+00 0. -1.
         21   -1    0    0  501  503 -0.00000000000E+00 -0.00000000000E+00 -0.11706567690E+03  0.11706567690E+03  0.00000000000E+00 0. -1.
          6    1    1    2  501    0 -0.29029084997E+03 -0.17758494908E+02  0.72486783130E+03  0.79996657091E+03  0.17300000000E+03 0. -1.
         -6    1    1    2    0  502  0.29029084997E+03  0.17758494908E+02  0.28051406247E+03  0.43954667665E+03  0.17300000000E+03 0. -1.
<mgrwt>
<rscale>  2 0.33839790E+03</rscale>
<asrwt>0</asrwt>
<pdfrwt beam="1">  1       21 0.17268423E+00 0.33839790E+03</pdfrwt>
<pdfrwt beam="2">  1       21 0.18010105E-01 0.33839790E+03</pdfrwt>
<totfact> 0.52071761E+03</totfact>
</mgrwt>
</event>
<event>
 4    2  0.4063641E+000  0.2064698E+03  0.7546771E-02  0.1144392E+00
         21   -1    0    0  501  502  0.00000000000E+00  0.00000000000E+00  0.25065632366E+03  0.25065632366E+03  0.00000000000E+00 0. -1.
         21   -1    0    0  502  503 -0.00000000000E+00 -0.00000000000E+00 -0.24184657693E+03  0.24184657693E+03  0.00000000000E+00 0.  1.
          6    1    1    2  501    0 -0.10657623827E+03  0.36637061986E+02  0.13855539810E+03  0.24865109534E+03  0.17300000000E+03 0. -1.
         -6    1    1    2    0  503  0.10657623827E+03 -0.36637061986E+02 -0.12974565136E+03  0.24385180525E+03  0.17300000000E+03 0.  1.
<mgrwt>
<rscale>  2 0.20646978E+03</rscale>
<asrwt>0</asrwt>
<pdfrwt beam="1">  1       21 0.38562512E-01 0.20646978E+03</pdfrwt>
<pdfrwt beam="2">  1       21 0.37207165E-01 0.20646978E+03</pdfrwt>
<totfact> 0.44865066E+04</totfact>
</mgrwt>
</event>
<event>
 4    2  0.4063641E+000  0.2011463E+03  0.7546771E-02  0.1148775E+00
         21   -1    0    0  501  502  0.00000000000E+00  0.00000000000E+00  0.13386250278E+03  0.13386250278E+03  0.00000000000E+00 0. -1.
         21   -1    0    0  502  503 -0.00000000000E+00 -0.00000000000E+00 -0.32810492375E+03  0.32810492375E+03  0.00000000000E+00 0. -1.
          6    1    1    2  501    0 -0.81964289460E+02 -0.61746920410E+02 -0.16196282226E+03  0.25824752220E+03  0.17300000000E+03 0. -1.
         -6    1    1    2    0  503  0.81964289460E+02  0.61746920410E+02 -0.32279598712E+02  0.20371990433E+03  0.17300000000E+03 0. -1.
<mgrwt>
<rscale>  2 0.20114628E+03</rscale>
<asrwt>0</asrwt>
<pdfrwt beam="1">  1       21 0.20594231E-01 0.20114628E+03</pdfrwt>
<pdfrwt beam="2">  1       21 0.50477680E-01 0.20114628E+03</pdfrwt>
<totfact> 0.81335199E+04</totfact>
</mgrwt>
</event>
<event>
 4    2  0.4063641E+000  0.1940750E+03  0.7546771E-02  0.1154836E+00
         21   -1    0    0  503  502  0.00000000000E+00  0.00000000000E+00  0.16369632746E+03  0.16369632746E+03  0.00000000000E+00 0.  1.
         21   -1    0    0  501  503 -0.00000000000E+00 -0.00000000000E+00 -0.23158434108E+03  0.23158434108E+03  0.00000000000E+00 0.  1.
          6    1    1    2  501    0 -0.86853305287E+02 -0.13877803876E+02 -0.49813621380E+02  0.20036588271E+03  0.17300000000E+03 0.  1.
         -6    1    1    2    0  502  0.86853305287E+02  0.13877803876E+02 -0.18074392242E+02  0.19491478583E+03  0.17300000000E+03 0.  1.
<mgrwt>
<rscale>  2 0.19407496E+03</rscale>
<asrwt>0</asrwt>
<pdfrwt beam="1">  1       21 0.25184051E-01 0.19407496E+03</pdfrwt>
<pdfrwt beam="2">  1       21 0.35628360E-01 0.19407496E+03</pdfrwt>
<totfact> 0.11339938E+05</totfact>
</mgrwt>
</event>
<event>
 4    2  0.4063641E+000  0.2211810E+03  0.7546771E-02  0.1133006E+00
         21   -1    0    0  503  502  0.00000000000E+00  0.00000000000E+00  0.21535836989E+03  0.21535836989E+03  0.00000000000E+00 0. -1.
         21   -1    0    0  501  503 -0.00000000000E+00 -0.00000000000E+00 -0.23177387856E+03  0.23177387856E+03  0.00000000000E+00 0. -1.
          6    1    1    2  501    0  0.10868866824E+03  0.84727796303E+02 -0.39747560474E+02  0.22472404107E+03  0.17300000000E+03 0.  1.
         -6    1    1    2    0  502 -0.10868866824E+03 -0.84727796303E+02  0.23332051808E+02  0.22240820739E+03  0.17300000000E+03 0.  1.
<mgrwt>
<rscale>  2 0.22118098E+03</rscale>
<asrwt>0</asrwt>
<pdfrwt beam="1">  1       21 0.33132057E-01 0.22118098E+03</pdfrwt>
<pdfrwt beam="2">  1       21 0.35657520E-01 0.22118098E+03</pdfrwt>
<totfact> 0.65689025E+04</totfact>
</mgrwt>
</event>
<event>
 4    2  0.4063641E+000  0.2125388E+03  0.7546771E-02  0.1139571E+00
         21   -1    0    0  501  502  0.00000000000E+00  0.00000000000E+00  0.15096221436E+04  0.15096221436E+04  0.00000000000E+00 0.  1.
         21   -1    0    0  502  503 -0.00000000000E+00 -0.00000000000E+00 -0.38261553960E+02  0.38261553960E+02  0.00000000000E+00 0. -1.
          6    1    1    2  501    0  0.65366027172E+02  0.10474263375E+03  0.10969794892E+04  0.11173794058E+04  0.17300000000E+03 0.  1.
         -6    1    1    2    0  503 -0.65366027172E+02 -0.10474263375E+03  0.37438110042E+03  0.43050429171E+03  0.17300000000E+03 0. -1.
<mgrwt>
<rscale>  2 0.21253879E+03</rscale>
<asrwt>0</asrwt>
<pdfrwt beam="1">  1       21 0.23224952E+00 0.21253879E+03</pdfrwt>
<pdfrwt beam="2">  1       21 0.58863941E-02 0.21253879E+03</pdfrwt>
<totfact> 0.16988232E+04</totfact>
</mgrwt>
</event>
<event>
 4    2  0.4063641E+000  0.1871235E+03  0.7546771E-02  0.1161082E+00
         21   -1    0    0  503  502  0.00000000000E+00  0.00000000000E+00  0.91654461905E+03  0.91654461905E+03  0.00000000000E+00 0. -1.
         21   -1    0    0  501  503 -0.00000000000E+00 -0.00000000000E+00 -0.38658190737E+02  0.38658190737E+02  0.00000000000E+00 0. -1.
          6    1    1    2  501    0  0.32711416917E+02  0.63373154572E+02  0.38714524871E+03  0.42999608965E+03  0.17300000000E+03 0.  1.
         -6    1    1    2    0  502 -0.32711416917E+02 -0.63373154572E+02  0.49074117961E+03  0.52520672014E+03  0.17300000000E+03 0.  1.
<mgrwt>
<rscale>  2 0.18712347E+03</rscale>
<asrwt>0</asrwt>
<pdfrwt beam="1">  1       21 0.14100685E+00 0.18712347E+03</pdfrwt>
<pdfrwt beam="2">  1       21 0.59474146E-02 0.18712347E+03</pdfrwt>
<totfact> 0.70506966E+04</totfact>
</mgrwt>
</event>
<event>
 4    2  0.4063641E+000  0.2491355E+03  0.7546771E-02  0.1113852E+00
         21   -1    0    0  503  502  0.00000000000E+00  0.00000000000E+00  0.11714836299E+04  0.11714836299E+04  0.00000000000E+00 0. -1.
         21   -1    0    0  501  503 -0.00000000000E+00 -0.00000000000E+00 -0.53210272583E+02  0.53210272583E+02  0.00000000000E+00 0.  1.
          6    1    1    2  501    0 -0.58428750148E+02  0.16948615340E+03  0.51909883082E+03  0.57578821731E+03  0.17300000000E+03 0. -1.
         -6    1    1    2    0  502  0.58428750148E+02 -0.16948615340E+03  0.59917452648E+03  0.64890568515E+03  0.17300000000E+03 0.  1.
<mgrwt>
<rscale>  2 0.24913546E+03</rscale>
<asrwt>0</asrwt>
<pdfrwt beam="1">  1       21 0.18022823E+00 0.24913546E+03</pdfrwt>
<pdfrwt beam="2">  1       21 0.81861967E-02 0.24913546E+03</pdfrwt>
<totfact> 0.20144675E+04</totfact>
</mgrwt>
</event>
<event>
 4    2  0.4063641E+000  0.2018052E+03  0.7546771E-02  0.1148225E+00
         21   -1    0    0  501  502  0.00000000000E+00  0.00000000000E+00  0.12840325585E+03  0.12840325585E+03  0.00000000000E+00 0. -1.
         21   -1    0    0  502  503 -0.00000000000E+00 -0.00000000000E+00 -0.36843611835E+03  0.36843611835E+03  0.00000000000E+00 0. -1.
          6    1    1    2  501    0 -0.13427727968E+02 -0.10303407692E+03 -0.27348129282E+02  0.20364980987E+03  0.17300000000E+03 0. -1.
         -6    1    1    2    0  503  0.13427727968E+02  0.10303407692E+03 -0.21268473322E+03  0.29318956433E+03  0.17300000000E+03 0. -1.
<mgrwt>
<rscale>  2 0.20180517E+03</rscale>
<asrwt>0</asrwt>
<pdfrwt beam="1">  1       21 0.19754347E-01 0.20180517E+03</pdfrwt>
<pdfrwt beam="2">  1       21 0.56682479E-01 0.20180517E+03</pdfrwt>
<totfact> 0.68834382E+04</totfact>
</mgrwt>
</event>
<event>
 4    2  0.4063641E+000  0.1930866E+03  0.7546771E-02  0.1155707E+00
         21   -1    0    0  503  502  0.00000000000E+00  0.00000000000E+00  0.26565892349E+03  0.26565892349E+03  0.00000000000E+00 0.  1.
         21   -1    0    0  501  503 -0.00000000000E+00 -0.00000000000E+00 -0.24100208734E+03  0.24100208734E+03  0.00000000000E+00 0.  1.
          6    1    1    2  501    0  0.32594685524E+02 -0.79315954817E+02 -0.15139514330E+03  0.24536284076E+03  0.17300000000E+03 0.  1.
         -6    1    1    2    0  502 -0.32594685524E+02  0.79315954817E+02  0.17605197945E+03  0.26129817007E+03  0.17300000000E+03 0.  1.
<mgrwt>
<rscale>  2 0.19308660E+03</rscale>
<asrwt>0</asrwt>
<pdfrwt beam="1">  1       21 0.40870604E-01 0.19308660E+03</pdfrwt>
<pdfrwt beam="2">  1       21 0.37077244E-01 0.19308660E+03</pdfrwt>
<totfact> 0.40450967E+04</totfact>
</mgrwt>
</event>
<event>
 4    2  0.4063641E+000  0.1767818E+03  0.7546771E-02  0.1170954E+00
         21   -1    0    0  503  502  0.00000000000E+00  0.00000000000E+00  0.21505887852E+03  0.21505887852E+03  0.00000000000E+00 0.  1.
         21   -1    0    0  501  503 -0.00000000000E+00 -0.00000000000E+00 -0.25779708077E+03  0.25779708077E+03  0.00000000000E+00 0.  1.
          6    1    1    2  501    0 -0.23687493460E+02  0.27599299251E+02 -0.17753877996E+03  0.25054308423E+03  0.17300000000E+03 0.  1.
         -6    1    1    2    0  502  0.23687493460E+02 -0.27599299251E+02  0.13480057772E+03  0.22231287506E+03  0.17300000000E+03 0.  1.
<mgrwt>
<rscale>  2 0.17678184E+03</rscale>
<asrwt>0</asrwt>
<pdfrwt beam="1">  1       21 0.33085981E-01 0.17678184E+03</pdfrwt>
<pdfrwt beam="2">  1       21 0.39661089E-01 0.17678184E+03</pdfrwt>
<totfact> 0.54293547E+04</totfact>
</mgrwt>
</event>
<event>
 4    2  0.4063641E+000  0.2276926E+03  0.7546771E-02  0.1128274E+00
         21   -1    0    0  503  502  0.00000000000E+00  0.00000000000E+00  0.13030317796E+03  0.13030317796E+03  0.00000000000E+00 0.  1.
         21   -1    0    0  501  503 -0.00000000000E+00 -0.00000000000E+00 -0.40140968424E+03  0.40140968424E+03  0.00000000000E+00 0.  1.
          6    1    1    2  501    0 -0.99458492760E+02  0.10964917219E+03 -0.11059363850E+03  0.25313017525E+03  0.17300000000E+03 0.  1.
         -6    1    1    2    0  502  0.99458492760E+02 -0.10964917219E+03 -0.16051286778E+03  0.27858268695E+03  0.17300000000E+03 0.  1.
<mgrwt>
<rscale>  2 0.22769263E+03</rscale>
<asrwt>0</asrwt>
<pdfrwt beam="1">  1       21 0.20046643E-01 0.22769263E+03</pdfrwt>
<pdfrwt beam="2">  1       21 0.61755335E-01 0.22769263E+03</pdfrwt>
<totfact> 0.55076218E+04</totfact>
</mgrwt>
</event>
<event>
 4    2  0.4063641E+000  0.2139190E+03  0.7546771E-02  0.1138500E+00
         21   -1    0    0  503  502  0.00000000000E+00  0.00000000000E+00  0.48673142814E+03  0.48673142814E+03  0.00000000000E+00 0.  1.
         21   -1    0    0  501  503 -0.00000000000E+00 -0.00000000000E+00 -0.10642007589E+03  0.10642007589E+03  0.00000000000E+00 0.  1.
          6    1    1    2  501    0  0.80433723299E+02 -0.96761222356E+02  0.88909611414E+02  0.23165974402E+03  0.17300000000E+03 0.  1.
         -6    1    1    2    0  502 -0.80433723299E+02  0.96761222356E+02  0.29140174083E+03  0.36149176001E+03  0.17300000000E+03 0.  1.
<mgrwt>
<rscale>  2 0.21391895E+03</rscale>
<asrwt>0</asrwt>
<pdfrwt beam="1">  1       21 0.74881757E-01 0.21391895E+03</pdfrwt>
<pdfrwt beam="2">  1       21 0.16372320E-01 0.21391895E+03</pdfrwt>
<totfact> 0.52792850E+04</totfact>
</mgrwt>
</event>
<event>
 4    2  0.4063641E+000  0.1918108E+03  0.7546771E-02  0.1156838E+00
         21   -1    0    0  503  502  0.00000000000E+00  0.00000000000E+00  0.67112444885E+03  0.67112444885E+03  0.00000000000E+00 0. -1.
         21   -1    0    0  501  503 -0.00000000000E+00 -0.00000000000E+00 -0.69097807916E+02  0.69097807916E+02  0.00000000000E+00 0.  1.
          6    1    1    2  501    0 -0.10754276707E+02  0.82138501074E+02  0.13277576650E+03  0.23328264401E+03  0.17300000000E+03 0.  1.
         -6    1    1    2    0  502  0.10754276707E+02 -0.82138501074E+02  0.46925087443E+03  0.50693961276E+03  0.17300000000E+03 0. -1.
<mgrwt>
<rscale>  2 0.19181081E+03</rscale>
<asrwt>0</asrwt>
<pdfrwt beam="1">  1       21 0.10324991E+00 0.19181081E+03</pdfrwt>
<pdfrwt beam="2">  1       21 0.10630432E-01 0.19181081E+03</pdfrwt>
<totfact> 0.55417037E+04</totfact>
</mgrwt>
</event>
<event>
 4    2  0.4063641E+000  0.2591251E+03  0.7546771E-02  0.1107670E+00
         21   -1    0    0  501  502  0.00000000000E+00  0.00000000000E+00  0.12600583002E+04  0.12600583002E+04  0.00000000000E+00 0. -1.
         21   -1    0    0  502  503 -0.00000000000E+00 -0.00000000000E+00 -0.79648301617E+02  0.79648301617E+02  0.00000000000E+00 0.  1.
          6    1    1    2  501    0  0.17999571136E+03 -0.69414275647E+02  0.97556609199E+03  0.10093933810E+04  0.17300000000E+03 0. -1.
         -6    1    1    2    0  503 -0.17999571136E+03  0.69414275647E+02  0.20484390658E+03  0.33031322080E+03  0.17300000000E+03 0.  1.
<mgrwt>
<rscale>  2 0.25912506E+03</rscale>
<asrwt>0</asrwt>
<pdfrwt beam="1">  1       21 0.19385511E+00 0.25912506E+03</pdfrwt>
<pdfrwt beam="2">  1       21 0.12253586E-01 0.25912506E+03</pdfrwt>
<totfact> 0.79104118E+03</totfact>
</mgrwt>
</event>
<event>
 4    2  0.4063641E+000  0.2187825E+03  0.7546771E-02  0.1134794E+00
         21   -1    0    0  501  502  0.00000000000E+00  0.00000000000E+00  0.63742465093E+03  0.63742465093E+03  0.00000000000E+00 0. -1.
         21   -1    0    0  502  503 -0.00000000000E+00 -0.00000000000E+00 -0.96641834635E+02  0.96641834635E+02  0.00000000000E+00 0. -1.
          6    1    1    2  501    0  0.13065828126E+03  0.29414158160E+02  0.44370804273E+03  0.49471467165E+03  0.17300000000E+03 0. -1.
         -6    1    1    2    0  503 -0.13065828126E+03 -0.29414158160E+02  0.97074773569E+02  0.23935181392E+03  0.17300000000E+03 0. -1.
<mgrwt>
<rscale>  2 0.21878249E+03</rscale>
<asrwt>0</asrwt>
<pdfrwt beam="1">  1       21 0.98065328E-01 0.21878249E+03</pdfrwt>
<pdfrwt beam="2">  1       21 0.14867975E-01 0.21878249E+03</pdfrwt>
<totfact> 0.33791299E+04</totfact>
</mgrwt>
</event>
<event>
 4    2  0.4063641E+000  0.2392296E+03  0.7546771E-02  0.1120307E+00
         21   -1    0    0  503  502  0.00000000000E+00  0.00000000000E+00  0.88176184371E+03  0.88176184371E+03  0.00000000000E+00 0. -1.
         21   -1    0    0  501  503 -0.00000000000E+00 -0.00000000000E+00 -0.15109638360E+03  0.15109638360E+03  0.00000000000E+00 0.  1.
          6    1    1    2  501    0  0.23216411419E+02  0.16359346496E+03 -0.24712890301E+02  0.24050270369E+03  0.17300000000E+03 0.  1.
         -6    1    1    2    0  502 -0.23216411419E+02 -0.16359346496E+03  0.75537835041E+03  0.79235552362E+03  0.17300000000E+03 0. -1.
<mgrwt>
<rscale>  2 0.23922965E+03</rscale>
<asrwt>0</asrwt>
<pdfrwt beam="1">  1       21 0.13565567E+00 0.23922965E+03</pdfrwt>
<pdfrwt beam="2">  1       21 0.23245598E-01 0.23922965E+03</pdfrwt>
<totfact> 0.65236811E+03</totfact>
</mgrwt>
</event>
<event>
 4    2  0.4063641E+000  0.2231469E+03  0.7546771E-02  0.1131558E+00
         21   -1    0    0  501  502  0.00000000000E+00  0.00000000000E+00  0.66563374454E+02  0.66563374454E+02  0.00000000000E+00 0. -1.
         21   -1    0    0  502  503 -0.00000000000E+00 -0.00000000000E+00 -0.91694086787E+03  0.91694086787E+03  0.00000000000E+00 0.  1.
          6    1    1    2  501    0  0.54772911275E+02  0.12986708109E+03 -0.21415888107E+03  0.30928717545E+03  0.17300000000E+03 0. -1.
         -6    1    1    2    0  503 -0.54772911275E+02 -0.12986708109E+03 -0.63621861235E+03  0.67421706687E+03  0.17300000000E+03 0.  1.
<mgrwt>
<rscale>  2 0.22314688E+03</rscale>
<asrwt>0</asrwt>
<pdfrwt beam="1">  1       21 0.10240519E-01 0.22314688E+03</pdfrwt>
<pdfrwt beam="2">  1       21 0.14106782E+00 0.22314688E+03</pdfrwt>
<totfact> 0.26800209E+04</totfact>
</mgrwt>
</event>
<event>
 4    2  0.4063641E+000  0.2470673E+03  0.7546771E-02  0.1115172E+00
         21   -1    0    0  501  502  0.00000000000E+00  0.00000000000E+00  0.12383734897E+04  0.12383734897E+04  0.00000000000E+00 0. -1.
         21   -1    0    0  502  503 -0.00000000000E+00 -0.00000000000E+00 -0.55831872173E+02  0.55831872173E+02  0.00000000000E+00 0. -1.
          6    1    1    2  501    0 -0.15295358757E+02  0.17572512418E+03  0.36980481562E+03  0.44474472333E+03  0.17300000000E+03 0. -1.
         -6    1    1    2    0  503  0.15295358757E+02 -0.17572512418E+03  0.81273680190E+03  0.84946063854E+03  0.17300000000E+03 0. -1.
<mgrwt>
<rscale>  2 0.24706733E+03</rscale>
<asrwt>0</asrwt>
<pdfrwt beam="1">  1       21 0.19051898E+00 0.24706733E+03</pdfrwt>
<pdfrwt beam="2">  1       21 0.85895197E-02 0.24706733E+03</pdfrwt>
<totfact> 0.15791919E+04</totfact>
</mgrwt>
</event>
<event>
 4    2  0.4063641E+000  0.1779185E+03  0.7546771E-02  0.1169833E+00
         21   -1    0    0  503  502  0.00000000000E+00  0.00000000000E+00  0.23247050233E+03  0.23247050233E+03  0.00000000000E+00 0.  1.
         21   -1    0    0  501  503 -0.00000000000E+00 -0.00000000000E+00 -0.13964108832E+03  0.13964108832E+03  0.00000000000E+00 0.  1.
          6    1    1    2  501    0  0.29951448814E+02  0.28790497312E+02  0.75758145231E+02  0.19337600314E+03  0.17300000000E+03 0.  1.
         -6    1    1    2    0  502 -0.29951448814E+02 -0.28790497312E+02  0.17071268779E+02  0.17873558750E+03  0.17300000000E+03 0.  1.
<mgrwt>
<rscale>  2 0.17791847E+03</rscale>
<asrwt>0</asrwt>
<pdfrwt beam="1">  1       21 0.35764693E-01 0.17791847E+03</pdfrwt>
<pdfrwt beam="2">  1       21 0.21483244E-01 0.17791847E+03</pdfrwt>
<totfact> 0.15289550E+05</totfact>
</mgrwt>
</event>
<event>
 4    2  0.4063641E+000  0.2408163E+03  0.7546771E-02  0.1119250E+00
         21   -1    0    0  501  502  0.00000000000E+00  0.00000000000E+00  0.76515963649E+02  0.76515963649E+02  0.00000000000E+00 0.  1.
         21   -1    0    0  502  503 -0.00000000000E+00 -0.00000000000E+00 -0.92946896502E+03  0.92946896502E+03  0.00000000000E+00 0. -1.
          6    1    1    2  501    0 -0.10092358953E+03  0.13370833653E+03 -0.21038077720E+03  0.31976954451E+03  0.17300000000E+03 0.  1.
         -6    1    1    2    0  503  0.10092358953E+03 -0.13370833653E+03 -0.64257222417E+03  0.68621538416E+03  0.17300000000E+03 0. -1.
<mgrwt>
<rscale>  2 0.24081630E+03</rscale>
<asrwt>0</asrwt>
<pdfrwt beam="1">  1       21 0.11771686E-01 0.24081630E+03</pdfrwt>
<pdfrwt beam="2">  1       21 0.14299523E+00 0.24081630E+03</pdfrwt>
<totfact> 0.19970585E+04</totfact>
</mgrwt>
</event>
<event>
 4    2  0.4063641E+000  0.1875169E+03  0.7546771E-02  0.1160720E+00
         21   -1    0    0  501  502  0.00000000000E+00  0.00000000000E+00  0.39080352343E+02  0.39080352343E+02  0.00000000000E+00 0. -1.
         21   -1    0    0  502  503 -0.00000000000E+00 -0.00000000000E+00 -0.90555123586E+03  0.90555123586E+03  0.00000000000E+00 0. -1.
          6    1    1    2  501    0  0.23471238786E+02  0.68430105658E+02 -0.39543419287E+03  0.43764229606E+03  0.17300000000E+03 0. -1.
         -6    1    1    2    0  503 -0.23471238786E+02 -0.68430105658E+02 -0.47103669065E+03  0.50698929214E+03  0.17300000000E+03 0. -1.
<mgrwt>
<rscale>  2 0.18751688E+03</rscale>
<asrwt>0</asrwt>
<pdfrwt beam="1">  1       21 0.60123622E-02 0.18751688E+03</pdfrwt>
<pdfrwt beam="2">  1       21 0.13931557E+00 0.18751688E+03</pdfrwt>
<totfact> 0.71386207E+04</totfact>
</mgrwt>
</event>
<event>
 4    2  0.4063641E+000  0.2720529E+03  0.7546771E-02  0.1100110E+00
         21   -1    0    0  501  502  0.00000000000E+00  0.00000000000E+00  0.28795912854E+03  0.28795912854E+03  0.00000000000E+00 0. -1.
         21   -1    0    0  502  503 -0.00000000000E+00 -0.00000000000E+00 -0.76565487555E+03  0.76565487555E+03  0.00000000000E+00 0. -1.
          6    1    1    2  501    0 -0.37804059958E+02  0.20653003525E+03  0.19052616933E+03  0.33213404464E+03  0.17300000000E+03 0. -1.
         -6    1    1    2    0  503  0.37804059958E+02 -0.20653003525E+03 -0.66822191633E+03  0.72147995945E+03  0.17300000000E+03 0. -1.
<mgrwt>
<rscale>  2 0.27205294E+03</rscale>
<asrwt>0</asrwt>
<pdfrwt beam="1">  1       21 0.44301405E-01 0.27205294E+03</pdfrwt>
<pdfrwt beam="2">  1       21 0.11779306E+00 0.27205294E+03</pdfrwt>
<totfact> 0.25464024E+03</totfact>
</mgrwt>
</event>
<event>
 4    2  0.4063641E+000  0.2169895E+03  0.7546771E-02  0.1136148E+00
         21   -1    0    0  503  502  0.00000000000E+00  0.00000000000E+00  0.16653825680E+03  0.16653825680E+03  0.00000000000E+00 0. -1.
         21   -1    0    0  501  503 -0.00000000000E+00 -0.00000000000E+00 -0.30664138290E+03  0.30664138290E+03  0.00000000000E+00 0.  1.
          6    1    1    2  501    0  0.35257678489E+02 -0.12614413660E+03 -0.39772180527E+01  0.21702595549E+03  0.17300000000E+03 0. -1.
         -6    1    1    2    0  502 -0.35257678489E+02  0.12614413660E+03 -0.13612590805E+03  0.25615368421E+03  0.17300000000E+03 0.  1.
<mgrwt>
<rscale>  2 0.21698951E+03</rscale>
<asrwt>0</asrwt>
<pdfrwt beam="1">  1       21 0.25621270E-01 0.21698951E+03</pdfrwt>
<pdfrwt beam="2">  1       21 0.47175598E-01 0.21698951E+03</pdfrwt>
<totfact> 0.61455415E+04</totfact>
</mgrwt>
</event>
<event>
 4    2  0.4063641E+000  0.2180257E+03  0.7546771E-02  0.1135364E+00
         21   -1    0    0  503  502  0.00000000000E+00  0.00000000000E+00  0.50577461910E+03  0.50577461910E+03  0.00000000000E+00 0.  1.
         21   -1    0    0  501  503 -0.00000000000E+00 -0.00000000000E+00 -0.14948752649E+03  0.14948752649E+03  0.00000000000E+00 0.  1.
          6    1    1    2  501    0 -0.13263385734E+03  0.38059631727E+01 -0.21492517627E+02  0.21908252734E+03  0.17300000000E+03 0.  1.
         -6    1    1    2    0  502  0.13263385734E+03 -0.38059631727E+01  0.37777961024E+03  0.43617961826E+03  0.17300000000E+03 0.  1.
<mgrwt>
<rscale>  2 0.21802574E+03</rscale>
<asrwt>0</asrwt>
<pdfrwt beam="1">  1       21 0.77811479E-01 0.21802574E+03</pdfrwt>
<pdfrwt beam="2">  1       21 0.22998081E-01 0.21802574E+03</pdfrwt>
<totfact> 0.25620822E+04</totfact>
</mgrwt>
</event>
<event>
 4    2  0.4063641E+000  0.2926018E+03  0.7546771E-02  0.1088998E+00
         21   -1    0    0  501  502  0.00000000000E+00  0.00000000000E+00  0.68953066840E+03  0.68953066840E+03  0.00000000000E+00 0. -1.
         21   -1    0    0  502  503 -0.00000000000E+00 -0.00000000000E+00 -0.15808389808E+03  0.15808389808E+03  0.00000000000E+00 0.  1.
          6    1    1    2  501    0  0.23338179807E+03  0.34925274255E+02  0.46203365645E+03  0.54689207176E+03  0.17300000000E+03 0. -1.
         -6    1    1    2    0  503 -0.23338179807E+03 -0.34925274255E+02  0.69413113863E+02  0.30072249472E+03  0.17300000000E+03 0. -1.
<mgrwt>
<rscale>  2 0.29260184E+03</rscale>
<asrwt>0</asrwt>
<pdfrwt beam="1">  1       21 0.10608164E+00 0.29260184E+03</pdfrwt>
<pdfrwt beam="2">  1       21 0.24320600E-01 0.29260184E+03</pdfrwt>
<totfact> 0.10737090E+04</totfact>
</mgrwt>
</event>
<event>
 4    2  0.4063641E+000  0.2018855E+03  0.7546771E-02  0.1148158E+00
         21   -1    0    0  501  502  0.00000000000E+00  0.00000000000E+00  0.41432953000E+03  0.41432953000E+03  0.00000000000E+00 0.  1.
         21   -1    0    0  502  503 -0.00000000000E+00 -0.00000000000E+00 -0.14924504331E+03  0.14924504331E+03  0.00000000000E+00 0. -1.
          6    1    1    2  501    0  0.54499842212E+01 -0.10391857960E+03 -0.31979007569E+02  0.20440261848E+03  0.17300000000E+03 0. -1.
         -6    1    1    2    0  503 -0.54499842212E+01  0.10391857960E+03  0.29706349427E+03  0.35917195484E+03  0.17300000000E+03 0.  1.
<mgrwt>
<rscale>  2 0.20188555E+03</rscale>
<asrwt>0</asrwt>
<pdfrwt beam="1">  1       21 0.63743004E-01 0.20188555E+03</pdfrwt>
<pdfrwt beam="2">  1       21 0.22960776E-01 0.20188555E+03</pdfrwt>
<totfact> 0.40296315E+04</totfact>
</mgrwt>
</event>
<event>
 4    2  0.4063641E+000  0.3239147E+03  0.7546771E-02  0.1073862E+00
         21   -1    0    0  503  502  0.00000000000E+00  0.00000000000E+00  0.40413362220E+03  0.40413362220E+03  0.00000000000E+00 0.  1.
         21   -1    0    0  501  503 -0.00000000000E+00 -0.00000000000E+00 -0.29916159837E+03  0.29916159837E+03  0.00000000000E+00 0. -1.
          6    1    1    2  501    0  0.15353329643E+03 -0.22675818111E+03 -0.75360132696E+02  0.33256562572E+03  0.17300000000E+03 0. -1.
         -6    1    1    2    0  502 -0.15353329643E+03  0.22675818111E+03  0.18033215653E+03  0.37072959484E+03  0.17300000000E+03 0.  1.
<mgrwt>
<rscale>  2 0.32391472E+03</rscale>
<asrwt>0</asrwt>
<pdfrwt beam="1">  1       21 0.62174404E-01 0.32391472E+03</pdfrwt>
<pdfrwt beam="2">  1       21 0.46024861E-01 0.32391472E+03</pdfrwt>
<totfact> 0.10118830E+04</totfact>
</mgrwt>
</event>
<event>
 4    2  0.4063641E+000  0.1777643E+03  0.7546771E-02  0.1169984E+00
         21   -1    0    0  501  502  0.00000000000E+00  0.00000000000E+00  0.58291083054E+02  0.58291083054E+02  0.00000000000E+00 0. -1.
         21   -1    0    0  502  503 -0.00000000000E+00 -0.00000000000E+00 -0.12857014931E+04  0.12857014931E+04  0.00000000000E+00 0. -1.
          6    1    1    2  501    0 -0.33598911151E+02  0.23286453619E+02 -0.10265428663E+03  0.20527554242E+03  0.17300000000E+03 0. -1.
         -6    1    1    2    0  503  0.33598911151E+02 -0.23286453619E+02 -0.11247561234E+04  0.11387170337E+04  0.17300000000E+03 0. -1.
<mgrwt>
<rscale>  2 0.17776430E+03</rscale>
<asrwt>0</asrwt>
<pdfrwt beam="1">  1       21 0.89678594E-02 0.17776430E+03</pdfrwt>
<pdfrwt beam="2">  1       21 0.19780022E+00 0.17776430E+03</pdfrwt>
<totfact> 0.13802918E+04</totfact>
</mgrwt>
</event>
<event>
 4    2  0.4063641E+000  0.1986379E+03  0.7546771E-02  0.1150893E+00
         21   -1    0    0  503  502  0.00000000000E+00  0.00000000000E+00  0.11709982824E+04  0.11709982824E+04  0.00000000000E+00 0.  1.
         21   -1    0    0  501  503 -0.00000000000E+00 -0.00000000000E+00 -0.46998902330E+02  0.46998902330E+02  0.00000000000E+00 0.  1.
          6    1    1    2  501    0  0.36860508423E+02 -0.90384300376E+02  0.23798945774E+03  0.30999354966E+03  0.17300000000E+03 0.  1.
         -6    1    1    2    0  502 -0.36860508423E+02  0.90384300376E+02  0.88600992235E+03  0.90800363509E+03  0.17300000000E+03 0.  1.
<mgrwt>
<rscale>  2 0.19863791E+03</rscale>
<asrwt>0</asrwt>
<pdfrwt beam="1">  1       21 0.18015356E+00 0.19863791E+03</pdfrwt>
<pdfrwt beam="2">  1       21 0.72306012E-02 0.19863791E+03</pdfrwt>
<totfact> 0.25854337E+04</totfact>
</mgrwt>
</event>
<event>
 4    2  0.4063641E+000  0.1945319E+03  0.7546771E-02  0.1154436E+00
         21   -1    0    0  501  502  0.00000000000E+00  0.00000000000E+00  0.43159972606E+03  0.43159972606E+03  0.00000000000E+00 0.  1.
         21   -1    0    0  502  503 -0.00000000000E+00 -0.00000000000E+00 -0.10379442900E+03  0.10379442900E+03  0.00000000000E+00 0.  1.
          6    1    1    2  501    0  0.88946273627E+02 -0.14943177008E+01  0.26938111332E+03  0.33227828216E+03  0.17300000000E+03 0.  1.
         -6    1    1    2    0  503 -0.88946273627E+02  0.14943177008E+01  0.58424183742E+02  0.20311587290E+03  0.17300000000E+03 0.  1.
<mgrwt>
<rscale>  2 0.19453193E+03</rscale>
<asrwt>0</asrwt>
<pdfrwt beam="1">  1       21 0.66399957E-01 0.19453193E+03</pdfrwt>
<pdfrwt beam="2">  1       21 0.15968374E-01 0.19453193E+03</pdfrwt>
<totfact> 0.72750356E+04</totfact>
</mgrwt>
</event>
<event>
 4    2  0.4063641E+000  0.1902241E+03  0.7546771E-02  0.1158259E+00
         21   -1    0    0  503  502  0.00000000000E+00  0.00000000000E+00  0.56037465836E+03  0.56037465836E+03  0.00000000000E+00 0. -1.
         21   -1    0    0  501  503 -0.00000000000E+00 -0.00000000000E+00 -0.64576155056E+02  0.64576155056E+02  0.00000000000E+00 0.  1.
          6    1    1    2  501    0  0.52554650361E+02 -0.59111976258E+02  0.24580606040E+03  0.31081479428E+03  0.17300000000E+03 0.  1.
         -6    1    1    2    0  502 -0.52554650361E+02  0.59111976258E+02  0.24999244290E+03  0.31413601914E+03  0.17300000000E+03 0.  1.
<mgrwt>
<rscale>  2 0.19022412E+03</rscale>
<asrwt>0</asrwt>
<pdfrwt beam="1">  1       21 0.86211482E-01 0.19022412E+03</pdfrwt>
<pdfrwt beam="2">  1       21 0.99347935E-02 0.19022412E+03</pdfrwt>
<totfact> 0.95320254E+04</totfact>
</mgrwt>
</event>
<event>
 4    2  0.4063641E+000  0.2202654E+03  0.7546771E-02  0.1133685E+00
         21   -1    0    0  501  502  0.00000000000E+00  0.00000000000E+00  0.52106797643E+03  0.52106797643E+03  0.00000000000E+00 0.  1.
         21   -1    0    0  502  503 -0.00000000000E+00 -0.00000000000E+00 -0.10002708886E+03  0.10002708886E+03  0.00000000000E+00 0.  1.
          6    1    1    2  501    0  0.10288267043E+03 -0.89459409532E+02  0.29218234106E+03  0.36590620418E+03  0.17300000000E+03 0.  1.
         -6    1    1    2    0  503 -0.10288267043E+03  0.89459409532E+02  0.12885854651E+03  0.25518886111E+03  0.17300000000E+03 0.  1.
<mgrwt>
<rscale>  2 0.22026536E+03</rscale>
<asrwt>0</asrwt>
<pdfrwt beam="1">  1       21 0.80164303E-01 0.22026536E+03</pdfrwt>
<pdfrwt beam="2">  1       21 0.15388783E-01 0.22026536E+03</pdfrwt>
<totfact> 0.50575643E+04</totfact>
</mgrwt>
</event>
<event>
 4    2  0.4063641E+000  0.2964496E+03  0.7546771E-02  0.1087029E+00
         21   -1    0    0  503  502  0.00000000000E+00  0.00000000000E+00  0.17592022933E+03  0.17592022933E+03  0.00000000000E+00 0. -1.
         21   -1    0    0  501  503 -0.00000000000E+00 -0.00000000000E+00 -0.57350037272E+03  0.57350037272E+03  0.00000000000E+00 0.  1.
          6    1    1    2  501    0  0.22345171633E+03  0.89569569414E+02 -0.33333742153E+03  0.44608991682E+03  0.17300000000E+03 0.  1.
         -6    1    1    2    0  502 -0.22345171633E+03 -0.89569569414E+02 -0.64242721852E+02  0.30333068523E+03  0.17300000000E+03 0. -1.
<mgrwt>
<rscale>  2 0.29644962E+03</rscale>
<asrwt>0</asrwt>
<pdfrwt beam="1">  1       21 0.27064651E-01 0.29644962E+03</pdfrwt>
<pdfrwt beam="2">  1       21 0.88230827E-01 0.29644962E+03</pdfrwt>
<totfact> 0.13522317E+04</totfact>
</mgrwt>
</event>
<event>
 4    2  0.4063641E+000  0.2572682E+03  0.7546771E-02  0.1108796E+00
         21   -1    0    0  501  502  0.00000000000E+00  0.00000000000E+00  0.20365000690E+03  0.20365000690E+03  0.00000000000E+00 0. -1.
         21   -1    0    0  502  503 -0.00000000000E+00 -0.00000000000E+00 -0.63262648968E+03  0.63262648968E+03  0.00000000000E+00 0.  1.
          6    1    1    2  501    0 -0.16606386977E+03 -0.93170389525E+02  0.77090410433E+02  0.26857003129E+03  0.17300000000E+03 0. -1.
         -6    1    1    2    0  503  0.16606386977E+03  0.93170389525E+02 -0.50606689322E+03  0.56770646529E+03  0.17300000000E+03 0.  1.
<mgrwt>
<rscale>  2 0.25726821E+03</rscale>
<asrwt>0</asrwt>
<pdfrwt beam="1">  1       21 0.31330771E-01 0.25726821E+03</pdfrwt>
<pdfrwt beam="2">  1       21 0.97327151E-01 0.25726821E+03</pdfrwt>
<totfact> 0.82170168E+03</totfact>
</mgrwt>
</event>
<event>
 4    2  0.4063641E+000  0.2164829E+03  0.7546771E-02  0.1136533E+00
         21   -1    0    0  501  502  0.00000000000E+00  0.00000000000E+00  0.73655581583E+02  0.73655581583E+02  0.00000000000E+00 0. -1.
         21   -1    0    0  502  503 -0.00000000000E+00 -0.00000000000E+00 -0.82124513086E+03  0.82124513086E+03  0.00000000000E+00 0.  1.
          6    1    1    2  501    0 -0.76047804828E+02 -0.10560577706E+03 -0.16143857883E+03  0.27005048325E+03  0.17300000000E+03 0. -1.
         -6    1    1    2    0  503  0.76047804828E+02  0.10560577706E+03 -0.58615097044E+03  0.62485022919E+03  0.17300000000E+03 0.  1.
<mgrwt>
<rscale>  2 0.21648291E+03</rscale>
<asrwt>0</asrwt>
<pdfrwt beam="1">  1       21 0.11331627E-01 0.21648291E+03</pdfrwt>
<pdfrwt beam="2">  1       21 0.12634541E+00 0.21648291E+03</pdfrwt>
<totfact> 0.29770439E+04</totfact>
</mgrwt>
</event>
<event>
 4    2  0.4063641E+000  0.1781314E+03  0.7546771E-02  0.1169624E+00
         21   -1    0    0  503  502  0.00000000000E+00  0.00000000000E+00  0.47210102453E+02  0.47210102453E+02  0.00000000000E+00 0.  1.
         21   -1    0    0  501  503 -0.00000000000E+00 -0.00000000000E+00 -0.98219289866E+03  0.98219289866E+03  0.00000000000E+00 0. -1.
          6    1    1    2  501    0 -0.12982989940E+02  0.40413280519E+02 -0.75668579580E+03  0.77737004370E+03  0.17300000000E+03 0. -1.
         -6    1    1    2    0  502  0.12982989940E+02 -0.40413280519E+02 -0.17829700041E+03  0.25203295742E+03  0.17300000000E+03 0.  1.
<mgrwt>
<rscale>  2 0.17813139E+03</rscale>
<asrwt>0</asrwt>
<pdfrwt beam="1">  1       21 0.72630934E-02 0.17813139E+03</pdfrwt>
<pdfrwt beam="2">  1       21 0.15110659E+00 0.17813139E+03</pdfrwt>
<totfact> 0.41962627E+04</totfact>
</mgrwt>
</event>
<event>
 4    2  0.4063641E+000  0.2499026E+03  0.7546771E-02  0.1113366E+00
         21   -1    0    0  503  502  0.00000000000E+00  0.00000000000E+00  0.87941499182E+03  0.87941499182E+03  0.00000000000E+00 0.  1.
         21   -1    0    0  501  503 -0.00000000000E+00 -0.00000000000E+00 -0.72656124356E+02  0.72656124356E+02  0.00000000000E+00 0. -1.
          6    1    1    2  501    0  0.15864978509E+03  0.85746959351E+02  0.33182637086E+03  0.41540346141E+03  0.17300000000E+03 0. -1.
         -6    1    1    2    0  502 -0.15864978509E+03 -0.85746959351E+02  0.47493249660E+03  0.53666765477E+03  0.17300000000E+03 0.  1.
<mgrwt>
<rscale>  2 0.24990257E+03</rscale>
<asrwt>0</asrwt>
<pdfrwt beam="1">  1       21 0.13529461E+00 0.24990257E+03</pdfrwt>
<pdfrwt beam="2">  1       21 0.11177866E-01 0.24990257E+03</pdfrwt>
<totfact> 0.25184386E+04</totfact>
</mgrwt>
</event>
<event>
 4    2  0.4063641E+000  0.2401787E+03  0.7546771E-02  0.1119674E+00
         21   -1    0    0  501  502  0.00000000000E+00  0.00000000000E+00  0.84201123710E+03  0.84201123710E+03  0.00000000000E+00 0. -1.
         21   -1    0    0  502  503 -0.00000000000E+00 -0.00000000000E+00 -0.10363102546E+03  0.10363102546E+03  0.00000000000E+00 0. -1.
          6    1    1    2  501    0  0.11852700594E+03  0.11708190822E+03  0.64444703317E+03  0.68774835727E+03  0.17300000000E+03 0. -1.
         -6    1    1    2    0  503 -0.11852700594E+03 -0.11708190822E+03  0.93933178468E+02  0.25789390529E+03  0.17300000000E+03 0. -1.
<mgrwt>
<rscale>  2 0.24017873E+03</rscale>
<asrwt>0</asrwt>
<pdfrwt beam="1">  1       21 0.12954019E+00 0.24017873E+03</pdfrwt>
<pdfrwt beam="2">  1       21 0.15943235E-01 0.24017873E+03</pdfrwt>
<totfact> 0.14852435E+04</totfact>
</mgrwt>
</event>
<event>
 4    2  0.4063641E+000  0.2059926E+03  0.7546771E-02  0.1144779E+00
         21   -1    0    0  503  502  0.00000000000E+00  0.00000000000E+00  0.66890964239E+03  0.66890964239E+03  0.00000000000E+00 0. -1.
         21   -1    0    0  501  503 -0.00000000000E+00 -0.00000000000E+00 -0.64361792854E+02  0.64361792854E+02  0.00000000000E+00 0.  1.
          6    1    1    2  501    0 -0.60369808101E+01 -0.11165805862E+03  0.34624552957E+03  0.40288824001E+03  0.17300000000E+03 0. -1.
         -6    1    1    2    0  502  0.60369808101E+01  0.11165805862E+03  0.25830231997E+03  0.33038319523E+03  0.17300000000E+03 0. -1.
<mgrwt>
<rscale>  2 0.20599264E+03</rscale>
<asrwt>0</asrwt>
<pdfrwt beam="1">  1       21 0.10290917E+00 0.20599264E+03</pdfrwt>
<pdfrwt beam="2">  1       21 0.99018147E-02 0.20599264E+03</pdfrwt>
<totfact> 0.62896584E+04</totfact>
</mgrwt>
</event>
<event>
 4    2  0.4063641E+000  0.1940923E+03  0.7546771E-02  0.1154821E+00
         21   -1    0    0  503  502  0.00000000000E+00  0.00000000000E+00  0.17144096370E+03  0.17144096370E+03  0.00000000000E+00 0. -1.
         21   -1    0    0  501  503 -0.00000000000E+00 -0.00000000000E+00 -0.33542698697E+03  0.33542698697E+03  0.00000000000E+00 0. -1.
          6    1    1    2  501    0  0.34279453461E+02  0.81041506681E+02 -0.23083141234E+03  0.30158737981E+03  0.17300000000E+03 0. -1.
         -6    1    1    2    0  502 -0.34279453461E+02 -0.81041506681E+02  0.66845389077E+02  0.20528057087E+03  0.17300000000E+03 0. -1.
<mgrwt>
<rscale>  2 0.19409226E+03</rscale>
<asrwt>0</asrwt>
<pdfrwt beam="1">  1       21 0.26375533E-01 0.19409226E+03</pdfrwt>
<pdfrwt beam="2">  1       21 0.51604151E-01 0.19409226E+03</pdfrwt>
<totfact> 0.48732015E+04</totfact>
</mgrwt>
</event>
<event>
 4    2  0.4063641E+000  0.2234716E+03  0.7546771E-02  0.1131321E+00
         21   -1    0    0  501  502  0.00000000000E+00  0.00000000000E+00  0.20859198725E+04  0.20859198725E+04  0.00000000000E+00 0. -1.
         21   -1    0    0  502  503 -0.00000000000E+00 -0.00000000000E+00 -0.81713877141E+02  0.81713877141E+02  0.00000000000E+00 0.  1.
          6    1    1    2  501    0 -0.68245873610E+02  0.12390740718E+03  0.19134190711E+04  0.19264246901E+04  0.17300000000E+03 0. -1.
         -6    1    1    2    0  503  0.68245873610E+02 -0.12390740718E+03  0.90786924293E+02  0.24120905962E+03  0.17300000000E+03 0.  1.
<mgrwt>
<rscale>  2 0.22347157E+03</rscale>
<asrwt>0</asrwt>
<pdfrwt beam="1">  1       21 0.32091071E+00 0.22347157E+03</pdfrwt>
<pdfrwt beam="2">  1       21 0.12571367E-01 0.22347157E+03</pdfrwt>
<totfact> 0.13421368E+03</totfact>
</mgrwt>
</event>
<event>
 4    2  0.4063641E+000  0.2005751E+03  0.7546771E-02  0.1149255E+00
         21   -1    0    0  503  502  0.00000000000E+00  0.00000000000E+00  0.40558723670E+03  0.40558723670E+03  0.00000000000E+00 0.  1.
         21   -1    0    0  501  503 -0.00000000000E+00 -0.00000000000E+00 -0.77248014325E+03  0.77248014325E+03  0.00000000000E+00 0. -1.
          6    1    1    2  501    0 -0.41998059585E+02  0.92398818254E+02 -0.73336384823E+03  0.76029791037E+03  0.17300000000E+03 0. -1.
         -6    1    1    2    0  502  0.41998059585E+02 -0.92398818254E+02  0.36647094168E+03  0.41776946959E+03  0.17300000000E+03 0.  1.
<mgrwt>
<rscale>  2 0.20057512E+03</rscale>
<asrwt>0</asrwt>
<pdfrwt beam="1">  1       21 0.62398037E-01 0.20057512E+03</pdfrwt>
<pdfrwt beam="2">  1       21 0.11884310E+00 0.20057512E+03</pdfrwt>
<totfact> 0.12782370E+03</totfact>
</mgrwt>
</event>
<event>
 4    2  0.4063641E+000  0.1757719E+03  0.7546771E-02  0.1171959E+00
         21   -1    0    0  501  502  0.00000000000E+00  0.00000000000E+00  0.10521537946E+04  0.10521537946E+04  0.00000000000E+00 0.  1.
         21   -1    0    0  502  503 -0.00000000000E+00 -0.00000000000E+00 -0.29883832209E+02  0.29883832209E+02  0.00000000000E+00 0.  1.
          6    1    1    2  501    0 -0.31084648723E+02  0.71775655506E+00  0.58246890856E+03  0.60841252452E+03  0.17300000000E+03 0. -1.
         -6    1    1    2    0  503  0.31084648723E+02 -0.71775655506E+00  0.43980105383E+03  0.47362510228E+03  0.17300000000E+03 0. -1.
<mgrwt>
<rscale>  2 0.17577193E+03</rscale>
<asrwt>0</asrwt>
<pdfrwt beam="1">  1       21 0.16186979E+00 0.17577193E+03</pdfrwt>
<pdfrwt beam="2">  1       21 0.45975135E-02 0.17577193E+03</pdfrwt>
<totfact> 0.76306358E+04</totfact>
</mgrwt>
</event>
<event>
 4    2  0.4063641E+000  0.1877405E+03  0.7546771E-02  0.1160515E+00
         21   -1    0    0  501  502  0.00000000000E+00  0.00000000000E+00  0.48524295802E+03  0.48524295802E+03  0.00000000000E+00 0. -1.
         21   -1    0    0  502  503 -0.00000000000E+00 -0.00000000000E+00 -0.72936633978E+02  0.72936633978E+02  0.00000000000E+00 0. -1.
          6    1    1    2  501    0 -0.36181373220E+01  0.72831291058E+02  0.22404781134E+03  0.29230790212E+03  0.17300000000E+03 0.  1.
         -6    1    1    2    0  503  0.36181373220E+01 -0.72831291058E+02  0.18825851270E+03  0.26587168988E+03  0.17300000000E+03 0.  1.
<mgrwt>
<rscale>  2 0.18774048E+03</rscale>
<asrwt>0</asrwt>
<pdfrwt beam="1">  1       21 0.74652761E-01 0.18774048E+03</pdfrwt>
<pdfrwt beam="2">  1       21 0.11221021E-01 0.18774048E+03</pdfrwt>
<totfact> 0.10646796E+05</totfact>
</mgrwt>
</event>
<event>
 4    2  0.4063641E+000  0.1908124E+03  0.7546771E-02  0.1157731E+00
         21   -1    0    0  503  502  0.00000000000E+00  0.00000000000E+00  0.33117887863E+03  0.33117887863E+03  0.00000000000E+00 0.  1.
         21   -1    0    0  501  503 -0.00000000000E+00 -0.00000000000E+00 -0.12075688517E+03  0.12075688517E+03  0.00000000000E+00 0.  1.
          6    1    1    2  501    0 -0.60324673433E+02 -0.53303965813E+02  0.37576579822E+02  0.19447719236E+03  0.17300000000E+03 0.  1.
         -6    1    1    2    0  502  0.60324673433E+02  0.53303965813E+02  0.17284541364E+03  0.25745857145E+03  0.17300000000E+03 0.  1.
<mgrwt>
<rscale>  2 0.19081242E+03</rscale>
<asrwt>0</asrwt>
<pdfrwt beam="1">  1       21 0.50950596E-01 0.19081242E+03</pdfrwt>
<pdfrwt beam="2">  1       21 0.18577983E-01 0.19081242E+03</pdfrwt>
<totfact> 0.97080679E+04</totfact>
</mgrwt>
</event>
<event>
 4    2  0.4063641E+000  0.1759026E+03  0.7546771E-02  0.1171828E+00
         21   -1    0    0  503  502  0.00000000000E+00  0.00000000000E+00  0.18746892195E+03  0.18746892195E+03  0.00000000000E+00 0.  1.
         21   -1    0    0  501  503 -0.00000000000E+00 -0.00000000000E+00 -0.18781240605E+03  0.18781240605E+03  0.00000000000E+00 0.  1.
          6    1    1    2  501    0  0.35509521441E+01 -0.31624523680E+02 -0.65496110459E+02  0.18770045350E+03  0.17300000000E+03 0. -1.
         -6    1    1    2    0  502 -0.35509521441E+01  0.31624523680E+02  0.65152626356E+02  0.18758087451E+03  0.17300000000E+03 0. -1.
<mgrwt>
<rscale>  2 0.17590259E+03</rscale>
<asrwt>0</asrwt>
<pdfrwt beam="1">  1       21 0.28841373E-01 0.17590259E+03</pdfrwt>
<pdfrwt beam="2">  1       21 0.28894216E-01 0.17590259E+03</pdfrwt>
<totfact> 0.13263544E+05</totfact>
</mgrwt>
</event>
<event>
 4    2  0.4063641E+000  0.2450631E+03  0.7546771E-02  0.1116465E+00
         21   -1    0    0  503  502  0.00000000000E+00  0.00000000000E+00  0.29080753601E+04  0.29080753601E+04  0.00000000000E+00 0.  1.
         21   -1    0    0  501  503 -0.00000000000E+00 -0.00000000000E+00 -0.46839896148E+02  0.46839896148E+02  0.00000000000E+00 0. -1.
          6    1    1    2  501    0 -0.11956267686E+03  0.12582404350E+03  0.32587264491E+03  0.40773631715E+03  0.17300000000E+03 0. -1.
         -6    1    1    2    0  502  0.11956267686E+03 -0.12582404350E+03  0.25353628190E+04  0.25471789391E+04  0.17300000000E+03 0.  1.
<mgrwt>
<rscale>  2 0.24506310E+03</rscale>
<asrwt>0</asrwt>
<pdfrwt beam="1">  1       21 0.44739607E+00 0.24506310E+03</pdfrwt>
<pdfrwt beam="2">  1       21 0.72061401E-02 0.24506310E+03</pdfrwt>
<totfact> 0.57687276E+02</totfact>
</mgrwt>
</event>
<event>
 4    2  0.4063641E+000  0.1798276E+03  0.7546771E-02  0.1167970E+00
         21   -1    0    0  501  502  0.00000000000E+00  0.00000000000E+00  0.39079233159E+03  0.39079233159E+03  0.00000000000E+00 0.  1.
         21   -1    0    0  502  503 -0.00000000000E+00 -0.00000000000E+00 -0.99692629840E+02  0.99692629840E+02  0.00000000000E+00 0.  1.
          6    1    1    2  501    0  0.33444982708E+02 -0.35922207692E+02  0.24665136367E+03  0.30524558486E+03  0.17300000000E+03 0.  1.
         -6    1    1    2    0  503 -0.33444982708E+02  0.35922207692E+02  0.44448338072E+02  0.18523937657E+03  0.17300000000E+03 0.  1.
<mgrwt>
<rscale>  2 0.17982762E+03</rscale>
<asrwt>0</asrwt>
<pdfrwt beam="1">  1       21 0.60121897E-01 0.17982762E+03</pdfrwt>
<pdfrwt beam="2">  1       21 0.15337328E-01 0.17982762E+03</pdfrwt>
<totfact> 0.97668684E+04</totfact>
</mgrwt>
</event>
<event>
 4    2  0.4063641E+000  0.1807862E+03  0.7546771E-02  0.1167044E+00
         21   -1    0    0  501  502  0.00000000000E+00  0.00000000000E+00  0.11876949535E+03  0.11876949535E+03  0.00000000000E+00 0. -1.
         21   -1    0    0  502  503 -0.00000000000E+00 -0.00000000000E+00 -0.31807220350E+03  0.31807220350E+03  0.00000000000E+00 0. -1.
          6    1    1    2  501    0  0.51465910405E+02 -0.10291907072E+02 -0.17985455460E+03  0.25501239989E+03  0.17300000000E+03 0. -1.
         -6    1    1    2    0  503 -0.51465910405E+02  0.10291907072E+02 -0.19448153546E+02  0.18182929896E+03  0.17300000000E+03 0. -1.
<mgrwt>
<rscale>  2 0.18078624E+03</rscale>
<asrwt>0</asrwt>
<pdfrwt beam="1">  1       21 0.18272230E-01 0.18078624E+03</pdfrwt>
<pdfrwt beam="2">  1       21 0.48934184E-01 0.18078624E+03</pdfrwt>
<totfact> 0.10929786E+05</totfact>
</mgrwt>
</event>
<event>
 4    2  0.4063641E+000  0.2137486E+03  0.7546771E-02  0.1138631E+00
         21   -1    0    0  503  502  0.00000000000E+00  0.00000000000E+00  0.52028347824E+02  0.52028347824E+02  0.00000000000E+00 0. -1.
         21   -1    0    0  501  503 -0.00000000000E+00 -0.00000000000E+00 -0.14830011419E+04  0.14830011419E+04  0.00000000000E+00 0. -1.
          6    1    1    2  501    0  0.11853993317E+03  0.41324657749E+02 -0.12056510231E+04  0.12244520540E+04  0.17300000000E+03 0. -1.
         -6    1    1    2    0  502 -0.11853993317E+03 -0.41324657749E+02 -0.22532177098E+03  0.31057743571E+03  0.17300000000E+03 0. -1.
<mgrwt>
<rscale>  2 0.21374855E+03</rscale>
<asrwt>0</asrwt>
<pdfrwt beam="1">  1       21 0.80043608E-02 0.21374855E+03</pdfrwt>
<pdfrwt beam="2">  1       21 0.22815403E+00 0.21374855E+03</pdfrwt>
<totfact> 0.10562202E+04</totfact>
</mgrwt>
</event>
<event>
 4    2  0.4063641E+000  0.1938403E+03  0.7546771E-02  0.1155043E+00
         21   -1    0    0  501  502  0.00000000000E+00  0.00000000000E+00  0.38244902188E+03  0.38244902188E+03  0.00000000000E+00 0.  1.
         21   -1    0    0  502  503 -0.00000000000E+00 -0.00000000000E+00 -0.98300398144E+02  0.98300398144E+02  0.00000000000E+00 0. -1.
          6    1    1    2  501    0 -0.84547802028E+02 -0.22287249003E+02  0.14773358914E+03  0.24371964561E+03  0.17300000000E+03 0.  1.
         -6    1    1    2    0  503  0.84547802028E+02  0.22287249003E+02  0.13641503460E+03  0.23702977442E+03  0.17300000000E+03 0.  1.
<mgrwt>
<rscale>  2 0.19384028E+03</rscale>
<asrwt>0</asrwt>
<pdfrwt beam="1">  1       21 0.58838310E-01 0.19384028E+03</pdfrwt>
<pdfrwt beam="2">  1       21 0.15123138E-01 0.19384028E+03</pdfrwt>
<totfact> 0.10438958E+05</totfact>
</mgrwt>
</event>
<event>
 4    2  0.4063641E+000  0.2071523E+03  0.7546771E-02  0.1143841E+00
         21   -1    0    0  503  502  0.00000000000E+00  0.00000000000E+00  0.11631973912E+03  0.11631973912E+03  0.00000000000E+00 0.  1.
         21   -1    0    0  501  503 -0.00000000000E+00 -0.00000000000E+00 -0.48934879588E+03  0.48934879588E+03  0.00000000000E+00 0. -1.
          6    1    1    2  501    0  0.10328791001E+03 -0.48111084187E+02 -0.33674926940E+03  0.39536330029E+03  0.17300000000E+03 0. -1.
         -6    1    1    2    0  502 -0.10328791001E+03  0.48111084187E+02 -0.36279787354E+02  0.21030523471E+03  0.17300000000E+03 0.  1.
<mgrwt>
<rscale>  2 0.20715228E+03</rscale>
<asrwt>0</asrwt>
<pdfrwt beam="1">  1       21 0.17895344E-01 0.20715228E+03</pdfrwt>
<pdfrwt beam="2">  1       21 0.75284431E-01 0.20715228E+03</pdfrwt>
<totfact> 0.44413229E+04</totfact>
</mgrwt>
</event>
<event>
 4    2  0.4063641E+000  0.1734696E+03  0.7546771E-02  0.1174277E+00
         21   -1    0    0  503  502  0.00000000000E+00  0.00000000000E+00  0.32376064067E+03  0.32376064067E+03  0.00000000000E+00 0.  1.
         21   -1    0    0  501  503 -0.00000000000E+00 -0.00000000000E+00 -0.11965405385E+03  0.11965405385E+03  0.00000000000E+00 0.  1.
          6    1    1    2  501    0 -0.79467087388E+01 -0.99774296893E+01 -0.26960939365E+01  0.17349054212E+03  0.17300000000E+03 0.  1.
         -6    1    1    2    0  502  0.79467087388E+01  0.99774296893E+01  0.20680268076E+03  0.26992415241E+03  0.17300000000E+03 0.  1.
<mgrwt>
<rscale>  2 0.17346959E+03</rscale>
<asrwt>0</asrwt>
<pdfrwt beam="1">  1       21 0.49809329E-01 0.17346959E+03</pdfrwt>
<pdfrwt beam="2">  1       21 0.18408316E-01 0.17346959E+03</pdfrwt>
<totfact> 0.10420449E+05</totfact>
</mgrwt>
</event>
<event>
 4    2  0.4063641E+000  0.1881558E+03  0.7546771E-02  0.1160135E+00
         21   -1    0    0  501  502  0.00000000000E+00  0.00000000000E+00  0.54748392636E+03  0.54748392636E+03  0.00000000000E+00 0.  1.
         21   -1    0    0  502  503 -0.00000000000E+00 -0.00000000000E+00 -0.86628617783E+02  0.86628617783E+02  0.00000000000E+00 0. -1.
          6    1    1    2  501    0  0.26064517451E+01 -0.73937961819E+02  0.70778948666E+02  0.20102804621E+03  0.17300000000E+03 0. -1.
         -6    1    1    2    0  503 -0.26064517451E+01  0.73937961819E+02  0.39007635991E+03  0.43308449793E+03  0.17300000000E+03 0.  1.
<mgrwt>
<rscale>  2 0.18815583E+03</rscale>
<asrwt>0</asrwt>
<pdfrwt beam="1">  1       21 0.84228294E-01 0.18815583E+03</pdfrwt>
<pdfrwt beam="2">  1       21 0.13327480E-01 0.18815583E+03</pdfrwt>
<totfact> 0.59588226E+04</totfact>
</mgrwt>
</event>
<event>
 4    2  0.4063641E+000  0.1897755E+03  0.7546771E-02  0.1158664E+00
         21   -1    0    0  503  502  0.00000000000E+00  0.00000000000E+00  0.12759849993E+04  0.12759849993E+04  0.00000000000E+00 0.  1.
         21   -1    0    0  501  503 -0.00000000000E+00 -0.00000000000E+00 -0.32444945108E+03  0.32444945108E+03  0.00000000000E+00 0. -1.
          6    1    1    2  501    0  0.70326048066E+02 -0.33763453776E+02 -0.28885072008E+03  0.34561461534E+03  0.17300000000E+03 0. -1.
         -6    1    1    2    0  502 -0.70326048066E+02  0.33763453776E+02  0.12403862683E+04  0.12548198350E+04  0.17300000000E+03 0.  1.
<mgrwt>
<rscale>  2 0.18977546E+03</rscale>
<asrwt>0</asrwt>
<pdfrwt beam="1">  1       21 0.19630538E+00 0.18977546E+03</pdfrwt>
<pdfrwt beam="2">  1       21 0.49915301E-01 0.18977546E+03</pdfrwt>
<totfact> 0.54431254E+02</totfact>
</mgrwt>
</event>
<event>
 4    2  0.4063641E+000  0.2040801E+03  0.7546771E-02  0.1146342E+00
         21   -1    0    0  503  502  0.00000000000E+00  0.00000000000E+00  0.18427109649E+03  0.18427109649E+03  0.00000000000E+00 0.  1.
         21   -1    0    0  501  503 -0.00000000000E+00 -0.00000000000E+00 -0.33276110567E+03  0.33276110567E+03  0.00000000000E+00 0.  1.
          6    1    1    2  501    0  0.95111820426E+02 -0.51705049308E+02 -0.22066159447E+03  0.30056648147E+03  0.17300000000E+03 0.  1.
         -6    1    1    2    0  502 -0.95111820426E+02  0.51705049308E+02  0.72171585294E+02  0.21646572069E+03  0.17300000000E+03 0.  1.
<mgrwt>
<rscale>  2 0.20408006E+03</rscale>
<asrwt>0</asrwt>
<pdfrwt beam="1">  1       21 0.28349400E-01 0.20408006E+03</pdfrwt>
<pdfrwt beam="2">  1       21 0.51194016E-01 0.20408006E+03</pdfrwt>
<totfact> 0.42894139E+04</totfact>
</mgrwt>
</event>
<event>
 4    2  0.4063641E+000  0.1956781E+03  0.7546771E-02  0.1153437E+00
         21   -1    0    0  503  502  0.00000000000E+00  0.00000000000E+00  0.31609014841E+03  0.31609014841E+03  0.00000000000E+00 0. -1.
         21   -1    0    0  501  503 -0.00000000000E+00 -0.00000000000E+00 -0.15182637695E+03  0.15182637695E+03  0.00000000000E+00 0. -1.
          6    1    1    2  501    0 -0.91416696226E+02  0.19802848283E+01 -0.23055834300E+02  0.19703173697E+03  0.17300000000E+03 0. -1.
         -6    1    1    2    0  502  0.91416696226E+02 -0.19802848283E+01  0.18731960577E+03  0.27088478839E+03  0.17300000000E+03 0. -1.
<mgrwt>
<rscale>  2 0.19567814E+03</rscale>
<asrwt>0</asrwt>
<pdfrwt beam="1">  1       21 0.48629254E-01 0.19567814E+03</pdfrwt>
<pdfrwt beam="2">  1       21 0.23357904E-01 0.19567814E+03</pdfrwt>
<totfact> 0.69498698E+04</totfact>
</mgrwt>
</event>
<event>
 4    2  0.4063641E+000  0.1981292E+03  0.7546771E-02  0.1151327E+00
         21   -1    0    0  503  502  0.00000000000E+00  0.00000000000E+00  0.20334568523E+03  0.20334568523E+03  0.00000000000E+00 0. -1.
         21   -1    0    0  501  503 -0.00000000000E+00 -0.00000000000E+00 -0.40769776110E+03  0.40769776110E+03  0.00000000000E+00 0.  1.
          6    1    1    2  501    0 -0.66663034497E+02  0.69872826283E+02 -0.32386274772E+03  0.37966070560E+03  0.17300000000E+03 0.  1.
         -6    1    1    2    0  502  0.66663034497E+02 -0.69872826283E+02  0.11951067185E+03  0.23138274073E+03  0.17300000000E+03 0. -1.
<mgrwt>
<rscale>  2 0.19812918E+03</rscale>
<asrwt>0</asrwt>
<pdfrwt beam="1">  1       21 0.31283952E-01 0.19812918E+03</pdfrwt>
<pdfrwt beam="2">  1       21 0.62722731E-01 0.19812918E+03</pdfrwt>
<totfact> 0.23046984E+04</totfact>
</mgrwt>
</event>
<event>
 4    2  0.4063641E+000  0.1732213E+03  0.7546771E-02  0.1174530E+00
         21   -1    0    0  503  502  0.00000000000E+00  0.00000000000E+00  0.55005986781E+02  0.55005986781E+02  0.00000000000E+00 0.  1.
         21   -1    0    0  501  503 -0.00000000000E+00 -0.00000000000E+00 -0.67812334354E+03  0.67812334354E+03  0.00000000000E+00 0.  1.
          6    1    1    2  501    0 -0.87155494913E+01 -0.81153967251E+00 -0.47366897313E+03  0.50434900169E+03  0.17300000000E+03 0.  1.
         -6    1    1    2    0  502  0.87155494913E+01  0.81153967251E+00 -0.14944838363E+03  0.22878032863E+03  0.17300000000E+03 0.  1.
<mgrwt>
<rscale>  2 0.17322130E+03</rscale>
<asrwt>0</asrwt>
<pdfrwt beam="1">  1       21 0.84624589E-02 0.17322130E+03</pdfrwt>
<pdfrwt beam="2">  1       21 0.10432668E+00 0.17322130E+03</pdfrwt>
<totfact> 0.81432673E+04</totfact>
</mgrwt>
</event>
<event>
 4    2  0.4063641E+000  0.1747490E+03  0.7546771E-02  0.1172984E+00
         21   -1    0    0  503  502  0.00000000000E+00  0.00000000000E+00  0.71312588767E+02  0.71312588767E+02  0.00000000000E+00 0.  1.
         21   -1    0    0  501  503 -0.00000000000E+00 -0.00000000000E+00 -0.60612360338E+03  0.60612360338E+03  0.00000000000E+00 0.  1.
          6    1    1    2  501    0 -0.13738175954E+02  0.20481194453E+02 -0.45091334718E+03  0.48359080168E+03  0.17300000000E+03 0. -1.
         -6    1    1    2    0  502  0.13738175954E+02 -0.20481194453E+02 -0.83897667437E+02  0.19384539047E+03  0.17300000000E+03 0. -1.
<mgrwt>
<rscale>  2 0.17474901E+03</rscale>
<asrwt>0</asrwt>
<pdfrwt beam="1">  1       21 0.10971167E-01 0.17474901E+03</pdfrwt>
<pdfrwt beam="2">  1       21 0.93249786E-01 0.17474901E+03</pdfrwt>
<totfact> 0.67166305E+04</totfact>
</mgrwt>
</event>
<event>
 4    2  0.4063641E+000  0.2167993E+03  0.7546771E-02  0.1136292E+00
         21   -1    0    0  503  502  0.00000000000E+00  0.00000000000E+00  0.14346192781E+03  0.14346192781E+03  0.00000000000E+00 0. -1.
         21   -1    0    0  501  503 -0.00000000000E+00 -0.00000000000E+00 -0.11958643660E+04  0.11958643660E+04  0.00000000000E+00 0. -1.
          6    1    1    2  501    0  0.62668008322E+02  0.11465457161E+03 -0.10968051536E+04  0.11180266075E+04  0.17300000000E+03 0. -1.
         -6    1    1    2    0  502 -0.62668008322E+02 -0.11465457161E+03  0.44402715369E+02  0.22129968638E+03  0.17300000000E+03 0. -1.
<mgrwt>
<rscale>  2 0.21679933E+03</rscale>
<asrwt>0</asrwt>
<pdfrwt beam="1">  1       21 0.22071066E-01 0.21679933E+03</pdfrwt>
<pdfrwt beam="2">  1       21 0.18397913E+00 0.21679933E+03</pdfrwt>
<totfact> 0.32096162E+03</totfact>
</mgrwt>
</event>
<event>
 4    2  0.4063641E+000  0.2252874E+03  0.7546771E-02  0.1130001E+00
         21   -1    0    0  503  502  0.00000000000E+00  0.00000000000E+00  0.92672045834E+02  0.92672045834E+02  0.00000000000E+00 0. -1.
         21   -1    0    0  501  503 -0.00000000000E+00 -0.00000000000E+00 -0.82162378093E+03  0.82162378093E+03  0.00000000000E+00 0. -1.
          6    1    1    2  501    0  0.15999451154E+02 -0.14342039067E+03 -0.62844489697E+03  0.66760570656E+03  0.17300000000E+03 0. -1.
         -6    1    1    2    0  502 -0.15999451154E+02  0.14342039067E+03 -0.10050683812E+03  0.24669012020E+03  0.17300000000E+03 0. -1.
<mgrwt>
<rscale>  2 0.22528735E+03</rscale>
<asrwt>0</asrwt>
<pdfrwt beam="1">  1       21 0.14257237E-01 0.22528735E+03</pdfrwt>
<pdfrwt beam="2">  1       21 0.12640366E+00 0.22528735E+03</pdfrwt>
<totfact> 0.19555495E+04</totfact>
</mgrwt>
</event>
<event>
 4    2  0.4063641E+000  0.1937711E+03  0.7546771E-02  0.1155103E+00
         21   -1    0    0  501  502  0.00000000000E+00  0.00000000000E+00  0.89038016771E+02  0.89038016771E+02  0.00000000000E+00 0.  1.
         21   -1    0    0  502  503 -0.00000000000E+00 -0.00000000000E+00 -0.47267380629E+03  0.47267380629E+03  0.00000000000E+00 0.  1.
          6    1    1    2  501    0  0.44331886571E+01 -0.87169843542E+02 -0.28404975519E+03  0.34384807431E+03  0.17300000000E+03 0.  1.
         -6    1    1    2    0  503 -0.44331886571E+01  0.87169843542E+02 -0.99586034329E+02  0.21786374875E+03  0.17300000000E+03 0.  1.
<mgrwt>
<rscale>  2 0.19377109E+03</rscale>
<asrwt>0</asrwt>
<pdfrwt beam="1">  1       21 0.13698156E-01 0.19377109E+03</pdfrwt>
<pdfrwt beam="2">  1       21 0.72719049E-01 0.19377109E+03</pdfrwt>
<totfact> 0.78738890E+04</totfact>
</mgrwt>
</event>
<event>
 4    2  0.4063641E+000  0.1788797E+03  0.7546771E-02  0.1168892E+00
         21   -1    0    0  503  502  0.00000000000E+00  0.00000000000E+00  0.19056106893E+03  0.19056106893E+03  0.00000000000E+00 0.  1.
         21   -1    0    0  501  503 -0.00000000000E+00 -0.00000000000E+00 -0.26283635045E+03  0.26283635045E+03  0.00000000000E+00 0.  1.
          6    1    1    2  501    0  0.29964721861E+02 -0.34220771033E+02 -0.17237295028E+03  0.24841573966E+03  0.17300000000E+03 0.  1.
         -6    1    1    2    0  502 -0.29964721861E+02  0.34220771033E+02  0.10009766876E+03  0.20498167971E+03  0.17300000000E+03 0.  1.
<mgrwt>
<rscale>  2 0.17887970E+03</rscale>
<asrwt>0</asrwt>
<pdfrwt beam="1">  1       21 0.29317087E-01 0.17887970E+03</pdfrwt>
<pdfrwt beam="2">  1       21 0.40436362E-01 0.17887970E+03</pdfrwt>
<totfact> 0.66066076E+04</totfact>
</mgrwt>
</event>
<event>
 4    2  0.4063641E+000  0.1789721E+03  0.7546771E-02  0.1168802E+00
         21   -1    0    0  501  502  0.00000000000E+00  0.00000000000E+00  0.23061744300E+03  0.23061744300E+03  0.00000000000E+00 0.  1.
         21   -1    0    0  502  503 -0.00000000000E+00 -0.00000000000E+00 -0.18680847733E+03  0.18680847733E+03  0.00000000000E+00 0.  1.
          6    1    1    2  501    0  0.11235910622E+02 -0.44449634822E+02  0.12760853743E+03  0.21980662990E+03  0.17300000000E+03 0.  1.
         -6    1    1    2    0  503 -0.11235910622E+02  0.44449634822E+02 -0.83799571764E+02  0.19761929043E+03  0.17300000000E+03 0.  1.
<mgrwt>
<rscale>  2 0.17897211E+03</rscale>
<asrwt>0</asrwt>
<pdfrwt beam="1">  1       21 0.35479607E-01 0.17897211E+03</pdfrwt>
<pdfrwt beam="2">  1       21 0.28739766E-01 0.17897211E+03</pdfrwt>
<totfact> 0.89200014E+04</totfact>
</mgrwt>
</event>
<event>
 4    2  0.4063641E+000  0.3103792E+03  0.7546771E-02  0.1080164E+00
         21   -1    0    0  501  502  0.00000000000E+00  0.00000000000E+00  0.21605077249E+04  0.21605077249E+04  0.00000000000E+00 0. -1.
         21   -1    0    0  502  503 -0.00000000000E+00 -0.00000000000E+00 -0.49351299326E+02  0.49351299326E+02  0.00000000000E+00 0.  1.
          6    1    1    2  501    0  0.93187208143E+02  0.24025490242E+03  0.13988082494E+04  0.14328292964E+04  0.17300000000E+03 0.  1.
         -6    1    1    2    0  503 -0.93187208143E+02 -0.24025490242E+03  0.71234817617E+03  0.77702972787E+03  0.17300000000E+03 0.  1.
<mgrwt>
<rscale>  2 0.31037924E+03</rscale>
<asrwt>0</asrwt>
<pdfrwt beam="1">  1       21 0.33238573E+00 0.31037924E+03</pdfrwt>
<pdfrwt beam="2">  1       21 0.75925093E-02 0.31037924E+03</pdfrwt>
<totfact> 0.25870655E+03</totfact>
</mgrwt>
</event>
<event>
 4    2  0.4063641E+000  0.1732925E+03  0.7546771E-02  0.1174457E+00
         21   -1    0    0  503  502  0.00000000000E+00  0.00000000000E+00  0.29781822763E+03  0.29781822763E+03  0.00000000000E+00 0. -1.
         21   -1    0    0  501  503 -0.00000000000E+00 -0.00000000000E+00 -0.10427450385E+03  0.10427450385E+03  0.00000000000E+00 0. -1.
          6    1    1    2  501    0  0.29735258071E+00 -0.10059623751E+02  0.60254368595E+02  0.18346899843E+03  0.17300000000E+03 0. -1.
         -6    1    1    2    0  502 -0.29735258071E+00  0.10059623751E+02  0.13328935518E+03  0.21862373305E+03  0.17300000000E+03 0. -1.
<mgrwt>
<rscale>  2 0.17329248E+03</rscale>
<asrwt>0</asrwt>
<pdfrwt beam="1">  1       21 0.45818188E-01 0.17329248E+03</pdfrwt>
<pdfrwt beam="2">  1       21 0.16042232E-01 0.17329248E+03</pdfrwt>
<totfact> 0.15943714E+05</totfact>
</mgrwt>
</event>
<event>
 4    2  0.4063641E+000  0.1828931E+03  0.7546771E-02  0.1165032E+00
         21   -1    0    0  501  502  0.00000000000E+00  0.00000000000E+00  0.58527827401E+03  0.58527827401E+03  0.00000000000E+00 0. -1.
         21   -1    0    0  502  503 -0.00000000000E+00 -0.00000000000E+00 -0.81987719412E+02  0.81987719412E+02  0.00000000000E+00 0. -1.
          6    1    1    2  501    0 -0.58533386552E+02 -0.97319835826E+01  0.43527048261E+03  0.47213373305E+03  0.17300000000E+03 0. -1.
         -6    1    1    2    0  503  0.58533386552E+02  0.97319835826E+01  0.68020071982E+02  0.19513226037E+03  0.17300000000E+03 0. -1.
<mgrwt>
<rscale>  2 0.18289305E+03</rscale>
<asrwt>0</asrwt>
<pdfrwt beam="1">  1       21 0.90042809E-01 0.18289305E+03</pdfrwt>
<pdfrwt beam="2">  1       21 0.12613496E-01 0.18289305E+03</pdfrwt>
<totfact> 0.56578494E+04</totfact>
</mgrwt>
</event>
<event>
 4    2  0.4063641E+000  0.2584229E+03  0.7546771E-02  0.1108095E+00
         21   -1    0    0  503  502  0.00000000000E+00  0.00000000000E+00  0.32595661684E+03  0.32595661684E+03  0.00000000000E+00 0.  1.
         21   -1    0    0  501  503 -0.00000000000E+00 -0.00000000000E+00 -0.20488371766E+03  0.20488371766E+03  0.00000000000E+00 0.  1.
          6    1    1    2  501    0 -0.18975054545E+03 -0.29122455613E+02  0.61464533624E+02  0.26563184262E+03  0.17300000000E+03 0.  1.
         -6    1    1    2    0  502  0.18975054545E+03  0.29122455613E+02  0.59608365550E+02  0.26520849188E+03  0.17300000000E+03 0.  1.
<mgrwt>
<rscale>  2 0.25842288E+03</rscale>
<asrwt>0</asrwt>
<pdfrwt beam="1">  1       21 0.50147172E-01 0.25842288E+03</pdfrwt>
<pdfrwt beam="2">  1       21 0.31520572E-01 0.25842288E+03</pdfrwt>
<totfact> 0.35515393E+04</totfact>
</mgrwt>
</event>
<event>
 4    2  0.4063641E+000  0.2915297E+03  0.7546771E-02  0.1089553E+00
         21   -1    0    0  501  502  0.00000000000E+00  0.00000000000E+00  0.14846463368E+03  0.14846463368E+03  0.00000000000E+00 0. -1.
         21   -1    0    0  502  503 -0.00000000000E+00 -0.00000000000E+00 -0.58664599108E+03  0.58664599108E+03  0.00000000000E+00 0.  1.
          6    1    1    2  501    0 -0.20459754589E+03  0.11489312843E+03 -0.16192784984E+03  0.33348195648E+03  0.17300000000E+03 0. -1.
         -6    1    1    2    0  503  0.20459754589E+03 -0.11489312843E+03 -0.27625350756E+03  0.40162866828E+03  0.17300000000E+03 0.  1.
<mgrwt>
<rscale>  2 0.29152974E+03</rscale>
<asrwt>0</asrwt>
<pdfrwt beam="1">  1       21 0.22840713E-01 0.29152974E+03</pdfrwt>
<pdfrwt beam="2">  1       21 0.90253228E-01 0.29152974E+03</pdfrwt>
<totfact> 0.17822852E+04</totfact>
</mgrwt>
</event>
<event>
 4    2  0.4063641E+000  0.2183515E+03  0.7546771E-02  0.1135118E+00
         21   -1    0    0  501  502  0.00000000000E+00  0.00000000000E+00  0.49516172168E+02  0.49516172168E+02  0.00000000000E+00 0. -1.
         21   -1    0    0  502  503 -0.00000000000E+00 -0.00000000000E+00 -0.96318071936E+03  0.96318071936E+03  0.00000000000E+00 0.  1.
          6    1    1    2  501    0  0.11092352771E+03 -0.73785876726E+02 -0.46600099670E+03  0.51462055296E+03  0.17300000000E+03 0. -1.
         -6    1    1    2    0  503 -0.11092352771E+03  0.73785876726E+02 -0.44766355050E+03  0.49807633857E+03  0.17300000000E+03 0.  1.
<mgrwt>
<rscale>  2 0.21835152E+03</rscale>
<asrwt>0</asrwt>
<pdfrwt beam="1">  1       21 0.76178729E-02 0.21835152E+03</pdfrwt>
<pdfrwt beam="2">  1       21 0.14818164E+00 0.21835152E+03</pdfrwt>
<totfact> 0.39732813E+04</totfact>
</mgrwt>
</event>
<event>
 4    2  0.4063641E+000  0.2111692E+03  0.7546771E-02  0.1140643E+00
         21   -1    0    0  501  502  0.00000000000E+00  0.00000000000E+00  0.67408006253E+03  0.67408006253E+03  0.00000000000E+00 0.  1.
         21   -1    0    0  502  503 -0.00000000000E+00 -0.00000000000E+00 -0.67817007441E+02  0.67817007441E+02  0.00000000000E+00 0.  1.
          6    1    1    2  501    0  0.21925366662E+02  0.11909110867E+03  0.36123777834E+03  0.41843177027E+03  0.17300000000E+03 0.  1.
         -6    1    1    2    0  503 -0.21925366662E+02 -0.11909110867E+03  0.24502527675E+03  0.32346529970E+03  0.17300000000E+03 0.  1.
<mgrwt>
<rscale>  2 0.21116916E+03</rscale>
<asrwt>0</asrwt>
<pdfrwt beam="1">  1       21 0.10370462E+00 0.21116916E+03</pdfrwt>
<pdfrwt beam="2">  1       21 0.10433386E-01 0.21116916E+03</pdfrwt>
<totfact> 0.56141663E+04</totfact>
</mgrwt>
</event>
<event>
 4    2  0.4063641E+000  0.2031286E+03  0.7546771E-02  0.1147126E+00
         21   -1    0    0  501  502  0.00000000000E+00  0.00000000000E+00  0.86565219164E+02  0.86565219164E+02  0.00000000000E+00 0. -1.
         21   -1    0    0  502  503 -0.00000000000E+00 -0.00000000000E+00 -0.84597812549E+03  0.84597812549E+03  0.00000000000E+00 0. -1.
          6    1    1    2  501    0 -0.96362618092E+02  0.45238023220E+02 -0.71624548451E+02  0.21538641752E+03  0.17300000000E+03 0. -1.
         -6    1    1    2    0  503  0.96362618092E+02 -0.45238023220E+02 -0.68778835788E+03  0.71715692714E+03  0.17300000000E+03 0. -1.
<mgrwt>
<rscale>  2 0.20312861E+03</rscale>
<asrwt>0</asrwt>
<pdfrwt beam="1">  1       21 0.13317726E-01 0.20312861E+03</pdfrwt>
<pdfrwt beam="2">  1       21 0.13015048E+00 0.20312861E+03</pdfrwt>
<totfact> 0.20833741E+04</totfact>
</mgrwt>
</event>
<event>
 4    2  0.4063641E+000  0.1734562E+03  0.7546771E-02  0.1174291E+00
         21   -1    0    0  501  502  0.00000000000E+00  0.00000000000E+00  0.65984076997E+03  0.65984076997E+03  0.00000000000E+00 0. -1.
         21   -1    0    0  502  503 -0.00000000000E+00 -0.00000000000E+00 -0.57434046395E+02  0.57434046395E+02  0.00000000000E+00 0. -1.
          6    1    1    2  501    0 -0.39671322571E+01 -0.11929825331E+02  0.46401454562E+03  0.49537516835E+03  0.17300000000E+03 0.  1.
         -6    1    1    2    0  503  0.39671322571E+01  0.11929825331E+02  0.13839217796E+03  0.22189964802E+03  0.17300000000E+03 0.  1.
<mgrwt>
<rscale>  2 0.17345622E+03</rscale>
<asrwt>0</asrwt>
<pdfrwt beam="1">  1       21 0.10151396E+00 0.17345622E+03</pdfrwt>
<pdfrwt beam="2">  1       21 0.88360076E-02 0.17345622E+03</pdfrwt>
<totfact> 0.80596812E+04</totfact>
</mgrwt>
</event>
<event>
 4    2  0.4063641E+000  0.1881720E+03  0.7546771E-02  0.1160120E+00
         21   -1    0    0  501  502  0.00000000000E+00  0.00000000000E+00  0.40052425359E+03  0.40052425359E+03  0.00000000000E+00 0.  1.
         21   -1    0    0  502  503 -0.00000000000E+00 -0.00000000000E+00 -0.32942223374E+03  0.32942223374E+03  0.00000000000E+00 0.  1.
          6    1    1    2  501    0 -0.60283324283E+02  0.42960921352E+02  0.34773295521E+03  0.39538200274E+03  0.17300000000E+03 0.  1.
         -6    1    1    2    0  503  0.60283324283E+02 -0.42960921352E+02 -0.27663093536E+03  0.33456448459E+03  0.17300000000E+03 0.  1.
<mgrwt>
<rscale>  2 0.18817205E+03</rscale>
<asrwt>0</asrwt>
<pdfrwt beam="1">  1       21 0.61619116E-01 0.18817205E+03</pdfrwt>
<pdfrwt beam="2">  1       21 0.50680343E-01 0.18817205E+03</pdfrwt>
<totfact> 0.90928920E+03</totfact>
</mgrwt>
</event>
<event>
 4    2  0.4063641E+000  0.1829730E+03  0.7546771E-02  0.1164956E+00
         21   -1    0    0  501  502  0.00000000000E+00  0.00000000000E+00  0.17786738805E+03  0.17786738805E+03  0.00000000000E+00 0. -1.
         21   -1    0    0  502  503 -0.00000000000E+00 -0.00000000000E+00 -0.18839376077E+03  0.18839376077E+03  0.00000000000E+00 0. -1.
          6    1    1    2  501    0  0.59574539733E+02 -0.10001322118E+01  0.21448539806E+00  0.18297314571E+03  0.17300000000E+03 0. -1.
         -6    1    1    2    0  503 -0.59574539733E+02  0.10001322118E+01 -0.10740858112E+02  0.18328800310E+03  0.17300000000E+03 0. -1.
<mgrwt>
<rscale>  2 0.18297302E+03</rscale>
<asrwt>0</asrwt>
<pdfrwt beam="1">  1       21 0.27364213E-01 0.18297302E+03</pdfrwt>
<pdfrwt beam="2">  1       21 0.28983656E-01 0.18297302E+03</pdfrwt>
<totfact> 0.14558478E+05</totfact>
</mgrwt>
</event>
<event>
 4    2  0.4063641E+000  0.2318927E+03  0.7546771E-02  0.1125315E+00
         21   -1    0    0  501  502  0.00000000000E+00  0.00000000000E+00  0.11442661581E+04  0.11442661581E+04  0.00000000000E+00 0.  1.
         21   -1    0    0  502  503 -0.00000000000E+00 -0.00000000000E+00 -0.68656926552E+02  0.68656926552E+02  0.00000000000E+00 0. -1.
          6    1    1    2  501    0 -0.47745970197E+02  0.14685215562E+03  0.87845939546E+03  0.90855112281E+03  0.17300000000E+03 0.  1.
         -6    1    1    2    0  503  0.47745970197E+02 -0.14685215562E+03  0.19714983605E+03  0.30437196181E+03  0.17300000000E+03 0. -1.
<mgrwt>
<rscale>  2 0.23189272E+03</rscale>
<asrwt>0</asrwt>
<pdfrwt beam="1">  1       21 0.17604093E+00 0.23189272E+03</pdfrwt>
<pdfrwt beam="2">  1       21 0.10562605E-01 0.23189272E+03</pdfrwt>
<totfact> 0.13870874E+04</totfact>
</mgrwt>
</event>
<event>
 4    2  0.4063641E+000  0.4840907E+03  0.7546771E-02  0.1018017E+00
         21   -1    0    0  501  502  0.00000000000E+00  0.00000000000E+00  0.45340236630E+03  0.45340236630E+03  0.00000000000E+00 0.  1.
         21   -1    0    0  502  503 -0.00000000000E+00 -0.00000000000E+00 -0.81473108225E+03  0.81473108225E+03  0.00000000000E+00 0. -1.
          6    1    1    2  501    0  0.34415987095E+03 -0.29320434149E+03  0.20272918638E+03  0.52482656721E+03  0.17300000000E+03 0.  1.
         -6    1    1    2    0  503 -0.34415987095E+03  0.29320434149E+03 -0.56405790233E+03  0.74330688133E+03  0.17300000000E+03 0. -1.
<mgrwt>
<rscale>  2 0.48409070E+03</rscale>
<asrwt>0</asrwt>
<pdfrwt beam="1">  1       21 0.69754210E-01 0.48409070E+03</pdfrwt>
<pdfrwt beam="2">  1       21 0.12534324E+00 0.48409070E+03</pdfrwt>
<totfact> 0.73517196E+02</totfact>
</mgrwt>
</event>
<event>
 4    2  0.4063641E+000  0.1826718E+03  0.7546771E-02  0.1165242E+00
         21   -1    0    0  501  502  0.00000000000E+00  0.00000000000E+00  0.12160757795E+03  0.12160757795E+03  0.00000000000E+00 0.  1.
         21   -1    0    0  502  503 -0.00000000000E+00 -0.00000000000E+00 -0.28770073549E+03  0.28770073549E+03  0.00000000000E+00 0.  1.
          6    1    1    2  501    0 -0.20926952938E+02 -0.54790949209E+02 -0.12705197035E+03  0.22251109780E+03  0.17300000000E+03 0. -1.
         -6    1    1    2    0  503  0.20926952938E+02  0.54790949209E+02 -0.39041187188E+02  0.18679721564E+03  0.17300000000E+03 0. -1.
<mgrwt>
<rscale>  2 0.18267180E+03</rscale>
<asrwt>0</asrwt>
<pdfrwt beam="1">  1       21 0.18708859E-01 0.18267180E+03</pdfrwt>
<pdfrwt beam="2">  1       21 0.44261651E-01 0.18267180E+03</pdfrwt>
<totfact> 0.12857038E+05</totfact>
</mgrwt>
</event>
<event>
 4    2  0.4063641E+000  0.1902358E+03  0.7546771E-02  0.1158249E+00
         21   -1    0    0  501  502  0.00000000000E+00  0.00000000000E+00  0.36958487775E+02  0.36958487775E+02  0.00000000000E+00 0.  1.
         21   -1    0    0  502  503 -0.00000000000E+00 -0.00000000000E+00 -0.11947660651E+04  0.11947660651E+04  0.00000000000E+00 0. -1.
          6    1    1    2  501    0 -0.19262755591E+02 -0.76743856223E+02 -0.31730574800E+03  0.36996298590E+03  0.17300000000E+03 0. -1.
         -6    1    1    2    0  503  0.19262755591E+02  0.76743856223E+02 -0.84050182935E+03  0.86176156700E+03  0.17300000000E+03 0. -1.
<mgrwt>
<rscale>  2 0.19023584E+03</rscale>
<asrwt>0</asrwt>
<pdfrwt beam="1">  1       21 0.56859200E-02 0.19023584E+03</pdfrwt>
<pdfrwt beam="2">  1       21 0.18381020E+00 0.19023584E+03</pdfrwt>
<totfact> 0.37125501E+04</totfact>
</mgrwt>
</event>
<event>
 4    2  0.4063641E+000  0.2078078E+03  0.7546771E-02  0.1143314E+00
         21   -1    0    0  503  502  0.00000000000E+00  0.00000000000E+00  0.10328583635E+04  0.10328583635E+04  0.00000000000E+00 0. -1.
         21   -1    0    0  501  503 -0.00000000000E+00 -0.00000000000E+00 -0.27571075374E+03  0.27571075374E+03  0.00000000000E+00 0. -1.
          6    1    1    2  501    0  0.10634460160E+03 -0.44112471261E+02 -0.22406262348E+03  0.30559473760E+03  0.17300000000E+03 0. -1.
         -6    1    1    2    0  502 -0.10634460160E+03  0.44112471261E+02  0.98121023321E+03  0.10029743796E+04  0.17300000000E+03 0. -1.
<mgrwt>
<rscale>  2 0.20780781E+03</rscale>
<asrwt>0</asrwt>
<pdfrwt beam="1">  1       21 0.15890128E+00 0.20780781E+03</pdfrwt>
<pdfrwt beam="2">  1       21 0.42417040E-01 0.20780781E+03</pdfrwt>
<totfact> 0.13505530E+03</totfact>
</mgrwt>
</event>
<event>
 4    2  0.4063641E+000  0.2288443E+03  0.7546771E-02  0.1127456E+00
         21   -1    0    0  503  502  0.00000000000E+00  0.00000000000E+00  0.85321564207E+03  0.85321564207E+03  0.00000000000E+00 0.  1.
         21   -1    0    0  501  503 -0.00000000000E+00 -0.00000000000E+00 -0.12578280111E+03  0.12578280111E+03  0.00000000000E+00 0.  1.
          6    1    1    2  501    0  0.11605468128E+03 -0.94720791845E+02  0.13451732701E+02  0.22923932160E+03  0.17300000000E+03 0.  1.
         -6    1    1    2    0  502 -0.11605468128E+03  0.94720791845E+02  0.71398110826E+03  0.74975912159E+03  0.17300000000E+03 0.  1.
<mgrwt>
<rscale>  2 0.22884431E+03</rscale>
<asrwt>0</asrwt>
<pdfrwt beam="1">  1       21 0.13126394E+00 0.22884431E+03</pdfrwt>
<pdfrwt beam="2">  1       21 0.19351201E-01 0.22884431E+03</pdfrwt>
<totfact> 0.10097239E+04</totfact>
</mgrwt>
</event>
<event>
 4    2  0.4063641E+000  0.1747555E+03  0.7546771E-02  0.1172977E+00
         21   -1    0    0  503  502  0.00000000000E+00  0.00000000000E+00  0.62108669324E+03  0.62108669324E+03  0.00000000000E+00 0.  1.
         21   -1    0    0  501  503 -0.00000000000E+00 -0.00000000000E+00 -0.61011896567E+02  0.61011896567E+02  0.00000000000E+00 0.  1.
          6    1    1    2  501    0  0.22601803440E+02 -0.99816294636E+01  0.43028293429E+03  0.46441670727E+03  0.17300000000E+03 0.  1.
         -6    1    1    2    0  502 -0.22601803440E+02  0.99816294636E+01  0.12979186238E+03  0.21768188254E+03  0.17300000000E+03 0.  1.
<mgrwt>
<rscale>  2 0.17475547E+03</rscale>
<asrwt>0</asrwt>
<pdfrwt beam="1">  1       21 0.95551794E-01 0.17475547E+03</pdfrwt>
<pdfrwt beam="2">  1       21 0.93864461E-02 0.17475547E+03</pdfrwt>
<totfact> 0.83559572E+04</totfact>
</mgrwt>
</event>
<event>
 4    2  0.4063641E+000  0.1814619E+03  0.7546771E-02  0.1166396E+00
         21   -1    0    0  503  502  0.00000000000E+00  0.00000000000E+00  0.55315460704E+03  0.55315460704E+03  0.00000000000E+00 0. -1.
         21   -1    0    0  501  503 -0.00000000000E+00 -0.00000000000E+00 -0.12586823388E+03  0.12586823388E+03  0.00000000000E+00 0. -1.
          6    1    1    2  501    0 -0.52013047545E+02 -0.17147862828E+02 -0.32837856054E+02  0.18440914051E+03  0.17300000000E+03 0. -1.
         -6    1    1    2    0  502  0.52013047545E+02  0.17147862828E+02  0.46012422922E+03  0.49461370041E+03  0.17300000000E+03 0. -1.
<mgrwt>
<rscale>  2 0.18146186E+03</rscale>
<asrwt>0</asrwt>
<pdfrwt beam="1">  1       21 0.85100708E-01 0.18146186E+03</pdfrwt>
<pdfrwt beam="2">  1       21 0.19364344E-01 0.18146186E+03</pdfrwt>
<totfact> 0.29479979E+04</totfact>
</mgrwt>
</event>
<event>
 4    2  0.4063641E+000  0.2342327E+03  0.7546771E-02  0.1123696E+00
         21   -1    0    0  501  502  0.00000000000E+00  0.00000000000E+00  0.21622975117E+03  0.21622975117E+03  0.00000000000E+00 0. -1.
         21   -1    0    0  502  503 -0.00000000000E+00 -0.00000000000E+00 -0.28449078886E+03  0.28449078886E+03  0.00000000000E+00 0. -1.
          6    1    1    2  501    0  0.15679544644E+03  0.18738299838E+02  0.48188210925E+02  0.23913811820E+03  0.17300000000E+03 0. -1.
         -6    1    1    2    0  503 -0.15679544644E+03 -0.18738299838E+02 -0.11644924862E+03  0.26158242183E+03  0.17300000000E+03 0. -1.
<mgrwt>
<rscale>  2 0.23423265E+03</rscale>
<asrwt>0</asrwt>
<pdfrwt beam="1">  1       21 0.33266116E-01 0.23423265E+03</pdfrwt>
<pdfrwt beam="2">  1       21 0.43767814E-01 0.23423265E+03</pdfrwt>
<totfact> 0.42791405E+04</totfact>
</mgrwt>
</event>
<event>
 4    2  0.4063641E+000  0.2495082E+03  0.7546771E-02  0.1113616E+00
         21   -1    0    0  503  502  0.00000000000E+00  0.00000000000E+00  0.13883841397E+04  0.13883841397E+04  0.00000000000E+00 0. -1.
         21   -1    0    0  501  503 -0.00000000000E+00 -0.00000000000E+00 -0.59154415246E+02  0.59154415246E+02  0.00000000000E+00 0. -1.
          6    1    1    2  501    0  0.17979251723E+03 -0.12309816034E+00  0.30857231939E+03  0.39682646169E+03  0.17300000000E+03 0. -1.
         -6    1    1    2    0  502 -0.17979251723E+03  0.12309816034E+00  0.10206574051E+04  0.10507120932E+04  0.17300000000E+03 0. -1.
<mgrwt>
<rscale>  2 0.24950825E+03</rscale>
<asrwt>0</asrwt>
<pdfrwt beam="1">  1       21 0.21359754E+00 0.24950825E+03</pdfrwt>
<pdfrwt beam="2">  1       21 0.91006803E-02 0.24950825E+03</pdfrwt>
<totfact> 0.10097523E+04</totfact>
</mgrwt>
</event>
<event>
 4    2  0.4063641E+000  0.1808403E+03  0.7546771E-02  0.1166992E+00
         21   -1    0    0  503  502  0.00000000000E+00  0.00000000000E+00  0.31876117750E+02  0.31876117750E+02  0.00000000000E+00 0. -1.
         21   -1    0    0  501  503 -0.00000000000E+00 -0.00000000000E+00 -0.27816250749E+04  0.27816250749E+04  0.00000000000E+00 0. -1.
          6    1    1    2  501    0 -0.46780729294E+02 -0.24203009720E+02 -0.24924842661E+04  0.24990360220E+04  0.17300000000E+03 0. -1.
         -6    1    1    2    0  502  0.46780729294E+02  0.24203009720E+02 -0.25726469104E+03  0.31446517067E+03  0.17300000000E+03 0. -1.
<mgrwt>
<rscale>  2 0.18084032E+03</rscale>
<asrwt>0</asrwt>
<pdfrwt beam="1">  1       21 0.49040176E-02 0.18084032E+03</pdfrwt>
<pdfrwt beam="2">  1       21 0.42794236E+00 0.18084032E+03</pdfrwt>
<totfact> 0.16423421E+03</totfact>
</mgrwt>
</event>
<event>
 4    2  0.4063641E+000  0.1736027E+03  0.7546771E-02  0.1174142E+00
         21   -1    0    0  503  502  0.00000000000E+00  0.00000000000E+00  0.23646417349E+03  0.23646417349E+03  0.00000000000E+00 0.  1.
         21   -1    0    0  501  503 -0.00000000000E+00 -0.00000000000E+00 -0.13072934270E+03  0.13072934270E+03  0.00000000000E+00 0.  1.
          6    1    1    2  501    0 -0.31524400394E+00 -0.14449981154E+02  0.81935734851E+02  0.19196709609E+03  0.17300000000E+03 0.  1.
         -6    1    1    2    0  502  0.31524400394E+00  0.14449981154E+02  0.23799095935E+02  0.17522642010E+03  0.17300000000E+03 0.  1.
<mgrwt>
<rscale>  2 0.17360271E+03</rscale>
<asrwt>0</asrwt>
<pdfrwt beam="1">  1       21 0.36379103E-01 0.17360271E+03</pdfrwt>
<pdfrwt beam="2">  1       21 0.20112207E-01 0.17360271E+03</pdfrwt>
<totfact> 0.16744444E+05</totfact>
</mgrwt>
</event>
<event>
 4    2  0.4063641E+000  0.2369669E+03  0.7546771E-02  0.1121830E+00
         21   -1    0    0  501  502  0.00000000000E+00  0.00000000000E+00  0.29541290008E+03  0.29541290008E+03  0.00000000000E+00 0.  1.
         21   -1    0    0  502  503 -0.00000000000E+00 -0.00000000000E+00 -0.20374534199E+03  0.20374534199E+03  0.00000000000E+00 0. -1.
          6    1    1    2  501    0 -0.53003472442E+02 -0.15301938282E+03  0.11046007476E+03  0.26144737086E+03  0.17300000000E+03 0.  1.
         -6    1    1    2    0  503  0.53003472442E+02  0.15301938282E+03 -0.18792516674E+02  0.23771087122E+03  0.17300000000E+03 0.  1.
<mgrwt>
<rscale>  2 0.23696687E+03</rscale>
<asrwt>0</asrwt>
<pdfrwt beam="1">  1       21 0.45448139E-01 0.23696687E+03</pdfrwt>
<pdfrwt beam="2">  1       21 0.31345437E-01 0.23696687E+03</pdfrwt>
<totfact> 0.44477350E+04</totfact>
</mgrwt>
</event>
<event>
 4    2  0.4063641E+000  0.2325846E+03  0.7546771E-02  0.1124834E+00
         21   -1    0    0  503  502  0.00000000000E+00  0.00000000000E+00  0.27828354594E+03  0.27828354594E+03  0.00000000000E+00 0.  1.
         21   -1    0    0  501  503 -0.00000000000E+00 -0.00000000000E+00 -0.39396609224E+03  0.39396609224E+03  0.00000000000E+00 0.  1.
          6    1    1    2  501    0  0.88900682751E+02  0.12752753173E+03 -0.29707652006E+03  0.37729307111E+03  0.17300000000E+03 0.  1.
         -6    1    1    2    0  502 -0.88900682751E+02 -0.12752753173E+03  0.18139397375E+03  0.29495656707E+03  0.17300000000E+03 0.  1.
<mgrwt>
<rscale>  2 0.23258461E+03</rscale>
<asrwt>0</asrwt>
<pdfrwt beam="1">  1       21 0.42812853E-01 0.23258461E+03</pdfrwt>
<pdfrwt beam="2">  1       21 0.60610168E-01 0.23258461E+03</pdfrwt>
<totfact> 0.12979833E+04</totfact>
</mgrwt>
</event>
<event>
 4    2  0.4063641E+000  0.2080128E+03  0.7546771E-02  0.1143149E+00
         21   -1    0    0  503  502  0.00000000000E+00  0.00000000000E+00  0.89549405417E+02  0.89549405417E+02  0.00000000000E+00 0.  1.
         21   -1    0    0  501  503 -0.00000000000E+00 -0.00000000000E+00 -0.49771372425E+03  0.49771372425E+03  0.00000000000E+00 0.  1.
          6    1    1    2  501    0 -0.11548180565E+03  0.20713875066E+01 -0.25424226712E+03  0.32849424420E+03  0.17300000000E+03 0. -1.
         -6    1    1    2    0  502  0.11548180565E+03 -0.20713875066E+01 -0.15392205171E+03  0.25876888547E+03  0.17300000000E+03 0. -1.
<mgrwt>
<rscale>  2 0.20801283E+03</rscale>
<asrwt>0</asrwt>
<pdfrwt beam="1">  1       21 0.13776832E-01 0.20801283E+03</pdfrwt>
<pdfrwt beam="2">  1       21 0.76571341E-01 0.20801283E+03</pdfrwt>
<totfact> 0.68995649E+04</totfact>
</mgrwt>
</event>
<event>
 4    2  0.4063641E+000  0.2998882E+03  0.7546771E-02  0.1085296E+00
         21   -1    0    0  503  502  0.00000000000E+00  0.00000000000E+00  0.17870807997E+03  0.17870807997E+03  0.00000000000E+00 0.  1.
         21   -1    0    0  501  503 -0.00000000000E+00 -0.00000000000E+00 -0.53662864695E+03  0.53662864695E+03  0.00000000000E+00 0.  1.
          6    1    1    2  501    0 -0.14924070742E+03  0.19424513120E+03 -0.89743523543E+02  0.31302852868E+03  0.17300000000E+03 0.  1.
         -6    1    1    2    0  502  0.14924070742E+03 -0.19424513120E+03 -0.26817704343E+03  0.40230819824E+03  0.17300000000E+03 0.  1.
<mgrwt>
<rscale>  2 0.29988825E+03</rscale>
<asrwt>0</asrwt>
<pdfrwt beam="1">  1       21 0.27493551E-01 0.29988825E+03</pdfrwt>
<pdfrwt beam="2">  1       21 0.82558253E-01 0.29988825E+03</pdfrwt>
<totfact> 0.15275085E+04</totfact>
</mgrwt>
</event>
<event>
 4    2  0.4063641E+000  0.2741243E+03  0.7546771E-02  0.1098942E+00
         21   -1    0    0  501  502  0.00000000000E+00  0.00000000000E+00  0.27207505233E+03  0.27207505233E+03  0.00000000000E+00 0. -1.
         21   -1    0    0  502  503 -0.00000000000E+00 -0.00000000000E+00 -0.70696305802E+03  0.70696305802E+03  0.00000000000E+00 0. -1.
          6    1    1    2  501    0  0.20376928340E+03 -0.60771804154E+02  0.16467269765E+03  0.31978309898E+03  0.17300000000E+03 0. -1.
         -6    1    1    2    0  503 -0.20376928340E+03  0.60771804154E+02 -0.59956070334E+03  0.65925501138E+03  0.17300000000E+03 0. -1.
<mgrwt>
<rscale>  2 0.27412430E+03</rscale>
<asrwt>0</asrwt>
<pdfrwt beam="1">  1       21 0.41857701E-01 0.27412430E+03</pdfrwt>
<pdfrwt beam="2">  1       21 0.10876355E+00 0.27412430E+03</pdfrwt>
<totfact> 0.34772188E+03</totfact>
</mgrwt>
</event>
<event>
 4    2  0.4063641E+000  0.1868926E+03  0.7546771E-02  0.1161294E+00
         21   -1    0    0  501  502  0.00000000000E+00  0.00000000000E+00  0.44060481411E+02  0.44060481411E+02  0.00000000000E+00 0.  1.
         21   -1    0    0  502  503 -0.00000000000E+00 -0.00000000000E+00 -0.14706008872E+04  0.14706008872E+04  0.00000000000E+00 0. -1.
          6    1    1    2  501    0  0.69936613421E+02 -0.10427101283E+02 -0.19910119337E+03  0.27307533675E+03  0.17300000000E+03 0.  1.
         -6    1    1    2    0  503 -0.69936613421E+02  0.10427101283E+02 -0.12274392125E+04  0.12415860319E+04  0.17300000000E+03 0. -1.
<mgrwt>
<rscale>  2 0.18689263E+03</rscale>
<asrwt>0</asrwt>
<pdfrwt beam="1">  1       21 0.67785353E-02 0.18689263E+03</pdfrwt>
<pdfrwt beam="2">  1       21 0.22624630E+00 0.18689263E+03</pdfrwt>
<totfact> 0.14807146E+04</totfact>
</mgrwt>
</event>
<event>
 4    2  0.4063641E+000  0.2823921E+03  0.7546771E-02  0.1094390E+00
         21   -1    0    0  503  502  0.00000000000E+00  0.00000000000E+00  0.11102328581E+04  0.11102328581E+04  0.00000000000E+00 0.  1.
         21   -1    0    0  501  503 -0.00000000000E+00 -0.00000000000E+00 -0.12098270879E+03  0.12098270879E+03  0.00000000000E+00 0. -1.
          6    1    1    2  501    0  0.19129397337E+03  0.11499086339E+03  0.10222679543E+03  0.30032582408E+03  0.17300000000E+03 0. -1.
         -6    1    1    2    0  502 -0.19129397337E+03 -0.11499086339E+03  0.88702335391E+03  0.93088974282E+03  0.17300000000E+03 0.  1.
<mgrwt>
<rscale>  2 0.28239207E+03</rscale>
<asrwt>0</asrwt>
<pdfrwt beam="1">  1       21 0.17080505E+00 0.28239207E+03</pdfrwt>
<pdfrwt beam="2">  1       21 0.18612725E-01 0.28239207E+03</pdfrwt>
<totfact> 0.52059541E+03</totfact>
</mgrwt>
</event>
<event>
 4    2  0.4063641E+000  0.2550922E+03  0.7546771E-02  0.1110128E+00
         21   -1    0    0  501  502  0.00000000000E+00  0.00000000000E+00  0.12123752525E+03  0.12123752525E+03  0.00000000000E+00 0. -1.
         21   -1    0    0  502  503 -0.00000000000E+00 -0.00000000000E+00 -0.11846486154E+04  0.11846486154E+04  0.00000000000E+00 0.  1.
          6    1    1    2  501    0  0.12486711599E+03  0.13982568208E+03 -0.48824437178E+02  0.25972262838E+03  0.17300000000E+03 0. -1.
         -6    1    1    2    0  503 -0.12486711599E+03 -0.13982568208E+03 -0.10145866529E+04  0.10461635122E+04  0.17300000000E+03 0.  1.
<mgrwt>
<rscale>  2 0.25509218E+03</rscale>
<asrwt>0</asrwt>
<pdfrwt beam="1">  1       21 0.18651926E-01 0.25509218E+03</pdfrwt>
<pdfrwt beam="2">  1       21 0.18225364E+00 0.25509218E+03</pdfrwt>
<totfact> 0.43912864E+03</totfact>
</mgrwt>
</event>
<event>
 4    2  0.4063641E+000  0.2283690E+03  0.7546771E-02  0.1127793E+00
         21   -1    0    0  503  502  0.00000000000E+00  0.00000000000E+00  0.73005342161E+03  0.73005342161E+03  0.00000000000E+00 0.  1.
         21   -1    0    0  501  503 -0.00000000000E+00 -0.00000000000E+00 -0.11366719764E+03  0.11366719764E+03  0.00000000000E+00 0.  1.
          6    1    1    2  501    0  0.12226720729E+02 -0.14857292881E+03  0.51055507026E+02  0.23400656545E+03  0.17300000000E+03 0.  1.
         -6    1    1    2    0  502 -0.12226720729E+02  0.14857292881E+03  0.56533071695E+03  0.60971405380E+03  0.17300000000E+03 0.  1.
<mgrwt>
<rscale>  2 0.22836902E+03</rscale>
<asrwt>0</asrwt>
<pdfrwt beam="1">  1       21 0.11231591E+00 0.22836902E+03</pdfrwt>
<pdfrwt beam="2">  1       21 0.17487262E-01 0.22836902E+03</pdfrwt>
<totfact> 0.17990236E+04</totfact>
</mgrwt>
</event>
<event>
 4    2  0.4063641E+000  0.1892476E+03  0.7546771E-02  0.1159142E+00
         21   -1    0    0  503  502  0.00000000000E+00  0.00000000000E+00  0.17975457242E+03  0.17975457242E+03  0.00000000000E+00 0. -1.
         21   -1    0    0  501  503 -0.00000000000E+00 -0.00000000000E+00 -0.19928333253E+03  0.19928333253E+03  0.00000000000E+00 0. -1.
          6    1    1    2  501    0  0.63015901251E+02  0.43756874154E+02 -0.70363517769E+01  0.18937839922E+03  0.17300000000E+03 0. -1.
         -6    1    1    2    0  502 -0.63015901251E+02 -0.43756874154E+02 -0.12492408333E+02  0.18965950573E+03  0.17300000000E+03 0. -1.
<mgrwt>
<rscale>  2 0.18924764E+03</rscale>
<asrwt>0</asrwt>
<pdfrwt beam="1">  1       21 0.27654550E-01 0.18924764E+03</pdfrwt>
<pdfrwt beam="2">  1       21 0.30658974E-01 0.18924764E+03</pdfrwt>
<totfact> 0.12761283E+05</totfact>
</mgrwt>
</event>
<event>
 4    2  0.4063641E+000  0.2071103E+03  0.7546771E-02  0.1143875E+00
         21   -1    0    0  501  502  0.00000000000E+00  0.00000000000E+00  0.30808784066E+03  0.30808784066E+03  0.00000000000E+00 0. -1.
         21   -1    0    0  502  503 -0.00000000000E+00 -0.00000000000E+00 -0.16915451959E+03  0.16915451959E+03  0.00000000000E+00 0. -1.
          6    1    1    2  501    0  0.92987285086E+02  0.65719332635E+02 -0.30900190693E+02  0.20940269257E+03  0.17300000000E+03 0. -1.
         -6    1    1    2    0  503 -0.92987285086E+02 -0.65719332635E+02  0.16983351176E+03  0.26783966769E+03  0.17300000000E+03 0. -1.
<mgrwt>
<rscale>  2 0.20711027E+03</rscale>
<asrwt>0</asrwt>
<pdfrwt beam="1">  1       21 0.47398129E-01 0.20711027E+03</pdfrwt>
<pdfrwt beam="2">  1       21 0.26023772E-01 0.20711027E+03</pdfrwt>
<totfact> 0.59323775E+04</totfact>
</mgrwt>
</event>
<event>
 4    2  0.4063641E+000  0.1911111E+03  0.7546771E-02  0.1157463E+00
         21   -1    0    0  501  502  0.00000000000E+00  0.00000000000E+00  0.30675468714E+02  0.30675468714E+02  0.00000000000E+00 0. -1.
         21   -1    0    0  502  503 -0.00000000000E+00 -0.00000000000E+00 -0.12243805100E+04  0.12243805100E+04  0.00000000000E+00 0. -1.
          6    1    1    2  501    0 -0.71921763998E+02  0.37705361656E+02 -0.49268030507E+03  0.52844802719E+03  0.17300000000E+03 0. -1.
         -6    1    1    2    0  503  0.71921763998E+02 -0.37705361656E+02 -0.70102473623E+03  0.72660795154E+03  0.17300000000E+03 0. -1.
<mgrwt>
<rscale>  2 0.19111105E+03</rscale>
<asrwt>0</asrwt>
<pdfrwt beam="1">  1       21 0.47193026E-02 0.19111105E+03</pdfrwt>
<pdfrwt beam="2">  1       21 0.18836624E+00 0.19111105E+03</pdfrwt>
<totfact> 0.47476203E+04</totfact>
</mgrwt>
</event>
<event>
 4    2  0.4063641E+000  0.2172142E+03  0.7546771E-02  0.1135977E+00
         21   -1    0    0  501  502  0.00000000000E+00  0.00000000000E+00  0.35372896941E+02  0.35372896941E+02  0.00000000000E+00 0.  1.
         21   -1    0    0  502  503 -0.00000000000E+00 -0.00000000000E+00 -0.13339387599E+04  0.13339387599E+04  0.00000000000E+00 0.  1.
          6    1    1    2  501    0 -0.64901078438E+02 -0.11419663683E+03 -0.65497067482E+03  0.69004971323E+03  0.17300000000E+03 0.  1.
         -6    1    1    2    0  503  0.64901078438E+02  0.11419663683E+03 -0.64359518809E+03  0.67926194357E+03  0.17300000000E+03 0.  1.
<mgrwt>
<rscale>  2 0.21721423E+03</rscale>
<asrwt>0</asrwt>
<pdfrwt beam="1">  1       21 0.54419846E-02 0.21721423E+03</pdfrwt>
<pdfrwt beam="2">  1       21 0.20522133E+00 0.21721423E+03</pdfrwt>
<totfact> 0.28468451E+04</totfact>
</mgrwt>
</event>
<event>
 4    2  0.4063641E+000  0.2308353E+03  0.7546771E-02  0.1126053E+00
         21   -1    0    0  503  502  0.00000000000E+00  0.00000000000E+00  0.31165570202E+02  0.31165570202E+02  0.00000000000E+00 0. -1.
         21   -1    0    0  501  503 -0.00000000000E+00 -0.00000000000E+00 -0.17181080531E+04  0.17181080531E+04  0.00000000000E+00 0. -1.
          6    1    1    2  501    0  0.99608933015E+02 -0.11590519498E+03 -0.78242322790E+03  0.81576409661E+03  0.17300000000E+03 0. -1.
         -6    1    1    2    0  502 -0.99608933015E+02  0.11590519498E+03 -0.90451925496E+03  0.93350952666E+03  0.17300000000E+03 0. -1.
<mgrwt>
<rscale>  2 0.23083534E+03</rscale>
<asrwt>0</asrwt>
<pdfrwt beam="1">  1       21 0.47947017E-02 0.23083534E+03</pdfrwt>
<pdfrwt beam="2">  1       21 0.26432439E+00 0.23083534E+03</pdfrwt>
<totfact> 0.15313433E+04</totfact>
</mgrwt>
</event>
<event>
 4    2  0.4063641E+000  0.1764262E+03  0.7546771E-02  0.1171307E+00
         21   -1    0    0  503  502  0.00000000000E+00  0.00000000000E+00  0.34174322047E+03  0.34174322047E+03  0.00000000000E+00 0.  1.
         21   -1    0    0  501  503 -0.00000000000E+00 -0.00000000000E+00 -0.91087638290E+02  0.91087638290E+02  0.00000000000E+00 0.  1.
          6    1    1    2  501    0  0.18697162626E+02  0.29114094347E+02  0.12344004800E+03  0.21532222326E+03  0.17300000000E+03 0.  1.
         -6    1    1    2    0  502 -0.18697162626E+02 -0.29114094347E+02  0.12721553418E+03  0.21750863550E+03  0.17300000000E+03 0.  1.
<mgrwt>
<rscale>  2 0.17642623E+03</rscale>
<asrwt>0</asrwt>
<pdfrwt beam="1">  1       21 0.52575880E-01 0.17642623E+03</pdfrwt>
<pdfrwt beam="2">  1       21 0.14013483E-01 0.17642623E+03</pdfrwt>
<totfact> 0.15306013E+05</totfact>
</mgrwt>
</event>
<event>
 4    2  0.4063641E+000  0.1971608E+03  0.7546771E-02  0.1152157E+00
         21   -1    0    0  501  502  0.00000000000E+00  0.00000000000E+00  0.82511223853E+02  0.82511223853E+02  0.00000000000E+00 0. -1.
         21   -1    0    0  502  503 -0.00000000000E+00 -0.00000000000E+00 -0.83801619791E+03  0.83801619791E+03  0.00000000000E+00 0. -1.
          6    1    1    2  501    0 -0.73851787096E+02 -0.59070218363E+02 -0.68229951231E+03  0.71021475742E+03  0.17300000000E+03 0. -1.
         -6    1    1    2    0  503  0.73851787096E+02  0.59070218363E+02 -0.73205461747E+02  0.21031266435E+03  0.17300000000E+03 0. -1.
<mgrwt>
<rscale>  2 0.19716079E+03</rscale>
<asrwt>0</asrwt>
<pdfrwt beam="1">  1       21 0.12694034E-01 0.19716079E+03</pdfrwt>
<pdfrwt beam="2">  1       21 0.12892557E+00 0.19716079E+03</pdfrwt>
<totfact> 0.23351861E+04</totfact>
</mgrwt>
</event>
<event>
 4    2  0.4063641E+000  0.2071314E+03  0.7546771E-02  0.1143858E+00
         21   -1    0    0  503  502  0.00000000000E+00  0.00000000000E+00  0.25358836414E+03  0.25358836414E+03  0.00000000000E+00 0. -1.
         21   -1    0    0  501  503 -0.00000000000E+00 -0.00000000000E+00 -0.27978702604E+03  0.27978702604E+03  0.00000000000E+00 0. -1.
          6    1    1    2  501    0 -0.27328659843E+01  0.11387249951E+03 -0.18077506336E+03  0.27492369529E+03  0.17300000000E+03 0. -1.
         -6    1    1    2    0  502  0.27328659843E+01 -0.11387249951E+03  0.15457640145E+03  0.25845169488E+03  0.17300000000E+03 0. -1.
<mgrwt>
<rscale>  2 0.20713139E+03</rscale>
<asrwt>0</asrwt>
<pdfrwt beam="1">  1       21 0.39013595E-01 0.20713139E+03</pdfrwt>
<pdfrwt beam="2">  1       21 0.43044157E-01 0.20713139E+03</pdfrwt>
<totfact> 0.32621594E+04</totfact>
</mgrwt>
</event>
<event>
 4    2  0.4063641E+000  0.2089472E+03  0.7546771E-02  0.1142402E+00
         21   -1    0    0  501  502  0.00000000000E+00  0.00000000000E+00  0.51613982229E+03  0.51613982229E+03  0.00000000000E+00 0.  1.
         21   -1    0    0  502  503 -0.00000000000E+00 -0.00000000000E+00 -0.94006208430E+02  0.94006208430E+02  0.00000000000E+00 0. -1.
          6    1    1    2  501    0  0.62579802937E+02 -0.99064062968E+02  0.11450091752E+03  0.23826325864E+03  0.17300000000E+03 0. -1.
         -6    1    1    2    0  503 -0.62579802937E+02  0.99064062968E+02  0.30763269634E+03  0.37188277207E+03  0.17300000000E+03 0.  1.
<mgrwt>
<rscale>  2 0.20894717E+03</rscale>
<asrwt>0</asrwt>
<pdfrwt beam="1">  1       21 0.79406125E-01 0.20894717E+03</pdfrwt>
<pdfrwt beam="2">  1       21 0.14462494E-01 0.20894717E+03</pdfrwt>
<totfact> 0.58177792E+04</totfact>
</mgrwt>
</event>
<event>
 4    2  0.4063641E+000  0.2100095E+03  0.7546771E-02  0.1141558E+00
         21   -1    0    0  501  502  0.00000000000E+00  0.00000000000E+00  0.37423711902E+03  0.37423711902E+03  0.00000000000E+00 0. -1.
         21   -1    0    0  502  503 -0.00000000000E+00 -0.00000000000E+00 -0.17622441018E+03  0.17622441018E+03  0.00000000000E+00 0. -1.
          6    1    1    2  501    0  0.45307469146E+02  0.11010105425E+03  0.25741306004E+03  0.33221302260E+03  0.17300000000E+03 0. -1.
         -6    1    1    2    0  503 -0.45307469146E+02 -0.11010105425E+03 -0.59400351200E+02  0.21824850659E+03  0.17300000000E+03 0. -1.
<mgrwt>
<rscale>  2 0.21000954E+03</rscale>
<asrwt>0</asrwt>
<pdfrwt beam="1">  1       21 0.57574941E-01 0.21000954E+03</pdfrwt>
<pdfrwt beam="2">  1       21 0.27111448E-01 0.21000954E+03</pdfrwt>
<totfact> 0.36366929E+04</totfact>
</mgrwt>
</event>
<event>
 4    2  0.4063641E+000  0.2508501E+03  0.7546771E-02  0.1112769E+00
         21   -1    0    0  501  502  0.00000000000E+00  0.00000000000E+00  0.10186898563E+03  0.10186898563E+03  0.00000000000E+00 0.  1.
         21   -1    0    0  502  503 -0.00000000000E+00 -0.00000000000E+00 -0.61918153732E+03  0.61918153732E+03  0.00000000000E+00 0.  1.
          6    1    1    2  501    0  0.17029399210E+03 -0.63219736081E+02 -0.27621509247E+03  0.37312270915E+03  0.17300000000E+03 0.  1.
         -6    1    1    2    0  503 -0.17029399210E+03  0.63219736081E+02 -0.24109745921E+03  0.34792781380E+03  0.17300000000E+03 0.  1.
<mgrwt>
<rscale>  2 0.25085011E+03</rscale>
<asrwt>0</asrwt>
<pdfrwt beam="1">  1       21 0.15672152E-01 0.25085011E+03</pdfrwt>
<pdfrwt beam="2">  1       21 0.95258697E-01 0.25085011E+03</pdfrwt>
<totfact> 0.32360671E+04</totfact>
</mgrwt>
</event>
<event>
 4    2  0.4063641E+000  0.1798800E+03  0.7546771E-02  0.1167919E+00
         21   -1    0    0  501  502  0.00000000000E+00  0.00000000000E+00  0.73598579299E+02  0.73598579299E+02  0.00000000000E+00 0. -1.
         21   -1    0    0  502  503 -0.00000000000E+00 -0.00000000000E+00 -0.44753778896E+03  0.44753778896E+03  0.00000000000E+00 0. -1.
          6    1    1    2  501    0  0.35752353227E+02 -0.33905632954E+02 -0.15235331870E+03  0.23572941358E+03  0.17300000000E+03 0. -1.
         -6    1    1    2    0  503 -0.35752353227E+02  0.33905632954E+02 -0.22158589096E+03  0.28540695468E+03  0.17300000000E+03 0. -1.
<mgrwt>
<rscale>  2 0.17988002E+03</rscale>
<asrwt>0</asrwt>
<pdfrwt beam="1">  1       21 0.11322858E-01 0.17988002E+03</pdfrwt>
<pdfrwt beam="2">  1       21 0.68851967E-01 0.17988002E+03</pdfrwt>
<totfact> 0.12565835E+05</totfact>
</mgrwt>
</event>
<event>
 4    2  0.4063641E+000  0.3034854E+03  0.7546771E-02  0.1083511E+00
         21   -1    0    0  503  502  0.00000000000E+00  0.00000000000E+00  0.27680557095E+03  0.27680557095E+03  0.00000000000E+00 0. -1.
         21   -1    0    0  501  503 -0.00000000000E+00 -0.00000000000E+00 -0.10219424147E+04  0.10219424147E+04  0.00000000000E+00 0.  1.
          6    1    1    2  501    0  0.13758809185E+02 -0.24896800995E+03 -0.90584942232E+03  0.95533583138E+03  0.17300000000E+03 0.  1.
         -6    1    1    2    0  502 -0.13758809185E+02  0.24896800995E+03  0.16071257855E+03  0.34341215429E+03  0.17300000000E+03 0. -1.
<mgrwt>
<rscale>  2 0.30348538E+03</rscale>
<asrwt>0</asrwt>
<pdfrwt beam="1">  1       21 0.42585473E-01 0.30348538E+03</pdfrwt>
<pdfrwt beam="2">  1       21 0.15722191E+00 0.30348538E+03</pdfrwt>
<totfact> 0.12784018E+03</totfact>
</mgrwt>
</event>
<event>
 4    2  0.4063641E+000  0.2130839E+03  0.7546771E-02  0.1139147E+00
         21   -1    0    0  503  502  0.00000000000E+00  0.00000000000E+00  0.10324294048E+03  0.10324294048E+03  0.00000000000E+00 0. -1.
         21   -1    0    0  501  503 -0.00000000000E+00 -0.00000000000E+00 -0.66958279206E+03  0.66958279206E+03  0.00000000000E+00 0. -1.
          6    1    1    2  501    0 -0.11073260802E+03 -0.56692369492E+02 -0.50954156128E+03  0.55230185398E+03  0.17300000000E+03 0. -1.
         -6    1    1    2    0  502  0.11073260802E+03  0.56692369492E+02 -0.56798290297E+02  0.22052387857E+03  0.17300000000E+03 0. -1.
<mgrwt>
<rscale>  2 0.21308387E+03</rscale>
<asrwt>0</asrwt>
<pdfrwt beam="1">  1       21 0.15883529E-01 0.21308387E+03</pdfrwt>
<pdfrwt beam="2">  1       21 0.10301274E+00 0.21308387E+03</pdfrwt>
<totfact> 0.26709697E+04</totfact>
</mgrwt>
</event>
<event>
 4    2  0.4063641E+000  0.2059830E+03  0.7546771E-02  0.1144787E+00
         21   -1    0    0  503  502  0.00000000000E+00  0.00000000000E+00  0.23770413452E+03  0.23770413452E+03  0.00000000000E+00 0.  1.
         21   -1    0    0  501  503 -0.00000000000E+00 -0.00000000000E+00 -0.29949555886E+03  0.29949555886E+03  0.00000000000E+00 0.  1.
          6    1    1    2  501    0  0.31001358667E+02 -0.10741927159E+03 -0.20162356209E+03  0.28823782704E+03  0.17300000000E+03 0.  1.
         -6    1    1    2    0  502 -0.31001358667E+02  0.10741927159E+03  0.13983213775E+03  0.24896186635E+03  0.17300000000E+03 0.  1.
<mgrwt>
<rscale>  2 0.20598297E+03</rscale>
<asrwt>0</asrwt>
<pdfrwt beam="1">  1       21 0.36569867E-01 0.20598297E+03</pdfrwt>
<pdfrwt beam="2">  1       21 0.46076240E-01 0.20598297E+03</pdfrwt>
<totfact> 0.32317123E+04</totfact>
</mgrwt>
</event>
<event>
 4    2  0.4063641E+000  0.2353297E+03  0.7546771E-02  0.1122944E+00
         21   -1    0    0  503  502  0.00000000000E+00  0.00000000000E+00  0.12355104665E+04  0.12355104665E+04  0.00000000000E+00 0. -1.
         21   -1    0    0  501  503 -0.00000000000E+00 -0.00000000000E+00 -0.11080031770E+03  0.11080031770E+03  0.00000000000E+00 0.  1.
          6    1    1    2  501    0  0.25731943343E+02 -0.15744507727E+03  0.42909532078E+02  0.23920976821E+03  0.17300000000E+03 0.  1.
         -6    1    1    2    0  502 -0.25731943343E+02  0.15744507727E+03  0.10818006168E+04  0.11071010160E+04  0.17300000000E+03 0. -1.
<mgrwt>
<rscale>  2 0.23532974E+03</rscale>
<asrwt>0</asrwt>
<pdfrwt beam="1">  1       21 0.19007852E+00 0.23532974E+03</pdfrwt>
<pdfrwt beam="2">  1       21 0.17046204E-01 0.23532974E+03</pdfrwt>
<totfact> 0.46634919E+03</totfact>
</mgrwt>
</event>
<event>
 4    2  0.4063641E+000  0.2510748E+03  0.7546771E-02  0.1112627E+00
         21   -1    0    0  503  502  0.00000000000E+00  0.00000000000E+00  0.34443415746E+03  0.34443415746E+03  0.00000000000E+00 0.  1.
         21   -1    0    0  501  503 -0.00000000000E+00 -0.00000000000E+00 -0.18722954066E+03  0.18722954066E+03  0.00000000000E+00 0. -1.
          6    1    1    2  501    0  0.18176661465E+03  0.83928238213E+01  0.38745098230E+02  0.25404669714E+03  0.17300000000E+03 0. -1.
         -6    1    1    2    0  502 -0.18176661465E+03 -0.83928238213E+01  0.11845951857E+03  0.27761700098E+03  0.17300000000E+03 0.  1.
<mgrwt>
<rscale>  2 0.25107477E+03</rscale>
<asrwt>0</asrwt>
<pdfrwt beam="1">  1       21 0.52989870E-01 0.25107477E+03</pdfrwt>
<pdfrwt beam="2">  1       21 0.28804545E-01 0.25107477E+03</pdfrwt>
<totfact> 0.37849006E+04</totfact>
</mgrwt>
</event>
<event>
 4    2  0.4063641E+000  0.2179455E+03  0.7546771E-02  0.1135424E+00
         21   -1    0    0  503  502  0.00000000000E+00  0.00000000000E+00  0.29363169706E+03  0.29363169706E+03  0.00000000000E+00 0. -1.
         21   -1    0    0  501  503 -0.00000000000E+00 -0.00000000000E+00 -0.21612854776E+03  0.21612854776E+03  0.00000000000E+00 0. -1.
          6    1    1    2  501    0 -0.45859186857E+02 -0.12437107376E+03 -0.89075127691E+02  0.23544555077E+03  0.17300000000E+03 0. -1.
         -6    1    1    2    0  502  0.45859186857E+02  0.12437107376E+03  0.16657827699E+03  0.27431469405E+03  0.17300000000E+03 0. -1.
<mgrwt>
<rscale>  2 0.21794547E+03</rscale>
<asrwt>0</asrwt>
<pdfrwt beam="1">  1       21 0.45174107E-01 0.21794547E+03</pdfrwt>
<pdfrwt beam="2">  1       21 0.33250546E-01 0.21794547E+03</pdfrwt>
<totfact> 0.40431024E+04</totfact>
</mgrwt>
</event>
<event>
 4    2  0.4063641E+000  0.1769546E+03  0.7546771E-02  0.1170783E+00
         21   -1    0    0  503  502  0.00000000000E+00  0.00000000000E+00  0.82652149637E+03  0.82652149637E+03  0.00000000000E+00 0.  1.
         21   -1    0    0  501  503 -0.00000000000E+00 -0.00000000000E+00 -0.57085434968E+02  0.57085434968E+02  0.00000000000E+00 0.  1.
          6    1    1    2  501    0 -0.32246871507E+02 -0.18548964413E+02  0.12849401470E+03  0.21868616009E+03  0.17300000000E+03 0.  1.
         -6    1    1    2    0  502  0.32246871507E+02  0.18548964413E+02  0.64094204670E+03  0.66492077125E+03  0.17300000000E+03 0.  1.
<mgrwt>
<rscale>  2 0.17695458E+03</rscale>
<asrwt>0</asrwt>
<pdfrwt beam="1">  1       21 0.12715714E+00 0.17695458E+03</pdfrwt>
<pdfrwt beam="2">  1       21 0.87823752E-02 0.17695458E+03</pdfrwt>
<totfact> 0.46993704E+04</totfact>
</mgrwt>
</event>
<event>
 4    2  0.4063641E+000  0.1767995E+03  0.7546771E-02  0.1170937E+00
         21   -1    0    0  501  502  0.00000000000E+00  0.00000000000E+00  0.69896037014E+03  0.69896037014E+03  0.00000000000E+00 0. -1.
         21   -1    0    0  502  503 -0.00000000000E+00 -0.00000000000E+00 -0.56601124795E+02  0.56601124795E+02  0.00000000000E+00 0. -1.
          6    1    1    2  501    0 -0.35865209506E+02  0.65384318992E+01  0.14810176336E+03  0.23063433538E+03  0.17300000000E+03 0. -1.
         -6    1    1    2    0  503  0.35865209506E+02 -0.65384318992E+01  0.49425748198E+03  0.52492715955E+03  0.17300000000E+03 0. -1.
<mgrwt>
<rscale>  2 0.17679950E+03</rscale>
<asrwt>0</asrwt>
<pdfrwt beam="1">  1       21 0.10753236E+00 0.17679950E+03</pdfrwt>
<pdfrwt beam="2">  1       21 0.87078658E-02 0.17679950E+03</pdfrwt>
<totfact> 0.71928176E+04</totfact>
</mgrwt>
</event>
<event>
 4    2  0.4063641E+000  0.2657059E+03  0.7546771E-02  0.1103763E+00
         21   -1    0    0  503  502  0.00000000000E+00  0.00000000000E+00  0.41850076082E+03  0.41850076082E+03  0.00000000000E+00 0. -1.
         21   -1    0    0  501  503 -0.00000000000E+00 -0.00000000000E+00 -0.24469360339E+03  0.24469360339E+03  0.00000000000E+00 0.  1.
          6    1    1    2  501    0  0.15587217476E+03  0.12796290224E+03 -0.97894677117E+02  0.28316604143E+03  0.17300000000E+03 0.  1.
         -6    1    1    2    0  502 -0.15587217476E+03 -0.12796290224E+03  0.27170183455E+03  0.38002832278E+03  0.17300000000E+03 0. -1.
<mgrwt>
<rscale>  2 0.26570593E+03</rscale>
<asrwt>0</asrwt>
<pdfrwt beam="1">  1       21 0.64384733E-01 0.26570593E+03</pdfrwt>
<pdfrwt beam="2">  1       21 0.37645170E-01 0.26570593E+03</pdfrwt>
<totfact> 0.14532020E+04</totfact>
</mgrwt>
</event>
<event>
 4    2  0.4063641E+000  0.2568288E+03  0.7546771E-02  0.1109064E+00
         21   -1    0    0  501  502  0.00000000000E+00  0.00000000000E+00  0.65855798601E+03  0.65855798601E+03  0.00000000000E+00 0. -1.
         21   -1    0    0  502  503 -0.00000000000E+00 -0.00000000000E+00 -0.10028051310E+03  0.10028051310E+03  0.00000000000E+00 0.  1.
          6    1    1    2  501    0  0.18972418733E+03  0.60644875631E+01  0.26597547725E+03  0.36973503995E+03  0.17300000000E+03 0.  1.
         -6    1    1    2    0  503 -0.18972418733E+03 -0.60644875631E+01  0.29230199565E+03  0.38910345916E+03  0.17300000000E+03 0. -1.
<mgrwt>
<rscale>  2 0.25682882E+03</rscale>
<asrwt>0</asrwt>
<pdfrwt beam="1">  1       21 0.10131661E+00 0.25682882E+03</pdfrwt>
<pdfrwt beam="2">  1       21 0.15427772E-01 0.25682882E+03</pdfrwt>
<totfact> 0.28685928E+04</totfact>
</mgrwt>
</event>
<event>
 4    2  0.4063641E+000  0.1825054E+03  0.7546771E-02  0.1165400E+00
         21   -1    0    0  503  502  0.00000000000E+00  0.00000000000E+00  0.29495317072E+03  0.29495317072E+03  0.00000000000E+00 0. -1.
         21   -1    0    0  501  503 -0.00000000000E+00 -0.00000000000E+00 -0.12448943274E+03  0.12448943274E+03  0.00000000000E+00 0. -1.
          6    1    1    2  501    0 -0.13707738359E+02 -0.56491854608E+02  0.21317661662E+02  0.18374622289E+03  0.17300000000E+03 0. -1.
         -6    1    1    2    0  502  0.13707738359E+02  0.56491854608E+02  0.14914607632E+03  0.23569638056E+03  0.17300000000E+03 0. -1.
<mgrwt>
<rscale>  2 0.18250543E+03</rscale>
<asrwt>0</asrwt>
<pdfrwt beam="1">  1       21 0.45377411E-01 0.18250543E+03</pdfrwt>
<pdfrwt beam="2">  1       21 0.19152220E-01 0.18250543E+03</pdfrwt>
<totfact> 0.11698441E+05</totfact>
</mgrwt>
</event>
<event>
 4    2  0.4063641E+000  0.1942524E+03  0.7546771E-02  0.1154681E+00
         21   -1    0    0  501  502  0.00000000000E+00  0.00000000000E+00  0.60105623377E+03  0.60105623377E+03  0.00000000000E+00 0. -1.
         21   -1    0    0  502  503 -0.00000000000E+00 -0.00000000000E+00 -0.16477025062E+03  0.16477025062E+03  0.00000000000E+00 0. -1.
          6    1    1    2  501    0 -0.63297860868E+02  0.61630877063E+02  0.51940298993E+03  0.55453895278E+03  0.17300000000E+03 0.  1.
         -6    1    1    2    0  503  0.63297860868E+02 -0.61630877063E+02 -0.83117006781E+02  0.21128753161E+03  0.17300000000E+03 0.  1.
<mgrwt>
<rscale>  2 0.19425237E+03</rscale>
<asrwt>0</asrwt>
<pdfrwt beam="1">  1       21 0.92470189E-01 0.19425237E+03</pdfrwt>
<pdfrwt beam="2">  1       21 0.25349270E-01 0.19425237E+03</pdfrwt>
<totfact> 0.14538193E+04</totfact>
</mgrwt>
</event>
<event>
 4    2  0.4063641E+000  0.3472668E+03  0.7546771E-02  0.1063742E+00
         21   -1    0    0  503  502  0.00000000000E+00  0.00000000000E+00  0.68998606218E+03  0.68998606218E+03  0.00000000000E+00 0. -1.
         21   -1    0    0  501  503 -0.00000000000E+00 -0.00000000000E+00 -0.17638190427E+03  0.17638190427E+03  0.00000000000E+00 0.  1.
          6    1    1    2  501    0  0.27266112589E+03 -0.12775410780E+03  0.29811352292E+03  0.45767441941E+03  0.17300000000E+03 0.  1.
         -6    1    1    2    0  502 -0.27266112589E+03  0.12775410780E+03  0.21549063499E+03  0.40869354705E+03  0.17300000000E+03 0. -1.
<mgrwt>
<rscale>  2 0.34726676E+03</rscale>
<asrwt>0</asrwt>
<pdfrwt beam="1">  1       21 0.10615170E+00 0.34726676E+03</pdfrwt>
<pdfrwt beam="2">  1       21 0.27135678E-01 0.34726676E+03</pdfrwt>
<totfact> 0.84644497E+03</totfact>
</mgrwt>
</event>
<event>
 4    2  0.4063641E+000  0.1857704E+03  0.7546771E-02  0.1162332E+00
         21   -1    0    0  501  502  0.00000000000E+00  0.00000000000E+00  0.21687058229E+02  0.21687058229E+02  0.00000000000E+00 0. -1.
         21   -1    0    0  502  503 -0.00000000000E+00 -0.00000000000E+00 -0.20898150864E+04  0.20898150864E+04  0.00000000000E+00 0. -1.
          6    1    1    2  501    0  0.28338405498E+02  0.61469978794E+02 -0.15497040124E+04  0.15607988818E+04  0.17300000000E+03 0. -1.
         -6    1    1    2    0  503 -0.28338405498E+02 -0.61469978794E+02 -0.51842401586E+03  0.55070326287E+03  0.17300000000E+03 0. -1.
<mgrwt>
<rscale>  2 0.18577035E+03</rscale>
<asrwt>0</asrwt>
<pdfrwt beam="1">  1       21 0.33364711E-02 0.18577035E+03</pdfrwt>
<pdfrwt beam="2">  1       21 0.32150995E+00 0.18577035E+03</pdfrwt>
<totfact> 0.13711538E+04</totfact>
</mgrwt>
</event>
<event>
 4    2  0.4063641E+000  0.1965097E+03  0.7546771E-02  0.1152718E+00
         21   -1    0    0  503  502  0.00000000000E+00  0.00000000000E+00  0.40069201478E+03  0.40069201478E+03  0.00000000000E+00 0.  1.
         21   -1    0    0  501  503 -0.00000000000E+00 -0.00000000000E+00 -0.12558489262E+03  0.12558489262E+03  0.00000000000E+00 0.  1.
          6    1    1    2  501    0 -0.52841271055E+02 -0.76778113413E+02  0.10644685573E+02  0.19679783524E+03  0.17300000000E+03 0.  1.
         -6    1    1    2    0  502  0.52841271055E+02  0.76778113413E+02  0.26446243659E+03  0.32947907216E+03  0.17300000000E+03 0.  1.
<mgrwt>
<rscale>  2 0.19650974E+03</rscale>
<asrwt>0</asrwt>
<pdfrwt beam="1">  1       21 0.61644925E-01 0.19650974E+03</pdfrwt>
<pdfrwt beam="2">  1       21 0.19320753E-01 0.19650974E+03</pdfrwt>
<totfact> 0.60079297E+04</totfact>
</mgrwt>
</event>
<event>
 4    2  0.4063641E+000  0.1784233E+03  0.7546771E-02  0.1169338E+00
         21   -1    0    0  503  502  0.00000000000E+00  0.00000000000E+00  0.32100953143E+03  0.32100953143E+03  0.00000000000E+00 0.  1.
         21   -1    0    0  501  503 -0.00000000000E+00 -0.00000000000E+00 -0.16615066425E+03  0.16615066425E+03  0.00000000000E+00 0.  1.
          6    1    1    2  501    0 -0.41201279936E+02  0.14433604784E+02 -0.77224815703E+02  0.19441848311E+03  0.17300000000E+03 0.  1.
         -6    1    1    2    0  502  0.41201279936E+02 -0.14433604784E+02  0.23208368289E+03  0.29274171257E+03  0.17300000000E+03 0.  1.
<mgrwt>
<rscale>  2 0.17842330E+03</rscale>
<asrwt>0</asrwt>
<pdfrwt beam="1">  1       21 0.49386082E-01 0.17842330E+03</pdfrwt>
<pdfrwt beam="2">  1       21 0.25561641E-01 0.17842330E+03</pdfrwt>
<totfact> 0.57126573E+04</totfact>
</mgrwt>
</event>
<event>
 4    2  0.4063641E+000  0.2054945E+03  0.7546771E-02  0.1145184E+00
         21   -1    0    0  501  502  0.00000000000E+00  0.00000000000E+00  0.10688951425E+04  0.10688951425E+04  0.00000000000E+00 0.  1.
         21   -1    0    0  502  503 -0.00000000000E+00 -0.00000000000E+00 -0.39766923456E+02  0.39766923456E+02  0.00000000000E+00 0.  1.
          6    1    1    2  501    0 -0.10658658812E+03  0.30631834018E+02  0.46968141034E+03  0.51266815508E+03  0.17300000000E+03 0.  1.
         -6    1    1    2    0  503  0.10658658812E+03 -0.30631834018E+02  0.55944680871E+03  0.59599391087E+03  0.17300000000E+03 0.  1.
<mgrwt>
<rscale>  2 0.20549455E+03</rscale>
<asrwt>0</asrwt>
<pdfrwt beam="1">  1       21 0.16444538E+00 0.20549455E+03</pdfrwt>
<pdfrwt beam="2">  1       21 0.61179890E-02 0.20549455E+03</pdfrwt>
<totfact> 0.44223076E+04</totfact>
</mgrwt>
</event>
<event>
 4    2  0.4063641E+000  0.2101651E+03  0.7546771E-02  0.1141435E+00
         21   -1    0    0  503  502  0.00000000000E+00  0.00000000000E+00  0.24891626162E+03  0.24891626162E+03  0.00000000000E+00 0.  1.
         21   -1    0    0  501  503 -0.00000000000E+00 -0.00000000000E+00 -0.22605570532E+03  0.22605570532E+03  0.00000000000E+00 0.  1.
          6    1    1    2  501    0  0.71943197044E+02 -0.95207910234E+02 -0.98695401848E+02  0.23218559843E+03  0.17300000000E+03 0.  1.
         -6    1    1    2    0  502 -0.71943197044E+02  0.95207910234E+02  0.12155595815E+03  0.24278636851E+03  0.17300000000E+03 0.  1.
<mgrwt>
<rscale>  2 0.21016510E+03</rscale>
<asrwt>0</asrwt>
<pdfrwt beam="1">  1       21 0.38294809E-01 0.21016510E+03</pdfrwt>
<pdfrwt beam="2">  1       21 0.34777801E-01 0.21016510E+03</pdfrwt>
<totfact> 0.51969306E+04</totfact>
</mgrwt>
</event>
<event>
 4    2  0.4063641E+000  0.2615013E+03  0.7546771E-02  0.1106245E+00
         21   -1    0    0  503  502  0.00000000000E+00  0.00000000000E+00  0.14515128605E+03  0.14515128605E+03  0.00000000000E+00 0.  1.
         21   -1    0    0  501  503 -0.00000000000E+00 -0.00000000000E+00 -0.47160482770E+03  0.47160482770E+03  0.00000000000E+00 0.  1.
          6    1    1    2  501    0 -0.19524778053E+03 -0.18226785258E+02 -0.17316771981E+03  0.31363987420E+03  0.17300000000E+03 0.  1.
         -6    1    1    2    0  502  0.19524778053E+03  0.18226785258E+02 -0.15328582184E+03  0.30311623955E+03  0.17300000000E+03 0.  1.
<mgrwt>
<rscale>  2 0.26150126E+03</rscale>
<asrwt>0</asrwt>
<pdfrwt beam="1">  1       21 0.22330967E-01 0.26150126E+03</pdfrwt>
<pdfrwt beam="2">  1       21 0.72554589E-01 0.26150126E+03</pdfrwt>
<totfact> 0.31056242E+04</totfact>
</mgrwt>
</event>
<event>
 4    2  0.4063641E+000  0.2470359E+03  0.7546771E-02  0.1115192E+00
         21   -1    0    0  501  502  0.00000000000E+00  0.00000000000E+00  0.55312232967E+03  0.55312232967E+03  0.00000000000E+00 0. -1.
         21   -1    0    0  502  503 -0.00000000000E+00 -0.00000000000E+00 -0.22219094694E+03  0.22219094694E+03  0.00000000000E+00 0. -1.
          6    1    1    2  501    0  0.17030662450E+03 -0.45753838920E+02  0.44052134524E+03  0.50506021001E+03  0.17300000000E+03 0. -1.
         -6    1    1    2    0  503 -0.17030662450E+03  0.45753838920E+02 -0.10958996252E+03  0.27025306660E+03  0.17300000000E+03 0. -1.
<mgrwt>
<rscale>  2 0.24703595E+03</rscale>
<asrwt>0</asrwt>
<pdfrwt beam="1">  1       21 0.85095742E-01 0.24703595E+03</pdfrwt>
<pdfrwt beam="2">  1       21 0.34183223E-01 0.24703595E+03</pdfrwt>
<totfact> 0.95190889E+03</totfact>
</mgrwt>
</event>
<event>
 4    2  0.4063641E+000  0.1863852E+03  0.7546771E-02  0.1161763E+00
         21   -1    0    0  503  502  0.00000000000E+00  0.00000000000E+00  0.88258139749E+02  0.88258139749E+02  0.00000000000E+00 0.  1.
         21   -1    0    0  501  503 -0.00000000000E+00 -0.00000000000E+00 -0.54891070017E+03  0.54891070017E+03  0.00000000000E+00 0.  1.
          6    1    1    2  501    0 -0.69310551491E+02  0.25494880487E+01 -0.39978259640E+03  0.44109588167E+03  0.17300000000E+03 0.  1.
         -6    1    1    2    0  502  0.69310551491E+02 -0.25494880487E+01 -0.60869964017E+02  0.19607295825E+03  0.17300000000E+03 0.  1.
<mgrwt>
<rscale>  2 0.18638523E+03</rscale>
<asrwt>0</asrwt>
<pdfrwt beam="1">  1       21 0.13578175E-01 0.18638523E+03</pdfrwt>
<pdfrwt beam="2">  1       21 0.84447801E-01 0.18638523E+03</pdfrwt>
<totfact> 0.57323455E+04</totfact>
</mgrwt>
</event>
<event>
 4    2  0.4063641E+000  0.3324899E+03  0.7546771E-02  0.1070040E+00
         21   -1    0    0  503  502  0.00000000000E+00  0.00000000000E+00  0.32720936374E+03  0.32720936374E+03  0.00000000000E+00 0. -1.
         21   -1    0    0  501  503 -0.00000000000E+00 -0.00000000000E+00 -0.45351062783E+03  0.45351062783E+03  0.00000000000E+00 0.  1.
          6    1    1    2  501    0  0.13520771041E+03 -0.24967865386E+03 -0.26028103230E+03  0.42225083886E+03  0.17300000000E+03 0.  1.
         -6    1    1    2    0  502 -0.13520771041E+03  0.24967865386E+03  0.13397976821E+03  0.35846915270E+03  0.17300000000E+03 0. -1.
<mgrwt>
<rscale>  2 0.33248993E+03</rscale>
<asrwt>0</asrwt>
<pdfrwt beam="1">  1       21 0.50339902E-01 0.33248993E+03</pdfrwt>
<pdfrwt beam="2">  1       21 0.69770866E-01 0.33248993E+03</pdfrwt>
<totfact> 0.64727825E+03</totfact>
</mgrwt>
</event>
<event>
 4    2  0.4063641E+000  0.1915439E+03  0.7546771E-02  0.1157076E+00
         21   -1    0    0  501  502  0.00000000000E+00  0.00000000000E+00  0.31773539106E+02  0.31773539106E+02  0.00000000000E+00 0. -1.
         21   -1    0    0  502  503 -0.00000000000E+00 -0.00000000000E+00 -0.22189809240E+04  0.22189809240E+04  0.00000000000E+00 0. -1.
          6    1    1    2  501    0 -0.68580119318E+02 -0.45352158742E+02 -0.18729824145E+04  0.18827512252E+04  0.17300000000E+03 0. -1.
         -6    1    1    2    0  503  0.68580119318E+02  0.45352158742E+02 -0.31422497037E+03  0.36800323786E+03  0.17300000000E+03 0. -1.
<mgrwt>
<rscale>  2 0.19154386E+03</rscale>
<asrwt>0</asrwt>
<pdfrwt beam="1">  1       21 0.48882357E-02 0.19154386E+03</pdfrwt>
<pdfrwt beam="2">  1       21 0.34138175E+00 0.19154386E+03</pdfrwt>
<totfact> 0.54999261E+03</totfact>
</mgrwt>
</event>
<event>
 4    2  0.4063641E+000  0.1925909E+03  0.7546771E-02  0.1156145E+00
         21   -1    0    0  501  502  0.00000000000E+00  0.00000000000E+00  0.47258294499E+02  0.47258294499E+02  0.00000000000E+00 0. -1.
         21   -1    0    0  502  503 -0.00000000000E+00 -0.00000000000E+00 -0.12649375651E+04  0.12649375651E+04  0.00000000000E+00 0. -1.
          6    1    1    2  501    0 -0.81014030547E+02 -0.24474343588E+02 -0.20464675077E+03  0.28101878805E+03  0.17300000000E+03 0. -1.
         -6    1    1    2    0  503  0.81014030547E+02  0.24474343588E+02 -0.10130325198E+04  0.10311770715E+04  0.17300000000E+03 0. -1.
<mgrwt>
<rscale>  2 0.19259093E+03</rscale>
<asrwt>0</asrwt>
<pdfrwt beam="1">  1       21 0.72705063E-02 0.19259093E+03</pdfrwt>
<pdfrwt beam="2">  1       21 0.19460579E+00 0.19259093E+03</pdfrwt>
<totfact> 0.20614022E+04</totfact>
</mgrwt>
</event>
<event>
 4    2  0.4063641E+000  0.1730011E+03  0.7546771E-02  0.1174754E+00
         21   -1    0    0  503  502  0.00000000000E+00  0.00000000000E+00  0.14754315179E+03  0.14754315179E+03  0.00000000000E+00 0. -1.
         21   -1    0    0  501  503 -0.00000000000E+00 -0.00000000000E+00 -0.34901013067E+03  0.34901013067E+03  0.00000000000E+00 0. -1.
          6    1    1    2  501    0  0.48291543598E+00  0.40045284272E+00 -0.26140121114E+03  0.31346449043E+03  0.17300000000E+03 0. -1.
         -6    1    1    2    0  502 -0.48291543598E+00 -0.40045284272E+00  0.59934232271E+02  0.18308879203E+03  0.17300000000E+03 0. -1.
<mgrwt>
<rscale>  2 0.17300114E+03</rscale>
<asrwt>0</asrwt>
<pdfrwt beam="1">  1       21 0.22698947E-01 0.17300114E+03</pdfrwt>
<pdfrwt beam="2">  1       21 0.53693866E-01 0.17300114E+03</pdfrwt>
<totfact> 0.60248322E+04</totfact>
</mgrwt>
</event>
<event>
 4    2  0.4063641E+000  0.1770627E+03  0.7546771E-02  0.1170676E+00
         21   -1    0    0  501  502  0.00000000000E+00  0.00000000000E+00  0.10091810948E+03  0.10091810948E+03  0.00000000000E+00 0.  1.
         21   -1    0    0  502  503 -0.00000000000E+00 -0.00000000000E+00 -0.68966429404E+03  0.68966429404E+03  0.00000000000E+00 0.  1.
          6    1    1    2  501    0 -0.35920569403E+02 -0.11485781604E+02 -0.13374847819E+01  0.17706778180E+03  0.17300000000E+03 0.  1.
         -6    1    1    2    0  503  0.35920569403E+02  0.11485781604E+02 -0.58740869978E+03  0.61351462172E+03  0.17300000000E+03 0.  1.
<mgrwt>
<rscale>  2 0.17706273E+03</rscale>
<asrwt>0</asrwt>
<pdfrwt beam="1">  1       21 0.15525863E-01 0.17706273E+03</pdfrwt>
<pdfrwt beam="2">  1       21 0.10610220E+00 0.17706273E+03</pdfrwt>
<totfact> 0.26491420E+04</totfact>
</mgrwt>
</event>
<event>
 4    2  0.4063641E+000  0.1845713E+03  0.7546771E-02  0.1163451E+00
         21   -1    0    0  503  502  0.00000000000E+00  0.00000000000E+00  0.33382223118E+03  0.33382223118E+03  0.00000000000E+00 0.  1.
         21   -1    0    0  501  503 -0.00000000000E+00 -0.00000000000E+00 -0.10241006531E+03  0.10241006531E+03  0.00000000000E+00 0.  1.
          6    1    1    2  501    0  0.63446333781E+02 -0.10588535792E+02  0.12863954998E+03  0.22497708368E+03  0.17300000000E+03 0.  1.
         -6    1    1    2    0  502 -0.63446333781E+02  0.10588535792E+02  0.10277261589E+03  0.21125521280E+03  0.17300000000E+03 0.  1.
<mgrwt>
<rscale>  2 0.18457127E+03</rscale>
<asrwt>0</asrwt>
<pdfrwt beam="1">  1       21 0.51357266E-01 0.18457127E+03</pdfrwt>
<pdfrwt beam="2">  1       21 0.15755395E-01 0.18457127E+03</pdfrwt>
<totfact> 0.12958244E+05</totfact>
</mgrwt>
</event>
<event>
 4    2  0.4063641E+000  0.1949938E+03  0.7546771E-02  0.1154033E+00
         21   -1    0    0  503  502  0.00000000000E+00  0.00000000000E+00  0.20667304528E+03  0.20667304528E+03  0.00000000000E+00 0.  1.
         21   -1    0    0  501  503 -0.00000000000E+00 -0.00000000000E+00 -0.69748830377E+03  0.69748830377E+03  0.00000000000E+00 0.  1.
          6    1    1    2  501    0  0.73606009049E+02  0.51727532829E+02 -0.63331096486E+03  0.66265025498E+03  0.17300000000E+03 0.  1.
         -6    1    1    2    0  502 -0.73606009049E+02 -0.51727532829E+02  0.14249570638E+03  0.24151109406E+03  0.17300000000E+03 0.  1.
<mgrwt>
<rscale>  2 0.19499380E+03</rscale>
<asrwt>0</asrwt>
<pdfrwt beam="1">  1       21 0.31795853E-01 0.19499380E+03</pdfrwt>
<pdfrwt beam="2">  1       21 0.10730589E+00 0.19499380E+03</pdfrwt>
<totfact> 0.65834786E+03</totfact>
</mgrwt>
</event>
<event>
 4    2  0.4063641E+000  0.3122813E+03  0.7546771E-02  0.1079258E+00
         21   -1    0    0  503  502  0.00000000000E+00  0.00000000000E+00  0.39698799984E+03  0.39698799984E+03  0.00000000000E+00 0. -1.
         21   -1    0    0  501  503 -0.00000000000E+00 -0.00000000000E+00 -0.67245563885E+03  0.67245563885E+03  0.00000000000E+00 0.  1.
          6    1    1    2  501    0 -0.66570282601E+02  0.25131454458E+03 -0.56373597859E+03  0.64445159353E+03  0.17300000000E+03 0.  1.
         -6    1    1    2    0  502  0.66570282601E+02 -0.25131454458E+03  0.28826833958E+03  0.42499204516E+03  0.17300000000E+03 0. -1.
<mgrwt>
<rscale>  2 0.31228129E+03</rscale>
<asrwt>0</asrwt>
<pdfrwt beam="1">  1       21 0.61075076E-01 0.31228129E+03</pdfrwt>
<pdfrwt beam="2">  1       21 0.10345471E+00 0.31228129E+03</pdfrwt>
<totfact> 0.17295257E+03</totfact>
</mgrwt>
</event>
<event>
 4    2  0.4063641E+000  0.1731694E+03  0.7546771E-02  0.1174582E+00
         21   -1    0    0  503  502  0.00000000000E+00  0.00000000000E+00  0.15825587348E+02  0.15825587348E+02  0.00000000000E+00 0. -1.
         21   -1    0    0  501  503 -0.00000000000E+00 -0.00000000000E+00 -0.19862824874E+04  0.19862824874E+04  0.00000000000E+00 0. -1.
          6    1    1    2  501    0  0.81540626123E+00  0.76151242469E+01 -0.11999650668E+04  0.12123958992E+04  0.17300000000E+03 0. -1.
         -6    1    1    2    0  502 -0.81540626123E+00 -0.76151242469E+01 -0.77049183327E+03  0.78971217550E+03  0.17300000000E+03 0. -1.
<mgrwt>
<rscale>  2 0.17316944E+03</rscale>
<asrwt>0</asrwt>
<pdfrwt beam="1">  1       21 0.24347062E-02 0.17316944E+03</pdfrwt>
<pdfrwt beam="2">  1       21 0.30558186E+00 0.17316944E+03</pdfrwt>
<totfact> 0.28858819E+04</totfact>
</mgrwt>
</event>
<event>
 4    2  0.4063641E+000  0.1844879E+03  0.7546771E-02  0.1163529E+00
         21   -1    0    0  503  502  0.00000000000E+00  0.00000000000E+00  0.41067035922E+03  0.41067035922E+03  0.00000000000E+00 0. -1.
         21   -1    0    0  501  503 -0.00000000000E+00 -0.00000000000E+00 -0.13329875334E+03  0.13329875334E+03  0.00000000000E+00 0.  1.
          6    1    1    2  501    0  0.28552873633E+02 -0.57371809239E+02  0.30596164016E+03  0.35727904548E+03  0.17300000000E+03 0. -1.
         -6    1    1    2    0  502 -0.28552873633E+02  0.57371809239E+02 -0.28590034285E+02  0.18669006709E+03  0.17300000000E+03 0.  1.
<mgrwt>
<rscale>  2 0.18448792E+03</rscale>
<asrwt>0</asrwt>
<pdfrwt beam="1">  1       21 0.63180055E-01 0.18448792E+03</pdfrwt>
<pdfrwt beam="2">  1       21 0.20507501E-01 0.18448792E+03</pdfrwt>
<totfact> 0.51255382E+04</totfact>
</mgrwt>
</event>
<event>
 4    2  0.4063641E+000  0.2112436E+03  0.7546771E-02  0.1140585E+00
         21   -1    0    0  503  502  0.00000000000E+00  0.00000000000E+00  0.79933304760E+03  0.79933304760E+03  0.00000000000E+00 0.  1.
         21   -1    0    0  501  503 -0.00000000000E+00 -0.00000000000E+00 -0.65233254431E+02  0.65233254431E+02  0.00000000000E+00 0. -1.
          6    1    1    2  501    0  0.93679262521E+02 -0.76935257614E+02  0.20289365738E+03  0.29289874410E+03  0.17300000000E+03 0. -1.
         -6    1    1    2    0  502 -0.93679262521E+02  0.76935257614E+02  0.53120613579E+03  0.57166755793E+03  0.17300000000E+03 0.  1.
<mgrwt>
<rscale>  2 0.21124355E+03</rscale>
<asrwt>0</asrwt>
<pdfrwt beam="1">  1       21 0.12297431E+00 0.21124355E+03</pdfrwt>
<pdfrwt beam="2">  1       21 0.10035886E-01 0.21124355E+03</pdfrwt>
<totfact> 0.39655890E+04</totfact>
</mgrwt>
</event>
<event>
 4    2  0.4063641E+000  0.2108984E+03  0.7546771E-02  0.1140857E+00
         21   -1    0    0  503  502  0.00000000000E+00  0.00000000000E+00  0.37104921720E+03  0.37104921720E+03  0.00000000000E+00 0.  1.
         21   -1    0    0  501  503 -0.00000000000E+00 -0.00000000000E+00 -0.20585148397E+03  0.20585148397E+03  0.00000000000E+00 0. -1.
          6    1    1    2  501    0  0.92194259793E+02  0.77777604060E+02 -0.10382149918E+03  0.23506816229E+03  0.17300000000E+03 0. -1.
         -6    1    1    2    0  502 -0.92194259793E+02 -0.77777604060E+02  0.26901923241E+03  0.34183253888E+03  0.17300000000E+03 0.  1.
<mgrwt>
<rscale>  2 0.21089841E+03</rscale>
<asrwt>0</asrwt>
<pdfrwt beam="1">  1       21 0.57084495E-01 0.21089841E+03</pdfrwt>
<pdfrwt beam="2">  1       21 0.31669459E-01 0.21089841E+03</pdfrwt>
<totfact> 0.27350914E+04</totfact>
</mgrwt>
</event>
<event>
 4    2  0.4063641E+000  0.4036553E+03  0.7546771E-02  0.1042521E+00
         21   -1    0    0  503  502  0.00000000000E+00  0.00000000000E+00  0.69854537583E+03  0.69854537583E+03  0.00000000000E+00 0.  1.
         21   -1    0    0  501  503 -0.00000000000E+00 -0.00000000000E+00 -0.26011537157E+03  0.26011537157E+03  0.00000000000E+00 0. -1.
          6    1    1    2  501    0  0.26616547120E+03 -0.24932812016E+03  0.65177369202E+02  0.40888342962E+03  0.17300000000E+03 0. -1.
         -6    1    1    2    0  502 -0.26616547120E+03  0.24932812016E+03  0.37325263505E+03  0.54977731777E+03  0.17300000000E+03 0.  1.
<mgrwt>
<rscale>  2 0.40365526E+03</rscale>
<asrwt>0</asrwt>
<pdfrwt beam="1">  1       21 0.10746852E+00 0.40365526E+03</pdfrwt>
<pdfrwt beam="2">  1       21 0.40017750E-01 0.40365526E+03</pdfrwt>
<totfact> 0.36883112E+03</totfact>
</mgrwt>
</event>
<event>
 4    2  0.4063641E+000  0.2389980E+03  0.7546771E-02  0.1120462E+00
         21   -1    0    0  503  502  0.00000000000E+00  0.00000000000E+00  0.55127236006E+02  0.55127236006E+02  0.00000000000E+00 0. -1.
         21   -1    0    0  501  503 -0.00000000000E+00 -0.00000000000E+00 -0.12366058209E+04  0.12366058209E+04  0.00000000000E+00 0.  1.
          6    1    1    2  501    0  0.16453381834E+03 -0.10939432841E+02 -0.85077752070E+03  0.88370947618E+03  0.17300000000E+03 0.  1.
         -6    1    1    2    0  502 -0.16453381834E+03  0.10939432841E+02 -0.33070106421E+03  0.40802358074E+03  0.17300000000E+03 0. -1.
<mgrwt>
<rscale>  2 0.23899801E+03</rscale>
<asrwt>0</asrwt>
<pdfrwt beam="1">  1       21 0.84811131E-02 0.23899801E+03</pdfrwt>
<pdfrwt beam="2">  1       21 0.19024705E+00 0.23899801E+03</pdfrwt>
<totfact> 0.16297138E+04</totfact>
</mgrwt>
</event>
<event>
 4    2  0.4063641E+000  0.1958940E+03  0.7546771E-02  0.1153250E+00
         21   -1    0    0  503  502  0.00000000000E+00  0.00000000000E+00  0.85469233090E+02  0.85469233090E+02  0.00000000000E+00 0. -1.
         21   -1    0    0  501  503 -0.00000000000E+00 -0.00000000000E+00 -0.68585543498E+03  0.68585543498E+03  0.00000000000E+00 0.  1.
          6    1    1    2  501    0 -0.35280010602E+02  0.84857409226E+02 -0.52683790510E+03  0.56207885328E+03  0.17300000000E+03 0.  1.
         -6    1    1    2    0  502  0.35280010602E+02 -0.84857409226E+02 -0.73548296790E+02  0.20924581480E+03  0.17300000000E+03 0. -1.
<mgrwt>
<rscale>  2 0.19589400E+03</rscale>
<asrwt>0</asrwt>
<pdfrwt beam="1">  1       21 0.13149113E-01 0.19589400E+03</pdfrwt>
<pdfrwt beam="2">  1       21 0.10551622E+00 0.19589400E+03</pdfrwt>
<totfact> 0.35892395E+04</totfact>
</mgrwt>
</event>
<event>
 4    2  0.4063641E+000  0.2193382E+03  0.7546771E-02  0.1134377E+00
         21   -1    0    0  501  502  0.00000000000E+00  0.00000000000E+00  0.87917665935E+02  0.87917665935E+02  0.00000000000E+00 0. -1.
         21   -1    0    0  502  503 -0.00000000000E+00 -0.00000000000E+00 -0.68148678092E+03  0.68148678092E+03  0.00000000000E+00 0.  1.
          6    1    1    2  501    0  0.43147344603E+02 -0.12774403481E+03 -0.12601910587E+03  0.25296254035E+03  0.17300000000E+03 0. -1.
         -6    1    1    2    0  503 -0.43147344603E+02  0.12774403481E+03 -0.46755000911E+03  0.51644190650E+03  0.17300000000E+03 0.  1.
<mgrwt>
<rscale>  2 0.21933817E+03</rscale>
<asrwt>0</asrwt>
<pdfrwt beam="1">  1       21 0.13525795E-01 0.21933817E+03</pdfrwt>
<pdfrwt beam="2">  1       21 0.10484412E+00 0.21933817E+03</pdfrwt>
<totfact> 0.34196751E+04</totfact>
</mgrwt>
</event>
<event>
 4    2  0.4063641E+000  0.2814724E+03  0.7546771E-02  0.1094887E+00
         21   -1    0    0  503  502  0.00000000000E+00  0.00000000000E+00  0.36196918432E+03  0.36196918432E+03  0.00000000000E+00 0. -1.
         21   -1    0    0  501  503 -0.00000000000E+00 -0.00000000000E+00 -0.25130891048E+03  0.25130891048E+03  0.00000000000E+00 0.  1.
          6    1    1    2  501    0 -0.22191560291E+03  0.71520378275E+01  0.16548674872E+03  0.32651577368E+03  0.17300000000E+03 0. -1.
         -6    1    1    2    0  502  0.22191560291E+03 -0.71520378275E+01 -0.54826474882E+02  0.28676232111E+03  0.17300000000E+03 0.  1.
<mgrwt>
<rscale>  2 0.28147235E+03</rscale>
<asrwt>0</asrwt>
<pdfrwt beam="1">  1       21 0.55687567E-01 0.28147235E+03</pdfrwt>
<pdfrwt beam="2">  1       21 0.38662909E-01 0.28147235E+03</pdfrwt>
<totfact> 0.18716664E+04</totfact>
</mgrwt>
</event>
<event>
 4    2  0.4063641E+000  0.1830411E+03  0.7546771E-02  0.1164892E+00
         21   -1    0    0  501  502  0.00000000000E+00  0.00000000000E+00  0.26309924146E+02  0.26309924146E+02  0.00000000000E+00 0. -1.
         21   -1    0    0  502  503 -0.00000000000E+00 -0.00000000000E+00 -0.12909291516E+04  0.12909291516E+04  0.00000000000E+00 0. -1.
          6    1    1    2  501    0  0.47683927096E+02  0.36073111947E+02 -0.55564284203E+03  0.58501537947E+03  0.17300000000E+03 0. -1.
         -6    1    1    2    0  503 -0.47683927096E+02 -0.36073111947E+02 -0.70897638538E+03  0.73222369624E+03  0.17300000000E+03 0. -1.
<mgrwt>
<rscale>  2 0.18304105E+03</rscale>
<asrwt>0</asrwt>
<pdfrwt beam="1">  1       21 0.40476804E-02 0.18304105E+03</pdfrwt>
<pdfrwt beam="2">  1       21 0.19860450E+00 0.18304105E+03</pdfrwt>
<totfact> 0.52983515E+04</totfact>
</mgrwt>
</event>
<event>
 4    2  0.4063641E+000  0.2069898E+03  0.7546771E-02  0.1143972E+00
         21   -1    0    0  501  502  0.00000000000E+00  0.00000000000E+00  0.80310849249E+03  0.80310849249E+03  0.00000000000E+00 0. -1.
         21   -1    0    0  502  503 -0.00000000000E+00 -0.00000000000E+00 -0.53923902721E+02  0.53923902721E+02  0.00000000000E+00 0.  1.
          6    1    1    2  501    0 -0.80889366309E+02  0.79829099801E+02  0.33033385398E+03  0.38982717946E+03  0.17300000000E+03 0.  1.
         -6    1    1    2    0  503  0.80889366309E+02 -0.79829099801E+02  0.41885073578E+03  0.46720521575E+03  0.17300000000E+03 0. -1.
<mgrwt>
<rscale>  2 0.20698979E+03</rscale>
<asrwt>0</asrwt>
<pdfrwt beam="1">  1       21 0.12355514E+00 0.20698979E+03</pdfrwt>
<pdfrwt beam="2">  1       21 0.82959856E-02 0.20698979E+03</pdfrwt>
<totfact> 0.54904287E+04</totfact>
</mgrwt>
</event>
<event>
 4    2  0.4063641E+000  0.3430188E+03  0.7546771E-02  0.1065517E+00
         21   -1    0    0  503  502  0.00000000000E+00  0.00000000000E+00  0.77362520443E+03  0.77362520443E+03  0.00000000000E+00 0.  1.
         21   -1    0    0  501  503 -0.00000000000E+00 -0.00000000000E+00 -0.41150943251E+03  0.41150943251E+03  0.00000000000E+00 0.  1.
          6    1    1    2  501    0  0.10849852297E+03 -0.27561011784E+03 -0.28942923793E+03  0.44881081795E+03  0.17300000000E+03 0.  1.
         -6    1    1    2    0  502 -0.10849852297E+03  0.27561011784E+03  0.65154500986E+03  0.73632381899E+03  0.17300000000E+03 0.  1.
<mgrwt>
<rscale>  2 0.34301876E+03</rscale>
<asrwt>0</asrwt>
<pdfrwt beam="1">  1       21 0.11901926E+00 0.34301876E+03</pdfrwt>
<pdfrwt beam="2">  1       21 0.63309144E-01 0.34301876E+03</pdfrwt>
<totfact> 0.11122956E+03</totfact>
</mgrwt>
</event>
<event>
 4    2  0.4063641E+000  0.3986685E+03  0.7546771E-02  0.1044242E+00
         21   -1    0    0  501  502  0.00000000000E+00  0.00000000000E+00  0.14238176430E+03  0.14238176430E+03  0.00000000000E+00 0. -1.
         21   -1    0    0  502  503 -0.00000000000E+00 -0.00000000000E+00 -0.11276254757E+04  0.11276254757E+04  0.00000000000E+00 0.  1.
          6    1    1    2  501    0 -0.47415826777E+02 -0.35603277217E+03 -0.55634284846E+03  0.68443696607E+03  0.17300000000E+03 0.  1.
         -6    1    1    2    0  503  0.47415826777E+02  0.35603277217E+03 -0.42890086298E+03  0.58557027396E+03  0.17300000000E+03 0.  1.
<mgrwt>
<rscale>  2 0.39866853E+03</rscale>
<asrwt>0</asrwt>
<pdfrwt beam="1">  1       21 0.21904886E-01 0.39866853E+03</pdfrwt>
<pdfrwt beam="2">  1       21 0.17348085E+00 0.39866853E+03</pdfrwt>
<totfact> 0.34489876E+03</totfact>
</mgrwt>
</event>
<event>
 4    2  0.4063641E+000  0.1806036E+03  0.7546771E-02  0.1167220E+00
         21   -1    0    0  501  502  0.00000000000E+00  0.00000000000E+00  0.37067477141E+02  0.37067477141E+02  0.00000000000E+00 0.  1.
         21   -1    0    0  502  503 -0.00000000000E+00 -0.00000000000E+00 -0.11995013582E+04  0.11995013582E+04  0.00000000000E+00 0. -1.
          6    1    1    2  501    0 -0.50133592761E+02  0.13238841904E+02 -0.26209540852E+03  0.31829490606E+03  0.17300000000E+03 0.  1.
         -6    1    1    2    0  503  0.50133592761E+02 -0.13238841904E+02 -0.90033847249E+03  0.91827392923E+03  0.17300000000E+03 0. -1.
<mgrwt>
<rscale>  2 0.18060355E+03</rscale>
<asrwt>0</asrwt>
<pdfrwt beam="1">  1       21 0.57026899E-02 0.18060355E+03</pdfrwt>
<pdfrwt beam="2">  1       21 0.18453863E+00 0.18060355E+03</pdfrwt>
<totfact> 0.36760549E+04</totfact>
</mgrwt>
</event>
<event>
 4    2  0.4063641E+000  0.2585646E+03  0.7546771E-02  0.1108009E+00
         21   -1    0    0  503  502  0.00000000000E+00  0.00000000000E+00  0.32398589469E+02  0.32398589469E+02  0.00000000000E+00 0.  1.
         21   -1    0    0  501  503 -0.00000000000E+00 -0.00000000000E+00 -0.26538648534E+04  0.26538648534E+04  0.00000000000E+00 0. -1.
          6    1    1    2  501    0  0.37734855982E+02 -0.18842165935E+03 -0.19442036047E+04  0.19613218241E+04  0.17300000000E+03 0. -1.
         -6    1    1    2    0  502 -0.37734855982E+02  0.18842165935E+03 -0.67726265920E+03  0.72494161876E+03  0.17300000000E+03 0.  1.
<mgrwt>
<rscale>  2 0.25856458E+03</rscale>
<asrwt>0</asrwt>
<pdfrwt beam="1">  1       21 0.49843990E-02 0.25856458E+03</pdfrwt>
<pdfrwt beam="2">  1       21 0.40828685E+00 0.25856458E+03</pdfrwt>
<totfact> 0.19234077E+03</totfact>
</mgrwt>
</event>
<event>
 4    2  0.4063641E+000  0.1873765E+03  0.7546771E-02  0.1160849E+00
         21   -1    0    0  503  502  0.00000000000E+00  0.00000000000E+00  0.35193894666E+03  0.35193894666E+03  0.00000000000E+00 0. -1.
         21   -1    0    0  501  503 -0.00000000000E+00 -0.00000000000E+00 -0.40081813727E+03  0.40081813727E+03  0.00000000000E+00 0. -1.
          6    1    1    2  501    0  0.49363468323E+02  0.52385073729E+02 -0.35063308954E+03  0.39755944390E+03  0.17300000000E+03 0. -1.
         -6    1    1    2    0  502 -0.49363468323E+02 -0.52385073729E+02  0.30175389894E+03  0.35519764002E+03  0.17300000000E+03 0. -1.
<mgrwt>
<rscale>  2 0.18737649E+03</rscale>
<asrwt>0</asrwt>
<pdfrwt beam="1">  1       21 0.54144454E-01 0.18737649E+03</pdfrwt>
<pdfrwt beam="2">  1       21 0.61664329E-01 0.18737649E+03</pdfrwt>
<totfact> 0.79068780E+03</totfact>
</mgrwt>
</event>
<event>
 4    2  0.4063641E+000  0.2052863E+03  0.7546771E-02  0.1145354E+00
         21   -1    0    0  501  502  0.00000000000E+00  0.00000000000E+00  0.11527309253E+03  0.11527309253E+03  0.00000000000E+00 0.  1.
         21   -1    0    0  502  503 -0.00000000000E+00 -0.00000000000E+00 -0.42135272070E+03  0.42135272070E+03  0.00000000000E+00 0. -1.
          6    1    1    2  501    0 -0.11466902706E+02 -0.10991795987E+03 -0.55428801047E+02  0.21263771948E+03  0.17300000000E+03 0.  1.
         -6    1    1    2    0  503  0.11466902706E+02  0.10991795987E+03 -0.25065082712E+03  0.32398809376E+03  0.17300000000E+03 0. -1.
<mgrwt>
<rscale>  2 0.20528626E+03</rscale>
<asrwt>0</asrwt>
<pdfrwt beam="1">  1       21 0.17734322E-01 0.20528626E+03</pdfrwt>
<pdfrwt beam="2">  1       21 0.64823495E-01 0.20528626E+03</pdfrwt>
<totfact> 0.62898293E+04</totfact>
</mgrwt>
</event>
<event>
 4    2  0.4063641E+000  0.2099800E+03  0.7546771E-02  0.1141582E+00
         21   -1    0    0  503  502  0.00000000000E+00  0.00000000000E+00  0.15026129977E+03  0.15026129977E+03  0.00000000000E+00 0. -1.
         21   -1    0    0  501  503 -0.00000000000E+00 -0.00000000000E+00 -0.51263226222E+03  0.51263226222E+03  0.00000000000E+00 0. -1.
          6    1    1    2  501    0  0.64127280491E+02  0.10025116958E+03  0.35550245608E+02  0.21296813158E+03  0.17300000000E+03 0. -1.
         -6    1    1    2    0  502 -0.64127280491E+02 -0.10025116958E+03 -0.39792120806E+03  0.44992543041E+03  0.17300000000E+03 0. -1.
<mgrwt>
<rscale>  2 0.20998001E+03</rscale>
<asrwt>0</asrwt>
<pdfrwt beam="1">  1       21 0.23117123E-01 0.20998001E+03</pdfrwt>
<pdfrwt beam="2">  1       21 0.78866503E-01 0.20998001E+03</pdfrwt>
<totfact> 0.24719794E+04</totfact>
</mgrwt>
</event>
<event>
 4    2  0.4063641E+000  0.1766727E+03  0.7546771E-02  0.1171063E+00
         21   -1    0    0  503  502  0.00000000000E+00  0.00000000000E+00  0.14030693978E+04  0.14030693978E+04  0.00000000000E+00 0.  1.
         21   -1    0    0  501  503 -0.00000000000E+00 -0.00000000000E+00 -0.23006662259E+02  0.23006662259E+02  0.00000000000E+00 0.  1.
          6    1    1    2  501    0 -0.31260281220E+02 -0.17522749370E+02  0.56041322510E+03  0.58760210584E+03  0.17300000000E+03 0. -1.
         -6    1    1    2    0  502  0.31260281220E+02  0.17522749370E+02  0.81964951042E+03  0.83847395419E+03  0.17300000000E+03 0. -1.
<mgrwt>
<rscale>  2 0.17667273E+03</rscale>
<asrwt>0</asrwt>
<pdfrwt beam="1">  1       21 0.21585676E+00 0.17667273E+03</pdfrwt>
<pdfrwt beam="2">  1       21 0.35394876E-02 0.17667273E+03</pdfrwt>
<totfact> 0.51866769E+04</totfact>
</mgrwt>
</event>
<event>
 4    2  0.4063641E+000  0.2949759E+03  0.7546771E-02  0.1087779E+00
         21   -1    0    0  503  502  0.00000000000E+00  0.00000000000E+00  0.53534141980E+02  0.53534141980E+02  0.00000000000E+00 0. -1.
         21   -1    0    0  501  503 -0.00000000000E+00 -0.00000000000E+00 -0.16466639208E+04  0.16466639208E+04  0.00000000000E+00 0. -1.
          6    1    1    2  501    0  0.11261948394E+03  0.21070988546E+03 -0.69981008891E+03  0.75943726833E+03  0.17300000000E+03 0. -1.
         -6    1    1    2    0  502 -0.11261948394E+03 -0.21070988546E+03 -0.89331968995E+03  0.94076079448E+03  0.17300000000E+03 0. -1.
<mgrwt>
<rscale>  2 0.29497594E+03</rscale>
<asrwt>0</asrwt>
<pdfrwt beam="1">  1       21 0.82360213E-02 0.29497594E+03</pdfrwt>
<pdfrwt beam="2">  1       21 0.25333293E+00 0.29497594E+03</pdfrwt>
<totfact> 0.66686394E+03</totfact>
</mgrwt>
</event>
<event>
 4    2  0.4063641E+000  0.1814782E+03  0.7546771E-02  0.1166380E+00
         21   -1    0    0  501  502  0.00000000000E+00  0.00000000000E+00  0.38303389583E+03  0.38303389583E+03  0.00000000000E+00 0. -1.
         21   -1    0    0  502  503 -0.00000000000E+00 -0.00000000000E+00 -0.13738130066E+03  0.13738130066E+03  0.00000000000E+00 0. -1.
          6    1    1    2  501    0  0.51920333318E+02 -0.17596195092E+02  0.28198528382E+03  0.33533572340E+03  0.17300000000E+03 0. -1.
         -6    1    1    2    0  503 -0.51920333318E+02  0.17596195092E+02 -0.36332688653E+02  0.18507947309E+03  0.17300000000E+03 0. -1.
<mgrwt>
<rscale>  2 0.18147823E+03</rscale>
<asrwt>0</asrwt>
<pdfrwt beam="1">  1       21 0.58928291E-01 0.18147823E+03</pdfrwt>
<pdfrwt beam="2">  1       21 0.21135585E-01 0.18147823E+03</pdfrwt>
<totfact> 0.56347900E+04</totfact>
</mgrwt>
</event>
<event>
 4    2  0.4063641E+000  0.1761384E+03  0.7546771E-02  0.1171594E+00
         21   -1    0    0  503  502  0.00000000000E+00  0.00000000000E+00  0.17457248866E+03  0.17457248866E+03  0.00000000000E+00 0. -1.
         21   -1    0    0  501  503 -0.00000000000E+00 -0.00000000000E+00 -0.22711172318E+03  0.22711172318E+03  0.00000000000E+00 0. -1.
          6    1    1    2  501    0 -0.68843170294E+01 -0.32378119201E+02 -0.11993288132E+03  0.21309301360E+03  0.17300000000E+03 0.  1.
         -6    1    1    2    0  502  0.68843170294E+01  0.32378119201E+02  0.67393646799E+02  0.18859119824E+03  0.17300000000E+03 0.  1.
<mgrwt>
<rscale>  2 0.17613840E+03</rscale>
<asrwt>0</asrwt>
<pdfrwt beam="1">  1       21 0.26857306E-01 0.17613840E+03</pdfrwt>
<pdfrwt beam="2">  1       21 0.34940265E-01 0.17613840E+03</pdfrwt>
<totfact> 0.10489601E+05</totfact>
</mgrwt>
</event>
<event>
 4    2  0.4063641E+000  0.2572581E+03  0.7546771E-02  0.1108802E+00
         21   -1    0    0  503  502  0.00000000000E+00  0.00000000000E+00  0.81701222195E+03  0.81701222195E+03  0.00000000000E+00 0. -1.
         21   -1    0    0  501  503 -0.00000000000E+00 -0.00000000000E+00 -0.91307855133E+02  0.91307855133E+02  0.00000000000E+00 0.  1.
          6    1    1    2  501    0  0.30927337007E+02 -0.18787288196E+03  0.51541292957E+03  0.57604878954E+03  0.17300000000E+03 0. -1.
         -6    1    1    2    0  502 -0.30927337007E+02  0.18787288196E+03  0.21029143725E+03  0.33227128755E+03  0.17300000000E+03 0.  1.
<mgrwt>
<rscale>  2 0.25725808E+03</rscale>
<asrwt>0</asrwt>
<pdfrwt beam="1">  1       21 0.12569418E+00 0.25725808E+03</pdfrwt>
<pdfrwt beam="2">  1       21 0.14047363E-01 0.25725808E+03</pdfrwt>
<totfact> 0.20032322E+04</totfact>
</mgrwt>
</event>
<event>
 4    2  0.4063641E+000  0.2173514E+03  0.7546771E-02  0.1135873E+00
         21   -1    0    0  501  502  0.00000000000E+00  0.00000000000E+00  0.41079303278E+03  0.41079303278E+03  0.00000000000E+00 0. -1.
         21   -1    0    0  502  503 -0.00000000000E+00 -0.00000000000E+00 -0.11910869879E+03  0.11910869879E+03  0.00000000000E+00 0. -1.
          6    1    1    2  501    0  0.12747775036E+03  0.32589211622E+02  0.19504496622E+03  0.29203453973E+03  0.17300000000E+03 0. -1.
         -6    1    1    2    0  503 -0.12747775036E+03 -0.32589211622E+02  0.96639367769E+02  0.23786719184E+03  0.17300000000E+03 0. -1.
<mgrwt>
<rscale>  2 0.21735141E+03</rscale>
<asrwt>0</asrwt>
<pdfrwt beam="1">  1       21 0.63198928E-01 0.21735141E+03</pdfrwt>
<pdfrwt beam="2">  1       21 0.18324415E-01 0.21735141E+03</pdfrwt>
<totfact> 0.62221991E+04</totfact>
</mgrwt>
</event>
<event>
 4    2  0.4063641E+000  0.1747636E+03  0.7546771E-02  0.1172969E+00
         21   -1    0    0  501  502  0.00000000000E+00  0.00000000000E+00  0.17042765631E+03  0.17042765631E+03  0.00000000000E+00 0. -1.
         21   -1    0    0  502  503 -0.00000000000E+00 -0.00000000000E+00 -0.19191106285E+03  0.19191106285E+03  0.00000000000E+00 0. -1.
          6    1    1    2  501    0 -0.23890053028E+02  0.65265442567E+01 -0.57349198835E+02  0.18393276223E+03  0.17300000000E+03 0. -1.
         -6    1    1    2    0  503  0.23890053028E+02 -0.65265442567E+01  0.35865792289E+02  0.17840595694E+03  0.17300000000E+03 0. -1.
<mgrwt>
<rscale>  2 0.17476364E+03</rscale>
<asrwt>0</asrwt>
<pdfrwt beam="1">  1       21 0.26219639E-01 0.17476364E+03</pdfrwt>
<pdfrwt beam="2">  1       21 0.29524779E-01 0.17476364E+03</pdfrwt>
<totfact> 0.15287203E+05</totfact>
</mgrwt>
</event>
<event>
 4    2  0.4063641E+000  0.2693837E+03  0.7546771E-02  0.1101633E+00
         21   -1    0    0  501  502  0.00000000000E+00  0.00000000000E+00  0.50335731367E+03  0.50335731367E+03  0.00000000000E+00 0.  1.
         21   -1    0    0  502  503 -0.00000000000E+00 -0.00000000000E+00 -0.14706354555E+03  0.14706354555E+03  0.00000000000E+00 0.  1.
          6    1    1    2  501    0  0.12228598388E+03  0.16638728548E+03  0.13250740335E+03  0.30020959773E+03  0.17300000000E+03 0.  1.
         -6    1    1    2    0  503 -0.12228598388E+03 -0.16638728548E+03  0.22378636476E+03  0.35021126149E+03  0.17300000000E+03 0.  1.
<mgrwt>
<rscale>  2 0.26938372E+03</rscale>
<asrwt>0</asrwt>
<pdfrwt beam="1">  1       21 0.77439586E-01 0.26938372E+03</pdfrwt>
<pdfrwt beam="2">  1       21 0.22625161E-01 0.26938372E+03</pdfrwt>
<totfact> 0.26070883E+04</totfact>
</mgrwt>
</event>
<event>
 4    2  0.4063641E+000  0.1911296E+03  0.7546771E-02  0.1157446E+00
         21   -1    0    0  501  502  0.00000000000E+00  0.00000000000E+00  0.49948976562E+03  0.49948976562E+03  0.00000000000E+00 0. -1.
         21   -1    0    0  502  503 -0.00000000000E+00 -0.00000000000E+00 -0.39437654133E+03  0.39437654133E+03  0.00000000000E+00 0. -1.
          6    1    1    2  501    0 -0.81428039978E+00 -0.81245584600E+02  0.45592554557E+03  0.49436687913E+03  0.17300000000E+03 0. -1.
         -6    1    1    2    0  503  0.81428039978E+00  0.81245584600E+02 -0.35081232128E+03  0.39949942783E+03  0.17300000000E+03 0. -1.
<mgrwt>
<rscale>  2 0.19112956E+03</rscale>
<asrwt>0</asrwt>
<pdfrwt beam="1">  1       21 0.76844579E-01 0.19112956E+03</pdfrwt>
<pdfrwt beam="2">  1       21 0.60673314E-01 0.19112956E+03</pdfrwt>
<totfact> 0.38142363E+03</totfact>
</mgrwt>
</event>
<event>
 4    2  0.4063641E+000  0.1732476E+03  0.7546771E-02  0.1174503E+00
         21   -1    0    0  501  502  0.00000000000E+00  0.00000000000E+00  0.39744470427E+03  0.39744470427E+03  0.00000000000E+00 0. -1.
         21   -1    0    0  502  503 -0.00000000000E+00 -0.00000000000E+00 -0.10523424302E+03  0.10523424302E+03  0.00000000000E+00 0. -1.
          6    1    1    2  501    0 -0.81153540535E+01 -0.44579455192E+01  0.27966321668E+03  0.32897757828E+03  0.17300000000E+03 0. -1.
         -6    1    1    2    0  503  0.81153540535E+01  0.44579455192E+01  0.12547244577E+02  0.17370136901E+03  0.17300000000E+03 0. -1.
<mgrwt>
<rscale>  2 0.17324760E+03</rscale>
<asrwt>0</asrwt>
<pdfrwt beam="1">  1       21 0.61145339E-01 0.17324760E+03</pdfrwt>
<pdfrwt beam="2">  1       21 0.16189884E-01 0.17324760E+03</pdfrwt>
<totfact> 0.85572921E+04</totfact>
</mgrwt>
</event>
<event>
 4    2  0.4063641E+000  0.1836652E+03  0.7546771E-02  0.1164302E+00
         21   -1    0    0  503  502  0.00000000000E+00  0.00000000000E+00  0.67604038237E+02  0.67604038237E+02  0.00000000000E+00 0. -1.
         21   -1    0    0  501  503 -0.00000000000E+00 -0.00000000000E+00 -0.52740828158E+03  0.52740828158E+03  0.00000000000E+00 0. -1.
          6    1    1    2  501    0  0.58447523471E+02  0.19692508400E+02 -0.29897623504E+03  0.35088416466E+03  0.17300000000E+03 0. -1.
         -6    1    1    2    0  502 -0.58447523471E+02 -0.19692508400E+02 -0.16082800830E+03  0.24412815516E+03  0.17300000000E+03 0. -1.
<mgrwt>
<rscale>  2 0.18366521E+03</rscale>
<asrwt>0</asrwt>
<pdfrwt beam="1">  1       21 0.10400621E-01 0.18366521E+03</pdfrwt>
<pdfrwt beam="2">  1       21 0.81139735E-01 0.18366521E+03</pdfrwt>
<totfact> 0.10118694E+05</totfact>
</mgrwt>
</event>
<event>
 4    2  0.4063641E+000  0.1870918E+03  0.7546771E-02  0.1161111E+00
         21   -1    0    0  503  502  0.00000000000E+00  0.00000000000E+00  0.84079236701E+02  0.84079236701E+02  0.00000000000E+00 0. -1.
         21   -1    0    0  501  503 -0.00000000000E+00 -0.00000000000E+00 -0.84646267257E+03  0.84646267257E+03  0.00000000000E+00 0. -1.
          6    1    1    2  501    0  0.17831149688E+02  0.68966542911E+02 -0.71286577735E+03  0.73700810745E+03  0.17300000000E+03 0. -1.
         -6    1    1    2    0  502 -0.17831149688E+02 -0.68966542911E+02 -0.49517658523E+02  0.19353380182E+03  0.17300000000E+03 0. -1.
<mgrwt>
<rscale>  2 0.18709178E+03</rscale>
<asrwt>0</asrwt>
<pdfrwt beam="1">  1       21 0.12935268E-01 0.18709178E+03</pdfrwt>
<pdfrwt beam="2">  1       21 0.13022502E+00 0.18709178E+03</pdfrwt>
<totfact> 0.22151207E+04</totfact>
</mgrwt>
</event>
<event>
 4    2  0.4063641E+000  0.1956079E+03  0.7546771E-02  0.1153498E+00
         21   -1    0    0  501  502  0.00000000000E+00  0.00000000000E+00  0.44756926444E+02  0.44756926444E+02  0.00000000000E+00 0.  1.
         21   -1    0    0  502  503 -0.00000000000E+00 -0.00000000000E+00 -0.12390341059E+04  0.12390341059E+04  0.00000000000E+00 0.  1.
          6    1    1    2  501    0  0.22014944929E+02 -0.88593391162E+02 -0.23972809643E+03  0.30940589357E+03  0.17300000000E+03 0.  1.
         -6    1    1    2    0  503 -0.22014944929E+02  0.88593391162E+02 -0.95454908304E+03  0.97438513879E+03  0.17300000000E+03 0.  1.
<mgrwt>
<rscale>  2 0.19560789E+03</rscale>
<asrwt>0</asrwt>
<pdfrwt beam="1">  1       21 0.68856823E-02 0.19560789E+03</pdfrwt>
<pdfrwt beam="2">  1       21 0.19062059E+00 0.19560789E+03</pdfrwt>
<totfact> 0.23994974E+04</totfact>
</mgrwt>
</event>
<event>
 4    2  0.4063641E+000  0.1785781E+03  0.7546771E-02  0.1169186E+00
         21   -1    0    0  501  502  0.00000000000E+00  0.00000000000E+00  0.13437185725E+04  0.13437185725E+04  0.00000000000E+00 0.  1.
         21   -1    0    0  502  503 -0.00000000000E+00 -0.00000000000E+00 -0.15236713875E+03  0.15236713875E+03  0.00000000000E+00 0.  1.
          6    1    1    2  501    0 -0.21400345624E+02 -0.38770537838E+02  0.12829963420E+04  0.12953647143E+04  0.17300000000E+03 0.  1.
         -6    1    1    2    0  503  0.21400345624E+02  0.38770537838E+02 -0.91644908294E+02  0.20072099694E+03  0.17300000000E+03 0.  1.
<mgrwt>
<rscale>  2 0.17857808E+03</rscale>
<asrwt>0</asrwt>
<pdfrwt beam="1">  1       21 0.20672593E+00 0.17857808E+03</pdfrwt>
<pdfrwt beam="2">  1       21 0.23441099E-01 0.17857808E+03</pdfrwt>
<totfact> 0.21150453E+03</totfact>
</mgrwt>
</event>
<event>
 4    2  0.4063641E+000  0.1849873E+03  0.7546771E-02  0.1163062E+00
         21   -1    0    0  503  502  0.00000000000E+00  0.00000000000E+00  0.13854742206E+03  0.13854742206E+03  0.00000000000E+00 0.  1.
         21   -1    0    0  501  503 -0.00000000000E+00 -0.00000000000E+00 -0.36159784300E+03  0.36159784300E+03  0.00000000000E+00 0.  1.
          6    1    1    2  501    0 -0.51821103461E+02  0.40073403065E+02 -0.25230940541E+03  0.31285833928E+03  0.17300000000E+03 0.  1.
         -6    1    1    2    0  502  0.51821103461E+02 -0.40073403065E+02  0.29258984471E+02  0.18728692578E+03  0.17300000000E+03 0.  1.
<mgrwt>
<rscale>  2 0.18498731E+03</rscale>
<asrwt>0</asrwt>
<pdfrwt beam="1">  1       21 0.21314988E-01 0.18498731E+03</pdfrwt>
<pdfrwt beam="2">  1       21 0.55630437E-01 0.18498731E+03</pdfrwt>
<totfact> 0.62590289E+04</totfact>
</mgrwt>
</event>
<event>
 4    2  0.4063641E+000  0.1743597E+03  0.7546771E-02  0.1173376E+00
         21   -1    0    0  501  502  0.00000000000E+00  0.00000000000E+00  0.41154654981E+02  0.41154654981E+02  0.00000000000E+00 0.  1.
         21   -1    0    0  502  503 -0.00000000000E+00 -0.00000000000E+00 -0.80442774878E+03  0.80442774878E+03  0.00000000000E+00 0.  1.
          6    1    1    2  501    0  0.11390408042E+02 -0.18508194836E+02 -0.26079156619E+03  0.31370931715E+03  0.17300000000E+03 0.  1.
         -6    1    1    2    0  503 -0.11390408042E+02  0.18508194836E+02 -0.50248152761E+03  0.53187308661E+03  0.17300000000E+03 0.  1.
<mgrwt>
<rscale>  2 0.17435967E+03</rscale>
<asrwt>0</asrwt>
<pdfrwt beam="1">  1       21 0.63314849E-02 0.17435967E+03</pdfrwt>
<pdfrwt beam="2">  1       21 0.12375813E+00 0.17435967E+03</pdfrwt>
<totfact> 0.88682111E+04</totfact>
</mgrwt>
</event>
<event>
 4    2  0.4063641E+000  0.2487175E+03  0.7546771E-02  0.1114118E+00
         21   -1    0    0  503  502  0.00000000000E+00  0.00000000000E+00  0.28359933768E+03  0.28359933768E+03  0.00000000000E+00 0.  1.
         21   -1    0    0  501  503 -0.00000000000E+00 -0.00000000000E+00 -0.26320088958E+03  0.26320088958E+03  0.00000000000E+00 0.  1.
          6    1    1    2  501    0 -0.42437475580E+02  0.17358128225E+03 -0.10294233282E+03  0.26917935428E+03  0.17300000000E+03 0.  1.
         -6    1    1    2    0  502  0.42437475580E+02 -0.17358128225E+03  0.12334078092E+03  0.27762087299E+03  0.17300000000E+03 0.  1.
<mgrwt>
<rscale>  2 0.24871751E+03</rscale>
<asrwt>0</asrwt>
<pdfrwt beam="1">  1       21 0.43630667E-01 0.24871751E+03</pdfrwt>
<pdfrwt beam="2">  1       21 0.40492445E-01 0.24871751E+03</pdfrwt>
<totfact> 0.28837170E+04</totfact>
</mgrwt>
</event>
<event>
 4    2  0.4063641E+000  0.1798828E+03  0.7546771E-02  0.1167916E+00
         21   -1    0    0  501  502  0.00000000000E+00  0.00000000000E+00  0.46974284016E+03  0.46974284016E+03  0.00000000000E+00 0.  1.
         21   -1    0    0  502  503 -0.00000000000E+00 -0.00000000000E+00 -0.79058525239E+02  0.79058525239E+02  0.00000000000E+00 0.  1.
          6    1    1    2  501    0  0.12023139917E+02 -0.47794173297E+02  0.29378056716E+03  0.34447766333E+03  0.17300000000E+03 0. -1.
         -6    1    1    2    0  503 -0.12023139917E+02  0.47794173297E+02  0.96903747757E+02  0.20432370206E+03  0.17300000000E+03 0. -1.
<mgrwt>
<rscale>  2 0.17988285E+03</rscale>
<asrwt>0</asrwt>
<pdfrwt beam="1">  1       21 0.72268127E-01 0.17988285E+03</pdfrwt>
<pdfrwt beam="2">  1       21 0.12162850E-01 0.17988285E+03</pdfrwt>
<totfact> 0.99408198E+04</totfact>
</mgrwt>
</event>
<event>
 4    2  0.4063641E+000  0.2088779E+03  0.7546771E-02  0.1142458E+00
         21   -1    0    0  501  502  0.00000000000E+00  0.00000000000E+00  0.17586680214E+03  0.17586680214E+03  0.00000000000E+00 0. -1.
         21   -1    0    0  502  503 -0.00000000000E+00 -0.00000000000E+00 -0.26662666025E+03  0.26662666025E+03  0.00000000000E+00 0.  1.
          6    1    1    2  501    0  0.10748835201E+03  0.46338250716E+02 -0.10372378724E+03  0.23321364312E+03  0.17300000000E+03 0.  1.
         -6    1    1    2    0  503 -0.10748835201E+03 -0.46338250716E+02  0.12963929122E+02  0.20927981927E+03  0.17300000000E+03 0.  1.
<mgrwt>
<rscale>  2 0.20887791E+03</rscale>
<asrwt>0</asrwt>
<pdfrwt beam="1">  1       21 0.27056431E-01 0.20887791E+03</pdfrwt>
<pdfrwt beam="2">  1       21 0.41019486E-01 0.20887791E+03</pdfrwt>
<totfact> 0.73987293E+04</totfact>
</mgrwt>
</event>
<event>
 4    2  0.4063641E+000  0.1953495E+03  0.7546771E-02  0.1153723E+00
         21   -1    0    0  501  502  0.00000000000E+00  0.00000000000E+00  0.24748810140E+03  0.24748810140E+03  0.00000000000E+00 0. -1.
         21   -1    0    0  502  503 -0.00000000000E+00 -0.00000000000E+00 -0.15682944474E+03  0.15682944474E+03  0.00000000000E+00 0. -1.
          6    1    1    2  501    0  0.53167669936E+02 -0.73522854098E+02  0.71530991757E+02  0.20803387701E+03  0.17300000000E+03 0. -1.
         -6    1    1    2    0  503 -0.53167669936E+02  0.73522854098E+02  0.19127664903E+02  0.19628366913E+03  0.17300000000E+03 0. -1.
<mgrwt>
<rscale>  2 0.19534946E+03</rscale>
<asrwt>0</asrwt>
<pdfrwt beam="1">  1       21 0.38075093E-01 0.19534946E+03</pdfrwt>
<pdfrwt beam="2">  1       21 0.24127607E-01 0.19534946E+03</pdfrwt>
<totfact> 0.10770607E+05</totfact>
</mgrwt>
</event>
<event>
 4    2  0.4063641E+000  0.2035061E+03  0.7546771E-02  0.1146814E+00
         21   -1    0    0  501  502  0.00000000000E+00  0.00000000000E+00  0.32228101025E+03  0.32228101025E+03  0.00000000000E+00 0. -1.
         21   -1    0    0  502  503 -0.00000000000E+00 -0.00000000000E+00 -0.12972112889E+03  0.12972112889E+03  0.00000000000E+00 0.  1.
          6    1    1    2  501    0  0.83716741702E+02 -0.66912193649E+02  0.11816196922E+03  0.23532315116E+03  0.17300000000E+03 0.  1.
         -6    1    1    2    0  503 -0.83716741702E+02  0.66912193649E+02  0.74397912141E+02  0.21667898798E+03  0.17300000000E+03 0.  1.
<mgrwt>
<rscale>  2 0.20350610E+03</rscale>
<asrwt>0</asrwt>
<pdfrwt beam="1">  1       21 0.49581694E-01 0.20350610E+03</pdfrwt>
<pdfrwt beam="2">  1       21 0.19957097E-01 0.20350610E+03</pdfrwt>
<totfact> 0.89462037E+04</totfact>
</mgrwt>
</event>
<event>
 4    2  0.4063641E+000  0.1983744E+03  0.7546771E-02  0.1151118E+00
         21   -1    0    0  501  502  0.00000000000E+00  0.00000000000E+00  0.68367017829E+03  0.68367017829E+03  0.00000000000E+00 0.  1.
         21   -1    0    0  502  503 -0.00000000000E+00 -0.00000000000E+00 -0.14604480631E+03  0.14604480631E+03  0.00000000000E+00 0.  1.
          6    1    1    2  501    0 -0.81660008146E+02 -0.52488531895E+02  0.59172825489E+03  0.62409512941E+03  0.17300000000E+03 0.  1.
         -6    1    1    2    0  503  0.81660008146E+02  0.52488531895E+02 -0.54102882917E+02  0.20561985520E+03  0.17300000000E+03 0.  1.
<mgrwt>
<rscale>  2 0.19837440E+03</rscale>
<asrwt>0</asrwt>
<pdfrwt beam="1">  1       21 0.10518003E+00 0.19837440E+03</pdfrwt>
<pdfrwt beam="2">  1       21 0.22468432E-01 0.19837440E+03</pdfrwt>
<totfact> 0.13445820E+04</totfact>
</mgrwt>
</event>
<event>
 4    2  0.4063641E+000  0.1991866E+03  0.7546771E-02  0.1150427E+00
         21   -1    0    0  501  502  0.00000000000E+00  0.00000000000E+00  0.64472520632E+02  0.64472520632E+02  0.00000000000E+00 0. -1.
         21   -1    0    0  502  503 -0.00000000000E+00 -0.00000000000E+00 -0.79878491577E+03  0.79878491577E+03  0.00000000000E+00 0.  1.
          6    1    1    2  501    0  0.94249417613E+02  0.29382522063E+02 -0.16033384067E+03  0.25569948335E+03  0.17300000000E+03 0. -1.
         -6    1    1    2    0  503 -0.94249417613E+02 -0.29382522063E+02 -0.57397855447E+03  0.60755795305E+03  0.17300000000E+03 0.  1.
<mgrwt>
<rscale>  2 0.19918656E+03</rscale>
<asrwt>0</asrwt>
<pdfrwt beam="1">  1       21 0.99188493E-02 0.19918656E+03</pdfrwt>
<pdfrwt beam="2">  1       21 0.12288999E+00 0.19918656E+03</pdfrwt>
<totfact> 0.40826018E+04</totfact>
</mgrwt>
</event>
<event>
 4    2  0.4063641E+000  0.1929601E+03  0.7546771E-02  0.1155818E+00
         21   -1    0    0  501  502  0.00000000000E+00  0.00000000000E+00  0.15519598394E+04  0.15519598394E+04  0.00000000000E+00 0. -1.
         21   -1    0    0  502  503 -0.00000000000E+00 -0.00000000000E+00 -0.26503337790E+02  0.26503337790E+02  0.00000000000E+00 0.  1.
          6    1    1    2  501    0  0.47613400446E+02 -0.70975885916E+02  0.10057039848E+04  0.10240479077E+04  0.17300000000E+03 0.  1.
         -6    1    1    2    0  503 -0.47613400446E+02  0.70975885916E+02  0.51975251686E+03  0.55441526951E+03  0.17300000000E+03 0.  1.
<mgrwt>
<rscale>  2 0.19296013E+03</rscale>
<asrwt>0</asrwt>
<pdfrwt beam="1">  1       21 0.23876298E+00 0.19296013E+03</pdfrwt>
<pdfrwt beam="2">  1       21 0.40774378E-02 0.19296013E+03</pdfrwt>
<totfact> 0.29396733E+04</totfact>
</mgrwt>
</event>
<event>
 4    2  0.4063641E+000  0.2578799E+03  0.7546771E-02  0.1108424E+00
         21   -1    0    0  501  502  0.00000000000E+00  0.00000000000E+00  0.20552720095E+03  0.20552720095E+03  0.00000000000E+00 0.  1.
         21   -1    0    0  502  503 -0.00000000000E+00 -0.00000000000E+00 -0.48354845269E+03  0.48354845269E+03  0.00000000000E+00 0.  1.
          6    1    1    2  501    0 -0.15285234425E+03 -0.11493137460E+03 -0.33718620816E+03  0.42449569960E+03  0.17300000000E+03 0.  1.
         -6    1    1    2    0  503  0.15285234425E+03  0.11493137460E+03  0.59164956411E+02  0.26457995403E+03  0.17300000000E+03 0.  1.
<mgrwt>
<rscale>  2 0.25787993E+03</rscale>
<asrwt>0</asrwt>
<pdfrwt beam="1">  1       21 0.31619570E-01 0.25787993E+03</pdfrwt>
<pdfrwt beam="2">  1       21 0.74392069E-01 0.25787993E+03</pdfrwt>
<totfact> 0.14997846E+04</totfact>
</mgrwt>
</event>
<event>
 4    2  0.4063641E+000  0.2110422E+03  0.7546771E-02  0.1140743E+00
         21   -1    0    0  503  502  0.00000000000E+00  0.00000000000E+00  0.88816493552E+02  0.88816493552E+02  0.00000000000E+00 0. -1.
         21   -1    0    0  501  503 -0.00000000000E+00 -0.00000000000E+00 -0.64066469074E+03  0.64066469074E+03  0.00000000000E+00 0.  1.
          6    1    1    2  501    0 -0.11922590076E+03  0.19874850695E+02 -0.44593615555E+03  0.49335370671E+03  0.17300000000E+03 0.  1.
         -6    1    1    2    0  502  0.11922590076E+03 -0.19874850695E+02 -0.10591204164E+03  0.23612747758E+03  0.17300000000E+03 0. -1.
<mgrwt>
<rscale>  2 0.21104224E+03</rscale>
<asrwt>0</asrwt>
<pdfrwt beam="1">  1       21 0.13664076E-01 0.21104224E+03</pdfrwt>
<pdfrwt beam="2">  1       21 0.98563799E-01 0.21104224E+03</pdfrwt>
<totfact> 0.39084569E+04</totfact>
</mgrwt>
</event>
<event>
 4    2  0.4063641E+000  0.1981949E+03  0.7546771E-02  0.1151271E+00
         21   -1    0    0  501  502  0.00000000000E+00  0.00000000000E+00  0.14564025973E+03  0.14564025973E+03  0.00000000000E+00 0. -1.
         21   -1    0    0  502  503 -0.00000000000E+00 -0.00000000000E+00 -0.54659811968E+03  0.54659811968E+03  0.00000000000E+00 0. -1.
          6    1    1    2  501    0  0.11444077025E+02 -0.96027448907E+02  0.45864238767E+02  0.20343246113E+03  0.17300000000E+03 0. -1.
         -6    1    1    2    0  503 -0.11444077025E+02  0.96027448907E+02 -0.44682209872E+03  0.48880591828E+03  0.17300000000E+03 0. -1.
<mgrwt>
<rscale>  2 0.19819495E+03</rscale>
<asrwt>0</asrwt>
<pdfrwt beam="1">  1       21 0.22406194E-01 0.19819495E+03</pdfrwt>
<pdfrwt beam="2">  1       21 0.84092018E-01 0.19819495E+03</pdfrwt>
<totfact> 0.22825076E+04</totfact>
</mgrwt>
</event>
<event>
 4    2  0.4063641E+000  0.2000809E+03  0.7546771E-02  0.1149671E+00
         21   -1    0    0  503  502  0.00000000000E+00  0.00000000000E+00  0.14718499569E+03  0.14718499569E+03  0.00000000000E+00 0.  1.
         21   -1    0    0  501  503 -0.00000000000E+00 -0.00000000000E+00 -0.27566439233E+03  0.27566439233E+03  0.00000000000E+00 0.  1.
          6    1    1    2  501    0 -0.25112253180E+02 -0.97328101266E+02 -0.88659589806E+02  0.21884448227E+03  0.17300000000E+03 0. -1.
         -6    1    1    2    0  502  0.25112253180E+02  0.97328101266E+02 -0.39819806837E+02  0.20400490576E+03  0.17300000000E+03 0. -1.
<mgrwt>
<rscale>  2 0.20008095E+03</rscale>
<asrwt>0</asrwt>
<pdfrwt beam="1">  1       21 0.22643846E-01 0.20008095E+03</pdfrwt>
<pdfrwt beam="2">  1       21 0.42409906E-01 0.20008095E+03</pdfrwt>
<totfact> 0.97494057E+04</totfact>
</mgrwt>
</event>
<event>
 4    2  0.4063641E+000  0.2033246E+03  0.7546771E-02  0.1146964E+00
         21   -1    0    0  503  502  0.00000000000E+00  0.00000000000E+00  0.41486410597E+03  0.41486410597E+03  0.00000000000E+00 0.  1.
         21   -1    0    0  501  503 -0.00000000000E+00 -0.00000000000E+00 -0.18747381584E+03  0.18747381584E+03  0.00000000000E+00 0.  1.
          6    1    1    2  501    0 -0.61725367073E+02  0.87188791116E+02 -0.92438010559E+02  0.22335105111E+03  0.17300000000E+03 0.  1.
         -6    1    1    2    0  502  0.61725367073E+02 -0.87188791116E+02  0.31982830069E+03  0.37898687070E+03  0.17300000000E+03 0.  1.
<mgrwt>
<rscale>  2 0.20332463E+03</rscale>
<asrwt>0</asrwt>
<pdfrwt beam="1">  1       21 0.63825247E-01 0.20332463E+03</pdfrwt>
<pdfrwt beam="2">  1       21 0.28842126E-01 0.20332463E+03</pdfrwt>
<totfact> 0.25927585E+04</totfact>
</mgrwt>
</event>
<event>
 4    2  0.4063641E+000  0.1887263E+03  0.7546771E-02  0.1159615E+00
         21   -1    0    0  503  502  0.00000000000E+00  0.00000000000E+00  0.22067544306E+03  0.22067544306E+03  0.00000000000E+00 0.  1.
         21   -1    0    0  501  503 -0.00000000000E+00 -0.00000000000E+00 -0.20296766814E+03  0.20296766814E+03  0.00000000000E+00 0.  1.
          6    1    1    2  501    0  0.11931162290E+02  0.74473262504E+02 -0.87002328176E+02  0.20781488053E+03  0.17300000000E+03 0.  1.
         -6    1    1    2    0  502 -0.11931162290E+02 -0.74473262504E+02  0.10471010309E+03  0.21582823066E+03  0.17300000000E+03 0.  1.
<mgrwt>
<rscale>  2 0.18872631E+03</rscale>
<asrwt>0</asrwt>
<pdfrwt beam="1">  1       21 0.33950068E-01 0.18872631E+03</pdfrwt>
<pdfrwt beam="2">  1       21 0.31225795E-01 0.18872631E+03</pdfrwt>
<totfact> 0.82501533E+04</totfact>
</mgrwt>
</event>
<event>
 4    2  0.4063641E+000  0.1837663E+03  0.7546771E-02  0.1164207E+00
         21   -1    0    0  503  502  0.00000000000E+00  0.00000000000E+00  0.31156269528E+03  0.31156269528E+03  0.00000000000E+00 0.  1.
         21   -1    0    0  501  503 -0.00000000000E+00 -0.00000000000E+00 -0.23946272125E+03  0.23946272125E+03  0.00000000000E+00 0.  1.
          6    1    1    2  501    0 -0.35686878906E+02 -0.50670337071E+02 -0.16778565961E+03  0.24884144341E+03  0.17300000000E+03 0.  1.
         -6    1    1    2    0  502  0.35686878906E+02  0.50670337071E+02  0.23988563364E+03  0.30218397312E+03  0.17300000000E+03 0.  1.
<mgrwt>
<rscale>  2 0.18376625E+03</rscale>
<asrwt>0</asrwt>
<pdfrwt beam="1">  1       21 0.47932722E-01 0.18376625E+03</pdfrwt>
<pdfrwt beam="2">  1       21 0.36840419E-01 0.18376625E+03</pdfrwt>
<totfact> 0.29702505E+04</totfact>
</mgrwt>
</event>
<event>
 4    2  0.4063641E+000  0.1768046E+03  0.7546771E-02  0.1170932E+00
         21   -1    0    0  501  502  0.00000000000E+00  0.00000000000E+00  0.23999402635E+03  0.23999402635E+03  0.00000000000E+00 0. -1.
         21   -1    0    0  502  503 -0.00000000000E+00 -0.00000000000E+00 -0.26893065634E+03  0.26893065634E+03  0.00000000000E+00 0. -1.
          6    1    1    2  501    0 -0.36441440371E+02  0.16943711965E+01  0.16826057365E+03  0.24407267384E+03  0.17300000000E+03 0. -1.
         -6    1    1    2    0  503  0.36441440371E+02 -0.16943711965E+01 -0.19719720364E+03  0.26485200885E+03  0.17300000000E+03 0. -1.
<mgrwt>
<rscale>  2 0.17680455E+03</rscale>
<asrwt>0</asrwt>
<pdfrwt beam="1">  1       21 0.36922158E-01 0.17680455E+03</pdfrwt>
<pdfrwt beam="2">  1       21 0.41373947E-01 0.17680455E+03</pdfrwt>
<totfact> 0.40115332E+04</totfact>
</mgrwt>
</event>
<event>
 4    2  0.4063641E+000  0.4576009E+03  0.7546771E-02  0.1025479E+00
         21   -1    0    0  503  502  0.00000000000E+00  0.00000000000E+00  0.89095701919E+03  0.89095701919E+03  0.00000000000E+00 0. -1.
         21   -1    0    0  501  503 -0.00000000000E+00 -0.00000000000E+00 -0.94890821965E+03  0.94890821965E+03  0.00000000000E+00 0.  1.
          6    1    1    2  501    0 -0.85476994104E+02 -0.41492563600E+03 -0.82689130689E+03  0.94506498895E+03  0.17300000000E+03 0.  1.
         -6    1    1    2    0  502  0.85476994104E+02  0.41492563600E+03  0.76894010643E+03  0.89480024989E+03  0.17300000000E+03 0. -1.
<mgrwt>
<rscale>  2 0.45760092E+03</rscale>
<asrwt>0</asrwt>
<pdfrwt beam="1">  1       21 0.13707031E+00 0.45760092E+03</pdfrwt>
<pdfrwt beam="2">  1       21 0.14598588E+00 0.45760092E+03</pdfrwt>
<totfact> 0.96780668E+01</totfact>
</mgrwt>
</event>
<event>
 4    2  0.4063641E+000  0.2208529E+03  0.7546771E-02  0.1133249E+00
         21   -1    0    0  501  502  0.00000000000E+00  0.00000000000E+00  0.36247014332E+02  0.36247014332E+02  0.00000000000E+00 0.  1.
         21   -1    0    0  502  503 -0.00000000000E+00 -0.00000000000E+00 -0.22139076331E+04  0.22139076331E+04  0.00000000000E+00 0. -1.
          6    1    1    2  501    0 -0.92503532756E+02  0.10144002991E+03 -0.38425790778E+03  0.44320438054E+03  0.17300000000E+03 0.  1.
         -6    1    1    2    0  503  0.92503532756E+02 -0.10144002991E+03 -0.17934027110E+04  0.18069502669E+04  0.17300000000E+03 0. -1.
<mgrwt>
<rscale>  2 0.22085285E+03</rscale>
<asrwt>0</asrwt>
<pdfrwt beam="1">  1       21 0.55764623E-02 0.22085285E+03</pdfrwt>
<pdfrwt beam="2">  1       21 0.34060127E+00 0.22085285E+03</pdfrwt>
<totfact> 0.42905462E+03</totfact>
</mgrwt>
</event>
<event>
 4    2  0.4063641E+000  0.1778743E+03  0.7546771E-02  0.1169876E+00
         21   -1    0    0  501  502  0.00000000000E+00  0.00000000000E+00  0.24534791747E+02  0.24534791747E+02  0.00000000000E+00 0.  1.
         21   -1    0    0  502  503 -0.00000000000E+00 -0.00000000000E+00 -0.13020506856E+04  0.13020506856E+04  0.00000000000E+00 0.  1.
          6    1    1    2  501    0  0.29176680531E+02 -0.29308712478E+02 -0.57381268864E+03  0.60074976568E+03  0.17300000000E+03 0. -1.
         -6    1    1    2    0  503 -0.29176680531E+02  0.29308712478E+02 -0.70370320526E+03  0.72583571172E+03  0.17300000000E+03 0. -1.
<mgrwt>
<rscale>  2 0.17787434E+03</rscale>
<asrwt>0</asrwt>
<pdfrwt beam="1">  1       21 0.37745828E-02 0.17787434E+03</pdfrwt>
<pdfrwt beam="2">  1       21 0.20031552E+00 0.17787434E+03</pdfrwt>
<totfact> 0.58262199E+04</totfact>
</mgrwt>
</event>
<event>
 4    2  0.4063641E+000  0.2185126E+03  0.7546771E-02  0.1134997E+00
         21   -1    0    0  501  502  0.00000000000E+00  0.00000000000E+00  0.89454302716E+03  0.89454302716E+03  0.00000000000E+00 0.  1.
         21   -1    0    0  502  503 -0.00000000000E+00 -0.00000000000E+00 -0.54884427095E+02  0.54884427095E+02  0.00000000000E+00 0. -1.
          6    1    1    2  501    0 -0.67070370966E+02 -0.11541363716E+03  0.49851043284E+03  0.54429807454E+03  0.17300000000E+03 0.  1.
         -6    1    1    2    0  503  0.67070370966E+02  0.11541363716E+03  0.34114816723E+03  0.40512937972E+03  0.17300000000E+03 0. -1.
<mgrwt>
<rscale>  2 0.21851257E+03</rscale>
<asrwt>0</asrwt>
<pdfrwt beam="1">  1       21 0.13762199E+00 0.21851257E+03</pdfrwt>
<pdfrwt beam="2">  1       21 0.84437587E-02 0.21851257E+03</pdfrwt>
<totfact> 0.40259474E+04</totfact>
</mgrwt>
</event>
<event>
 4    2  0.4063641E+000  0.1877513E+03  0.7546771E-02  0.1160505E+00
         21   -1    0    0  501  502  0.00000000000E+00  0.00000000000E+00  0.19486275553E+03  0.19486275553E+03  0.00000000000E+00 0.  1.
         21   -1    0    0  502  503 -0.00000000000E+00 -0.00000000000E+00 -0.25346733605E+03  0.25346733605E+03  0.00000000000E+00 0.  1.
          6    1    1    2  501    0 -0.43858193700E+02  0.58292564976E+02  0.90641880173E+02  0.20848624589E+03  0.17300000000E+03 0.  1.
         -6    1    1    2    0  503  0.43858193700E+02 -0.58292564976E+02 -0.14924646069E+03  0.23984384569E+03  0.17300000000E+03 0.  1.
<mgrwt>
<rscale>  2 0.18775134E+03</rscale>
<asrwt>0</asrwt>
<pdfrwt beam="1">  1       21 0.29978886E-01 0.18775134E+03</pdfrwt>
<pdfrwt beam="2">  1       21 0.38994975E-01 0.18775134E+03</pdfrwt>
<totfact> 0.67802272E+04</totfact>
</mgrwt>
</event>
<event>
 4    2  0.4063641E+000  0.2023526E+03  0.7546771E-02  0.1147769E+00
         21   -1    0    0  501  502  0.00000000000E+00  0.00000000000E+00  0.19226309271E+03  0.19226309271E+03  0.00000000000E+00 0.  1.
         21   -1    0    0  502  503 -0.00000000000E+00 -0.00000000000E+00 -0.22570604997E+03  0.22570604997E+03  0.00000000000E+00 0.  1.
          6    1    1    2  501    0 -0.73411644657E+01 -0.10470757804E+03  0.32918719684E+02  0.20501271107E+03  0.17300000000E+03 0.  1.
         -6    1    1    2    0  503  0.73411644657E+01  0.10470757804E+03 -0.66361676948E+02  0.21295643161E+03  0.17300000000E+03 0.  1.
<mgrwt>
<rscale>  2 0.20235259E+03</rscale>
<asrwt>0</asrwt>
<pdfrwt beam="1">  1       21 0.29578937E-01 0.20235259E+03</pdfrwt>
<pdfrwt beam="2">  1       21 0.34724008E-01 0.20235259E+03</pdfrwt>
<totfact> 0.87207207E+04</totfact>
</mgrwt>
</event>
<event>
 4    2  0.4063641E+000  0.2020163E+03  0.7546771E-02  0.1148049E+00
         21   -1    0    0  501  502  0.00000000000E+00  0.00000000000E+00  0.17847803393E+04  0.17847803393E+04  0.00000000000E+00 0.  1.
         21   -1    0    0  502  503 -0.00000000000E+00 -0.00000000000E+00 -0.24502404492E+02  0.24502404492E+02  0.00000000000E+00 0.  1.
          6    1    1    2  501    0 -0.64363270104E+02 -0.82091186431E+02  0.11139321449E+04  0.11321022113E+04  0.17300000000E+03 0.  1.
         -6    1    1    2    0  503  0.64363270104E+02  0.82091186431E+02  0.64634578988E+03  0.67718053244E+03  0.17300000000E+03 0.  1.
<mgrwt>
<rscale>  2 0.20201632E+03</rscale>
<asrwt>0</asrwt>
<pdfrwt beam="1">  1       21 0.27458149E+00 0.20201632E+03</pdfrwt>
<pdfrwt beam="2">  1       21 0.37696021E-02 0.20201632E+03</pdfrwt>
<totfact> 0.20519530E+04</totfact>
</mgrwt>
</event>
<event>
 4    2  0.4063641E+000  0.1842846E+03  0.7546771E-02  0.1163720E+00
         21   -1    0    0  503  502  0.00000000000E+00  0.00000000000E+00  0.13104451900E+03  0.13104451900E+03  0.00000000000E+00 0. -1.
         21   -1    0    0  501  503 -0.00000000000E+00 -0.00000000000E+00 -0.51197439765E+03  0.51197439765E+03  0.00000000000E+00 0. -1.
          6    1    1    2  501    0  0.44244194906E+02  0.45544195302E+02 -0.41639548845E+03  0.45535263841E+03  0.17300000000E+03 0. -1.
         -6    1    1    2    0  502 -0.44244194906E+02 -0.45544195302E+02  0.35465609799E+02  0.18766627824E+03  0.17300000000E+03 0. -1.
<mgrwt>
<rscale>  2 0.18428462E+03</rscale>
<asrwt>0</asrwt>
<pdfrwt beam="1">  1       21 0.20160695E-01 0.18428462E+03</pdfrwt>
<pdfrwt beam="2">  1       21 0.78765291E-01 0.18428462E+03</pdfrwt>
<totfact> 0.32539304E+04</totfact>
</mgrwt>
</event>
<event>
 4    2  0.4063641E+000  0.2089195E+03  0.7546771E-02  0.1142425E+00
         21   -1    0    0  501  502  0.00000000000E+00  0.00000000000E+00  0.15620154278E+04  0.15620154278E+04  0.00000000000E+00 0. -1.
         21   -1    0    0  502  503 -0.00000000000E+00 -0.00000000000E+00 -0.30106528896E+02  0.30106528896E+02  0.00000000000E+00 0.  1.
          6    1    1    2  501    0  0.10864151917E+03 -0.43764986545E+02  0.97935725707E+03  0.10013930251E+04  0.17300000000E+03 0. -1.
         -6    1    1    2    0  503 -0.10864151917E+03  0.43764986545E+02  0.55255164181E+03  0.59072893158E+03  0.17300000000E+03 0.  1.
<mgrwt>
<rscale>  2 0.20891949E+03</rscale>
<asrwt>0</asrwt>
<pdfrwt beam="1">  1       21 0.24031000E+00 0.20891949E+03</pdfrwt>
<pdfrwt beam="2">  1       21 0.46317749E-02 0.20891949E+03</pdfrwt>
<totfact> 0.22920459E+04</totfact>
</mgrwt>
</event>
<event>
 4    2  0.4063641E+000  0.3845759E+03  0.7546771E-02  0.1049255E+00
         21   -1    0    0  501  502  0.00000000000E+00  0.00000000000E+00  0.14601149806E+03  0.14601149806E+03  0.00000000000E+00 0. -1.
         21   -1    0    0  502  503 -0.00000000000E+00 -0.00000000000E+00 -0.10772846418E+04  0.10772846418E+04  0.00000000000E+00 0.  1.
          6    1    1    2  501    0  0.28726074565E+03  0.18828412301E+03 -0.61513765292E+03  0.72546052891E+03  0.17300000000E+03 0.  1.
         -6    1    1    2    0  503 -0.28726074565E+03 -0.18828412301E+03 -0.31613549084E+03  0.49783561096E+03  0.17300000000E+03 0. -1.
<mgrwt>
<rscale>  2 0.38457593E+03</rscale>
<asrwt>0</asrwt>
<pdfrwt beam="1">  1       21 0.22463307E-01 0.38457593E+03</pdfrwt>
<pdfrwt beam="2">  1       21 0.16573610E+00 0.38457593E+03</pdfrwt>
<totfact> 0.37634372E+03</totfact>
</mgrwt>
</event>
<event>
 4    2  0.4063641E+000  0.1909656E+03  0.7546771E-02  0.1157593E+00
         21   -1    0    0  501  502  0.00000000000E+00  0.00000000000E+00  0.15425403600E+03  0.15425403600E+03  0.00000000000E+00 0. -1.
         21   -1    0    0  502  503 -0.00000000000E+00 -0.00000000000E+00 -0.24502796519E+03  0.24502796519E+03  0.00000000000E+00 0. -1.
          6    1    1    2  501    0  0.52334048187E+02 -0.61644084738E+02 -0.82818549748E+02  0.20815080582E+03  0.17300000000E+03 0. -1.
         -6    1    1    2    0  503 -0.52334048187E+02  0.61644084738E+02 -0.79553794425E+01  0.19113119537E+03  0.17300000000E+03 0. -1.
<mgrwt>
<rscale>  2 0.19096556E+03</rscale>
<asrwt>0</asrwt>
<pdfrwt beam="1">  1       21 0.23731390E-01 0.19096556E+03</pdfrwt>
<pdfrwt beam="2">  1       21 0.37696610E-01 0.19096556E+03</pdfrwt>
<totfact> 0.11358636E+05</totfact>
</mgrwt>
</event>
<event>
 4    2  0.4063641E+000  0.1846823E+03  0.7546771E-02  0.1163347E+00
         21   -1    0    0  501  502  0.00000000000E+00  0.00000000000E+00  0.17228888737E+03  0.17228888737E+03  0.00000000000E+00 0.  1.
         21   -1    0    0  502  503 -0.00000000000E+00 -0.00000000000E+00 -0.25421603134E+03  0.25421603134E+03  0.00000000000E+00 0.  1.
          6    1    1    2  501    0  0.50822508515E+02  0.39945352943E+02  0.59347554983E+02  0.19398373869E+03  0.17300000000E+03 0.  1.
         -6    1    1    2    0  503 -0.50822508515E+02 -0.39945352943E+02 -0.14127469895E+03  0.23252118002E+03  0.17300000000E+03 0.  1.
<mgrwt>
<rscale>  2 0.18468232E+03</rscale>
<asrwt>0</asrwt>
<pdfrwt beam="1">  1       21 0.26505983E-01 0.18468232E+03</pdfrwt>
<pdfrwt beam="2">  1       21 0.39110159E-01 0.18468232E+03</pdfrwt>
<totfact> 0.85624130E+04</totfact>
</mgrwt>
</event>
<event>
 4    2  0.4063641E+000  0.1847698E+03  0.7546771E-02  0.1163265E+00
         21   -1    0    0  503  502  0.00000000000E+00  0.00000000000E+00  0.31550764673E+03  0.31550764673E+03  0.00000000000E+00 0.  1.
         21   -1    0    0  501  503 -0.00000000000E+00 -0.00000000000E+00 -0.23697318656E+03  0.23697318656E+03  0.00000000000E+00 0.  1.
          6    1    1    2  501    0  0.64164898364E+02 -0.96819647784E+01 -0.16436191122E+03  0.24729478863E+03  0.17300000000E+03 0.  1.
         -6    1    1    2    0  502 -0.64164898364E+02  0.96819647784E+01  0.24289637139E+03  0.30518604467E+03  0.17300000000E+03 0.  1.
<mgrwt>
<rscale>  2 0.18476979E+03</rscale>
<asrwt>0</asrwt>
<pdfrwt beam="1">  1       21 0.48539638E-01 0.18476979E+03</pdfrwt>
<pdfrwt beam="2">  1       21 0.36457413E-01 0.18476979E+03</pdfrwt>
<totfact> 0.29531545E+04</totfact>
</mgrwt>
</event>
<event>
 4    2  0.4063641E+000  0.2421230E+03  0.7546771E-02  0.1118387E+00
         21   -1    0    0  501  502  0.00000000000E+00  0.00000000000E+00  0.57707987175E+02  0.57707987175E+02  0.00000000000E+00 0. -1.
         21   -1    0    0  502  503 -0.00000000000E+00 -0.00000000000E+00 -0.12070008906E+04  0.12070008906E+04  0.00000000000E+00 0. -1.
          6    1    1    2  501    0 -0.12850236988E+03 -0.11037071235E+03 -0.32300781069E+03  0.40368007008E+03  0.17300000000E+03 0. -1.
         -6    1    1    2    0  503  0.12850236988E+03  0.11037071235E+03 -0.82628509268E+03  0.86102880765E+03  0.17300000000E+03 0. -1.
<mgrwt>
<rscale>  2 0.24212301E+03</rscale>
<asrwt>0</asrwt>
<pdfrwt beam="1">  1       21 0.88781521E-02 0.24212301E+03</pdfrwt>
<pdfrwt beam="2">  1       21 0.18569244E+00 0.24212301E+03</pdfrwt>
<totfact> 0.16100218E+04</totfact>
</mgrwt>
</event>
<event>
 4    2  0.4063641E+000  0.2427968E+03  0.7546771E-02  0.1117944E+00
         21   -1    0    0  503  502  0.00000000000E+00  0.00000000000E+00  0.72259432097E+03  0.72259432097E+03  0.00000000000E+00 0.  1.
         21   -1    0    0  501  503 -0.00000000000E+00 -0.00000000000E+00 -0.91574482116E+02  0.91574482116E+02  0.00000000000E+00 0. -1.
          6    1    1    2  501    0 -0.12556215062E+03 -0.11513217097E+03  0.18103337851E+03  0.30285863797E+03  0.17300000000E+03 0. -1.
         -6    1    1    2    0  502  0.12556215062E+03  0.11513217097E+03  0.44998646034E+03  0.51131016511E+03  0.17300000000E+03 0.  1.
<mgrwt>
<rscale>  2 0.24279677E+03</rscale>
<asrwt>0</asrwt>
<pdfrwt beam="1">  1       21 0.11116835E+00 0.24279677E+03</pdfrwt>
<pdfrwt beam="2">  1       21 0.14088382E-01 0.24279677E+03</pdfrwt>
<totfact> 0.27226178E+04</totfact>
</mgrwt>
</event>
<event>
 4    2  0.4063641E+000  0.2800205E+03  0.7546771E-02  0.1095678E+00
         21   -1    0    0  501  502  0.00000000000E+00  0.00000000000E+00  0.28794705703E+03  0.28794705703E+03  0.00000000000E+00 0. -1.
         21   -1    0    0  502  503 -0.00000000000E+00 -0.00000000000E+00 -0.60885442319E+03  0.60885442319E+03  0.00000000000E+00 0. -1.
          6    1    1    2  501    0  0.12853476127E+03  0.17877723934E+03  0.17291852459E+03  0.32910834433E+03  0.17300000000E+03 0. -1.
         -6    1    1    2    0  503 -0.12853476127E+03 -0.17877723934E+03 -0.49382589076E+03  0.56769313589E+03  0.17300000000E+03 0. -1.
<mgrwt>
<rscale>  2 0.28002051E+03</rscale>
<asrwt>0</asrwt>
<pdfrwt beam="1">  1       21 0.44299548E-01 0.28002051E+03</pdfrwt>
<pdfrwt beam="2">  1       21 0.93669909E-01 0.28002051E+03</pdfrwt>
<totfact> 0.44149547E+03</totfact>
</mgrwt>
</event>
<event>
 4    2  0.4063641E+000  0.3295555E+03  0.7546771E-02  0.1071334E+00
         21   -1    0    0  501  502  0.00000000000E+00  0.00000000000E+00  0.68958846017E+03  0.68958846017E+03  0.00000000000E+00 0. -1.
         21   -1    0    0  502  503 -0.00000000000E+00 -0.00000000000E+00 -0.29455204252E+03  0.29455204252E+03  0.00000000000E+00 0.  1.
          6    1    1    2  501    0 -0.27245689317E+03 -0.66671396308E+02  0.53317585209E+03  0.62680405469E+03  0.17300000000E+03 0. -1.
         -6    1    1    2    0  503  0.27245689317E+03  0.66671396308E+02 -0.13813943444E+03  0.35733644800E+03  0.17300000000E+03 0.  1.
<mgrwt>
<rscale>  2 0.32955551E+03</rscale>
<asrwt>0</asrwt>
<pdfrwt beam="1">  1       21 0.10609053E+00 0.32955551E+03</pdfrwt>
<pdfrwt beam="2">  1       21 0.45315699E-01 0.32955551E+03</pdfrwt>
<totfact> 0.30420248E+03</totfact>
</mgrwt>
</event>
<event>
 4    2  0.4063641E+000  0.1749388E+03  0.7546771E-02  0.1172793E+00
         21   -1    0    0  501  502  0.00000000000E+00  0.00000000000E+00  0.79181500323E+02  0.79181500323E+02  0.00000000000E+00 0.  1.
         21   -1    0    0  502  503 -0.00000000000E+00 -0.00000000000E+00 -0.52406258723E+03  0.52406258723E+03  0.00000000000E+00 0.  1.
          6    1    1    2  501    0  0.24759156485E+02 -0.78474178616E+01 -0.67907020334E+02  0.18765649791E+03  0.17300000000E+03 0.  1.
         -6    1    1    2    0  503 -0.24759156485E+02  0.78474178616E+01 -0.37697406658E+03  0.41558758965E+03  0.17300000000E+03 0.  1.
<mgrwt>
<rscale>  2 0.17493884E+03</rscale>
<asrwt>0</asrwt>
<pdfrwt beam="1">  1       21 0.12181769E-01 0.17493884E+03</pdfrwt>
<pdfrwt beam="2">  1       21 0.80625014E-01 0.17493884E+03</pdfrwt>
<totfact> 0.77786744E+04</totfact>
</mgrwt>
</event>
<event>
 4    2  0.4063641E+000  0.2670901E+03  0.7546771E-02  0.1102957E+00
         21   -1    0    0  501  502  0.00000000000E+00  0.00000000000E+00  0.26508775165E+03  0.26508775165E+03  0.00000000000E+00 0.  1.
         21   -1    0    0  502  503 -0.00000000000E+00 -0.00000000000E+00 -0.13227096276E+04  0.13227096276E+04  0.00000000000E+00 0. -1.
          6    1    1    2  501    0 -0.17545885208E+03 -0.10306452970E+03  0.17974010919E+03  0.32193728101E+03  0.17300000000E+03 0.  1.
         -6    1    1    2    0  503  0.17545885208E+03  0.10306452970E+03 -0.12373619851E+04  0.12658600982E+04  0.17300000000E+03 0. -1.
<mgrwt>
<rscale>  2 0.26709007E+03</rscale>
<asrwt>0</asrwt>
<pdfrwt beam="1">  1       21 0.40782732E-01 0.26709007E+03</pdfrwt>
<pdfrwt beam="2">  1       21 0.20349379E+00 0.26709007E+03</pdfrwt>
<totfact> 0.68525452E+02</totfact>
</mgrwt>
</event>
<event>
 4    2  0.4063641E+000  0.2928764E+03  0.7546771E-02  0.1088857E+00
         21   -1    0    0  501  502  0.00000000000E+00  0.00000000000E+00  0.14268395521E+03  0.14268395521E+03  0.00000000000E+00 0. -1.
         21   -1    0    0  502  503 -0.00000000000E+00 -0.00000000000E+00 -0.82097953501E+03  0.82097953501E+03  0.00000000000E+00 0.  1.
          6    1    1    2  501    0 -0.17164888758E+02 -0.23569675419E+03 -0.89827574834E+02  0.30634227025E+03  0.17300000000E+03 0. -1.
         -6    1    1    2    0  503  0.17164888758E+02  0.23569675419E+03 -0.58846800497E+03  0.65732121997E+03  0.17300000000E+03 0.  1.
<mgrwt>
<rscale>  2 0.29287641E+03</rscale>
<asrwt>0</asrwt>
<pdfrwt beam="1">  1       21 0.21951378E-01 0.29287641E+03</pdfrwt>
<pdfrwt beam="2">  1       21 0.12630454E+00 0.29287641E+03</pdfrwt>
<totfact> 0.84673933E+03</totfact>
</mgrwt>
</event>
<event>
 4    2  0.4063641E+000  0.2285618E+03  0.7546771E-02  0.1127656E+00
         21   -1    0    0  501  502  0.00000000000E+00  0.00000000000E+00  0.19894239940E+03  0.19894239940E+03  0.00000000000E+00 0.  1.
         21   -1    0    0  502  503 -0.00000000000E+00 -0.00000000000E+00 -0.26507223762E+03  0.26507223762E+03  0.00000000000E+00 0. -1.
          6    1    1    2  501    0  0.47366660869E+02  0.14166117267E+03 -0.55511573898E+02  0.23520634184E+03  0.17300000000E+03 0. -1.
         -6    1    1    2    0  503 -0.47366660869E+02 -0.14166117267E+03 -0.10618264324E+02  0.22880829518E+03  0.17300000000E+03 0.  1.
<mgrwt>
<rscale>  2 0.22856178E+03</rscale>
<asrwt>0</asrwt>
<pdfrwt beam="1">  1       21 0.30606523E-01 0.22856178E+03</pdfrwt>
<pdfrwt beam="2">  1       21 0.40780344E-01 0.22856178E+03</pdfrwt>
<totfact> 0.58418054E+04</totfact>
</mgrwt>
</event>
<event>
 4    2  0.4063641E+000  0.3126047E+03  0.7546771E-02  0.1079104E+00
         21   -1    0    0  501  502  0.00000000000E+00  0.00000000000E+00  0.81614528369E+02  0.81614528369E+02  0.00000000000E+00 0.  1.
         21   -1    0    0  502  503 -0.00000000000E+00 -0.00000000000E+00 -0.26202283194E+04  0.26202283194E+04  0.00000000000E+00 0.  1.
          6    1    1    2  501    0 -0.22734281499E+03  0.12691695388E+03 -0.27380190288E+03  0.41555884148E+03  0.17300000000E+03 0.  1.
         -6    1    1    2    0  503  0.22734281499E+03 -0.12691695388E+03 -0.22648118881E+04  0.22862840063E+04  0.17300000000E+03 0.  1.
<mgrwt>
<rscale>  2 0.31260465E+03</rscale>
<asrwt>0</asrwt>
<pdfrwt beam="1">  1       21 0.12556082E-01 0.31260465E+03</pdfrwt>
<pdfrwt beam="2">  1       21 0.40311204E+00 0.31260465E+03</pdfrwt>
<totfact> 0.38722673E+02</totfact>
</mgrwt>
</event>
<event>
 4    2  0.4063641E+000  0.3450917E+03  0.7546771E-02  0.1064648E+00
         21   -1    0    0  503  502  0.00000000000E+00  0.00000000000E+00  0.19868833186E+03  0.19868833186E+03  0.00000000000E+00 0.  1.
         21   -1    0    0  501  503 -0.00000000000E+00 -0.00000000000E+00 -0.13992371946E+04  0.13992371946E+04  0.00000000000E+00 0. -1.
          6    1    1    2  501    0 -0.90976404810E+02  0.28439865840E+03 -0.12043470609E+04  0.12528128935E+04  0.17300000000E+03 0. -1.
         -6    1    1    2    0  502  0.90976404810E+02 -0.28439865840E+03  0.37981980881E+01  0.34511263298E+03  0.17300000000E+03 0.  1.
<mgrwt>
<rscale>  2 0.34509173E+03</rscale>
<asrwt>0</asrwt>
<pdfrwt beam="1">  1       21 0.30567436E-01 0.34509173E+03</pdfrwt>
<pdfrwt beam="2">  1       21 0.21526726E+00 0.34509173E+03</pdfrwt>
<totfact> 0.97065990E+02</totfact>
</mgrwt>
</event>
<event>
 4    2  0.4063641E+000  0.1775696E+03  0.7546771E-02  0.1170176E+00
         21   -1    0    0  501  502  0.00000000000E+00  0.00000000000E+00  0.11978596156E+02  0.11978596156E+02  0.00000000000E+00 0. -1.
         21   -1    0    0  502  503 -0.00000000000E+00 -0.00000000000E+00 -0.28214427018E+04  0.28214427018E+04  0.00000000000E+00 0. -1.
          6    1    1    2  501    0 -0.39910404295E+02  0.30196456320E+01 -0.17715656370E+04  0.17804425755E+04  0.17300000000E+03 0. -1.
         -6    1    1    2    0  503  0.39910404295E+02 -0.30196456320E+01 -0.10378984687E+04  0.10529787225E+04  0.17300000000E+03 0. -1.
<mgrwt>
<rscale>  2 0.17756959E+03</rscale>
<asrwt>0</asrwt>
<pdfrwt beam="1">  1       21 0.18428610E-02 0.17756959E+03</pdfrwt>
<pdfrwt beam="2">  1       21 0.43406809E+00 0.17756959E+03</pdfrwt>
<totfact> 0.76035036E+03</totfact>
</mgrwt>
</event>
<event>
 4    2  0.4063641E+000  0.2996448E+03  0.7546771E-02  0.1085418E+00
         21   -1    0    0  501  502  0.00000000000E+00  0.00000000000E+00  0.28658639543E+03  0.28658639543E+03  0.00000000000E+00 0. -1.
         21   -1    0    0  502  503 -0.00000000000E+00 -0.00000000000E+00 -0.34597825555E+03  0.34597825555E+03  0.00000000000E+00 0. -1.
          6    1    1    2  501    0 -0.22393420872E+03  0.98546928792E+02  0.67509680022E+02  0.30715563467E+03  0.17300000000E+03 0. -1.
         -6    1    1    2    0  503  0.22393420872E+03 -0.98546928792E+02 -0.12690154015E+03  0.32540901632E+03  0.17300000000E+03 0. -1.
<mgrwt>
<rscale>  2 0.29964483E+03</rscale>
<asrwt>0</asrwt>
<pdfrwt beam="1">  1       21 0.44090215E-01 0.29964483E+03</pdfrwt>
<pdfrwt beam="2">  1       21 0.53227424E-01 0.29964483E+03</pdfrwt>
<totfact> 0.15626412E+04</totfact>
</mgrwt>
</event>
<event>
 4    2  0.4063641E+000  0.2175067E+03  0.7546771E-02  0.1135756E+00
         21   -1    0    0  501  502  0.00000000000E+00  0.00000000000E+00  0.20314019499E+03  0.20314019499E+03  0.00000000000E+00 0.  1.
         21   -1    0    0  502  503 -0.00000000000E+00 -0.00000000000E+00 -0.31868634304E+03  0.31868634304E+03  0.00000000000E+00 0.  1.
          6    1    1    2  501    0 -0.25953253301E+01 -0.13180833333E+03  0.77605728047E+02  0.23093683438E+03  0.17300000000E+03 0.  1.
         -6    1    1    2    0  503  0.25953253301E+01  0.13180833333E+03 -0.19315187610E+03  0.29088970365E+03  0.17300000000E+03 0.  1.
<mgrwt>
<rscale>  2 0.21750672E+03</rscale>
<asrwt>0</asrwt>
<pdfrwt beam="1">  1       21 0.31252338E-01 0.21750672E+03</pdfrwt>
<pdfrwt beam="2">  1       21 0.49028668E-01 0.21750672E+03</pdfrwt>
<totfact> 0.38560406E+04</totfact>
</mgrwt>
</event>
<event>
 4    2  0.4063641E+000  0.2445896E+03  0.7546771E-02  0.1116773E+00
         21   -1    0    0  503  502  0.00000000000E+00  0.00000000000E+00  0.23387468486E+03  0.23387468486E+03  0.00000000000E+00 0.  1.
         21   -1    0    0  501  503 -0.00000000000E+00 -0.00000000000E+00 -0.25602083712E+03  0.25602083712E+03  0.00000000000E+00 0.  1.
          6    1    1    2  501    0  0.15755549060E+03  0.71213283554E+02 -0.18341927469E+02  0.24527635572E+03  0.17300000000E+03 0.  1.
         -6    1    1    2    0  502 -0.15755549060E+03 -0.71213283554E+02 -0.38042248002E+01  0.24461916626E+03  0.17300000000E+03 0.  1.
<mgrwt>
<rscale>  2 0.24458958E+03</rscale>
<asrwt>0</asrwt>
<pdfrwt beam="1">  1       21 0.35980721E-01 0.24458958E+03</pdfrwt>
<pdfrwt beam="2">  1       21 0.39387821E-01 0.24458958E+03</pdfrwt>
<totfact> 0.45193485E+04</totfact>
</mgrwt>
</event>
<event>
 4    2  0.4063641E+000  0.1881621E+03  0.7546771E-02  0.1160130E+00
         21   -1    0    0  501  502  0.00000000000E+00  0.00000000000E+00  0.17028416998E+03  0.17028416998E+03  0.00000000000E+00 0.  1.
         21   -1    0    0  502  503 -0.00000000000E+00 -0.00000000000E+00 -0.32862239502E+03  0.32862239502E+03  0.00000000000E+00 0.  1.
          6    1    1    2  501    0  0.72090920322E+02  0.16699107165E+02  0.72014291945E+02  0.20147213013E+03  0.17300000000E+03 0.  1.
         -6    1    1    2    0  503 -0.72090920322E+02 -0.16699107165E+02 -0.23035251698E+03  0.29743443488E+03  0.17300000000E+03 0.  1.
<mgrwt>
<rscale>  2 0.18816206E+03</rscale>
<asrwt>0</asrwt>
<pdfrwt beam="1">  1       21 0.26197565E-01 0.18816206E+03</pdfrwt>
<pdfrwt beam="2">  1       21 0.50557291E-01 0.18816206E+03</pdfrwt>
<totfact> 0.51673356E+04</totfact>
</mgrwt>
</event>
<event>
 4    2  0.4063641E+000  0.1790274E+03  0.7546771E-02  0.1168748E+00
         21   -1    0    0  503  502  0.00000000000E+00  0.00000000000E+00  0.67682085065E+03  0.67682085065E+03  0.00000000000E+00 0.  1.
         21   -1    0    0  501  503 -0.00000000000E+00 -0.00000000000E+00 -0.15132057313E+03  0.15132057313E+03  0.00000000000E+00 0. -1.
          6    1    1    2  501    0  0.42870001334E+02 -0.16851278858E+02 -0.80468173018E+02  0.19628023202E+03  0.17300000000E+03 0. -1.
         -6    1    1    2    0  502 -0.42870001334E+02  0.16851278858E+02  0.60596845053E+03  0.63186119176E+03  0.17300000000E+03 0.  1.
<mgrwt>
<rscale>  2 0.17902738E+03</rscale>
<asrwt>0</asrwt>
<pdfrwt beam="1">  1       21 0.10412628E+00 0.17902738E+03</pdfrwt>
<pdfrwt beam="2">  1       21 0.23280089E-01 0.17902738E+03</pdfrwt>
<totfact> 0.13050480E+04</totfact>
</mgrwt>
</event>
<event>
 4    2  0.4063641E+000  0.2121704E+03  0.7546771E-02  0.1139859E+00
         21   -1    0    0  503  502  0.00000000000E+00  0.00000000000E+00  0.31038145989E+03  0.31038145989E+03  0.00000000000E+00 0.  1.
         21   -1    0    0  501  503 -0.00000000000E+00 -0.00000000000E+00 -0.15730541798E+03  0.15730541798E+03  0.00000000000E+00 0.  1.
          6    1    1    2  501    0  0.11395357304E+03  0.45846013879E+02  0.11228365020E+02  0.21246729155E+03  0.17300000000E+03 0.  1.
         -6    1    1    2    0  502 -0.11395357304E+03 -0.45846013879E+02  0.14184767689E+03  0.25521958631E+03  0.17300000000E+03 0.  1.
<mgrwt>
<rscale>  2 0.21217039E+03</rscale>
<asrwt>0</asrwt>
<pdfrwt beam="1">  1       21 0.47750994E-01 0.21217039E+03</pdfrwt>
<pdfrwt beam="2">  1       21 0.24200833E-01 0.21217039E+03</pdfrwt>
<totfact> 0.66977950E+04</totfact>
</mgrwt>
</event>
<event>
 4    2  0.4063641E+000  0.2100897E+03  0.7546771E-02  0.1141495E+00
         21   -1    0    0  503  502  0.00000000000E+00  0.00000000000E+00  0.86278955110E+02  0.86278955110E+02  0.00000000000E+00 0. -1.
         21   -1    0    0  501  503 -0.00000000000E+00 -0.00000000000E+00 -0.95352841089E+03  0.95352841089E+03  0.00000000000E+00 0.  1.
          6    1    1    2  501    0 -0.48978634847E+02 -0.10867279012E+03 -0.78757888892E+03  0.81511851178E+03  0.17300000000E+03 0.  1.
         -6    1    1    2    0  502  0.48978634847E+02  0.10867279012E+03 -0.79670566860E+02  0.22468885421E+03  0.17300000000E+03 0. -1.
<mgrwt>
<rscale>  2 0.21008970E+03</rscale>
<asrwt>0</asrwt>
<pdfrwt beam="1">  1       21 0.13273686E-01 0.21008970E+03</pdfrwt>
<pdfrwt beam="2">  1       21 0.14669668E+00 0.21008970E+03</pdfrwt>
<totfact> 0.15328177E+04</totfact>
</mgrwt>
</event>
<event>
 4    2  0.4063641E+000  0.3661749E+03  0.7546771E-02  0.1056165E+00
         21   -1    0    0  501  502  0.00000000000E+00  0.00000000000E+00  0.14046990249E+04  0.14046990249E+04  0.00000000000E+00 0. -1.
         21   -1    0    0  502  503 -0.00000000000E+00 -0.00000000000E+00 -0.95572463387E+02  0.95572463387E+02  0.00000000000E+00 0. -1.
          6    1    1    2  501    0  0.88346268352E+02 -0.31040290418E+03  0.62814435687E+03  0.72708277322E+03  0.17300000000E+03 0. -1.
         -6    1    1    2    0  503 -0.88346268352E+02  0.31040290418E+03  0.68098220461E+03  0.77318871503E+03  0.17300000000E+03 0. -1.
<mgrwt>
<rscale>  2 0.36617486E+03</rscale>
<asrwt>0</asrwt>
<pdfrwt beam="1">  1       21 0.21610753E+00 0.36617486E+03</pdfrwt>
<pdfrwt beam="2">  1       21 0.14703457E-01 0.36617486E+03</pdfrwt>
<totfact> 0.38246797E+03</totfact>
</mgrwt>
</event>
<event>
 4    2  0.4063641E+000  0.1753985E+03  0.7546771E-02  0.1172332E+00
         21   -1    0    0  503  502  0.00000000000E+00  0.00000000000E+00  0.19321210025E+04  0.19321210025E+04  0.00000000000E+00 0. -1.
         21   -1    0    0  501  503 -0.00000000000E+00 -0.00000000000E+00 -0.16190172592E+02  0.16190172592E+02  0.00000000000E+00 0. -1.
          6    1    1    2  501    0  0.16447204121E+02  0.23772160755E+02  0.10831711247E+04  0.10972804161E+04  0.17300000000E+03 0. -1.
         -6    1    1    2    0  502 -0.16447204121E+02 -0.23772160755E+02  0.83275970521E+03  0.85103075901E+03  0.17300000000E+03 0. -1.
<mgrwt>
<rscale>  2 0.17539848E+03</rscale>
<asrwt>0</asrwt>
<pdfrwt beam="1">  1       21 0.29724920E+00 0.17539848E+03</pdfrwt>
<pdfrwt beam="2">  1       21 0.24907973E-02 0.17539848E+03</pdfrwt>
<totfact> 0.30957472E+04</totfact>
</mgrwt>
</event>
<event>
 4    2  0.4063641E+000  0.1753118E+03  0.7546771E-02  0.1172419E+00
         21   -1    0    0  501  502  0.00000000000E+00  0.00000000000E+00  0.12365625828E+03  0.12365625828E+03  0.00000000000E+00 0. -1.
         21   -1    0    0  502  503 -0.00000000000E+00 -0.00000000000E+00 -0.27017245180E+03  0.27017245180E+03  0.00000000000E+00 0. -1.
          6    1    1    2  501    0  0.27934196939E+02 -0.49905325609E+01 -0.17545548779E+02  0.17618760188E+03  0.17300000000E+03 0. -1.
         -6    1    1    2    0  503 -0.27934196939E+02  0.49905325609E+01 -0.12897064474E+03  0.21764110820E+03  0.17300000000E+03 0. -1.
<mgrwt>
<rscale>  2 0.17531179E+03</rscale>
<asrwt>0</asrwt>
<pdfrwt beam="1">  1       21 0.19024040E-01 0.17531179E+03</pdfrwt>
<pdfrwt beam="2">  1       21 0.41564992E-01 0.17531179E+03</pdfrwt>
<totfact> 0.14202781E+05</totfact>
</mgrwt>
</event>
<event>
 4    2  0.4063641E+000  0.3638394E+03  0.7546771E-02  0.1057074E+00
         21   -1    0    0  501  502  0.00000000000E+00  0.00000000000E+00  0.10246676875E+04  0.10246676875E+04  0.00000000000E+00 0. -1.
         21   -1    0    0  502  503 -0.00000000000E+00 -0.00000000000E+00 -0.13503219586E+03  0.13503219586E+03  0.00000000000E+00 0.  1.
          6    1    1    2  501    0  0.12414000509E+03  0.29502437808E+03  0.56540498336E+03  0.67235550100E+03  0.17300000000E+03 0. -1.
         -6    1    1    2    0  503 -0.12414000509E+03 -0.29502437808E+03  0.32423050832E+03  0.48734438239E+03  0.17300000000E+03 0.  1.
<mgrwt>
<rscale>  2 0.36383942E+03</rscale>
<asrwt>0</asrwt>
<pdfrwt beam="1">  1       21 0.15764118E+00 0.36383942E+03</pdfrwt>
<pdfrwt beam="2">  1       21 0.20774185E-01 0.36383942E+03</pdfrwt>
<totfact> 0.50684723E+03</totfact>
</mgrwt>
</event>
<event>
 4    2  0.4063641E+000  0.1793031E+03  0.7546771E-02  0.1168479E+00
         21   -1    0    0  503  502  0.00000000000E+00  0.00000000000E+00  0.60207890289E+02  0.60207890289E+02  0.00000000000E+00 0. -1.
         21   -1    0    0  501  503 -0.00000000000E+00 -0.00000000000E+00 -0.92648138328E+03  0.92648138328E+03  0.00000000000E+00 0. -1.
          6    1    1    2  501    0 -0.11314697390E+01  0.47109734401E+02 -0.75424725207E+03  0.77526674413E+03  0.17300000000E+03 0. -1.
         -6    1    1    2    0  502  0.11314697390E+01 -0.47109734401E+02 -0.11202624092E+03  0.21142252944E+03  0.17300000000E+03 0. -1.
<mgrwt>
<rscale>  2 0.17930312E+03</rscale>
<asrwt>0</asrwt>
<pdfrwt beam="1">  1       21 0.92627524E-02 0.17930312E+03</pdfrwt>
<pdfrwt beam="2">  1       21 0.14253560E+00 0.17930312E+03</pdfrwt>
<totfact> 0.31979646E+04</totfact>
</mgrwt>
</event>
<event>
 4    2  0.4063641E+000  0.2049376E+03  0.7546771E-02  0.1145639E+00
         21   -1    0    0  503  502  0.00000000000E+00  0.00000000000E+00  0.69272359091E+02  0.69272359091E+02  0.00000000000E+00 0.  1.
         21   -1    0    0  501  503 -0.00000000000E+00 -0.00000000000E+00 -0.10386457841E+04  0.10386457841E+04  0.00000000000E+00 0. -1.
          6    1    1    2  501    0  0.10986473855E+03  0.42297826252E+00 -0.84209317505E+03  0.86667199975E+03  0.17300000000E+03 0. -1.
         -6    1    1    2    0  502 -0.10986473855E+03 -0.42297826252E+00 -0.12728024993E+03  0.24124614341E+03  0.17300000000E+03 0.  1.
<mgrwt>
<rscale>  2 0.20493765E+03</rscale>
<asrwt>0</asrwt>
<pdfrwt beam="1">  1       21 0.10657287E-01 0.20493765E+03</pdfrwt>
<pdfrwt beam="2">  1       21 0.15979165E+00 0.20493765E+03</pdfrwt>
<totfact> 0.18155093E+04</totfact>
</mgrwt>
</event>
<event>
 4    2  0.4063641E+000  0.1774091E+03  0.7546771E-02  0.1170334E+00
         21   -1    0    0  501  502  0.00000000000E+00  0.00000000000E+00  0.19228662187E+03  0.19228662187E+03  0.00000000000E+00 0. -1.
         21   -1    0    0  502  503 -0.00000000000E+00 -0.00000000000E+00 -0.16580532555E+03  0.16580532555E+03  0.00000000000E+00 0. -1.
          6    1    1    2  501    0  0.35367774456E+02  0.17149412923E+02  0.33499190359E+02  0.18054411535E+03  0.17300000000E+03 0. -1.
         -6    1    1    2    0  503 -0.35367774456E+02 -0.17149412923E+02 -0.70178940359E+01  0.17754783206E+03  0.17300000000E+03 0. -1.
<mgrwt>
<rscale>  2 0.17740908E+03</rscale>
<asrwt>0</asrwt>
<pdfrwt beam="1">  1       21 0.29582557E-01 0.17740908E+03</pdfrwt>
<pdfrwt beam="2">  1       21 0.25508512E-01 0.17740908E+03</pdfrwt>
<totfact> 0.16037310E+05</totfact>
</mgrwt>
</event>
<event>
 4    2  0.4063641E+000  0.2317762E+03  0.7546771E-02  0.1125396E+00
         21   -1    0    0  503  502  0.00000000000E+00  0.00000000000E+00  0.11664109496E+03  0.11664109496E+03  0.00000000000E+00 0. -1.
         21   -1    0    0  501  503 -0.00000000000E+00 -0.00000000000E+00 -0.95571670286E+03  0.95571670286E+03  0.00000000000E+00 0.  1.
          6    1    1    2  501    0  0.11643048030E+03 -0.10116884920E+03 -0.80547494385E+03  0.83815874270E+03  0.17300000000E+03 0.  1.
         -6    1    1    2    0  502 -0.11643048030E+03  0.10116884920E+03 -0.33600664049E+02  0.23419905512E+03  0.17300000000E+03 0. -1.
<mgrwt>
<rscale>  2 0.23177617E+03</rscale>
<asrwt>0</asrwt>
<pdfrwt beam="1">  1       21 0.17944783E-01 0.23177617E+03</pdfrwt>
<pdfrwt beam="2">  1       21 0.14703334E+00 0.23177617E+03</pdfrwt>
<totfact> 0.86448436E+03</totfact>
</mgrwt>
</event>
<event>
 4    2  0.4063641E+000  0.1805306E+03  0.7546771E-02  0.1167291E+00
         21   -1    0    0  501  502  0.00000000000E+00  0.00000000000E+00  0.25860621634E+03  0.25860621634E+03  0.00000000000E+00 0. -1.
         21   -1    0    0  502  503 -0.00000000000E+00 -0.00000000000E+00 -0.25004586611E+03  0.25004586611E+03  0.00000000000E+00 0. -1.
          6    1    1    2  501    0 -0.32235369898E+02 -0.40288704166E+02  0.18339243878E+03  0.25734040755E+03  0.17300000000E+03 0. -1.
         -6    1    1    2    0  503  0.32235369898E+02  0.40288704166E+02 -0.17483208855E+03  0.25131167490E+03  0.17300000000E+03 0. -1.
<mgrwt>
<rscale>  2 0.18053060E+03</rscale>
<asrwt>0</asrwt>
<pdfrwt beam="1">  1       21 0.39785572E-01 0.18053060E+03</pdfrwt>
<pdfrwt beam="2">  1       21 0.38468595E-01 0.18053060E+03</pdfrwt>
<totfact> 0.39920839E+04</totfact>
</mgrwt>
</event>
<event>
 4    2  0.4063641E+000  0.5463872E+03  0.7546771E-02  0.1002334E+00
         21   -1    0    0  501  502  0.00000000000E+00  0.00000000000E+00  0.27004441941E+04  0.27004441941E+04  0.00000000000E+00 0.  1.
         21   -1    0    0  502  503 -0.00000000000E+00 -0.00000000000E+00 -0.11255854215E+03  0.11255854215E+03  0.00000000000E+00 0. -1.
          6    1    1    2  501    0 -0.17659663189E+02  0.51797505901E+03  0.14817422911E+04  0.15792717444E+04  0.17300000000E+03 0.  1.
         -6    1    1    2    0  503  0.17659663189E+02 -0.51797505901E+03  0.11061433609E+04  0.12337309919E+04  0.17300000000E+03 0. -1.
<mgrwt>
<rscale>  2 0.54638725E+03</rscale>
<asrwt>0</asrwt>
<pdfrwt beam="1">  1       21 0.41545290E+00 0.54638725E+03</pdfrwt>
<pdfrwt beam="2">  1       21 0.17316701E-01 0.54638725E+03</pdfrwt>
<totfact> 0.15007622E+02</totfact>
</mgrwt>
</event>
<event>
 4    2  0.4063641E+000  0.1959380E+03  0.7546771E-02  0.1153212E+00
         21   -1    0    0  501  502  0.00000000000E+00  0.00000000000E+00  0.12610854182E+04  0.12610854182E+04  0.00000000000E+00 0. -1.
         21   -1    0    0  502  503 -0.00000000000E+00 -0.00000000000E+00 -0.98216158261E+02  0.98216158261E+02  0.00000000000E+00 0.  1.
          6    1    1    2  501    0  0.54314847150E+02 -0.74246822483E+02  0.11460101224E+04  0.11626396234E+04  0.17300000000E+03 0. -1.
         -6    1    1    2    0  503 -0.54314847150E+02  0.74246822483E+02  0.16859137564E+02  0.19666195308E+03  0.17300000000E+03 0.  1.
<mgrwt>
<rscale>  2 0.19593798E+03</rscale>
<asrwt>0</asrwt>
<pdfrwt beam="1">  1       21 0.19401313E+00 0.19593798E+03</pdfrwt>
<pdfrwt beam="2">  1       21 0.15110179E-01 0.19593798E+03</pdfrwt>
<totfact> 0.56657397E+03</totfact>
</mgrwt>
</event>
<event>
 4    2  0.4063641E+000  0.2009232E+03  0.7546771E-02  0.1148962E+00
         21   -1    0    0  501  502  0.00000000000E+00  0.00000000000E+00  0.37336364020E+03  0.37336364020E+03  0.00000000000E+00 0.  1.
         21   -1    0    0  502  503 -0.00000000000E+00 -0.00000000000E+00 -0.10812997104E+03  0.10812997104E+03  0.00000000000E+00 0. -1.
          6    1    1    2  501    0  0.21151960059E+02  0.99968714750E+02  0.13107762662E+03  0.23989892360E+03  0.17300000000E+03 0. -1.
         -6    1    1    2    0  503 -0.21151960059E+02 -0.99968714750E+02  0.13415604254E+03  0.24159468763E+03  0.17300000000E+03 0. -1.
<mgrwt>
<rscale>  2 0.20092324E+03</rscale>
<asrwt>0</asrwt>
<pdfrwt beam="1">  1       21 0.57440559E-01 0.20092324E+03</pdfrwt>
<pdfrwt beam="2">  1       21 0.16635380E-01 0.20092324E+03</pdfrwt>
<totfact> 0.92029899E+04</totfact>
</mgrwt>
</event>
<event>
 4    2  0.4063641E+000  0.1873067E+03  0.7546771E-02  0.1160913E+00
         21   -1    0    0  501  502  0.00000000000E+00  0.00000000000E+00  0.54549224933E+03  0.54549224933E+03  0.00000000000E+00 0. -1.
         21   -1    0    0  502  503 -0.00000000000E+00 -0.00000000000E+00 -0.85339787957E+02  0.85339787957E+02  0.00000000000E+00 0.  1.
          6    1    1    2  501    0 -0.94972806362E+01 -0.71166073493E+02  0.38663045722E+03  0.42961252170E+03  0.17300000000E+03 0. -1.
         -6    1    1    2    0  503  0.94972806362E+01  0.71166073493E+02  0.73522004153E+02  0.20121951558E+03  0.17300000000E+03 0.  1.
<mgrwt>
<rscale>  2 0.18730672E+03</rscale>
<asrwt>0</asrwt>
<pdfrwt beam="1">  1       21 0.83921882E-01 0.18730672E+03</pdfrwt>
<pdfrwt beam="2">  1       21 0.13129198E-01 0.18730672E+03</pdfrwt>
<totfact> 0.61754405E+04</totfact>
</mgrwt>
</event>
<event>
 4    2  0.4063641E+000  0.3277072E+03  0.7546771E-02  0.1072156E+00
         21   -1    0    0  503  502  0.00000000000E+00  0.00000000000E+00  0.48397064012E+03  0.48397064012E+03  0.00000000000E+00 0.  1.
         21   -1    0    0  501  503 -0.00000000000E+00 -0.00000000000E+00 -0.22205310925E+03  0.22205310925E+03  0.00000000000E+00 0.  1.
          6    1    1    2  501    0 -0.23834029489E+03  0.14372505082E+03  0.14029684303E+03  0.35647607292E+03  0.17300000000E+03 0.  1.
         -6    1    1    2    0  502  0.23834029489E+03 -0.14372505082E+03  0.12162068784E+03  0.34954767645E+03  0.17300000000E+03 0.  1.
<mgrwt>
<rscale>  2 0.32770717E+03</rscale>
<asrwt>0</asrwt>
<pdfrwt beam="1">  1       21 0.74457022E-01 0.32770717E+03</pdfrwt>
<pdfrwt beam="2">  1       21 0.34162017E-01 0.32770717E+03</pdfrwt>
<totfact> 0.12442340E+04</totfact>
</mgrwt>
</event>
<event>
 4    2  0.4063641E+000  0.1852133E+03  0.7546771E-02  0.1162851E+00
         21   -1    0    0  503  502  0.00000000000E+00  0.00000000000E+00  0.18630824885E+03  0.18630824885E+03  0.00000000000E+00 0.  1.
         21   -1    0    0  501  503 -0.00000000000E+00 -0.00000000000E+00 -0.18950559435E+03  0.18950559435E+03  0.00000000000E+00 0.  1.
          6    1    1    2  501    0 -0.25812941595E+02 -0.60898627782E+02 -0.33262171952E+02  0.18817630803E+03  0.17300000000E+03 0.  1.
         -6    1    1    2    0  502  0.25812941595E+02  0.60898627782E+02  0.30064826453E+02  0.18763753518E+03  0.17300000000E+03 0.  1.
<mgrwt>
<rscale>  2 0.18521326E+03</rscale>
<asrwt>0</asrwt>
<pdfrwt beam="1">  1       21 0.28662808E-01 0.18521326E+03</pdfrwt>
<pdfrwt beam="2">  1       21 0.29154707E-01 0.18521326E+03</pdfrwt>
<totfact> 0.13150466E+05</totfact>
</mgrwt>
</event>
<event>
 4    2  0.4063641E+000  0.2727406E+03  0.7546771E-02  0.1099721E+00
         21   -1    0    0  503  502  0.00000000000E+00  0.00000000000E+00  0.34734436802E+03  0.34734436802E+03  0.00000000000E+00 0. -1.
         21   -1    0    0  501  503 -0.00000000000E+00 -0.00000000000E+00 -0.41279539850E+03  0.41279539850E+03  0.00000000000E+00 0. -1.
          6    1    1    2  501    0 -0.92551138595E+01  0.21064852364E+03 -0.29637308088E+03  0.40277097800E+03  0.17300000000E+03 0. -1.
         -6    1    1    2    0  502  0.92551138595E+01 -0.21064852364E+03  0.23092205041E+03  0.35736878852E+03  0.17300000000E+03 0. -1.
<mgrwt>
<rscale>  2 0.27274064E+03</rscale>
<asrwt>0</asrwt>
<pdfrwt beam="1">  1       21 0.53437595E-01 0.27274064E+03</pdfrwt>
<pdfrwt beam="2">  1       21 0.63506985E-01 0.27274064E+03</pdfrwt>
<totfact> 0.72254853E+03</totfact>
</mgrwt>
</event>
<event>
 4    2  0.4063641E+000  0.2242671E+03  0.7546771E-02  0.1130741E+00
         21   -1    0    0  503  502  0.00000000000E+00  0.00000000000E+00  0.69873459080E+03  0.69873459080E+03  0.00000000000E+00 0. -1.
         21   -1    0    0  501  503 -0.00000000000E+00 -0.00000000000E+00 -0.72322278603E+02  0.72322278603E+02  0.00000000000E+00 0. -1.
          6    1    1    2  501    0 -0.17499694733E+02  0.14163507219E+03  0.28672926181E+03  0.36401840965E+03  0.17300000000E+03 0. -1.
         -6    1    1    2    0  502  0.17499694733E+02 -0.14163507219E+03  0.33968305039E+03  0.40703845975E+03  0.17300000000E+03 0. -1.
<mgrwt>
<rscale>  2 0.22426710E+03</rscale>
<asrwt>0</asrwt>
<pdfrwt beam="1">  1       21 0.10749762E+00 0.22426710E+03</pdfrwt>
<pdfrwt beam="2">  1       21 0.11126505E-01 0.22426710E+03</pdfrwt>
<totfact> 0.45622432E+04</totfact>
</mgrwt>
</event>
<event>
 4    2  0.4063641E+000  0.2970287E+03  0.7546771E-02  0.1086735E+00
         21   -1    0    0  503  502  0.00000000000E+00  0.00000000000E+00  0.90985670202E+03  0.90985670202E+03  0.00000000000E+00 0.  1.
         21   -1    0    0  501  503 -0.00000000000E+00 -0.00000000000E+00 -0.18122437953E+03  0.18122437953E+03  0.00000000000E+00 0. -1.
          6    1    1    2  501    0 -0.16498984178E+02 -0.24088344744E+03 -0.76665526403E+01  0.29712762874E+03  0.17300000000E+03 0. -1.
         -6    1    1    2    0  502  0.16498984178E+02  0.24088344744E+03  0.73629887513E+03  0.79395345282E+03  0.17300000000E+03 0.  1.
<mgrwt>
<rscale>  2 0.29702871E+03</rscale>
<asrwt>0</asrwt>
<pdfrwt beam="1">  1       21 0.13997795E+00 0.29702871E+03</pdfrwt>
<pdfrwt beam="2">  1       21 0.27880674E-01 0.29702871E+03</pdfrwt>
<totfact> 0.40894791E+03</totfact>
</mgrwt>
</event>
<event>
 4    2  0.4063641E+000  0.2075739E+03  0.7546771E-02  0.1143502E+00
         21   -1    0    0  503  502  0.00000000000E+00  0.00000000000E+00  0.64852933011E+03  0.64852933011E+03  0.00000000000E+00 0. -1.
         21   -1    0    0  501  503 -0.00000000000E+00 -0.00000000000E+00 -0.74469721478E+02  0.74469721478E+02  0.00000000000E+00 0.  1.
          6    1    1    2  501    0 -0.10350280313E+03 -0.49447785172E+02  0.40575022732E+03  0.45576327263E+03  0.17300000000E+03 0. -1.
         -6    1    1    2    0  502  0.10350280313E+03  0.49447785172E+02  0.16830938132E+03  0.26723577896E+03  0.17300000000E+03 0.  1.
<mgrwt>
<rscale>  2 0.20757388E+03</rscale>
<asrwt>0</asrwt>
<pdfrwt beam="1">  1       21 0.99773739E-01 0.20757388E+03</pdfrwt>
<pdfrwt beam="2">  1       21 0.11456881E-01 0.20757388E+03</pdfrwt>
<totfact> 0.52217446E+04</totfact>
</mgrwt>
</event>
<event>
 4    2  0.4063641E+000  0.2609291E+03  0.7546771E-02  0.1106586E+00
         21   -1    0    0  501  502  0.00000000000E+00  0.00000000000E+00  0.65946020853E+03  0.65946020853E+03  0.00000000000E+00 0.  1.
         21   -1    0    0  502  503 -0.00000000000E+00 -0.00000000000E+00 -0.10628162479E+03  0.10628162479E+03  0.00000000000E+00 0. -1.
          6    1    1    2  501    0 -0.19532984329E+03 -0.11199959372E+01  0.34133814176E+03  0.42964605095E+03  0.17300000000E+03 0.  1.
         -6    1    1    2    0  503  0.19532984329E+03  0.11199959372E+01  0.21184044197E+03  0.33609578237E+03  0.17300000000E+03 0.  1.
<mgrwt>
<rscale>  2 0.26092911E+03</rscale>
<asrwt>0</asrwt>
<pdfrwt beam="1">  1       21 0.10145541E+00 0.26092911E+03</pdfrwt>
<pdfrwt beam="2">  1       21 0.16351020E-01 0.26092911E+03</pdfrwt>
<totfact> 0.25641063E+04</totfact>
</mgrwt>
</event>
<event>
 4    2  0.4063641E+000  0.2321881E+03  0.7546771E-02  0.1125109E+00
         21   -1    0    0  503  502  0.00000000000E+00  0.00000000000E+00  0.11283971796E+03  0.11283971796E+03  0.00000000000E+00 0.  1.
         21   -1    0    0  501  503 -0.00000000000E+00 -0.00000000000E+00 -0.73833425507E+03  0.73833425507E+03  0.00000000000E+00 0. -1.
          6    1    1    2  501    0  0.67529840767E+02 -0.13936290535E+03 -0.56557239542E+03  0.61137830616E+03  0.17300000000E+03 0. -1.
         -6    1    1    2    0  502 -0.67529840767E+02  0.13936290535E+03 -0.59922141693E+02  0.23979566686E+03  0.17300000000E+03 0.  1.
<mgrwt>
<rscale>  2 0.23218807E+03</rscale>
<asrwt>0</asrwt>
<pdfrwt beam="1">  1       21 0.17359957E-01 0.23218807E+03</pdfrwt>
<pdfrwt beam="2">  1       21 0.11358988E+00 0.23218807E+03</pdfrwt>
<totfact> 0.17700932E+04</totfact>
</mgrwt>
</event>
<event>
 4    2  0.4063641E+000  0.2036010E+03  0.7546771E-02  0.1146736E+00
         21   -1    0    0  501  502  0.00000000000E+00  0.00000000000E+00  0.98182725250E+02  0.98182725250E+02  0.00000000000E+00 0.  1.
         21   -1    0    0  502  503 -0.00000000000E+00 -0.00000000000E+00 -0.45677362808E+03  0.45677362808E+03  0.00000000000E+00 0. -1.
          6    1    1    2  501    0  0.22940349545E+01 -0.10732706825E+03 -0.10296261203E+03  0.22815490714E+03  0.17300000000E+03 0. -1.
         -6    1    1    2    0  503 -0.22940349545E+01  0.10732706825E+03 -0.25562829080E+03  0.32680144619E+03  0.17300000000E+03 0. -1.
<mgrwt>
<rscale>  2 0.20360099E+03</rscale>
<asrwt>0</asrwt>
<pdfrwt beam="1">  1       21 0.15105034E-01 0.20360099E+03</pdfrwt>
<pdfrwt beam="2">  1       21 0.70272867E-01 0.20360099E+03</pdfrwt>
<totfact> 0.70802728E+04</totfact>
</mgrwt>
</event>
<event>
 4    2  0.4063641E+000  0.2221369E+03  0.7546771E-02  0.1132300E+00
         21   -1    0    0  503  502  0.00000000000E+00  0.00000000000E+00  0.57915570885E+03  0.57915570885E+03  0.00000000000E+00 0.  1.
         21   -1    0    0  501  503 -0.00000000000E+00 -0.00000000000E+00 -0.23399910769E+03  0.23399910769E+03  0.00000000000E+00 0. -1.
          6    1    1    2  501    0  0.12990634077E+03 -0.50399877517E+02 -0.15163770041E+03  0.26895872771E+03  0.17300000000E+03 0. -1.
         -6    1    1    2    0  502 -0.12990634077E+03  0.50399877517E+02  0.49679430157E+03  0.54419608883E+03  0.17300000000E+03 0.  1.
<mgrwt>
<rscale>  2 0.22213691E+03</rscale>
<asrwt>0</asrwt>
<pdfrwt beam="1">  1       21 0.89100878E-01 0.22213691E+03</pdfrwt>
<pdfrwt beam="2">  1       21 0.35999863E-01 0.22213691E+03</pdfrwt>
<totfact> 0.78370001E+03</totfact>
</mgrwt>
</event>
<event>
 4    2  0.4063641E+000  0.2101041E+03  0.7546771E-02  0.1141484E+00
         21   -1    0    0  503  502  0.00000000000E+00  0.00000000000E+00  0.19551487382E+03  0.19551487382E+03  0.00000000000E+00 0. -1.
         21   -1    0    0  501  503 -0.00000000000E+00 -0.00000000000E+00 -0.25477925080E+03  0.25477925080E+03  0.00000000000E+00 0.  1.
          6    1    1    2  501    0 -0.68626894644E+02 -0.97493957521E+02 -0.10558840316E+03  0.23514385661E+03  0.17300000000E+03 0.  1.
         -6    1    1    2    0  502  0.68626894644E+02  0.97493957521E+02  0.46324026187E+02  0.21515026801E+03  0.17300000000E+03 0. -1.
<mgrwt>
<rscale>  2 0.21010408E+03</rscale>
<asrwt>0</asrwt>
<pdfrwt beam="1">  1       21 0.30079211E-01 0.21010408E+03</pdfrwt>
<pdfrwt beam="2">  1       21 0.39196808E-01 0.21010408E+03</pdfrwt>
<totfact> 0.66006964E+04</totfact>
</mgrwt>
</event>
<event>
 4    2  0.4063641E+000  0.2025613E+03  0.7546771E-02  0.1147596E+00
         21   -1    0    0  501  502  0.00000000000E+00  0.00000000000E+00  0.86954547348E+03  0.86954547348E+03  0.00000000000E+00 0. -1.
         21   -1    0    0  502  503 -0.00000000000E+00 -0.00000000000E+00 -0.49565670927E+02  0.49565670927E+02  0.00000000000E+00 0. -1.
          6    1    1    2  501    0 -0.68410373900E+02 -0.80138092322E+02  0.51066692841E+03  0.54937401183E+03  0.17300000000E+03 0. -1.
         -6    1    1    2    0  503  0.68410373900E+02  0.80138092322E+02  0.30931287414E+03  0.36973713258E+03  0.17300000000E+03 0. -1.
<mgrwt>
<rscale>  2 0.20256133E+03</rscale>
<asrwt>0</asrwt>
<pdfrwt beam="1">  1       21 0.13377622E+00 0.20256133E+03</pdfrwt>
<pdfrwt beam="2">  1       21 0.76254885E-02 0.20256133E+03</pdfrwt>
<totfact> 0.52157113E+04</totfact>
</mgrwt>
</event>
<event>
 4    2  0.4063641E+000  0.1996989E+03  0.7546771E-02  0.1149993E+00
         21   -1    0    0  503  502  0.00000000000E+00  0.00000000000E+00  0.32740270342E+03  0.32740270342E+03  0.00000000000E+00 0.  1.
         21   -1    0    0  501  503 -0.00000000000E+00 -0.00000000000E+00 -0.12954330551E+03  0.12954330551E+03  0.00000000000E+00 0.  1.
          6    1    1    2  501    0  0.99668853436E+02  0.40931741574E+01  0.43092901468E+02  0.20429545413E+03  0.17300000000E+03 0.  1.
         -6    1    1    2    0  502 -0.99668853436E+02 -0.40931741574E+01  0.15476649645E+03  0.25265055480E+03  0.17300000000E+03 0.  1.
<mgrwt>
<rscale>  2 0.19969886E+03</rscale>
<asrwt>0</asrwt>
<pdfrwt beam="1">  1       21 0.50369646E-01 0.19969886E+03</pdfrwt>
<pdfrwt beam="2">  1       21 0.19929739E-01 0.19969886E+03</pdfrwt>
<totfact> 0.86927376E+04</totfact>
</mgrwt>
</event>
<event>
 4    2  0.4063641E+000  0.2006372E+03  0.7546771E-02  0.1149203E+00
         21   -1    0    0  501  502  0.00000000000E+00  0.00000000000E+00  0.12131487959E+03  0.12131487959E+03  0.00000000000E+00 0.  1.
         21   -1    0    0  502  503 -0.00000000000E+00 -0.00000000000E+00 -0.36380682289E+03  0.36380682289E+03  0.00000000000E+00 0.  1.
          6    1    1    2  501    0 -0.14762485767E+02 -0.10054025969E+03 -0.49327763154E+02  0.20661196244E+03  0.17300000000E+03 0.  1.
         -6    1    1    2    0  503  0.14762485767E+02  0.10054025969E+03 -0.19316418015E+03  0.27850974004E+03  0.17300000000E+03 0.  1.
<mgrwt>
<rscale>  2 0.20063717E+03</rscale>
<asrwt>0</asrwt>
<pdfrwt beam="1">  1       21 0.18663828E-01 0.20063717E+03</pdfrwt>
<pdfrwt beam="2">  1       21 0.55970279E-01 0.20063717E+03</pdfrwt>
<totfact> 0.78639991E+04</totfact>
</mgrwt>
</event>
<event>
 4    2  0.4063641E+000  0.2013729E+03  0.7546771E-02  0.1148586E+00
         21   -1    0    0  503  502  0.00000000000E+00  0.00000000000E+00  0.77933946880E+03  0.77933946880E+03  0.00000000000E+00 0.  1.
         21   -1    0    0  501  503 -0.00000000000E+00 -0.00000000000E+00 -0.55230872520E+02  0.55230872520E+02  0.00000000000E+00 0.  1.
          6    1    1    2  501    0  0.26935699478E+02 -0.99481269530E+02  0.26163895503E+03  0.33016056349E+03  0.17300000000E+03 0.  1.
         -6    1    1    2    0  502 -0.26935699478E+02  0.99481269530E+02  0.46246964125E+03  0.50440977783E+03  0.17300000000E+03 0.  1.
<mgrwt>
<rscale>  2 0.20137292E+03</rscale>
<asrwt>0</asrwt>
<pdfrwt beam="1">  1       21 0.11989837E+00 0.20137292E+03</pdfrwt>
<pdfrwt beam="2">  1       21 0.84970579E-02 0.20137292E+03</pdfrwt>
<totfact> 0.56912135E+04</totfact>
</mgrwt>
</event>
<event>
 4    2  0.4063641E+000  0.1763858E+03  0.7546771E-02  0.1171347E+00
         21   -1    0    0  501  502  0.00000000000E+00  0.00000000000E+00  0.47577889803E+02  0.47577889803E+02  0.00000000000E+00 0. -1.
         21   -1    0    0  502  503 -0.00000000000E+00 -0.00000000000E+00 -0.12279904996E+04  0.12279904996E+04  0.00000000000E+00 0. -1.
          6    1    1    2  501    0  0.31052536064E+02 -0.14788532907E+02 -0.15413225884E+03  0.23424071789E+03  0.17300000000E+03 0. -1.
         -6    1    1    2    0  503 -0.31052536064E+02  0.14788532907E+02 -0.10262803509E+04  0.10413276715E+04  0.17300000000E+03 0. -1.
<mgrwt>
<rscale>  2 0.17638583E+03</rscale>
<asrwt>0</asrwt>
<pdfrwt beam="1">  1       21 0.73196765E-02 0.17638583E+03</pdfrwt>
<pdfrwt beam="2">  1       21 0.18892159E+00 0.17638583E+03</pdfrwt>
<totfact> 0.22469035E+04</totfact>
</mgrwt>
</event>
<event>
 4    2  0.4063641E+000  0.2135972E+03  0.7546771E-02  0.1138749E+00
         21   -1    0    0  501  502  0.00000000000E+00  0.00000000000E+00  0.20182793510E+03  0.20182793510E+03  0.00000000000E+00 0. -1.
         21   -1    0    0  502  503 -0.00000000000E+00 -0.00000000000E+00 -0.29091574485E+03  0.29091574485E+03  0.00000000000E+00 0. -1.
          6    1    1    2  501    0 -0.12450473222E+03  0.13904432202E+02  0.71789897126E+02  0.22533874702E+03  0.17300000000E+03 0. -1.
         -6    1    1    2    0  503  0.12450473222E+03 -0.13904432202E+02 -0.16087770689E+03  0.26740493293E+03  0.17300000000E+03 0. -1.
<mgrwt>
<rscale>  2 0.21359719E+03</rscale>
<asrwt>0</asrwt>
<pdfrwt beam="1">  1       21 0.31050452E-01 0.21359719E+03</pdfrwt>
<pdfrwt beam="2">  1       21 0.44756268E-01 0.21359719E+03</pdfrwt>
<totfact> 0.47259095E+04</totfact>
</mgrwt>
</event>
<event>
 4    2  0.4063641E+000  0.2635571E+03  0.7546771E-02  0.1105025E+00
         21   -1    0    0  503  502  0.00000000000E+00  0.00000000000E+00  0.70734061874E+03  0.70734061874E+03  0.00000000000E+00 0. -1.
         21   -1    0    0  501  503 -0.00000000000E+00 -0.00000000000E+00 -0.17169598055E+03  0.17169598055E+03  0.00000000000E+00 0. -1.
          6    1    1    2  501    0 -0.84268335439E+02 -0.18008945268E+03 -0.19733635754E+02  0.26429487264E+03  0.17300000000E+03 0. -1.
         -6    1    1    2    0  502  0.84268335439E+02  0.18008945268E+03  0.55537827395E+03  0.61474172666E+03  0.17300000000E+03 0. -1.
<mgrwt>
<rscale>  2 0.26355713E+03</rscale>
<asrwt>0</asrwt>
<pdfrwt beam="1">  1       21 0.10882163E+00 0.26355713E+03</pdfrwt>
<pdfrwt beam="2">  1       21 0.26414767E-01 0.26355713E+03</pdfrwt>
<totfact> 0.87325961E+03</totfact>
</mgrwt>
</event>
<event>
 4    2  0.4063641E+000  0.1731535E+03  0.7546771E-02  0.1174599E+00
         21   -1    0    0  503  502  0.00000000000E+00  0.00000000000E+00  0.42493290732E+03  0.42493290732E+03  0.00000000000E+00 0.  1.
         21   -1    0    0  501  503 -0.00000000000E+00 -0.00000000000E+00 -0.78981991716E+02  0.78981991716E+02  0.00000000000E+00 0.  1.
          6    1    1    2  501    0 -0.16310048357E+01  0.71036284516E+01  0.90686798966E+02  0.19546410724E+03  0.17300000000E+03 0.  1.
         -6    1    1    2    0  502  0.16310048357E+01 -0.71036284516E+01  0.25526411664E+03  0.30845079180E+03  0.17300000000E+03 0.  1.
<mgrwt>
<rscale>  2 0.17315346E+03</rscale>
<asrwt>0</asrwt>
<pdfrwt beam="1">  1       21 0.65374292E-01 0.17315346E+03</pdfrwt>
<pdfrwt beam="2">  1       21 0.12151076E-01 0.17315346E+03</pdfrwt>
<totfact> 0.12438587E+05</totfact>
</mgrwt>
</event>
<event>
 4    2  0.4063641E+000  0.2557457E+03  0.7546771E-02  0.1109727E+00
         21   -1    0    0  503  502  0.00000000000E+00  0.00000000000E+00  0.14316169135E+04  0.14316169135E+04  0.00000000000E+00 0. -1.
         21   -1    0    0  501  503 -0.00000000000E+00 -0.00000000000E+00 -0.50632742886E+02  0.50632742886E+02  0.00000000000E+00 0. -1.
          6    1    1    2  501    0  0.15973276989E+03  0.99811369228E+02  0.92212705318E+03  0.95693477803E+03  0.17300000000E+03 0. -1.
         -6    1    1    2    0  502 -0.15973276989E+03 -0.99811369228E+02  0.45885711747E+03  0.52531487838E+03  0.17300000000E+03 0. -1.
<mgrwt>
<rscale>  2 0.25574571E+03</rscale>
<asrwt>0</asrwt>
<pdfrwt beam="1">  1       21 0.22024872E+00 0.25574571E+03</pdfrwt>
<pdfrwt beam="2">  1       21 0.77896539E-02 0.25574571E+03</pdfrwt>
<totfact> 0.12006976E+04</totfact>
</mgrwt>
</event>
<event>
 4    2  0.4063641E+000  0.2147099E+03  0.7546771E-02  0.1137890E+00
         21   -1    0    0  503  502  0.00000000000E+00  0.00000000000E+00  0.23438932228E+03  0.23438932228E+03  0.00000000000E+00 0.  1.
         21   -1    0    0  501  503 -0.00000000000E+00 -0.00000000000E+00 -0.62884796885E+03  0.62884796885E+03  0.00000000000E+00 0.  1.
          6    1    1    2  501    0 -0.67513734347E+02 -0.10776477963E+03 -0.55503912941E+03  0.59512081734E+03  0.17300000000E+03 0.  1.
         -6    1    1    2    0  502  0.67513734347E+02  0.10776477963E+03  0.16058048283E+03  0.26811647379E+03  0.17300000000E+03 0.  1.
<mgrwt>
<rscale>  2 0.21470993E+03</rscale>
<asrwt>0</asrwt>
<pdfrwt beam="1">  1       21 0.36059897E-01 0.21470993E+03</pdfrwt>
<pdfrwt beam="2">  1       21 0.96745838E-01 0.21470993E+03</pdfrwt>
<totfact> 0.64761261E+03</totfact>
</mgrwt>
</event>
<event>
 4    2  0.4063641E+000  0.1808372E+03  0.7546771E-02  0.1166995E+00
         21   -1    0    0  503  502  0.00000000000E+00  0.00000000000E+00  0.27332342498E+03  0.27332342498E+03  0.00000000000E+00 0.  1.
         21   -1    0    0  501  503 -0.00000000000E+00 -0.00000000000E+00 -0.14984302403E+03  0.14984302403E+03  0.00000000000E+00 0.  1.
          6    1    1    2  501    0  0.51961873267E+02 -0.85469297640E+01 -0.33242432238E+02  0.18386719551E+03  0.17300000000E+03 0.  1.
         -6    1    1    2    0  502 -0.51961873267E+02  0.85469297640E+01  0.15672283319E+03  0.23929925350E+03  0.17300000000E+03 0.  1.
<mgrwt>
<rscale>  2 0.18083718E+03</rscale>
<asrwt>0</asrwt>
<pdfrwt beam="1">  1       21 0.42049758E-01 0.18083718E+03</pdfrwt>
<pdfrwt beam="2">  1       21 0.23052773E-01 0.18083718E+03</pdfrwt>
<totfact> 0.96622105E+04</totfact>
</mgrwt>
</event>
<event>
 4    2  0.4063641E+000  0.2199850E+03  0.7546771E-02  0.1133894E+00
         21   -1    0    0  501  502  0.00000000000E+00  0.00000000000E+00  0.41102386770E+03  0.41102386770E+03  0.00000000000E+00 0. -1.
         21   -1    0    0  502  503 -0.00000000000E+00 -0.00000000000E+00 -0.12467976342E+03  0.12467976342E+03  0.00000000000E+00 0. -1.
          6    1    1    2  501    0 -0.13186803722E+03  0.32790229718E+02  0.79972723301E+02  0.23407053398E+03  0.17300000000E+03 0. -1.
         -6    1    1    2    0  503  0.13186803722E+03 -0.32790229718E+02  0.20637138098E+03  0.30163309715E+03  0.17300000000E+03 0. -1.
<mgrwt>
<rscale>  2 0.21998495E+03</rscale>
<asrwt>0</asrwt>
<pdfrwt beam="1">  1       21 0.63234441E-01 0.21998495E+03</pdfrwt>
<pdfrwt beam="2">  1       21 0.19181502E-01 0.21998495E+03</pdfrwt>
<totfact> 0.57010324E+04</totfact>
</mgrwt>
</event>
<event>
 4    2  0.4063641E+000  0.2396328E+03  0.7546771E-02  0.1120038E+00
         21   -1    0    0  503  502  0.00000000000E+00  0.00000000000E+00  0.64548916684E+03  0.64548916684E+03  0.00000000000E+00 0. -1.
         21   -1    0    0  501  503 -0.00000000000E+00 -0.00000000000E+00 -0.94612354599E+02  0.94612354599E+02  0.00000000000E+00 0. -1.
          6    1    1    2  501    0  0.12945610195E+03  0.10361463322E+03  0.36587269521E+03  0.43736335426E+03  0.17300000000E+03 0. -1.
         -6    1    1    2    0  502 -0.12945610195E+03 -0.10361463322E+03  0.18500411704E+03  0.30273816718E+03  0.17300000000E+03 0. -1.
<mgrwt>
<rscale>  2 0.23963279E+03</rscale>
<asrwt>0</asrwt>
<pdfrwt beam="1">  1       21 0.99306023E-01 0.23963279E+03</pdfrwt>
<pdfrwt beam="2">  1       21 0.14555747E-01 0.23963279E+03</pdfrwt>
<totfact> 0.33745833E+04</totfact>
</mgrwt>
</event>
<event>
 4    2  0.4063641E+000  0.1946947E+03  0.7546771E-02  0.1154294E+00
         21   -1    0    0  503  502  0.00000000000E+00  0.00000000000E+00  0.67218268943E+03  0.67218268943E+03  0.00000000000E+00 0.  1.
         21   -1    0    0  501  503 -0.00000000000E+00 -0.00000000000E+00 -0.17227608217E+03  0.17227608217E+03  0.00000000000E+00 0.  1.
          6    1    1    2  501    0  0.65524910499E+02 -0.60691805949E+02 -0.96342370156E+02  0.21722767202E+03  0.17300000000E+03 0.  1.
         -6    1    1    2    0  502 -0.65524910499E+02  0.60691805949E+02  0.59624897742E+03  0.62723109958E+03  0.17300000000E+03 0.  1.
<mgrwt>
<rscale>  2 0.19469466E+03</rscale>
<asrwt>0</asrwt>
<pdfrwt beam="1">  1       21 0.10341272E+00 0.19469466E+03</pdfrwt>
<pdfrwt beam="2">  1       21 0.26504013E-01 0.19469466E+03</pdfrwt>
<totfact> 0.10248792E+04</totfact>
</mgrwt>
</event>
<event>
 4    2  0.4063641E+000  0.3149224E+03  0.7546771E-02  0.1078010E+00
         21   -1    0    0  503  502  0.00000000000E+00  0.00000000000E+00  0.44526691092E+03  0.44526691092E+03  0.00000000000E+00 0. -1.
         21   -1    0    0  501  503 -0.00000000000E+00 -0.00000000000E+00 -0.23276412818E+03  0.23276412818E+03  0.00000000000E+00 0.  1.
          6    1    1    2  501    0 -0.91854384175E+02 -0.24659656610E+03  0.35877088275E+02  0.31695939766E+03  0.17300000000E+03 0.  1.
         -6    1    1    2    0  502  0.91854384175E+02  0.24659656610E+03  0.17662569447E+03  0.36107164144E+03  0.17300000000E+03 0. -1.
<mgrwt>
<rscale>  2 0.31492236E+03</rscale>
<asrwt>0</asrwt>
<pdfrwt beam="1">  1       21 0.68502602E-01 0.31492236E+03</pdfrwt>
<pdfrwt beam="2">  1       21 0.35809866E-01 0.31492236E+03</pdfrwt>
<totfact> 0.13715543E+04</totfact>
</mgrwt>
</event>
<event>
 4    2  0.4063641E+000  0.2239998E+03  0.7546771E-02  0.1130936E+00
         21   -1    0    0  503  502  0.00000000000E+00  0.00000000000E+00  0.16867078884E+03  0.16867078884E+03  0.00000000000E+00 0. -1.
         21   -1    0    0  501  503 -0.00000000000E+00 -0.00000000000E+00 -0.49827875155E+03  0.49827875155E+03  0.00000000000E+00 0. -1.
          6    1    1    2  501    0 -0.13406925727E+03 -0.47669134915E+02 -0.37649823020E+03  0.43809454403E+03  0.17300000000E+03 0. -1.
         -6    1    1    2    0  502  0.13406925727E+03  0.47669134915E+02  0.46890267493E+02  0.22885499635E+03  0.17300000000E+03 0. -1.
<mgrwt>
<rscale>  2 0.22399980E+03</rscale>
<asrwt>0</asrwt>
<pdfrwt beam="1">  1       21 0.25949352E-01 0.22399980E+03</pdfrwt>
<pdfrwt beam="2">  1       21 0.76658269E-01 0.22399980E+03</pdfrwt>
<totfact> 0.20970428E+04</totfact>
</mgrwt>
</event>
<event>
 4    2  0.4063641E+000  0.2165497E+03  0.7546771E-02  0.1136482E+00
         21   -1    0    0  503  502  0.00000000000E+00  0.00000000000E+00  0.89935608001E+03  0.89935608001E+03  0.00000000000E+00 0.  1.
         21   -1    0    0  501  503 -0.00000000000E+00 -0.00000000000E+00 -0.62370555812E+02  0.62370555812E+02  0.00000000000E+00 0.  1.
          6    1    1    2  501    0 -0.56338530194E+02 -0.11743393256E+03  0.22375507562E+03  0.31138415562E+03  0.17300000000E+03 0.  1.
         -6    1    1    2    0  502  0.56338530194E+02  0.11743393256E+03  0.61323044857E+03  0.65034248020E+03  0.17300000000E+03 0.  1.
<mgrwt>
<rscale>  2 0.21654967E+03</rscale>
<asrwt>0</asrwt>
<pdfrwt beam="1">  1       21 0.13836246E+00 0.21654967E+03</pdfrwt>
<pdfrwt beam="2">  1       21 0.95954708E-02 0.21654967E+03</pdfrwt>
<totfact> 0.31741870E+04</totfact>
</mgrwt>
</event>
<event>
 4    2  0.4063641E+000  0.1976751E+03  0.7546771E-02  0.1151715E+00
         21   -1    0    0  503  502  0.00000000000E+00  0.00000000000E+00  0.26896581175E+03  0.26896581175E+03  0.00000000000E+00 0. -1.
         21   -1    0    0  501  503 -0.00000000000E+00 -0.00000000000E+00 -0.53239928516E+03  0.53239928516E+03  0.00000000000E+00 0.  1.
          6    1    1    2  501    0 -0.55120681803E+02 -0.78154655342E+02 -0.47338443228E+03  0.51299927918E+03  0.17300000000E+03 0.  1.
         -6    1    1    2    0  502  0.55120681803E+02  0.78154655342E+02  0.20995095887E+03  0.28836581774E+03  0.17300000000E+03 0. -1.
<mgrwt>
<rscale>  2 0.19767509E+03</rscale>
<asrwt>0</asrwt>
<pdfrwt beam="1">  1       21 0.41379356E-01 0.19767509E+03</pdfrwt>
<pdfrwt beam="2">  1       21 0.81907583E-01 0.19767509E+03</pdfrwt>
<totfact> 0.73056657E+03</totfact>
</mgrwt>
</event>
<event>
 4    2  0.4063641E+000  0.1906816E+03  0.7546771E-02  0.1157848E+00
         21   -1    0    0  503  502  0.00000000000E+00  0.00000000000E+00  0.13419869701E+03  0.13419869701E+03  0.00000000000E+00 0. -1.
         21   -1    0    0  501  503 -0.00000000000E+00 -0.00000000000E+00 -0.47066429162E+03  0.47066429162E+03  0.00000000000E+00 0. -1.
          6    1    1    2  501    0  0.16567636398E+02  0.78460160407E+02 -0.36524329106E+03  0.41202202005E+03  0.17300000000E+03 0. -1.
         -6    1    1    2    0  502 -0.16567636398E+02 -0.78460160407E+02  0.28777696443E+02  0.19284096857E+03  0.17300000000E+03 0. -1.
<mgrwt>
<rscale>  2 0.19068163E+03</rscale>
<asrwt>0</asrwt>
<pdfrwt beam="1">  1       21 0.20645953E-01 0.19068163E+03</pdfrwt>
<pdfrwt beam="2">  1       21 0.72409892E-01 0.19068163E+03</pdfrwt>
<totfact> 0.37434158E+04</totfact>
</mgrwt>
</event>
<event>
 4    2  0.4063641E+000  0.2734501E+03  0.7546771E-02  0.1099321E+00
         21   -1    0    0  501  502  0.00000000000E+00  0.00000000000E+00  0.17079010007E+03  0.17079010007E+03  0.00000000000E+00 0.  1.
         21   -1    0    0  502  503 -0.00000000000E+00 -0.00000000000E+00 -0.44927676394E+03  0.44927676394E+03  0.00000000000E+00 0. -1.
          6    1    1    2  501    0 -0.77013330511E+02  0.19726859045E+03 -0.89729814066E+02  0.28779574248E+03  0.17300000000E+03 0. -1.
         -6    1    1    2    0  503  0.77013330511E+02 -0.19726859045E+03 -0.18875684981E+03  0.33227112154E+03  0.17300000000E+03 0.  1.
<mgrwt>
<rscale>  2 0.27345009E+03</rscale>
<asrwt>0</asrwt>
<pdfrwt beam="1">  1       21 0.26275400E-01 0.27345009E+03</pdfrwt>
<pdfrwt beam="2">  1       21 0.69119501E-01 0.27345009E+03</pdfrwt>
<totfact> 0.25200496E+04</totfact>
</mgrwt>
</event>
<event>
 4    2  0.4063641E+000  0.1893438E+03  0.7546771E-02  0.1159055E+00
         21   -1    0    0  501  502  0.00000000000E+00  0.00000000000E+00  0.37583895988E+03  0.37583895988E+03  0.00000000000E+00 0. -1.
         21   -1    0    0  502  503 -0.00000000000E+00 -0.00000000000E+00 -0.15323611788E+03  0.15323611788E+03  0.00000000000E+00 0.  1.
          6    1    1    2  501    0 -0.74855853729E+02 -0.17851601529E+02  0.27383602733E+03  0.33292228579E+03  0.17300000000E+03 0. -1.
         -6    1    1    2    0  503  0.74855853729E+02  0.17851601529E+02 -0.51233185333E+02  0.19615279196E+03  0.17300000000E+03 0.  1.
<mgrwt>
<rscale>  2 0.18934381E+03</rscale>
<asrwt>0</asrwt>
<pdfrwt beam="1">  1       21 0.57821378E-01 0.18934381E+03</pdfrwt>
<pdfrwt beam="2">  1       21 0.23574787E-01 0.18934381E+03</pdfrwt>
<totfact> 0.47579804E+04</totfact>
</mgrwt>
</event>
<event>
 4    2  0.4063641E+000  0.1772722E+03  0.7546771E-02  0.1170469E+00
         21   -1    0    0  503  502  0.00000000000E+00  0.00000000000E+00  0.34387179404E+03  0.34387179404E+03  0.00000000000E+00 0. -1.
         21   -1    0    0  501  503 -0.00000000000E+00 -0.00000000000E+00 -0.98883536369E+02  0.98883536369E+02  0.00000000000E+00 0. -1.
          6    1    1    2  501    0 -0.28524711704E+02  0.26129754037E+02  0.61540276517E+02  0.18765028339E+03  0.17300000000E+03 0.  1.
         -6    1    1    2    0  502  0.28524711704E+02 -0.26129754037E+02  0.18344798116E+03  0.25510504702E+03  0.17300000000E+03 0.  1.
<mgrwt>
<rscale>  2 0.17727217E+03</rscale>
<asrwt>0</asrwt>
<pdfrwt beam="1">  1       21 0.52903352E-01 0.17727217E+03</pdfrwt>
<pdfrwt beam="2">  1       21 0.15212852E-01 0.17727217E+03</pdfrwt>
<totfact> 0.13014032E+05</totfact>
</mgrwt>
</event>
<event>
 4    2  0.4063641E+000  0.2184031E+03  0.7546771E-02  0.1135079E+00
         21   -1    0    0  503  502  0.00000000000E+00  0.00000000000E+00  0.10297990243E+04  0.10297990243E+04  0.00000000000E+00 0. -1.
         21   -1    0    0  501  503 -0.00000000000E+00 -0.00000000000E+00 -0.48803402826E+02  0.48803402826E+02  0.00000000000E+00 0. -1.
          6    1    1    2  501    0  0.10164580517E+03 -0.86249941152E+02  0.61216157211E+03  0.64995516185E+03  0.17300000000E+03 0. -1.
         -6    1    1    2    0  502 -0.10164580517E+03  0.86249941152E+02  0.36883404941E+03  0.42864726532E+03  0.17300000000E+03 0. -1.
<mgrwt>
<rscale>  2 0.21840312E+03</rscale>
<asrwt>0</asrwt>
<pdfrwt beam="1">  1       21 0.15843060E+00 0.21840312E+03</pdfrwt>
<pdfrwt beam="2">  1       21 0.75082166E-02 0.21840312E+03</pdfrwt>
<totfact> 0.34093253E+04</totfact>
</mgrwt>
</event>
<event>
 4    2  0.4063641E+000  0.1905188E+03  0.7546771E-02  0.1157994E+00
         21   -1    0    0  501  502  0.00000000000E+00  0.00000000000E+00  0.85680036593E+02  0.85680036593E+02  0.00000000000E+00 0.  1.
         21   -1    0    0  502  503 -0.00000000000E+00 -0.00000000000E+00 -0.55792560023E+03  0.55792560023E+03  0.00000000000E+00 0.  1.
          6    1    1    2  501    0  0.12576285494E+02  0.78805185214E+02 -0.78246186448E+02  0.20596088431E+03  0.17300000000E+03 0.  1.
         -6    1    1    2    0  503 -0.12576285494E+02 -0.78805185214E+02 -0.39399937719E+03  0.43764475251E+03  0.17300000000E+03 0.  1.
<mgrwt>
<rscale>  2 0.19051882E+03</rscale>
<asrwt>0</asrwt>
<pdfrwt beam="1">  1       21 0.13181544E-01 0.19051882E+03</pdfrwt>
<pdfrwt beam="2">  1       21 0.85834708E-01 0.19051882E+03</pdfrwt>
<totfact> 0.58150300E+04</totfact>
</mgrwt>
</event>
<event>
 4    2  0.4063641E+000  0.2206818E+03  0.7546771E-02  0.1133376E+00
         21   -1    0    0  501  502  0.00000000000E+00  0.00000000000E+00  0.24509836528E+03  0.24509836528E+03  0.00000000000E+00 0.  1.
         21   -1    0    0  502  503 -0.00000000000E+00 -0.00000000000E+00 -0.21106342679E+03  0.21106342679E+03  0.00000000000E+00 0. -1.
          6    1    1    2  501    0 -0.12046956253E+03 -0.65257592473E+02 -0.38189403013E+02  0.22396182571E+03  0.17300000000E+03 0.  1.
         -6    1    1    2    0  503  0.12046956253E+03  0.65257592473E+02  0.72224341511E+02  0.23219996636E+03  0.17300000000E+03 0. -1.
<mgrwt>
<rscale>  2 0.22068183E+03</rscale>
<asrwt>0</asrwt>
<pdfrwt beam="1">  1       21 0.37707441E-01 0.22068183E+03</pdfrwt>
<pdfrwt beam="2">  1       21 0.32471297E-01 0.22068183E+03</pdfrwt>
<totfact> 0.61128493E+04</totfact>
</mgrwt>
</event>
<event>
 4    2  0.4063641E+000  0.2105630E+03  0.7546771E-02  0.1141121E+00
         21   -1    0    0  501  502  0.00000000000E+00  0.00000000000E+00  0.83786556966E+02  0.83786556966E+02  0.00000000000E+00 0.  1.
         21   -1    0    0  502  503 -0.00000000000E+00 -0.00000000000E+00 -0.54696494115E+03  0.54696494115E+03  0.00000000000E+00 0.  1.
          6    1    1    2  501    0 -0.32817980944E+02 -0.11545888496E+03 -0.17469366398E+03  0.27359577888E+03  0.17300000000E+03 0.  1.
         -6    1    1    2    0  503  0.32817980944E+02  0.11545888496E+03 -0.28848472021E+03  0.35715571924E+03  0.17300000000E+03 0.  1.
<mgrwt>
<rscale>  2 0.21056299E+03</rscale>
<asrwt>0</asrwt>
<pdfrwt beam="1">  1       21 0.12890240E-01 0.21056299E+03</pdfrwt>
<pdfrwt beam="2">  1       21 0.84148448E-01 0.21056299E+03</pdfrwt>
<totfact> 0.62753777E+04</totfact>
</mgrwt>
</event>
<event>
 4    2  0.4063641E+000  0.1798114E+03  0.7546771E-02  0.1167986E+00
         21   -1    0    0  503  502  0.00000000000E+00  0.00000000000E+00  0.81626551322E+03  0.81626551322E+03  0.00000000000E+00 0.  1.
         21   -1    0    0  501  503 -0.00000000000E+00 -0.00000000000E+00 -0.61645134132E+02  0.61645134132E+02  0.00000000000E+00 0. -1.
          6    1    1    2  501    0 -0.48329590198E+02  0.82081277433E+01  0.11486982520E+03  0.21337103691E+03  0.17300000000E+03 0. -1.
         -6    1    1    2    0  502  0.48329590198E+02 -0.82081277433E+01  0.63975055389E+03  0.66453961045E+03  0.17300000000E+03 0.  1.
<mgrwt>
<rscale>  2 0.17981135E+03</rscale>
<asrwt>0</asrwt>
<pdfrwt beam="1">  1       21 0.12557930E+00 0.17981135E+03</pdfrwt>
<pdfrwt beam="2">  1       21 0.94838673E-02 0.17981135E+03</pdfrwt>
<totfact> 0.42307605E+04</totfact>
</mgrwt>
</event>
<event>
 4    2  0.4063641E+000  0.1748742E+03  0.7546771E-02  0.1172858E+00
         21   -1    0    0  501  502  0.00000000000E+00  0.00000000000E+00  0.80988462183E+03  0.80988462183E+03  0.00000000000E+00 0. -1.
         21   -1    0    0  502  503 -0.00000000000E+00 -0.00000000000E+00 -0.40926029870E+02  0.40926029870E+02  0.00000000000E+00 0. -1.
          6    1    1    2  501    0  0.11449767186E+02  0.22823252439E+02  0.50280562496E+03  0.53234809525E+03  0.17300000000E+03 0. -1.
         -6    1    1    2    0  503 -0.11449767186E+02 -0.22823252439E+02  0.26615296700E+03  0.31846255645E+03  0.17300000000E+03 0. -1.
<mgrwt>
<rscale>  2 0.17487423E+03</rscale>
<asrwt>0</asrwt>
<pdfrwt beam="1">  1       21 0.12459762E+00 0.17487423E+03</pdfrwt>
<pdfrwt beam="2">  1       21 0.62963129E-02 0.17487423E+03</pdfrwt>
<totfact> 0.88016146E+04</totfact>
</mgrwt>
</event>
<event>
 4    2  0.4063641E+000  0.2397855E+03  0.7546771E-02  0.1119936E+00
         21   -1    0    0  501  502  0.00000000000E+00  0.00000000000E+00  0.20347539245E+03  0.20347539245E+03  0.00000000000E+00 0. -1.
         21   -1    0    0  502  503 -0.00000000000E+00 -0.00000000000E+00 -0.52379152825E+03  0.52379152825E+03  0.00000000000E+00 0. -1.
          6    1    1    2  501    0  0.15837842549E+03  0.49843541650E+02  0.86609416999E+02  0.25494763270E+03  0.17300000000E+03 0. -1.
         -6    1    1    2    0  503 -0.15837842549E+03 -0.49843541650E+02 -0.40692555280E+03  0.47231928801E+03  0.17300000000E+03 0. -1.
<mgrwt>
<rscale>  2 0.23978554E+03</rscale>
<asrwt>0</asrwt>
<pdfrwt beam="1">  1       21 0.31303907E-01 0.23978554E+03</pdfrwt>
<pdfrwt beam="2">  1       21 0.80583311E-01 0.23978554E+03</pdfrwt>
<totfact> 0.12888539E+04</totfact>
</mgrwt>
</event>
<event>
 4    2  0.4063641E+000  0.2688173E+03  0.7546771E-02  0.1101958E+00
         21   -1    0    0  501  502  0.00000000000E+00  0.00000000000E+00  0.53444775854E+03  0.53444775854E+03  0.00000000000E+00 0. -1.
         21   -1    0    0  502  503 -0.00000000000E+00 -0.00000000000E+00 -0.14622368080E+03  0.14622368080E+03  0.00000000000E+00 0.  1.
          6    1    1    2  501    0 -0.85230932515E+02 -0.18726826698E+03  0.10070843009E+03  0.28706254295E+03  0.17300000000E+03 0.  1.
         -6    1    1    2    0  503  0.85230932515E+02  0.18726826698E+03  0.28751564765E+03  0.39360889639E+03  0.17300000000E+03 0.  1.
<mgrwt>
<rscale>  2 0.26881725E+03</rscale>
<asrwt>0</asrwt>
<pdfrwt beam="1">  1       21 0.82222731E-01 0.26881725E+03</pdfrwt>
<pdfrwt beam="2">  1       21 0.22495951E-01 0.26881725E+03</pdfrwt>
<totfact> 0.22996830E+04</totfact>
</mgrwt>
</event>
<event>
 4    2  0.4063641E+000  0.1859841E+03  0.7546771E-02  0.1162134E+00
         21   -1    0    0  501  502  0.00000000000E+00  0.00000000000E+00  0.82184911865E+02  0.82184911865E+02  0.00000000000E+00 0. -1.
         21   -1    0    0  502  503 -0.00000000000E+00 -0.00000000000E+00 -0.51363453235E+03  0.51363453235E+03  0.00000000000E+00 0.  1.
          6    1    1    2  501    0 -0.49388808063E+02 -0.47136161967E+02 -0.89128024982E+02  0.20623742862E+03  0.17300000000E+03 0. -1.
         -6    1    1    2    0  503  0.49388808063E+02  0.47136161967E+02 -0.34232159550E+03  0.38958201559E+03  0.17300000000E+03 0.  1.
<mgrwt>
<rscale>  2 0.18598406E+03</rscale>
<asrwt>0</asrwt>
<pdfrwt beam="1">  1       21 0.12643832E-01 0.18598406E+03</pdfrwt>
<pdfrwt beam="2">  1       21 0.79020700E-01 0.18598406E+03</pdfrwt>
<totfact> 0.75778726E+04</totfact>
</mgrwt>
</event>
<event>
 4    2  0.4063641E+000  0.1812312E+03  0.7546771E-02  0.1166617E+00
         21   -1    0    0  501  502  0.00000000000E+00  0.00000000000E+00  0.27280962605E+03  0.27280962605E+03  0.00000000000E+00 0.  1.
         21   -1    0    0  502  503 -0.00000000000E+00 -0.00000000000E+00 -0.12047692450E+03  0.12047692450E+03  0.00000000000E+00 0.  1.
          6    1    1    2  501    0 -0.39626705932E+02  0.36680688516E+02  0.71019485370E+02  0.19464972652E+03  0.17300000000E+03 0. -1.
         -6    1    1    2    0  503  0.39626705932E+02 -0.36680688516E+02  0.81313216185E+02  0.19863682403E+03  0.17300000000E+03 0. -1.
<mgrwt>
<rscale>  2 0.18123120E+03</rscale>
<asrwt>0</asrwt>
<pdfrwt beam="1">  1       21 0.41970711E-01 0.18123120E+03</pdfrwt>
<pdfrwt beam="2">  1       21 0.18534912E-01 0.18123120E+03</pdfrwt>
<totfact> 0.14585171E+05</totfact>
</mgrwt>
</event>
<event>
 4    2  0.4063641E+000  0.2100017E+03  0.7546771E-02  0.1141565E+00
         21   -1    0    0  503  502  0.00000000000E+00  0.00000000000E+00  0.62704625584E+02  0.62704625584E+02  0.00000000000E+00 0. -1.
         21   -1    0    0  501  503 -0.00000000000E+00 -0.00000000000E+00 -0.76123579466E+03  0.76123579466E+03  0.00000000000E+00 0. -1.
          6    1    1    2  501    0  0.95947642284E+02 -0.70468161945E+02 -0.46290968469E+03  0.50831691698E+03  0.17300000000E+03 0. -1.
         -6    1    1    2    0  502 -0.95947642284E+02  0.70468161945E+02 -0.23562148439E+03  0.31562350326E+03  0.17300000000E+03 0. -1.
<mgrwt>
<rscale>  2 0.21000170E+03</rscale>
<asrwt>0</asrwt>
<pdfrwt beam="1">  1       21 0.96468654E-02 0.21000170E+03</pdfrwt>
<pdfrwt beam="2">  1       21 0.11711320E+00 0.21000170E+03</pdfrwt>
<totfact> 0.48041351E+04</totfact>
</mgrwt>
</event>
<event>
 4    2  0.4063641E+000  0.1857265E+03  0.7546771E-02  0.1162373E+00
         21   -1    0    0  501  502  0.00000000000E+00  0.00000000000E+00  0.38056863589E+02  0.38056863589E+02  0.00000000000E+00 0. -1.
         21   -1    0    0  502  503 -0.00000000000E+00 -0.00000000000E+00 -0.13708051343E+04  0.13708051343E+04  0.00000000000E+00 0. -1.
          6    1    1    2  501    0  0.18249550827E+02  0.65055971033E+02 -0.25635491888E+03  0.31656305834E+03  0.17300000000E+03 0. -1.
         -6    1    1    2    0  503 -0.18249550827E+02 -0.65055971033E+02 -0.10763933519E+04  0.10922989396E+04  0.17300000000E+03 0. -1.
<mgrwt>
<rscale>  2 0.18572648E+03</rscale>
<asrwt>0</asrwt>
<pdfrwt beam="1">  1       21 0.58549017E-02 0.18572648E+03</pdfrwt>
<pdfrwt beam="2">  1       21 0.21089311E+00 0.18572648E+03</pdfrwt>
<totfact> 0.23679574E+04</totfact>
</mgrwt>
</event>
<event>
 4    2  0.4063641E+000  0.1942789E+03  0.7546771E-02  0.1154658E+00
         21   -1    0    0  501  502  0.00000000000E+00  0.00000000000E+00  0.55831679480E+03  0.55831679480E+03  0.00000000000E+00 0. -1.
         21   -1    0    0  502  503 -0.00000000000E+00 -0.00000000000E+00 -0.67821993787E+02  0.67821993787E+02  0.00000000000E+00 0. -1.
          6    1    1    2  501    0  0.87699235048E+02 -0.11141181444E+02  0.26300870513E+03  0.32698296703E+03  0.17300000000E+03 0. -1.
         -6    1    1    2    0  503 -0.87699235048E+02  0.11141181444E+02  0.22748609588E+03  0.29915582156E+03  0.17300000000E+03 0. -1.
<mgrwt>
<rscale>  2 0.19427888E+03</rscale>
<asrwt>0</asrwt>
<pdfrwt beam="1">  1       21 0.85894888E-01 0.19427888E+03</pdfrwt>
<pdfrwt beam="2">  1       21 0.10434153E-01 0.19427888E+03</pdfrwt>
<totfact> 0.87994634E+04</totfact>
</mgrwt>
</event>
<event>
 4    2  0.4063641E+000  0.1833512E+03  0.7546771E-02  0.1164599E+00
         21   -1    0    0  501  502  0.00000000000E+00  0.00000000000E+00  0.85138994583E+03  0.85138994583E+03  0.00000000000E+00 0. -1.
         21   -1    0    0  502  503 -0.00000000000E+00 -0.00000000000E+00 -0.72955493465E+02  0.72955493465E+02  0.00000000000E+00 0. -1.
          6    1    1    2  501    0  0.19970376443E+02 -0.57357031053E+02  0.70225911578E+03  0.72579991089E+03  0.17300000000E+03 0. -1.
         -6    1    1    2    0  503 -0.19970376443E+02  0.57357031053E+02  0.76175336583E+02  0.19854552841E+03  0.17300000000E+03 0. -1.
<mgrwt>
<rscale>  2 0.18335115E+03</rscale>
<asrwt>0</asrwt>
<pdfrwt beam="1">  1       21 0.13098306E+00 0.18335115E+03</pdfrwt>
<pdfrwt beam="2">  1       21 0.11223923E-01 0.18335115E+03</pdfrwt>
<totfact> 0.28199482E+04</totfact>
</mgrwt>
</event>
<event>
 4    2  0.4063641E+000  0.2231315E+03  0.7546771E-02  0.1131570E+00
         21   -1    0    0  501  502  0.00000000000E+00  0.00000000000E+00  0.55178847698E+03  0.55178847698E+03  0.00000000000E+00 0. -1.
         21   -1    0    0  502  503 -0.00000000000E+00 -0.00000000000E+00 -0.15890131204E+03  0.15890131204E+03  0.00000000000E+00 0. -1.
          6    1    1    2  501    0 -0.12975657646E+03 -0.54971839298E+02  0.43004483591E+03  0.48448553450E+03  0.17300000000E+03 0. -1.
         -6    1    1    2    0  503  0.12975657646E+03  0.54971839298E+02 -0.37157670965E+02  0.22620425452E+03  0.17300000000E+03 0. -1.
<mgrwt>
<rscale>  2 0.22313151E+03</rscale>
<asrwt>0</asrwt>
<pdfrwt beam="1">  1       21 0.84890534E-01 0.22313151E+03</pdfrwt>
<pdfrwt beam="2">  1       21 0.24446356E-01 0.22313151E+03</pdfrwt>
<totfact> 0.18654898E+04</totfact>
</mgrwt>
</event>
<event>
 4    2  0.4063641E+000  0.2493342E+03  0.7546771E-02  0.1113726E+00
         21   -1    0    0  501  502  0.00000000000E+00  0.00000000000E+00  0.29331553328E+03  0.29331553328E+03  0.00000000000E+00 0. -1.
         21   -1    0    0  502  503 -0.00000000000E+00 -0.00000000000E+00 -0.63394724610E+03  0.63394724610E+03  0.00000000000E+00 0.  1.
          6    1    1    2  501    0  0.16617348221E+03  0.68006664671E+02  0.20795449161E+03  0.32467307127E+03  0.17300000000E+03 0. -1.
         -6    1    1    2    0  503 -0.16617348221E+03 -0.68006664671E+02 -0.54858620443E+03  0.60258970811E+03  0.17300000000E+03 0.  1.
<mgrwt>
<rscale>  2 0.24933418E+03</rscale>
<asrwt>0</asrwt>
<pdfrwt beam="1">  1       21 0.45125467E-01 0.24933418E+03</pdfrwt>
<pdfrwt beam="2">  1       21 0.97530345E-01 0.24933418E+03</pdfrwt>
<totfact> 0.39349144E+03</totfact>
</mgrwt>
</event>
<event>
 4    2  0.4063641E+000  0.1730707E+03  0.7546771E-02  0.1174683E+00
         21   -1    0    0  501  502  0.00000000000E+00  0.00000000000E+00  0.41307559893E+03  0.41307559893E+03  0.00000000000E+00 0. -1.
         21   -1    0    0  502  503 -0.00000000000E+00 -0.00000000000E+00 -0.28448022757E+03  0.28448022757E+03  0.00000000000E+00 0. -1.
          6    1    1    2  501    0  0.38623920754E+01  0.30877348457E+01  0.36536044669E+03  0.40427924531E+03  0.17300000000E+03 0. -1.
         -6    1    1    2    0  503 -0.38623920754E+01 -0.30877348457E+01 -0.23676507533E+03  0.29327658119E+03  0.17300000000E+03 0. -1.
<mgrwt>
<rscale>  2 0.17307066E+03</rscale>
<asrwt>0</asrwt>
<pdfrwt beam="1">  1       21 0.63550092E-01 0.17307066E+03</pdfrwt>
<pdfrwt beam="2">  1       21 0.43766189E-01 0.17307066E+03</pdfrwt>
<totfact> 0.11637430E+04</totfact>
</mgrwt>
</event>
<event>
 4    2  0.4063641E+000  0.2041890E+03  0.7546771E-02  0.1146252E+00
         21   -1    0    0  501  502  0.00000000000E+00  0.00000000000E+00  0.35351374171E+03  0.35351374171E+03  0.00000000000E+00 0. -1.
         21   -1    0    0  502  503 -0.00000000000E+00 -0.00000000000E+00 -0.19234918995E+03  0.19234918995E+03  0.00000000000E+00 0. -1.
          6    1    1    2  501    0  0.10456063182E+03  0.28831089899E+02  0.25033775690E+03  0.32305131171E+03  0.17300000000E+03 0. -1.
         -6    1    1    2    0  503 -0.10456063182E+03 -0.28831089899E+02 -0.89173205138E+02  0.22281161995E+03  0.17300000000E+03 0. -1.
<mgrwt>
<rscale>  2 0.20418902E+03</rscale>
<asrwt>0</asrwt>
<pdfrwt beam="1">  1       21 0.54386729E-01 0.20418902E+03</pdfrwt>
<pdfrwt beam="2">  1       21 0.29592183E-01 0.20418902E+03</pdfrwt>
<totfact> 0.34740890E+04</totfact>
</mgrwt>
</event>
<event>
 4    2  0.4063641E+000  0.2285407E+03  0.7546771E-02  0.1127671E+00
         21   -1    0    0  501  502  0.00000000000E+00  0.00000000000E+00  0.76459658443E+03  0.76459658443E+03  0.00000000000E+00 0.  1.
         21   -1    0    0  502  503 -0.00000000000E+00 -0.00000000000E+00 -0.11234401483E+03  0.11234401483E+03  0.00000000000E+00 0.  1.
          6    1    1    2  501    0  0.34588247636E+02  0.14527727338E+03  0.60063197628E+03  0.64264267207E+03  0.17300000000E+03 0.  1.
         -6    1    1    2    0  503 -0.34588247636E+02 -0.14527727338E+03  0.51620593322E+02  0.23429792720E+03  0.17300000000E+03 0.  1.
<mgrwt>
<rscale>  2 0.22854066E+03</rscale>
<asrwt>0</asrwt>
<pdfrwt beam="1">  1       21 0.11763024E+00 0.22854066E+03</pdfrwt>
<pdfrwt beam="2">  1       21 0.17283695E-01 0.22854066E+03</pdfrwt>
<totfact> 0.16413070E+04</totfact>
</mgrwt>
</event>
<event>
 4    2  0.4063641E+000  0.1813006E+03  0.7546771E-02  0.1166550E+00
         21   -1    0    0  503  502  0.00000000000E+00  0.00000000000E+00  0.42383145097E+03  0.42383145097E+03  0.00000000000E+00 0. -1.
         21   -1    0    0  501  503 -0.00000000000E+00 -0.00000000000E+00 -0.10058433647E+03  0.10058433647E+03  0.00000000000E+00 0. -1.
          6    1    1    2  501    0 -0.51113198767E+02 -0.18120841788E+02  0.36156847552E+02  0.18487087824E+03  0.17300000000E+03 0. -1.
         -6    1    1    2    0  502  0.51113198767E+02  0.18120841788E+02  0.28709026694E+03  0.33954490921E+03  0.17300000000E+03 0. -1.
<mgrwt>
<rscale>  2 0.18130065E+03</rscale>
<asrwt>0</asrwt>
<pdfrwt beam="1">  1       21 0.65204838E-01 0.18130065E+03</pdfrwt>
<pdfrwt beam="2">  1       21 0.15474513E-01 0.18130065E+03</pdfrwt>
<totfact> 0.80603677E+04</totfact>
</mgrwt>
</event>
<event>
 4    2  0.4063641E+000  0.1967089E+03  0.7546771E-02  0.1152546E+00
         21   -1    0    0  501  502  0.00000000000E+00  0.00000000000E+00  0.45780424099E+03  0.45780424099E+03  0.00000000000E+00 0. -1.
         21   -1    0    0  502  503 -0.00000000000E+00 -0.00000000000E+00 -0.10866817442E+03  0.10866817442E+03  0.00000000000E+00 0. -1.
          6    1    1    2  501    0  0.92608714595E+02 -0.13747870160E+02  0.41054668852E+02  0.20094741548E+03  0.17300000000E+03 0. -1.
         -6    1    1    2    0  503 -0.92608714595E+02  0.13747870160E+02  0.30808139772E+03  0.36552499993E+03  0.17300000000E+03 0. -1.
<mgrwt>
<rscale>  2 0.19670887E+03</rscale>
<asrwt>0</asrwt>
<pdfrwt beam="1">  1       21 0.70431421E-01 0.19670887E+03</pdfrwt>
<pdfrwt beam="2">  1       21 0.16718181E-01 0.19670887E+03</pdfrwt>
<totfact> 0.58694627E+04</totfact>
</mgrwt>
</event>
<event>
 4    2  0.4063641E+000  0.2343551E+03  0.7546771E-02  0.1123611E+00
         21   -1    0    0  503  502  0.00000000000E+00  0.00000000000E+00  0.44309410682E+03  0.44309410682E+03  0.00000000000E+00 0.  1.
         21   -1    0    0  501  503 -0.00000000000E+00 -0.00000000000E+00 -0.56134621623E+03  0.56134621623E+03  0.00000000000E+00 0.  1.
          6    1    1    2  501    0 -0.10658034700E+03  0.11676440676E+03 -0.50244406740E+03  0.55441170435E+03  0.17300000000E+03 0.  1.
         -6    1    1    2    0  502  0.10658034700E+03 -0.11676440676E+03  0.38419195800E+03  0.45002861870E+03  0.17300000000E+03 0.  1.
<mgrwt>
<rscale>  2 0.23435507E+03</rscale>
<asrwt>0</asrwt>
<pdfrwt beam="1">  1       21 0.68168324E-01 0.23435507E+03</pdfrwt>
<pdfrwt beam="2">  1       21 0.86360956E-01 0.23435507E+03</pdfrwt>
<totfact> 0.21920878E+03</totfact>
</mgrwt>
</event>
<event>
 4    2  0.4063641E+000  0.2779708E+03  0.7546771E-02  0.1096802E+00
         21   -1    0    0  501  502  0.00000000000E+00  0.00000000000E+00  0.28728726910E+02  0.28728726910E+02  0.00000000000E+00 0. -1.
         21   -1    0    0  502  503 -0.00000000000E+00 -0.00000000000E+00 -0.29194258528E+04  0.29194258528E+04  0.00000000000E+00 0. -1.
          6    1    1    2  501    0 -0.47202608679E+02  0.21239275943E+03 -0.10317259288E+04  0.10685158692E+04  0.17300000000E+03 0. -1.
         -6    1    1    2    0  503  0.47202608679E+02 -0.21239275943E+03 -0.18589711970E+04  0.18796387105E+04  0.17300000000E+03 0. -1.
<mgrwt>
<rscale>  2 0.27797081E+03</rscale>
<asrwt>0</asrwt>
<pdfrwt beam="1">  1       21 0.44198035E-02 0.27797081E+03</pdfrwt>
<pdfrwt beam="2">  1       21 0.44914250E+00 0.27797081E+03</pdfrwt>
<totfact> 0.12514256E+03</totfact>
</mgrwt>
</event>
<event>
 4    2  0.4063641E+000  0.1980599E+03  0.7546771E-02  0.1151386E+00
         21   -1    0    0  503  502  0.00000000000E+00  0.00000000000E+00  0.56829669227E+03  0.56829669227E+03  0.00000000000E+00 0. -1.
         21   -1    0    0  501  503 -0.00000000000E+00 -0.00000000000E+00 -0.71829361967E+02  0.71829361967E+02  0.00000000000E+00 0.  1.
          6    1    1    2  501    0 -0.78066882299E+02 -0.56606307828E+02  0.31145457499E+03  0.36909573891E+03  0.17300000000E+03 0. -1.
         -6    1    1    2    0  502  0.78066882299E+02  0.56606307828E+02  0.18501275530E+03  0.27103031532E+03  0.17300000000E+03 0. -1.
<mgrwt>
<rscale>  2 0.19805987E+03</rscale>
<asrwt>0</asrwt>
<pdfrwt beam="1">  1       21 0.87430257E-01 0.19805987E+03</pdfrwt>
<pdfrwt beam="2">  1       21 0.11050671E-01 0.19805987E+03</pdfrwt>
<totfact> 0.76163913E+04</totfact>
</mgrwt>
</event>
<event>
 4    2  0.4063641E+000  0.2446678E+03  0.7546771E-02  0.1116722E+00
         21   -1    0    0  503  502  0.00000000000E+00  0.00000000000E+00  0.66305931055E+02  0.66305931055E+02  0.00000000000E+00 0.  1.
         21   -1    0    0  501  503 -0.00000000000E+00 -0.00000000000E+00 -0.12394208159E+04  0.12394208159E+04  0.00000000000E+00 0.  1.
          6    1    1    2  501    0 -0.13026244823E+03  0.11386397863E+03 -0.24632902292E+03  0.34718913949E+03  0.17300000000E+03 0.  1.
         -6    1    1    2    0  502  0.13026244823E+03 -0.11386397863E+03 -0.92678586188E+03  0.95853760741E+03  0.17300000000E+03 0.  1.
<mgrwt>
<rscale>  2 0.24466776E+03</rscale>
<asrwt>0</asrwt>
<pdfrwt beam="1">  1       21 0.10200912E-01 0.24466776E+03</pdfrwt>
<pdfrwt beam="2">  1       21 0.19068013E+00 0.24466776E+03</pdfrwt>
<totfact> 0.11640291E+04</totfact>
</mgrwt>
</event>
<event>
 4    2  0.4063641E+000  0.4117784E+03  0.7546771E-02  0.1039776E+00
         21   -1    0    0  503  502  0.00000000000E+00  0.00000000000E+00  0.48315171102E+03  0.48315171102E+03  0.00000000000E+00 0. -1.
         21   -1    0    0  501  503 -0.00000000000E+00 -0.00000000000E+00 -0.11003443970E+04  0.11003443970E+04  0.00000000000E+00 0.  1.
          6    1    1    2  501    0 -0.33493167716E+03 -0.16569024315E+03 -0.96199505176E+03  0.10464205487E+04  0.17300000000E+03 0.  1.
         -6    1    1    2    0  502  0.33493167716E+03  0.16569024315E+03  0.34480236577E+03  0.53707555938E+03  0.17300000000E+03 0. -1.
<mgrwt>
<rscale>  2 0.41177844E+03</rscale>
<asrwt>0</asrwt>
<pdfrwt beam="1">  1       21 0.74331032E-01 0.41177844E+03</pdfrwt>
<pdfrwt beam="2">  1       21 0.16928375E+00 0.41177844E+03</pdfrwt>
<totfact> 0.29299873E+02</totfact>
</mgrwt>
</event>
<event>
 4    2  0.4063641E+000  0.1889052E+03  0.7546771E-02  0.1159452E+00
         21   -1    0    0  501  502  0.00000000000E+00  0.00000000000E+00  0.20934307440E+03  0.20934307440E+03  0.00000000000E+00 0.  1.
         21   -1    0    0  502  503 -0.00000000000E+00 -0.00000000000E+00 -0.20840055356E+03  0.20840055356E+03  0.00000000000E+00 0. -1.
          6    1    1    2  501    0  0.75809359915E+02  0.30214823379E+01  0.89589522364E+02  0.20907288424E+03  0.17300000000E+03 0.  1.
         -6    1    1    2    0  503 -0.75809359915E+02 -0.30214823379E+01 -0.88647001525E+02  0.20867074372E+03  0.17300000000E+03 0. -1.
<mgrwt>
<rscale>  2 0.18890524E+03</rscale>
<asrwt>0</asrwt>
<pdfrwt beam="1">  1       21 0.32206627E-01 0.18890524E+03</pdfrwt>
<pdfrwt beam="2">  1       21 0.32061624E-01 0.18890524E+03</pdfrwt>
<totfact> 0.86907389E+04</totfact>
</mgrwt>
</event>
<event>
 4    2  0.4063641E+000  0.1874970E+03  0.7546771E-02  0.1160738E+00
         21   -1    0    0  501  502  0.00000000000E+00  0.00000000000E+00  0.11548191764E+04  0.11548191764E+04  0.00000000000E+00 0.  1.
         21   -1    0    0  502  503 -0.00000000000E+00 -0.00000000000E+00 -0.31668993642E+02  0.31668993642E+02  0.00000000000E+00 0.  1.
          6    1    1    2  501    0 -0.30566549632E+02  0.65511912116E+02  0.67834183553E+03  0.70377750065E+03  0.17300000000E+03 0.  1.
         -6    1    1    2    0  503  0.30566549632E+02 -0.65511912116E+02  0.44480834724E+03  0.48271066941E+03  0.17300000000E+03 0.  1.
<mgrwt>
<rscale>  2 0.18749700E+03</rscale>
<asrwt>0</asrwt>
<pdfrwt beam="1">  1       21 0.17766446E+00 0.18749700E+03</pdfrwt>
<pdfrwt beam="2">  1       21 0.48721538E-02 0.18749700E+03</pdfrwt>
<totfact> 0.53219462E+04</totfact>
</mgrwt>
</event>
<event>
 4    2  0.4063641E+000  0.1921926E+03  0.7546771E-02  0.1156499E+00
         21   -1    0    0  501  502  0.00000000000E+00  0.00000000000E+00  0.45999333079E+02  0.45999333079E+02  0.00000000000E+00 0. -1.
         21   -1    0    0  502  503 -0.00000000000E+00 -0.00000000000E+00 -0.11420110762E+04  0.11420110762E+04  0.00000000000E+00 0.  1.
          6    1    1    2  501    0  0.78813259248E+02  0.28239311496E+02 -0.22437142653E+03  0.29543277677E+03  0.17300000000E+03 0. -1.
         -6    1    1    2    0  503 -0.78813259248E+02 -0.28239311496E+02 -0.87164031655E+03  0.89257763247E+03  0.17300000000E+03 0.  1.
<mgrwt>
<rscale>  2 0.19219258E+03</rscale>
<asrwt>0</asrwt>
<pdfrwt beam="1">  1       21 0.70768202E-02 0.19219258E+03</pdfrwt>
<pdfrwt beam="2">  1       21 0.17569402E+00 0.19219258E+03</pdfrwt>
<totfact> 0.28919930E+04</totfact>
</mgrwt>
</event>
<event>
 4    2  0.4063641E+000  0.1846057E+03  0.7546771E-02  0.1163419E+00
         21   -1    0    0  503  502  0.00000000000E+00  0.00000000000E+00  0.59284536589E+03  0.59284536589E+03  0.00000000000E+00 0. -1.
         21   -1    0    0  501  503 -0.00000000000E+00 -0.00000000000E+00 -0.61934278001E+02  0.61934278001E+02  0.00000000000E+00 0. -1.
          6    1    1    2  501    0 -0.14409409448E+01  0.64406512870E+02  0.35321232359E+03  0.39854513013E+03  0.17300000000E+03 0. -1.
         -6    1    1    2    0  502  0.14409409448E+01 -0.64406512870E+02  0.17769876430E+03  0.25623451376E+03  0.17300000000E+03 0. -1.
<mgrwt>
<rscale>  2 0.18460573E+03</rscale>
<asrwt>0</asrwt>
<pdfrwt beam="1">  1       21 0.91206976E-01 0.18460573E+03</pdfrwt>
<pdfrwt beam="2">  1       21 0.95283508E-02 0.18460573E+03</pdfrwt>
<totfact> 0.90310421E+04</totfact>
</mgrwt>
</event>
<event>
 4    2  0.4063641E+000  0.2417888E+03  0.7546771E-02  0.1118607E+00
         21   -1    0    0  503  502  0.00000000000E+00  0.00000000000E+00  0.40679311695E+02  0.40679311695E+02  0.00000000000E+00 0.  1.
         21   -1    0    0  501  503 -0.00000000000E+00 -0.00000000000E+00 -0.14389641712E+04  0.14389641712E+04  0.00000000000E+00 0. -1.
          6    1    1    2  501    0 -0.85832048097E+02  0.14548434860E+03 -0.72548888587E+03  0.76471953008E+03  0.17300000000E+03 0. -1.
         -6    1    1    2    0  502  0.85832048097E+02 -0.14548434860E+03 -0.67279597365E+03  0.71492395283E+03  0.17300000000E+03 0. -1.
<mgrwt>
<rscale>  2 0.24178883E+03</rscale>
<asrwt>0</asrwt>
<pdfrwt beam="1">  1       21 0.62583563E-02 0.24178883E+03</pdfrwt>
<pdfrwt beam="2">  1       21 0.22137908E+00 0.24178883E+03</pdfrwt>
<totfact> 0.17439757E+04</totfact>
</mgrwt>
</event>
<event>
 4    2  0.4063641E+000  0.3568486E+03  0.7546771E-02  0.1059839E+00
         21   -1    0    0  503  502  0.00000000000E+00  0.00000000000E+00  0.30954102720E+03  0.30954102720E+03  0.00000000000E+00 0.  1.
         21   -1    0    0  501  503 -0.00000000000E+00 -0.00000000000E+00 -0.13700107896E+04  0.13700107896E+04  0.00000000000E+00 0.  1.
          6    1    1    2  501    0 -0.12167288071E+03  0.28741542451E+03 -0.12327015031E+04  0.12833136451E+04  0.17300000000E+03 0.  1.
         -6    1    1    2    0  502  0.12167288071E+03 -0.28741542451E+03  0.17223174069E+03  0.39623817162E+03  0.17300000000E+03 0.  1.
<mgrwt>
<rscale>  2 0.35684859E+03</rscale>
<asrwt>0</asrwt>
<pdfrwt beam="1">  1       21 0.47621696E-01 0.35684859E+03</pdfrwt>
<pdfrwt beam="2">  1       21 0.21077089E+00 0.35684859E+03</pdfrwt>
<totfact> 0.41722594E+02</totfact>
</mgrwt>
</event>
<event>
 4    2  0.4063641E+000  0.2353660E+03  0.7546771E-02  0.1122919E+00
         21   -1    0    0  501  502  0.00000000000E+00  0.00000000000E+00  0.83575862929E+03  0.83575862929E+03  0.00000000000E+00 0. -1.
         21   -1    0    0  502  503 -0.00000000000E+00 -0.00000000000E+00 -0.66294748779E+02  0.66294748779E+02  0.00000000000E+00 0.  1.
          6    1    1    2  501    0  0.15891360822E+03 -0.14649433831E+02  0.37889876017E+03  0.44605090656E+03  0.17300000000E+03 0.  1.
         -6    1    1    2    0  503 -0.15891360822E+03  0.14649433831E+02  0.39056512034E+03  0.45600247151E+03  0.17300000000E+03 0. -1.
<mgrwt>
<rscale>  2 0.23536597E+03</rscale>
<asrwt>0</asrwt>
<pdfrwt beam="1">  1       21 0.12857824E+00 0.23536597E+03</pdfrwt>
<pdfrwt beam="2">  1       21 0.10199193E-01 0.23536597E+03</pdfrwt>
<totfact> 0.34016153E+04</totfact>
</mgrwt>
</event>
<event>
 4    2  0.4063641E+000  0.1965012E+03  0.7546771E-02  0.1152725E+00
         21   -1    0    0  503  502  0.00000000000E+00  0.00000000000E+00  0.14277259891E+04  0.14277259891E+04  0.00000000000E+00 0. -1.
         21   -1    0    0  501  503 -0.00000000000E+00 -0.00000000000E+00 -0.56137279646E+02  0.56137279646E+02  0.00000000000E+00 0. -1.
          6    1    1    2  501    0 -0.68007050147E+02 -0.63708550178E+02  0.15168809863E+03  0.24823782448E+03  0.17300000000E+03 0. -1.
         -6    1    1    2    0  502  0.68007050147E+02  0.63708550178E+02  0.12199006108E+04  0.12356254443E+04  0.17300000000E+03 0. -1.
<mgrwt>
<rscale>  2 0.19650124E+03</rscale>
<asrwt>0</asrwt>
<pdfrwt beam="1">  1       21 0.21965012E+00 0.19650124E+03</pdfrwt>
<pdfrwt beam="2">  1       21 0.86365057E-02 0.19650124E+03</pdfrwt>
<totfact> 0.10579059E+04</totfact>
</mgrwt>
</event>
<event>
 4    2  0.4063641E+000  0.1972349E+03  0.7546771E-02  0.1152093E+00
         21   -1    0    0  503  502  0.00000000000E+00  0.00000000000E+00  0.13487077336E+03  0.13487077336E+03  0.00000000000E+00 0. -1.
         21   -1    0    0  501  503 -0.00000000000E+00 -0.00000000000E+00 -0.35174633290E+03  0.35174633290E+03  0.00000000000E+00 0. -1.
          6    1    1    2  501    0  0.40184693162E+02  0.85777647330E+02 -0.21166142091E+03  0.28931327562E+03  0.17300000000E+03 0. -1.
         -6    1    1    2    0  502 -0.40184693162E+02 -0.85777647330E+02 -0.52141386272E+01  0.19730383065E+03  0.17300000000E+03 0. -1.
<mgrwt>
<rscale>  2 0.19723492E+03</rscale>
<asrwt>0</asrwt>
<pdfrwt beam="1">  1       21 0.20749350E-01 0.19723492E+03</pdfrwt>
<pdfrwt beam="2">  1       21 0.54114820E-01 0.19723492E+03</pdfrwt>
<totfact> 0.69413665E+04</totfact>
</mgrwt>
</event>
<event>
 4    2  0.4063641E+000  0.2288453E+03  0.7546771E-02  0.1127455E+00
         21   -1    0    0  503  502  0.00000000000E+00  0.00000000000E+00  0.18173388910E+04  0.18173388910E+04  0.00000000000E+00 0.  1.
         21   -1    0    0  501  503 -0.00000000000E+00 -0.00000000000E+00 -0.11060180203E+03  0.11060180203E+03  0.00000000000E+00 0. -1.
          6    1    1    2  501    0  0.13021055256E+03 -0.74070059631E+02  0.16823007486E+04  0.16977944429E+04  0.17300000000E+03 0.  1.
         -6    1    1    2    0  502 -0.13021055256E+03  0.74070059631E+02  0.24436340447E+02  0.23014625017E+03  0.17300000000E+03 0. -1.
<mgrwt>
<rscale>  2 0.22884528E+03</rscale>
<asrwt>0</asrwt>
<pdfrwt beam="1">  1       21 0.27959058E+00 0.22884528E+03</pdfrwt>
<pdfrwt beam="2">  1       21 0.17015663E-01 0.22884528E+03</pdfrwt>
<totfact> 0.13352869E+03</totfact>
</mgrwt>
</event>
<event>
 4    2  0.4063641E+000  0.1942138E+03  0.7546771E-02  0.1154715E+00
         21   -1    0    0  503  502  0.00000000000E+00  0.00000000000E+00  0.37635108885E+02  0.37635108885E+02  0.00000000000E+00 0.  1.
         21   -1    0    0  501  503 -0.00000000000E+00 -0.00000000000E+00 -0.10252862340E+04  0.10252862340E+04  0.00000000000E+00 0.  1.
          6    1    1    2  501    0  0.12287271661E+02  0.87401568264E+02 -0.57352380775E+03  0.60551512717E+03  0.17300000000E+03 0.  1.
         -6    1    1    2    0  502 -0.12287271661E+02 -0.87401568264E+02 -0.41412731732E+03  0.45740621567E+03  0.17300000000E+03 0.  1.
<mgrwt>
<rscale>  2 0.19421383E+03</rscale>
<asrwt>0</asrwt>
<pdfrwt beam="1">  1       21 0.57900178E-02 0.19421383E+03</pdfrwt>
<pdfrwt beam="2">  1       21 0.15773631E+00 0.19421383E+03</pdfrwt>
<totfact> 0.54760910E+04</totfact>
</mgrwt>
</event>
<event>
 4    2  0.4063641E+000  0.2140703E+03  0.7546771E-02  0.1138383E+00
         21   -1    0    0  503  502  0.00000000000E+00  0.00000000000E+00  0.43080013176E+03  0.43080013176E+03  0.00000000000E+00 0.  1.
         21   -1    0    0  501  503 -0.00000000000E+00 -0.00000000000E+00 -0.10648805547E+03  0.10648805547E+03  0.00000000000E+00 0.  1.
          6    1    1    2  501    0  0.10628002628E+03 -0.67835509335E+02  0.17093301982E+03  0.27394196024E+03  0.17300000000E+03 0.  1.
         -6    1    1    2    0  502 -0.10628002628E+03  0.67835509335E+02  0.15337905647E+03  0.26334622700E+03  0.17300000000E+03 0.  1.
<mgrwt>
<rscale>  2 0.21407032E+03</rscale>
<asrwt>0</asrwt>
<pdfrwt beam="1">  1       21 0.66276942E-01 0.21407032E+03</pdfrwt>
<pdfrwt beam="2">  1       21 0.16382778E-01 0.21407032E+03</pdfrwt>
<totfact> 0.69085945E+04</totfact>
</mgrwt>
</event>
<event>
 4    2  0.4063641E+000  0.5753415E+03  0.7546771E-02  0.9957928E-01
         21   -1    0    0  503  502  0.00000000000E+00  0.00000000000E+00  0.83253309534E+03  0.83253309534E+03  0.00000000000E+00 0. -1.
         21   -1    0    0  501  503 -0.00000000000E+00 -0.00000000000E+00 -0.39770813242E+03  0.39770813242E+03  0.00000000000E+00 0.  1.
          6    1    1    2  501    0  0.38828277190E+03  0.38771807220E+03  0.20742045347E+03  0.61158896244E+03  0.17300000000E+03 0.  1.
         -6    1    1    2    0  502 -0.38828277190E+03 -0.38771807220E+03  0.22740450945E+03  0.61865226532E+03  0.17300000000E+03 0.  1.
<mgrwt>
<rscale>  2 0.57534148E+03</rscale>
<asrwt>0</asrwt>
<pdfrwt beam="1">  1       21 0.12808201E+00 0.57534148E+03</pdfrwt>
<pdfrwt beam="2">  1       21 0.61185867E-01 0.57534148E+03</pdfrwt>
<totfact> 0.90122352E+02</totfact>
</mgrwt>
</event>
<event>
 4    2  0.4063641E+000  0.2100100E+03  0.7546771E-02  0.1141558E+00
         21   -1    0    0  501  502  0.00000000000E+00  0.00000000000E+00  0.53912024730E+03  0.53912024730E+03  0.00000000000E+00 0. -1.
         21   -1    0    0  502  503 -0.00000000000E+00 -0.00000000000E+00 -0.18144949696E+03  0.18144949696E+03  0.00000000000E+00 0. -1.
          6    1    1    2  501    0  0.11312755332E+03 -0.37113019194E+02  0.44582155959E+03  0.49280937746E+03  0.17300000000E+03 0. -1.
         -6    1    1    2    0  503 -0.11312755332E+03  0.37113019194E+02 -0.88150809256E+02  0.22776036680E+03  0.17300000000E+03 0. -1.
<mgrwt>
<rscale>  2 0.21001005E+03</rscale>
<asrwt>0</asrwt>
<pdfrwt beam="1">  1       21 0.82941576E-01 0.21001005E+03</pdfrwt>
<pdfrwt beam="2">  1       21 0.27915307E-01 0.21001005E+03</pdfrwt>
<totfact> 0.15359382E+04</totfact>
</mgrwt>
</event>
<event>
 4    2  0.4063641E+000  0.1751292E+03  0.7546771E-02  0.1172602E+00
         21   -1    0    0  503  502  0.00000000000E+00  0.00000000000E+00  0.15191854258E+03  0.15191854258E+03  0.00000000000E+00 0.  1.
         21   -1    0    0  501  503 -0.00000000000E+00 -0.00000000000E+00 -0.29535241065E+03  0.29535241065E+03  0.00000000000E+00 0.  1.
          6    1    1    2  501    0  0.26894935494E+02 -0.42293016298E+01 -0.19752203705E+03  0.26397950615E+03  0.17300000000E+03 0.  1.
         -6    1    1    2    0  502 -0.26894935494E+02  0.42293016298E+01  0.54088168976E+02  0.18329144707E+03  0.17300000000E+03 0.  1.
<mgrwt>
<rscale>  2 0.17512917E+03</rscale>
<asrwt>0</asrwt>
<pdfrwt beam="1">  1       21 0.23372083E-01 0.17512917E+03</pdfrwt>
<pdfrwt beam="2">  1       21 0.45438832E-01 0.17512917E+03</pdfrwt>
<totfact> 0.80551350E+04</totfact>
</mgrwt>
</event>
<event>
 4    2  0.4063641E+000  0.1965997E+03  0.7546771E-02  0.1152640E+00
         21   -1    0    0  501  502  0.00000000000E+00  0.00000000000E+00  0.17615617772E+03  0.17615617772E+03  0.00000000000E+00 0. -1.
         21   -1    0    0  502  503 -0.00000000000E+00 -0.00000000000E+00 -0.74494895258E+03  0.74494895258E+03  0.00000000000E+00 0. -1.
          6    1    1    2  501    0  0.85614432414E+02 -0.37317468234E+02  0.10242997552E+03  0.22168293655E+03  0.17300000000E+03 0. -1.
         -6    1    1    2    0  503 -0.85614432414E+02  0.37317468234E+02 -0.67122275038E+03  0.69942219375E+03  0.17300000000E+03 0. -1.
<mgrwt>
<rscale>  2 0.19659966E+03</rscale>
<asrwt>0</asrwt>
<pdfrwt beam="1">  1       21 0.27100950E-01 0.19659966E+03</pdfrwt>
<pdfrwt beam="2">  1       21 0.11460753E+00 0.19659966E+03</pdfrwt>
<totfact> 0.76481759E+03</totfact>
</mgrwt>
</event>
<event>
 4    2  0.4063641E+000  0.2089896E+03  0.7546771E-02  0.1142369E+00
         21   -1    0    0  501  502  0.00000000000E+00  0.00000000000E+00  0.25121123450E+03  0.25121123450E+03  0.00000000000E+00 0.  1.
         21   -1    0    0  502  503 -0.00000000000E+00 -0.00000000000E+00 -0.22017814384E+03  0.22017814384E+03  0.00000000000E+00 0. -1.
          6    1    1    2  501    0  0.28326321171E+02  0.11377734342E+03  0.12361466201E+03  0.24281113856E+03  0.17300000000E+03 0.  1.
         -6    1    1    2    0  503 -0.28326321171E+02 -0.11377734342E+03 -0.92581571353E+02  0.22857823978E+03  0.17300000000E+03 0. -1.
<mgrwt>
<rscale>  2 0.20898963E+03</rscale>
<asrwt>0</asrwt>
<pdfrwt beam="1">  1       21 0.38647882E-01 0.20898963E+03</pdfrwt>
<pdfrwt beam="2">  1       21 0.33873561E-01 0.20898963E+03</pdfrwt>
<totfact> 0.53785114E+04</totfact>
</mgrwt>
</event>
<event>
 4    2  0.4063641E+000  0.2104974E+03  0.7546771E-02  0.1141173E+00
         21   -1    0    0  503  502  0.00000000000E+00  0.00000000000E+00  0.37862965603E+02  0.37862965603E+02  0.00000000000E+00 0.  1.
         21   -1    0    0  501  503 -0.00000000000E+00 -0.00000000000E+00 -0.13836693889E+04  0.13836693889E+04  0.00000000000E+00 0. -1.
          6    1    1    2  501    0 -0.56410776034E+02  0.10582044470E+03 -0.95204659837E+03  0.97503941850E+03  0.17300000000E+03 0. -1.
         -6    1    1    2    0  502  0.56410776034E+02 -0.10582044470E+03 -0.39375982492E+03  0.44649293599E+03  0.17300000000E+03 0. -1.
<mgrwt>
<rscale>  2 0.21049737E+03</rscale>
<asrwt>0</asrwt>
<pdfrwt beam="1">  1       21 0.58250724E-02 0.21049737E+03</pdfrwt>
<pdfrwt beam="2">  1       21 0.21287219E+00 0.21049737E+03</pdfrwt>
<totfact> 0.22783931E+04</totfact>
</mgrwt>
</event>
<event>
 4    2  0.4063641E+000  0.2382024E+03  0.7546771E-02  0.1120996E+00
         21   -1    0    0  501  502  0.00000000000E+00  0.00000000000E+00  0.65881825821E+03  0.65881825821E+03  0.00000000000E+00 0. -1.
         21   -1    0    0  502  503 -0.00000000000E+00 -0.00000000000E+00 -0.11539773982E+03  0.11539773982E+03  0.00000000000E+00 0.  1.
          6    1    1    2  501    0  0.23536708196E+02  0.16204143919E+03  0.46668069353E+03  0.52395732113E+03  0.17300000000E+03 0.  1.
         -6    1    1    2    0  503 -0.23536708196E+02 -0.16204143919E+03  0.76739824860E+02  0.25025867691E+03  0.17300000000E+03 0.  1.
<mgrwt>
<rscale>  2 0.23820244E+03</rscale>
<asrwt>0</asrwt>
<pdfrwt beam="1">  1       21 0.10135665E+00 0.23820244E+03</pdfrwt>
<pdfrwt beam="2">  1       21 0.17753499E-01 0.23820244E+03</pdfrwt>
<totfact> 0.22312499E+04</totfact>
</mgrwt>
</event>
<event>
 4    2  0.4063641E+000  0.1739127E+03  0.7546771E-02  0.1173828E+00
         21   -1    0    0  503  502  0.00000000000E+00  0.00000000000E+00  0.18014475071E+03  0.18014475071E+03  0.00000000000E+00 0.  1.
         21   -1    0    0  501  503 -0.00000000000E+00 -0.00000000000E+00 -0.31010236842E+03  0.31010236842E+03  0.00000000000E+00 0.  1.
          6    1    1    2  501    0 -0.71661909063E+01  0.16287722529E+02 -0.23097247533E+03  0.28912614644E+03  0.17300000000E+03 0.  1.
         -6    1    1    2    0  502  0.71661909063E+01 -0.16287722529E+02  0.10101485762E+03  0.20112097269E+03  0.17300000000E+03 0.  1.
<mgrwt>
<rscale>  2 0.17391275E+03</rscale>
<asrwt>0</asrwt>
<pdfrwt beam="1">  1       21 0.27714577E-01 0.17391275E+03</pdfrwt>
<pdfrwt beam="2">  1       21 0.47708056E-01 0.17391275E+03</pdfrwt>
<totfact> 0.52664326E+04</totfact>
</mgrwt>
</event>
<event>
 4    2  0.4063641E+000  0.1896594E+03  0.7546771E-02  0.1158769E+00
         21   -1    0    0  503  502  0.00000000000E+00  0.00000000000E+00  0.28659485131E+03  0.28659485131E+03  0.00000000000E+00 0.  1.
         21   -1    0    0  501  503 -0.00000000000E+00 -0.00000000000E+00 -0.15715540310E+03  0.15715540310E+03  0.00000000000E+00 0. -1.
          6    1    1    2  501    0 -0.22248382870E+02 -0.74476147773E+02 -0.34842656039E+02  0.19283334205E+03  0.17300000000E+03 0. -1.
         -6    1    1    2    0  502  0.22248382870E+02  0.74476147773E+02  0.16428210425E+03  0.25091691235E+03  0.17300000000E+03 0.  1.
<mgrwt>
<rscale>  2 0.18965940E+03</rscale>
<asrwt>0</asrwt>
<pdfrwt beam="1">  1       21 0.44091515E-01 0.18965940E+03</pdfrwt>
<pdfrwt beam="2">  1       21 0.24177754E-01 0.18965940E+03</pdfrwt>
<totfact> 0.79864947E+04</totfact>
</mgrwt>
</event>
<event>
 4    2  0.4063641E+000  0.1732674E+03  0.7546771E-02  0.1174483E+00
         21   -1    0    0  503  502  0.00000000000E+00  0.00000000000E+00  0.99142242589E+03  0.99142242589E+03  0.00000000000E+00 0. -1.
         21   -1    0    0  501  503 -0.00000000000E+00 -0.00000000000E+00 -0.65857572656E+02  0.65857572656E+02  0.00000000000E+00 0. -1.
          6    1    1    2  501    0  0.27418796480E+01 -0.92226746150E+01  0.74241039326E+02  0.18850280515E+03  0.17300000000E+03 0. -1.
         -6    1    1    2    0  502 -0.27418796480E+01  0.92226746150E+01  0.85132381391E+03  0.86877719339E+03  0.17300000000E+03 0. -1.
<mgrwt>
<rscale>  2 0.17326735E+03</rscale>
<asrwt>0</asrwt>
<pdfrwt beam="1">  1       21 0.15252652E+00 0.17326735E+03</pdfrwt>
<pdfrwt beam="2">  1       21 0.10131935E-01 0.17326735E+03</pdfrwt>
<totfact> 0.22975614E+04</totfact>
</mgrwt>
</event>
<event>
 4    2  0.4063641E+000  0.1850263E+03  0.7546771E-02  0.1163025E+00
         21   -1    0    0  501  502  0.00000000000E+00  0.00000000000E+00  0.44899680442E+02  0.44899680442E+02  0.00000000000E+00 0. -1.
         21   -1    0    0  502  503 -0.00000000000E+00 -0.00000000000E+00 -0.82040461397E+03  0.82040461397E+03  0.00000000000E+00 0.  1.
          6    1    1    2  501    0 -0.56989111210E+02  0.32526688823E+02 -0.27278187024E+03  0.32961294424E+03  0.17300000000E+03 0. -1.
         -6    1    1    2    0  503  0.56989111210E+02 -0.32526688823E+02 -0.50272306329E+03  0.53569135017E+03  0.17300000000E+03 0.  1.
<mgrwt>
<rscale>  2 0.18502633E+03</rscale>
<asrwt>0</asrwt>
<pdfrwt beam="1">  1       21 0.69076438E-02 0.18502633E+03</pdfrwt>
<pdfrwt beam="2">  1       21 0.12621608E+00 0.18502633E+03</pdfrwt>
<totfact> 0.72325490E+04</totfact>
</mgrwt>
</event>
<event>
 4    2  0.4063641E+000  0.2203148E+03  0.7546771E-02  0.1133649E+00
         21   -1    0    0  501  502  0.00000000000E+00  0.00000000000E+00  0.26193413621E+02  0.26193413621E+02  0.00000000000E+00 0. -1.
         21   -1    0    0  502  503 -0.00000000000E+00 -0.00000000000E+00 -0.18539560029E+04  0.18539560029E+04  0.00000000000E+00 0.  1.
          6    1    1    2  501    0 -0.11417633759E+02  0.13593832305E+03 -0.89349091376E+03  0.92025246699E+03  0.17300000000E+03 0. -1.
         -6    1    1    2    0  503  0.11417633759E+02 -0.13593832305E+03 -0.93427167553E+03  0.95989694954E+03  0.17300000000E+03 0.  1.
<mgrwt>
<rscale>  2 0.22031475E+03</rscale>
<asrwt>0</asrwt>
<pdfrwt beam="1">  1       21 0.40297535E-02 0.22031475E+03</pdfrwt>
<pdfrwt beam="2">  1       21 0.28522418E+00 0.22031475E+03</pdfrwt>
<totfact> 0.15656530E+04</totfact>
</mgrwt>
</event>
<event>
 4    2  0.4063641E+000  0.2652956E+03  0.7546771E-02  0.1104003E+00
         21   -1    0    0  503  502  0.00000000000E+00  0.00000000000E+00  0.39946736244E+03  0.39946736244E+03  0.00000000000E+00 0. -1.
         21   -1    0    0  501  503 -0.00000000000E+00 -0.00000000000E+00 -0.25972639402E+03  0.25972639402E+03  0.00000000000E+00 0.  1.
          6    1    1    2  501    0 -0.11163264329E+03  0.16730483410E+03 -0.11705370773E+03  0.28997124867E+03  0.17300000000E+03 0.  1.
         -6    1    1    2    0  502  0.11163264329E+03 -0.16730483410E+03  0.25679467614E+03  0.36922250779E+03  0.17300000000E+03 0. -1.
<mgrwt>
<rscale>  2 0.26529560E+03</rscale>
<asrwt>0</asrwt>
<pdfrwt beam="1">  1       21 0.61456517E-01 0.26529560E+03</pdfrwt>
<pdfrwt beam="2">  1       21 0.39957907E-01 0.26529560E+03</pdfrwt>
<totfact> 0.14257456E+04</totfact>
</mgrwt>
</event>
<event>
 4    2  0.4063641E+000  0.2612495E+03  0.7546771E-02  0.1106395E+00
         21   -1    0    0  503  502  0.00000000000E+00  0.00000000000E+00  0.71620166925E+02  0.71620166925E+02  0.00000000000E+00 0.  1.
         21   -1    0    0  501  503 -0.00000000000E+00 -0.00000000000E+00 -0.12071175481E+04  0.12071175481E+04  0.00000000000E+00 0. -1.
          6    1    1    2  501    0  0.17925916175E+03  0.78666812346E+02 -0.86112584544E+03  0.89988279021E+03  0.17300000000E+03 0. -1.
         -6    1    1    2    0  502 -0.17925916175E+03 -0.78666812346E+02 -0.27437153576E+03  0.37885492484E+03  0.17300000000E+03 0.  1.
<mgrwt>
<rscale>  2 0.26124953E+03</rscale>
<asrwt>0</asrwt>
<pdfrwt beam="1">  1       21 0.11018487E-01 0.26124953E+03</pdfrwt>
<pdfrwt beam="2">  1       21 0.18571040E+00 0.26124953E+03</pdfrwt>
<totfact> 0.10839613E+04</totfact>
</mgrwt>
</event>
<event>
 4    2  0.4063641E+000  0.2442178E+03  0.7546771E-02  0.1117015E+00
         21   -1    0    0  503  502  0.00000000000E+00  0.00000000000E+00  0.87561406187E+03  0.87561406187E+03  0.00000000000E+00 0. -1.
         21   -1    0    0  501  503 -0.00000000000E+00 -0.00000000000E+00 -0.12542922033E+03  0.12542922033E+03  0.00000000000E+00 0. -1.
          6    1    1    2  501    0 -0.16684238979E+03  0.43323710802E+02  0.36750949676E+02  0.24696752671E+03  0.17300000000E+03 0. -1.
         -6    1    1    2    0  502  0.16684238979E+03 -0.43323710802E+02  0.71343389186E+03  0.75407575548E+03  0.17300000000E+03 0. -1.
<mgrwt>
<rscale>  2 0.24421779E+03</rscale>
<asrwt>0</asrwt>
<pdfrwt beam="1">  1       21 0.13470985E+00 0.24421779E+03</pdfrwt>
<pdfrwt beam="2">  1       21 0.19296804E-01 0.24421779E+03</pdfrwt>
<totfact> 0.94103745E+03</totfact>
</mgrwt>
</event>
<event>
 4    2  0.4063641E+000  0.2113231E+03  0.7546771E-02  0.1140523E+00
         21   -1    0    0  501  502  0.00000000000E+00  0.00000000000E+00  0.14718737947E+03  0.14718737947E+03  0.00000000000E+00 0. -1.
         21   -1    0    0  502  503 -0.00000000000E+00 -0.00000000000E+00 -0.31859725735E+03  0.31859725735E+03  0.00000000000E+00 0. -1.
          6    1    1    2  501    0 -0.60112203451E+02 -0.10542750703E+03 -0.13656074091E+03  0.25160737708E+03  0.17300000000E+03 0. -1.
         -6    1    1    2    0  503  0.60112203451E+02  0.10542750703E+03 -0.34849136971E+02  0.21417725974E+03  0.17300000000E+03 0. -1.
<mgrwt>
<rscale>  2 0.21132306E+03</rscale>
<asrwt>0</asrwt>
<pdfrwt beam="1">  1       21 0.22644212E-01 0.21132306E+03</pdfrwt>
<pdfrwt beam="2">  1       21 0.49014962E-01 0.21132306E+03</pdfrwt>
<totfact> 0.72006197E+04</totfact>
</mgrwt>
</event>
<event>
 4    2  0.4063641E+000  0.1844657E+03  0.7546771E-02  0.1163550E+00
         21   -1    0    0  501  502  0.00000000000E+00  0.00000000000E+00  0.15110312920E+04  0.15110312920E+04  0.00000000000E+00 0.  1.
         21   -1    0    0  502  503 -0.00000000000E+00 -0.00000000000E+00 -0.22535217045E+02  0.22535217045E+02  0.00000000000E+00 0.  1.
          6    1    1    2  501    0  0.53759709799E+02  0.34763509495E+02  0.76452420966E+03  0.78646352436E+03  0.17300000000E+03 0.  1.
         -6    1    1    2    0  503 -0.53759709799E+02 -0.34763509495E+02  0.72397186534E+03  0.74710298473E+03  0.17300000000E+03 0.  1.
<mgrwt>
<rscale>  2 0.18446574E+03</rscale>
<asrwt>0</asrwt>
<pdfrwt beam="1">  1       21 0.23246627E+00 0.18446574E+03</pdfrwt>
<pdfrwt beam="2">  1       21 0.34669577E-02 0.18446574E+03</pdfrwt>
<totfact> 0.42316550E+04</totfact>
</mgrwt>
</event>
<event>
 4    2  0.4063641E+000  0.1822069E+03  0.7546771E-02  0.1165684E+00
         21   -1    0    0  501  502  0.00000000000E+00  0.00000000000E+00  0.34965872852E+02  0.34965872852E+02  0.00000000000E+00 0. -1.
         21   -1    0    0  502  503 -0.00000000000E+00 -0.00000000000E+00 -0.10607154137E+04  0.10607154137E+04  0.00000000000E+00 0. -1.
          6    1    1    2  501    0  0.45534151371E+02  0.34597428095E+02 -0.33546420850E+03  0.38175329227E+03  0.17300000000E+03 0.  1.
         -6    1    1    2    0  503 -0.45534151371E+02 -0.34597428095E+02 -0.69028533237E+03  0.71392799431E+03  0.17300000000E+03 0.  1.
<mgrwt>
<rscale>  2 0.18220686E+03</rscale>
<asrwt>0</asrwt>
<pdfrwt beam="1">  1       21 0.53793640E-02 0.18220686E+03</pdfrwt>
<pdfrwt beam="2">  1       21 0.16318702E+00 0.18220686E+03</pdfrwt>
<totfact> 0.57023729E+04</totfact>
</mgrwt>
</event>
<event>
 4    2  0.4063641E+000  0.3005142E+03  0.7546771E-02  0.1084984E+00
         21   -1    0    0  501  502  0.00000000000E+00  0.00000000000E+00  0.95567057318E+02  0.95567057318E+02  0.00000000000E+00 0.  1.
         21   -1    0    0  502  503 -0.00000000000E+00 -0.00000000000E+00 -0.10241495581E+04  0.10241495581E+04  0.00000000000E+00 0.  1.
          6    1    1    2  501    0  0.24359552022E+03  0.32264488707E+02 -0.30862989698E+03  0.43076813719E+03  0.17300000000E+03 0.  1.
         -6    1    1    2    0  503 -0.24359552022E+03 -0.32264488707E+02 -0.61995260383E+03  0.68894847826E+03  0.17300000000E+03 0.  1.
<mgrwt>
<rscale>  2 0.30051418E+03</rscale>
<asrwt>0</asrwt>
<pdfrwt beam="1">  1       21 0.14702624E-01 0.30051418E+03</pdfrwt>
<pdfrwt beam="2">  1       21 0.15756148E+00 0.30051418E+03</pdfrwt>
<totfact> 0.99758747E+03</totfact>
</mgrwt>
</event>
<event>
 4    2  0.4063641E+000  0.2688354E+03  0.7546771E-02  0.1101948E+00
         21   -1    0    0  501  502  0.00000000000E+00  0.00000000000E+00  0.11572220640E+04  0.11572220640E+04  0.00000000000E+00 0.  1.
         21   -1    0    0  502  503 -0.00000000000E+00 -0.00000000000E+00 -0.68197070327E+02  0.68197070327E+02  0.00000000000E+00 0.  1.
          6    1    1    2  501    0  0.65597696478E+02 -0.19503948996E+03  0.72232663705E+03  0.77073226936E+03  0.17300000000E+03 0.  1.
         -6    1    1    2    0  503 -0.65597696478E+02  0.19503948996E+03  0.36669835660E+03  0.45468686495E+03  0.17300000000E+03 0.  1.
<mgrwt>
<rscale>  2 0.26883538E+03</rscale>
<asrwt>0</asrwt>
<pdfrwt beam="1">  1       21 0.17803415E+00 0.26883538E+03</pdfrwt>
<pdfrwt beam="2">  1       21 0.10491858E-01 0.26883538E+03</pdfrwt>
<totfact> 0.13296975E+04</totfact>
</mgrwt>
</event>
<event>
 4    2  0.4063641E+000  0.2011632E+03  0.7546771E-02  0.1148761E+00
         21   -1    0    0  503  502  0.00000000000E+00  0.00000000000E+00  0.60091680223E+03  0.60091680223E+03  0.00000000000E+00 0.  1.
         21   -1    0    0  501  503 -0.00000000000E+00 -0.00000000000E+00 -0.68411624977E+02  0.68411624977E+02  0.00000000000E+00 0. -1.
          6    1    1    2  501    0  0.10109551495E+03 -0.17813368370E+02  0.22439557968E+03  0.30136356020E+03  0.17300000000E+03 0.  1.
         -6    1    1    2    0  502 -0.10109551495E+03  0.17813368370E+02  0.30810959757E+03  0.36796486701E+03  0.17300000000E+03 0. -1.
<mgrwt>
<rscale>  2 0.20116317E+03</rscale>
<asrwt>0</asrwt>
<pdfrwt beam="1">  1       21 0.92448735E-01 0.20116317E+03</pdfrwt>
<pdfrwt beam="2">  1       21 0.10524866E-01 0.20116317E+03</pdfrwt>
<totfact> 0.72879011E+04</totfact>
</mgrwt>
</event>
<event>
 4    2  0.4063641E+000  0.2850307E+03  0.7546771E-02  0.1092973E+00
         21   -1    0    0  501  502  0.00000000000E+00  0.00000000000E+00  0.71351930774E+03  0.71351930774E+03  0.00000000000E+00 0. -1.
         21   -1    0    0  502  503 -0.00000000000E+00 -0.00000000000E+00 -0.11856503655E+03  0.11856503655E+03  0.00000000000E+00 0.  1.
          6    1    1    2  501    0 -0.10233234620E+03  0.20209299826E+03  0.21461346715E+03  0.35679325849E+03  0.17300000000E+03 0. -1.
         -6    1    1    2    0  503  0.10233234620E+03 -0.20209299826E+03  0.38034080404E+03  0.47529108580E+03  0.17300000000E+03 0. -1.
<mgrwt>
<rscale>  2 0.28503068E+03</rscale>
<asrwt>0</asrwt>
<pdfrwt beam="1">  1       21 0.10977220E+00 0.28503068E+03</pdfrwt>
<pdfrwt beam="2">  1       21 0.18240775E-01 0.28503068E+03</pdfrwt>
<totfact> 0.17094818E+04</totfact>
</mgrwt>
</event>
<event>
 4    2  0.4063641E+000  0.2236792E+03  0.7546771E-02  0.1131169E+00
         21   -1    0    0  503  502  0.00000000000E+00  0.00000000000E+00  0.26801932613E+03  0.26801932613E+03  0.00000000000E+00 0.  1.
         21   -1    0    0  501  503 -0.00000000000E+00 -0.00000000000E+00 -0.21318947633E+03  0.21318947633E+03  0.00000000000E+00 0. -1.
          6    1    1    2  501    0 -0.13159852141E+03  0.52775283895E+02 -0.57437734941E+02  0.23093612715E+03  0.17300000000E+03 0. -1.
         -6    1    1    2    0  502  0.13159852141E+03 -0.52775283895E+02  0.11226758474E+03  0.25027267532E+03  0.17300000000E+03 0.  1.
<mgrwt>
<rscale>  2 0.22367924E+03</rscale>
<asrwt>0</asrwt>
<pdfrwt beam="1">  1       21 0.41233743E-01 0.22367924E+03</pdfrwt>
<pdfrwt beam="2">  1       21 0.32798381E-01 0.22367924E+03</pdfrwt>
<totfact> 0.49949887E+04</totfact>
</mgrwt>
</event>
<event>
 4    2  0.4063641E+000  0.1814641E+03  0.7546771E-02  0.1166394E+00
         21   -1    0    0  503  502  0.00000000000E+00  0.00000000000E+00  0.12630398981E+03  0.12630398981E+03  0.00000000000E+00 0. -1.
         21   -1    0    0  501  503 -0.00000000000E+00 -0.00000000000E+00 -0.26071418197E+03  0.26071418197E+03  0.00000000000E+00 0. -1.
          6    1    1    2  501    0 -0.51572854726E+02 -0.18451414736E+02 -0.67028795003E+02  0.19344785708E+03  0.17300000000E+03 0.  1.
         -6    1    1    2    0  502  0.51572854726E+02  0.18451414736E+02 -0.67381397155E+02  0.19357031470E+03  0.17300000000E+03 0.  1.
<mgrwt>
<rscale>  2 0.18146408E+03</rscale>
<asrwt>0</asrwt>
<pdfrwt beam="1">  1       21 0.19431383E-01 0.18146408E+03</pdfrwt>
<pdfrwt beam="2">  1       21 0.40109874E-01 0.18146408E+03</pdfrwt>
<totfact> 0.14644715E+05</totfact>
</mgrwt>
</event>
<event>
 4    2  0.4063641E+000  0.2012957E+03  0.7546771E-02  0.1148650E+00
         21   -1    0    0  501  502  0.00000000000E+00  0.00000000000E+00  0.15710164082E+03  0.15710164082E+03  0.00000000000E+00 0. -1.
         21   -1    0    0  502  503 -0.00000000000E+00 -0.00000000000E+00 -0.27457969216E+03  0.27457969216E+03  0.00000000000E+00 0. -1.
          6    1    1    2  501    0  0.36493383273E+02 -0.96224700600E+02 -0.55762974221E+01  0.20137292549E+03  0.17300000000E+03 0. -1.
         -6    1    1    2    0  503 -0.36493383273E+02  0.96224700600E+02 -0.11190175392E+03  0.23030840749E+03  0.17300000000E+03 0. -1.
<mgrwt>
<rscale>  2 0.20129570E+03</rscale>
<asrwt>0</asrwt>
<pdfrwt beam="1">  1       21 0.24169483E-01 0.20129570E+03</pdfrwt>
<pdfrwt beam="2">  1       21 0.42243029E-01 0.20129570E+03</pdfrwt>
<totfact> 0.86795546E+04</totfact>
</mgrwt>
</event>
<event>
 4    2  0.4063641E+000  0.2009416E+03  0.7546771E-02  0.1148947E+00
         21   -1    0    0  501  502  0.00000000000E+00  0.00000000000E+00  0.78965674719E+03  0.78965674719E+03  0.00000000000E+00 0.  1.
         21   -1    0    0  502  503 -0.00000000000E+00 -0.00000000000E+00 -0.90170601890E+02  0.90170601890E+02  0.00000000000E+00 0. -1.
          6    1    1    2  501    0  0.28572215161E+02  0.98143548881E+02  0.63919502168E+03  0.67003567323E+03  0.17300000000E+03 0.  1.
         -6    1    1    2    0  503 -0.28572215161E+02 -0.98143548881E+02  0.60291123617E+02  0.20979167584E+03  0.17300000000E+03 0. -1.
<mgrwt>
<rscale>  2 0.20094160E+03</rscale>
<asrwt>0</asrwt>
<pdfrwt beam="1">  1       21 0.12148565E+00 0.20094160E+03</pdfrwt>
<pdfrwt beam="2">  1       21 0.13872401E-01 0.20094160E+03</pdfrwt>
<totfact> 0.23035774E+04</totfact>
</mgrwt>
</event>
<event>
 4    2  0.4063641E+000  0.2924772E+03  0.7546771E-02  0.1089063E+00
         21   -1    0    0  501  502  0.00000000000E+00  0.00000000000E+00  0.18567696135E+04  0.18567696135E+04  0.00000000000E+00 0. -1.
         21   -1    0    0  502  503 -0.00000000000E+00 -0.00000000000E+00 -0.77370277747E+02  0.77370277747E+02  0.00000000000E+00 0. -1.
          6    1    1    2  501    0  0.12475367937E+02  0.23549586962E+03  0.27460910603E+03  0.40118960671E+03  0.17300000000E+03 0. -1.
         -6    1    1    2    0  503 -0.12475367937E+02 -0.23549586962E+03  0.15047902298E+04  0.15329502846E+04  0.17300000000E+03 0. -1.
<mgrwt>
<rscale>  2 0.29247725E+03</rscale>
<asrwt>0</asrwt>
<pdfrwt beam="1">  1       21 0.28565683E+00 0.29247725E+03</pdfrwt>
<pdfrwt beam="2">  1       21 0.11903121E-01 0.29247725E+03</pdfrwt>
<totfact> 0.22281673E+03</totfact>
</mgrwt>
</event>
<event>
 4    2  0.4063641E+000  0.1976726E+03  0.7546771E-02  0.1151718E+00
         21   -1    0    0  503  502  0.00000000000E+00  0.00000000000E+00  0.27108368004E+02  0.27108368004E+02  0.00000000000E+00 0. -1.
         21   -1    0    0  501  503 -0.00000000000E+00 -0.00000000000E+00 -0.21909256012E+04  0.21909256012E+04  0.00000000000E+00 0. -1.
          6    1    1    2  501    0 -0.55374425258E+02  0.77968651478E+02 -0.17305624051E+04  0.17418153391E+04  0.17300000000E+03 0. -1.
         -6    1    1    2    0  502  0.55374425258E+02 -0.77968651478E+02 -0.43325482809E+03  0.47621863009E+03  0.17300000000E+03 0. -1.
<mgrwt>
<rscale>  2 0.19767255E+03</rscale>
<asrwt>0</asrwt>
<pdfrwt beam="1">  1       21 0.41705164E-02 0.19767255E+03</pdfrwt>
<pdfrwt beam="2">  1       21 0.33706562E+00 0.19767255E+03</pdfrwt>
<totfact> 0.75643865E+03</totfact>
</mgrwt>
</event>
<event>
 4    2  0.4063641E+000  0.2397547E+03  0.7546771E-02  0.1119956E+00
         21   -1    0    0  503  502  0.00000000000E+00  0.00000000000E+00  0.32860181315E+03  0.32860181315E+03  0.00000000000E+00 0. -1.
         21   -1    0    0  501  503 -0.00000000000E+00 -0.00000000000E+00 -0.17973578925E+03  0.17973578925E+03  0.00000000000E+00 0. -1.
          6    1    1    2  501    0 -0.16177128734E+03  0.37193393146E+02  0.32871657277E+02  0.24199761105E+03  0.17300000000E+03 0. -1.
         -6    1    1    2    0  502  0.16177128734E+03 -0.37193393146E+02  0.11599436663E+03  0.26633999135E+03  0.17300000000E+03 0. -1.
<mgrwt>
<rscale>  2 0.23975466E+03</rscale>
<asrwt>0</asrwt>
<pdfrwt beam="1">  1       21 0.50554125E-01 0.23975466E+03</pdfrwt>
<pdfrwt beam="2">  1       21 0.27651660E-01 0.23975466E+03</pdfrwt>
<totfact> 0.45471856E+04</totfact>
</mgrwt>
</event>
<event>
 4    2  0.4063641E+000  0.1949131E+03  0.7546771E-02  0.1154103E+00
         21   -1    0    0  501  502  0.00000000000E+00  0.00000000000E+00  0.29449855656E+03  0.29449855656E+03  0.00000000000E+00 0. -1.
         21   -1    0    0  502  503 -0.00000000000E+00 -0.00000000000E+00 -0.15276563992E+03  0.15276563992E+03  0.00000000000E+00 0. -1.
          6    1    1    2  501    0  0.89507370292E+02 -0.71087562975E+01  0.15906705899E+03  0.25158186145E+03  0.17300000000E+03 0. -1.
         -6    1    1    2    0  503 -0.89507370292E+02  0.71087562975E+01 -0.17334142349E+02  0.19568233503E+03  0.17300000000E+03 0. -1.
<mgrwt>
<rscale>  2 0.19491307E+03</rscale>
<asrwt>0</asrwt>
<pdfrwt beam="1">  1       21 0.45307470E-01 0.19491307E+03</pdfrwt>
<pdfrwt beam="2">  1       21 0.23502406E-01 0.19491307E+03</pdfrwt>
<totfact> 0.79533906E+04</totfact>
</mgrwt>
</event>
<event>
 4    2  0.4063641E+000  0.1758521E+03  0.7546771E-02  0.1171879E+00
         21   -1    0    0  501  502  0.00000000000E+00  0.00000000000E+00  0.11308911354E+04  0.11308911354E+04  0.00000000000E+00 0.  1.
         21   -1    0    0  502  503 -0.00000000000E+00 -0.00000000000E+00 -0.46642778894E+02  0.46642778894E+02  0.00000000000E+00 0.  1.
          6    1    1    2  501    0  0.18053193564E+02  0.25865675344E+02  0.92083484799E+03  0.93747574274E+03  0.17300000000E+03 0.  1.
         -6    1    1    2    0  503 -0.18053193564E+02 -0.25865675344E+02  0.16341350849E+03  0.24005817153E+03  0.17300000000E+03 0.  1.
<mgrwt>
<rscale>  2 0.17585207E+03</rscale>
<asrwt>0</asrwt>
<pdfrwt beam="1">  1       21 0.17398323E+00 0.17585207E+03</pdfrwt>
<pdfrwt beam="2">  1       21 0.71758130E-02 0.17585207E+03</pdfrwt>
<totfact> 0.29336792E+04</totfact>
</mgrwt>
</event>
<event>
 4    2  0.4063641E+000  0.1968256E+03  0.7546771E-02  0.1152445E+00
         21   -1    0    0  503  502  0.00000000000E+00  0.00000000000E+00  0.61675005014E+02  0.61675005014E+02  0.00000000000E+00 0. -1.
         21   -1    0    0  501  503 -0.00000000000E+00 -0.00000000000E+00 -0.89628413621E+03  0.89628413621E+03  0.00000000000E+00 0. -1.
          6    1    1    2  501    0  0.62903340915E+02  0.69674068852E+02 -0.67929252185E+03  0.70723308493E+03  0.17300000000E+03 0. -1.
         -6    1    1    2    0  502 -0.62903340915E+02 -0.69674068852E+02 -0.15531660934E+03  0.25072605630E+03  0.17300000000E+03 0. -1.
<mgrwt>
<rscale>  2 0.19682557E+03</rscale>
<asrwt>0</asrwt>
<pdfrwt beam="1">  1       21 0.94884621E-02 0.19682557E+03</pdfrwt>
<pdfrwt beam="2">  1       21 0.13788987E+00 0.19682557E+03</pdfrwt>
<totfact> 0.33043171E+04</totfact>
</mgrwt>
</event>
<event>
 4    2  0.4063641E+000  0.1737319E+03  0.7546771E-02  0.1174011E+00
         21   -1    0    0  503  502  0.00000000000E+00  0.00000000000E+00  0.16667036619E+04  0.16667036619E+04  0.00000000000E+00 0.  1.
         21   -1    0    0  501  503 -0.00000000000E+00 -0.00000000000E+00 -0.39342695938E+02  0.39342695938E+02  0.00000000000E+00 0.  1.
          6    1    1    2  501    0  0.13865968651E+02  0.78420125765E+01  0.18701040382E+03  0.25525605455E+03  0.17300000000E+03 0.  1.
         -6    1    1    2    0  502 -0.13865968651E+02 -0.78420125765E+01  0.14403505622E+04  0.14507903033E+04  0.17300000000E+03 0.  1.
<mgrwt>
<rscale>  2 0.17373187E+03</rscale>
<asrwt>0</asrwt>
<pdfrwt beam="1">  1       21 0.25641589E+00 0.17373187E+03</pdfrwt>
<pdfrwt beam="2">  1       21 0.60527237E-02 0.17373187E+03</pdfrwt>
<totfact> 0.12067729E+04</totfact>
</mgrwt>
</event>
<event>
 4    2  0.4063641E+000  0.2237837E+03  0.7546771E-02  0.1131093E+00
         21   -1    0    0  503  502  0.00000000000E+00  0.00000000000E+00  0.11588758049E+04  0.11588758049E+04  0.00000000000E+00 0.  1.
         21   -1    0    0  501  503 -0.00000000000E+00 -0.00000000000E+00 -0.48539497923E+02  0.48539497923E+02  0.00000000000E+00 0. -1.
          6    1    1    2  501    0 -0.26824176741E+02 -0.13939378481E+03  0.35519275190E+03  0.41981073677E+03  0.17300000000E+03 0. -1.
         -6    1    1    2    0  502  0.26824176741E+02  0.13939378481E+03  0.75514355507E+03  0.78760456605E+03  0.17300000000E+03 0.  1.
<mgrwt>
<rscale>  2 0.22378374E+03</rscale>
<asrwt>0</asrwt>
<pdfrwt beam="1">  1       21 0.17828856E+00 0.22378374E+03</pdfrwt>
<pdfrwt beam="2">  1       21 0.74676160E-02 0.22378374E+03</pdfrwt>
<totfact> 0.24761938E+04</totfact>
</mgrwt>
</event>
<event>
 4    2  0.4063641E+000  0.1749091E+03  0.7546771E-02  0.1172823E+00
         21   -1    0    0  503  502  0.00000000000E+00  0.00000000000E+00  0.12641135521E+03  0.12641135521E+03  0.00000000000E+00 0. -1.
         21   -1    0    0  501  503 -0.00000000000E+00 -0.00000000000E+00 -0.43388487619E+03  0.43388487619E+03  0.00000000000E+00 0. -1.
          6    1    1    2  501    0 -0.25154711490E+02  0.56070388062E+01 -0.34003384023E+03  0.38238228371E+03  0.17300000000E+03 0. -1.
         -6    1    1    2    0  502  0.25154711490E+02 -0.56070388062E+01  0.32560319239E+02  0.17791394769E+03  0.17300000000E+03 0. -1.
<mgrwt>
<rscale>  2 0.17490911E+03</rscale>
<asrwt>0</asrwt>
<pdfrwt beam="1">  1       21 0.19447901E-01 0.17490911E+03</pdfrwt>
<pdfrwt beam="2">  1       21 0.66751520E-01 0.17490911E+03</pdfrwt>
<totfact> 0.50448035E+04</totfact>
</mgrwt>
</event>
<event>
 4    2  0.4063641E+000  0.3177853E+03  0.7546771E-02  0.1076673E+00
         21   -1    0    0  501  502  0.00000000000E+00  0.00000000000E+00  0.25469359955E+03  0.25469359955E+03  0.00000000000E+00 0. -1.
         21   -1    0    0  502  503 -0.00000000000E+00 -0.00000000000E+00 -0.41684636406E+03  0.41684636406E+03  0.00000000000E+00 0.  1.
          6    1    1    2  501    0  0.20414727885E+03 -0.17141294042E+03 -0.69053039189E+01  0.31786033227E+03  0.17300000000E+03 0.  1.
         -6    1    1    2    0  503 -0.20414727885E+03  0.17141294042E+03 -0.15524746059E+03  0.35367963134E+03  0.17300000000E+03 0.  1.
<mgrwt>
<rscale>  2 0.31778532E+03</rscale>
<asrwt>0</asrwt>
<pdfrwt beam="1">  1       21 0.39183631E-01 0.31778532E+03</pdfrwt>
<pdfrwt beam="2">  1       21 0.64130209E-01 0.31778532E+03</pdfrwt>
<totfact> 0.13208458E+04</totfact>
</mgrwt>
</event>
<event>
 4    2  0.4063641E+000  0.1766381E+03  0.7546771E-02  0.1171097E+00
         21   -1    0    0  501  502  0.00000000000E+00  0.00000000000E+00  0.62955377345E+03  0.62955377345E+03  0.00000000000E+00 0.  1.
         21   -1    0    0  502  503 -0.00000000000E+00 -0.00000000000E+00 -0.49601313005E+02  0.49601313005E+02  0.00000000000E+00 0.  1.
          6    1    1    2  501    0 -0.18134246979E+02 -0.30711128460E+02  0.28024014867E+03  0.33126358878E+03  0.17300000000E+03 0. -1.
         -6    1    1    2    0  503  0.18134246979E+02  0.30711128460E+02  0.29971231177E+03  0.34789149767E+03  0.17300000000E+03 0. -1.
<mgrwt>
<rscale>  2 0.17663812E+03</rscale>
<asrwt>0</asrwt>
<pdfrwt beam="1">  1       21 0.96854421E-01 0.17663812E+03</pdfrwt>
<pdfrwt beam="2">  1       21 0.76309717E-02 0.17663812E+03</pdfrwt>
<totfact> 0.11604976E+05</totfact>
</mgrwt>
</event>
<event>
 4    2  0.4063641E+000  0.2473362E+03  0.7546771E-02  0.1115000E+00
         21   -1    0    0  501  502  0.00000000000E+00  0.00000000000E+00  0.14084886562E+04  0.14084886562E+04  0.00000000000E+00 0.  1.
         21   -1    0    0  502  503 -0.00000000000E+00 -0.00000000000E+00 -0.11566963541E+03  0.11566963541E+03  0.00000000000E+00 0.  1.
          6    1    1    2  501    0  0.17452041624E+03  0.28086231741E+02  0.12486479285E+04  0.12729088190E+04  0.17300000000E+03 0.  1.
         -6    1    1    2    0  503 -0.17452041624E+03 -0.28086231741E+02  0.44171092284E+02  0.25124947262E+03  0.17300000000E+03 0.  1.
<mgrwt>
<rscale>  2 0.24733623E+03</rscale>
<asrwt>0</asrwt>
<pdfrwt beam="1">  1       21 0.21669055E+00 0.24733623E+03</pdfrwt>
<pdfrwt beam="2">  1       21 0.17795329E-01 0.24733623E+03</pdfrwt>
<totfact> 0.28747048E+03</totfact>
</mgrwt>
</event>
<event>
 4    2  0.4063641E+000  0.2001688E+03  0.7546771E-02  0.1149597E+00
         21   -1    0    0  501  502  0.00000000000E+00  0.00000000000E+00  0.69809370034E+02  0.69809370034E+02  0.00000000000E+00 0.  1.
         21   -1    0    0  502  503 -0.00000000000E+00 -0.00000000000E+00 -0.57423414352E+03  0.57423414352E+03  0.00000000000E+00 0.  1.
          6    1    1    2  501    0 -0.32064418861E+02  0.95448460027E+02 -0.24513041676E+03  0.31647504909E+03  0.17300000000E+03 0.  1.
         -6    1    1    2    0  503  0.32064418861E+02 -0.95448460027E+02 -0.25929435674E+03  0.32756846447E+03  0.17300000000E+03 0.  1.
<mgrwt>
<rscale>  2 0.20016877E+03</rscale>
<asrwt>0</asrwt>
<pdfrwt beam="1">  1       21 0.10739903E-01 0.20016877E+03</pdfrwt>
<pdfrwt beam="2">  1       21 0.88343713E-01 0.20016877E+03</pdfrwt>
<totfact> 0.78154156E+04</totfact>
</mgrwt>
</event>
<event>
 4    2  0.4063641E+000  0.2247402E+03  0.7546771E-02  0.1130398E+00
         21   -1    0    0  501  502  0.00000000000E+00  0.00000000000E+00  0.28118422602E+03  0.28118422602E+03  0.00000000000E+00 0.  1.
         21   -1    0    0  502  503 -0.00000000000E+00 -0.00000000000E+00 -0.18163893692E+03  0.18163893692E+03  0.00000000000E+00 0. -1.
          6    1    1    2  501    0 -0.88043245371E+01  0.14318392103E+03  0.74130371902E+02  0.23665050900E+03  0.17300000000E+03 0.  1.
         -6    1    1    2    0  503  0.88043245371E+01 -0.14318392103E+03  0.25414917199E+02  0.22617265394E+03  0.17300000000E+03 0. -1.
<mgrwt>
<rscale>  2 0.22474019E+03</rscale>
<asrwt>0</asrwt>
<pdfrwt beam="1">  1       21 0.43259112E-01 0.22474019E+03</pdfrwt>
<pdfrwt beam="2">  1       21 0.27944452E-01 0.22474019E+03</pdfrwt>
<totfact> 0.61944249E+04</totfact>
</mgrwt>
</event>
<event>
 4    2  0.4063641E+000  0.3270713E+03  0.7546771E-02  0.1072440E+00
         21   -1    0    0  503  502  0.00000000000E+00  0.00000000000E+00  0.17845368150E+04  0.17845368150E+04  0.00000000000E+00 0.  1.
         21   -1    0    0  501  503 -0.00000000000E+00 -0.00000000000E+00 -0.16518817092E+03  0.16518817092E+03  0.00000000000E+00 0. -1.
          6    1    1    2  501    0  0.13425867915E+03  0.24294281985E+03  0.31549870336E+02  0.32858941091E+03  0.17300000000E+03 0. -1.
         -6    1    1    2    0  502 -0.13425867915E+03 -0.24294281985E+03  0.15877987737E+04  0.16211355750E+04  0.17300000000E+03 0.  1.
<mgrwt>
<rscale>  2 0.32707126E+03</rscale>
<asrwt>0</asrwt>
<pdfrwt beam="1">  1       21 0.27454411E+00 0.32707126E+03</pdfrwt>
<pdfrwt beam="2">  1       21 0.25413566E-01 0.32707126E+03</pdfrwt>
<totfact> 0.61269644E+02</totfact>
</mgrwt>
</event>
<event>
 4    2  0.4063641E+000  0.2049696E+03  0.7546771E-02  0.1145613E+00
         21   -1    0    0  503  502  0.00000000000E+00  0.00000000000E+00  0.28517920874E+03  0.28517920874E+03  0.00000000000E+00 0.  1.
         21   -1    0    0  501  503 -0.00000000000E+00 -0.00000000000E+00 -0.17634795012E+03  0.17634795012E+03  0.00000000000E+00 0.  1.
          6    1    1    2  501    0  0.10983230955E+03  0.45161606036E+01 -0.39209419182E+02  0.20868615306E+03  0.17300000000E+03 0.  1.
         -6    1    1    2    0  502 -0.10983230955E+03 -0.45161606036E+01  0.14804067780E+03  0.25284100579E+03  0.17300000000E+03 0.  1.
<mgrwt>
<rscale>  2 0.20496959E+03</rscale>
<asrwt>0</asrwt>
<pdfrwt beam="1">  1       21 0.43873725E-01 0.20496959E+03</pdfrwt>
<pdfrwt beam="2">  1       21 0.27130454E-01 0.20496959E+03</pdfrwt>
<totfact> 0.64268907E+04</totfact>
</mgrwt>
</event>
<event>
 4    2  0.4063641E+000  0.2082493E+03  0.7546771E-02  0.1142960E+00
         21   -1    0    0  501  502  0.00000000000E+00  0.00000000000E+00  0.10169674976E+04  0.10169674976E+04  0.00000000000E+00 0.  1.
         21   -1    0    0  502  503 -0.00000000000E+00 -0.00000000000E+00 -0.44094828864E+02  0.44094828864E+02  0.00000000000E+00 0. -1.
          6    1    1    2  501    0  0.47026120242E+01  0.11583026011E+03  0.39020966187E+03  0.44230232187E+03  0.17300000000E+03 0. -1.
         -6    1    1    2    0  503 -0.47026120242E+01 -0.11583026011E+03  0.58266300692E+03  0.61876000464E+03  0.17300000000E+03 0.  1.
<mgrwt>
<rscale>  2 0.20824928E+03</rscale>
<asrwt>0</asrwt>
<pdfrwt beam="1">  1       21 0.15645652E+00 0.20824928E+03</pdfrwt>
<pdfrwt beam="2">  1       21 0.67838206E-02 0.20824928E+03</pdfrwt>
<totfact> 0.42291598E+04</totfact>
</mgrwt>
</event>
<event>
 4    2  0.4063641E+000  0.3911553E+03  0.7546771E-02  0.1046886E+00
         21   -1    0    0  503  502  0.00000000000E+00  0.00000000000E+00  0.50874974024E+03  0.50874974024E+03  0.00000000000E+00 0.  1.
         21   -1    0    0  501  503 -0.00000000000E+00 -0.00000000000E+00 -0.74545679005E+03  0.74545679005E+03  0.00000000000E+00 0.  1.
          6    1    1    2  501    0 -0.35037665289E+03  0.17596626558E+02 -0.60271387723E+03  0.71851684598E+03  0.17300000000E+03 0.  1.
         -6    1    1    2    0  502  0.35037665289E+03 -0.17596626558E+02  0.36600682742E+03  0.53568968431E+03  0.17300000000E+03 0.  1.
<mgrwt>
<rscale>  2 0.39115526E+03</rscale>
<asrwt>0</asrwt>
<pdfrwt beam="1">  1       21 0.78269191E-01 0.39115526E+03</pdfrwt>
<pdfrwt beam="2">  1       21 0.11468566E+00 0.39115526E+03</pdfrwt>
<totfact> 0.73912444E+02</totfact>
</mgrwt>
</event>
<event>
 4    2  0.4063641E+000  0.2156539E+03  0.7546771E-02  0.1137165E+00
         21   -1    0    0  503  502  0.00000000000E+00  0.00000000000E+00  0.26624879017E+03  0.26624879017E+03  0.00000000000E+00 0.  1.
         21   -1    0    0  501  503 -0.00000000000E+00 -0.00000000000E+00 -0.20688091621E+03  0.20688091621E+03  0.00000000000E+00 0. -1.
          6    1    1    2  501    0  0.12791975538E+03  0.14633003817E+02 -0.63656201472E+02  0.22485261974E+03  0.17300000000E+03 0.  1.
         -6    1    1    2    0  502 -0.12791975538E+03 -0.14633003817E+02  0.12302407543E+03  0.24827708664E+03  0.17300000000E+03 0.  1.
<mgrwt>
<rscale>  2 0.21565386E+03</rscale>
<asrwt>0</asrwt>
<pdfrwt beam="1">  1       21 0.40961352E-01 0.21565386E+03</pdfrwt>
<pdfrwt beam="2">  1       21 0.31827833E-01 0.21565386E+03</pdfrwt>
<totfact> 0.53909620E+04</totfact>
</mgrwt>
</event>
<event>
 4    2  0.4063641E+000  0.2417078E+03  0.7546771E-02  0.1118660E+00
         21   -1    0    0  501  502  0.00000000000E+00  0.00000000000E+00  0.13411277981E+03  0.13411277981E+03  0.00000000000E+00 0. -1.
         21   -1    0    0  502  503 -0.00000000000E+00 -0.00000000000E+00 -0.70382687183E+03  0.70382687183E+03  0.00000000000E+00 0. -1.
          6    1    1    2  501    0 -0.31929035523E+02  0.16575346104E+03 -0.26225215593E+02  0.24312637678E+03  0.17300000000E+03 0. -1.
         -6    1    1    2    0  503  0.31929035523E+02 -0.16575346104E+03 -0.54348887642E+03  0.59481327486E+03  0.17300000000E+03 0. -1.
<mgrwt>
<rscale>  2 0.24170783E+03</rscale>
<asrwt>0</asrwt>
<pdfrwt beam="1">  1       21 0.20632736E-01 0.24170783E+03</pdfrwt>
<pdfrwt beam="2">  1       21 0.10828105E+00 0.24170783E+03</pdfrwt>
<totfact> 0.14334041E+04</totfact>
</mgrwt>
</event>
<event>
 4    2  0.4063641E+000  0.1777138E+03  0.7546771E-02  0.1170034E+00
         21   -1    0    0  501  502  0.00000000000E+00  0.00000000000E+00  0.54340404680E+02  0.54340404680E+02  0.00000000000E+00 0.  1.
         21   -1    0    0  502  503 -0.00000000000E+00 -0.00000000000E+00 -0.74835138332E+03  0.74835138332E+03  0.00000000000E+00 0.  1.
          6    1    1    2  501    0  0.18886343048E+02 -0.36007109068E+02 -0.15732114655E+03  0.23734394665E+03  0.17300000000E+03 0.  1.
         -6    1    1    2    0  503 -0.18886343048E+02  0.36007109068E+02 -0.53668983209E+03  0.56534784135E+03  0.17300000000E+03 0.  1.
<mgrwt>
<rscale>  2 0.17771383E+03</rscale>
<asrwt>0</asrwt>
<pdfrwt beam="1">  1       21 0.83600627E-02 0.17771383E+03</pdfrwt>
<pdfrwt beam="2">  1       21 0.11513098E+00 0.17771383E+03</pdfrwt>
<totfact> 0.65445163E+04</totfact>
</mgrwt>
</event>
<event>
 4    2  0.4063641E+000  0.2795294E+03  0.7546771E-02  0.1095946E+00
         21   -1    0    0  503  502  0.00000000000E+00  0.00000000000E+00  0.90366897406E+03  0.90366897406E+03  0.00000000000E+00 0. -1.
         21   -1    0    0  501  503 -0.00000000000E+00 -0.00000000000E+00 -0.32258622308E+03  0.32258622308E+03  0.00000000000E+00 0. -1.
          6    1    1    2  501    0  0.19895696595E+03 -0.92864550482E+02 -0.23401780405E+03  0.36455593762E+03  0.17300000000E+03 0. -1.
         -6    1    1    2    0  502 -0.19895696595E+03  0.92864550482E+02  0.81510055504E+03  0.86169925952E+03  0.17300000000E+03 0. -1.
<mgrwt>
<rscale>  2 0.27952942E+03</rscale>
<asrwt>0</asrwt>
<pdfrwt beam="1">  1       21 0.13902599E+00 0.27952942E+03</pdfrwt>
<pdfrwt beam="2">  1       21 0.49628650E-01 0.27952942E+03</pdfrwt>
<totfact> 0.13110686E+03</totfact>
</mgrwt>
</event>
<event>
 4    2  0.4063641E+000  0.2029673E+03  0.7546771E-02  0.1147259E+00
         21   -1    0    0  503  502  0.00000000000E+00  0.00000000000E+00  0.19066894652E+03  0.19066894652E+03  0.00000000000E+00 0.  1.
         21   -1    0    0  501  503 -0.00000000000E+00 -0.00000000000E+00 -0.28576948089E+03  0.28576948089E+03  0.00000000000E+00 0. -1.
          6    1    1    2  501    0 -0.54839807627E+02  0.90880816376E+02 -0.16520736786E+03  0.26170441662E+03  0.17300000000E+03 0. -1.
         -6    1    1    2    0  502  0.54839807627E+02 -0.90880816376E+02  0.70106833494E+02  0.21473401079E+03  0.17300000000E+03 0.  1.
<mgrwt>
<rscale>  2 0.20296731E+03</rscale>
<asrwt>0</asrwt>
<pdfrwt beam="1">  1       21 0.29333684E-01 0.20296731E+03</pdfrwt>
<pdfrwt beam="2">  1       21 0.43964535E-01 0.20296731E+03</pdfrwt>
<totfact> 0.55060482E+04</totfact>
</mgrwt>
</event>
<event>
 4    2  0.4063641E+000  0.1894709E+03  0.7546771E-02  0.1158939E+00
         21   -1    0    0  503  502  0.00000000000E+00  0.00000000000E+00  0.67404697399E+03  0.67404697399E+03  0.00000000000E+00 0.  1.
         21   -1    0    0  501  503 -0.00000000000E+00 -0.00000000000E+00 -0.81492999173E+02  0.81492999173E+02  0.00000000000E+00 0. -1.
          6    1    1    2  501    0  0.59066239593E+02  0.49813596442E+02  0.73919468965E+02  0.20337970140E+03  0.17300000000E+03 0. -1.
         -6    1    1    2    0  502 -0.59066239593E+02 -0.49813596442E+02  0.51863450585E+03  0.55216027176E+03  0.17300000000E+03 0.  1.
<mgrwt>
<rscale>  2 0.18947088E+03</rscale>
<asrwt>0</asrwt>
<pdfrwt beam="1">  1       21 0.10369953E+00 0.18947088E+03</pdfrwt>
<pdfrwt beam="2">  1       21 0.12537385E-01 0.18947088E+03</pdfrwt>
<totfact> 0.40908415E+04</totfact>
</mgrwt>
</event>
<event>
 4    2  0.4063641E+000  0.2043615E+03  0.7546771E-02  0.1146111E+00
         21   -1    0    0  501  502  0.00000000000E+00  0.00000000000E+00  0.17806845918E+04  0.17806845918E+04  0.00000000000E+00 0. -1.
         21   -1    0    0  502  503 -0.00000000000E+00 -0.00000000000E+00 -0.35696169870E+02  0.35696169870E+02  0.00000000000E+00 0. -1.
          6    1    1    2  501    0  0.48085083568E+02  0.97582952487E+02  0.14043586474E+04  0.14191500337E+04  0.17300000000E+03 0. -1.
         -6    1    1    2    0  503 -0.48085083568E+02 -0.97582952487E+02  0.34062977455E+03  0.39723072790E+03  0.17300000000E+03 0. -1.
<mgrwt>
<rscale>  2 0.20436146E+03</rscale>
<asrwt>0</asrwt>
<pdfrwt beam="1">  1       21 0.27395141E+00 0.20436146E+03</pdfrwt>
<pdfrwt beam="2">  1       21 0.54917198E-02 0.20436146E+03</pdfrwt>
<totfact> 0.10934385E+04</totfact>
</mgrwt>
</event>
<event>
 4    2  0.4063641E+000  0.2291103E+03  0.7546771E-02  0.1127268E+00
         21   -1    0    0  501  502  0.00000000000E+00  0.00000000000E+00  0.20850296151E+03  0.20850296151E+03  0.00000000000E+00 0.  1.
         21   -1    0    0  502  503 -0.00000000000E+00 -0.00000000000E+00 -0.25189040814E+03  0.25189040814E+03  0.00000000000E+00 0. -1.
          6    1    1    2  501    0 -0.23780957126E+02  0.14831386450E+03 -0.27042917088E+02  0.23070079256E+03  0.17300000000E+03 0. -1.
         -6    1    1    2    0  503  0.23780957126E+02 -0.14831386450E+03 -0.16344529540E+02  0.22969257709E+03  0.17300000000E+03 0.  1.
<mgrwt>
<rscale>  2 0.22911031E+03</rscale>
<asrwt>0</asrwt>
<pdfrwt beam="1">  1       21 0.32077379E-01 0.22911031E+03</pdfrwt>
<pdfrwt beam="2">  1       21 0.38752370E-01 0.22911031E+03</pdfrwt>
<totfact> 0.59054841E+04</totfact>
</mgrwt>
</event>
<event>
 4    2  0.4063641E+000  0.2101962E+03  0.7546771E-02  0.1141411E+00
         21   -1    0    0  501  502  0.00000000000E+00  0.00000000000E+00  0.22947466686E+02  0.22947466686E+02  0.00000000000E+00 0.  1.
         21   -1    0    0  502  503 -0.00000000000E+00 -0.00000000000E+00 -0.19276961151E+04  0.19276961151E+04  0.00000000000E+00 0.  1.
          6    1    1    2  501    0  0.11081962716E+03  0.44412232405E+02 -0.98623146327E+03  0.10083823359E+04  0.17300000000E+03 0.  1.
         -6    1    1    2    0  503 -0.11081962716E+03 -0.44412232405E+02 -0.91851718518E+03  0.94226124595E+03  0.17300000000E+03 0.  1.
<mgrwt>
<rscale>  2 0.21019618E+03</rscale>
<asrwt>0</asrwt>
<pdfrwt beam="1">  1       21 0.35303794E-02 0.21019618E+03</pdfrwt>
<pdfrwt beam="2">  1       21 0.29656864E+00 0.21019618E+03</pdfrwt>
<totfact> 0.16955779E+04</totfact>
</mgrwt>
</event>
<event>
 4    2  0.4063641E+000  0.1777465E+03  0.7546771E-02  0.1170002E+00
         21   -1    0    0  501  502  0.00000000000E+00  0.00000000000E+00  0.27038592521E+03  0.27038592521E+03  0.00000000000E+00 0. -1.
         21   -1    0    0  502  503 -0.00000000000E+00 -0.00000000000E+00 -0.20735969791E+03  0.20735969791E+03  0.00000000000E+00 0. -1.
          6    1    1    2  501    0  0.36414059285E+02 -0.18407666600E+02  0.18933198405E+03  0.25969294578E+03  0.17300000000E+03 0. -1.
         -6    1    1    2    0  503 -0.36414059285E+02  0.18407666600E+02 -0.12630575675E+03  0.21805267733E+03  0.17300000000E+03 0. -1.
<mgrwt>
<rscale>  2 0.17774652E+03</rscale>
<asrwt>0</asrwt>
<pdfrwt beam="1">  1       21 0.41597835E-01 0.17774652E+03</pdfrwt>
<pdfrwt beam="2">  1       21 0.31901492E-01 0.17774652E+03</pdfrwt>
<totfact> 0.52940909E+04</totfact>
</mgrwt>
</event>
<event>
 4    2  0.4063641E+000  0.2021891E+03  0.7546771E-02  0.1147905E+00
         21   -1    0    0  503  502  0.00000000000E+00  0.00000000000E+00  0.42952724934E+02  0.42952724934E+02  0.00000000000E+00 0.  1.
         21   -1    0    0  501  503 -0.00000000000E+00 -0.00000000000E+00 -0.98308614954E+03  0.98308614954E+03  0.00000000000E+00 0. -1.
          6    1    1    2  501    0  0.69032628131E+02 -0.78650605999E+02 -0.56165377404E+03  0.59693834143E+03  0.17300000000E+03 0. -1.
         -6    1    1    2    0  502 -0.69032628131E+02  0.78650605999E+02 -0.37847965056E+03  0.42910053305E+03  0.17300000000E+03 0. -1.
<mgrwt>
<rscale>  2 0.20218907E+03</rscale>
<asrwt>0</asrwt>
<pdfrwt beam="1">  1       21 0.66081118E-02 0.20218907E+03</pdfrwt>
<pdfrwt beam="2">  1       21 0.15124402E+00 0.20218907E+03</pdfrwt>
<totfact> 0.48594154E+04</totfact>
</mgrwt>
</event>
<event>
 4    2  0.4063641E+000  0.2269245E+03  0.7546771E-02  0.1128823E+00
         21   -1    0    0  501  502  0.00000000000E+00  0.00000000000E+00  0.11113634385E+04  0.11113634385E+04  0.00000000000E+00 0. -1.
         21   -1    0    0  502  503 -0.00000000000E+00 -0.00000000000E+00 -0.11830223620E+03  0.11830223620E+03  0.00000000000E+00 0. -1.
          6    1    1    2  501    0 -0.93994549098E+02  0.11283059607E+03  0.97607499835E+03  0.10021063422E+04  0.17300000000E+03 0. -1.
         -6    1    1    2    0  503  0.93994549098E+02 -0.11283059607E+03  0.16986203927E+02  0.22755933247E+03  0.17300000000E+03 0. -1.
<mgrwt>
<rscale>  2 0.22692448E+03</rscale>
<asrwt>0</asrwt>
<pdfrwt beam="1">  1       21 0.17097898E+00 0.22692448E+03</pdfrwt>
<pdfrwt beam="2">  1       21 0.18200345E-01 0.22692448E+03</pdfrwt>
<totfact> 0.56182085E+03</totfact>
</mgrwt>
</event>
<event>
 4    2  0.4063641E+000  0.1932098E+03  0.7546771E-02  0.1155598E+00
         21   -1    0    0  501  502  0.00000000000E+00  0.00000000000E+00  0.13905519549E+04  0.13905519549E+04  0.00000000000E+00 0. -1.
         21   -1    0    0  502  503 -0.00000000000E+00 -0.00000000000E+00 -0.31471903283E+02  0.31471903283E+02  0.00000000000E+00 0. -1.
          6    1    1    2  501    0  0.60114725968E+02 -0.61540752328E+02  0.95214748542E+03  0.97155281815E+03  0.17300000000E+03 0. -1.
         -6    1    1    2    0  503 -0.60114725968E+02  0.61540752328E+02  0.40693256625E+03  0.45047104008E+03  0.17300000000E+03 0. -1.
<mgrwt>
<rscale>  2 0.19320985E+03</rscale>
<asrwt>0</asrwt>
<pdfrwt beam="1">  1       21 0.21393102E+00 0.19320985E+03</pdfrwt>
<pdfrwt beam="2">  1       21 0.48418324E-02 0.19320985E+03</pdfrwt>
<totfact> 0.31137699E+04</totfact>
</mgrwt>
</event>
<event>
 4    2  0.4063641E+000  0.1799308E+03  0.7546771E-02  0.1167870E+00
         21   -1    0    0  501  502  0.00000000000E+00  0.00000000000E+00  0.83894665855E+03  0.83894665855E+03  0.00000000000E+00 0. -1.
         21   -1    0    0  502  503 -0.00000000000E+00 -0.00000000000E+00 -0.39127471450E+02  0.39127471450E+02  0.00000000000E+00 0. -1.
          6    1    1    2  501    0  0.48442500958E+02  0.99716216090E+01  0.45135683502E+03  0.48589927110E+03  0.17300000000E+03 0. -1.
         -6    1    1    2    0  503 -0.48442500958E+02 -0.99716216090E+01  0.34846235208E+03  0.39217485890E+03  0.17300000000E+03 0. -1.
<mgrwt>
<rscale>  2 0.17993085E+03</rscale>
<asrwt>0</asrwt>
<pdfrwt beam="1">  1       21 0.12906870E+00 0.17993085E+03</pdfrwt>
<pdfrwt beam="2">  1       21 0.60196116E-02 0.17993085E+03</pdfrwt>
<totfact> 0.86815927E+04</totfact>
</mgrwt>
</event>
<event>
 4    2  0.4063641E+000  0.1875216E+03  0.7546771E-02  0.1160716E+00
         21   -1    0    0  501  502  0.00000000000E+00  0.00000000000E+00  0.15845007346E+03  0.15845007346E+03  0.00000000000E+00 0.  1.
         21   -1    0    0  502  503 -0.00000000000E+00 -0.00000000000E+00 -0.27367691914E+03  0.27367691914E+03  0.00000000000E+00 0. -1.
          6    1    1    2  501    0  0.10332646356E+02  0.71614270071E+02  0.36340881145E+02  0.19101054133E+03  0.17300000000E+03 0.  1.
         -6    1    1    2    0  503 -0.10332646356E+02 -0.71614270071E+02 -0.15156772682E+03  0.24111645127E+03  0.17300000000E+03 0. -1.
<mgrwt>
<rscale>  2 0.18752164E+03</rscale>
<asrwt>0</asrwt>
<pdfrwt beam="1">  1       21 0.24376935E-01 0.18752164E+03</pdfrwt>
<pdfrwt beam="2">  1       21 0.42104141E-01 0.18752164E+03</pdfrwt>
<totfact> 0.86457907E+04</totfact>
</mgrwt>
</event>
<event>
 4    2  0.4063641E+000  0.4813157E+03  0.7546771E-02  0.1018774E+00
         21   -1    0    0  503  502  0.00000000000E+00  0.00000000000E+00  0.64957869903E+03  0.64957869903E+03  0.00000000000E+00 0. -1.
         21   -1    0    0  501  503 -0.00000000000E+00 -0.00000000000E+00 -0.42304703244E+03  0.42304703244E+03  0.00000000000E+00 0.  1.
          6    1    1    2  501    0 -0.13302249529E+03  0.42899979597E+03 -0.99222772764E+02  0.49143663664E+03  0.17300000000E+03 0.  1.
         -6    1    1    2    0  502  0.13302249529E+03 -0.42899979597E+03  0.32575443935E+03  0.58118909483E+03  0.17300000000E+03 0. -1.
<mgrwt>
<rscale>  2 0.48131571E+03</rscale>
<asrwt>0</asrwt>
<pdfrwt beam="1">  1       21 0.99935184E-01 0.48131571E+03</pdfrwt>
<pdfrwt beam="2">  1       21 0.65084159E-01 0.48131571E+03</pdfrwt>
<totfact> 0.15148505E+03</totfact>
</mgrwt>
</event>
<event>
 4    2  0.4063641E+000  0.1935131E+03  0.7546771E-02  0.1155330E+00
         21   -1    0    0  503  502  0.00000000000E+00  0.00000000000E+00  0.45832958184E+03  0.45832958184E+03  0.00000000000E+00 0.  1.
         21   -1    0    0  501  503 -0.00000000000E+00 -0.00000000000E+00 -0.84041293406E+02  0.84041293406E+02  0.00000000000E+00 0.  1.
          6    1    1    2  501    0  0.76135307447E+02 -0.41493946073E+02  0.23236952197E+03  0.30239531633E+03  0.17300000000E+03 0.  1.
         -6    1    1    2    0  502 -0.76135307447E+02  0.41493946073E+02  0.14191876647E+03  0.23997555891E+03  0.17300000000E+03 0.  1.
<mgrwt>
<rscale>  2 0.19351313E+03</rscale>
<asrwt>0</asrwt>
<pdfrwt beam="1">  1       21 0.70512242E-01 0.19351313E+03</pdfrwt>
<pdfrwt beam="2">  1       21 0.12929430E-01 0.19351313E+03</pdfrwt>
<totfact> 0.93567553E+04</totfact>
</mgrwt>
</event>
<event>
 4    2  0.4063641E+000  0.1765053E+03  0.7546771E-02  0.1171229E+00
         21   -1    0    0  503  502  0.00000000000E+00  0.00000000000E+00  0.26162272825E+03  0.26162272825E+03  0.00000000000E+00 0.  1.
         21   -1    0    0  501  503 -0.00000000000E+00 -0.00000000000E+00 -0.46696359883E+03  0.46696359883E+03  0.00000000000E+00 0.  1.
          6    1    1    2  501    0 -0.13682551799E+02 -0.32216468261E+02 -0.41710211601E+03  0.45291090540E+03  0.17300000000E+03 0.  1.
         -6    1    1    2    0  502  0.13682551799E+02  0.32216468261E+02  0.21176124543E+03  0.27567542168E+03  0.17300000000E+03 0.  1.
<mgrwt>
<rscale>  2 0.17650528E+03</rscale>
<asrwt>0</asrwt>
<pdfrwt beam="1">  1       21 0.40249651E-01 0.17650528E+03</pdfrwt>
<pdfrwt beam="2">  1       21 0.71840553E-01 0.17650528E+03</pdfrwt>
<totfact> 0.10524553E+04</totfact>
</mgrwt>
</event>
<event>
 4    2  0.4063641E+000  0.2292201E+03  0.7546771E-02  0.1127190E+00
         21   -1    0    0  503  502  0.00000000000E+00  0.00000000000E+00  0.23390389755E+04  0.23390389755E+04  0.00000000000E+00 0. -1.
         21   -1    0    0  501  503 -0.00000000000E+00 -0.00000000000E+00 -0.39101733645E+02  0.39101733645E+02  0.00000000000E+00 0. -1.
          6    1    1    2  501    0  0.88422172436E+02  0.12163203407E+03  0.37431168366E+03  0.43892034450E+03  0.17300000000E+03 0. -1.
         -6    1    1    2    0  502 -0.88422172436E+02 -0.12163203407E+03  0.19256255582E+04  0.19392203647E+04  0.17300000000E+03 0. -1.
<mgrwt>
<rscale>  2 0.22922005E+03</rscale>
<asrwt>0</asrwt>
<pdfrwt beam="1">  1       21 0.35985204E+00 0.22922005E+03</pdfrwt>
<pdfrwt beam="2">  1       21 0.60156532E-02 0.22922005E+03</pdfrwt>
<totfact> 0.28661354E+03</totfact>
</mgrwt>
</event>
<event>
 4    2  0.4063641E+000  0.1843768E+03  0.7546771E-02  0.1163633E+00
         21   -1    0    0  503  502  0.00000000000E+00  0.00000000000E+00  0.49559636241E+03  0.49559636241E+03  0.00000000000E+00 0. -1.
         21   -1    0    0  501  503 -0.00000000000E+00 -0.00000000000E+00 -0.15999888191E+03  0.15999888191E+03  0.00000000000E+00 0. -1.
          6    1    1    2  501    0 -0.11781216615E+02  0.62665847803E+02 -0.79962091617E+02  0.20096950426E+03  0.17300000000E+03 0. -1.
         -6    1    1    2    0  502  0.11781216615E+02 -0.62665847803E+02  0.41555957212E+03  0.45462574006E+03  0.17300000000E+03 0. -1.
<mgrwt>
<rscale>  2 0.18437680E+03</rscale>
<asrwt>0</asrwt>
<pdfrwt beam="1">  1       21 0.76245593E-01 0.18437680E+03</pdfrwt>
<pdfrwt beam="2">  1       21 0.24615213E-01 0.18437680E+03</pdfrwt>
<totfact> 0.24022426E+04</totfact>
</mgrwt>
</event>
<event>
 4    2  0.4063641E+000  0.2360369E+03  0.7546771E-02  0.1122461E+00
         21   -1    0    0  501  502  0.00000000000E+00  0.00000000000E+00  0.13947935911E+04  0.13947935911E+04  0.00000000000E+00 0. -1.
         21   -1    0    0  502  503 -0.00000000000E+00 -0.00000000000E+00 -0.40113076504E+02  0.40113076504E+02  0.00000000000E+00 0.  1.
          6    1    1    2  501    0  0.10923476367E+02  0.16020328108E+03  0.63073914832E+03  0.67345770975E+03  0.17300000000E+03 0. -1.
         -6    1    1    2    0  503 -0.10923476367E+02 -0.16020328108E+03  0.72394136628E+03  0.76144895785E+03  0.17300000000E+03 0.  1.
<mgrwt>
<rscale>  2 0.23603689E+03</rscale>
<asrwt>0</asrwt>
<pdfrwt beam="1">  1       21 0.21458359E+00 0.23603689E+03</pdfrwt>
<pdfrwt beam="2">  1       21 0.61712436E-02 0.23603689E+03</pdfrwt>
<totfact> 0.19771084E+04</totfact>
</mgrwt>
</event>
<event>
 4    2  0.4063641E+000  0.1802183E+03  0.7546771E-02  0.1167592E+00
         21   -1    0    0  503  502  0.00000000000E+00  0.00000000000E+00  0.19035350549E+04  0.19035350549E+04  0.00000000000E+00 0. -1.
         21   -1    0    0  501  503 -0.00000000000E+00 -0.00000000000E+00 -0.17895069401E+02  0.17895069401E+02  0.00000000000E+00 0. -1.
          6    1    1    2  501    0  0.26765073865E+02 -0.42816831949E+02  0.11500703090E+04  0.11641049635E+04  0.17300000000E+03 0. -1.
         -6    1    1    2    0  502 -0.26765073865E+02  0.42816831949E+02  0.73556967645E+03  0.75732516080E+03  0.17300000000E+03 0. -1.
<mgrwt>
<rscale>  2 0.18021834E+03</rscale>
<asrwt>0</asrwt>
<pdfrwt beam="1">  1       21 0.29285139E+00 0.18021834E+03</pdfrwt>
<pdfrwt beam="2">  1       21 0.27530891E-02 0.18021834E+03</pdfrwt>
<totfact> 0.27697136E+04</totfact>
</mgrwt>
</event>
<event>
 4    2  0.4063641E+000  0.1810093E+03  0.7546771E-02  0.1166830E+00
         21   -1    0    0  501  502  0.00000000000E+00  0.00000000000E+00  0.56184026983E+02  0.56184026983E+02  0.00000000000E+00 0.  1.
         21   -1    0    0  502  503 -0.00000000000E+00 -0.00000000000E+00 -0.70935265270E+03  0.70935265270E+03  0.00000000000E+00 0. -1.
          6    1    1    2  501    0  0.40826133545E+02  0.34184847833E+02 -0.16514143621E+03  0.24502259274E+03  0.17300000000E+03 0.  1.
         -6    1    1    2    0  503 -0.40826133545E+02 -0.34184847833E+02 -0.48802718951E+03  0.52051408694E+03  0.17300000000E+03 0. -1.
<mgrwt>
<rscale>  2 0.18100933E+03</rscale>
<asrwt>0</asrwt>
<pdfrwt beam="1">  1       21 0.86436969E-02 0.18100933E+03</pdfrwt>
<pdfrwt beam="2">  1       21 0.10913117E+00 0.18100933E+03</pdfrwt>
<totfact> 0.70178619E+04</totfact>
</mgrwt>
</event>
<event>
 4    2  0.4063641E+000  0.2047974E+03  0.7546771E-02  0.1145753E+00
         21   -1    0    0  503  502  0.00000000000E+00  0.00000000000E+00  0.23692761220E+04  0.23692761220E+04  0.00000000000E+00 0.  1.
         21   -1    0    0  501  503 -0.00000000000E+00 -0.00000000000E+00 -0.32553782206E+02  0.32553782206E+02  0.00000000000E+00 0. -1.
          6    1    1    2  501    0 -0.88728098547E+02  0.64345030170E+02  0.35722374496E+03  0.41176542150E+03  0.17300000000E+03 0. -1.
         -6    1    1    2    0  502  0.88728098547E+02 -0.64345030170E+02  0.19794985949E+04  0.19900644827E+04  0.17300000000E+03 0.  1.
<mgrwt>
<rscale>  2 0.20479736E+03</rscale>
<asrwt>0</asrwt>
<pdfrwt beam="1">  1       21 0.36450388E+00 0.20479736E+03</pdfrwt>
<pdfrwt beam="2">  1       21 0.50082760E-02 0.20479736E+03</pdfrwt>
<totfact> 0.37866436E+03</totfact>
</mgrwt>
</event>
<event>
 4    2  0.4063641E+000  0.1851435E+03  0.7546771E-02  0.1162916E+00
         21   -1    0    0  503  502  0.00000000000E+00  0.00000000000E+00  0.31431184071E+03  0.31431184071E+03  0.00000000000E+00 0. -1.
         21   -1    0    0  501  503 -0.00000000000E+00 -0.00000000000E+00 -0.14927406014E+03  0.14927406014E+03  0.00000000000E+00 0. -1.
          6    1    1    2  501    0  0.63182394752E+02 -0.18897075095E+02 -0.37793301121E+02  0.18896149889E+03  0.17300000000E+03 0.  1.
         -6    1    1    2    0  502 -0.63182394752E+02  0.18897075095E+02  0.20283108169E+03  0.27462440196E+03  0.17300000000E+03 0.  1.
<mgrwt>
<rscale>  2 0.18514350E+03</rscale>
<asrwt>0</asrwt>
<pdfrwt beam="1">  1       21 0.48355668E-01 0.18514350E+03</pdfrwt>
<pdfrwt beam="2">  1       21 0.22965240E-01 0.18514350E+03</pdfrwt>
<totfact> 0.72936961E+04</totfact>
</mgrwt>
</event>
<event>
 4    2  0.4063641E+000  0.2605611E+03  0.7546771E-02  0.1106807E+00
         21   -1    0    0  503  502  0.00000000000E+00  0.00000000000E+00  0.92110412940E+03  0.92110412940E+03  0.00000000000E+00 0. -1.
         21   -1    0    0  501  503 -0.00000000000E+00 -0.00000000000E+00 -0.12271458302E+03  0.12271458302E+03  0.00000000000E+00 0. -1.
          6    1    1    2  501    0  0.17288593066E+03  0.89852891723E+02  0.69374489162E+02  0.26963847447E+03  0.17300000000E+03 0. -1.
         -6    1    1    2    0  502 -0.17288593066E+03 -0.89852891723E+02  0.72901505722E+03  0.77418023795E+03  0.17300000000E+03 0. -1.
<mgrwt>
<rscale>  2 0.26056110E+03</rscale>
<asrwt>0</asrwt>
<pdfrwt beam="1">  1       21 0.14170832E+00 0.26056110E+03</pdfrwt>
<pdfrwt beam="2">  1       21 0.18879167E-01 0.26056110E+03</pdfrwt>
<totfact> 0.85130455E+03</totfact>
</mgrwt>
</event>
<event>
 4    2  0.4063641E+000  0.1852409E+03  0.7546771E-02  0.1162825E+00
         21   -1    0    0  503  502  0.00000000000E+00  0.00000000000E+00  0.21054936629E+03  0.21054936629E+03  0.00000000000E+00 0.  1.
         21   -1    0    0  501  503 -0.00000000000E+00 -0.00000000000E+00 -0.33759164639E+03  0.33759164639E+03  0.00000000000E+00 0.  1.
          6    1    1    2  501    0  0.64752091893E+02  0.13869606627E+02 -0.26063164548E+03  0.31975467786E+03  0.17300000000E+03 0.  1.
         -6    1    1    2    0  502 -0.64752091893E+02 -0.13869606627E+02  0.13358936537E+03  0.22838633482E+03  0.17300000000E+03 0.  1.
<mgrwt>
<rscale>  2 0.18524092E+03</rscale>
<asrwt>0</asrwt>
<pdfrwt beam="1">  1       21 0.32392210E-01 0.18524092E+03</pdfrwt>
<pdfrwt beam="2">  1       21 0.51937176E-01 0.18524092E+03</pdfrwt>
<totfact> 0.32398391E+04</totfact>
</mgrwt>
</event>
<event>
 4    2  0.4063641E+000  0.2904460E+03  0.7546771E-02  0.1090117E+00
         21   -1    0    0  501  502  0.00000000000E+00  0.00000000000E+00  0.39140546149E+03  0.39140546149E+03  0.00000000000E+00 0. -1.
         21   -1    0    0  502  503 -0.00000000000E+00 -0.00000000000E+00 -0.10078055271E+04  0.10078055271E+04  0.00000000000E+00 0. -1.
          6    1    1    2  501    0  0.22693226923E+03  0.54144340787E+02  0.31210241160E+03  0.42634115422E+03  0.17300000000E+03 0. -1.
         -6    1    1    2    0  503 -0.22693226923E+03 -0.54144340787E+02 -0.92850247722E+03  0.97286983438E+03  0.17300000000E+03 0. -1.
<mgrwt>
<rscale>  2 0.29044598E+03</rscale>
<asrwt>0</asrwt>
<pdfrwt beam="1">  1       21 0.60216226E-01 0.29044598E+03</pdfrwt>
<pdfrwt beam="2">  1       21 0.15504700E+00 0.29044598E+03</pdfrwt>
<totfact> 0.64439349E+02</totfact>
</mgrwt>
</event>
<event>
 4    2  0.4063641E+000  0.2058919E+03  0.7546771E-02  0.1144861E+00
         21   -1    0    0  501  502  0.00000000000E+00  0.00000000000E+00  0.38510475611E+03  0.38510475611E+03  0.00000000000E+00 0.  1.
         21   -1    0    0  502  503 -0.00000000000E+00 -0.00000000000E+00 -0.11820709179E+03  0.11820709179E+03  0.00000000000E+00 0. -1.
          6    1    1    2  501    0 -0.93943150336E+02  0.60309024530E+02  0.19944383947E+03  0.28665194755E+03  0.17300000000E+03 0. -1.
         -6    1    1    2    0  503  0.93943150336E+02 -0.60309024530E+02  0.67453824855E+02  0.21665990036E+03  0.17300000000E+03 0. -1.
<mgrwt>
<rscale>  2 0.20589195E+03</rscale>
<asrwt>0</asrwt>
<pdfrwt beam="1">  1       21 0.59246885E-01 0.20589195E+03</pdfrwt>
<pdfrwt beam="2">  1       21 0.18185707E-01 0.20589195E+03</pdfrwt>
<totfact> 0.72911576E+04</totfact>
</mgrwt>
</event>
<event>
 4    2  0.4063641E+000  0.2023224E+03  0.7546771E-02  0.1147794E+00
         21   -1    0    0  503  502  0.00000000000E+00  0.00000000000E+00  0.15820311103E+03  0.15820311103E+03  0.00000000000E+00 0. -1.
         21   -1    0    0  501  503 -0.00000000000E+00 -0.00000000000E+00 -0.27094622956E+03  0.27094622956E+03  0.00000000000E+00 0. -1.
          6    1    1    2  501    0  0.21068881276E+02 -0.10276901033E+03 -0.10190464452E+03  0.22653680455E+03  0.17300000000E+03 0. -1.
         -6    1    1    2    0  502 -0.21068881276E+02  0.10276901033E+03 -0.10838474007E+02  0.20261253604E+03  0.17300000000E+03 0. -1.
<mgrwt>
<rscale>  2 0.20232243E+03</rscale>
<asrwt>0</asrwt>
<pdfrwt beam="1">  1       21 0.24338940E-01 0.20232243E+03</pdfrwt>
<pdfrwt beam="2">  1       21 0.41684035E-01 0.20232243E+03</pdfrwt>
<totfact> 0.87964673E+04</totfact>
</mgrwt>
</event>
<event>
 4    2  0.4063641E+000  0.2151203E+03  0.7546771E-02  0.1137574E+00
         21   -1    0    0  501  502  0.00000000000E+00  0.00000000000E+00  0.15794146976E+03  0.15794146976E+03  0.00000000000E+00 0. -1.
         21   -1    0    0  502  503 -0.00000000000E+00 -0.00000000000E+00 -0.30054193489E+03  0.30054193489E+03  0.00000000000E+00 0. -1.
          6    1    1    2  501    0  0.11886860857E+03 -0.47095553439E+02 -0.34983803104E+02  0.21794633224E+03  0.17300000000E+03 0. -1.
         -6    1    1    2    0  503 -0.11886860857E+03  0.47095553439E+02 -0.10761666203E+03  0.24053707241E+03  0.17300000000E+03 0. -1.
<mgrwt>
<rscale>  2 0.21512029E+03</rscale>
<asrwt>0</asrwt>
<pdfrwt beam="1">  1       21 0.24298688E-01 0.21512029E+03</pdfrwt>
<pdfrwt beam="2">  1       21 0.46237220E-01 0.21512029E+03</pdfrwt>
<totfact> 0.70962163E+04</totfact>
</mgrwt>
</event>
<event>
 4    2  0.4063641E+000  0.1871846E+03  0.7546771E-02  0.1161025E+00
         21   -1    0    0  503  502  0.00000000000E+00  0.00000000000E+00  0.50372200079E+03  0.50372200079E+03  0.00000000000E+00 0. -1.
         21   -1    0    0  501  503 -0.00000000000E+00 -0.00000000000E+00 -0.11082741316E+03  0.11082741316E+03  0.00000000000E+00 0. -1.
          6    1    1    2  501    0  0.47384725560E+02 -0.53514174509E+02  0.89411777930E+01  0.18739803561E+03  0.17300000000E+03 0. -1.
         -6    1    1    2    0  502 -0.47384725560E+02  0.53514174509E+02  0.38395340984E+03  0.42715137834E+03  0.17300000000E+03 0. -1.
<mgrwt>
<rscale>  2 0.18718461E+03</rscale>
<asrwt>0</asrwt>
<pdfrwt beam="1">  1       21 0.77495691E-01 0.18718461E+03</pdfrwt>
<pdfrwt beam="2">  1       21 0.17050372E-01 0.18718461E+03</pdfrwt>
<totfact> 0.45967636E+04</totfact>
</mgrwt>
</event>
<event>
 4    2  0.4063641E+000  0.3284841E+03  0.7546771E-02  0.1071810E+00
         21   -1    0    0  501  502  0.00000000000E+00  0.00000000000E+00  0.25349527599E+03  0.25349527599E+03  0.00000000000E+00 0.  1.
         21   -1    0    0  502  503 -0.00000000000E+00 -0.00000000000E+00 -0.49867332349E+03  0.49867332349E+03  0.00000000000E+00 0. -1.
          6    1    1    2  501    0 -0.16061705211E+03 -0.22841842935E+03  0.21320562733E+02  0.32917530692E+03  0.17300000000E+03 0.  1.
         -6    1    1    2    0  503  0.16061705211E+03  0.22841842935E+03 -0.26649861023E+03  0.42299329256E+03  0.17300000000E+03 0. -1.
<mgrwt>
<rscale>  2 0.32848412E+03</rscale>
<asrwt>0</asrwt>
<pdfrwt beam="1">  1       21 0.38999274E-01 0.32848412E+03</pdfrwt>
<pdfrwt beam="2">  1       21 0.76718972E-01 0.32848412E+03</pdfrwt>
<totfact> 0.88938136E+03</totfact>
</mgrwt>
</event>
<event>
 4    2  0.4063641E+000  0.1830375E+03  0.7546771E-02  0.1164895E+00
         21   -1    0    0  503  502  0.00000000000E+00  0.00000000000E+00  0.63046460086E+02  0.63046460086E+02  0.00000000000E+00 0.  1.
         21   -1    0    0  501  503 -0.00000000000E+00 -0.00000000000E+00 -0.97899210715E+03  0.97899210715E+03  0.00000000000E+00 0. -1.
          6    1    1    2  501    0  0.10791921511E+01  0.59770893789E+02 -0.81026798439E+03  0.83068461580E+03  0.17300000000E+03 0. -1.
         -6    1    1    2    0  502 -0.10791921511E+01 -0.59770893789E+02 -0.10567766268E+03  0.21135395144E+03  0.17300000000E+03 0.  1.
<mgrwt>
<rscale>  2 0.18303749E+03</rscale>
<asrwt>0</asrwt>
<pdfrwt beam="1">  1       21 0.96994557E-02 0.18303749E+03</pdfrwt>
<pdfrwt beam="2">  1       21 0.15061417E+00 0.18303749E+03</pdfrwt>
<totfact> 0.25479812E+04</totfact>
</mgrwt>
</event>
<event>
 4    2  0.4063641E+000  0.2161620E+03  0.7546771E-02  0.1136777E+00
         21   -1    0    0  503  502  0.00000000000E+00  0.00000000000E+00  0.11987794172E+03  0.11987794172E+03  0.00000000000E+00 0. -1.
         21   -1    0    0  501  503 -0.00000000000E+00 -0.00000000000E+00 -0.20715523029E+04  0.20715523029E+04  0.00000000000E+00 0.  1.
          6    1    1    2  501    0  0.61540215103E+02  0.11406050396E+03 -0.19631012501E+04  0.19749664592E+04  0.17300000000E+03 0.  1.
         -6    1    1    2    0  502 -0.61540215103E+02 -0.11406050396E+03  0.11426888890E+02  0.21646378549E+03  0.17300000000E+03 0. -1.
<mgrwt>
<rscale>  2 0.21616197E+03</rscale>
<asrwt>0</asrwt>
<pdfrwt beam="1">  1       21 0.18442761E-01 0.21616197E+03</pdfrwt>
<pdfrwt beam="2">  1       21 0.31870034E+00 0.21616197E+03</pdfrwt>
<totfact> 0.69218665E+02</totfact>
</mgrwt>
</event>
<event>
 4    2  0.4063641E+000  0.3058345E+03  0.7546771E-02  0.1082360E+00
         21   -1    0    0  501  502  0.00000000000E+00  0.00000000000E+00  0.16289973015E+03  0.16289973015E+03  0.00000000000E+00 0.  1.
         21   -1    0    0  502  503 -0.00000000000E+00 -0.00000000000E+00 -0.63793617406E+03  0.63793617406E+03  0.00000000000E+00 0. -1.
          6    1    1    2  501    0  0.19073236817E+03  0.16500576949E+03 -0.11093804422E+03  0.32533365932E+03  0.17300000000E+03 0.  1.
         -6    1    1    2    0  503 -0.19073236817E+03 -0.16500576949E+03 -0.36409839969E+03  0.47550224488E+03  0.17300000000E+03 0. -1.
<mgrwt>
<rscale>  2 0.30583450E+03</rscale>
<asrwt>0</asrwt>
<pdfrwt beam="1">  1       21 0.25061497E-01 0.30583450E+03</pdfrwt>
<pdfrwt beam="2">  1       21 0.98144026E-01 0.30583450E+03</pdfrwt>
<totfact> 0.12156122E+04</totfact>
</mgrwt>
</event>
<event>
 4    2  0.4063641E+000  0.2372301E+03  0.7546771E-02  0.1121652E+00
         21   -1    0    0  501  502  0.00000000000E+00  0.00000000000E+00  0.40462050738E+03  0.40462050738E+03  0.00000000000E+00 0.  1.
         21   -1    0    0  502  503 -0.00000000000E+00 -0.00000000000E+00 -0.14416875134E+03  0.14416875134E+03  0.00000000000E+00 0. -1.
          6    1    1    2  501    0 -0.14575513114E+03 -0.71446233544E+02  0.78717725628E+02  0.24994920058E+03  0.17300000000E+03 0. -1.
         -6    1    1    2    0  503  0.14575513114E+03  0.71446233544E+02  0.18173403041E+03  0.29884005814E+03  0.17300000000E+03 0.  1.
<mgrwt>
<rscale>  2 0.23723010E+03</rscale>
<asrwt>0</asrwt>
<pdfrwt beam="1">  1       21 0.62249308E-01 0.23723010E+03</pdfrwt>
<pdfrwt beam="2">  1       21 0.22179808E-01 0.23723010E+03</pdfrwt>
<totfact> 0.44552635E+04</totfact>
</mgrwt>
</event>
<event>
 4    2  0.4063641E+000  0.2239508E+03  0.7546771E-02  0.1130971E+00
         21   -1    0    0  501  502  0.00000000000E+00  0.00000000000E+00  0.37466714585E+02  0.37466714585E+02  0.00000000000E+00 0. -1.
         21   -1    0    0  502  503 -0.00000000000E+00 -0.00000000000E+00 -0.13413519533E+04  0.13413519533E+04  0.00000000000E+00 0. -1.
          6    1    1    2  501    0 -0.54773552057E+02  0.13124342767E+03 -0.68301218576E+03  0.71879039032E+03  0.17300000000E+03 0. -1.
         -6    1    1    2    0  503  0.54773552057E+02 -0.13124342767E+03 -0.62087305297E+03  0.66002827758E+03  0.17300000000E+03 0. -1.
<mgrwt>
<rscale>  2 0.22395084E+03</rscale>
<asrwt>0</asrwt>
<pdfrwt beam="1">  1       21 0.57641091E-02 0.22395084E+03</pdfrwt>
<pdfrwt beam="2">  1       21 0.20636187E+00 0.22395084E+03</pdfrwt>
<totfact> 0.25258411E+04</totfact>
</mgrwt>
</event>
<event>
 4    2  0.4063641E+000  0.2335516E+03  0.7546771E-02  0.1124165E+00
         21   -1    0    0  503  502  0.00000000000E+00  0.00000000000E+00  0.11230714389E+04  0.11230714389E+04  0.00000000000E+00 0. -1.
         21   -1    0    0  501  503 -0.00000000000E+00 -0.00000000000E+00 -0.50213882031E+02  0.50213882031E+02  0.00000000000E+00 0.  1.
          6    1    1    2  501    0  0.12299488932E+03 -0.97414670369E+02  0.64260820965E+03  0.68373362643E+03  0.17300000000E+03 0.  1.
         -6    1    1    2    0  502 -0.12299488932E+03  0.97414670369E+02  0.43024934720E+03  0.48955169448E+03  0.17300000000E+03 0.  1.
<mgrwt>
<rscale>  2 0.23355162E+03</rscale>
<asrwt>0</asrwt>
<pdfrwt beam="1">  1       21 0.17278020E+00 0.23355162E+03</pdfrwt>
<pdfrwt beam="2">  1       21 0.77252135E-02 0.23355162E+03</pdfrwt>
<totfact> 0.25343954E+04</totfact>
</mgrwt>
</event>
<event>
 4    2  0.4063641E+000  0.1992572E+03  0.7546771E-02  0.1150367E+00
         21   -1    0    0  503  502  0.00000000000E+00  0.00000000000E+00  0.37199346577E+03  0.37199346577E+03  0.00000000000E+00 0. -1.
         21   -1    0    0  501  503 -0.00000000000E+00 -0.00000000000E+00 -0.11261294259E+03  0.11261294259E+03  0.00000000000E+00 0. -1.
          6    1    1    2  501    0 -0.64823841727E+01  0.98653055360E+02  0.74316458770E+02  0.21266495405E+03  0.17300000000E+03 0. -1.
         -6    1    1    2    0  502  0.64823841727E+01 -0.98653055360E+02  0.18506406441E+03  0.27194145431E+03  0.17300000000E+03 0. -1.
<mgrwt>
<rscale>  2 0.19925724E+03</rscale>
<asrwt>0</asrwt>
<pdfrwt beam="1">  1       21 0.57229763E-01 0.19925724E+03</pdfrwt>
<pdfrwt beam="2">  1       21 0.17325068E-01 0.19925724E+03</pdfrwt>
<totfact> 0.86131171E+04</totfact>
</mgrwt>
</event>
<event>
 4    2  0.4063641E+000  0.2291658E+03  0.7546771E-02  0.1127228E+00
         21   -1    0    0  501  502  0.00000000000E+00  0.00000000000E+00  0.71142896003E+03  0.71142896003E+03  0.00000000000E+00 0.  1.
         21   -1    0    0  502  503 -0.00000000000E+00 -0.00000000000E+00 -0.10404614535E+03  0.10404614535E+03  0.00000000000E+00 0.  1.
          6    1    1    2  501    0  0.11164587397E+03 -0.10061388397E+03  0.52346043116E+03  0.57142609129E+03  0.17300000000E+03 0.  1.
         -6    1    1    2    0  503 -0.11164587397E+03  0.10061388397E+03  0.83922383527E+02  0.24404901409E+03  0.17300000000E+03 0.  1.
<mgrwt>
<rscale>  2 0.22916578E+03</rscale>
<asrwt>0</asrwt>
<pdfrwt beam="1">  1       21 0.10945061E+00 0.22916578E+03</pdfrwt>
<pdfrwt beam="2">  1       21 0.16007100E-01 0.22916578E+03</pdfrwt>
<totfact> 0.22544556E+04</totfact>
</mgrwt>
</event>
<event>
 4    2  0.4063641E+000  0.1796650E+03  0.7546771E-02  0.1168128E+00
         21   -1    0    0  503  502  0.00000000000E+00  0.00000000000E+00  0.12622118536E+03  0.12622118536E+03  0.00000000000E+00 0.  1.
         21   -1    0    0  501  503 -0.00000000000E+00 -0.00000000000E+00 -0.28656384616E+03  0.28656384616E+03  0.00000000000E+00 0.  1.
          6    1    1    2  501    0  0.48429441779E+02  0.22606392361E+01 -0.12478519964E+02  0.18009784780E+03  0.17300000000E+03 0.  1.
         -6    1    1    2    0  502 -0.48429441779E+02 -0.22606392361E+01 -0.14786414084E+03  0.23268718372E+03  0.17300000000E+03 0.  1.
<mgrwt>
<rscale>  2 0.17966503E+03</rscale>
<asrwt>0</asrwt>
<pdfrwt beam="1">  1       21 0.19418644E-01 0.17966503E+03</pdfrwt>
<pdfrwt beam="2">  1       21 0.44086745E-01 0.17966503E+03</pdfrwt>
<totfact> 0.12108502E+05</totfact>
</mgrwt>
</event>
<event>
 4    2  0.4063641E+000  0.1957974E+03  0.7546771E-02  0.1153334E+00
         21   -1    0    0  503  502  0.00000000000E+00  0.00000000000E+00  0.26129290136E+03  0.26129290136E+03  0.00000000000E+00 0.  1.
         21   -1    0    0  501  503 -0.00000000000E+00 -0.00000000000E+00 -0.15856812518E+03  0.15856812518E+03  0.00000000000E+00 0.  1.
          6    1    1    2  501    0  0.67772826694E+02 -0.61761216985E+02 -0.60245186216E+01  0.19589001707E+03  0.17300000000E+03 0.  1.
         -6    1    1    2    0  502 -0.67772826694E+02  0.61761216985E+02  0.10874929480E+03  0.22397100947E+03  0.17300000000E+03 0.  1.
<mgrwt>
<rscale>  2 0.19579735E+03</rscale>
<asrwt>0</asrwt>
<pdfrwt beam="1">  1       21 0.40198908E-01 0.19579735E+03</pdfrwt>
<pdfrwt beam="2">  1       21 0.24395096E-01 0.19579735E+03</pdfrwt>
<totfact> 0.94526944E+04</totfact>
</mgrwt>
</event>
<event>
 4    2  0.4063641E+000  0.2008658E+03  0.7546771E-02  0.1149011E+00
         21   -1    0    0  503  502  0.00000000000E+00  0.00000000000E+00  0.48737013988E+03  0.48737013988E+03  0.00000000000E+00 0.  1.
         21   -1    0    0  501  503 -0.00000000000E+00 -0.00000000000E+00 -0.86555418929E+02  0.86555418929E+02  0.00000000000E+00 0. -1.
          6    1    1    2  501    0 -0.89361522172E+02 -0.49321261225E+02  0.26029782912E+03  0.32878872897E+03  0.17300000000E+03 0.  1.
         -6    1    1    2    0  502  0.89361522172E+02  0.49321261225E+02  0.14051689183E+03  0.24513682984E+03  0.17300000000E+03 0. -1.
<mgrwt>
<rscale>  2 0.20086580E+03</rscale>
<asrwt>0</asrwt>
<pdfrwt beam="1">  1       21 0.74980020E-01 0.20086580E+03</pdfrwt>
<pdfrwt beam="2">  1       21 0.13316219E-01 0.20086580E+03</pdfrwt>
<totfact> 0.77154131E+04</totfact>
</mgrwt>
</event>
<event>
 4    2  0.4063641E+000  0.1733895E+03  0.7546771E-02  0.1174358E+00
         21   -1    0    0  501  502  0.00000000000E+00  0.00000000000E+00  0.11675764492E+04  0.11675764492E+04  0.00000000000E+00 0.  1.
         21   -1    0    0  502  503 -0.00000000000E+00 -0.00000000000E+00 -0.85846320551E+02  0.85846320551E+02  0.00000000000E+00 0.  1.
          6    1    1    2  501    0 -0.17929510358E+01 -0.11476888514E+02  0.10652307603E+04  0.10792499740E+04  0.17300000000E+03 0.  1.
         -6    1    1    2    0  503  0.17929510358E+01  0.11476888514E+02  0.16499368388E+02  0.17417279581E+03  0.17300000000E+03 0.  1.
<mgrwt>
<rscale>  2 0.17338954E+03</rscale>
<asrwt>0</asrwt>
<pdfrwt beam="1">  1       21 0.17962713E+00 0.17338954E+03</pdfrwt>
<pdfrwt beam="2">  1       21 0.13207127E-01 0.17338954E+03</pdfrwt>
<totfact> 0.91901127E+03</totfact>
</mgrwt>
</event>
<event>
 4    2  0.4063641E+000  0.2261685E+03  0.7546771E-02  0.1129366E+00
         21   -1    0    0  501  502  0.00000000000E+00  0.00000000000E+00  0.25204050793E+04  0.25204050793E+04  0.00000000000E+00 0.  1.
         21   -1    0    0  502  503 -0.00000000000E+00 -0.00000000000E+00 -0.28385481548E+02  0.28385481548E+02  0.00000000000E+00 0. -1.
          6    1    1    2  501    0  0.70931694151E+02  0.12724727963E+03  0.19263674985E+04  0.19395989056E+04  0.17300000000E+03 0.  1.
         -6    1    1    2    0  503 -0.70931694151E+02 -0.12724727963E+03  0.56565209922E+03  0.60919165520E+03  0.17300000000E+03 0. -1.
<mgrwt>
<rscale>  2 0.22616847E+03</rscale>
<asrwt>0</asrwt>
<pdfrwt beam="1">  1       21 0.38775445E+00 0.22616847E+03</pdfrwt>
<pdfrwt beam="2">  1       21 0.43669991E-02 0.22616847E+03</pdfrwt>
<totfact> 0.33577854E+03</totfact>
</mgrwt>
</event>
<event>
 4    2  0.4063641E+000  0.2231054E+03  0.7546771E-02  0.1131589E+00
         21   -1    0    0  503  502  0.00000000000E+00  0.00000000000E+00  0.79859245215E+02  0.79859245215E+02  0.00000000000E+00 0.  1.
         21   -1    0    0  501  503 -0.00000000000E+00 -0.00000000000E+00 -0.65323188267E+03  0.65323188267E+03  0.00000000000E+00 0.  1.
          6    1    1    2  501    0  0.92180139669E+02 -0.10653571095E+03 -0.36515246877E+03  0.42791630175E+03  0.17300000000E+03 0.  1.
         -6    1    1    2    0  502 -0.92180139669E+02  0.10653571095E+03 -0.20822016869E+03  0.30517482613E+03  0.17300000000E+03 0.  1.
<mgrwt>
<rscale>  2 0.22310544E+03</rscale>
<asrwt>0</asrwt>
<pdfrwt beam="1">  1       21 0.12286038E-01 0.22310544E+03</pdfrwt>
<pdfrwt beam="2">  1       21 0.10049721E+00 0.22310544E+03</pdfrwt>
<totfact> 0.44944266E+04</totfact>
</mgrwt>
</event>
<event>
 4    2  0.4063641E+000  0.1732059E+03  0.7546771E-02  0.1174545E+00
         21   -1    0    0  501  502  0.00000000000E+00  0.00000000000E+00  0.61489792139E+02  0.61489792139E+02  0.00000000000E+00 0.  1.
         21   -1    0    0  502  503 -0.00000000000E+00 -0.00000000000E+00 -0.54762159334E+03  0.54762159334E+03  0.00000000000E+00 0.  1.
          6    1    1    2  501    0  0.52102118836E+01  0.66429128332E+01 -0.14248226896E+03  0.22427989559E+03  0.17300000000E+03 0.  1.
         -6    1    1    2    0  503 -0.52102118836E+01 -0.66429128332E+01 -0.34364953224E+03  0.38483148989E+03  0.17300000000E+03 0.  1.
<mgrwt>
<rscale>  2 0.17320587E+03</rscale>
<asrwt>0</asrwt>
<pdfrwt beam="1">  1       21 0.94599683E-02 0.17320587E+03</pdfrwt>
<pdfrwt beam="2">  1       21 0.84249474E-01 0.17320587E+03</pdfrwt>
<totfact> 0.11026149E+05</totfact>
</mgrwt>
</event>
<event>
 4    2  0.4063641E+000  0.2263096E+03  0.7546771E-02  0.1129265E+00
         21   -1    0    0  501  502  0.00000000000E+00  0.00000000000E+00  0.27976362166E+03  0.27976362166E+03  0.00000000000E+00 0.  1.
         21   -1    0    0  502  503 -0.00000000000E+00 -0.00000000000E+00 -0.18338709933E+03  0.18338709933E+03  0.00000000000E+00 0. -1.
          6    1    1    2  501    0  0.12863668582E+03  0.68844927456E+02  0.57834355339E+02  0.23358260558E+03  0.17300000000E+03 0. -1.
         -6    1    1    2    0  503 -0.12863668582E+03 -0.68844927456E+02  0.38542166997E+02  0.22956811541E+03  0.17300000000E+03 0.  1.
<mgrwt>
<rscale>  2 0.22630957E+03</rscale>
<asrwt>0</asrwt>
<pdfrwt beam="1">  1       21 0.43040557E-01 0.22630957E+03</pdfrwt>
<pdfrwt beam="2">  1       21 0.28213400E-01 0.22630957E+03</pdfrwt>
<totfact> 0.61397278E+04</totfact>
</mgrwt>
</event>
<event>
 4    2  0.4063641E+000  0.1869543E+03  0.7546771E-02  0.1161237E+00
         21   -1    0    0  503  502  0.00000000000E+00  0.00000000000E+00  0.22721412487E+03  0.22721412487E+03  0.00000000000E+00 0. -1.
         21   -1    0    0  501  503 -0.00000000000E+00 -0.00000000000E+00 -0.17861234769E+03  0.17861234769E+03  0.00000000000E+00 0. -1.
          6    1    1    2  501    0  0.70713253999E+02  0.47484850221E+01 -0.51285342415E+02  0.19386102947E+03  0.17300000000E+03 0. -1.
         -6    1    1    2    0  502 -0.70713253999E+02 -0.47484850221E+01  0.99887119599E+02  0.21196544309E+03  0.17300000000E+03 0. -1.
<mgrwt>
<rscale>  2 0.18695431E+03</rscale>
<asrwt>0</asrwt>
<pdfrwt beam="1">  1       21 0.34956019E-01 0.18695431E+03</pdfrwt>
<pdfrwt beam="2">  1       21 0.27478823E-01 0.18695431E+03</pdfrwt>
<totfact> 0.99882424E+04</totfact>
</mgrwt>
</event>
<event>
 4    2  0.4063641E+000  0.1929216E+03  0.7546771E-02  0.1155852E+00
         21   -1    0    0  501  502  0.00000000000E+00  0.00000000000E+00  0.92708609231E+02  0.92708609231E+02  0.00000000000E+00 0.  1.
         21   -1    0    0  502  503 -0.00000000000E+00 -0.00000000000E+00 -0.62566376826E+03  0.62566376826E+03  0.00000000000E+00 0.  1.
          6    1    1    2  501    0 -0.22773859853E+02  0.82286759170E+02 -0.51461476911E+02  0.19966733091E+03  0.17300000000E+03 0.  1.
         -6    1    1    2    0  503  0.22773859853E+02 -0.82286759170E+02 -0.48149368212E+03  0.51870504658E+03  0.17300000000E+03 0.  1.
<mgrwt>
<rscale>  2 0.19292164E+03</rscale>
<asrwt>0</asrwt>
<pdfrwt beam="1">  1       21 0.14262864E-01 0.19292164E+03</pdfrwt>
<pdfrwt beam="2">  1       21 0.96255959E-01 0.19292164E+03</pdfrwt>
<totfact> 0.38613199E+04</totfact>
</mgrwt>
</event>
<event>
 4    2  0.4063641E+000  0.2344858E+03  0.7546771E-02  0.1123522E+00
         21   -1    0    0  501  502  0.00000000000E+00  0.00000000000E+00  0.14518342644E+03  0.14518342644E+03  0.00000000000E+00 0.  1.
         21   -1    0    0  502  503 -0.00000000000E+00 -0.00000000000E+00 -0.38216673825E+03  0.38216673825E+03  0.00000000000E+00 0.  1.
          6    1    1    2  501    0 -0.70667928863E+02  0.14163565012E+03 -0.14353872211E+03  0.27493086095E+03  0.17300000000E+03 0. -1.
         -6    1    1    2    0  503  0.70667928863E+02 -0.14163565012E+03 -0.93444589702E+02  0.25241930374E+03  0.17300000000E+03 0. -1.
<mgrwt>
<rscale>  2 0.23448585E+03</rscale>
<asrwt>0</asrwt>
<pdfrwt beam="1">  1       21 0.22335912E-01 0.23448585E+03</pdfrwt>
<pdfrwt beam="2">  1       21 0.58794882E-01 0.23448585E+03</pdfrwt>
<totfact> 0.49796231E+04</totfact>
</mgrwt>
</event>
<event>
 4    2  0.4063641E+000  0.2531480E+03  0.7546771E-02  0.1111331E+00
         21   -1    0    0  501  502  0.00000000000E+00  0.00000000000E+00  0.66883126956E+03  0.66883126956E+03  0.00000000000E+00 0.  1.
         21   -1    0    0  502  503 -0.00000000000E+00 -0.00000000000E+00 -0.95822985398E+02  0.95822985398E+02  0.00000000000E+00 0.  1.
          6    1    1    2  501    0  0.12257522979E+03  0.13831209234E+03  0.28296649316E+03  0.37967612263E+03  0.17300000000E+03 0.  1.
         -6    1    1    2    0  503 -0.12257522979E+03 -0.13831209234E+03  0.29004179100E+03  0.38497813233E+03  0.17300000000E+03 0.  1.
<mgrwt>
<rscale>  2 0.25314802E+03</rscale>
<asrwt>0</asrwt>
<pdfrwt beam="1">  1       21 0.10289712E+00 0.25314802E+03</pdfrwt>
<pdfrwt beam="2">  1       21 0.14741998E-01 0.25314802E+03</pdfrwt>
<totfact> 0.30089099E+04</totfact>
</mgrwt>
</event>
<event>
 4    2  0.4063641E+000  0.1825335E+03  0.7546771E-02  0.1165373E+00
         21   -1    0    0  503  502  0.00000000000E+00  0.00000000000E+00  0.93478208879E+02  0.93478208879E+02  0.00000000000E+00 0. -1.
         21   -1    0    0  501  503 -0.00000000000E+00 -0.00000000000E+00 -0.37558113632E+03  0.37558113632E+03  0.00000000000E+00 0. -1.
          6    1    1    2  501    0 -0.16687357112E+02  0.55776315563E+02 -0.19401047605E+03  0.26638042361E+03  0.17300000000E+03 0.  1.
         -6    1    1    2    0  502  0.16687357112E+02 -0.55776315563E+02 -0.88092451393E+02  0.20267892159E+03  0.17300000000E+03 0.  1.
<mgrwt>
<rscale>  2 0.18253346E+03</rscale>
<asrwt>0</asrwt>
<pdfrwt beam="1">  1       21 0.14381263E-01 0.18253346E+03</pdfrwt>
<pdfrwt beam="2">  1       21 0.57781713E-01 0.18253346E+03</pdfrwt>
<totfact> 0.11938491E+05</totfact>
</mgrwt>
</event>
<event>
 4    2  0.4063641E+000  0.1731308E+03  0.7546771E-02  0.1174622E+00
         21   -1    0    0  501  502  0.00000000000E+00  0.00000000000E+00  0.40401549419E+03  0.40401549419E+03  0.00000000000E+00 0. -1.
         21   -1    0    0  502  503 -0.00000000000E+00 -0.00000000000E+00 -0.13951728230E+03  0.13951728230E+03  0.00000000000E+00 0. -1.
          6    1    1    2  501    0  0.51913962729E+01 -0.42800417882E+01  0.31821190475E+03  0.36226107392E+03  0.17300000000E+03 0. -1.
         -6    1    1    2    0  503 -0.51913962729E+01  0.42800417882E+01 -0.53713692856E+02  0.18127170257E+03  0.17300000000E+03 0. -1.
<mgrwt>
<rscale>  2 0.17313079E+03</rscale>
<asrwt>0</asrwt>
<pdfrwt beam="1">  1       21 0.62156229E-01 0.17313079E+03</pdfrwt>
<pdfrwt beam="2">  1       21 0.21464197E-01 0.17313079E+03</pdfrwt>
<totfact> 0.49020633E+04</totfact>
</mgrwt>
</event>
<event>
 4    2  0.4063641E+000  0.1919178E+03  0.7546771E-02  0.1156743E+00
         21   -1    0    0  503  502  0.00000000000E+00  0.00000000000E+00  0.15128469763E+03  0.15128469763E+03  0.00000000000E+00 0.  1.
         21   -1    0    0  501  503 -0.00000000000E+00 -0.00000000000E+00 -0.52154149662E+03  0.52154149662E+03  0.00000000000E+00 0. -1.
          6    1    1    2  501    0  0.78807037440E+02  0.26322516481E+02 -0.43077521805E+03  0.47159274009E+03  0.17300000000E+03 0. -1.
         -6    1    1    2    0  502 -0.78807037440E+02 -0.26322516481E+02  0.60518419063E+02  0.20123345415E+03  0.17300000000E+03 0.  1.
<mgrwt>
<rscale>  2 0.19191775E+03</rscale>
<asrwt>0</asrwt>
<pdfrwt beam="1">  1       21 0.23274569E-01 0.19191775E+03</pdfrwt>
<pdfrwt beam="2">  1       21 0.80237154E-01 0.19191775E+03</pdfrwt>
<totfact> 0.23719885E+04</totfact>
</mgrwt>
</event>
<event>
 4    2  0.4063641E+000  0.1859445E+03  0.7546771E-02  0.1162171E+00
         21   -1    0    0  503  502  0.00000000000E+00  0.00000000000E+00  0.43016236294E+02  0.43016236294E+02  0.00000000000E+00 0. -1.
         21   -1    0    0  501  503 -0.00000000000E+00 -0.00000000000E+00 -0.82784674733E+03  0.82784674733E+03  0.00000000000E+00 0. -1.
          6    1    1    2  501    0  0.44723445587E+02  0.51440803724E+02 -0.46666679732E+03  0.50234773075E+03  0.17300000000E+03 0. -1.
         -6    1    1    2    0  502 -0.44723445587E+02 -0.51440803724E+02 -0.31816371372E+03  0.36851525287E+03  0.17300000000E+03 0. -1.
<mgrwt>
<rscale>  2 0.18594446E+03</rscale>
<asrwt>0</asrwt>
<pdfrwt beam="1">  1       21 0.66178825E-02 0.18594446E+03</pdfrwt>
<pdfrwt beam="2">  1       21 0.12736104E+00 0.18594446E+03</pdfrwt>
<totfact> 0.76089139E+04</totfact>
</mgrwt>
</event>
<event>
 4    2  0.4063641E+000  0.2214999E+03  0.7546771E-02  0.1132770E+00
         21   -1    0    0  501  502  0.00000000000E+00  0.00000000000E+00  0.18235696314E+04  0.18235696314E+04  0.00000000000E+00 0.  1.
         21   -1    0    0  502  503 -0.00000000000E+00 -0.00000000000E+00 -0.23158324166E+03  0.23158324166E+03  0.00000000000E+00 0. -1.
          6    1    1    2  501    0 -0.13613999163E+03  0.24476976494E+02  0.17620372829E+04  0.17759047289E+04  0.17300000000E+03 0.  1.
         -6    1    1    2    0  503  0.13613999163E+03 -0.24476976494E+02 -0.17005089324E+03  0.27924814411E+03  0.17300000000E+03 0. -1.
<mgrwt>
<rscale>  2 0.22149993E+03</rscale>
<asrwt>0</asrwt>
<pdfrwt beam="1">  1       21 0.28054916E+00 0.22149993E+03</pdfrwt>
<pdfrwt beam="2">  1       21 0.35628192E-01 0.22149993E+03</pdfrwt>
<totfact> 0.32265189E+02</totfact>
</mgrwt>
</event>
<event>
 4    2  0.4063641E+000  0.1811896E+03  0.7546771E-02  0.1166657E+00
         21   -1    0    0  501  502  0.00000000000E+00  0.00000000000E+00  0.44635433228E+02  0.44635433228E+02  0.00000000000E+00 0.  1.
         21   -1    0    0  502  503 -0.00000000000E+00 -0.00000000000E+00 -0.73566716537E+03  0.73566716537E+03  0.00000000000E+00 0. -1.
          6    1    1    2  501    0  0.31521069748E+01 -0.53765524786E+02 -0.33975664828E+03  0.38505096739E+03  0.17300000000E+03 0.  1.
         -6    1    1    2    0  503 -0.31521069748E+01  0.53765524786E+02 -0.35127508386E+03  0.39525163121E+03  0.17300000000E+03 0. -1.
<mgrwt>
<rscale>  2 0.18118959E+03</rscale>
<asrwt>0</asrwt>
<pdfrwt beam="1">  1       21 0.68669897E-02 0.18118959E+03</pdfrwt>
<pdfrwt beam="2">  1       21 0.11317956E+00 0.18118959E+03</pdfrwt>
<totfact> 0.95769337E+04</totfact>
</mgrwt>
</event>
<event>
 4    2  0.4063641E+000  0.1875659E+03  0.7546771E-02  0.1160675E+00
         21   -1    0    0  501  502  0.00000000000E+00  0.00000000000E+00  0.57803413595E+03  0.57803413595E+03  0.00000000000E+00 0. -1.
         21   -1    0    0  502  503 -0.00000000000E+00 -0.00000000000E+00 -0.10370992791E+03  0.10370992791E+03  0.00000000000E+00 0.  1.
          6    1    1    2  501    0  0.57392140576E+02  0.44250377066E+02  0.45626115862E+03  0.49331044843E+03  0.17300000000E+03 0. -1.
         -6    1    1    2    0  503 -0.57392140576E+02 -0.44250377066E+02  0.18063049427E+02  0.18843361543E+03  0.17300000000E+03 0.  1.
<mgrwt>
<rscale>  2 0.18756586E+03</rscale>
<asrwt>0</asrwt>
<pdfrwt beam="1">  1       21 0.88928327E-01 0.18756586E+03</pdfrwt>
<pdfrwt beam="2">  1       21 0.15955374E-01 0.18756586E+03</pdfrwt>
<totfact> 0.37954356E+04</totfact>
</mgrwt>
</event>
<event>
 4    2  0.4063641E+000  0.1801668E+03  0.7546771E-02  0.1167642E+00
         21   -1    0    0  503  502  0.00000000000E+00  0.00000000000E+00  0.21880573981E+03  0.21880573981E+03  0.00000000000E+00 0. -1.
         21   -1    0    0  501  503 -0.00000000000E+00 -0.00000000000E+00 -0.16252785962E+03  0.16252785962E+03  0.00000000000E+00 0. -1.
          6    1    1    2  501    0  0.36918590553E+01  0.50174269521E+02 -0.28172756174E+02  0.18235622100E+03  0.17300000000E+03 0. -1.
         -6    1    1    2    0  502 -0.36918590553E+01 -0.50174269521E+02  0.84450636362E+02  0.19897737843E+03  0.17300000000E+03 0. -1.
<mgrwt>
<rscale>  2 0.18016683E+03</rscale>
<asrwt>0</asrwt>
<pdfrwt beam="1">  1       21 0.33662422E-01 0.18016683E+03</pdfrwt>
<pdfrwt beam="2">  1       21 0.25004286E-01 0.18016683E+03</pdfrwt>
<totfact> 0.12926349E+05</totfact>
</mgrwt>
</event>
<event>
 4    2  0.4063641E+000  0.3262387E+03  0.7546771E-02  0.1072813E+00
         21   -1    0    0  503  502  0.00000000000E+00  0.00000000000E+00  0.39265719370E+03  0.39265719370E+03  0.00000000000E+00 0.  1.
         21   -1    0    0  501  503 -0.00000000000E+00 -0.00000000000E+00 -0.31573831882E+03  0.31573831882E+03  0.00000000000E+00 0. -1.
          6    1    1    2  501    0  0.26857125092E+03 -0.66122402693E+02 -0.94786799745E+02  0.33972963716E+03  0.17300000000E+03 0.  1.
         -6    1    1    2    0  502 -0.26857125092E+03  0.66122402693E+02  0.17170567462E+03  0.36866587536E+03  0.17300000000E+03 0. -1.
<mgrwt>
<rscale>  2 0.32623870E+03</rscale>
<asrwt>0</asrwt>
<pdfrwt beam="1">  1       21 0.60408799E-01 0.32623870E+03</pdfrwt>
<pdfrwt beam="2">  1       21 0.48575126E-01 0.32623870E+03</pdfrwt>
<totfact> 0.96154030E+03</totfact>
</mgrwt>
</event>
<event>
 4    2  0.4063641E+000  0.4821252E+03  0.7546771E-02  0.1018553E+00
         21   -1    0    0  501  502  0.00000000000E+00  0.00000000000E+00  0.54481897858E+03  0.54481897858E+03  0.00000000000E+00 0. -1.
         21   -1    0    0  502  503 -0.00000000000E+00 -0.00000000000E+00 -0.43136076346E+03  0.43136076346E+03  0.00000000000E+00 0.  1.
          6    1    1    2  501    0 -0.21467611990E+03  0.39551221597E+03  0.10775809033E+03  0.49402080469E+03  0.17300000000E+03 0.  1.
         -6    1    1    2    0  503  0.21467611990E+03 -0.39551221597E+03  0.57001247916E+01  0.48215893734E+03  0.17300000000E+03 0. -1.
<mgrwt>
<rscale>  2 0.48212524E+03</rscale>
<asrwt>0</asrwt>
<pdfrwt beam="1">  1       21 0.83818305E-01 0.48212524E+03</pdfrwt>
<pdfrwt beam="2">  1       21 0.66363194E-01 0.48212524E+03</pdfrwt>
<totfact> 0.22045906E+03</totfact>
</mgrwt>
</event>
<event>
 4    2  0.4063641E+000  0.1962103E+03  0.7546771E-02  0.1152976E+00
         21   -1    0    0  501  502  0.00000000000E+00  0.00000000000E+00  0.19394775498E+03  0.19394775498E+03  0.00000000000E+00 0.  1.
         21   -1    0    0  502  503 -0.00000000000E+00 -0.00000000000E+00 -0.29680189916E+03  0.29680189916E+03  0.00000000000E+00 0.  1.
          6    1    1    2  501    0  0.92372228268E+02 -0.60695380791E+01  0.89787483143E+02  0.21577826577E+03  0.17300000000E+03 0.  1.
         -6    1    1    2    0  503 -0.92372228268E+02  0.60695380791E+01 -0.19264162732E+03  0.27497138838E+03  0.17300000000E+03 0.  1.
<mgrwt>
<rscale>  2 0.19621026E+03</rscale>
<asrwt>0</asrwt>
<pdfrwt beam="1">  1       21 0.29838116E-01 0.19621026E+03</pdfrwt>
<pdfrwt beam="2">  1       21 0.45661831E-01 0.19621026E+03</pdfrwt>
<totfact> 0.49437526E+04</totfact>
</mgrwt>
</event>
<event>
 4    2  0.4063641E+000  0.2573068E+03  0.7546771E-02  0.1108772E+00
         21   -1    0    0  501  502  0.00000000000E+00  0.00000000000E+00  0.66419612741E+03  0.66419612741E+03  0.00000000000E+00 0.  1.
         21   -1    0    0  502  503 -0.00000000000E+00 -0.00000000000E+00 -0.11529376768E+03  0.11529376768E+03  0.00000000000E+00 0. -1.
          6    1    1    2  501    0  0.18446943359E+03  0.47421514914E+02  0.41788041215E+03  0.49074515877E+03  0.17300000000E+03 0. -1.
         -6    1    1    2    0  503 -0.18446943359E+03 -0.47421514914E+02  0.13102194758E+03  0.28874473632E+03  0.17300000000E+03 0.  1.
<mgrwt>
<rscale>  2 0.25730677E+03</rscale>
<asrwt>0</asrwt>
<pdfrwt beam="1">  1       21 0.10218402E+00 0.25730677E+03</pdfrwt>
<pdfrwt beam="2">  1       21 0.17737503E-01 0.25730677E+03</pdfrwt>
<totfact> 0.21711728E+04</totfact>
</mgrwt>
</event>
<event>
 4    2  0.4063641E+000  0.1998040E+03  0.7546771E-02  0.1149904E+00
         21   -1    0    0  501  502  0.00000000000E+00  0.00000000000E+00  0.23210906575E+03  0.23210906575E+03  0.00000000000E+00 0.  1.
         21   -1    0    0  502  503 -0.00000000000E+00 -0.00000000000E+00 -0.20668534271E+03  0.20668534271E+03  0.00000000000E+00 0. -1.
          6    1    1    2  501    0 -0.94397303411E+02 -0.32890710194E+02  0.10259519502E+03  0.22460503946E+03  0.17300000000E+03 0.  1.
         -6    1    1    2    0  503  0.94397303411E+02  0.32890710194E+02 -0.77171471979E+02  0.21418936901E+03  0.17300000000E+03 0. -1.
<mgrwt>
<rscale>  2 0.19980403E+03</rscale>
<asrwt>0</asrwt>
<pdfrwt beam="1">  1       21 0.35709087E-01 0.19980403E+03</pdfrwt>
<pdfrwt beam="2">  1       21 0.31797745E-01 0.19980403E+03</pdfrwt>
<totfact> 0.71685368E+04</totfact>
</mgrwt>
</event>
<event>
 4    2  0.4063641E+000  0.1901857E+03  0.7546771E-02  0.1158294E+00
         21   -1    0    0  501  502  0.00000000000E+00  0.00000000000E+00  0.22465804949E+03  0.22465804949E+03  0.00000000000E+00 0.  1.
         21   -1    0    0  502  503 -0.00000000000E+00 -0.00000000000E+00 -0.73169018345E+03  0.73169018345E+03  0.00000000000E+00 0. -1.
          6    1    1    2  501    0 -0.69692738659E+02 -0.37209347654E+02  0.16878436007E+03  0.25428089503E+03  0.17300000000E+03 0.  1.
         -6    1    1    2    0  503  0.69692738659E+02  0.37209347654E+02 -0.67581649402E+03  0.70206733792E+03  0.17300000000E+03 0. -1.
<mgrwt>
<rscale>  2 0.19018573E+03</rscale>
<asrwt>0</asrwt>
<pdfrwt beam="1">  1       21 0.34562776E-01 0.19018573E+03</pdfrwt>
<pdfrwt beam="2">  1       21 0.11256772E+00 0.19018573E+03</pdfrwt>
<totfact> 0.49925961E+03</totfact>
</mgrwt>
</event>
<event>
 4    2  0.4063641E+000  0.2118657E+03  0.7546771E-02  0.1140097E+00
         21   -1    0    0  501  502  0.00000000000E+00  0.00000000000E+00  0.14691401213E+03  0.14691401213E+03  0.00000000000E+00 0.  1.
         21   -1    0    0  502  503 -0.00000000000E+00 -0.00000000000E+00 -0.88527624038E+03  0.88527624038E+03  0.00000000000E+00 0.  1.
          6    1    1    2  501    0 -0.63615576995E+02  0.10445629080E+03  0.48464815149E+02  0.21733820794E+03  0.17300000000E+03 0.  1.
         -6    1    1    2    0  503  0.63615576995E+02 -0.10445629080E+03 -0.78682704339E+03  0.81485204457E+03  0.17300000000E+03 0.  1.
<mgrwt>
<rscale>  2 0.21186566E+03</rscale>
<asrwt>0</asrwt>
<pdfrwt beam="1">  1       21 0.22602156E-01 0.21186566E+03</pdfrwt>
<pdfrwt beam="2">  1       21 0.13619634E+00 0.21186566E+03</pdfrwt>
<totfact> 0.69427555E+03</totfact>
</mgrwt>
</event>
<event>
 4    2  0.4063641E+000  0.1927603E+03  0.7546771E-02  0.1155995E+00
         21   -1    0    0  503  502  0.00000000000E+00  0.00000000000E+00  0.17149880100E+03  0.17149880100E+03  0.00000000000E+00 0. -1.
         21   -1    0    0  501  503 -0.00000000000E+00 -0.00000000000E+00 -0.22861842448E+03  0.22861842448E+03  0.00000000000E+00 0.  1.
          6    1    1    2  501    0 -0.80591193982E+02  0.27066207334E+02 -0.74319392738E+02  0.20659112339E+03  0.17300000000E+03 0.  1.
         -6    1    1    2    0  502  0.80591193982E+02 -0.27066207334E+02  0.17199769256E+02  0.19352610209E+03  0.17300000000E+03 0. -1.
<mgrwt>
<rscale>  2 0.19276027E+03</rscale>
<asrwt>0</asrwt>
<pdfrwt beam="1">  1       21 0.26384431E-01 0.19276027E+03</pdfrwt>
<pdfrwt beam="2">  1       21 0.35172065E-01 0.19276027E+03</pdfrwt>
<totfact> 0.10647058E+05</totfact>
</mgrwt>
</event>
<event>
 4    2  0.4063641E+000  0.1989674E+03  0.7546771E-02  0.1150613E+00
         21   -1    0    0  503  502  0.00000000000E+00  0.00000000000E+00  0.15035002498E+03  0.15035002498E+03  0.00000000000E+00 0. -1.
         21   -1    0    0  501  503 -0.00000000000E+00 -0.00000000000E+00 -0.28563531490E+03  0.28563531490E+03  0.00000000000E+00 0. -1.
          6    1    1    2  501    0  0.53224678572E+02 -0.82620554624E+02 -0.12859300924E+03  0.23690543362E+03  0.17300000000E+03 0. -1.
         -6    1    1    2    0  502 -0.53224678572E+02  0.82620554624E+02 -0.66922806762E+01  0.19907990626E+03  0.17300000000E+03 0. -1.
<mgrwt>
<rscale>  2 0.19896739E+03</rscale>
<asrwt>0</asrwt>
<pdfrwt beam="1">  1       21 0.23130773E-01 0.19896739E+03</pdfrwt>
<pdfrwt beam="2">  1       21 0.43943894E-01 0.19896739E+03</pdfrwt>
<totfact> 0.87126115E+04</totfact>
</mgrwt>
</event>
<event>
 4    2  0.4063641E+000  0.2689908E+03  0.7546771E-02  0.1101859E+00
         21   -1    0    0  503  502  0.00000000000E+00  0.00000000000E+00  0.44150402222E+03  0.44150402222E+03  0.00000000000E+00 0.  1.
         21   -1    0    0  501  503 -0.00000000000E+00 -0.00000000000E+00 -0.35484586766E+03  0.35484586766E+03  0.00000000000E+00 0. -1.
          6    1    1    2  501    0  0.25213960741E+02 -0.20442921160E+03 -0.24876707155E+03  0.36638927694E+03  0.17300000000E+03 0. -1.
         -6    1    1    2    0  502 -0.25213960741E+02  0.20442921160E+03  0.33542522611E+03  0.42996061294E+03  0.17300000000E+03 0.  1.
<mgrwt>
<rscale>  2 0.26899079E+03</rscale>
<asrwt>0</asrwt>
<pdfrwt beam="1">  1       21 0.67923696E-01 0.26899079E+03</pdfrwt>
<pdfrwt beam="2">  1       21 0.54591672E-01 0.26899079E+03</pdfrwt>
<totfact> 0.59674185E+03</totfact>
</mgrwt>
</event>
<event>
 4    2  0.4063641E+000  0.1772740E+03  0.7546771E-02  0.1170468E+00
         21   -1    0    0  501  502  0.00000000000E+00  0.00000000000E+00  0.42064584942E+03  0.42064584942E+03  0.00000000000E+00 0.  1.
         21   -1    0    0  502  503 -0.00000000000E+00 -0.00000000000E+00 -0.16212716413E+03  0.16212716413E+03  0.00000000000E+00 0. -1.
          6    1    1    2  501    0 -0.38546551313E+02  0.33539229415E+01  0.34322400956E+03  0.38630144467E+03  0.17300000000E+03 0.  1.
         -6    1    1    2    0  503  0.38546551313E+02 -0.33539229415E+01 -0.84705324266E+02  0.19647156888E+03  0.17300000000E+03 0. -1.
<mgrwt>
<rscale>  2 0.17727404E+03</rscale>
<asrwt>0</asrwt>
<pdfrwt beam="1">  1       21 0.64714746E-01 0.17727404E+03</pdfrwt>
<pdfrwt beam="2">  1       21 0.24942641E-01 0.17727404E+03</pdfrwt>
<totfact> 0.33750913E+04</totfact>
</mgrwt>
</event>
<event>
 4    2  0.4063641E+000  0.2880839E+03  0.7546771E-02  0.1091354E+00
         21   -1    0    0  501  502  0.00000000000E+00  0.00000000000E+00  0.18148189023E+03  0.18148189023E+03  0.00000000000E+00 0. -1.
         21   -1    0    0  502  503 -0.00000000000E+00 -0.00000000000E+00 -0.56600736340E+03  0.56600736340E+03  0.00000000000E+00 0.  1.
          6    1    1    2  501    0 -0.18316670559E+03  0.13968996836E+03 -0.35605226176E+03  0.45800168384E+03  0.17300000000E+03 0.  1.
         -6    1    1    2    0  503  0.18316670559E+03 -0.13968996836E+03 -0.28473211416E+02  0.28948756979E+03  0.17300000000E+03 0. -1.
<mgrwt>
<rscale>  2 0.28808389E+03</rscale>
<asrwt>0</asrwt>
<pdfrwt beam="1">  1       21 0.27920291E-01 0.28808389E+03</pdfrwt>
<pdfrwt beam="2">  1       21 0.87078055E-01 0.28808389E+03</pdfrwt>
<totfact> 0.13171296E+04</totfact>
</mgrwt>
</event>
<event>
 4    2  0.4063641E+000  0.1877114E+03  0.7546771E-02  0.1160542E+00
         21   -1    0    0  501  502  0.00000000000E+00  0.00000000000E+00  0.12725656422E+04  0.12725656422E+04  0.00000000000E+00 0. -1.
         21   -1    0    0  502  503 -0.00000000000E+00 -0.00000000000E+00 -0.27896810036E+02  0.27896810036E+02  0.00000000000E+00 0. -1.
          6    1    1    2  501    0  0.24293501452E+02  0.68676143661E+02  0.56616237992E+03  0.59646913362E+03  0.17300000000E+03 0. -1.
         -6    1    1    2    0  503 -0.24293501452E+02 -0.68676143661E+02  0.67850645220E+03  0.70399331857E+03  0.17300000000E+03 0. -1.
<mgrwt>
<rscale>  2 0.18771145E+03</rscale>
<asrwt>0</asrwt>
<pdfrwt beam="1">  1       21 0.19577928E+00 0.18771145E+03</pdfrwt>
<pdfrwt beam="2">  1       21 0.42918179E-02 0.18771145E+03</pdfrwt>
<totfact> 0.49931277E+04</totfact>
</mgrwt>
</event>
<event>
 4    2  0.4063641E+000  0.1927290E+03  0.7546771E-02  0.1156023E+00
         21   -1    0    0  503  502  0.00000000000E+00  0.00000000000E+00  0.31166685022E+03  0.31166685022E+03  0.00000000000E+00 0. -1.
         21   -1    0    0  501  503 -0.00000000000E+00 -0.00000000000E+00 -0.17098001785E+03  0.17098001785E+03  0.00000000000E+00 0. -1.
          6    1    1    2  501    0 -0.78732371139E+02 -0.31885450280E+02 -0.62485184518E+02  0.20260519857E+03  0.17300000000E+03 0. -1.
         -6    1    1    2    0  502  0.78732371139E+02  0.31885450280E+02  0.20317201689E+03  0.28004166949E+03  0.17300000000E+03 0. -1.
<mgrwt>
<rscale>  2 0.19272900E+03</rscale>
<asrwt>0</asrwt>
<pdfrwt beam="1">  1       21 0.47948746E-01 0.19272900E+03</pdfrwt>
<pdfrwt beam="2">  1       21 0.26304618E-01 0.19272900E+03</pdfrwt>
<totfact> 0.57126253E+04</totfact>
</mgrwt>
</event>
<event>
 4    2  0.4063641E+000  0.2345843E+03  0.7546771E-02  0.1123454E+00
         21   -1    0    0  503  502  0.00000000000E+00  0.00000000000E+00  0.91176775844E+02  0.91176775844E+02  0.00000000000E+00 0. -1.
         21   -1    0    0  501  503 -0.00000000000E+00 -0.00000000000E+00 -0.62182937954E+03  0.62182937954E+03  0.00000000000E+00 0. -1.
          6    1    1    2  501    0  0.22368022462E+02 -0.15684532560E+03 -0.32644906502E+03  0.40199350323E+03  0.17300000000E+03 0. -1.
         -6    1    1    2    0  502 -0.22368022462E+02  0.15684532560E+03 -0.20420353868E+03  0.31101265215E+03  0.17300000000E+03 0. -1.
<mgrwt>
<rscale>  2 0.23458428E+03</rscale>
<asrwt>0</asrwt>
<pdfrwt beam="1">  1       21 0.14027196E-01 0.23458428E+03</pdfrwt>
<pdfrwt beam="2">  1       21 0.95666060E-01 0.23458428E+03</pdfrwt>
<totfact> 0.39530110E+04</totfact>
</mgrwt>
</event>
<event>
 4    2  0.4063641E+000  0.1996331E+03  0.7546771E-02  0.1150049E+00
         21   -1    0    0  501  502  0.00000000000E+00  0.00000000000E+00  0.14800765089E+03  0.14800765089E+03  0.00000000000E+00 0.  1.
         21   -1    0    0  502  503 -0.00000000000E+00 -0.00000000000E+00 -0.29521731129E+03  0.29521731129E+03  0.00000000000E+00 0.  1.
          6    1    1    2  501    0 -0.95602277742E+02 -0.28010437710E+02 -0.78987328939E+01  0.19978931431E+03  0.17300000000E+03 0.  1.
         -6    1    1    2    0  503  0.95602277742E+02  0.28010437710E+02 -0.13931092750E+03  0.24343564787E+03  0.17300000000E+03 0.  1.
<mgrwt>
<rscale>  2 0.19963311E+03</rscale>
<asrwt>0</asrwt>
<pdfrwt beam="1">  1       21 0.22770408E-01 0.19963311E+03</pdfrwt>
<pdfrwt beam="2">  1       21 0.45418048E-01 0.19963311E+03</pdfrwt>
<totfact> 0.83853005E+04</totfact>
</mgrwt>
</event>
<event>
 4    2  0.4063641E+000  0.1796131E+03  0.7546771E-02  0.1168178E+00
         21   -1    0    0  503  502  0.00000000000E+00  0.00000000000E+00  0.19297879111E+03  0.19297879111E+03  0.00000000000E+00 0.  1.
         21   -1    0    0  501  503 -0.00000000000E+00 -0.00000000000E+00 -0.33446735472E+03  0.33446735472E+03  0.00000000000E+00 0.  1.
          6    1    1    2  501    0 -0.46072402733E+02 -0.14463308653E+02 -0.25725845297E+03  0.31375590068E+03  0.17300000000E+03 0. -1.
         -6    1    1    2    0  502  0.46072402733E+02  0.14463308653E+02  0.11576988935E+03  0.21369024515E+03  0.17300000000E+03 0. -1.
<mgrwt>
<rscale>  2 0.17961307E+03</rscale>
<asrwt>0</asrwt>
<pdfrwt beam="1">  1       21 0.29689045E-01 0.17961307E+03</pdfrwt>
<pdfrwt beam="2">  1       21 0.51456516E-01 0.17961307E+03</pdfrwt>
<totfact> 0.39281578E+04</totfact>
</mgrwt>
</event>
<event>
 4    2  0.4063641E+000  0.2985531E+03  0.7546771E-02  0.1085966E+00
         21   -1    0    0  503  502  0.00000000000E+00  0.00000000000E+00  0.10854969186E+03  0.10854969186E+03  0.00000000000E+00 0. -1.
         21   -1    0    0  501  503 -0.00000000000E+00 -0.00000000000E+00 -0.82721130442E+03  0.82721130442E+03  0.00000000000E+00 0.  1.
          6    1    1    2  501    0  0.14490704703E+03  0.19546588056E+03 -0.39943065036E+03  0.49867705701E+03  0.17300000000E+03 0.  1.
         -6    1    1    2    0  502 -0.14490704703E+03 -0.19546588056E+03 -0.31923096220E+03  0.43708393928E+03  0.17300000000E+03 0. -1.
<mgrwt>
<rscale>  2 0.29855312E+03</rscale>
<asrwt>0</asrwt>
<pdfrwt beam="1">  1       21 0.16699953E-01 0.29855312E+03</pdfrwt>
<pdfrwt beam="2">  1       21 0.12726327E+00 0.29855312E+03</pdfrwt>
<totfact> 0.13845200E+04</totfact>
</mgrwt>
</event>
<event>
 4    2  0.4063641E+000  0.2433328E+03  0.7546771E-02  0.1117592E+00
         21   -1    0    0  503  502  0.00000000000E+00  0.00000000000E+00  0.12153854717E+03  0.12153854717E+03  0.00000000000E+00 0.  1.
         21   -1    0    0  501  503 -0.00000000000E+00 -0.00000000000E+00 -0.48750014213E+03  0.48750014213E+03  0.00000000000E+00 0.  1.
          6    1    1    2  501    0  0.13651999167E+03  0.10317048679E+03 -0.17514790582E+03  0.29981268549E+03  0.17300000000E+03 0.  1.
         -6    1    1    2    0  502 -0.13651999167E+03 -0.10317048679E+03 -0.19081368914E+03  0.30922600381E+03  0.17300000000E+03 0.  1.
<mgrwt>
<rscale>  2 0.24333281E+03</rscale>
<asrwt>0</asrwt>
<pdfrwt beam="1">  1       21 0.18698238E-01 0.24333281E+03</pdfrwt>
<pdfrwt beam="2">  1       21 0.75000023E-01 0.24333281E+03</pdfrwt>
<totfact> 0.40596837E+04</totfact>
</mgrwt>
</event>
<event>
 4    2  0.4063641E+000  0.2435269E+03  0.7546771E-02  0.1117465E+00
         21   -1    0    0  503  502  0.00000000000E+00  0.00000000000E+00  0.32348118039E+03  0.32348118039E+03  0.00000000000E+00 0.  1.
         21   -1    0    0  501  503 -0.00000000000E+00 -0.00000000000E+00 -0.19983126685E+03  0.19983126685E+03  0.00000000000E+00 0. -1.
          6    1    1    2  501    0 -0.71818002025E+01 -0.17124472267E+03 -0.13353914822E+02  0.24389272301E+03  0.17300000000E+03 0. -1.
         -6    1    1    2    0  502  0.71818002025E+01  0.17124472267E+03  0.13700382837E+03  0.27941972422E+03  0.17300000000E+03 0.  1.
<mgrwt>
<rscale>  2 0.24352686E+03</rscale>
<asrwt>0</asrwt>
<pdfrwt beam="1">  1       21 0.49766336E-01 0.24352686E+03</pdfrwt>
<pdfrwt beam="2">  1       21 0.30743272E-01 0.24352686E+03</pdfrwt>
<totfact> 0.38145802E+04</totfact>
</mgrwt>
</event>
<event>
 4    2  0.4063641E+000  0.2603012E+03  0.7546771E-02  0.1106962E+00
         21   -1    0    0  503  502  0.00000000000E+00  0.00000000000E+00  0.60362594870E+03  0.60362594870E+03  0.00000000000E+00 0. -1.
         21   -1    0    0  501  503 -0.00000000000E+00 -0.00000000000E+00 -0.12822666222E+03  0.12822666222E+03  0.00000000000E+00 0. -1.
          6    1    1    2  501    0  0.18011636427E+03  0.73387955735E+02  0.10853174168E+03  0.28202098446E+03  0.17300000000E+03 0. -1.
         -6    1    1    2    0  502 -0.18011636427E+03 -0.73387955735E+02  0.36686754480E+03  0.44983162645E+03  0.17300000000E+03 0. -1.
<mgrwt>
<rscale>  2 0.26030117E+03</rscale>
<asrwt>0</asrwt>
<pdfrwt beam="1">  1       21 0.92865529E-01 0.26030117E+03</pdfrwt>
<pdfrwt beam="2">  1       21 0.19727179E-01 0.26030117E+03</pdfrwt>
<totfact> 0.22310467E+04</totfact>
</mgrwt>
</event>
<event>
 4    2  0.4063641E+000  0.2149553E+03  0.7546771E-02  0.1137701E+00
         21   -1    0    0  503  502  0.00000000000E+00  0.00000000000E+00  0.14643751896E+03  0.14643751896E+03  0.00000000000E+00 0. -1.
         21   -1    0    0  501  503 -0.00000000000E+00 -0.00000000000E+00 -0.37906431352E+03  0.37906431352E+03  0.00000000000E+00 0. -1.
          6    1    1    2  501    0  0.16124799419E+02  0.12655738022E+03 -0.87452205239E+01  0.21513311815E+03  0.17300000000E+03 0. -1.
         -6    1    1    2    0  502 -0.16124799419E+02 -0.12655738022E+03 -0.22388157404E+03  0.31036871433E+03  0.17300000000E+03 0. -1.
<mgrwt>
<rscale>  2 0.21495530E+03</rscale>
<asrwt>0</asrwt>
<pdfrwt beam="1">  1       21 0.22528849E-01 0.21495530E+03</pdfrwt>
<pdfrwt beam="2">  1       21 0.58317586E-01 0.21495530E+03</pdfrwt>
<totfact> 0.50288113E+04</totfact>
</mgrwt>
</event>
<event>
 4    2  0.4063641E+000  0.1991881E+03  0.7546771E-02  0.1150426E+00
         21   -1    0    0  501  502  0.00000000000E+00  0.00000000000E+00  0.18530229232E+03  0.18530229232E+03  0.00000000000E+00 0. -1.
         21   -1    0    0  502  503 -0.00000000000E+00 -0.00000000000E+00 -0.21412525573E+03  0.21412525573E+03  0.00000000000E+00 0. -1.
          6    1    1    2  501    0  0.88380364070E+02  0.43998039477E+02 -0.12999076992E+02  0.19961185394E+03  0.17300000000E+03 0. -1.
         -6    1    1    2    0  503 -0.88380364070E+02 -0.43998039477E+02 -0.15823886418E+02  0.19981569411E+03  0.17300000000E+03 0. -1.
<mgrwt>
<rscale>  2 0.19918814E+03</rscale>
<asrwt>0</asrwt>
<pdfrwt beam="1">  1       21 0.28508045E-01 0.19918814E+03</pdfrwt>
<pdfrwt beam="2">  1       21 0.32942347E-01 0.19918814E+03</pdfrwt>
<totfact> 0.10411375E+05</totfact>
</mgrwt>
</event>
<event>
 4    2  0.4063641E+000  0.2087379E+03  0.7546771E-02  0.1142569E+00
         21   -1    0    0  501  502  0.00000000000E+00  0.00000000000E+00  0.45944341572E+02  0.45944341572E+02  0.00000000000E+00 0. -1.
         21   -1    0    0  502  503 -0.00000000000E+00 -0.00000000000E+00 -0.13488250541E+04  0.13488250541E+04  0.00000000000E+00 0. -1.
          6    1    1    2  501    0  0.57421657683E+01 -0.11665990783E+03 -0.27144342369E+03  0.34242231064E+03  0.17300000000E+03 0. -1.
         -6    1    1    2    0  503 -0.57421657683E+01  0.11665990783E+03 -0.10314372889E+04  0.10523470850E+04  0.17300000000E+03 0. -1.
<mgrwt>
<rscale>  2 0.20873789E+03</rscale>
<asrwt>0</asrwt>
<pdfrwt beam="1">  1       21 0.70683603E-02 0.20873789E+03</pdfrwt>
<pdfrwt beam="2">  1       21 0.20751155E+00 0.20873789E+03</pdfrwt>
<totfact> 0.17670597E+04</totfact>
</mgrwt>
</event>
<event>
 4    2  0.4063641E+000  0.2060319E+03  0.7546771E-02  0.1144747E+00
         21   -1    0    0  501  502  0.00000000000E+00  0.00000000000E+00  0.60311789434E+03  0.60311789434E+03  0.00000000000E+00 0.  1.
         21   -1    0    0  502  503 -0.00000000000E+00 -0.00000000000E+00 -0.94594493955E+02  0.94594493955E+02  0.00000000000E+00 0. -1.
          6    1    1    2  501    0 -0.77432042947E+02 -0.80773980990E+02  0.43075394791E+03  0.47749148779E+03  0.17300000000E+03 0.  1.
         -6    1    1    2    0  503  0.77432042947E+02  0.80773980990E+02  0.77769452484E+02  0.22022090051E+03  0.17300000000E+03 0. -1.
<mgrwt>
<rscale>  2 0.20603193E+03</rscale>
<asrwt>0</asrwt>
<pdfrwt beam="1">  1       21 0.92787366E-01 0.20603193E+03</pdfrwt>
<pdfrwt beam="2">  1       21 0.14552999E-01 0.20603193E+03</pdfrwt>
<totfact> 0.40279282E+04</totfact>
</mgrwt>
</event>
<event>
 4    2  0.4063641E+000  0.1904070E+03  0.7546771E-02  0.1158095E+00
         21   -1    0    0  501  502  0.00000000000E+00  0.00000000000E+00  0.41369074652E+03  0.41369074652E+03  0.00000000000E+00 0. -1.
         21   -1    0    0  502  503 -0.00000000000E+00 -0.00000000000E+00 -0.15155553201E+03  0.15155553201E+03  0.00000000000E+00 0. -1.
          6    1    1    2  501    0 -0.78068415758E+02 -0.15203689638E+02  0.31460876210E+03  0.36774108134E+03  0.17300000000E+03 0. -1.
         -6    1    1    2    0  503  0.78068415758E+02  0.15203689638E+02 -0.52473547590E+02  0.19750519718E+03  0.17300000000E+03 0. -1.
<mgrwt>
<rscale>  2 0.19040701E+03</rscale>
<asrwt>0</asrwt>
<pdfrwt beam="1">  1       21 0.63644730E-01 0.19040701E+03</pdfrwt>
<pdfrwt beam="2">  1       21 0.23316236E-01 0.19040701E+03</pdfrwt>
<totfact> 0.39506241E+04</totfact>
</mgrwt>
</event>
<event>
 4    2  0.4063641E+000  0.1760061E+03  0.7546771E-02  0.1171725E+00
         21   -1    0    0  503  502  0.00000000000E+00  0.00000000000E+00  0.13501143635E+03  0.13501143635E+03  0.00000000000E+00 0. -1.
         21   -1    0    0  501  503 -0.00000000000E+00 -0.00000000000E+00 -0.49711907207E+03  0.49711907207E+03  0.00000000000E+00 0. -1.
          6    1    1    2  501    0 -0.31138839342E+02 -0.89179445565E+01 -0.41297848583E+03  0.44892024549E+03  0.17300000000E+03 0. -1.
         -6    1    1    2    0  502  0.31138839342E+02  0.89179445565E+01  0.50870850117E+02  0.18321026293E+03  0.17300000000E+03 0. -1.
<mgrwt>
<rscale>  2 0.17600613E+03</rscale>
<asrwt>0</asrwt>
<pdfrwt beam="1">  1       21 0.20770990E-01 0.17600613E+03</pdfrwt>
<pdfrwt beam="2">  1       21 0.76479858E-01 0.17600613E+03</pdfrwt>
<totfact> 0.33026596E+04</totfact>
</mgrwt>
</event>
<event>
 4    2  0.4063641E+000  0.2221739E+03  0.7546771E-02  0.1132273E+00
         21   -1    0    0  503  502  0.00000000000E+00  0.00000000000E+00  0.17844625704E+03  0.17844625704E+03  0.00000000000E+00 0. -1.
         21   -1    0    0  501  503 -0.00000000000E+00 -0.00000000000E+00 -0.14065865126E+04  0.14065865126E+04  0.00000000000E+00 0.  1.
          6    1    1    2  501    0  0.60818791826E+02 -0.12543252444E+03 -0.13243972786E+04  0.13429033454E+04  0.17300000000E+03 0.  1.
         -6    1    1    2    0  502 -0.60818791826E+02  0.12543252444E+03  0.96257022975E+02  0.24212942427E+03  0.17300000000E+03 0. -1.
<mgrwt>
<rscale>  2 0.22217390E+03</rscale>
<asrwt>0</asrwt>
<pdfrwt beam="1">  1       21 0.27453271E-01 0.22217390E+03</pdfrwt>
<pdfrwt beam="2">  1       21 0.21639792E+00 0.22217390E+03</pdfrwt>
<totfact> 0.12983844E+03</totfact>
</mgrwt>
</event>
<event>
 4    2  0.4063641E+000  0.2056547E+03  0.7546771E-02  0.1145054E+00
         21   -1    0    0  501  502  0.00000000000E+00  0.00000000000E+00  0.50893274322E+02  0.50893274322E+02  0.00000000000E+00 0.  1.
         21   -1    0    0  502  503 -0.00000000000E+00 -0.00000000000E+00 -0.85604302956E+03  0.85604302956E+03  0.00000000000E+00 0.  1.
          6    1    1    2  501    0  0.16829470103E+01  0.11118461541E+03 -0.48008882980E+03  0.52228262034E+03  0.17300000000E+03 0.  1.
         -6    1    1    2    0  503 -0.16829470103E+01 -0.11118461541E+03 -0.32506092544E+03  0.38465368354E+03  0.17300000000E+03 0.  1.
<mgrwt>
<rscale>  2 0.20565469E+03</rscale>
<asrwt>0</asrwt>
<pdfrwt beam="1">  1       21 0.78297346E-02 0.20565469E+03</pdfrwt>
<pdfrwt beam="2">  1       21 0.13169893E+00 0.20565469E+03</pdfrwt>
<totfact> 0.51747622E+04</totfact>
</mgrwt>
</event>
<event>
 4    2  0.4063641E+000  0.2333208E+03  0.7546771E-02  0.1124324E+00
         21   -1    0    0  503  502  0.00000000000E+00  0.00000000000E+00  0.11829816727E+03  0.11829816727E+03  0.00000000000E+00 0. -1.
         21   -1    0    0  501  503 -0.00000000000E+00 -0.00000000000E+00 -0.46113440994E+03  0.46113440994E+03  0.00000000000E+00 0. -1.
          6    1    1    2  501    0  0.15653442731E+03 -0.25656227522E+01 -0.15824704969E+03  0.28192328405E+03  0.17300000000E+03 0. -1.
         -6    1    1    2    0  502 -0.15653442731E+03  0.25656227522E+01 -0.18458919298E+03  0.29750929316E+03  0.17300000000E+03 0. -1.
<mgrwt>
<rscale>  2 0.23332083E+03</rscale>
<asrwt>0</asrwt>
<pdfrwt beam="1">  1       21 0.18199719E-01 0.23332083E+03</pdfrwt>
<pdfrwt beam="2">  1       21 0.70943753E-01 0.23332083E+03</pdfrwt>
<totfact> 0.48546575E+04</totfact>
</mgrwt>
</event>
<event>
 4    2  0.4063641E+000  0.2054728E+03  0.7546771E-02  0.1145202E+00
         21   -1    0    0  501  502  0.00000000000E+00  0.00000000000E+00  0.22417892043E+03  0.22417892043E+03  0.00000000000E+00 0.  1.
         21   -1    0    0  502  503 -0.00000000000E+00 -0.00000000000E+00 -0.19008438069E+03  0.19008438069E+03  0.00000000000E+00 0.  1.
          6    1    1    2  501    0  0.63979526066E+02  0.90535542405E+02  0.36960406186E+02  0.20877053389E+03  0.17300000000E+03 0. -1.
         -6    1    1    2    0  503 -0.63979526066E+02 -0.90535542405E+02 -0.28658664465E+01  0.20549276723E+03  0.17300000000E+03 0. -1.
<mgrwt>
<rscale>  2 0.20547278E+03</rscale>
<asrwt>0</asrwt>
<pdfrwt beam="1">  1       21 0.34489065E-01 0.20547278E+03</pdfrwt>
<pdfrwt beam="2">  1       21 0.29243751E-01 0.20547278E+03</pdfrwt>
<totfact> 0.90257197E+04</totfact>
</mgrwt>
</event>
<event>
 4    2  0.4063641E+000  0.1927201E+03  0.7546771E-02  0.1156031E+00
         21   -1    0    0  501  502  0.00000000000E+00  0.00000000000E+00  0.25956994091E+02  0.25956994091E+02  0.00000000000E+00 0. -1.
         21   -1    0    0  502  503 -0.00000000000E+00 -0.00000000000E+00 -0.19964061346E+04  0.19964061346E+04  0.00000000000E+00 0. -1.
          6    1    1    2  501    0  0.37840167799E+02  0.76027337950E+02 -0.44703458727E+03  0.48680689871E+03  0.17300000000E+03 0. -1.
         -6    1    1    2    0  503 -0.37840167799E+02 -0.76027337950E+02 -0.15234145532E+04  0.15355562299E+04  0.17300000000E+03 0. -1.
<mgrwt>
<rscale>  2 0.19272009E+03</rscale>
<asrwt>0</asrwt>
<pdfrwt beam="1">  1       21 0.39933845E-02 0.19272009E+03</pdfrwt>
<pdfrwt beam="2">  1       21 0.30713934E+00 0.19272009E+03</pdfrwt>
<totfact> 0.12200370E+04</totfact>
</mgrwt>
</event>
<event>
 4    2  0.4063641E+000  0.2817888E+03  0.7546771E-02  0.1094716E+00
         21   -1    0    0  503  502  0.00000000000E+00  0.00000000000E+00  0.59350200679E+03  0.59350200679E+03  0.00000000000E+00 0.  1.
         21   -1    0    0  501  503 -0.00000000000E+00 -0.00000000000E+00 -0.13397347969E+03  0.13397347969E+03  0.00000000000E+00 0.  1.
          6    1    1    2  501    0 -0.11713608558E+03  0.18909006811E+03  0.21632089641E+03  0.35524589600E+03  0.17300000000E+03 0.  1.
         -6    1    1    2    0  502  0.11713608558E+03 -0.18909006811E+03  0.24320763069E+03  0.37222959048E+03  0.17300000000E+03 0.  1.
<mgrwt>
<rscale>  2 0.28178878E+03</rscale>
<asrwt>0</asrwt>
<pdfrwt beam="1">  1       21 0.91308000E-01 0.28178878E+03</pdfrwt>
<pdfrwt beam="2">  1       21 0.20611305E-01 0.28178878E+03</pdfrwt>
<totfact> 0.21168595E+04</totfact>
</mgrwt>
</event>
<event>
 4    2  0.4063641E+000  0.2227099E+03  0.7546771E-02  0.1131879E+00
         21   -1    0    0  503  502  0.00000000000E+00  0.00000000000E+00  0.47578222634E+03  0.47578222634E+03  0.00000000000E+00 0. -1.
         21   -1    0    0  501  503 -0.00000000000E+00 -0.00000000000E+00 -0.10634488611E+03  0.10634488611E+03  0.00000000000E+00 0.  1.
          6    1    1    2  501    0  0.10107271141E+03  0.97236799936E+02  0.14385453240E+03  0.26512980735E+03  0.17300000000E+03 0.  1.
         -6    1    1    2    0  502 -0.10107271141E+03 -0.97236799936E+02  0.22558280783E+03  0.31699730510E+03  0.17300000000E+03 0. -1.
<mgrwt>
<rscale>  2 0.22270987E+03</rscale>
<asrwt>0</asrwt>
<pdfrwt beam="1">  1       21 0.73197264E-01 0.22270987E+03</pdfrwt>
<pdfrwt beam="2">  1       21 0.16360752E-01 0.22270987E+03</pdfrwt>
<totfact> 0.55398313E+04</totfact>
</mgrwt>
</event>
<event>
 4    2  0.4063641E+000  0.2934822E+03  0.7546771E-02  0.1088545E+00
         21   -1    0    0  501  502  0.00000000000E+00  0.00000000000E+00  0.94681026746E+02  0.94681026746E+02  0.00000000000E+00 0. -1.
         21   -1    0    0  502  503 -0.00000000000E+00 -0.00000000000E+00 -0.96204183500E+03  0.96204183500E+03  0.00000000000E+00 0.  1.
          6    1    1    2  501    0  0.18534488910E+03  0.14781770058E+03 -0.31044429323E+03  0.42720891811E+03  0.17300000000E+03 0. -1.
         -6    1    1    2    0  503 -0.18534488910E+03 -0.14781770058E+03 -0.55691651503E+03  0.62951394363E+03  0.17300000000E+03 0.  1.
<mgrwt>
<rscale>  2 0.29348220E+03</rscale>
<asrwt>0</asrwt>
<pdfrwt beam="1">  1       21 0.14566313E-01 0.29348220E+03</pdfrwt>
<pdfrwt beam="2">  1       21 0.14800643E+00 0.29348220E+03</pdfrwt>
<totfact> 0.12052098E+04</totfact>
</mgrwt>
</event>
<event>
 4    2  0.4063641E+000  0.2310516E+03  0.7546771E-02  0.1125902E+00
         21   -1    0    0  503  502  0.00000000000E+00  0.00000000000E+00  0.48956353681E+03  0.48956353681E+03  0.00000000000E+00 0. -1.
         21   -1    0    0  501  503 -0.00000000000E+00 -0.00000000000E+00 -0.12124742686E+03  0.12124742686E+03  0.00000000000E+00 0.  1.
          6    1    1    2  501    0 -0.13750813217E+03  0.67434167900E+02  0.87274689090E+02  0.24698527237E+03  0.17300000000E+03 0.  1.
         -6    1    1    2    0  502  0.13750813217E+03 -0.67434167900E+02  0.28104142086E+03  0.36382569130E+03  0.17300000000E+03 0. -1.
<mgrwt>
<rscale>  2 0.23105162E+03</rscale>
<asrwt>0</asrwt>
<pdfrwt beam="1">  1       21 0.75317467E-01 0.23105162E+03</pdfrwt>
<pdfrwt beam="2">  1       21 0.18653450E-01 0.23105162E+03</pdfrwt>
<totfact> 0.40613646E+04</totfact>
</mgrwt>
</event>
<event>
 4    2  0.4063641E+000  0.2735362E+03  0.7546771E-02  0.1099273E+00
         21   -1    0    0  501  502  0.00000000000E+00  0.00000000000E+00  0.17990018435E+03  0.17990018435E+03  0.00000000000E+00 0.  1.
         21   -1    0    0  502  503 -0.00000000000E+00 -0.00000000000E+00 -0.14276743890E+04  0.14276743890E+04  0.00000000000E+00 0. -1.
          6    1    1    2  501    0  0.25680206519E+01  0.21186420803E+03  0.52766719876E+02  0.27857918820E+03  0.17300000000E+03 0.  1.
         -6    1    1    2    0  503 -0.25680206519E+01 -0.21186420803E+03 -0.13005409246E+04  0.13289953852E+04  0.17300000000E+03 0. -1.
<mgrwt>
<rscale>  2 0.27353617E+03</rscale>
<asrwt>0</asrwt>
<pdfrwt beam="1">  1       21 0.27676951E-01 0.27353617E+03</pdfrwt>
<pdfrwt beam="2">  1       21 0.21964222E+00 0.27353617E+03</pdfrwt>
<totfact> 0.11649677E+03</totfact>
</mgrwt>
</event>
<event>
 4    2  0.4063641E+000  0.1922575E+03  0.7546771E-02  0.1156441E+00
         21   -1    0    0  503  502  0.00000000000E+00  0.00000000000E+00  0.12740866387E+03  0.12740866387E+03  0.00000000000E+00 0. -1.
         21   -1    0    0  501  503 -0.00000000000E+00 -0.00000000000E+00 -0.35580546018E+03  0.35580546018E+03  0.00000000000E+00 0. -1.
          6    1    1    2  501    0 -0.60126729956E+02  0.58469699842E+02 -0.21801350872E+03  0.29067648587E+03  0.17300000000E+03 0.  1.
         -6    1    1    2    0  502  0.60126729956E+02 -0.58469699842E+02 -0.10383287590E+02  0.19253763818E+03  0.17300000000E+03 0.  1.
<mgrwt>
<rscale>  2 0.19225746E+03</rscale>
<asrwt>0</asrwt>
<pdfrwt beam="1">  1       21 0.19601333E-01 0.19225746E+03</pdfrwt>
<pdfrwt beam="2">  1       21 0.54739302E-01 0.19225746E+03</pdfrwt>
<totfact> 0.75528766E+04</totfact>
</mgrwt>
</event>
<event>
 4    2  0.4063641E+000  0.2085723E+03  0.7546771E-02  0.1142702E+00
         21   -1    0    0  503  502  0.00000000000E+00  0.00000000000E+00  0.72806598745E+02  0.72806598745E+02  0.00000000000E+00 0.  1.
         21   -1    0    0  501  503 -0.00000000000E+00 -0.00000000000E+00 -0.10970283961E+04  0.10970283961E+04  0.00000000000E+00 0. -1.
          6    1    1    2  501    0  0.70845794187E+02 -0.92489320892E+02 -0.90680717834E+03  0.93048463702E+03  0.17300000000E+03 0. -1.
         -6    1    1    2    0  502 -0.70845794187E+02  0.92489320892E+02 -0.11741461901E+03  0.23935035782E+03  0.17300000000E+03 0.  1.
<mgrwt>
<rscale>  2 0.20857229E+03</rscale>
<asrwt>0</asrwt>
<pdfrwt beam="1">  1       21 0.11201016E-01 0.20857229E+03</pdfrwt>
<pdfrwt beam="2">  1       21 0.16877359E+00 0.20857229E+03</pdfrwt>
<totfact> 0.14276830E+04</totfact>
</mgrwt>
</event>
<event>
 4    2  0.4063641E+000  0.2226021E+03  0.7546771E-02  0.1131958E+00
         21   -1    0    0  501  502  0.00000000000E+00  0.00000000000E+00  0.20580199145E+03  0.20580199145E+03  0.00000000000E+00 0.  1.
         21   -1    0    0  502  503 -0.00000000000E+00 -0.00000000000E+00 -0.24226260321E+03  0.24226260321E+03  0.00000000000E+00 0. -1.
          6    1    1    2  501    0 -0.13227677673E+03 -0.46103727039E+02 -0.66700710863E+00  0.22260310916E+03  0.17300000000E+03 0. -1.
         -6    1    1    2    0  503  0.13227677673E+03  0.46103727039E+02 -0.35793604653E+02  0.22546148550E+03  0.17300000000E+03 0.  1.
<mgrwt>
<rscale>  2 0.22260211E+03</rscale>
<asrwt>0</asrwt>
<pdfrwt beam="1">  1       21 0.31661845E-01 0.22260211E+03</pdfrwt>
<pdfrwt beam="2">  1       21 0.37271170E-01 0.22260211E+03</pdfrwt>
<totfact> 0.65713425E+04</totfact>
</mgrwt>
</event>
<event>
 4    2  0.4063641E+000  0.2053510E+03  0.7546771E-02  0.1145301E+00
         21   -1    0    0  501  502  0.00000000000E+00  0.00000000000E+00  0.29256064788E+03  0.29256064788E+03  0.00000000000E+00 0.  1.
         21   -1    0    0  502  503 -0.00000000000E+00 -0.00000000000E+00 -0.23260765731E+03  0.23260765731E+03  0.00000000000E+00 0.  1.
          6    1    1    2  501    0  0.43319861179E+02 -0.10180090910E+03 -0.13196355817E+03  0.24409714491E+03  0.17300000000E+03 0.  1.
         -6    1    1    2    0  503 -0.43319861179E+02  0.10180090910E+03  0.19191654874E+03  0.28107116029E+03  0.17300000000E+03 0.  1.
<mgrwt>
<rscale>  2 0.20535101E+03</rscale>
<asrwt>0</asrwt>
<pdfrwt beam="1">  1       21 0.45009330E-01 0.20535101E+03</pdfrwt>
<pdfrwt beam="2">  1       21 0.35785794E-01 0.20535101E+03</pdfrwt>
<totfact> 0.35426640E+04</totfact>
</mgrwt>
</event>
<event>
 4    2  0.4063641E+000  0.2268778E+03  0.7546771E-02  0.1128857E+00
         21   -1    0    0  501  502  0.00000000000E+00  0.00000000000E+00  0.83287128466E+03  0.83287128466E+03  0.00000000000E+00 0.  1.
         21   -1    0    0  502  503 -0.00000000000E+00 -0.00000000000E+00 -0.10135366617E+03  0.10135366617E+03  0.00000000000E+00 0.  1.
          6    1    1    2  501    0  0.46603210113E+02 -0.13918571947E+03  0.65755620208E+03  0.69559591904E+03  0.17300000000E+03 0.  1.
         -6    1    1    2    0  503 -0.46603210113E+02  0.13918571947E+03  0.73961416413E+02  0.23862903179E+03  0.17300000000E+03 0.  1.
<mgrwt>
<rscale>  2 0.22687777E+03</rscale>
<asrwt>0</asrwt>
<pdfrwt beam="1">  1       21 0.12813404E+00 0.22687777E+03</pdfrwt>
<pdfrwt beam="2">  1       21 0.15592872E-01 0.22687777E+03</pdfrwt>
<totfact> 0.16028680E+04</totfact>
</mgrwt>
</event>
<event>
 4    2  0.4063641E+000  0.1980127E+03  0.7546771E-02  0.1151427E+00
         21   -1    0    0  501  502  0.00000000000E+00  0.00000000000E+00  0.25575861276E+03  0.25575861276E+03  0.00000000000E+00 0. -1.
         21   -1    0    0  502  503 -0.00000000000E+00 -0.00000000000E+00 -0.15333992711E+03  0.15333992711E+03  0.00000000000E+00 0. -1.
          6    1    1    2  501    0 -0.20924558334E+02  0.94032942617E+02  0.48114868370E+02  0.20377456170E+03  0.17300000000E+03 0. -1.
         -6    1    1    2    0  503  0.20924558334E+02 -0.94032942617E+02  0.54303817275E+02  0.20532397816E+03  0.17300000000E+03 0. -1.
<mgrwt>
<rscale>  2 0.19801271E+03</rscale>
<asrwt>0</asrwt>
<pdfrwt beam="1">  1       21 0.39347479E-01 0.19801271E+03</pdfrwt>
<pdfrwt beam="2">  1       21 0.23590758E-01 0.19801271E+03</pdfrwt>
<totfact> 0.10510739E+05</totfact>
</mgrwt>
</event>
<event>
 4    2  0.4063641E+000  0.2070815E+03  0.7546771E-02  0.1143898E+00
         21   -1    0    0  503  502  0.00000000000E+00  0.00000000000E+00  0.15022653906E+03  0.15022653906E+03  0.00000000000E+00 0.  1.
         21   -1    0    0  501  503 -0.00000000000E+00 -0.00000000000E+00 -0.43663271129E+03  0.43663271129E+03  0.00000000000E+00 0.  1.
          6    1    1    2  501    0 -0.48463460261E+02 -0.10298086981E+03 -0.31586285034E+03  0.37769313834E+03  0.17300000000E+03 0.  1.
         -6    1    1    2    0  502  0.48463460261E+02  0.10298086981E+03  0.29456678104E+02  0.20916611201E+03  0.17300000000E+03 0.  1.
<mgrwt>
<rscale>  2 0.20708155E+03</rscale>
<asrwt>0</asrwt>
<pdfrwt beam="1">  1       21 0.23111775E-01 0.20708155E+03</pdfrwt>
<pdfrwt beam="2">  1       21 0.67174265E-01 0.20708155E+03</pdfrwt>
<totfact> 0.35400087E+04</totfact>
</mgrwt>
</event>
<event>
 4    2  0.4063641E+000  0.2457252E+03  0.7546771E-02  0.1116037E+00
         21   -1    0    0  503  502  0.00000000000E+00  0.00000000000E+00  0.16433149001E+03  0.16433149001E+03  0.00000000000E+00 0. -1.
         21   -1    0    0  501  503 -0.00000000000E+00 -0.00000000000E+00 -0.44843301742E+03  0.44843301742E+03  0.00000000000E+00 0.  1.
          6    1    1    2  501    0 -0.15381630239E+03  0.82416047156E+02 -0.27226443974E+03  0.36675439310E+03  0.17300000000E+03 0.  1.
         -6    1    1    2    0  502  0.15381630239E+03 -0.82416047156E+02 -0.11837087665E+02  0.24601011433E+03  0.17300000000E+03 0. -1.
<mgrwt>
<rscale>  2 0.24572517E+03</rscale>
<asrwt>0</asrwt>
<pdfrwt beam="1">  1       21 0.25281768E-01 0.24572517E+03</pdfrwt>
<pdfrwt beam="2">  1       21 0.68989695E-01 0.24572517E+03</pdfrwt>
<totfact> 0.27594621E+04</totfact>
</mgrwt>
</event>
<event>
 4    2  0.4063641E+000  0.1791083E+03  0.7546771E-02  0.1168669E+00
         21   -1    0    0  501  502  0.00000000000E+00  0.00000000000E+00  0.19261810623E+03  0.19261810623E+03  0.00000000000E+00 0. -1.
         21   -1    0    0  502  503 -0.00000000000E+00 -0.00000000000E+00 -0.20433198303E+03  0.20433198303E+03  0.00000000000E+00 0. -1.
          6    1    1    2  501    0 -0.13518138589E+02 -0.44362832781E+02  0.79492825433E+02  0.19595639897E+03  0.17300000000E+03 0. -1.
         -6    1    1    2    0  503  0.13518138589E+02  0.44362832781E+02 -0.91206702235E+02  0.20099369029E+03  0.17300000000E+03 0. -1.
<mgrwt>
<rscale>  2 0.17910835E+03</rscale>
<asrwt>0</asrwt>
<pdfrwt beam="1">  1       21 0.29633555E-01 0.17910835E+03</pdfrwt>
<pdfrwt beam="2">  1       21 0.31435690E-01 0.17910835E+03</pdfrwt>
<totfact> 0.10668049E+05</totfact>
</mgrwt>
</event>
<event>
 4    2  0.4063641E+000  0.3138328E+03  0.7546771E-02  0.1078523E+00
         21   -1    0    0  503  502  0.00000000000E+00  0.00000000000E+00  0.11237983264E+03  0.11237983264E+03  0.00000000000E+00 0. -1.
         21   -1    0    0  501  503 -0.00000000000E+00 -0.00000000000E+00 -0.87642579949E+03  0.87642579949E+03  0.00000000000E+00 0. -1.
          6    1    1    2  501    0 -0.26129613598E+03 -0.16922295872E+02 -0.38006174895E+03  0.49288737841E+03  0.17300000000E+03 0. -1.
         -6    1    1    2    0  502  0.26129613598E+03  0.16922295872E+02 -0.38398421790E+03  0.49591825372E+03  0.17300000000E+03 0. -1.
<mgrwt>
<rscale>  2 0.31383281E+03</rscale>
<asrwt>0</asrwt>
<pdfrwt beam="1">  1       21 0.17289204E-01 0.31383281E+03</pdfrwt>
<pdfrwt beam="2">  1       21 0.13483474E+00 0.31383281E+03</pdfrwt>
<totfact> 0.11113230E+04</totfact>
</mgrwt>
</event>
<event>
 4    2  0.4063641E+000  0.2084705E+03  0.7546771E-02  0.1142783E+00
         21   -1    0    0  501  502  0.00000000000E+00  0.00000000000E+00  0.22743924743E+03  0.22743924743E+03  0.00000000000E+00 0.  1.
         21   -1    0    0  502  503 -0.00000000000E+00 -0.00000000000E+00 -0.21979787748E+03  0.21979787748E+03  0.00000000000E+00 0.  1.
          6    1    1    2  501    0  0.10334607911E+03  0.53390546416E+02  0.84645237797E+02  0.22499950844E+03  0.17300000000E+03 0.  1.
         -6    1    1    2    0  503 -0.10334607911E+03 -0.53390546416E+02 -0.77003867843E+02  0.22223761648E+03  0.17300000000E+03 0.  1.
<mgrwt>
<rscale>  2 0.20847053E+03</rscale>
<asrwt>0</asrwt>
<pdfrwt beam="1">  1       21 0.34990654E-01 0.20847053E+03</pdfrwt>
<pdfrwt beam="2">  1       21 0.33815058E-01 0.20847053E+03</pdfrwt>
<totfact> 0.65863547E+04</totfact>
</mgrwt>
</event>
<event>
 4    2  0.4063641E+000  0.1882270E+03  0.7546771E-02  0.1160070E+00
         21   -1    0    0  501  502  0.00000000000E+00  0.00000000000E+00  0.34733148972E+02  0.34733148972E+02  0.00000000000E+00 0.  1.
         21   -1    0    0  502  503 -0.00000000000E+00 -0.00000000000E+00 -0.24615593435E+04  0.24615593435E+04  0.00000000000E+00 0.  1.
          6    1    1    2  501    0  0.50715015601E+02  0.54114748698E+02 -0.25826742223E+03  0.31958016243E+03  0.17300000000E+03 0.  1.
         -6    1    1    2    0  503 -0.50715015601E+02 -0.54114748698E+02 -0.21685587723E+04  0.21767123300E+04  0.17300000000E+03 0.  1.
<mgrwt>
<rscale>  2 0.18822704E+03</rscale>
<asrwt>0</asrwt>
<pdfrwt beam="1">  1       21 0.53435627E-02 0.18822704E+03</pdfrwt>
<pdfrwt beam="2">  1       21 0.37870135E+00 0.18822704E+03</pdfrwt>
<totfact> 0.28474059E+03</totfact>
</mgrwt>
</event>
<event>
 4    2  0.4063641E+000  0.2023156E+03  0.7546771E-02  0.1147800E+00
         21   -1    0    0  501  502  0.00000000000E+00  0.00000000000E+00  0.14176749453E+03  0.14176749453E+03  0.00000000000E+00 0. -1.
         21   -1    0    0  502  503 -0.00000000000E+00 -0.00000000000E+00 -0.47597189140E+03  0.47597189140E+03  0.00000000000E+00 0. -1.
          6    1    1    2  501    0  0.44615595848E+02  0.94931742446E+02  0.26626453037E+02  0.20406017524E+03  0.17300000000E+03 0. -1.
         -6    1    1    2    0  503 -0.44615595848E+02 -0.94931742446E+02 -0.36083084991E+03  0.41367921070E+03  0.17300000000E+03 0. -1.
<mgrwt>
<rscale>  2 0.20231556E+03</rscale>
<asrwt>0</asrwt>
<pdfrwt beam="1">  1       21 0.21810384E-01 0.20231556E+03</pdfrwt>
<pdfrwt beam="2">  1       21 0.73226446E-01 0.20231556E+03</pdfrwt>
<totfact> 0.32729798E+04</totfact>
</mgrwt>
</event>
<event>
 4    2  0.4063641E+000  0.1840322E+03  0.7546771E-02  0.1163957E+00
         21   -1    0    0  503  502  0.00000000000E+00  0.00000000000E+00  0.12939754911E+03  0.12939754911E+03  0.00000000000E+00 0. -1.
         21   -1    0    0  501  503 -0.00000000000E+00 -0.00000000000E+00 -0.29796326229E+03  0.29796326229E+03  0.00000000000E+00 0. -1.
          6    1    1    2  501    0 -0.85013249514E+01  0.62181752886E+02 -0.15879177009E+03  0.24306926825E+03  0.17300000000E+03 0. -1.
         -6    1    1    2    0  502  0.85013249514E+01 -0.62181752886E+02 -0.97739430917E+01  0.18429154316E+03  0.17300000000E+03 0. -1.
<mgrwt>
<rscale>  2 0.18403218E+03</rscale>
<asrwt>0</asrwt>
<pdfrwt beam="1">  1       21 0.19907316E-01 0.18403218E+03</pdfrwt>
<pdfrwt beam="2">  1       21 0.45840501E-01 0.18403218E+03</pdfrwt>
<totfact> 0.10655295E+05</totfact>
</mgrwt>
</event>
<event>
 4    2  0.4063641E+000  0.1846384E+03  0.7546771E-02  0.1163388E+00
         21   -1    0    0  501  502  0.00000000000E+00  0.00000000000E+00  0.47265547886E+03  0.47265547886E+03  0.00000000000E+00 0.  1.
         21   -1    0    0  502  503 -0.00000000000E+00 -0.00000000000E+00 -0.86234105704E+02  0.86234105704E+02  0.00000000000E+00 0.  1.
          6    1    1    2  501    0 -0.62180487048E+02 -0.17202886404E+02  0.30623482299E+03  0.35759071448E+03  0.17300000000E+03 0.  1.
         -6    1    1    2    0  503  0.62180487048E+02  0.17202886404E+02  0.80186550166E+02  0.20129887009E+03  0.17300000000E+03 0.  1.
<mgrwt>
<rscale>  2 0.18463844E+03</rscale>
<asrwt>0</asrwt>
<pdfrwt beam="1">  1       21 0.72716226E-01 0.18463844E+03</pdfrwt>
<pdfrwt beam="2">  1       21 0.13266786E-01 0.18463844E+03</pdfrwt>
<totfact> 0.83740208E+04</totfact>
</mgrwt>
</event>
<event>
 4    2  0.4063641E+000  0.3177089E+03  0.7546771E-02  0.1076709E+00
         21   -1    0    0  501  502  0.00000000000E+00  0.00000000000E+00  0.59294321538E+03  0.59294321538E+03  0.00000000000E+00 0. -1.
         21   -1    0    0  502  503 -0.00000000000E+00 -0.00000000000E+00 -0.17135973230E+03  0.17135973230E+03  0.00000000000E+00 0.  1.
          6    1    1    2  501    0  0.22792410663E+03 -0.13806000338E+03  0.24176891486E+03  0.39923823853E+03  0.17300000000E+03 0.  1.
         -6    1    1    2    0  503 -0.22792410663E+03  0.13806000338E+03  0.17981456823E+03  0.36506470915E+03  0.17300000000E+03 0.  1.
<mgrwt>
<rscale>  2 0.31770893E+03</rscale>
<asrwt>0</asrwt>
<pdfrwt beam="1">  1       21 0.91222032E-01 0.31770893E+03</pdfrwt>
<pdfrwt beam="2">  1       21 0.26363036E-01 0.31770893E+03</pdfrwt>
<totfact> 0.13042246E+04</totfact>
</mgrwt>
</event>
<event>
 4    2  0.4063641E+000  0.2705991E+03  0.7546771E-02  0.1100937E+00
         21   -1    0    0  501  502  0.00000000000E+00  0.00000000000E+00  0.33075304213E+03  0.33075304213E+03  0.00000000000E+00 0. -1.
         21   -1    0    0  502  503 -0.00000000000E+00 -0.00000000000E+00 -0.27269009676E+03  0.27269009676E+03  0.00000000000E+00 0.  1.
          6    1    1    2  501    0  0.13626341588E+03  0.15724876829E+03  0.15990453030E+03  0.31431409840E+03  0.17300000000E+03 0.  1.
         -6    1    1    2    0  503 -0.13626341588E+03 -0.15724876829E+03 -0.10184158493E+03  0.28912904050E+03  0.17300000000E+03 0. -1.
<mgrwt>
<rscale>  2 0.27059914E+03</rscale>
<asrwt>0</asrwt>
<pdfrwt beam="1">  1       21 0.50885083E-01 0.27059914E+03</pdfrwt>
<pdfrwt beam="2">  1       21 0.41952323E-01 0.27059914E+03</pdfrwt>
<totfact> 0.19282238E+04</totfact>
</mgrwt>
</event>
<event>
 4    2  0.4063641E+000  0.1809426E+03  0.7546771E-02  0.1166894E+00
         21   -1    0    0  501  502  0.00000000000E+00  0.00000000000E+00  0.13939091462E+03  0.13939091462E+03  0.00000000000E+00 0.  1.
         21   -1    0    0  502  503 -0.00000000000E+00 -0.00000000000E+00 -0.10209609803E+04  0.10209609803E+04  0.00000000000E+00 0.  1.
          6    1    1    2  501    0  0.16384839315E+02 -0.50425808099E+02  0.68297996427E+02  0.19340331279E+03  0.17300000000E+03 0.  1.
         -6    1    1    2    0  503 -0.16384839315E+02  0.50425808099E+02 -0.94986806211E+03  0.96694858214E+03  0.17300000000E+03 0.  1.
<mgrwt>
<rscale>  2 0.18094260E+03</rscale>
<asrwt>0</asrwt>
<pdfrwt beam="1">  1       21 0.21444756E-01 0.18094260E+03</pdfrwt>
<pdfrwt beam="2">  1       21 0.15707092E+00 0.18094260E+03</pdfrwt>
<totfact> 0.54118565E+03</totfact>
</mgrwt>
</event>
<event>
 4    2  0.4063641E+000  0.2004876E+03  0.7546771E-02  0.1149328E+00
         21   -1    0    0  503  502  0.00000000000E+00  0.00000000000E+00  0.10771977255E+04  0.10771977255E+04  0.00000000000E+00 0.  1.
         21   -1    0    0  501  503 -0.00000000000E+00 -0.00000000000E+00 -0.90059438253E+02  0.90059438253E+02  0.00000000000E+00 0. -1.
          6    1    1    2  501    0 -0.71673974942E+02 -0.71617880677E+02  0.46925021940E+02  0.20590589404E+03  0.17300000000E+03 0. -1.
         -6    1    1    2    0  502  0.71673974942E+02  0.71617880677E+02  0.94021326534E+03  0.96135126974E+03  0.17300000000E+03 0.  1.
<mgrwt>
<rscale>  2 0.20048760E+03</rscale>
<asrwt>0</asrwt>
<pdfrwt beam="1">  1       21 0.16572272E+00 0.20048760E+03</pdfrwt>
<pdfrwt beam="2">  1       21 0.13855299E-01 0.20048760E+03</pdfrwt>
<totfact> 0.10304069E+04</totfact>
</mgrwt>
</event>
<event>
 4    2  0.4063641E+000  0.1983314E+03  0.7546771E-02  0.1151155E+00
         21   -1    0    0  503  502  0.00000000000E+00  0.00000000000E+00  0.11311534713E+04  0.11311534713E+04  0.00000000000E+00 0.  1.
         21   -1    0    0  501  503 -0.00000000000E+00 -0.00000000000E+00 -0.49644230128E+02  0.49644230128E+02  0.00000000000E+00 0.  1.
          6    1    1    2  501    0 -0.96791385920E+02 -0.61452868473E+01  0.21763589066E+03  0.29444985624E+03  0.17300000000E+03 0.  1.
         -6    1    1    2    0  502  0.96791385920E+02  0.61452868473E+01  0.86387335051E+03  0.88634784518E+03  0.17300000000E+03 0.  1.
<mgrwt>
<rscale>  2 0.19833138E+03</rscale>
<asrwt>0</asrwt>
<pdfrwt beam="1">  1       21 0.17402359E+00 0.19833138E+03</pdfrwt>
<pdfrwt beam="2">  1       21 0.76375747E-02 0.19833138E+03</pdfrwt>
<totfact> 0.25916501E+04</totfact>
</mgrwt>
</event>
<event>
 4    2  0.4063641E+000  0.2174633E+03  0.7546771E-02  0.1135789E+00
         21   -1    0    0  501  502  0.00000000000E+00  0.00000000000E+00  0.10149597667E+03  0.10149597667E+03  0.00000000000E+00 0. -1.
         21   -1    0    0  502  503 -0.00000000000E+00 -0.00000000000E+00 -0.76217529183E+03  0.76217529183E+03  0.00000000000E+00 0. -1.
          6    1    1    2  501    0  0.13043388902E+03 -0.18662187300E+02 -0.61114945164E+02  0.22588783315E+03  0.17300000000E+03 0. -1.
         -6    1    1    2    0  503 -0.13043388902E+03  0.18662187300E+02 -0.59956437000E+03  0.63778343535E+03  0.17300000000E+03 0. -1.
<mgrwt>
<rscale>  2 0.21746328E+03</rscale>
<asrwt>0</asrwt>
<pdfrwt beam="1">  1       21 0.15614766E-01 0.21746328E+03</pdfrwt>
<pdfrwt beam="2">  1       21 0.11725773E+00 0.21746328E+03</pdfrwt>
<totfact> 0.20071652E+04</totfact>
</mgrwt>
</event>
<event>
 4    2  0.4063641E+000  0.1996030E+03  0.7546771E-02  0.1150074E+00
         21   -1    0    0  503  502  0.00000000000E+00  0.00000000000E+00  0.18406580456E+03  0.18406580456E+03  0.00000000000E+00 0.  1.
         21   -1    0    0  501  503 -0.00000000000E+00 -0.00000000000E+00 -0.63027045271E+03  0.63027045271E+03  0.00000000000E+00 0.  1.
          6    1    1    2  501    0  0.55483131540E+02  0.82667970651E+02 -0.55302741356E+03  0.58794616370E+03  0.17300000000E+03 0.  1.
         -6    1    1    2    0  502 -0.55483131540E+02 -0.82667970651E+02  0.10682276541E+03  0.22639009357E+03  0.17300000000E+03 0.  1.
<mgrwt>
<rscale>  2 0.19960303E+03</rscale>
<asrwt>0</asrwt>
<pdfrwt beam="1">  1       21 0.28317816E-01 0.19960303E+03</pdfrwt>
<pdfrwt beam="2">  1       21 0.96964687E-01 0.19960303E+03</pdfrwt>
<totfact> 0.10473492E+04</totfact>
</mgrwt>
</event>
<event>
 4    2  0.4063641E+000  0.1935296E+03  0.7546771E-02  0.1155316E+00
         21   -1    0    0  503  502  0.00000000000E+00  0.00000000000E+00  0.19479521179E+03  0.19479521179E+03  0.00000000000E+00 0. -1.
         21   -1    0    0  501  503 -0.00000000000E+00 -0.00000000000E+00 -0.30394553520E+03  0.30394553520E+03  0.00000000000E+00 0.  1.
          6    1    1    2  501    0  0.85396662293E+02 -0.15235822396E+02 -0.20572982576E+03  0.28245084780E+03  0.17300000000E+03 0.  1.
         -6    1    1    2    0  502 -0.85396662293E+02  0.15235822396E+02  0.96579502349E+02  0.21628989918E+03  0.17300000000E+03 0. -1.
<mgrwt>
<rscale>  2 0.19352964E+03</rscale>
<asrwt>0</asrwt>
<pdfrwt beam="1">  1       21 0.29968494E-01 0.19352964E+03</pdfrwt>
<pdfrwt beam="2">  1       21 0.46760852E-01 0.19352964E+03</pdfrwt>
<totfact> 0.46737078E+04</totfact>
</mgrwt>
</event>
<event>
 4    2  0.4063641E+000  0.2036858E+03  0.7546771E-02  0.1146666E+00
         21   -1    0    0  503  502  0.00000000000E+00  0.00000000000E+00  0.60784295046E+03  0.60784295046E+03  0.00000000000E+00 0. -1.
         21   -1    0    0  501  503 -0.00000000000E+00 -0.00000000000E+00 -0.12338659971E+03  0.12338659971E+03  0.00000000000E+00 0.  1.
          6    1    1    2  501    0  0.83329247074E+02  0.67934965098E+02 -0.21669919661E+01  0.20369737052E+03  0.17300000000E+03 0.  1.
         -6    1    1    2    0  502 -0.83329247074E+02 -0.67934965098E+02  0.48662334271E+03  0.52753217966E+03  0.17300000000E+03 0. -1.
<mgrwt>
<rscale>  2 0.20368584E+03</rscale>
<asrwt>0</asrwt>
<pdfrwt beam="1">  1       21 0.93514299E-01 0.20368584E+03</pdfrwt>
<pdfrwt beam="2">  1       21 0.18982554E-01 0.20368584E+03</pdfrwt>
<totfact> 0.24292760E+04</totfact>
</mgrwt>
</event>
<event>
 4    2  0.4063641E+000  0.2401709E+03  0.7546771E-02  0.1119679E+00
         21   -1    0    0  503  502  0.00000000000E+00  0.00000000000E+00  0.23109315533E+03  0.23109315533E+03  0.00000000000E+00 0.  1.
         21   -1    0    0  501  503 -0.00000000000E+00 -0.00000000000E+00 -0.44584289701E+03  0.44584289701E+03  0.00000000000E+00 0. -1.
          6    1    1    2  501    0  0.97644461814E+01 -0.16630612812E+03 -0.33192734733E+03  0.40970457230E+03  0.17300000000E+03 0. -1.
         -6    1    1    2    0  502 -0.97644461814E+01  0.16630612812E+03  0.11717760566E+03  0.26723148004E+03  0.17300000000E+03 0.  1.
<mgrwt>
<rscale>  2 0.24017092E+03</rscale>
<asrwt>0</asrwt>
<pdfrwt beam="1">  1       21 0.35552793E-01 0.24017092E+03</pdfrwt>
<pdfrwt beam="2">  1       21 0.68591214E-01 0.24017092E+03</pdfrwt>
<totfact> 0.14367238E+04</totfact>
</mgrwt>
</event>
<event>
 4    2  0.4063641E+000  0.1969419E+03  0.7546771E-02  0.1152345E+00
         21   -1    0    0  501  502  0.00000000000E+00  0.00000000000E+00  0.20816273479E+03  0.20816273479E+03  0.00000000000E+00 0. -1.
         21   -1    0    0  502  503 -0.00000000000E+00 -0.00000000000E+00 -0.27993698608E+03  0.27993698608E+03  0.00000000000E+00 0.  1.
          6    1    1    2  501    0 -0.15883954085E+02 -0.92762227987E+02  0.10524042978E+03  0.22329728838E+03  0.17300000000E+03 0. -1.
         -6    1    1    2    0  503  0.15883954085E+02  0.92762227987E+02 -0.17701468106E+03  0.26480243249E+03  0.17300000000E+03 0.  1.
<mgrwt>
<rscale>  2 0.19694195E+03</rscale>
<asrwt>0</asrwt>
<pdfrwt beam="1">  1       21 0.32025036E-01 0.19694195E+03</pdfrwt>
<pdfrwt beam="2">  1       21 0.43067229E-01 0.19694195E+03</pdfrwt>
<totfact> 0.48516069E+04</totfact>
</mgrwt>
</event>
<event>
 4    2  0.4063641E+000  0.2340409E+03  0.7546771E-02  0.1123828E+00
         21   -1    0    0  503  502  0.00000000000E+00  0.00000000000E+00  0.48697654687E+03  0.48697654687E+03  0.00000000000E+00 0. -1.
         21   -1    0    0  501  503 -0.00000000000E+00 -0.00000000000E+00 -0.12608994548E+03  0.12608994548E+03  0.00000000000E+00 0.  1.
          6    1    1    2  501    0 -0.15759333645E+03  0.32365959149E+01  0.79735035621E+02  0.24725050283E+03  0.17300000000E+03 0.  1.
         -6    1    1    2    0  502  0.15759333645E+03 -0.32365959149E+01  0.28115156577E+03  0.36581598951E+03  0.17300000000E+03 0. -1.
<mgrwt>
<rscale>  2 0.23404088E+03</rscale>
<asrwt>0</asrwt>
<pdfrwt beam="1">  1       21 0.74919468E-01 0.23404088E+03</pdfrwt>
<pdfrwt beam="2">  1       21 0.19398453E-01 0.23404088E+03</pdfrwt>
<totfact> 0.38149013E+04</totfact>
</mgrwt>
</event>
<event>
 4    2  0.4063641E+000  0.1741291E+03  0.7546771E-02  0.1173609E+00
         21   -1    0    0  501  502  0.00000000000E+00  0.00000000000E+00  0.44619222883E+03  0.44619222883E+03  0.00000000000E+00 0. -1.
         21   -1    0    0  502  503 -0.00000000000E+00 -0.00000000000E+00 -0.11446004553E+03  0.11446004553E+03  0.00000000000E+00 0. -1.
          6    1    1    2  501    0 -0.11009264670E+02 -0.16454519785E+02  0.34455066839E+03  0.38605196310E+03  0.17300000000E+03 0. -1.
         -6    1    1    2    0  503  0.11009264670E+02  0.16454519785E+02 -0.12818485087E+02  0.17460031125E+03  0.17300000000E+03 0. -1.
<mgrwt>
<rscale>  2 0.17412913E+03</rscale>
<asrwt>0</asrwt>
<pdfrwt beam="1">  1       21 0.68644957E-01 0.17412913E+03</pdfrwt>
<pdfrwt beam="2">  1       21 0.17609238E-01 0.17412913E+03</pdfrwt>
<totfact> 0.57046406E+04</totfact>
</mgrwt>
</event>
<event>
 4    2  0.4063641E+000  0.1784390E+03  0.7546771E-02  0.1169322E+00
         21   -1    0    0  501  502  0.00000000000E+00  0.00000000000E+00  0.55240596431E+02  0.55240596431E+02  0.00000000000E+00 0.  1.
         21   -1    0    0  502  503 -0.00000000000E+00 -0.00000000000E+00 -0.19833596696E+04  0.19833596696E+04  0.00000000000E+00 0.  1.
          6    1    1    2  501    0 -0.43658165890E+02  0.23327384297E+01 -0.10555472714E+03  0.20732167648E+03  0.17300000000E+03 0.  1.
         -6    1    1    2    0  503  0.43658165890E+02 -0.23327384297E+01 -0.18225643461E+04  0.18312785896E+04  0.17300000000E+03 0.  1.
<mgrwt>
<rscale>  2 0.17843900E+03</rscale>
<asrwt>0</asrwt>
<pdfrwt beam="1">  1       21 0.84985541E-02 0.17843900E+03</pdfrwt>
<pdfrwt beam="2">  1       21 0.30513223E+00 0.17843900E+03</pdfrwt>
<totfact> 0.35062398E+03</totfact>
</mgrwt>
</event>
<event>
 4    2  0.4063641E+000  0.2300343E+03  0.7546771E-02  0.1126616E+00
         21   -1    0    0  503  502  0.00000000000E+00  0.00000000000E+00  0.97576181297E+02  0.97576181297E+02  0.00000000000E+00 0. -1.
         21   -1    0    0  501  503 -0.00000000000E+00 -0.00000000000E+00 -0.61503518533E+03  0.61503518533E+03  0.00000000000E+00 0.  1.
          6    1    1    2  501    0 -0.20711714891E+02  0.15019249427E+03 -0.38125853481E+03  0.44527949744E+03  0.17300000000E+03 0.  1.
         -6    1    1    2    0  502  0.20711714891E+02 -0.15019249427E+03 -0.13620046922E+03  0.26733186919E+03  0.17300000000E+03 0. -1.
<mgrwt>
<rscale>  2 0.23003426E+03</rscale>
<asrwt>0</asrwt>
<pdfrwt beam="1">  1       21 0.15011720E-01 0.23003426E+03</pdfrwt>
<pdfrwt beam="2">  1       21 0.94620798E-01 0.23003426E+03</pdfrwt>
<totfact> 0.35921977E+04</totfact>
</mgrwt>
</event>
<event>
 4    2  0.4063641E+000  0.2035863E+03  0.7546771E-02  0.1146748E+00
         21   -1    0    0  503  502  0.00000000000E+00  0.00000000000E+00  0.18436209607E+03  0.18436209607E+03  0.00000000000E+00 0. -1.
         21   -1    0    0  501  503 -0.00000000000E+00 -0.00000000000E+00 -0.39940451990E+03  0.39940451990E+03  0.00000000000E+00 0. -1.
          6    1    1    2  501    0  0.65201192101E+02  0.85247680667E+02  0.85458596796E+02  0.22079523155E+03  0.17300000000E+03 0. -1.
         -6    1    1    2    0  502 -0.65201192101E+02 -0.85247680667E+02 -0.30050102062E+03  0.36297138441E+03  0.17300000000E+03 0. -1.
<mgrwt>
<rscale>  2 0.20358625E+03</rscale>
<asrwt>0</asrwt>
<pdfrwt beam="1">  1       21 0.28363400E-01 0.20358625E+03</pdfrwt>
<pdfrwt beam="2">  1       21 0.61446849E-01 0.20358625E+03</pdfrwt>
<totfact> 0.29075484E+04</totfact>
</mgrwt>
</event>
<event>
 4    2  0.4063641E+000  0.1917179E+03  0.7546771E-02  0.1156921E+00
         21   -1    0    0  501  502  0.00000000000E+00  0.00000000000E+00  0.17101190166E+03  0.17101190166E+03  0.00000000000E+00 0.  1.
         21   -1    0    0  502  503 -0.00000000000E+00 -0.00000000000E+00 -0.22369287138E+03  0.22369287138E+03  0.00000000000E+00 0.  1.
          6    1    1    2  501    0  0.34127328637E+02 -0.75246888721E+02 -0.65398784165E+02  0.20256547039E+03  0.17300000000E+03 0.  1.
         -6    1    1    2    0  503 -0.34127328637E+02  0.75246888721E+02  0.12717814449E+02  0.19213930266E+03  0.17300000000E+03 0.  1.
<mgrwt>
<rscale>  2 0.19171794E+03</rscale>
<asrwt>0</asrwt>
<pdfrwt beam="1">  1       21 0.26309523E-01 0.19171794E+03</pdfrwt>
<pdfrwt beam="2">  1       21 0.34414288E-01 0.19171794E+03</pdfrwt>
<totfact> 0.11181942E+05</totfact>
</mgrwt>
</event>
<event>
 4    2  0.4063641E+000  0.1730934E+03  0.7546771E-02  0.1174660E+00
         21   -1    0    0  503  502  0.00000000000E+00  0.00000000000E+00  0.13521007415E+03  0.13521007415E+03  0.00000000000E+00 0. -1.
         21   -1    0    0  501  503 -0.00000000000E+00 -0.00000000000E+00 -0.22161559378E+03  0.22161559378E+03  0.00000000000E+00 0. -1.
          6    1    1    2  501    0  0.40625328800E+01  0.39776200837E+01 -0.45085041127E+02  0.17886862936E+03  0.17300000000E+03 0. -1.
         -6    1    1    2    0  502 -0.40625328800E+01 -0.39776200837E+01 -0.41320478497E+02  0.17795703857E+03  0.17300000000E+03 0. -1.
<mgrwt>
<rscale>  2 0.17309340E+03</rscale>
<asrwt>0</asrwt>
<pdfrwt beam="1">  1       21 0.20801550E-01 0.17309340E+03</pdfrwt>
<pdfrwt beam="2">  1       21 0.34094707E-01 0.17309340E+03</pdfrwt>
<totfact> 0.17881950E+05</totfact>
</mgrwt>
</event>
<event>
 4    2  0.4063641E+000  0.2041094E+03  0.7546771E-02  0.1146317E+00
         21   -1    0    0  501  502  0.00000000000E+00  0.00000000000E+00  0.38724366495E+03  0.38724366495E+03  0.00000000000E+00 0. -1.
         21   -1    0    0  502  503 -0.00000000000E+00 -0.00000000000E+00 -0.13571529661E+03  0.13571529661E+03  0.00000000000E+00 0. -1.
          6    1    1    2  501    0  0.56331218134E+02 -0.92511904415E+02  0.24481416449E+03  0.31873913116E+03  0.17300000000E+03 0. -1.
         -6    1    1    2    0  503 -0.56331218134E+02  0.92511904415E+02  0.67142038439E+01  0.20421983040E+03  0.17300000000E+03 0. -1.
<mgrwt>
<rscale>  2 0.20410943E+03</rscale>
<asrwt>0</asrwt>
<pdfrwt beam="1">  1       21 0.59575948E-01 0.20410943E+03</pdfrwt>
<pdfrwt beam="2">  1       21 0.20879277E-01 0.20410943E+03</pdfrwt>
<totfact> 0.55725634E+04</totfact>
</mgrwt>
</event>
<event>
 4    2  0.4063641E+000  0.2014241E+03  0.7546771E-02  0.1148543E+00
         21   -1    0    0  501  502  0.00000000000E+00  0.00000000000E+00  0.83092460683E+03  0.83092460683E+03  0.00000000000E+00 0. -1.
         21   -1    0    0  502  503 -0.00000000000E+00 -0.00000000000E+00 -0.80476424562E+02  0.80476424562E+02  0.00000000000E+00 0. -1.
          6    1    1    2  501    0 -0.30924642923E+02  0.98419112197E+02  0.66100109045E+03  0.69100947661E+03  0.17300000000E+03 0. -1.
         -6    1    1    2    0  503  0.30924642923E+02 -0.98419112197E+02  0.89447091818E+02  0.22039155478E+03  0.17300000000E+03 0. -1.
<mgrwt>
<rscale>  2 0.20142407E+03</rscale>
<asrwt>0</asrwt>
<pdfrwt beam="1">  1       21 0.12783455E+00 0.20142407E+03</pdfrwt>
<pdfrwt beam="2">  1       21 0.12380989E-01 0.20142407E+03</pdfrwt>
<totfact> 0.24884897E+04</totfact>
</mgrwt>
</event>
<event>
 4    2  0.4063641E+000  0.1788666E+03  0.7546771E-02  0.1168905E+00
         21   -1    0    0  503  502  0.00000000000E+00  0.00000000000E+00  0.11646710919E+03  0.11646710919E+03  0.00000000000E+00 0.  1.
         21   -1    0    0  501  503 -0.00000000000E+00 -0.00000000000E+00 -0.36748714592E+03  0.36748714592E+03  0.00000000000E+00 0.  1.
          6    1    1    2  501    0 -0.43826818002E+02 -0.11977505237E+02 -0.24710130646E+03  0.30504476108E+03  0.17300000000E+03 0.  1.
         -6    1    1    2    0  502  0.43826818002E+02  0.11977505237E+02 -0.39187302668E+01  0.17890949403E+03  0.17300000000E+03 0.  1.
<mgrwt>
<rscale>  2 0.17886657E+03</rscale>
<asrwt>0</asrwt>
<pdfrwt beam="1">  1       21 0.17918017E-01 0.17886657E+03</pdfrwt>
<pdfrwt beam="2">  1       21 0.56536484E-01 0.17886657E+03</pdfrwt>
<totfact> 0.83770726E+04</totfact>
</mgrwt>
</event>
<event>
 4    2  0.4063641E+000  0.2165423E+03  0.7546771E-02  0.1136487E+00
         21   -1    0    0  503  502  0.00000000000E+00  0.00000000000E+00  0.32312484245E+03  0.32312484245E+03  0.00000000000E+00 0.  1.
         21   -1    0    0  501  503 -0.00000000000E+00 -0.00000000000E+00 -0.15649496121E+03  0.15649496121E+03  0.00000000000E+00 0.  1.
          6    1    1    2  501    0 -0.92130148584E+01 -0.12991024776E+03  0.18649809736E+02  0.21734389230E+03  0.17300000000E+03 0.  1.
         -6    1    1    2    0  502  0.92130148584E+01  0.12991024776E+03  0.14798007150E+03  0.26227591136E+03  0.17300000000E+03 0.  1.
<mgrwt>
<rscale>  2 0.21654226E+03</rscale>
<asrwt>0</asrwt>
<pdfrwt beam="1">  1       21 0.49711514E-01 0.21654226E+03</pdfrwt>
<pdfrwt beam="2">  1       21 0.24076148E-01 0.21654226E+03</pdfrwt>
<totfact> 0.62086269E+04</totfact>
</mgrwt>
</event>
<event>
 4    2  0.4063641E+000  0.1781424E+03  0.7546771E-02  0.1169613E+00
         21   -1    0    0  503  502  0.00000000000E+00  0.00000000000E+00  0.11120924745E+03  0.11120924745E+03  0.00000000000E+00 0.  1.
         21   -1    0    0  501  503 -0.00000000000E+00 -0.00000000000E+00 -0.29026106063E+03  0.29026106063E+03  0.00000000000E+00 0.  1.
          6    1    1    2  501    0  0.21452821904E+02  0.36680888350E+02 -0.63442877012E+02  0.18910237910E+03  0.17300000000E+03 0.  1.
         -6    1    1    2    0  502 -0.21452821904E+02 -0.36680888350E+02 -0.11560893616E+03  0.21236792898E+03  0.17300000000E+03 0.  1.
<mgrwt>
<rscale>  2 0.17814239E+03</rscale>
<asrwt>0</asrwt>
<pdfrwt beam="1">  1       21 0.17109115E-01 0.17814239E+03</pdfrwt>
<pdfrwt beam="2">  1       21 0.44655547E-01 0.17814239E+03</pdfrwt>
<totfact> 0.14912634E+05</totfact>
</mgrwt>
</event>
<event>
 4    2  0.4063641E+000  0.2338333E+03  0.7546771E-02  0.1123970E+00
         21   -1    0    0  503  502  0.00000000000E+00  0.00000000000E+00  0.31192013661E+03  0.31192013661E+03  0.00000000000E+00 0. -1.
         21   -1    0    0  501  503 -0.00000000000E+00 -0.00000000000E+00 -0.77544880239E+03  0.77544880239E+03  0.00000000000E+00 0. -1.
          6    1    1    2  501    0  0.15044173009E+03  0.46003195866E+02 -0.71006576470E+03  0.74757701836E+03  0.17300000000E+03 0. -1.
         -6    1    1    2    0  502 -0.15044173009E+03 -0.46003195866E+02  0.24653709893E+03  0.33979192064E+03  0.17300000000E+03 0. -1.
<mgrwt>
<rscale>  2 0.23383329E+03</rscale>
<asrwt>0</asrwt>
<pdfrwt beam="1">  1       21 0.47987714E-01 0.23383329E+03</pdfrwt>
<pdfrwt beam="2">  1       21 0.11929981E+00 0.23383329E+03</pdfrwt>
<totfact> 0.21469523E+03</totfact>
</mgrwt>
</event>
<event>
 4    2  0.4063641E+000  0.1896669E+03  0.7546771E-02  0.1158762E+00
         21   -1    0    0  503  502  0.00000000000E+00  0.00000000000E+00  0.97758889629E+03  0.97758889629E+03  0.00000000000E+00 0.  1.
         21   -1    0    0  501  503 -0.00000000000E+00 -0.00000000000E+00 -0.50402203323E+02  0.50402203323E+02  0.00000000000E+00 0.  1.
          6    1    1    2  501    0  0.52221160142E+02 -0.57597705577E+02  0.19655882150E+03  0.27314632629E+03  0.17300000000E+03 0.  1.
         -6    1    1    2    0  502 -0.52221160142E+02  0.57597705577E+02  0.73062787146E+03  0.75484477332E+03  0.17300000000E+03 0.  1.
<mgrwt>
<rscale>  2 0.18966693E+03</rscale>
<asrwt>0</asrwt>
<pdfrwt beam="1">  1       21 0.15039828E+00 0.18966693E+03</pdfrwt>
<pdfrwt beam="2">  1       21 0.77541858E-02 0.18966693E+03</pdfrwt>
<totfact> 0.37673000E+04</totfact>
</mgrwt>
</event>
<event>
 4    2  0.4063641E+000  0.2161702E+03  0.7546771E-02  0.1136771E+00
         21   -1    0    0  503  502  0.00000000000E+00  0.00000000000E+00  0.70500613799E+03  0.70500613799E+03  0.00000000000E+00 0.  1.
         21   -1    0    0  501  503 -0.00000000000E+00 -0.00000000000E+00 -0.67450738011E+02  0.67450738011E+02  0.00000000000E+00 0.  1.
          6    1    1    2  501    0 -0.92224438080E+02 -0.91077923576E+02  0.36960833999E+03  0.42818204088E+03  0.17300000000E+03 0.  1.
         -6    1    1    2    0  502  0.92224438080E+02  0.91077923576E+02  0.26794705999E+03  0.34427483513E+03  0.17300000000E+03 0.  1.
<mgrwt>
<rscale>  2 0.21617015E+03</rscale>
<asrwt>0</asrwt>
<pdfrwt beam="1">  1       21 0.10846248E+00 0.21617015E+03</pdfrwt>
<pdfrwt beam="2">  1       21 0.10377037E-01 0.21617015E+03</pdfrwt>
<totfact> 0.50746342E+04</totfact>
</mgrwt>
</event>
<event>
 4    2  0.4063641E+000  0.1836661E+03  0.7546771E-02  0.1164301E+00
         21   -1    0    0  501  502  0.00000000000E+00  0.00000000000E+00  0.96096981805E+03  0.96096981805E+03  0.00000000000E+00 0.  1.
         21   -1    0    0  502  503 -0.00000000000E+00 -0.00000000000E+00 -0.45612739237E+02  0.45612739237E+02  0.00000000000E+00 0.  1.
          6    1    1    2  501    0  0.60495019800E+02  0.12025070964E+02  0.69926093508E+03  0.72297932548E+03  0.17300000000E+03 0.  1.
         -6    1    1    2    0  503 -0.60495019800E+02 -0.12025070964E+02  0.21609614374E+03  0.28360323181E+03  0.17300000000E+03 0.  1.
<mgrwt>
<rscale>  2 0.18366614E+03</rscale>
<asrwt>0</asrwt>
<pdfrwt beam="1">  1       21 0.14784150E+00 0.18366614E+03</pdfrwt>
<pdfrwt beam="2">  1       21 0.70173452E-02 0.18366614E+03</pdfrwt>
<totfact> 0.47005296E+04</totfact>
</mgrwt>
</event>
<event>
 4    2  0.4063641E+000  0.2376862E+03  0.7546771E-02  0.1121344E+00
         21   -1    0    0  503  502  0.00000000000E+00  0.00000000000E+00  0.39948419498E+03  0.39948419498E+03  0.00000000000E+00 0.  1.
         21   -1    0    0  501  503 -0.00000000000E+00 -0.00000000000E+00 -0.33140942532E+03  0.33140942532E+03  0.00000000000E+00 0. -1.
          6    1    1    2  501    0  0.68930068470E+02 -0.14769693069E+03 -0.24266147503E+03  0.33967532901E+03  0.17300000000E+03 0. -1.
         -6    1    1    2    0  502 -0.68930068470E+02  0.14769693069E+03  0.31073624469E+03  0.39121829129E+03  0.17300000000E+03 0.  1.
<mgrwt>
<rscale>  2 0.23768622E+03</rscale>
<asrwt>0</asrwt>
<pdfrwt beam="1">  1       21 0.61459107E-01 0.23768622E+03</pdfrwt>
<pdfrwt beam="2">  1       21 0.50986066E-01 0.23768622E+03</pdfrwt>
<totfact> 0.87391446E+03</totfact>
</mgrwt>
</event>
<event>
 4    2  0.4063641E+000  0.2587831E+03  0.7546771E-02  0.1107877E+00
         21   -1    0    0  501  502  0.00000000000E+00  0.00000000000E+00  0.35333694442E+03  0.35333694442E+03  0.00000000000E+00 0. -1.
         21   -1    0    0  502  503 -0.00000000000E+00 -0.00000000000E+00 -0.18993484370E+03  0.18993484370E+03  0.00000000000E+00 0.  1.
          6    1    1    2  501    0  0.59136593843E+02 -0.18314630030E+03  0.94208895192E+02  0.27539793024E+03  0.17300000000E+03 0. -1.
         -6    1    1    2    0  503 -0.59136593843E+02  0.18314630030E+03  0.69193205536E+02  0.26787385788E+03  0.17300000000E+03 0.  1.
<mgrwt>
<rscale>  2 0.25878312E+03</rscale>
<asrwt>0</asrwt>
<pdfrwt beam="1">  1       21 0.54359530E-01 0.25878312E+03</pdfrwt>
<pdfrwt beam="2">  1       21 0.29220745E-01 0.25878312E+03</pdfrwt>
<totfact> 0.34750561E+04</totfact>
</mgrwt>
</event>
<event>
 4    2  0.4063641E+000  0.1847271E+03  0.7546771E-02  0.1163305E+00
         21   -1    0    0  503  502  0.00000000000E+00  0.00000000000E+00  0.38733722777E+02  0.38733722777E+02  0.00000000000E+00 0. -1.
         21   -1    0    0  501  503 -0.00000000000E+00 -0.00000000000E+00 -0.13431361241E+04  0.13431361241E+04  0.00000000000E+00 0. -1.
          6    1    1    2  501    0  0.63099631675E+02  0.14612742171E+02 -0.10574912097E+04  0.10735044268E+04  0.17300000000E+03 0. -1.
         -6    1    1    2    0  502 -0.63099631675E+02 -0.14612742171E+02 -0.24691119159E+03  0.30836542005E+03  0.17300000000E+03 0. -1.
<mgrwt>
<rscale>  2 0.18472708E+03</rscale>
<asrwt>0</asrwt>
<pdfrwt beam="1">  1       21 0.59590346E-02 0.18472708E+03</pdfrwt>
<pdfrwt beam="2">  1       21 0.20663631E+00 0.18472708E+03</pdfrwt>
<totfact> 0.24451178E+04</totfact>
</mgrwt>
</event>
<event>
 4    2  0.4063641E+000  0.2293449E+03  0.7546771E-02  0.1127102E+00
         21   -1    0    0  503  502  0.00000000000E+00  0.00000000000E+00  0.50119375037E+03  0.50119375037E+03  0.00000000000E+00 0.  1.
         21   -1    0    0  501  503 -0.00000000000E+00 -0.00000000000E+00 -0.24911503260E+03  0.24911503260E+03  0.00000000000E+00 0.  1.
          6    1    1    2  501    0 -0.13796198475E+03 -0.60303865452E+02 -0.15935389076E+03  0.27927178147E+03  0.17300000000E+03 0.  1.
         -6    1    1    2    0  502  0.13796198475E+03  0.60303865452E+02  0.41143260852E+03  0.47103700150E+03  0.17300000000E+03 0.  1.
<mgrwt>
<rscale>  2 0.22934486E+03</rscale>
<asrwt>0</asrwt>
<pdfrwt beam="1">  1       21 0.77106731E-01 0.22934486E+03</pdfrwt>
<pdfrwt beam="2">  1       21 0.38325390E-01 0.22934486E+03</pdfrwt>
<totfact> 0.95751233E+03</totfact>
</mgrwt>
</event>
<event>
 4    2  0.4063641E+000  0.1848955E+03  0.7546771E-02  0.1163147E+00
         21   -1    0    0  503  502  0.00000000000E+00  0.00000000000E+00  0.23232592020E+03  0.23232592020E+03  0.00000000000E+00 0.  1.
         21   -1    0    0  501  503 -0.00000000000E+00 -0.00000000000E+00 -0.16558856511E+03  0.16558856511E+03  0.00000000000E+00 0.  1.
          6    1    1    2  501    0 -0.56407634024E+02 -0.32795320900E+02 -0.33025296878E+02  0.18782178916E+03  0.17300000000E+03 0.  1.
         -6    1    1    2    0  502  0.56407634024E+02  0.32795320900E+02  0.99762651970E+02  0.21009269615E+03  0.17300000000E+03 0.  1.
<mgrwt>
<rscale>  2 0.18489552E+03</rscale>
<asrwt>0</asrwt>
<pdfrwt beam="1">  1       21 0.35742449E-01 0.18489552E+03</pdfrwt>
<pdfrwt beam="2">  1       21 0.25475164E-01 0.18489552E+03</pdfrwt>
<totfact> 0.11059380E+05</totfact>
</mgrwt>
</event>
<event>
 4    2  0.4063641E+000  0.1883050E+03  0.7546771E-02  0.1159999E+00
         21   -1    0    0  503  502  0.00000000000E+00  0.00000000000E+00  0.14898419450E+03  0.14898419450E+03  0.00000000000E+00 0. -1.
         21   -1    0    0  501  503 -0.00000000000E+00 -0.00000000000E+00 -0.23808948093E+03  0.23808948093E+03  0.00000000000E+00 0. -1.
          6    1    1    2  501    0 -0.33850002934E+01  0.74285329444E+02 -0.48229254660E+02  0.19438320247E+03  0.17300000000E+03 0. -1.
         -6    1    1    2    0  502  0.33850002934E+01 -0.74285329444E+02 -0.40876031768E+02  0.19269047296E+03  0.17300000000E+03 0. -1.
<mgrwt>
<rscale>  2 0.18830499E+03</rscale>
<asrwt>0</asrwt>
<pdfrwt beam="1">  1       21 0.22920646E-01 0.18830499E+03</pdfrwt>
<pdfrwt beam="2">  1       21 0.36629150E-01 0.18830499E+03</pdfrwt>
<totfact> 0.12860653E+05</totfact>
</mgrwt>
</event>
<event>
 4    2  0.4063641E+000  0.2192635E+03  0.7546771E-02  0.1134433E+00
         21   -1    0    0  501  502  0.00000000000E+00  0.00000000000E+00  0.92595642878E+02  0.92595642878E+02  0.00000000000E+00 0. -1.
         21   -1    0    0  502  503 -0.00000000000E+00 -0.00000000000E+00 -0.79756707104E+03  0.79756707104E+03  0.00000000000E+00 0.  1.
          6    1    1    2  501    0 -0.11842347110E+02  0.13419106457E+03 -0.89545038953E+02  0.23684340184E+03  0.17300000000E+03 0. -1.
         -6    1    1    2    0  503  0.11842347110E+02 -0.13419106457E+03 -0.61542638921E+03  0.65331931207E+03  0.17300000000E+03 0.  1.
<mgrwt>
<rscale>  2 0.21926350E+03</rscale>
<asrwt>0</asrwt>
<pdfrwt beam="1">  1       21 0.14245484E-01 0.21926350E+03</pdfrwt>
<pdfrwt beam="2">  1       21 0.12270262E+00 0.21926350E+03</pdfrwt>
<totfact> 0.21177581E+04</totfact>
</mgrwt>
</event>
<event>
 4    2  0.4063641E+000  0.1748810E+03  0.7546771E-02  0.1172851E+00
         21   -1    0    0  501  502  0.00000000000E+00  0.00000000000E+00  0.10167002842E+03  0.10167002842E+03  0.00000000000E+00 0.  1.
         21   -1    0    0  502  503 -0.00000000000E+00 -0.00000000000E+00 -0.44611752746E+03  0.44611752746E+03  0.00000000000E+00 0.  1.
          6    1    1    2  501    0 -0.24075493167E+02  0.86443540666E+01 -0.15908379539E+02  0.17560304886E+03  0.17300000000E+03 0.  1.
         -6    1    1    2    0  503  0.24075493167E+02 -0.86443540666E+01 -0.32853911950E+03  0.37218450703E+03  0.17300000000E+03 0.  1.
<mgrwt>
<rscale>  2 0.17488097E+03</rscale>
<asrwt>0</asrwt>
<pdfrwt beam="1">  1       21 0.15641543E-01 0.17488097E+03</pdfrwt>
<pdfrwt beam="2">  1       21 0.68633465E-01 0.17488097E+03</pdfrwt>
<totfact> 0.70875157E+04</totfact>
</mgrwt>
</event>
<event>
 4    2  0.4063641E+000  0.2199521E+03  0.7546771E-02  0.1133919E+00
         21   -1    0    0  503  502  0.00000000000E+00  0.00000000000E+00  0.83363158344E+03  0.83363158344E+03  0.00000000000E+00 0. -1.
         21   -1    0    0  501  503 -0.00000000000E+00 -0.00000000000E+00 -0.58601206606E+02  0.58601206606E+02  0.00000000000E+00 0. -1.
          6    1    1    2  501    0  0.13577194265E+03  0.39855143758E+01  0.34362191662E+03  0.40798888014E+03  0.17300000000E+03 0. -1.
         -6    1    1    2    0  502 -0.13577194265E+03 -0.39855143758E+01  0.43140846021E+03  0.48424390990E+03  0.17300000000E+03 0. -1.
<mgrwt>
<rscale>  2 0.21995205E+03</rscale>
<asrwt>0</asrwt>
<pdfrwt beam="1">  1       21 0.12825100E+00 0.21995205E+03</pdfrwt>
<pdfrwt beam="2">  1       21 0.90155708E-02 0.21995205E+03</pdfrwt>
<totfact> 0.42917642E+04</totfact>
</mgrwt>
</event>
<event>
 4    2  0.4063641E+000  0.2841385E+03  0.7546771E-02  0.1093450E+00
         21   -1    0    0  503  502  0.00000000000E+00  0.00000000000E+00  0.73899637442E+03  0.73899637442E+03  0.00000000000E+00 0. -1.
         21   -1    0    0  501  503 -0.00000000000E+00 -0.00000000000E+00 -0.37840453507E+03  0.37840453507E+03  0.00000000000E+00 0. -1.
          6    1    1    2  501    0  0.18172976708E+03 -0.13334158351E+03 -0.29090099536E+03  0.40664244151E+03  0.17300000000E+03 0. -1.
         -6    1    1    2    0  502 -0.18172976708E+03  0.13334158351E+03  0.65149283471E+03  0.71075846799E+03  0.17300000000E+03 0. -1.
<mgrwt>
<rscale>  2 0.28413850E+03</rscale>
<asrwt>0</asrwt>
<pdfrwt beam="1">  1       21 0.11369175E+00 0.28413850E+03</pdfrwt>
<pdfrwt beam="2">  1       21 0.58216082E-01 0.28413850E+03</pdfrwt>
<totfact> 0.15497135E+03</totfact>
</mgrwt>
</event>
<event>
 4    2  0.4063641E+000  0.2288631E+03  0.7546771E-02  0.1127443E+00
         21   -1    0    0  501  502  0.00000000000E+00  0.00000000000E+00  0.23590673785E+02  0.23590673785E+02  0.00000000000E+00 0. -1.
         21   -1    0    0  502  503 -0.00000000000E+00 -0.00000000000E+00 -0.23084821528E+04  0.23084821528E+04  0.00000000000E+00 0. -1.
          6    1    1    2  501    0  0.97217148594E+02  0.11400939488E+03 -0.91454531163E+03  0.94274675450E+03  0.17300000000E+03 0. -1.
         -6    1    1    2    0  503 -0.97217148594E+02 -0.11400939488E+03 -0.13703461674E+04  0.13893260721E+04  0.17300000000E+03 0. -1.
<mgrwt>
<rscale>  2 0.22886309E+03</rscale>
<asrwt>0</asrwt>
<pdfrwt beam="1">  1       21 0.36293338E-02 0.22886309E+03</pdfrwt>
<pdfrwt beam="2">  1       21 0.35515116E+00 0.22886309E+03</pdfrwt>
<totfact> 0.72093343E+03</totfact>
</mgrwt>
</event>
<event>
 4    2  0.4063641E+000  0.2040866E+03  0.7546771E-02  0.1146336E+00
         21   -1    0    0  501  502  0.00000000000E+00  0.00000000000E+00  0.33887437816E+03  0.33887437816E+03  0.00000000000E+00 0.  1.
         21   -1    0    0  502  503 -0.00000000000E+00 -0.00000000000E+00 -0.12442566768E+03  0.12442566768E+03  0.00000000000E+00 0.  1.
          6    1    1    2  501    0  0.10441235782E+03 -0.28642379695E+02  0.13278444631E+03  0.24348107845E+03  0.17300000000E+03 0. -1.
         -6    1    1    2    0  503 -0.10441235782E+03  0.28642379695E+02  0.81664264173E+02  0.21981896739E+03  0.17300000000E+03 0. -1.
<mgrwt>
<rscale>  2 0.20408657E+03</rscale>
<asrwt>0</asrwt>
<pdfrwt beam="1">  1       21 0.52134519E-01 0.20408657E+03</pdfrwt>
<pdfrwt beam="2">  1       21 0.19142411E-01 0.20408657E+03</pdfrwt>
<totfact> 0.87031208E+04</totfact>
</mgrwt>
</event>
<event>
 4    2  0.4063641E+000  0.2085278E+03  0.7546771E-02  0.1142737E+00
         21   -1    0    0  503  502  0.00000000000E+00  0.00000000000E+00  0.68499022299E+03  0.68499022299E+03  0.00000000000E+00 0.  1.
         21   -1    0    0  501  503 -0.00000000000E+00 -0.00000000000E+00 -0.65709222030E+02  0.65709222030E+02  0.00000000000E+00 0. -1.
          6    1    1    2  501    0 -0.72953641639E+02  0.90733827968E+02  0.37876031949E+03  0.43236933400E+03  0.17300000000E+03 0.  1.
         -6    1    1    2    0  502  0.72953641639E+02 -0.90733827968E+02  0.24052068148E+03  0.31833011102E+03  0.17300000000E+03 0.  1.
<mgrwt>
<rscale>  2 0.20852784E+03</rscale>
<asrwt>0</asrwt>
<pdfrwt beam="1">  1       21 0.10538311E+00 0.20852784E+03</pdfrwt>
<pdfrwt beam="2">  1       21 0.10109112E-01 0.20852784E+03</pdfrwt>
<totfact> 0.57198307E+04</totfact>
</mgrwt>
</event>
<event>
 4    2  0.4063641E+000  0.2173701E+03  0.7546771E-02  0.1135859E+00
         21   -1    0    0  503  502  0.00000000000E+00  0.00000000000E+00  0.44129752062E+02  0.44129752062E+02  0.00000000000E+00 0.  1.
         21   -1    0    0  501  503 -0.00000000000E+00 -0.00000000000E+00 -0.11523267920E+04  0.11523267920E+04  0.00000000000E+00 0.  1.
          6    1    1    2  501    0 -0.93874650103E+02 -0.92240472508E+02 -0.39487995329E+03  0.45075484713E+03  0.17300000000E+03 0.  1.
         -6    1    1    2    0  502  0.93874650103E+02  0.92240472508E+02 -0.71331708660E+03  0.74570169689E+03  0.17300000000E+03 0.  1.
<mgrwt>
<rscale>  2 0.21737009E+03</rscale>
<asrwt>0</asrwt>
<pdfrwt beam="1">  1       21 0.67891926E-02 0.21737009E+03</pdfrwt>
<pdfrwt beam="2">  1       21 0.17728105E+00 0.21737009E+03</pdfrwt>
<totfact> 0.29799733E+04</totfact>
</mgrwt>
</event>
<event>
 4    2  0.4063641E+000  0.1856522E+03  0.7546771E-02  0.1162442E+00
         21   -1    0    0  501  502  0.00000000000E+00  0.00000000000E+00  0.97610417666E+02  0.97610417666E+02  0.00000000000E+00 0. -1.
         21   -1    0    0  502  503 -0.00000000000E+00 -0.00000000000E+00 -0.40831599733E+03  0.40831599733E+03  0.00000000000E+00 0. -1.
          6    1    1    2  501    0 -0.59873651173E+02 -0.30868668550E+02 -0.62333747018E+02  0.19583724064E+03  0.17300000000E+03 0. -1.
         -6    1    1    2    0  503  0.59873651173E+02  0.30868668550E+02 -0.24837183265E+03  0.31008917436E+03  0.17300000000E+03 0. -1.
<mgrwt>
<rscale>  2 0.18565217E+03</rscale>
<asrwt>0</asrwt>
<pdfrwt beam="1">  1       21 0.15016987E-01 0.18565217E+03</pdfrwt>
<pdfrwt beam="2">  1       21 0.62817846E-01 0.18565217E+03</pdfrwt>
<totfact> 0.92137776E+04</totfact>
</mgrwt>
</event>
<event>
 4    2  0.4063641E+000  0.2072774E+03  0.7546771E-02  0.1143740E+00
         21   -1    0    0  503  502  0.00000000000E+00  0.00000000000E+00  0.17850899683E+03  0.17850899683E+03  0.00000000000E+00 0.  1.
         21   -1    0    0  501  503 -0.00000000000E+00 -0.00000000000E+00 -0.26627368522E+03  0.26627368522E+03  0.00000000000E+00 0.  1.
          6    1    1    2  501    0 -0.11412953578E+03 -0.30612255538E+01 -0.11282726185E+03  0.23599557846E+03  0.17300000000E+03 0.  1.
         -6    1    1    2    0  502  0.11412953578E+03  0.30612255538E+01  0.25062573458E+02  0.20878710359E+03  0.17300000000E+03 0.  1.
<mgrwt>
<rscale>  2 0.20727740E+03</rscale>
<asrwt>0</asrwt>
<pdfrwt beam="1">  1       21 0.27462923E-01 0.20727740E+03</pdfrwt>
<pdfrwt beam="2">  1       21 0.40965182E-01 0.20727740E+03</pdfrwt>
<totfact> 0.72130057E+04</totfact>
</mgrwt>
</event>
<event>
 4    2  0.4063641E+000  0.1874341E+03  0.7546771E-02  0.1160796E+00
         21   -1    0    0  501  502  0.00000000000E+00  0.00000000000E+00  0.29732773675E+03  0.29732773675E+03  0.00000000000E+00 0.  1.
         21   -1    0    0  502  503 -0.00000000000E+00 -0.00000000000E+00 -0.43246708632E+03  0.43246708632E+03  0.00000000000E+00 0.  1.
          6    1    1    2  501    0 -0.68705196034E+02 -0.21957770846E+02  0.24351094820E+03  0.30729323057E+03  0.17300000000E+03 0.  1.
         -6    1    1    2    0  503  0.68705196034E+02  0.21957770846E+02 -0.37865029777E+03  0.42250159249E+03  0.17300000000E+03 0.  1.
<mgrwt>
<rscale>  2 0.18743412E+03</rscale>
<asrwt>0</asrwt>
<pdfrwt beam="1">  1       21 0.45742729E-01 0.18743412E+03</pdfrwt>
<pdfrwt beam="2">  1       21 0.66533398E-01 0.18743412E+03</pdfrwt>
<totfact> 0.95254420E+03</totfact>
</mgrwt>
</event>
<event>
 4    2  0.4063641E+000  0.1919695E+03  0.7546771E-02  0.1156697E+00
         21   -1    0    0  503  502  0.00000000000E+00  0.00000000000E+00  0.36801218250E+03  0.36801218250E+03  0.00000000000E+00 0. -1.
         21   -1    0    0  501  503 -0.00000000000E+00 -0.00000000000E+00 -0.25310104053E+03  0.25310104053E+03  0.00000000000E+00 0. -1.
          6    1    1    2  501    0  0.67095862066E+02  0.49208135355E+02 -0.18397148811E+03  0.26589058601E+03  0.17300000000E+03 0. -1.
         -6    1    1    2    0  502 -0.67095862066E+02 -0.49208135355E+02  0.29888263008E+03  0.35522263702E+03  0.17300000000E+03 0. -1.
<mgrwt>
<rscale>  2 0.19196952E+03</rscale>
<asrwt>0</asrwt>
<pdfrwt beam="1">  1       21 0.56617259E-01 0.19196952E+03</pdfrwt>
<pdfrwt beam="2">  1       21 0.38938622E-01 0.19196952E+03</pdfrwt>
<totfact> 0.18661779E+04</totfact>
</mgrwt>
</event>
<event>
 4    2  0.4063641E+000  0.2192938E+03  0.7546771E-02  0.1134411E+00
         21   -1    0    0  503  502  0.00000000000E+00  0.00000000000E+00  0.32831102607E+03  0.32831102607E+03  0.00000000000E+00 0. -1.
         21   -1    0    0  501  503 -0.00000000000E+00 -0.00000000000E+00 -0.44211141149E+03  0.44211141149E+03  0.00000000000E+00 0.  1.
          6    1    1    2  501    0 -0.14085266864E+02 -0.13402376291E+03 -0.37190060101E+03  0.43174045537E+03  0.17300000000E+03 0.  1.
         -6    1    1    2    0  502  0.14085266864E+02  0.13402376291E+03  0.25810021560E+03  0.33868198219E+03  0.17300000000E+03 0. -1.
<mgrwt>
<rscale>  2 0.21929378E+03</rscale>
<asrwt>0</asrwt>
<pdfrwt beam="1">  1       21 0.50509389E-01 0.21929378E+03</pdfrwt>
<pdfrwt beam="2">  1       21 0.68017140E-01 0.21929378E+03</pdfrwt>
<totfact> 0.72259601E+03</totfact>
</mgrwt>
</event>
<event>
 4    2  0.4063641E+000  0.1807750E+03  0.7546771E-02  0.1167055E+00
         21   -1    0    0  503  502  0.00000000000E+00  0.00000000000E+00  0.27233840220E+03  0.27233840220E+03  0.00000000000E+00 0. -1.
         21   -1    0    0  501  503 -0.00000000000E+00 -0.00000000000E+00 -0.31733973231E+03  0.31733973231E+03  0.00000000000E+00 0. -1.
          6    1    1    2  501    0 -0.16498861377E+02  0.49783282318E+02 -0.25500668089E+03  0.31258278091E+03  0.17300000000E+03 0. -1.
         -6    1    1    2    0  502  0.16498861377E+02 -0.49783282318E+02  0.21000535078E+03  0.27709535359E+03  0.17300000000E+03 0. -1.
<mgrwt>
<rscale>  2 0.18077496E+03</rscale>
<asrwt>0</asrwt>
<pdfrwt beam="1">  1       21 0.41898216E-01 0.18077496E+03</pdfrwt>
<pdfrwt beam="2">  1       21 0.48821497E-01 0.18077496E+03</pdfrwt>
<totfact> 0.22109033E+04</totfact>
</mgrwt>
</event>
<event>
 4    2  0.4063641E+000  0.2183105E+03  0.7546771E-02  0.1135149E+00
         21   -1    0    0  501  502  0.00000000000E+00  0.00000000000E+00  0.54263776707E+03  0.54263776707E+03  0.00000000000E+00 0. -1.
         21   -1    0    0  502  503 -0.00000000000E+00 -0.00000000000E+00 -0.10145861514E+03  0.10145861514E+03  0.00000000000E+00 0. -1.
          6    1    1    2  501    0  0.12028644731E+03 -0.57110745324E+02  0.33862551395E+03  0.40289788450E+03  0.17300000000E+03 0. -1.
         -6    1    1    2    0  503 -0.12028644731E+03  0.57110745324E+02  0.10255363799E+03  0.24119849772E+03  0.17300000000E+03 0. -1.
<mgrwt>
<rscale>  2 0.21831048E+03</rscale>
<asrwt>0</asrwt>
<pdfrwt beam="1">  1       21 0.83482731E-01 0.21831048E+03</pdfrwt>
<pdfrwt beam="2">  1       21 0.15609018E-01 0.21831048E+03</pdfrwt>
<totfact> 0.44968245E+04</totfact>
</mgrwt>
</event>
<event>
 4    2  0.4063641E+000  0.1870445E+03  0.7546771E-02  0.1161154E+00
         21   -1    0    0  503  502  0.00000000000E+00  0.00000000000E+00  0.24609396347E+03  0.24609396347E+03  0.00000000000E+00 0.  1.
         21   -1    0    0  501  503 -0.00000000000E+00 -0.00000000000E+00 -0.14839258277E+03  0.14839258277E+03  0.00000000000E+00 0.  1.
          6    1    1    2  501    0 -0.26241339678E+02  0.66091219636E+02  0.84399228276E+01  0.18723485124E+03  0.17300000000E+03 0.  1.
         -6    1    1    2    0  502  0.26241339678E+02 -0.66091219636E+02  0.89261457875E+02  0.20725169501E+03  0.17300000000E+03 0.  1.
<mgrwt>
<rscale>  2 0.18704453E+03</rscale>
<asrwt>0</asrwt>
<pdfrwt beam="1">  1       21 0.37860610E-01 0.18704453E+03</pdfrwt>
<pdfrwt beam="2">  1       21 0.22829628E-01 0.18704453E+03</pdfrwt>
<totfact> 0.12134123E+05</totfact>
</mgrwt>
</event>
<event>
 4    2  0.4063641E+000  0.2029201E+03  0.7546771E-02  0.1147298E+00
         21   -1    0    0  501  502  0.00000000000E+00  0.00000000000E+00  0.10818323024E+04  0.10818323024E+04  0.00000000000E+00 0.  1.
         21   -1    0    0  502  503 -0.00000000000E+00 -0.00000000000E+00 -0.49962529272E+02  0.49962529272E+02  0.00000000000E+00 0.  1.
          6    1    1    2  501    0 -0.71122493035E+02  0.78671152096E+02  0.79212048884E+03  0.81769886145E+03  0.17300000000E+03 0.  1.
         -6    1    1    2    0  503  0.71122493035E+02 -0.78671152096E+02  0.23974928428E+03  0.31409597021E+03  0.17300000000E+03 0.  1.
<mgrwt>
<rscale>  2 0.20292008E+03</rscale>
<asrwt>0</asrwt>
<pdfrwt beam="1">  1       21 0.16643572E+00 0.20292008E+03</pdfrwt>
<pdfrwt beam="2">  1       21 0.76865438E-02 0.20292008E+03</pdfrwt>
<totfact> 0.28895509E+04</totfact>
</mgrwt>
</event>
<event>
 4    2  0.4063641E+000  0.4394488E+03  0.7546771E-02  0.1030916E+00
         21   -1    0    0  503  502  0.00000000000E+00  0.00000000000E+00  0.53232336768E+03  0.53232336768E+03  0.00000000000E+00 0. -1.
         21   -1    0    0  501  503 -0.00000000000E+00 -0.00000000000E+00 -0.66131286189E+03  0.66131286189E+03  0.00000000000E+00 0.  1.
          6    1    1    2  501    0  0.28098219134E+03  0.29023309359E+03  0.33649751536E+03  0.55348515635E+03  0.17300000000E+03 0. -1.
         -6    1    1    2    0  502 -0.28098219134E+03 -0.29023309359E+03 -0.46548700956E+03  0.64015107321E+03  0.17300000000E+03 0.  1.
<mgrwt>
<rscale>  2 0.43944879E+03</rscale>
<asrwt>0</asrwt>
<pdfrwt beam="1">  1       21 0.81895902E-01 0.43944879E+03</pdfrwt>
<pdfrwt beam="2">  1       21 0.10174044E+00 0.43944879E+03</pdfrwt>
<totfact> 0.87488395E+02</totfact>
</mgrwt>
</event>
<event>
 4    2  0.4063641E+000  0.2159579E+03  0.7546771E-02  0.1136933E+00
         21   -1    0    0  503  502  0.00000000000E+00  0.00000000000E+00  0.10123423373E+03  0.10123423373E+03  0.00000000000E+00 0. -1.
         21   -1    0    0  501  503 -0.00000000000E+00 -0.00000000000E+00 -0.47451629414E+03  0.47451629414E+03  0.00000000000E+00 0. -1.
          6    1    1    2  501    0 -0.60869838371E+01  0.12911923267E+03 -0.13750543391E+03  0.25601869457E+03  0.17300000000E+03 0. -1.
         -6    1    1    2    0  502  0.60869838371E+01 -0.12911923267E+03 -0.23577662650E+03  0.31973183330E+03  0.17300000000E+03 0. -1.
<mgrwt>
<rscale>  2 0.21595793E+03</rscale>
<asrwt>0</asrwt>
<pdfrwt beam="1">  1       21 0.15574497E-01 0.21595793E+03</pdfrwt>
<pdfrwt beam="2">  1       21 0.73002508E-01 0.21595793E+03</pdfrwt>
<totfact> 0.61183673E+04</totfact>
</mgrwt>
</event>
<event>
 4    2  0.4063641E+000  0.1917105E+03  0.7546771E-02  0.1156928E+00
         21   -1    0    0  501  502  0.00000000000E+00  0.00000000000E+00  0.18248165810E+03  0.18248165810E+03  0.00000000000E+00 0.  1.
         21   -1    0    0  502  503 -0.00000000000E+00 -0.00000000000E+00 -0.23326207665E+03  0.23326207665E+03  0.00000000000E+00 0.  1.
          6    1    1    2  501    0 -0.12208872290E+02  0.81699738979E+02  0.51428972552E+02  0.19848889926E+03  0.17300000000E+03 0.  1.
         -6    1    1    2    0  503  0.12208872290E+02 -0.81699738979E+02 -0.10220939111E+03  0.21725483549E+03  0.17300000000E+03 0.  1.
<mgrwt>
<rscale>  2 0.19171047E+03</rscale>
<asrwt>0</asrwt>
<pdfrwt beam="1">  1       21 0.28074101E-01 0.19171047E+03</pdfrwt>
<pdfrwt beam="2">  1       21 0.35886473E-01 0.19171047E+03</pdfrwt>
<totfact> 0.90798657E+04</totfact>
</mgrwt>
</event>
<event>
 4    2  0.4063641E+000  0.2121759E+03  0.7546771E-02  0.1139854E+00
         21   -1    0    0  503  502  0.00000000000E+00  0.00000000000E+00  0.47398830117E+03  0.47398830117E+03  0.00000000000E+00 0.  1.
         21   -1    0    0  501  503 -0.00000000000E+00 -0.00000000000E+00 -0.43357889066E+03  0.43357889066E+03  0.00000000000E+00 0.  1.
          6    1    1    2  501    0 -0.76087596573E+02 -0.96438058484E+02 -0.38080839294E+03  0.43592849598E+03  0.17300000000E+03 0.  1.
         -6    1    1    2    0  502  0.76087596573E+02  0.96438058484E+02  0.42121780345E+03  0.47163869585E+03  0.17300000000E+03 0.  1.
<mgrwt>
<rscale>  2 0.21217592E+03</rscale>
<asrwt>0</asrwt>
<pdfrwt beam="1">  1       21 0.72921277E-01 0.21217592E+03</pdfrwt>
<pdfrwt beam="2">  1       21 0.66704445E-01 0.21217592E+03</pdfrwt>
<totfact> 0.34316535E+03</totfact>
</mgrwt>
</event>
<event>
 4    2  0.4063641E+000  0.1789088E+03  0.7546771E-02  0.1168863E+00
         21   -1    0    0  503  502  0.00000000000E+00  0.00000000000E+00  0.27442170085E+02  0.27442170085E+02  0.00000000000E+00 0. -1.
         21   -1    0    0  501  503 -0.00000000000E+00 -0.00000000000E+00 -0.13008418648E+04  0.13008418648E+04  0.00000000000E+00 0. -1.
          6    1    1    2  501    0  0.41095319200E+02 -0.19762109345E+02 -0.85021397630E+03  0.86883379983E+03  0.17300000000E+03 0.  1.
         -6    1    1    2    0  502 -0.41095319200E+02  0.19762109345E+02 -0.42318571843E+03  0.45945023508E+03  0.17300000000E+03 0.  1.
<mgrwt>
<rscale>  2 0.17890882E+03</rscale>
<asrwt>0</asrwt>
<pdfrwt beam="1">  1       21 0.42218743E-02 0.17890882E+03</pdfrwt>
<pdfrwt beam="2">  1       21 0.20012943E+00 0.17890882E+03</pdfrwt>
<totfact> 0.48404377E+04</totfact>
</mgrwt>
</event>
<event>
 4    2  0.4063641E+000  0.2348310E+03  0.7546771E-02  0.1123285E+00
         21   -1    0    0  501  502  0.00000000000E+00  0.00000000000E+00  0.89146379296E+03  0.89146379296E+03  0.00000000000E+00 0.  1.
         21   -1    0    0  502  503 -0.00000000000E+00 -0.00000000000E+00 -0.66790787580E+02  0.66790787580E+02  0.00000000000E+00 0.  1.
          6    1    1    2  501    0  0.76088545541E+01 -0.15861497557E+03  0.28214944261E+03  0.36708842682E+03  0.17300000000E+03 0.  1.
         -6    1    1    2    0  503 -0.76088545541E+01  0.15861497557E+03  0.54252356277E+03  0.59116615372E+03  0.17300000000E+03 0.  1.
<mgrwt>
<rscale>  2 0.23483101E+03</rscale>
<asrwt>0</asrwt>
<pdfrwt beam="1">  1       21 0.13714827E+00 0.23483101E+03</pdfrwt>
<pdfrwt beam="2">  1       21 0.10275506E-01 0.23483101E+03</pdfrwt>
<totfact> 0.28476614E+04</totfact>
</mgrwt>
</event>
<event>
 4    2  0.4063641E+000  0.3547910E+03  0.7546771E-02  0.1060666E+00
         21   -1    0    0  501  502  0.00000000000E+00  0.00000000000E+00  0.10776215098E+04  0.10776215098E+04  0.00000000000E+00 0. -1.
         21   -1    0    0  502  503 -0.00000000000E+00 -0.00000000000E+00 -0.11871959731E+03  0.11871959731E+03  0.00000000000E+00 0. -1.
          6    1    1    2  501    0  0.41840614641E+02 -0.30691535777E+03  0.55532021031E+03  0.65898194956E+03  0.17300000000E+03 0. -1.
         -6    1    1    2    0  503 -0.41840614641E+02  0.30691535777E+03  0.40358170219E+03  0.53735915756E+03  0.17300000000E+03 0. -1.
<mgrwt>
<rscale>  2 0.35479103E+03</rscale>
<asrwt>0</asrwt>
<pdfrwt beam="1">  1       21 0.16578792E+00 0.35479103E+03</pdfrwt>
<pdfrwt beam="2">  1       21 0.18264554E-01 0.35479103E+03</pdfrwt>
<totfact> 0.56444092E+03</totfact>
</mgrwt>
</event>
<event>
 4    2  0.4063641E+000  0.3262889E+03  0.7546771E-02  0.1072791E+00
         21   -1    0    0  501  502  0.00000000000E+00  0.00000000000E+00  0.17926008532E+03  0.17926008532E+03  0.00000000000E+00 0. -1.
         21   -1    0    0  502  503 -0.00000000000E+00 -0.00000000000E+00 -0.94860527685E+03  0.94860527685E+03  0.00000000000E+00 0.  1.
          6    1    1    2  501    0 -0.26172815263E+03  0.89631616348E+02 -0.39837172126E+02  0.32871180814E+03  0.17300000000E+03 0. -1.
         -6    1    1    2    0  503  0.26172815263E+03 -0.89631616348E+02 -0.72950801941E+03  0.79915355403E+03  0.17300000000E+03 0.  1.
<mgrwt>
<rscale>  2 0.32628891E+03</rscale>
<asrwt>0</asrwt>
<pdfrwt beam="1">  1       21 0.27578475E-01 0.32628891E+03</pdfrwt>
<pdfrwt beam="2">  1       21 0.14593927E+00 0.32628891E+03</pdfrwt>
<totfact> 0.36827091E+03</totfact>
</mgrwt>
</event>
<event>
 4    2  0.4063641E+000  0.1961818E+03  0.7546771E-02  0.1153001E+00
         21   -1    0    0  501  502  0.00000000000E+00  0.00000000000E+00  0.30027469922E+03  0.30027469922E+03  0.00000000000E+00 0.  1.
         21   -1    0    0  502  503 -0.00000000000E+00 -0.00000000000E+00 -0.13239142931E+03  0.13239142931E+03  0.00000000000E+00 0.  1.
          6    1    1    2  501    0  0.66545579089E+02 -0.64264865754E+02  0.12255501597E+03  0.23131584253E+03  0.17300000000E+03 0.  1.
         -6    1    1    2    0  503 -0.66545579089E+02  0.64264865754E+02  0.45328253928E+02  0.20135028600E+03  0.17300000000E+03 0.  1.
<mgrwt>
<rscale>  2 0.19618177E+03</rscale>
<asrwt>0</asrwt>
<pdfrwt beam="1">  1       21 0.46196108E-01 0.19618177E+03</pdfrwt>
<pdfrwt beam="2">  1       21 0.20367912E-01 0.19618177E+03</pdfrwt>
<totfact> 0.10002381E+05</totfact>
</mgrwt>
</event>
<event>
 4    2  0.4063641E+000  0.2010052E+03  0.7546771E-02  0.1148894E+00
         21   -1    0    0  503  502  0.00000000000E+00  0.00000000000E+00  0.94652033446E+02  0.94652033446E+02  0.00000000000E+00 0. -1.
         21   -1    0    0  501  503 -0.00000000000E+00 -0.00000000000E+00 -0.10016542011E+04  0.10016542011E+04  0.00000000000E+00 0. -1.
          6    1    1    2  501    0  0.41141182536E+02 -0.93709564345E+02 -0.86874140529E+03  0.89169204808E+03  0.17300000000E+03 0. -1.
         -6    1    1    2    0  502 -0.41141182536E+02  0.93709564345E+02 -0.38260762319E+02  0.20461418642E+03  0.17300000000E+03 0. -1.
<mgrwt>
<rscale>  2 0.20100517E+03</rscale>
<asrwt>0</asrwt>
<pdfrwt beam="1">  1       21 0.14561851E-01 0.20100517E+03</pdfrwt>
<pdfrwt beam="2">  1       21 0.15410065E+00 0.20100517E+03</pdfrwt>
<totfact> 0.11452155E+04</totfact>
</mgrwt>
</event>
<event>
 4    2  0.4063641E+000  0.1740499E+03  0.7546771E-02  0.1173689E+00
         21   -1    0    0  503  502  0.00000000000E+00  0.00000000000E+00  0.38931563395E+03  0.38931563395E+03  0.00000000000E+00 0. -1.
         21   -1    0    0  501  503 -0.00000000000E+00 -0.00000000000E+00 -0.15016512778E+03  0.15016512778E+03  0.00000000000E+00 0. -1.
          6    1    1    2  501    0  0.11303170814E+01  0.19055311105E+02 -0.67661209742E+02  0.18673891346E+03  0.17300000000E+03 0. -1.
         -6    1    1    2    0  502 -0.11303170814E+01 -0.19055311105E+02  0.30681171591E+03  0.35274184826E+03  0.17300000000E+03 0. -1.
<mgrwt>
<rscale>  2 0.17404994E+03</rscale>
<asrwt>0</asrwt>
<pdfrwt beam="1">  1       21 0.59894713E-01 0.17404994E+03</pdfrwt>
<pdfrwt beam="2">  1       21 0.23102327E-01 0.17404994E+03</pdfrwt>
<totfact> 0.46197324E+04</totfact>
</mgrwt>
</event>
<event>
 4    2  0.4063641E+000  0.1875972E+03  0.7546771E-02  0.1160647E+00
         21   -1    0    0  501  502  0.00000000000E+00  0.00000000000E+00  0.23357898144E+04  0.23357898144E+04  0.00000000000E+00 0. -1.
         21   -1    0    0  502  503 -0.00000000000E+00 -0.00000000000E+00 -0.17206708551E+02  0.17206708551E+02  0.00000000000E+00 0. -1.
          6    1    1    2  501    0  0.44421411728E+02 -0.57362460234E+02  0.15741950866E+04  0.15853336823E+04  0.17300000000E+03 0. -1.
         -6    1    1    2    0  503 -0.44421411728E+02  0.57362460234E+02  0.74438801921E+03  0.76766284058E+03  0.17300000000E+03 0. -1.
<mgrwt>
<rscale>  2 0.18759721E+03</rscale>
<asrwt>0</asrwt>
<pdfrwt beam="1">  1       21 0.35935203E+00 0.18759721E+03</pdfrwt>
<pdfrwt beam="2">  1       21 0.26471878E-02 0.18759721E+03</pdfrwt>
<totfact> 0.12046545E+04</totfact>
</mgrwt>
</event>
<event>
 4    2  0.4063641E+000  0.1899325E+03  0.7546771E-02  0.1158522E+00
         21   -1    0    0  501  502  0.00000000000E+00  0.00000000000E+00  0.76336950154E+02  0.76336950154E+02  0.00000000000E+00 0.  1.
         21   -1    0    0  502  503 -0.00000000000E+00 -0.00000000000E+00 -0.66231552528E+03  0.66231552528E+03  0.00000000000E+00 0.  1.
          6    1    1    2  501    0  0.21788231315E+02 -0.75303664460E+02 -0.95307700757E+02  0.21250394521E+03  0.17300000000E+03 0.  1.
         -6    1    1    2    0  503 -0.21788231315E+02  0.75303664460E+02 -0.49067087437E+03  0.52614853022E+03  0.17300000000E+03 0.  1.
<mgrwt>
<rscale>  2 0.18993254E+03</rscale>
<asrwt>0</asrwt>
<pdfrwt beam="1">  1       21 0.11744146E-01 0.18993254E+03</pdfrwt>
<pdfrwt beam="2">  1       21 0.10189469E+00 0.18993254E+03</pdfrwt>
<totfact> 0.47945088E+04</totfact>
</mgrwt>
</event>
<event>
 4    2  0.4063641E+000  0.1735071E+03  0.7546771E-02  0.1174239E+00
         21   -1    0    0  501  502  0.00000000000E+00  0.00000000000E+00  0.16803422259E+04  0.16803422259E+04  0.00000000000E+00 0.  1.
         21   -1    0    0  502  503 -0.00000000000E+00 -0.00000000000E+00 -0.18155299746E+02  0.18155299746E+02  0.00000000000E+00 0.  1.
          6    1    1    2  501    0  0.10114655751E+02 -0.85683778190E+01  0.92862830414E+03  0.94469849720E+03  0.17300000000E+03 0. -1.
         -6    1    1    2    0  503 -0.10114655751E+02  0.85683778190E+01  0.73355862205E+03  0.75379902848E+03  0.17300000000E+03 0. -1.
<mgrwt>
<rscale>  2 0.17350713E+03</rscale>
<asrwt>0</asrwt>
<pdfrwt beam="1">  1       21 0.25851407E+00 0.17350713E+03</pdfrwt>
<pdfrwt beam="2">  1       21 0.27931244E-02 0.17350713E+03</pdfrwt>
<totfact> 0.42891338E+04</totfact>
</mgrwt>
</event>
<event>
 4    2  0.4063641E+000  0.1773436E+03  0.7546771E-02  0.1170399E+00
         21   -1    0    0  501  502  0.00000000000E+00  0.00000000000E+00  0.93571960325E+02  0.93571960325E+02  0.00000000000E+00 0. -1.
         21   -1    0    0  502  503 -0.00000000000E+00 -0.00000000000E+00 -0.39784974714E+03  0.39784974714E+03  0.00000000000E+00 0. -1.
          6    1    1    2  501    0 -0.25902483019E+02  0.29168638856E+02 -0.55347481176E+02  0.18577968617E+03  0.17300000000E+03 0. -1.
         -6    1    1    2    0  503  0.25902483019E+02 -0.29168638856E+02 -0.24893030564E+03  0.30564202130E+03  0.17300000000E+03 0. -1.
<mgrwt>
<rscale>  2 0.17734359E+03</rscale>
<asrwt>0</asrwt>
<pdfrwt beam="1">  1       21 0.14395686E-01 0.17734359E+03</pdfrwt>
<pdfrwt beam="2">  1       21 0.61207653E-01 0.17734359E+03</pdfrwt>
<totfact> 0.10555198E+05</totfact>
</mgrwt>
</event>
<event>
 4    2  0.4063641E+000  0.1783338E+03  0.7546771E-02  0.1169425E+00
         21   -1    0    0  503  502  0.00000000000E+00  0.00000000000E+00  0.20965743664E+03  0.20965743664E+03  0.00000000000E+00 0.  1.
         21   -1    0    0  501  503 -0.00000000000E+00 -0.00000000000E+00 -0.13934491755E+04  0.13934491755E+04  0.00000000000E+00 0.  1.
          6    1    1    2  501    0  0.22251565925E+02  0.37132309508E+02 -0.13485641500E+04  0.13603044539E+04  0.17300000000E+03 0.  1.
         -6    1    1    2    0  502 -0.22251565925E+02 -0.37132309508E+02  0.16477241112E+03  0.24280215827E+03  0.17300000000E+03 0.  1.
<mgrwt>
<rscale>  2 0.17833379E+03</rscale>
<asrwt>0</asrwt>
<pdfrwt beam="1">  1       21 0.32254990E-01 0.17833379E+03</pdfrwt>
<pdfrwt beam="2">  1       21 0.21437680E+00 0.17833379E+03</pdfrwt>
<totfact> 0.10250415E+03</totfact>
</mgrwt>
</event>
<event>
 4    2  0.4063641E+000  0.1924535E+03  0.7546771E-02  0.1156267E+00
         21   -1    0    0  501  502  0.00000000000E+00  0.00000000000E+00  0.16585374426E+03  0.16585374426E+03  0.00000000000E+00 0.  1.
         21   -1    0    0  502  503 -0.00000000000E+00 -0.00000000000E+00 -0.40979735255E+03  0.40979735255E+03  0.00000000000E+00 0. -1.
          6    1    1    2  501    0  0.23545040934E+01  0.84283999104E+02  0.72187707248E+02  0.20554659149E+03  0.17300000000E+03 0.  1.
         -6    1    1    2    0  503 -0.23545040934E+01 -0.84283999104E+02 -0.31613131554E+03  0.37010450532E+03  0.17300000000E+03 0. -1.
<mgrwt>
<rscale>  2 0.19245347E+03</rscale>
<asrwt>0</asrwt>
<pdfrwt beam="1">  1       21 0.25515961E-01 0.19245347E+03</pdfrwt>
<pdfrwt beam="2">  1       21 0.63045745E-01 0.19245347E+03</pdfrwt>
<totfact> 0.33928926E+04</totfact>
</mgrwt>
</event>
<event>
 4    2  0.4063641E+000  0.2852139E+03  0.7546771E-02  0.1092875E+00
         21   -1    0    0  503  502  0.00000000000E+00  0.00000000000E+00  0.75230733440E+03  0.75230733440E+03  0.00000000000E+00 0. -1.
         21   -1    0    0  501  503 -0.00000000000E+00 -0.00000000000E+00 -0.83690916213E+03  0.83690916213E+03  0.00000000000E+00 0. -1.
          6    1    1    2  501    0  0.11008252408E+02  0.22648792079E+03 -0.78380217436E+03  0.83408201540E+03  0.17300000000E+03 0. -1.
         -6    1    1    2    0  502 -0.11008252408E+02 -0.22648792079E+03  0.69920034663E+03  0.75513448114E+03  0.17300000000E+03 0. -1.
<mgrwt>
<rscale>  2 0.28521388E+03</rscale>
<asrwt>0</asrwt>
<pdfrwt beam="1">  1       21 0.11573959E+00 0.28521388E+03</pdfrwt>
<pdfrwt beam="2">  1       21 0.12875526E+00 0.28521388E+03</pdfrwt>
<totfact> 0.23260329E+02</totfact>
</mgrwt>
</event>
<event>
 4    2  0.4063641E+000  0.2493762E+03  0.7546771E-02  0.1113700E+00
         21   -1    0    0  501  502  0.00000000000E+00  0.00000000000E+00  0.39267086176E+03  0.39267086176E+03  0.00000000000E+00 0. -1.
         21   -1    0    0  502  503 -0.00000000000E+00 -0.00000000000E+00 -0.20078383173E+03  0.20078383173E+03  0.00000000000E+00 0.  1.
          6    1    1    2  501    0 -0.12739691897E+03 -0.12660769622E+03  0.23231743404E+03  0.34082234942E+03  0.17300000000E+03 0.  1.
         -6    1    1    2    0  503  0.12739691897E+03  0.12660769622E+03 -0.40430404005E+02  0.25263234408E+03  0.17300000000E+03 0.  1.
<mgrwt>
<rscale>  2 0.24937619E+03</rscale>
<asrwt>0</asrwt>
<pdfrwt beam="1">  1       21 0.60410902E-01 0.24937619E+03</pdfrwt>
<pdfrwt beam="2">  1       21 0.30889820E-01 0.24937619E+03</pdfrwt>
<totfact> 0.24949965E+04</totfact>
</mgrwt>
</event>
<event>
 4    2  0.4063641E+000  0.1938139E+03  0.7546771E-02  0.1155066E+00
         21   -1    0    0  501  502  0.00000000000E+00  0.00000000000E+00  0.53062130470E+02  0.53062130470E+02  0.00000000000E+00 0. -1.
         21   -1    0    0  502  503 -0.00000000000E+00 -0.00000000000E+00 -0.75870596864E+03  0.75870596864E+03  0.00000000000E+00 0. -1.
          6    1    1    2  501    0 -0.51649973887E+02 -0.70477584958E+02 -0.24781165386E+03  0.31460201139E+03  0.17300000000E+03 0. -1.
         -6    1    1    2    0  503  0.51649973887E+02  0.70477584958E+02 -0.45783218431E+03  0.49716608772E+03  0.17300000000E+03 0. -1.
<mgrwt>
<rscale>  2 0.19381385E+03</rscale>
<asrwt>0</asrwt>
<pdfrwt beam="1">  1       21 0.81634048E-02 0.19381385E+03</pdfrwt>
<pdfrwt beam="2">  1       21 0.11672399E+00 0.19381385E+03</pdfrwt>
<totfact> 0.65460489E+04</totfact>
</mgrwt>
</event>
<event>
 4    2  0.4063641E+000  0.1918024E+03  0.7546771E-02  0.1156846E+00
         21   -1    0    0  503  502  0.00000000000E+00  0.00000000000E+00  0.20903330479E+03  0.20903330479E+03  0.00000000000E+00 0. -1.
         21   -1    0    0  501  503 -0.00000000000E+00 -0.00000000000E+00 -0.21592705550E+03  0.21592705550E+03  0.00000000000E+00 0.  1.
          6    1    1    2  501    0  0.27080740920E+02 -0.78267546598E+02 -0.94825034533E+02  0.21396252605E+03  0.17300000000E+03 0.  1.
         -6    1    1    2    0  502 -0.27080740920E+02  0.78267546598E+02  0.87931283820E+02  0.21099783424E+03  0.17300000000E+03 0.  1.
<mgrwt>
<rscale>  2 0.19180244E+03</rscale>
<asrwt>0</asrwt>
<pdfrwt beam="1">  1       21 0.32158970E-01 0.19180244E+03</pdfrwt>
<pdfrwt beam="2">  1       21 0.33219547E-01 0.19180244E+03</pdfrwt>
<totfact> 0.81192981E+04</totfact>
</mgrwt>
</event>
<event>
 4    2  0.4063641E+000  0.2829646E+03  0.7546771E-02  0.1094081E+00
         21   -1    0    0  501  502  0.00000000000E+00  0.00000000000E+00  0.10819138029E+03  0.10819138029E+03  0.00000000000E+00 0.  1.
         21   -1    0    0  502  503 -0.00000000000E+00 -0.00000000000E+00 -0.96348572990E+03  0.96348572990E+03  0.00000000000E+00 0.  1.
          6    1    1    2  501    0  0.21047682524E+03  0.76416400564E+02 -0.16961711890E+03  0.32990745257E+03  0.17300000000E+03 0.  1.
         -6    1    1    2    0  503 -0.21047682524E+03 -0.76416400564E+02 -0.68567723072E+03  0.74176965762E+03  0.17300000000E+03 0.  1.
<mgrwt>
<rscale>  2 0.28296459E+03</rscale>
<asrwt>0</asrwt>
<pdfrwt beam="1">  1       21 0.16644828E-01 0.28296459E+03</pdfrwt>
<pdfrwt beam="2">  1       21 0.14822857E+00 0.28296459E+03</pdfrwt>
<totfact> 0.94373374E+03</totfact>
</mgrwt>
</event>
<event>
 4    2  0.4063641E+000  0.2523873E+03  0.7546771E-02  0.1111805E+00
         21   -1    0    0  503  502  0.00000000000E+00  0.00000000000E+00  0.15962150096E+03  0.15962150096E+03  0.00000000000E+00 0. -1.
         21   -1    0    0  501  503 -0.00000000000E+00 -0.00000000000E+00 -0.99639083177E+03  0.99639083177E+03  0.00000000000E+00 0. -1.
          6    1    1    2  501    0 -0.17978409750E+03  0.38052673400E+02 -0.86591586670E+03  0.90194767912E+03  0.17300000000E+03 0. -1.
         -6    1    1    2    0  502  0.17978409750E+03 -0.38052673400E+02  0.29146535887E+02  0.25406465362E+03  0.17300000000E+03 0. -1.
<mgrwt>
<rscale>  2 0.25238726E+03</rscale>
<asrwt>0</asrwt>
<pdfrwt beam="1">  1       21 0.24557154E-01 0.25238726E+03</pdfrwt>
<pdfrwt beam="2">  1       21 0.15329089E+00 0.25238726E+03</pdfrwt>
<totfact> 0.42234780E+03</totfact>
</mgrwt>
</event>
<event>
 4    2  0.4063641E+000  0.1914803E+03  0.7546771E-02  0.1157133E+00
         21   -1    0    0  503  502  0.00000000000E+00  0.00000000000E+00  0.52177704341E+03  0.52177704341E+03  0.00000000000E+00 0. -1.
         21   -1    0    0  501  503 -0.00000000000E+00 -0.00000000000E+00 -0.10254533081E+03  0.10254533081E+03  0.00000000000E+00 0. -1.
          6    1    1    2  501    0  0.40155325779E+02 -0.71576875008E+02  0.34484582776E+02  0.19456075060E+03  0.17300000000E+03 0. -1.
         -6    1    1    2    0  502 -0.40155325779E+02  0.71576875008E+02  0.38474712983E+03  0.42976162362E+03  0.17300000000E+03 0. -1.
<mgrwt>
<rscale>  2 0.19148028E+03</rscale>
<asrwt>0</asrwt>
<pdfrwt beam="1">  1       21 0.80273390E-01 0.19148028E+03</pdfrwt>
<pdfrwt beam="2">  1       21 0.15776205E-01 0.19148028E+03</pdfrwt>
<totfact> 0.48859607E+04</totfact>
</mgrwt>
</event>
<event>
 4    2  0.4063641E+000  0.1911750E+03  0.7546771E-02  0.1157406E+00
         21   -1    0    0  503  502  0.00000000000E+00  0.00000000000E+00  0.21580302397E+03  0.21580302397E+03  0.00000000000E+00 0. -1.
         21   -1    0    0  501  503 -0.00000000000E+00 -0.00000000000E+00 -0.17973583010E+03  0.17973583010E+03  0.00000000000E+00 0. -1.
          6    1    1    2  501    0 -0.17288127761E+01 -0.81338226858E+02  0.65556410079E+02  0.20210279277E+03  0.17300000000E+03 0. -1.
         -6    1    1    2    0  502  0.17288127761E+01  0.81338226858E+02 -0.29489216207E+02  0.19343606131E+03  0.17300000000E+03 0. -1.
<mgrwt>
<rscale>  2 0.19117504E+03</rscale>
<asrwt>0</asrwt>
<pdfrwt beam="1">  1       21 0.33200466E-01 0.19117504E+03</pdfrwt>
<pdfrwt beam="2">  1       21 0.27651666E-01 0.19117504E+03</pdfrwt>
<totfact> 0.10910052E+05</totfact>
</mgrwt>
</event>
<event>
 4    2  0.4063641E+000  0.2083843E+03  0.7546771E-02  0.1142852E+00
         21   -1    0    0  501  502  0.00000000000E+00  0.00000000000E+00  0.18567007627E+03  0.18567007627E+03  0.00000000000E+00 0.  1.
         21   -1    0    0  502  503 -0.00000000000E+00 -0.00000000000E+00 -0.54286179657E+03  0.54286179657E+03  0.00000000000E+00 0.  1.
          6    1    1    2  501    0 -0.11204196639E+03  0.30685599219E+02  0.96220317986E+02  0.22952637719E+03  0.17300000000E+03 0.  1.
         -6    1    1    2    0  503  0.11204196639E+03 -0.30685599219E+02 -0.45341203829E+03  0.49900549566E+03  0.17300000000E+03 0.  1.
<mgrwt>
<rscale>  2 0.20838428E+03</rscale>
<asrwt>0</asrwt>
<pdfrwt beam="1">  1       21 0.28564627E-01 0.20838428E+03</pdfrwt>
<pdfrwt beam="2">  1       21 0.83517200E-01 0.20838428E+03</pdfrwt>
<totfact> 0.14473895E+04</totfact>
</mgrwt>
</event>
<event>
 4    2  0.4063641E+000  0.1735716E+03  0.7546771E-02  0.1174174E+00
         21   -1    0    0  501  502  0.00000000000E+00  0.00000000000E+00  0.43968154662E+02  0.43968154662E+02  0.00000000000E+00 0.  1.
         21   -1    0    0  502  503 -0.00000000000E+00 -0.00000000000E+00 -0.15092609042E+04  0.15092609042E+04  0.00000000000E+00 0.  1.
          6    1    1    2  501    0 -0.13695043839E+02  0.32499477142E+01 -0.15879135425E+03  0.23524840185E+03  0.17300000000E+03 0.  1.
         -6    1    1    2    0  503  0.13695043839E+02 -0.32499477142E+01 -0.13065013952E+04  0.13179806570E+04  0.17300000000E+03 0.  1.
<mgrwt>
<rscale>  2 0.17357165E+03</rscale>
<asrwt>0</asrwt>
<pdfrwt beam="1">  1       21 0.67643325E-02 0.17357165E+03</pdfrwt>
<pdfrwt beam="2">  1       21 0.23219395E+00 0.17357165E+03</pdfrwt>
<totfact> 0.13851018E+04</totfact>
</mgrwt>
</event>
<event>
 4    2  0.4063641E+000  0.2595493E+03  0.7546771E-02  0.1107414E+00
         21   -1    0    0  503  502  0.00000000000E+00  0.00000000000E+00  0.18722848030E+03  0.18722848030E+03  0.00000000000E+00 0.  1.
         21   -1    0    0  501  503 -0.00000000000E+00 -0.00000000000E+00 -0.35980566084E+03  0.35980566084E+03  0.00000000000E+00 0. -1.
          6    1    1    2  501    0  0.14745262511E+03  0.12527804106E+03 -0.86232265661E+02  0.27349930140E+03  0.17300000000E+03 0.  1.
         -6    1    1    2    0  502 -0.14745262511E+03 -0.12527804106E+03 -0.86344914875E+02  0.27353483974E+03  0.17300000000E+03 0. -1.
<mgrwt>
<rscale>  2 0.25954935E+03</rscale>
<asrwt>0</asrwt>
<pdfrwt beam="1">  1       21 0.28804382E-01 0.25954935E+03</pdfrwt>
<pdfrwt beam="2">  1       21 0.55354717E-01 0.25954935E+03</pdfrwt>
<totfact> 0.34373682E+04</totfact>
</mgrwt>
</event>
<event>
 4    2  0.4063641E+000  0.1752006E+03  0.7546771E-02  0.1172530E+00
         21   -1    0    0  503  502  0.00000000000E+00  0.00000000000E+00  0.22905541617E+04  0.22905541617E+04  0.00000000000E+00 0.  1.
         21   -1    0    0  501  503 -0.00000000000E+00 -0.00000000000E+00 -0.36028979047E+02  0.36028979047E+02  0.00000000000E+00 0.  1.
          6    1    1    2  501    0 -0.20097079366E+02  0.19035601119E+02  0.20535486523E+03  0.26993678405E+03  0.17300000000E+03 0.  1.
         -6    1    1    2    0  502  0.20097079366E+02 -0.19035601119E+02  0.20491703174E+04  0.20566463567E+04  0.17300000000E+03 0.  1.
<mgrwt>
<rscale>  2 0.17520059E+03</rscale>
<asrwt>0</asrwt>
<pdfrwt beam="1">  1       21 0.35239283E+00 0.17520059E+03</pdfrwt>
<pdfrwt beam="2">  1       21 0.55429216E-02 0.17520059E+03</pdfrwt>
<totfact> 0.39139373E+03</totfact>
</mgrwt>
</event>
<event>
 4    2  0.4063641E+000  0.2115405E+03  0.7546771E-02  0.1140352E+00
         21   -1    0    0  503  502  0.00000000000E+00  0.00000000000E+00  0.18325326058E+03  0.18325326058E+03  0.00000000000E+00 0. -1.
         21   -1    0    0  501  503 -0.00000000000E+00 -0.00000000000E+00 -0.72198850320E+03  0.72198850320E+03  0.00000000000E+00 0. -1.
          6    1    1    2  501    0 -0.42702721817E+02 -0.11400370770E+03  0.98837621170E+02  0.23349141993E+03  0.17300000000E+03 0. -1.
         -6    1    1    2    0  502  0.42702721817E+02  0.11400370770E+03 -0.63757286379E+03  0.67175034385E+03  0.17300000000E+03 0. -1.
<mgrwt>
<rscale>  2 0.21154046E+03</rscale>
<asrwt>0</asrwt>
<pdfrwt beam="1">  1       21 0.28192810E-01 0.21154046E+03</pdfrwt>
<pdfrwt beam="2">  1       21 0.11107515E+00 0.21154046E+03</pdfrwt>
<totfact> 0.75635107E+03</totfact>
</mgrwt>
</event>
<event>
 4    2  0.4063641E+000  0.2537658E+03  0.7546771E-02  0.1110948E+00
         21   -1    0    0  503  502  0.00000000000E+00  0.00000000000E+00  0.10519159257E+04  0.10519159257E+04  0.00000000000E+00 0. -1.
         21   -1    0    0  501  503 -0.00000000000E+00 -0.00000000000E+00 -0.64011692112E+02  0.64011692112E+02  0.00000000000E+00 0.  1.
          6    1    1    2  501    0 -0.17920579106E+03 -0.48511399721E+02  0.61049894045E+03  0.66113994566E+03  0.17300000000E+03 0.  1.
         -6    1    1    2    0  502  0.17920579106E+03  0.48511399721E+02  0.37740529313E+03  0.45478767215E+03  0.17300000000E+03 0. -1.
<mgrwt>
<rscale>  2 0.25376578E+03</rscale>
<asrwt>0</asrwt>
<pdfrwt beam="1">  1       21 0.16183321E+00 0.25376578E+03</pdfrwt>
<pdfrwt beam="2">  1       21 0.98479534E-02 0.25376578E+03</pdfrwt>
<totfact> 0.19586673E+04</totfact>
</mgrwt>
</event>
<event>
 4    2  0.4063641E+000  0.1746547E+03  0.7546771E-02  0.1173079E+00
         21   -1    0    0  501  502  0.00000000000E+00  0.00000000000E+00  0.35749474075E+03  0.35749474075E+03  0.00000000000E+00 0. -1.
         21   -1    0    0  502  503 -0.00000000000E+00 -0.00000000000E+00 -0.29101770584E+03  0.29101770584E+03  0.00000000000E+00 0. -1.
          6    1    1    2  501    0  0.21335283993E+02  0.10957801141E+02  0.30584427285E+03  0.35220020866E+03  0.17300000000E+03 0. -1.
         -6    1    1    2    0  503 -0.21335283993E+02 -0.10957801141E+02 -0.23936723794E+03  0.29631223793E+03  0.17300000000E+03 0. -1.
<mgrwt>
<rscale>  2 0.17465471E+03</rscale>
<asrwt>0</asrwt>
<pdfrwt beam="1">  1       21 0.54999191E-01 0.17465471E+03</pdfrwt>
<pdfrwt beam="2">  1       21 0.44771955E-01 0.17465471E+03</pdfrwt>
<totfact> 0.15110083E+04</totfact>
</mgrwt>
</event>
<event>
 4    2  0.4063641E+000  0.3386701E+03  0.7546771E-02  0.1067364E+00
         21   -1    0    0  501  502  0.00000000000E+00  0.00000000000E+00  0.59024366360E+03  0.59024366360E+03  0.00000000000E+00 0. -1.
         21   -1    0    0  502  503 -0.00000000000E+00 -0.00000000000E+00 -0.19763658532E+03  0.19763658532E+03  0.00000000000E+00 0.  1.
          6    1    1    2  501    0  0.18734358002E+03  0.22286954081E+03  0.14528854640E+03  0.36851894240E+03  0.17300000000E+03 0. -1.
         -6    1    1    2    0  503 -0.18734358002E+03 -0.22286954081E+03  0.24731853189E+03  0.41936130652E+03  0.17300000000E+03 0. -1.
<mgrwt>
<rscale>  2 0.33867012E+03</rscale>
<asrwt>0</asrwt>
<pdfrwt beam="1">  1       21 0.90806717E-01 0.33867012E+03</pdfrwt>
<pdfrwt beam="2">  1       21 0.30405629E-01 0.33867012E+03</pdfrwt>
<totfact> 0.98813289E+03</totfact>
</mgrwt>
</event>
<event>
 4    2  0.4063641E+000  0.1819917E+03  0.7546771E-02  0.1165889E+00
         21   -1    0    0  501  502  0.00000000000E+00  0.00000000000E+00  0.14075790901E+04  0.14075790901E+04  0.00000000000E+00 0.  1.
         21   -1    0    0  502  503 -0.00000000000E+00 -0.00000000000E+00 -0.39740984850E+02  0.39740984850E+02  0.00000000000E+00 0.  1.
          6    1    1    2  501    0 -0.45406353284E+02  0.33619339117E+02  0.11461017556E+04  0.11604612148E+04  0.17300000000E+03 0.  1.
         -6    1    1    2    0  503  0.45406353284E+02 -0.33619339117E+02  0.22173634961E+03  0.28685886010E+03  0.17300000000E+03 0.  1.
<mgrwt>
<rscale>  2 0.18199175E+03</rscale>
<asrwt>0</asrwt>
<pdfrwt beam="1">  1       21 0.21655059E+00 0.18199175E+03</pdfrwt>
<pdfrwt beam="2">  1       21 0.61139987E-02 0.18199175E+03</pdfrwt>
<totfact> 0.20343303E+04</totfact>
</mgrwt>
</event>
<event>
 4    2  0.4063641E+000  0.1962503E+03  0.7546771E-02  0.1152942E+00
         21   -1    0    0  501  502  0.00000000000E+00  0.00000000000E+00  0.85041853450E+03  0.85041853450E+03  0.00000000000E+00 0. -1.
         21   -1    0    0  502  503 -0.00000000000E+00 -0.00000000000E+00 -0.11046841108E+03  0.11046841108E+03  0.00000000000E+00 0.  1.
          6    1    1    2  501    0 -0.80915935929E+02 -0.45142046760E+02  0.73902069731E+03  0.76463441208E+03  0.17300000000E+03 0. -1.
         -6    1    1    2    0  503  0.80915935929E+02  0.45142046760E+02  0.92942610964E+00  0.19625253350E+03  0.17300000000E+03 0.  1.
<mgrwt>
<rscale>  2 0.19625033E+03</rscale>
<asrwt>0</asrwt>
<pdfrwt beam="1">  1       21 0.13083362E+00 0.19625033E+03</pdfrwt>
<pdfrwt beam="2">  1       21 0.16995141E-01 0.19625033E+03</pdfrwt>
<totfact> 0.13242836E+04</totfact>
</mgrwt>
</event>
<event>
 4    2  0.4063641E+000  0.3788523E+03  0.7546771E-02  0.1051359E+00
         21   -1    0    0  501  502  0.00000000000E+00  0.00000000000E+00  0.17829290565E+04  0.17829290565E+04  0.00000000000E+00 0.  1.
         21   -1    0    0  502  503 -0.00000000000E+00 -0.00000000000E+00 -0.84727743528E+02  0.84727743528E+02  0.00000000000E+00 0.  1.
          6    1    1    2  501    0 -0.33089406857E+03  0.64102950090E+02  0.64054885057E+03  0.74419883284E+03  0.17300000000E+03 0.  1.
         -6    1    1    2    0  503  0.33089406857E+03 -0.64102950090E+02  0.10576524624E+04  0.11234579672E+04  0.17300000000E+03 0.  1.
<mgrwt>
<rscale>  2 0.37885231E+03</rscale>
<asrwt>0</asrwt>
<pdfrwt beam="1">  1       21 0.27429675E+00 0.37885231E+03</pdfrwt>
<pdfrwt beam="2">  1       21 0.13035039E-01 0.37885231E+03</pdfrwt>
<totfact> 0.20813151E+03</totfact>
</mgrwt>
</event>
<event>
 4    2  0.4063641E+000  0.1925212E+03  0.7546771E-02  0.1156207E+00
         21   -1    0    0  501  502  0.00000000000E+00  0.00000000000E+00  0.72247079771E+02  0.72247079771E+02  0.00000000000E+00 0. -1.
         21   -1    0    0  502  503 -0.00000000000E+00 -0.00000000000E+00 -0.55222763252E+03  0.55222763252E+03  0.00000000000E+00 0. -1.
          6    1    1    2  501    0  0.57268551593E+02  0.62094410285E+02 -0.15679564215E+03  0.24829272279E+03  0.17300000000E+03 0.  1.
         -6    1    1    2    0  503 -0.57268551593E+02 -0.62094410285E+02 -0.32318491059E+03  0.37618198950E+03  0.17300000000E+03 0.  1.
<mgrwt>
<rscale>  2 0.19252117E+03</rscale>
<asrwt>0</asrwt>
<pdfrwt beam="1">  1       21 0.11114935E-01 0.19252117E+03</pdfrwt>
<pdfrwt beam="2">  1       21 0.84958097E-01 0.19252117E+03</pdfrwt>
<totfact> 0.80715929E+04</totfact>
</mgrwt>
</event>
<event>
 4    2  0.4063641E+000  0.2065106E+03  0.7546771E-02  0.1144359E+00
         21   -1    0    0  501  502  0.00000000000E+00  0.00000000000E+00  0.21050181051E+03  0.21050181051E+03  0.00000000000E+00 0.  1.
         21   -1    0    0  502  503 -0.00000000000E+00 -0.00000000000E+00 -0.52955013151E+03  0.52955013151E+03  0.00000000000E+00 0.  1.
          6    1    1    2  501    0 -0.11202266610E+03  0.12982958276E+02  0.13122781938E+03  0.24467810589E+03  0.17300000000E+03 0.  1.
         -6    1    1    2    0  503  0.11202266610E+03 -0.12982958276E+02 -0.45027614038E+03  0.49537383613E+03  0.17300000000E+03 0.  1.
<mgrwt>
<rscale>  2 0.20651062E+03</rscale>
<asrwt>0</asrwt>
<pdfrwt beam="1">  1       21 0.32384894E-01 0.20651062E+03</pdfrwt>
<pdfrwt beam="2">  1       21 0.81469250E-01 0.20651062E+03</pdfrwt>
<totfact> 0.11996755E+04</totfact>
</mgrwt>
</event>
<event>
 4    2  0.4063641E+000  0.1924888E+03  0.7546771E-02  0.1156236E+00
         21   -1    0    0  501  502  0.00000000000E+00  0.00000000000E+00  0.34536987957E+02  0.34536987957E+02  0.00000000000E+00 0.  1.
         21   -1    0    0  502  503 -0.00000000000E+00 -0.00000000000E+00 -0.12291024511E+04  0.12291024511E+04  0.00000000000E+00 0. -1.
          6    1    1    2  501    0  0.18372413898E+02 -0.82373531383E+02 -0.37198577061E+03  0.41883810453E+03  0.17300000000E+03 0. -1.
         -6    1    1    2    0  503 -0.18372413898E+02  0.82373531383E+02 -0.82257969258E+03  0.84480133458E+03  0.17300000000E+03 0.  1.
<mgrwt>
<rscale>  2 0.19248882E+03</rscale>
<asrwt>0</asrwt>
<pdfrwt beam="1">  1       21 0.53133827E-02 0.19248882E+03</pdfrwt>
<pdfrwt beam="2">  1       21 0.18909269E+00 0.19248882E+03</pdfrwt>
<totfact> 0.38369933E+04</totfact>
</mgrwt>
</event>
<event>
 4    2  0.4063641E+000  0.2368117E+03  0.7546771E-02  0.1121935E+00
         21   -1    0    0  501  502  0.00000000000E+00  0.00000000000E+00  0.18473388321E+03  0.18473388321E+03  0.00000000000E+00 0. -1.
         21   -1    0    0  502  503 -0.00000000000E+00 -0.00000000000E+00 -0.35005146874E+03  0.35005146874E+03  0.00000000000E+00 0.  1.
          6    1    1    2  501    0 -0.15541770178E+03 -0.44678016472E+02  0.14777417759E+02  0.23727233142E+03  0.17300000000E+03 0. -1.
         -6    1    1    2    0  503  0.15541770178E+03  0.44678016472E+02 -0.18009500329E+03  0.29751302054E+03  0.17300000000E+03 0.  1.
<mgrwt>
<rscale>  2 0.23681171E+03</rscale>
<asrwt>0</asrwt>
<pdfrwt beam="1">  1       21 0.28420597E-01 0.23681171E+03</pdfrwt>
<pdfrwt beam="2">  1       21 0.53854072E-01 0.23681171E+03</pdfrwt>
<totfact> 0.37774506E+04</totfact>
</mgrwt>
</event>
<event>
 4    2  0.4063641E+000  0.2097659E+03  0.7546771E-02  0.1141751E+00
         21   -1    0    0  501  502  0.00000000000E+00  0.00000000000E+00  0.67553256386E+02  0.67553256386E+02  0.00000000000E+00 0. -1.
         21   -1    0    0  502  503 -0.00000000000E+00 -0.00000000000E+00 -0.69737740346E+03  0.69737740346E+03  0.00000000000E+00 0. -1.
          6    1    1    2  501    0  0.11414025518E+03 -0.32322665004E+02 -0.21666926058E+03  0.30157473536E+03  0.17300000000E+03 0. -1.
         -6    1    1    2    0  503 -0.11414025518E+03  0.32322665004E+02 -0.41315488649E+03  0.46335592449E+03  0.17300000000E+03 0. -1.
<mgrwt>
<rscale>  2 0.20976595E+03</rscale>
<asrwt>0</asrwt>
<pdfrwt beam="1">  1       21 0.10392808E-01 0.20976595E+03</pdfrwt>
<pdfrwt beam="2">  1       21 0.10728884E+00 0.20976595E+03</pdfrwt>
<totfact> 0.52123328E+04</totfact>
</mgrwt>
</event>
<event>
 4    2  0.4063641E+000  0.2284903E+03  0.7546771E-02  0.1127707E+00
         21   -1    0    0  501  502  0.00000000000E+00  0.00000000000E+00  0.66447465735E+03  0.66447465735E+03  0.00000000000E+00 0. -1.
         21   -1    0    0  502  503 -0.00000000000E+00 -0.00000000000E+00 -0.79208996369E+02  0.79208996369E+02  0.00000000000E+00 0. -1.
          6    1    1    2  501    0  0.14805441840E+03  0.18939374034E+02  0.32602935884E+03  0.39812429406E+03  0.17300000000E+03 0. -1.
         -6    1    1    2    0  503 -0.14805441840E+03 -0.18939374034E+02  0.25923630214E+03  0.34555935966E+03  0.17300000000E+03 0. -1.
<mgrwt>
<rscale>  2 0.22849029E+03</rscale>
<asrwt>0</asrwt>
<pdfrwt beam="1">  1       21 0.10222687E+00 0.22849029E+03</pdfrwt>
<pdfrwt beam="2">  1       21 0.12186000E-01 0.22849029E+03</pdfrwt>
<totfact> 0.43670414E+04</totfact>
</mgrwt>
</event>
<event>
 4    2  0.4063641E+000  0.1980061E+03  0.7546771E-02  0.1151432E+00
         21   -1    0    0  503  502  0.00000000000E+00  0.00000000000E+00  0.13891491737E+03  0.13891491737E+03  0.00000000000E+00 0.  1.
         21   -1    0    0  501  503 -0.00000000000E+00 -0.00000000000E+00 -0.29435774284E+03  0.29435774284E+03  0.00000000000E+00 0.  1.
          6    1    1    2  501    0 -0.93322404424E+02  0.23840003192E+02 -0.12168815386E+03  0.23241003358E+03  0.17300000000E+03 0.  1.
         -6    1    1    2    0  502  0.93322404424E+02 -0.23840003192E+02 -0.33754671598E+02  0.20086262662E+03  0.17300000000E+03 0.  1.
<mgrwt>
<rscale>  2 0.19800610E+03</rscale>
<asrwt>0</asrwt>
<pdfrwt beam="1">  1       21 0.21371526E-01 0.19800610E+03</pdfrwt>
<pdfrwt beam="2">  1       21 0.45285806E-01 0.19800610E+03</pdfrwt>
<totfact> 0.95143295E+04</totfact>
</mgrwt>
</event>
<event>
 4    2  0.4063641E+000  0.2142561E+03  0.7546771E-02  0.1138239E+00
         21   -1    0    0  503  502  0.00000000000E+00  0.00000000000E+00  0.54927831935E+02  0.54927831935E+02  0.00000000000E+00 0. -1.
         21   -1    0    0  501  503 -0.00000000000E+00 -0.00000000000E+00 -0.13539149644E+04  0.13539149644E+04  0.00000000000E+00 0.  1.
          6    1    1    2  501    0 -0.12120577490E+03 -0.35858665772E+02 -0.10852790796E+04  0.11062261814E+04  0.17300000000E+03 0.  1.
         -6    1    1    2    0  502  0.12120577490E+03  0.35858665772E+02 -0.21370805286E+03  0.30261661494E+03  0.17300000000E+03 0. -1.
<mgrwt>
<rscale>  2 0.21425612E+03</rscale>
<asrwt>0</asrwt>
<pdfrwt beam="1">  1       21 0.84504360E-02 0.21425612E+03</pdfrwt>
<pdfrwt beam="2">  1       21 0.20829460E+00 0.21425612E+03</pdfrwt>
<totfact> 0.12748053E+04</totfact>
</mgrwt>
</event>
<event>
 4    2  0.4063641E+000  0.1956084E+03  0.7546771E-02  0.1153498E+00
         21   -1    0    0  501  502  0.00000000000E+00  0.00000000000E+00  0.45285855213E+03  0.45285855213E+03  0.00000000000E+00 0. -1.
         21   -1    0    0  502  503 -0.00000000000E+00 -0.00000000000E+00 -0.13531961299E+03  0.13531961299E+03  0.00000000000E+00 0.  1.
          6    1    1    2  501    0 -0.89453794751E+02 -0.18211668069E+02  0.33900940118E+03  0.39139496719E+03  0.17300000000E+03 0. -1.
         -6    1    1    2    0  503  0.89453794751E+02  0.18211668069E+02 -0.21470462048E+02  0.19678319794E+03  0.17300000000E+03 0.  1.
<mgrwt>
<rscale>  2 0.19560840E+03</rscale>
<asrwt>0</asrwt>
<pdfrwt beam="1">  1       21 0.69670546E-01 0.19560840E+03</pdfrwt>
<pdfrwt beam="2">  1       21 0.20818402E-01 0.19560840E+03</pdfrwt>
<totfact> 0.40032565E+04</totfact>
</mgrwt>
</event>
<event>
 4    2  0.4063641E+000  0.2309162E+03  0.7546771E-02  0.1125997E+00
         21   -1    0    0  501  502  0.00000000000E+00  0.00000000000E+00  0.58074146637E+03  0.58074146637E+03  0.00000000000E+00 0.  1.
         21   -1    0    0  502  503 -0.00000000000E+00 -0.00000000000E+00 -0.14911127253E+03  0.14911127253E+03  0.00000000000E+00 0. -1.
          6    1    1    2  501    0  0.15135940698E+03  0.21991201945E+02  0.44202070569E+03  0.49870290485E+03  0.17300000000E+03 0.  1.
         -6    1    1    2    0  503 -0.15135940698E+03 -0.21991201945E+02 -0.10390511843E+02  0.23114983405E+03  0.17300000000E+03 0. -1.
<mgrwt>
<rscale>  2 0.23091618E+03</rscale>
<asrwt>0</asrwt>
<pdfrwt beam="1">  1       21 0.89344840E-01 0.23091618E+03</pdfrwt>
<pdfrwt beam="2">  1       21 0.22940196E-01 0.23091618E+03</pdfrwt>
<totfact> 0.18632214E+04</totfact>
</mgrwt>
</event>
<event>
 4    2  0.4063641E+000  0.2266579E+03  0.7546771E-02  0.1129014E+00
         21   -1    0    0  503  502  0.00000000000E+00  0.00000000000E+00  0.13675844736E+03  0.13675844736E+03  0.00000000000E+00 0. -1.
         21   -1    0    0  501  503 -0.00000000000E+00 -0.00000000000E+00 -0.94316688343E+03  0.94316688343E+03  0.00000000000E+00 0.  1.
          6    1    1    2  501    0  0.10420062415E+03 -0.10289334346E+03 -0.82205319255E+03  0.85272812876E+03  0.17300000000E+03 0.  1.
         -6    1    1    2    0  502 -0.10420062415E+03  0.10289334346E+03  0.15644756479E+02  0.22719720202E+03  0.17300000000E+03 0. -1.
<mgrwt>
<rscale>  2 0.22665791E+03</rscale>
<asrwt>0</asrwt>
<pdfrwt beam="1">  1       21 0.21039761E-01 0.22665791E+03</pdfrwt>
<pdfrwt beam="2">  1       21 0.14510260E+00 0.22665791E+03</pdfrwt>
<totfact> 0.66703834E+03</totfact>
</mgrwt>
</event>
<event>
 4    2  0.4063641E+000  0.1900347E+03  0.7546771E-02  0.1158430E+00
         21   -1    0    0  501  502  0.00000000000E+00  0.00000000000E+00  0.14632896315E+03  0.14632896315E+03  0.00000000000E+00 0.  1.
         21   -1    0    0  502  503 -0.00000000000E+00 -0.00000000000E+00 -0.27115313763E+03  0.27115313763E+03  0.00000000000E+00 0.  1.
          6    1    1    2  501    0 -0.78236163582E+02  0.79561336432E+01  0.15215492923E+00  0.19003478762E+03  0.17300000000E+03 0.  1.
         -6    1    1    2    0  503  0.78236163582E+02 -0.79561336432E+01 -0.12497632941E+03  0.22744731317E+03  0.17300000000E+03 0.  1.
<mgrwt>
<rscale>  2 0.19003473E+03</rscale>
<asrwt>0</asrwt>
<pdfrwt beam="1">  1       21 0.22512149E-01 0.19003473E+03</pdfrwt>
<pdfrwt beam="2">  1       21 0.41715867E-01 0.19003473E+03</pdfrwt>
<totfact> 0.10235065E+05</totfact>
</mgrwt>
</event>
<event>
 4    2  0.4063641E+000  0.1820132E+03  0.7546771E-02  0.1165869E+00
         21   -1    0    0  503  502  0.00000000000E+00  0.00000000000E+00  0.16138054666E+04  0.16138054666E+04  0.00000000000E+00 0. -1.
         21   -1    0    0  501  503 -0.00000000000E+00 -0.00000000000E+00 -0.59605013117E+02  0.59605013117E+02  0.00000000000E+00 0. -1.
          6    1    1    2  501    0 -0.49478981626E+02 -0.27415887545E+02  0.99630797309E+02  0.20749721995E+03  0.17300000000E+03 0. -1.
         -6    1    1    2    0  502  0.49478981626E+02  0.27415887545E+02  0.14545696561E+04  0.14659132597E+04  0.17300000000E+03 0. -1.
<mgrwt>
<rscale>  2 0.18201319E+03</rscale>
<asrwt>0</asrwt>
<pdfrwt beam="1">  1       21 0.24827773E+00 0.18201319E+03</pdfrwt>
<pdfrwt beam="2">  1       21 0.91700032E-02 0.18201319E+03</pdfrwt>
<totfact> 0.65044502E+03</totfact>
</mgrwt>
</event>
<event>
 4    2  0.4063641E+000  0.1968939E+03  0.7546771E-02  0.1152386E+00
         21   -1    0    0  501  502  0.00000000000E+00  0.00000000000E+00  0.11871399992E+03  0.11871399992E+03  0.00000000000E+00 0.  1.
         21   -1    0    0  502  503 -0.00000000000E+00 -0.00000000000E+00 -0.65033791600E+03  0.65033791600E+03  0.00000000000E+00 0.  1.
          6    1    1    2  501    0 -0.93799184759E+02  0.63198375240E+01  0.55068057855E+01  0.19697094283E+03  0.17300000000E+03 0.  1.
         -6    1    1    2    0  503  0.93799184759E+02 -0.63198375240E+01 -0.53713072187E+03  0.57208097310E+03  0.17300000000E+03 0.  1.
<mgrwt>
<rscale>  2 0.19689395E+03</rscale>
<asrwt>0</asrwt>
<pdfrwt beam="1">  1       21 0.18263693E-01 0.19689395E+03</pdfrwt>
<pdfrwt beam="2">  1       21 0.10005198E+00 0.19689395E+03</pdfrwt>
<totfact> 0.22352212E+04</totfact>
</mgrwt>
</event>
<event>
 4    2  0.4063641E+000  0.2216102E+03  0.7546771E-02  0.1132688E+00
         21   -1    0    0  501  502  0.00000000000E+00  0.00000000000E+00  0.45348472547E+02  0.45348472547E+02  0.00000000000E+00 0.  1.
         21   -1    0    0  502  503 -0.00000000000E+00 -0.00000000000E+00 -0.12407271969E+04  0.12407271969E+04  0.00000000000E+00 0.  1.
          6    1    1    2  501    0 -0.44085820297E+02 -0.13129561027E+03 -0.82698252177E+03  0.85616072565E+03  0.17300000000E+03 0.  1.
         -6    1    1    2    0  503  0.44085820297E+02  0.13129561027E+03 -0.36839620261E+03  0.42991494383E+03  0.17300000000E+03 0.  1.
<mgrwt>
<rscale>  2 0.22161024E+03</rscale>
<asrwt>0</asrwt>
<pdfrwt beam="1">  1       21 0.69766890E-02 0.22161024E+03</pdfrwt>
<pdfrwt beam="2">  1       21 0.19088108E+00 0.22161024E+03</pdfrwt>
<totfact> 0.22945119E+04</totfact>
</mgrwt>
</event>
<event>
 4    2  0.4063641E+000  0.2474036E+03  0.7546771E-02  0.1114957E+00
         21   -1    0    0  501  502  0.00000000000E+00  0.00000000000E+00  0.12902969015E+03  0.12902969015E+03  0.00000000000E+00 0.  1.
         21   -1    0    0  502  503 -0.00000000000E+00 -0.00000000000E+00 -0.67061625828E+03  0.67061625828E+03  0.00000000000E+00 0. -1.
          6    1    1    2  501    0  0.16475504968E+03  0.64306346083E+02 -0.54508863221E+02  0.25333722330E+03  0.17300000000E+03 0.  1.
         -6    1    1    2    0  503 -0.16475504968E+03 -0.64306346083E+02 -0.48707770490E+03  0.54630872513E+03  0.17300000000E+03 0. -1.
<mgrwt>
<rscale>  2 0.24740358E+03</rscale>
<asrwt>0</asrwt>
<pdfrwt beam="1">  1       21 0.19850722E-01 0.24740358E+03</pdfrwt>
<pdfrwt beam="2">  1       21 0.10317173E+00 0.24740358E+03</pdfrwt>
<totfact> 0.17275689E+04</totfact>
</mgrwt>
</event>
<event>
 4    2  0.4063641E+000  0.2295156E+03  0.7546771E-02  0.1126981E+00
         21   -1    0    0  503  502  0.00000000000E+00  0.00000000000E+00  0.32143828660E+03  0.32143828660E+03  0.00000000000E+00 0.  1.
         21   -1    0    0  501  503 -0.00000000000E+00 -0.00000000000E+00 -0.18913637171E+03  0.18913637171E+03  0.00000000000E+00 0.  1.
          6    1    1    2  501    0 -0.86334073172E+02 -0.12367229047E+03 -0.27136768414E+02  0.23111428303E+03  0.17300000000E+03 0.  1.
         -6    1    1    2    0  502  0.86334073172E+02  0.12367229047E+03  0.15943868330E+03  0.27946037528E+03  0.17300000000E+03 0.  1.
<mgrwt>
<rscale>  2 0.22951559E+03</rscale>
<asrwt>0</asrwt>
<pdfrwt beam="1">  1       21 0.49452044E-01 0.22951559E+03</pdfrwt>
<pdfrwt beam="2">  1       21 0.29097903E-01 0.22951559E+03</pdfrwt>
<totfact> 0.43314926E+04</totfact>
</mgrwt>
</event>
<event>
 4    2  0.4063641E+000  0.1846153E+03  0.7546771E-02  0.1163410E+00
         21   -1    0    0  503  502  0.00000000000E+00  0.00000000000E+00  0.63654581879E+03  0.63654581879E+03  0.00000000000E+00 0. -1.
         21   -1    0    0  501  503 -0.00000000000E+00 -0.00000000000E+00 -0.69484997908E+02  0.69484997908E+02  0.00000000000E+00 0. -1.
          6    1    1    2  501    0 -0.53232399947E+02  0.36333245436E+02  0.11444162833E+03  0.21720883827E+03  0.17300000000E+03 0. -1.
         -6    1    1    2    0  502  0.53232399947E+02 -0.36333245436E+02  0.45261919255E+03  0.48882197843E+03  0.17300000000E+03 0. -1.
<mgrwt>
<rscale>  2 0.18461526E+03</rscale>
<asrwt>0</asrwt>
<pdfrwt beam="1">  1       21 0.97930122E-01 0.18461526E+03</pdfrwt>
<pdfrwt beam="2">  1       21 0.10690000E-01 0.18461526E+03</pdfrwt>
<totfact> 0.62426386E+04</totfact>
</mgrwt>
</event>
<event>
 4    2  0.4063641E+000  0.3731171E+03  0.7546771E-02  0.1053507E+00
         21   -1    0    0  501  502  0.00000000000E+00  0.00000000000E+00  0.38251462138E+03  0.38251462138E+03  0.00000000000E+00 0. -1.
         21   -1    0    0  502  503 -0.00000000000E+00 -0.00000000000E+00 -0.41378440111E+03  0.41378440111E+03  0.00000000000E+00 0. -1.
          6    1    1    2  501    0 -0.16118491309E+03 -0.28862915291E+03  0.12253768202E+03  0.39272362754E+03  0.17300000000E+03 0. -1.
         -6    1    1    2    0  503  0.16118491309E+03  0.28862915291E+03 -0.15380746175E+03  0.40357539495E+03  0.17300000000E+03 0. -1.
<mgrwt>
<rscale>  2 0.37311709E+03</rscale>
<asrwt>0</asrwt>
<pdfrwt beam="1">  1       21 0.58848403E-01 0.37311709E+03</pdfrwt>
<pdfrwt beam="2">  1       21 0.63659139E-01 0.37311709E+03</pdfrwt>
<totfact> 0.55815959E+03</totfact>
</mgrwt>
</event>
<event>
 4    2  0.4063641E+000  0.1822087E+03  0.7546771E-02  0.1165682E+00
         21   -1    0    0  503  502  0.00000000000E+00  0.00000000000E+00  0.58332134526E+03  0.58332134526E+03  0.00000000000E+00 0.  1.
         21   -1    0    0  501  503 -0.00000000000E+00 -0.00000000000E+00 -0.62615963474E+02  0.62615963474E+02  0.00000000000E+00 0.  1.
          6    1    1    2  501    0  0.54085687984E+02  0.18594201466E+02  0.16290439845E+03  0.24441327502E+03  0.17300000000E+03 0.  1.
         -6    1    1    2    0  502 -0.54085687984E+02 -0.18594201466E+02  0.35780098333E+03  0.40152403371E+03  0.17300000000E+03 0.  1.
<mgrwt>
<rscale>  2 0.18220869E+03</rscale>
<asrwt>0</asrwt>
<pdfrwt beam="1">  1       21 0.89741742E-01 0.18220869E+03</pdfrwt>
<pdfrwt beam="2">  1       21 0.96332256E-02 0.18220869E+03</pdfrwt>
<totfact> 0.92061506E+04</totfact>
</mgrwt>
</event>
<event>
 4    2  0.4063641E+000  0.1902784E+03  0.7546771E-02  0.1158210E+00
         21   -1    0    0  501  502  0.00000000000E+00  0.00000000000E+00  0.31917374523E+03  0.31917374523E+03  0.00000000000E+00 0. -1.
         21   -1    0    0  502  503 -0.00000000000E+00 -0.00000000000E+00 -0.37278119161E+03  0.37278119161E+03  0.00000000000E+00 0.  1.
          6    1    1    2  501    0  0.34710802727E+01 -0.79150659170E+02  0.26177194156E+03  0.32362080377E+03  0.17300000000E+03 0. -1.
         -6    1    1    2    0  503 -0.34710802727E+01  0.79150659170E+02 -0.31537938794E+03  0.36833413307E+03  0.17300000000E+03 0.  1.
<mgrwt>
<rscale>  2 0.19027842E+03</rscale>
<asrwt>0</asrwt>
<pdfrwt beam="1">  1       21 0.49103653E-01 0.19027842E+03</pdfrwt>
<pdfrwt beam="2">  1       21 0.57350952E-01 0.19027842E+03</pdfrwt>
<totfact> 0.11310665E+04</totfact>
</mgrwt>
</event>
<event>
 4    2  0.4063641E+000  0.1917519E+03  0.7546771E-02  0.1156891E+00
         21   -1    0    0  501  502  0.00000000000E+00  0.00000000000E+00  0.16542683385E+04  0.16542683385E+04  0.00000000000E+00 0. -1.
         21   -1    0    0  502  503 -0.00000000000E+00 -0.00000000000E+00 -0.22417086802E+02  0.22417086802E+02  0.00000000000E+00 0. -1.
          6    1    1    2  501    0 -0.92155835171E+01  0.82187930274E+02  0.89320242880E+03  0.91355315208E+03  0.17300000000E+03 0. -1.
         -6    1    1    2    0  503  0.92155835171E+01 -0.82187930274E+02  0.73864882290E+03  0.76313227322E+03  0.17300000000E+03 0. -1.
<mgrwt>
<rscale>  2 0.19175188E+03</rscale>
<asrwt>0</asrwt>
<pdfrwt beam="1">  1       21 0.25450272E+00 0.19175188E+03</pdfrwt>
<pdfrwt beam="2">  1       21 0.34487839E-02 0.19175188E+03</pdfrwt>
<totfact> 0.31433187E+04</totfact>
</mgrwt>
</event>
<event>
 4    2  0.4063641E+000  0.2468361E+03  0.7546771E-02  0.1115321E+00
         21   -1    0    0  501  502  0.00000000000E+00  0.00000000000E+00  0.14595096427E+03  0.14595096427E+03  0.00000000000E+00 0.  1.
         21   -1    0    0  502  503 -0.00000000000E+00 -0.00000000000E+00 -0.49745552321E+03  0.49745552321E+03  0.00000000000E+00 0.  1.
          6    1    1    2  501    0 -0.10598875356E+03  0.14058955338E+03 -0.46742312807E+02  0.25122277406E+03  0.17300000000E+03 0.  1.
         -6    1    1    2    0  503  0.10598875356E+03 -0.14058955338E+03 -0.30476224614E+03  0.39218371342E+03  0.17300000000E+03 0.  1.
<mgrwt>
<rscale>  2 0.24683606E+03</rscale>
<asrwt>0</asrwt>
<pdfrwt beam="1">  1       21 0.22453995E-01 0.24683606E+03</pdfrwt>
<pdfrwt beam="2">  1       21 0.76531619E-01 0.24683606E+03</pdfrwt>
<totfact> 0.27439154E+04</totfact>
</mgrwt>
</event>
<event>
 4    2  0.4063641E+000  0.2141237E+03  0.7546771E-02  0.1138341E+00
         21   -1    0    0  503  502  0.00000000000E+00  0.00000000000E+00  0.44565613825E+03  0.44565613825E+03  0.00000000000E+00 0. -1.
         21   -1    0    0  501  503 -0.00000000000E+00 -0.00000000000E+00 -0.11287974558E+03  0.11287974558E+03  0.00000000000E+00 0. -1.
          6    1    1    2  501    0  0.12609167691E+03  0.45645766227E+01  0.24951004746E+03  0.32879204693E+03  0.17300000000E+03 0. -1.
         -6    1    1    2    0  502 -0.12609167691E+03 -0.45645766227E+01  0.83266345210E+02  0.22974383689E+03  0.17300000000E+03 0. -1.
<mgrwt>
<rscale>  2 0.21412367E+03</rscale>
<asrwt>0</asrwt>
<pdfrwt beam="1">  1       21 0.68562482E-01 0.21412367E+03</pdfrwt>
<pdfrwt beam="2">  1       21 0.17366115E-01 0.21412367E+03</pdfrwt>
<totfact> 0.57594720E+04</totfact>
</mgrwt>
</event>
<event>
 4    2  0.4063641E+000  0.1786900E+03  0.7546771E-02  0.1169077E+00
         21   -1    0    0  503  502  0.00000000000E+00  0.00000000000E+00  0.76059902283E+02  0.76059902283E+02  0.00000000000E+00 0. -1.
         21   -1    0    0  501  503 -0.00000000000E+00 -0.00000000000E+00 -0.71965501771E+03  0.71965501771E+03  0.00000000000E+00 0. -1.
          6    1    1    2  501    0  0.44726677730E+02 -0.78989185303E+00 -0.57861205351E+03  0.60557576577E+03  0.17300000000E+03 0. -1.
         -6    1    1    2    0  502 -0.44726677730E+02  0.78989185303E+00 -0.64983061918E+02  0.19013915422E+03  0.17300000000E+03 0. -1.
<mgrwt>
<rscale>  2 0.17868995E+03</rscale>
<asrwt>0</asrwt>
<pdfrwt beam="1">  1       21 0.11701523E-01 0.17868995E+03</pdfrwt>
<pdfrwt beam="2">  1       21 0.11071616E+00 0.17868995E+03</pdfrwt>
<totfact> 0.39764476E+04</totfact>
</mgrwt>
</event>
<event>
 4    2  0.4063641E+000  0.1882649E+03  0.7546771E-02  0.1160036E+00
         21   -1    0    0  501  502  0.00000000000E+00  0.00000000000E+00  0.10812145785E+04  0.10812145785E+04  0.00000000000E+00 0.  1.
         21   -1    0    0  502  503 -0.00000000000E+00 -0.00000000000E+00 -0.43365850866E+02  0.43365850866E+02  0.00000000000E+00 0.  1.
          6    1    1    2  501    0  0.46496683910E+02 -0.57902750090E+02  0.79671771467E+03  0.81865913966E+03  0.17300000000E+03 0.  1.
         -6    1    1    2    0  503 -0.46496683910E+02  0.57902750090E+02  0.24113101297E+03  0.30592128971E+03  0.17300000000E+03 0.  1.
<mgrwt>
<rscale>  2 0.18826489E+03</rscale>
<asrwt>0</asrwt>
<pdfrwt beam="1">  1       21 0.16634068E+00 0.18826489E+03</pdfrwt>
<pdfrwt beam="2">  1       21 0.66716702E-02 0.18826489E+03</pdfrwt>
<totfact> 0.37322608E+04</totfact>
</mgrwt>
</event>
<event>
 4    2  0.4063641E+000  0.1848720E+03  0.7546771E-02  0.1163169E+00
         21   -1    0    0  501  502  0.00000000000E+00  0.00000000000E+00  0.41925352665E+03  0.41925352665E+03  0.00000000000E+00 0. -1.
         21   -1    0    0  502  503 -0.00000000000E+00 -0.00000000000E+00 -0.93501348685E+02  0.93501348685E+02  0.00000000000E+00 0.  1.
          6    1    1    2  501    0 -0.65128529180E+02 -0.26332721267E+01  0.25464992386E+03  0.31468117700E+03  0.17300000000E+03 0. -1.
         -6    1    1    2    0  503  0.65128529180E+02  0.26332721267E+01  0.71102254113E+02  0.19807369834E+03  0.17300000000E+03 0.  1.
<mgrwt>
<rscale>  2 0.18487201E+03</rscale>
<asrwt>0</asrwt>
<pdfrwt beam="1">  1       21 0.64500542E-01 0.18487201E+03</pdfrwt>
<pdfrwt beam="2">  1       21 0.14384823E-01 0.18487201E+03</pdfrwt>
<totfact> 0.94107236E+04</totfact>
</mgrwt>
</event>
<event>
 4    2  0.4063641E+000  0.1938643E+03  0.7546771E-02  0.1155021E+00
         21   -1    0    0  503  502  0.00000000000E+00  0.00000000000E+00  0.24509558714E+03  0.24509558714E+03  0.00000000000E+00 0.  1.
         21   -1    0    0  501  503 -0.00000000000E+00 -0.00000000000E+00 -0.15883211717E+03  0.15883211717E+03  0.00000000000E+00 0. -1.
          6    1    1    2  501    0  0.26931904047E+02 -0.83240801205E+02  0.55817588671E+01  0.19394461702E+03  0.17300000000E+03 0. -1.
         -6    1    1    2    0  502 -0.26931904047E+02  0.83240801205E+02  0.80681711104E+02  0.20998308729E+03  0.17300000000E+03 0.  1.
<mgrwt>
<rscale>  2 0.19386428E+03</rscale>
<asrwt>0</asrwt>
<pdfrwt beam="1">  1       21 0.37707013E-01 0.19386428E+03</pdfrwt>
<pdfrwt beam="2">  1       21 0.24435710E-01 0.19386428E+03</pdfrwt>
<totfact> 0.10726858E+05</totfact>
</mgrwt>
</event>
<event>
 4    2  0.4063641E+000  0.2647020E+03  0.7546771E-02  0.1104351E+00
         21   -1    0    0  503  502  0.00000000000E+00  0.00000000000E+00  0.38589281039E+02  0.38589281039E+02  0.00000000000E+00 0.  1.
         21   -1    0    0  501  503 -0.00000000000E+00 -0.00000000000E+00 -0.18463326909E+04  0.18463326909E+04  0.00000000000E+00 0.  1.
          6    1    1    2  501    0  0.30810697780E+02 -0.19796176294E+03 -0.78250752461E+03  0.82606608983E+03  0.17300000000E+03 0.  1.
         -6    1    1    2    0  502 -0.30810697780E+02  0.19796176294E+03 -0.10252358853E+04  0.10588558821E+04  0.17300000000E+03 0.  1.
<mgrwt>
<rscale>  2 0.26470202E+03</rscale>
<asrwt>0</asrwt>
<pdfrwt beam="1">  1       21 0.59368119E-02 0.26470202E+03</pdfrwt>
<pdfrwt beam="2">  1       21 0.28405121E+00 0.26470202E+03</pdfrwt>
<totfact> 0.79279261E+03</totfact>
</mgrwt>
</event>
<event>
 4    2  0.4063641E+000  0.2853480E+03  0.7546771E-02  0.1092803E+00
         21   -1    0    0  501  502  0.00000000000E+00  0.00000000000E+00  0.60053075214E+02  0.60053075214E+02  0.00000000000E+00 0. -1.
         21   -1    0    0  502  503 -0.00000000000E+00 -0.00000000000E+00 -0.13643290392E+04  0.13643290392E+04  0.00000000000E+00 0.  1.
          6    1    1    2  501    0  0.22131494061E+03  0.50141321639E+02 -0.59602027561E+03  0.66080528449E+03  0.17300000000E+03 0.  1.
         -6    1    1    2    0  503 -0.22131494061E+03 -0.50141321639E+02 -0.70825568833E+03  0.76357682988E+03  0.17300000000E+03 0. -1.
<mgrwt>
<rscale>  2 0.28534795E+03</rscale>
<asrwt>0</asrwt>
<pdfrwt beam="1">  1       21 0.92389348E-02 0.28534795E+03</pdfrwt>
<pdfrwt beam="2">  1       21 0.20989677E+00 0.28534795E+03</pdfrwt>
<totfact> 0.10143182E+04</totfact>
</mgrwt>
</event>
<event>
 4    2  0.4063641E+000  0.1917678E+03  0.7546771E-02  0.1156876E+00
         21   -1    0    0  503  502  0.00000000000E+00  0.00000000000E+00  0.23252172659E+02  0.23252172659E+02  0.00000000000E+00 0. -1.
         21   -1    0    0  501  503 -0.00000000000E+00 -0.00000000000E+00 -0.18469463719E+04  0.18469463719E+04  0.00000000000E+00 0. -1.
          6    1    1    2  501    0 -0.23909602248E+02  0.79209984283E+02 -0.12663039649E+04  0.12807422153E+04  0.17300000000E+03 0. -1.
         -6    1    1    2    0  502  0.23909602248E+02 -0.79209984283E+02 -0.55739023432E+03  0.58945632917E+03  0.17300000000E+03 0. -1.
<mgrwt>
<rscale>  2 0.19176780E+03</rscale>
<asrwt>0</asrwt>
<pdfrwt beam="1">  1       21 0.35772562E-02 0.19176780E+03</pdfrwt>
<pdfrwt beam="2">  1       21 0.28414569E+00 0.19176780E+03</pdfrwt>
<totfact> 0.19910720E+04</totfact>
</mgrwt>
</event>
<event>
 4    2  0.4063641E+000  0.1843199E+03  0.7546771E-02  0.1163687E+00
         21   -1    0    0  503  502  0.00000000000E+00  0.00000000000E+00  0.19022646630E+04  0.19022646630E+04  0.00000000000E+00 0.  1.
         21   -1    0    0  501  503 -0.00000000000E+00 -0.00000000000E+00 -0.26221413804E+02  0.26221413804E+02  0.00000000000E+00 0.  1.
          6    1    1    2  501    0 -0.27803273023E+02  0.57199601942E+02  0.39351028932E+03  0.43453902501E+03  0.17300000000E+03 0.  1.
         -6    1    1    2    0  502  0.27803273023E+02 -0.57199601942E+02  0.14825329599E+04  0.14939470518E+04  0.17300000000E+03 0.  1.
<mgrwt>
<rscale>  2 0.18431988E+03</rscale>
<asrwt>0</asrwt>
<pdfrwt beam="1">  1       21 0.29265599E+00 0.18431988E+03</pdfrwt>
<pdfrwt beam="2">  1       21 0.40340651E-02 0.18431988E+03</pdfrwt>
<totfact> 0.14661274E+04</totfact>
</mgrwt>
</event>
<event>
 4    2  0.4063641E+000  0.1762527E+03  0.7546771E-02  0.1171480E+00
         21   -1    0    0  501  502  0.00000000000E+00  0.00000000000E+00  0.37398438937E+03  0.37398438937E+03  0.00000000000E+00 0. -1.
         21   -1    0    0  502  503 -0.00000000000E+00 -0.00000000000E+00 -0.23077333384E+03  0.23077333384E+03  0.00000000000E+00 0. -1.
          6    1    1    2  501    0 -0.84676657808E+01  0.32623699564E+02  0.31351960409E+03  0.35966588563E+03  0.17300000000E+03 0. -1.
         -6    1    1    2    0  503  0.84676657808E+01 -0.32623699564E+02 -0.17030854855E+03  0.24509183758E+03  0.17300000000E+03 0. -1.
<mgrwt>
<rscale>  2 0.17625268E+03</rscale>
<asrwt>0</asrwt>
<pdfrwt beam="1">  1       21 0.57536060E-01 0.17625268E+03</pdfrwt>
<pdfrwt beam="2">  1       21 0.35503590E-01 0.17625268E+03</pdfrwt>
<totfact> 0.21892033E+04</totfact>
</mgrwt>
</event>
<event>
 4    2  0.4063641E+000  0.2386771E+03  0.7546771E-02  0.1120677E+00
         21   -1    0    0  503  502  0.00000000000E+00  0.00000000000E+00  0.10004960991E+03  0.10004960991E+03  0.00000000000E+00 0.  1.
         21   -1    0    0  501  503 -0.00000000000E+00 -0.00000000000E+00 -0.64145651829E+03  0.64145651829E+03  0.00000000000E+00 0. -1.
          6    1    1    2  501    0 -0.12633113100E+03  0.10525306887E+03 -0.39497808756E+03  0.46149155227E+03  0.17300000000E+03 0. -1.
         -6    1    1    2    0  502  0.12633113100E+03 -0.10525306887E+03 -0.14642882082E+03  0.28001457593E+03  0.17300000000E+03 0. -1.
<mgrwt>
<rscale>  2 0.23867711E+03</rscale>
<asrwt>0</asrwt>
<pdfrwt beam="1">  1       21 0.15392248E-01 0.23867711E+03</pdfrwt>
<pdfrwt beam="2">  1       21 0.98685615E-01 0.23867711E+03</pdfrwt>
<totfact> 0.30937316E+04</totfact>
</mgrwt>
</event>
<event>
 4    2  0.4063641E+000  0.1863140E+03  0.7546771E-02  0.1161828E+00
         21   -1    0    0  501  502  0.00000000000E+00  0.00000000000E+00  0.67331648345E+03  0.67331648345E+03  0.00000000000E+00 0. -1.
         21   -1    0    0  502  503 -0.00000000000E+00 -0.00000000000E+00 -0.10009828080E+03  0.10009828080E+03  0.00000000000E+00 0. -1.
          6    1    1    2  501    0  0.33267222115E+01 -0.69085816963E+02  0.55590711201E+03  0.58629824695E+03  0.17300000000E+03 0. -1.
         -6    1    1    2    0  503 -0.33267222115E+01  0.69085816963E+02  0.17311090640E+02  0.18711651730E+03  0.17300000000E+03 0. -1.
<mgrwt>
<rscale>  2 0.18631403E+03</rscale>
<asrwt>0</asrwt>
<pdfrwt beam="1">  1       21 0.10358715E+00 0.18631403E+03</pdfrwt>
<pdfrwt beam="2">  1       21 0.15399736E-01 0.18631403E+03</pdfrwt>
<totfact> 0.28323699E+04</totfact>
</mgrwt>
</event>
<event>
 4    2  0.4063641E+000  0.1774863E+03  0.7546771E-02  0.1170258E+00
         21   -1    0    0  501  502  0.00000000000E+00  0.00000000000E+00  0.45204559415E+03  0.45204559415E+03  0.00000000000E+00 0.  1.
         21   -1    0    0  502  503 -0.00000000000E+00 -0.00000000000E+00 -0.12477129428E+04  0.12477129428E+04  0.00000000000E+00 0.  1.
          6    1    1    2  501    0 -0.32949683456E+02  0.22061629426E+02  0.42797120904E+03  0.46331496080E+03  0.17300000000E+03 0.  1.
         -6    1    1    2    0  503  0.32949683456E+02 -0.22061629426E+02 -0.12236385577E+04  0.12364435761E+04  0.17300000000E+03 0.  1.
<mgrwt>
<rscale>  2 0.17748633E+03</rscale>
<asrwt>0</asrwt>
<pdfrwt beam="1">  1       21 0.69545477E-01 0.17748633E+03</pdfrwt>
<pdfrwt beam="2">  1       21 0.19195583E+00 0.17748633E+03</pdfrwt>
<totfact> 0.29043796E+02</totfact>
</mgrwt>
</event>
<event>
 4    2  0.4063641E+000  0.1779726E+03  0.7546771E-02  0.1169780E+00
         21   -1    0    0  503  502  0.00000000000E+00  0.00000000000E+00  0.79563010920E+02  0.79563010920E+02  0.00000000000E+00 0.  1.
         21   -1    0    0  501  503 -0.00000000000E+00 -0.00000000000E+00 -0.50438829996E+03  0.50438829996E+03  0.00000000000E+00 0.  1.
          6    1    1    2  501    0 -0.40345963503E+02 -0.10837859376E+02 -0.34644238831E+03  0.38948245709E+03  0.17300000000E+03 0.  1.
         -6    1    1    2    0  502  0.40345963503E+02  0.10837859376E+02 -0.78382900735E+02  0.19446885379E+03  0.17300000000E+03 0.  1.
<mgrwt>
<rscale>  2 0.17797263E+03</rscale>
<asrwt>0</asrwt>
<pdfrwt beam="1">  1       21 0.12240464E-01 0.17797263E+03</pdfrwt>
<pdfrwt beam="2">  1       21 0.77598198E-01 0.17797263E+03</pdfrwt>
<totfact> 0.83942686E+04</totfact>
</mgrwt>
</event>
<event>
 4    2  0.4063641E+000  0.2284213E+03  0.7546771E-02  0.1127756E+00
         21   -1    0    0  503  502  0.00000000000E+00  0.00000000000E+00  0.89376874783E+02  0.89376874783E+02  0.00000000000E+00 0.  1.
         21   -1    0    0  501  503 -0.00000000000E+00 -0.00000000000E+00 -0.60176849181E+03  0.60176849181E+03  0.00000000000E+00 0.  1.
          6    1    1    2  501    0 -0.69810168061E+02 -0.13180980564E+03 -0.31594636912E+03  0.38986971233E+03  0.17300000000E+03 0.  1.
         -6    1    1    2    0  502  0.69810168061E+02  0.13180980564E+03 -0.19644524791E+03  0.30127565427E+03  0.17300000000E+03 0.  1.
<mgrwt>
<rscale>  2 0.22842129E+03</rscale>
<asrwt>0</asrwt>
<pdfrwt beam="1">  1       21 0.13750289E-01 0.22842129E+03</pdfrwt>
<pdfrwt beam="2">  1       21 0.92579764E-01 0.22842129E+03</pdfrwt>
<totfact> 0.44397600E+04</totfact>
</mgrwt>
</event>
<event>
 4    2  0.4063641E+000  0.2312070E+03  0.7546771E-02  0.1125793E+00
         21   -1    0    0  503  502  0.00000000000E+00  0.00000000000E+00  0.62215383161E+02  0.62215383161E+02  0.00000000000E+00 0. -1.
         21   -1    0    0  501  503 -0.00000000000E+00 -0.00000000000E+00 -0.17572555881E+04  0.17572555881E+04  0.00000000000E+00 0. -1.
          6    1    1    2  501    0 -0.90721424399E+02 -0.12368228841E+03 -0.14978661507E+04  0.15156053876E+04  0.17300000000E+03 0. -1.
         -6    1    1    2    0  502  0.90721424399E+02  0.12368228841E+03 -0.19717405426E+03  0.30386558374E+03  0.17300000000E+03 0. -1.
<mgrwt>
<rscale>  2 0.23120702E+03</rscale>
<asrwt>0</asrwt>
<pdfrwt beam="1">  1       21 0.95715983E-02 0.23120702E+03</pdfrwt>
<pdfrwt beam="2">  1       21 0.27034699E+00 0.23120702E+03</pdfrwt>
<totfact> 0.42633350E+03</totfact>
</mgrwt>
</event>
<event>
 4    2  0.4063641E+000  0.1839479E+03  0.7546771E-02  0.1164036E+00
         21   -1    0    0  501  502  0.00000000000E+00  0.00000000000E+00  0.97770033030E+03  0.97770033030E+03  0.00000000000E+00 0. -1.
         21   -1    0    0  502  503 -0.00000000000E+00 -0.00000000000E+00 -0.42594299333E+02  0.42594299333E+02  0.00000000000E+00 0. -1.
          6    1    1    2  501    0  0.38346072597E+02 -0.49370069025E+02  0.68844336919E+03  0.71259462360E+03  0.17300000000E+03 0. -1.
         -6    1    1    2    0  503 -0.38346072597E+02  0.49370069025E+02  0.24666266178E+03  0.30770000604E+03  0.17300000000E+03 0. -1.
<mgrwt>
<rscale>  2 0.18394789E+03</rscale>
<asrwt>0</asrwt>
<pdfrwt beam="1">  1       21 0.15041542E+00 0.18394789E+03</pdfrwt>
<pdfrwt beam="2">  1       21 0.65529699E-02 0.18394789E+03</pdfrwt>
<totfact> 0.50538672E+04</totfact>
</mgrwt>
</event>
<event>
 4    2  0.4063641E+000  0.2343982E+03  0.7546771E-02  0.1123582E+00
         21   -1    0    0  501  502  0.00000000000E+00  0.00000000000E+00  0.52591295977E+03  0.52591295977E+03  0.00000000000E+00 0. -1.
         21   -1    0    0  502  503 -0.00000000000E+00 -0.00000000000E+00 -0.11356919993E+03  0.11356919993E+03  0.00000000000E+00 0. -1.
          6    1    1    2  501    0 -0.44939394693E+02  0.15163758169E+03  0.29667271436E+03  0.37809681938E+03  0.17300000000E+03 0. -1.
         -6    1    1    2    0  503  0.44939394693E+02 -0.15163758169E+03  0.11567104548E+03  0.26138534033E+03  0.17300000000E+03 0. -1.
<mgrwt>
<rscale>  2 0.23439818E+03</rscale>
<asrwt>0</asrwt>
<pdfrwt beam="1">  1       21 0.80909685E-01 0.23439818E+03</pdfrwt>
<pdfrwt beam="2">  1       21 0.17472185E-01 0.23439818E+03</pdfrwt>
<totfact> 0.38945223E+04</totfact>
</mgrwt>
</event>
<event>
 4    2  0.4063641E+000  0.3311937E+03  0.7546771E-02  0.1070610E+00
         21   -1    0    0  501  502  0.00000000000E+00  0.00000000000E+00  0.23912678927E+03  0.23912678927E+03  0.00000000000E+00 0.  1.
         21   -1    0    0  502  503 -0.00000000000E+00 -0.00000000000E+00 -0.50882922249E+03  0.50882922249E+03  0.00000000000E+00 0. -1.
          6    1    1    2  501    0  0.25081959872E+03  0.12980673970E+03 -0.25222547686E+03  0.41630151567E+03  0.17300000000E+03 0. -1.
         -6    1    1    2    0  503 -0.25081959872E+03 -0.12980673970E+03 -0.17476956364E+02  0.33165449609E+03  0.17300000000E+03 0.  1.
<mgrwt>
<rscale>  2 0.33119369E+03</rscale>
<asrwt>0</asrwt>
<pdfrwt beam="1">  1       21 0.36788737E-01 0.33119369E+03</pdfrwt>
<pdfrwt beam="2">  1       21 0.78281419E-01 0.33119369E+03</pdfrwt>
<totfact> 0.95520257E+03</totfact>
</mgrwt>
</event>
<event>
 4    2  0.4063641E+000  0.1787434E+03  0.7546771E-02  0.1169025E+00
         21   -1    0    0  503  502  0.00000000000E+00  0.00000000000E+00  0.63832867328E+02  0.63832867328E+02  0.00000000000E+00 0. -1.
         21   -1    0    0  501  503 -0.00000000000E+00 -0.00000000000E+00 -0.50220112952E+03  0.50220112952E+03  0.00000000000E+00 0. -1.
          6    1    1    2  501    0  0.19553731487E+02  0.40470478383E+02 -0.23559078079E+03  0.29572322200E+03  0.17300000000E+03 0.  1.
         -6    1    1    2    0  502 -0.19553731487E+02 -0.40470478383E+02 -0.20277748140E+03  0.27031077484E+03  0.17300000000E+03 0.  1.
<mgrwt>
<rscale>  2 0.17874341E+03</rscale>
<asrwt>0</asrwt>
<pdfrwt beam="1">  1       21 0.98204408E-02 0.17874341E+03</pdfrwt>
<pdfrwt beam="2">  1       21 0.77261715E-01 0.17874341E+03</pdfrwt>
<totfact> 0.12526876E+05</totfact>
</mgrwt>
</event>
<event>
 4    2  0.4063641E+000  0.2959639E+03  0.7546771E-02  0.1087276E+00
         21   -1    0    0  503  502  0.00000000000E+00  0.00000000000E+00  0.24193412435E+03  0.24193412435E+03  0.00000000000E+00 0.  1.
         21   -1    0    0  501  503 -0.00000000000E+00 -0.00000000000E+00 -0.58005527288E+03  0.58005527288E+03  0.00000000000E+00 0. -1.
          6    1    1    2  501    0  0.20100443060E+03 -0.13138826481E+03 -0.42101681344E+03  0.51463561328E+03  0.17300000000E+03 0. -1.
         -6    1    1    2    0  502 -0.20100443060E+03  0.13138826481E+03  0.82895664909E+02  0.30735378395E+03  0.17300000000E+03 0.  1.
<mgrwt>
<rscale>  2 0.29596395E+03</rscale>
<asrwt>0</asrwt>
<pdfrwt beam="1">  1       21 0.37220635E-01 0.29596395E+03</pdfrwt>
<pdfrwt beam="2">  1       21 0.89239272E-01 0.29596395E+03</pdfrwt>
<totfact> 0.70032948E+03</totfact>
</mgrwt>
</event>
<event>
 4    2  0.4063641E+000  0.1826451E+03  0.7546771E-02  0.1165267E+00
         21   -1    0    0  501  502  0.00000000000E+00  0.00000000000E+00  0.10174350813E+04  0.10174350813E+04  0.00000000000E+00 0. -1.
         21   -1    0    0  502  503 -0.00000000000E+00 -0.00000000000E+00 -0.52462863769E+02  0.52462863769E+02  0.00000000000E+00 0. -1.
          6    1    1    2  501    0 -0.37314001971E+02 -0.45142902560E+02  0.81008849432E+03  0.83042313614E+03  0.17300000000E+03 0. -1.
         -6    1    1    2    0  503  0.37314001971E+02  0.45142902560E+02  0.15488372318E+03  0.23947480891E+03  0.17300000000E+03 0. -1.
<mgrwt>
<rscale>  2 0.18264506E+03</rscale>
<asrwt>0</asrwt>
<pdfrwt beam="1">  1       21 0.15652846E+00 0.18264506E+03</pdfrwt>
<pdfrwt beam="2">  1       21 0.80712106E-02 0.18264506E+03</pdfrwt>
<totfact> 0.31746208E+04</totfact>
</mgrwt>
</event>
<event>
 4    2  0.4063641E+000  0.2633260E+03  0.7546771E-02  0.1105161E+00
         21   -1    0    0  501  502  0.00000000000E+00  0.00000000000E+00  0.12546333492E+04  0.12546333492E+04  0.00000000000E+00 0. -1.
         21   -1    0    0  502  503 -0.00000000000E+00 -0.00000000000E+00 -0.73416546094E+02  0.73416546094E+02  0.00000000000E+00 0.  1.
          6    1    1    2  501    0  0.19240757862E+03  0.48896880139E+02  0.92075973768E+03  0.95767378357E+03  0.17300000000E+03 0.  1.
         -6    1    1    2    0  503 -0.19240757862E+03 -0.48896880139E+02  0.26045706538E+03  0.37037611168E+03  0.17300000000E+03 0. -1.
<mgrwt>
<rscale>  2 0.26332600E+03</rscale>
<asrwt>0</asrwt>
<pdfrwt beam="1">  1       21 0.19302050E+00 0.26332600E+03</pdfrwt>
<pdfrwt beam="2">  1       21 0.11294854E-01 0.26332600E+03</pdfrwt>
<totfact> 0.92515224E+03</totfact>
</mgrwt>
</event>
<event>
 4    2  0.4063641E+000  0.1921238E+03  0.7546771E-02  0.1156560E+00
         21   -1    0    0  503  502  0.00000000000E+00  0.00000000000E+00  0.10760263001E+03  0.10760263001E+03  0.00000000000E+00 0.  1.
         21   -1    0    0  501  503 -0.00000000000E+00 -0.00000000000E+00 -0.47983211095E+03  0.47983211095E+03  0.00000000000E+00 0.  1.
          6    1    1    2  501    0 -0.20745064164E+02  0.80945577256E+02 -0.34294227658E+03  0.39309152780E+03  0.17300000000E+03 0.  1.
         -6    1    1    2    0  502  0.20745064164E+02 -0.80945577256E+02 -0.29287204360E+02  0.19434321317E+03  0.17300000000E+03 0.  1.
<mgrwt>
<rscale>  2 0.19212377E+03</rscale>
<asrwt>0</asrwt>
<pdfrwt beam="1">  1       21 0.16554251E-01 0.19212377E+03</pdfrwt>
<pdfrwt beam="2">  1       21 0.73820324E-01 0.19212377E+03</pdfrwt>
<totfact> 0.53972899E+04</totfact>
</mgrwt>
</event>
<event>
 4    2  0.4063641E+000  0.2245631E+03  0.7546771E-02  0.1130526E+00
         21   -1    0    0  501  502  0.00000000000E+00  0.00000000000E+00  0.79811911498E+02  0.79811911498E+02  0.00000000000E+00 0. -1.
         21   -1    0    0  502  503 -0.00000000000E+00 -0.00000000000E+00 -0.78903282813E+03  0.78903282813E+03  0.00000000000E+00 0. -1.
          6    1    1    2  501    0 -0.77700824012E+02 -0.12025877541E+03 -0.16071083036E+03  0.27614590728E+03  0.17300000000E+03 0. -1.
         -6    1    1    2    0  503  0.77700824012E+02  0.12025877541E+03 -0.54851008628E+03  0.59269883235E+03  0.17300000000E+03 0. -1.
<mgrwt>
<rscale>  2 0.22456311E+03</rscale>
<asrwt>0</asrwt>
<pdfrwt beam="1">  1       21 0.12278755E-01 0.22456311E+03</pdfrwt>
<pdfrwt beam="2">  1       21 0.12138967E+00 0.22456311E+03</pdfrwt>
<totfact> 0.28377312E+04</totfact>
</mgrwt>
</event>
<event>
 4    2  0.4063641E+000  0.2344703E+03  0.7546771E-02  0.1123532E+00
         21   -1    0    0  503  502  0.00000000000E+00  0.00000000000E+00  0.26057748292E+03  0.26057748292E+03  0.00000000000E+00 0. -1.
         21   -1    0    0  501  503 -0.00000000000E+00 -0.00000000000E+00 -0.62043110204E+03  0.62043110204E+03  0.00000000000E+00 0.  1.
          6    1    1    2  501    0  0.66528447278E+02 -0.14360115791E+03 -0.53778010296E+03  0.58667177024E+03  0.17300000000E+03 0.  1.
         -6    1    1    2    0  502 -0.66528447278E+02  0.14360115791E+03  0.17792648383E+03  0.29433681472E+03  0.17300000000E+03 0. -1.
<mgrwt>
<rscale>  2 0.23447031E+03</rscale>
<asrwt>0</asrwt>
<pdfrwt beam="1">  1       21 0.40088844E-01 0.23447031E+03</pdfrwt>
<pdfrwt beam="2">  1       21 0.95450938E-01 0.23447031E+03</pdfrwt>
<totfact> 0.53283436E+03</totfact>
</mgrwt>
</event>
<event>
 4    2  0.4063641E+000  0.2004844E+03  0.7546771E-02  0.1149331E+00
         21   -1    0    0  503  502  0.00000000000E+00  0.00000000000E+00  0.47346162595E+02  0.47346162595E+02  0.00000000000E+00 0. -1.
         21   -1    0    0  501  503 -0.00000000000E+00 -0.00000000000E+00 -0.10907981410E+04  0.10907981410E+04  0.00000000000E+00 0. -1.
          6    1    1    2  501    0  0.62916242080E+02 -0.79413650564E+02 -0.78969021549E+03  0.81474205602E+03  0.17300000000E+03 0. -1.
         -6    1    1    2    0  502 -0.62916242080E+02  0.79413650564E+02 -0.25376176289E+03  0.32340224755E+03  0.17300000000E+03 0. -1.
<mgrwt>
<rscale>  2 0.20048437E+03</rscale>
<asrwt>0</asrwt>
<pdfrwt beam="1">  1       21 0.72840254E-02 0.20048437E+03</pdfrwt>
<pdfrwt beam="2">  1       21 0.16781509E+00 0.20048437E+03</pdfrwt>
<totfact> 0.31062398E+04</totfact>
</mgrwt>
</event>
<event>
 4    2  0.4063641E+000  0.1797033E+03  0.7546771E-02  0.1168090E+00
         21   -1    0    0  503  502  0.00000000000E+00  0.00000000000E+00  0.48506222925E+02  0.48506222925E+02  0.00000000000E+00 0. -1.
         21   -1    0    0  501  503 -0.00000000000E+00 -0.00000000000E+00 -0.90545031805E+03  0.90545031805E+03  0.00000000000E+00 0. -1.
          6    1    1    2  501    0 -0.22250315828E+02  0.43234248773E+02 -0.67388402303E+03  0.69743311745E+03  0.17300000000E+03 0. -1.
         -6    1    1    2    0  502  0.22250315828E+02 -0.43234248773E+02 -0.18306007209E+03  0.25652342352E+03  0.17300000000E+03 0. -1.
<mgrwt>
<rscale>  2 0.17970330E+03</rscale>
<asrwt>0</asrwt>
<pdfrwt beam="1">  1       21 0.74624961E-02 0.17970330E+03</pdfrwt>
<pdfrwt beam="2">  1       21 0.13930004E+00 0.17970330E+03</pdfrwt>
<totfact> 0.49435332E+04</totfact>
</mgrwt>
</event>
<event>
 4    2  0.4063641E+000  0.1851429E+03  0.7546771E-02  0.1162917E+00
         21   -1    0    0  503  502  0.00000000000E+00  0.00000000000E+00  0.57208166027E+03  0.57208166027E+03  0.00000000000E+00 0. -1.
         21   -1    0    0  501  503 -0.00000000000E+00 -0.00000000000E+00 -0.12823093792E+03  0.12823093792E+03  0.00000000000E+00 0. -1.
          6    1    1    2  501    0  0.65127079866E+02 -0.10360959680E+02 -0.33649178634E+02  0.18817585722E+03  0.17300000000E+03 0. -1.
         -6    1    1    2    0  502 -0.65127079866E+02  0.10360959680E+02  0.47749990098E+03  0.51213674097E+03  0.17300000000E+03 0. -1.
<mgrwt>
<rscale>  2 0.18514288E+03</rscale>
<asrwt>0</asrwt>
<pdfrwt beam="1">  1       21 0.88012562E-01 0.18514288E+03</pdfrwt>
<pdfrwt beam="2">  1       21 0.19727837E-01 0.18514288E+03</pdfrwt>
<totfact> 0.26307756E+04</totfact>
</mgrwt>
</event>
<event>
 4    2  0.4063641E+000  0.2703734E+03  0.7546771E-02  0.1101066E+00
         21   -1    0    0  503  502  0.00000000000E+00  0.00000000000E+00  0.35464741375E+03  0.35464741375E+03  0.00000000000E+00 0.  1.
         21   -1    0    0  501  503 -0.00000000000E+00 -0.00000000000E+00 -0.21394782462E+03  0.21394782462E+03  0.00000000000E+00 0. -1.
          6    1    1    2  501    0  0.71352986926E+01  0.20765806610E+03  0.15987936433E+02  0.27084571072E+03  0.17300000000E+03 0. -1.
         -6    1    1    2    0  502 -0.71352986926E+01 -0.20765806610E+03  0.12471165270E+03  0.29774952766E+03  0.17300000000E+03 0. -1.
<mgrwt>
<rscale>  2 0.27037342E+03</rscale>
<asrwt>0</asrwt>
<pdfrwt beam="1">  1       21 0.54561140E-01 0.27037342E+03</pdfrwt>
<pdfrwt beam="2">  1       21 0.32915050E-01 0.27037342E+03</pdfrwt>
<totfact> 0.27134090E+04</totfact>
</mgrwt>
</event>
<event>
 4    2  0.4063641E+000  0.1936659E+03  0.7546771E-02  0.1155196E+00
         21   -1    0    0  501  502  0.00000000000E+00  0.00000000000E+00  0.11825645101E+03  0.11825645101E+03  0.00000000000E+00 0. -1.
         21   -1    0    0  502  503 -0.00000000000E+00 -0.00000000000E+00 -0.32078972144E+03  0.32078972144E+03  0.00000000000E+00 0. -1.
          6    1    1    2  501    0  0.86517529013E+02  0.96015372108E+01 -0.12461072301E+03  0.23029178151E+03  0.17300000000E+03 0. -1.
         -6    1    1    2    0  503 -0.86517529013E+02 -0.96015372108E+01 -0.77922547422E+02  0.20875439095E+03  0.17300000000E+03 0. -1.
<mgrwt>
<rscale>  2 0.19366588E+03</rscale>
<asrwt>0</asrwt>
<pdfrwt beam="1">  1       21 0.18193301E-01 0.19366588E+03</pdfrwt>
<pdfrwt beam="2">  1       21 0.49352263E-01 0.19366588E+03</pdfrwt>
<totfact> 0.10773975E+05</totfact>
</mgrwt>
</event>
<event>
 4    2  0.4063641E+000  0.1980353E+03  0.7546771E-02  0.1151407E+00
         21   -1    0    0  501  502  0.00000000000E+00  0.00000000000E+00  0.77981182082E+03  0.77981182082E+03  0.00000000000E+00 0.  1.
         21   -1    0    0  502  503 -0.00000000000E+00 -0.00000000000E+00 -0.76541793287E+02  0.76541793287E+02  0.00000000000E+00 0.  1.
          6    1    1    2  501    0 -0.69083208740E+02 -0.67204768091E+02  0.60238459688E+03  0.63410186338E+03  0.17300000000E+03 0.  1.
         -6    1    1    2    0  503  0.69083208740E+02  0.67204768091E+02  0.10088543066E+03  0.22225175073E+03  0.17300000000E+03 0.  1.
<mgrwt>
<rscale>  2 0.19803528E+03</rscale>
<asrwt>0</asrwt>
<pdfrwt beam="1">  1       21 0.11997104E+00 0.19803528E+03</pdfrwt>
<pdfrwt beam="2">  1       21 0.11775661E-01 0.19803528E+03</pdfrwt>
<totfact> 0.31971975E+04</totfact>
</mgrwt>
</event>
<event>
 4    2  0.4063641E+000  0.1957824E+03  0.7546771E-02  0.1153347E+00
         21   -1    0    0  501  502  0.00000000000E+00  0.00000000000E+00  0.24505205615E+03  0.24505205615E+03  0.00000000000E+00 0.  1.
         21   -1    0    0  502  503 -0.00000000000E+00 -0.00000000000E+00 -0.28446477778E+03  0.28446477778E+03  0.00000000000E+00 0.  1.
          6    1    1    2  501    0 -0.61999855215E+02 -0.67511144825E+02  0.15792456445E+03  0.25153708430E+03  0.17300000000E+03 0.  1.
         -6    1    1    2    0  503  0.61999855215E+02  0.67511144825E+02 -0.19733728609E+03  0.27797974963E+03  0.17300000000E+03 0.  1.
<mgrwt>
<rscale>  2 0.19578237E+03</rscale>
<asrwt>0</asrwt>
<pdfrwt beam="1">  1       21 0.37700317E-01 0.19578237E+03</pdfrwt>
<pdfrwt beam="2">  1       21 0.43763812E-01 0.19578237E+03</pdfrwt>
<totfact> 0.33987101E+04</totfact>
</mgrwt>
</event>
<event>
 4    2  0.4063641E+000  0.1740910E+03  0.7546771E-02  0.1173647E+00
         21   -1    0    0  503  502  0.00000000000E+00  0.00000000000E+00  0.16291162072E+03  0.16291162072E+03  0.00000000000E+00 0.  1.
         21   -1    0    0  501  503 -0.00000000000E+00 -0.00000000000E+00 -0.42859217391E+03  0.42859217391E+03  0.00000000000E+00 0.  1.
          6    1    1    2  501    0  0.17114891891E+02 -0.92606724756E+01 -0.35533012281E+03  0.39568570325E+03  0.17300000000E+03 0.  1.
         -6    1    1    2    0  502 -0.17114891891E+02  0.92606724756E+01  0.89649569619E+02  0.19581809138E+03  0.17300000000E+03 0.  1.
<mgrwt>
<rscale>  2 0.17409101E+03</rscale>
<asrwt>0</asrwt>
<pdfrwt beam="1">  1       21 0.25063327E-01 0.17409101E+03</pdfrwt>
<pdfrwt beam="2">  1       21 0.65937257E-01 0.17409101E+03</pdfrwt>
<totfact> 0.32166402E+04</totfact>
</mgrwt>
</event>
<event>
 4    2  0.4063641E+000  0.1821280E+03  0.7546771E-02  0.1165759E+00
         21   -1    0    0  501  502  0.00000000000E+00  0.00000000000E+00  0.19222979554E+03  0.19222979554E+03  0.00000000000E+00 0.  1.
         21   -1    0    0  502  503 -0.00000000000E+00 -0.00000000000E+00 -0.17652391204E+03  0.17652391204E+03  0.00000000000E+00 0.  1.
          6    1    1    2  501    0 -0.36490760102E+01  0.56818140043E+02  0.35492126454E+02  0.18555405637E+03  0.17300000000E+03 0.  1.
         -6    1    1    2    0  503  0.36490760102E+01 -0.56818140043E+02 -0.19786242952E+02  0.18319965121E+03  0.17300000000E+03 0.  1.
<mgrwt>
<rscale>  2 0.18212802E+03</rscale>
<asrwt>0</asrwt>
<pdfrwt beam="1">  1       21 0.29573815E-01 0.18212802E+03</pdfrwt>
<pdfrwt beam="2">  1       21 0.27157525E-01 0.18212802E+03</pdfrwt>
<totfact> 0.14209683E+05</totfact>
</mgrwt>
</event>
<event>
 4    2  0.4063641E+000  0.1832183E+03  0.7546771E-02  0.1164724E+00
         21   -1    0    0  501  502  0.00000000000E+00  0.00000000000E+00  0.38771822502E+03  0.38771822502E+03  0.00000000000E+00 0. -1.
         21   -1    0    0  502  503 -0.00000000000E+00 -0.00000000000E+00 -0.10208778437E+03  0.10208778437E+03  0.00000000000E+00 0. -1.
          6    1    1    2  501    0  0.30910586579E+02 -0.51811821653E+02  0.23826431140E+03  0.30056415507E+03  0.17300000000E+03 0. -1.
         -6    1    1    2    0  503 -0.30910586579E+02  0.51811821653E+02  0.47366129256E+02  0.18924185432E+03  0.17300000000E+03 0. -1.
<mgrwt>
<rscale>  2 0.18321826E+03</rscale>
<asrwt>0</asrwt>
<pdfrwt beam="1">  1       21 0.59648957E-01 0.18321826E+03</pdfrwt>
<pdfrwt beam="2">  1       21 0.15705813E-01 0.18321826E+03</pdfrwt>
<totfact> 0.95001308E+04</totfact>
</mgrwt>
</event>
<event>
 4    2  0.4063641E+000  0.1777832E+03  0.7546771E-02  0.1169966E+00
         21   -1    0    0  503  502  0.00000000000E+00  0.00000000000E+00  0.39145506653E+03  0.39145506653E+03  0.00000000000E+00 0.  1.
         21   -1    0    0  501  503 -0.00000000000E+00 -0.00000000000E+00 -0.10541092672E+03  0.10541092672E+03  0.00000000000E+00 0.  1.
          6    1    1    2  501    0 -0.40961835699E+02  0.80725941890E-01  0.22839555574E+02  0.17924431316E+03  0.17300000000E+03 0.  1.
         -6    1    1    2    0  502  0.40961835699E+02 -0.80725941890E-01  0.26320458424E+03  0.31762168009E+03  0.17300000000E+03 0.  1.
<mgrwt>
<rscale>  2 0.17778323E+03</rscale>
<asrwt>0</asrwt>
<pdfrwt beam="1">  1       21 0.60223856E-01 0.17778323E+03</pdfrwt>
<pdfrwt beam="2">  1       21 0.16217066E-01 0.17778323E+03</pdfrwt>
<totfact> 0.87968988E+04</totfact>
</mgrwt>
</event>
<event>
 4    2  0.4063641E+000  0.1790102E+03  0.7546771E-02  0.1168764E+00
         21   -1    0    0  503  502  0.00000000000E+00  0.00000000000E+00  0.14755115195E+03  0.14755115195E+03  0.00000000000E+00 0.  1.
         21   -1    0    0  501  503 -0.00000000000E+00 -0.00000000000E+00 -0.21728187316E+03  0.21728187316E+03  0.00000000000E+00 0.  1.
          6    1    1    2  501    0  0.20078972899E+02 -0.41382271116E+02 -0.30850124386E+02  0.18164907842E+03  0.17300000000E+03 0.  1.
         -6    1    1    2    0  502 -0.20078972899E+02  0.41382271116E+02 -0.38880596825E+02  0.18318394669E+03  0.17300000000E+03 0.  1.
<mgrwt>
<rscale>  2 0.17901022E+03</rscale>
<asrwt>0</asrwt>
<pdfrwt beam="1">  1       21 0.22700177E-01 0.17901022E+03</pdfrwt>
<pdfrwt beam="2">  1       21 0.33427980E-01 0.17901022E+03</pdfrwt>
<totfact> 0.15748950E+05</totfact>
</mgrwt>
</event>
<event>
 4    2  0.4063641E+000  0.1763542E+03  0.7546771E-02  0.1171379E+00
         21   -1    0    0  501  502  0.00000000000E+00  0.00000000000E+00  0.82268601782E+02  0.82268601782E+02  0.00000000000E+00 0.  1.
         21   -1    0    0  502  503 -0.00000000000E+00 -0.00000000000E+00 -0.55698780035E+03  0.55698780035E+03  0.00000000000E+00 0.  1.
          6    1    1    2  501    0 -0.25952999694E+02 -0.22321397246E+02 -0.56189836734E+02  0.18508943979E+03  0.17300000000E+03 0.  1.
         -6    1    1    2    0  503  0.25952999694E+02  0.22321397246E+02 -0.41852936183E+03  0.45416696234E+03  0.17300000000E+03 0.  1.
<mgrwt>
<rscale>  2 0.17635420E+03</rscale>
<asrwt>0</asrwt>
<pdfrwt beam="1">  1       21 0.12656708E-01 0.17635420E+03</pdfrwt>
<pdfrwt beam="2">  1       21 0.85690430E-01 0.17635420E+03</pdfrwt>
<totfact> 0.63210990E+04</totfact>
</mgrwt>
</event>
<event>
 4    2  0.4063641E+000  0.2371228E+03  0.7546771E-02  0.1121724E+00
         21   -1    0    0  503  502  0.00000000000E+00  0.00000000000E+00  0.12297228458E+04  0.12297228458E+04  0.00000000000E+00 0. -1.
         21   -1    0    0  501  503 -0.00000000000E+00 -0.00000000000E+00 -0.56937151584E+02  0.56937151584E+02  0.00000000000E+00 0. -1.
          6    1    1    2  501    0 -0.13388197296E+03  0.91508790594E+02  0.30089073614E+03  0.38309591036E+03  0.17300000000E+03 0. -1.
         -6    1    1    2    0  502  0.13388197296E+03 -0.91508790594E+02  0.87189495804E+03  0.90356408699E+03  0.17300000000E+03 0. -1.
<mgrwt>
<rscale>  2 0.23712284E+03</rscale>
<asrwt>0</asrwt>
<pdfrwt beam="1">  1       21 0.18918811E+00 0.23712284E+03</pdfrwt>
<pdfrwt beam="2">  1       21 0.87595627E-02 0.23712284E+03</pdfrwt>
<totfact> 0.15668380E+04</totfact>
</mgrwt>
</event>
<event>
 4    2  0.4063641E+000  0.2429565E+03  0.7546771E-02  0.1117839E+00
         21   -1    0    0  503  502  0.00000000000E+00  0.00000000000E+00  0.75670865156E+02  0.75670865156E+02  0.00000000000E+00 0.  1.
         21   -1    0    0  501  503 -0.00000000000E+00 -0.00000000000E+00 -0.84546530159E+03  0.84546530159E+03  0.00000000000E+00 0. -1.
          6    1    1    2  501    0 -0.71691003563E+02  0.15478775763E+03 -0.51299773821E+03  0.56762181891E+03  0.17300000000E+03 0.  1.
         -6    1    1    2    0  502  0.71691003563E+02 -0.15478775763E+03 -0.25679669823E+03  0.35351434783E+03  0.17300000000E+03 0.  1.
<mgrwt>
<rscale>  2 0.24295648E+03</rscale>
<asrwt>0</asrwt>
<pdfrwt beam="1">  1       21 0.11641671E-01 0.24295648E+03</pdfrwt>
<pdfrwt beam="2">  1       21 0.13007159E+00 0.24295648E+03</pdfrwt>
<totfact> 0.25983999E+04</totfact>
</mgrwt>
</event>
<event>
 4    2  0.4063641E+000  0.2593867E+03  0.7546771E-02  0.1107512E+00
         21   -1    0    0  501  502  0.00000000000E+00  0.00000000000E+00  0.27188761982E+03  0.27188761982E+03  0.00000000000E+00 0. -1.
         21   -1    0    0  502  503 -0.00000000000E+00 -0.00000000000E+00 -0.29026149837E+03  0.29026149837E+03  0.00000000000E+00 0. -1.
          6    1    1    2  501    0 -0.13160701198E+03  0.14153471271E+03  0.98745783754E+02  0.27754677140E+03  0.17300000000E+03 0. -1.
         -6    1    1    2    0  503  0.13160701198E+03 -0.14153471271E+03 -0.11711966230E+03  0.28460234679E+03  0.17300000000E+03 0. -1.
<mgrwt>
<rscale>  2 0.25938674E+03</rscale>
<asrwt>0</asrwt>
<pdfrwt beam="1">  1       21 0.41828865E-01 0.25938674E+03</pdfrwt>
<pdfrwt beam="2">  1       21 0.44655615E-01 0.25938674E+03</pdfrwt>
<totfact> 0.25603855E+04</totfact>
</mgrwt>
</event>
<event>
 4    2  0.4063641E+000  0.1950462E+03  0.7546771E-02  0.1153987E+00
         21   -1    0    0  503  502  0.00000000000E+00  0.00000000000E+00  0.35201948502E+03  0.35201948502E+03  0.00000000000E+00 0.  1.
         21   -1    0    0  501  503 -0.00000000000E+00 -0.00000000000E+00 -0.20662091980E+03  0.20662091980E+03  0.00000000000E+00 0.  1.
          6    1    1    2  501    0  0.24412930195E+01  0.90044813475E+02 -0.12020584640E+03  0.22911236076E+03  0.17300000000E+03 0.  1.
         -6    1    1    2    0  502 -0.24412930195E+01 -0.90044813475E+02  0.26560441163E+03  0.32952804406E+03  0.17300000000E+03 0.  1.
<mgrwt>
<rscale>  2 0.19504622E+03</rscale>
<asrwt>0</asrwt>
<pdfrwt beam="1">  1       21 0.54156844E-01 0.19504622E+03</pdfrwt>
<pdfrwt beam="2">  1       21 0.31787834E-01 0.19504622E+03</pdfrwt>
<totfact> 0.30627145E+04</totfact>
</mgrwt>
</event>
<event>
 4    2  0.4063641E+000  0.1751732E+03  0.7546771E-02  0.1172558E+00
         21   -1    0    0  501  502  0.00000000000E+00  0.00000000000E+00  0.49366432553E+03  0.49366432553E+03  0.00000000000E+00 0.  1.
         21   -1    0    0  502  503 -0.00000000000E+00 -0.00000000000E+00 -0.37584321665E+03  0.37584321665E+03  0.00000000000E+00 0.  1.
          6    1    1    2  501    0  0.43260724703E+01  0.27165168658E+02  0.45608962998E+03  0.48857283169E+03  0.17300000000E+03 0.  1.
         -6    1    1    2    0  503 -0.43260724703E+01 -0.27165168658E+02 -0.33826852110E+03  0.38093471049E+03  0.17300000000E+03 0.  1.
<mgrwt>
<rscale>  2 0.17517323E+03</rscale>
<asrwt>0</asrwt>
<pdfrwt beam="1">  1       21 0.75948358E-01 0.17517323E+03</pdfrwt>
<pdfrwt beam="2">  1       21 0.57822033E-01 0.17517323E+03</pdfrwt>
<totfact> 0.43983669E+03</totfact>
</mgrwt>
</event>
<event>
 4    2  0.4063641E+000  0.2742738E+03  0.7546771E-02  0.1098858E+00
         21   -1    0    0  501  502  0.00000000000E+00  0.00000000000E+00  0.13784139074E+03  0.13784139074E+03  0.00000000000E+00 0. -1.
         21   -1    0    0  502  503 -0.00000000000E+00 -0.00000000000E+00 -0.69349079245E+03  0.69349079245E+03  0.00000000000E+00 0.  1.
          6    1    1    2  501    0 -0.16678942818E+03  0.13220586390E+03 -0.85965175470E+02  0.28743019186E+03  0.17300000000E+03 0. -1.
         -6    1    1    2    0  503  0.16678942818E+03 -0.13220586390E+03 -0.46968422624E+03  0.54390199133E+03  0.17300000000E+03 0.  1.
<mgrwt>
<rscale>  2 0.27427378E+03</rscale>
<asrwt>0</asrwt>
<pdfrwt beam="1">  1       21 0.21206367E-01 0.27427378E+03</pdfrwt>
<pdfrwt beam="2">  1       21 0.10669089E+00 0.27427378E+03</pdfrwt>
<totfact> 0.13873212E+04</totfact>
</mgrwt>
</event>
<event>
 4    2  0.4063641E+000  0.1885201E+03  0.7546771E-02  0.1159803E+00
         21   -1    0    0  501  502  0.00000000000E+00  0.00000000000E+00  0.16881444062E+03  0.16881444062E+03  0.00000000000E+00 0.  1.
         21   -1    0    0  502  503 -0.00000000000E+00 -0.00000000000E+00 -0.24793843647E+03  0.24793843647E+03  0.00000000000E+00 0. -1.
          6    1    1    2  501    0  0.22411565340E+02 -0.71474242790E+02  0.41381897943E+02  0.19300856748E+03  0.17300000000E+03 0.  1.
         -6    1    1    2    0  503 -0.22411565340E+02  0.71474242790E+02 -0.12050589380E+03  0.22374430961E+03  0.17300000000E+03 0.  1.
<mgrwt>
<rscale>  2 0.18852015E+03</rscale>
<asrwt>0</asrwt>
<pdfrwt beam="1">  1       21 0.25971452E-01 0.18852015E+03</pdfrwt>
<pdfrwt beam="2">  1       21 0.38144375E-01 0.18852015E+03</pdfrwt>
<totfact> 0.93481287E+04</totfact>
</mgrwt>
</event>
<event>
 4    2  0.4063641E+000  0.1843536E+03  0.7546771E-02  0.1163655E+00
         21   -1    0    0  501  502  0.00000000000E+00  0.00000000000E+00  0.17660395664E+03  0.17660395664E+03  0.00000000000E+00 0. -1.
         21   -1    0    0  502  503 -0.00000000000E+00 -0.00000000000E+00 -0.23726177198E+03  0.23726177198E+03  0.00000000000E+00 0. -1.
          6    1    1    2  501    0  0.28950132770E+00 -0.63695976230E+02  0.59609201099E+02  0.19375117562E+03  0.17300000000E+03 0. -1.
         -6    1    1    2    0  503 -0.28950132770E+00  0.63695976230E+02 -0.12026701644E+03  0.22011455300E+03  0.17300000000E+03 0. -1.
<mgrwt>
<rscale>  2 0.18435363E+03</rscale>
<asrwt>0</asrwt>
<pdfrwt beam="1">  1       21 0.27169839E-01 0.18435363E+03</pdfrwt>
<pdfrwt beam="2">  1       21 0.36501811E-01 0.18435363E+03</pdfrwt>
<totfact> 0.93759696E+04</totfact>
</mgrwt>
</event>
<event>
 4    2  0.4063641E+000  0.1892943E+03  0.7546771E-02  0.1159099E+00
         21   -1    0    0  501  502  0.00000000000E+00  0.00000000000E+00  0.26182557158E+03  0.26182557158E+03  0.00000000000E+00 0. -1.
         21   -1    0    0  502  503 -0.00000000000E+00 -0.00000000000E+00 -0.20240574799E+03  0.20240574799E+03  0.00000000000E+00 0. -1.
          6    1    1    2  501    0  0.59918205941E+02  0.48095188467E+02  0.16180276360E+03  0.24902303682E+03  0.17300000000E+03 0. -1.
         -6    1    1    2    0  503 -0.59918205941E+02 -0.48095188467E+02 -0.10238294001E+03  0.21520828274E+03  0.17300000000E+03 0. -1.
<mgrwt>
<rscale>  2 0.18929432E+03</rscale>
<asrwt>0</asrwt>
<pdfrwt beam="1">  1       21 0.40280857E-01 0.18929432E+03</pdfrwt>
<pdfrwt beam="2">  1       21 0.31139346E-01 0.18929432E+03</pdfrwt>
<totfact> 0.58931699E+04</totfact>
</mgrwt>
</event>
<event>
 4    2  0.4063641E+000  0.2665372E+03  0.7546771E-02  0.1103278E+00
         21   -1    0    0  503  502  0.00000000000E+00  0.00000000000E+00  0.36937090871E+03  0.36937090871E+03  0.00000000000E+00 0. -1.
         21   -1    0    0  501  503 -0.00000000000E+00 -0.00000000000E+00 -0.24962210744E+03  0.24962210744E+03  0.00000000000E+00 0.  1.
          6    1    1    2  501    0 -0.95945367221E+02  0.17862682868E+03 -0.88395117332E+02  0.28081266742E+03  0.17300000000E+03 0.  1.
         -6    1    1    2    0  502  0.95945367221E+02 -0.17862682868E+03  0.20814391861E+03  0.33818034873E+03  0.17300000000E+03 0. -1.
<mgrwt>
<rscale>  2 0.26653716E+03</rscale>
<asrwt>0</asrwt>
<pdfrwt beam="1">  1       21 0.56826294E-01 0.26653716E+03</pdfrwt>
<pdfrwt beam="2">  1       21 0.38403401E-01 0.26653716E+03</pdfrwt>
<totfact> 0.18290314E+04</totfact>
</mgrwt>
</event>
<event>
 4    2  0.4063641E+000  0.3155582E+03  0.7546771E-02  0.1077712E+00
         21   -1    0    0  503  502  0.00000000000E+00  0.00000000000E+00  0.38971342393E+03  0.38971342393E+03  0.00000000000E+00 0.  1.
         21   -1    0    0  501  503 -0.00000000000E+00 -0.00000000000E+00 -0.28841087826E+03  0.28841087826E+03  0.00000000000E+00 0. -1.
          6    1    1    2  501    0  0.85732319666E+02  0.24959552436E+03 -0.63861932297E+02  0.32195543606E+03  0.17300000000E+03 0.  1.
         -6    1    1    2    0  502 -0.85732319666E+02 -0.24959552436E+03  0.16516447796E+03  0.35616886612E+03  0.17300000000E+03 0. -1.
<mgrwt>
<rscale>  2 0.31555817E+03</rscale>
<asrwt>0</asrwt>
<pdfrwt beam="1">  1       21 0.59955911E-01 0.31555817E+03</pdfrwt>
<pdfrwt beam="2">  1       21 0.44370904E-01 0.31555817E+03</pdfrwt>
<totfact> 0.11860962E+04</totfact>
</mgrwt>
</event>
<event>
 4    2  0.4063641E+000  0.2140749E+03  0.7546771E-02  0.1138379E+00
         21   -1    0    0  503  502  0.00000000000E+00  0.00000000000E+00  0.12499213609E+03  0.12499213609E+03  0.00000000000E+00 0.  1.
         21   -1    0    0  501  503 -0.00000000000E+00 -0.00000000000E+00 -0.36665472821E+03  0.36665472821E+03  0.00000000000E+00 0.  1.
          6    1    1    2  501    0 -0.61145320111E+02  0.11027388157E+03 -0.12190760904E+03  0.24635247973E+03  0.17300000000E+03 0.  1.
         -6    1    1    2    0  502  0.61145320111E+02 -0.11027388157E+03 -0.11975498308E+03  0.24529438457E+03  0.17300000000E+03 0.  1.
<mgrwt>
<rscale>  2 0.21407494E+03</rscale>
<asrwt>0</asrwt>
<pdfrwt beam="1">  1       21 0.19229560E-01 0.21407494E+03</pdfrwt>
<pdfrwt beam="2">  1       21 0.56408419E-01 0.21407494E+03</pdfrwt>
<totfact> 0.72743098E+04</totfact>
</mgrwt>
</event>
<event>
 4    2  0.4063641E+000  0.3182159E+03  0.7546771E-02  0.1076473E+00
         21   -1    0    0  503  502  0.00000000000E+00  0.00000000000E+00  0.82948847194E+02  0.82948847194E+02  0.00000000000E+00 0.  1.
         21   -1    0    0  501  503 -0.00000000000E+00 -0.00000000000E+00 -0.26634056719E+04  0.26634056719E+04  0.00000000000E+00 0. -1.
          6    1    1    2  501    0  0.12660580462E+03  0.23516656472E+03 -0.23008451717E+04  0.23227461866E+04  0.17300000000E+03 0. -1.
         -6    1    1    2    0  502 -0.12660580462E+03 -0.23516656472E+03 -0.27961165303E+03  0.42360833259E+03  0.17300000000E+03 0.  1.
<mgrwt>
<rscale>  2 0.31821587E+03</rscale>
<asrwt>0</asrwt>
<pdfrwt beam="1">  1       21 0.12761365E-01 0.31821587E+03</pdfrwt>
<pdfrwt beam="2">  1       21 0.40975461E+00 0.31821587E+03</pdfrwt>
<totfact> 0.33913840E+02</totfact>
</mgrwt>
</event>
<event>
 4    2  0.4063641E+000  0.1928638E+03  0.7546771E-02  0.1155903E+00
         21   -1    0    0  503  502  0.00000000000E+00  0.00000000000E+00  0.51418016679E+02  0.51418016679E+02  0.00000000000E+00 0.  1.
         21   -1    0    0  501  503 -0.00000000000E+00 -0.00000000000E+00 -0.95414197772E+03  0.95414197772E+03  0.00000000000E+00 0.  1.
          6    1    1    2  501    0 -0.30563006206E+02  0.79582286905E+02 -0.69860440813E+03  0.72473757789E+03  0.17300000000E+03 0.  1.
         -6    1    1    2    0  502  0.30563006206E+02 -0.79582286905E+02 -0.20411955291E+03  0.28082241652E+03  0.17300000000E+03 0.  1.
<mgrwt>
<rscale>  2 0.19286378E+03</rscale>
<asrwt>0</asrwt>
<pdfrwt beam="1">  1       21 0.79104645E-02 0.19286378E+03</pdfrwt>
<pdfrwt beam="2">  1       21 0.14679107E+00 0.19286378E+03</pdfrwt>
<totfact> 0.38711363E+04</totfact>
</mgrwt>
</event>
<event>
 4    2  0.4063641E+000  0.1797984E+03  0.7546771E-02  0.1167998E+00
         21   -1    0    0  501  502  0.00000000000E+00  0.00000000000E+00  0.18620124939E+03  0.18620124939E+03  0.00000000000E+00 0. -1.
         21   -1    0    0  502  503 -0.00000000000E+00 -0.00000000000E+00 -0.18606817384E+03  0.18606817384E+03  0.00000000000E+00 0. -1.
          6    1    1    2  501    0 -0.39882474465E+02 -0.28422765650E+02  0.48219018088E+02  0.18615192473E+03  0.17300000000E+03 0. -1.
         -6    1    1    2    0  503  0.39882474465E+02  0.28422765650E+02 -0.48085942534E+02  0.18611749850E+03  0.17300000000E+03 0. -1.
<mgrwt>
<rscale>  2 0.17979840E+03</rscale>
<asrwt>0</asrwt>
<pdfrwt beam="1">  1       21 0.28646346E-01 0.17979840E+03</pdfrwt>
<pdfrwt beam="2">  1       21 0.28625873E-01 0.17979840E+03</pdfrwt>
<totfact> 0.13665441E+05</totfact>
</mgrwt>
</event>
<event>
 4    2  0.4063641E+000  0.1793090E+03  0.7546771E-02  0.1168473E+00
         21   -1    0    0  501  502  0.00000000000E+00  0.00000000000E+00  0.49671818598E+03  0.49671818598E+03  0.00000000000E+00 0. -1.
         21   -1    0    0  502  503 -0.00000000000E+00 -0.00000000000E+00 -0.23721023518E+03  0.23721023518E+03  0.00000000000E+00 0. -1.
          6    1    1    2  501    0 -0.39183045850E+02  0.26218446851E+02  0.44267073251E+03  0.47760767944E+03  0.17300000000E+03 0. -1.
         -6    1    1    2    0  503  0.39183045850E+02 -0.26218446851E+02 -0.18316278171E+03  0.25632074173E+03  0.17300000000E+03 0. -1.
<mgrwt>
<rscale>  2 0.17930900E+03</rscale>
<asrwt>0</asrwt>
<pdfrwt beam="1">  1       21 0.76418182E-01 0.17930900E+03</pdfrwt>
<pdfrwt beam="2">  1       21 0.36493882E-01 0.17930900E+03</pdfrwt>
<totfact> 0.11141993E+04</totfact>
</mgrwt>
</event>
<event>
 4    2  0.4063641E+000  0.1788335E+03  0.7546771E-02  0.1168937E+00
         21   -1    0    0  501  502  0.00000000000E+00  0.00000000000E+00  0.10557110469E+03  0.10557110469E+03  0.00000000000E+00 0. -1.
         21   -1    0    0  502  503 -0.00000000000E+00 -0.00000000000E+00 -0.34722356867E+03  0.34722356867E+03  0.00000000000E+00 0. -1.
          6    1    1    2  501    0 -0.27374835782E+02  0.36097575981E+02 -0.39972202463E+02  0.18324626489E+03  0.17300000000E+03 0. -1.
         -6    1    1    2    0  503  0.27374835782E+02 -0.36097575981E+02 -0.20168026151E+03  0.26954840847E+03  0.17300000000E+03 0. -1.
<mgrwt>
<rscale>  2 0.17883349E+03</rscale>
<asrwt>0</asrwt>
<pdfrwt beam="1">  1       21 0.16241708E-01 0.17883349E+03</pdfrwt>
<pdfrwt beam="2">  1       21 0.53419011E-01 0.17883349E+03</pdfrwt>
<totfact> 0.11310152E+05</totfact>
</mgrwt>
</event>
<event>
 4    2  0.4063641E+000  0.3686320E+03  0.7546771E-02  0.1055217E+00
         21   -1    0    0  501  502  0.00000000000E+00  0.00000000000E+00  0.35546681383E+03  0.35546681383E+03  0.00000000000E+00 0.  1.
         21   -1    0    0  502  503 -0.00000000000E+00 -0.00000000000E+00 -0.67057291206E+03  0.67057291206E+03  0.00000000000E+00 0.  1.
          6    1    1    2  501    0  0.30639391368E+03 -0.10992420388E+03  0.17882259468E+03  0.40971585435E+03  0.17300000000E+03 0.  1.
         -6    1    1    2    0  503 -0.30639391368E+03  0.10992420388E+03 -0.49392869291E+03  0.61632387154E+03  0.17300000000E+03 0.  1.
<mgrwt>
<rscale>  2 0.36863201E+03</rscale>
<asrwt>0</asrwt>
<pdfrwt beam="1">  1       21 0.54687203E-01 0.36863201E+03</pdfrwt>
<pdfrwt beam="2">  1       21 0.10316506E+00 0.36863201E+03</pdfrwt>
<totfact> 0.21480518E+03</totfact>
</mgrwt>
</event>
<event>
 4    2  0.4063641E+000  0.1739058E+03  0.7546771E-02  0.1173835E+00
         21   -1    0    0  503  502  0.00000000000E+00  0.00000000000E+00  0.21380351585E+04  0.21380351585E+04  0.00000000000E+00 0. -1.
         21   -1    0    0  501  503 -0.00000000000E+00 -0.00000000000E+00 -0.20010393346E+02  0.20010393346E+02  0.00000000000E+00 0. -1.
          6    1    1    2  501    0 -0.59228085408E+01 -0.16707238548E+02  0.47484248143E+03  0.50568626010E+03  0.17300000000E+03 0. -1.
         -6    1    1    2    0  502  0.59228085408E+01  0.16707238548E+02  0.16431822837E+04  0.16523592917E+04  0.17300000000E+03 0. -1.
<mgrwt>
<rscale>  2 0.17390575E+03</rscale>
<asrwt>0</asrwt>
<pdfrwt beam="1">  1       21 0.32892831E+00 0.17390575E+03</pdfrwt>
<pdfrwt beam="2">  1       21 0.30785237E-02 0.17390575E+03</pdfrwt>
<totfact> 0.14392948E+04</totfact>
</mgrwt>
</event>
<event>
 4    2  0.4063641E+000  0.1733872E+03  0.7546771E-02  0.1174361E+00
         21   -1    0    0  503  502  0.00000000000E+00  0.00000000000E+00  0.14809397432E+04  0.14809397432E+04  0.00000000000E+00 0. -1.
         21   -1    0    0  501  503 -0.00000000000E+00 -0.00000000000E+00 -0.12584742692E+03  0.12584742692E+03  0.00000000000E+00 0. -1.
          6    1    1    2  501    0 -0.85558137764E+01  0.78060548334E+01 -0.58203267554E+02  0.18289548052E+03  0.17300000000E+03 0. -1.
         -6    1    1    2    0  502  0.85558137764E+01 -0.78060548334E+01  0.14132955838E+04  0.14238916896E+04  0.17300000000E+03 0. -1.
<mgrwt>
<rscale>  2 0.17338724E+03</rscale>
<asrwt>0</asrwt>
<pdfrwt beam="1">  1       21 0.22783687E+00 0.17338724E+03</pdfrwt>
<pdfrwt beam="2">  1       21 0.19361144E-01 0.17338724E+03</pdfrwt>
<totfact> 0.22590918E+03</totfact>
</mgrwt>
</event>
<event>
 4    2  0.4063641E+000  0.1807663E+03  0.7546771E-02  0.1167064E+00
         21   -1    0    0  503  502  0.00000000000E+00  0.00000000000E+00  0.92180195007E+03  0.92180195007E+03  0.00000000000E+00 0. -1.
         21   -1    0    0  501  503 -0.00000000000E+00 -0.00000000000E+00 -0.47268896943E+02  0.47268896943E+02  0.00000000000E+00 0. -1.
          6    1    1    2  501    0 -0.30094572495E+01 -0.52329606661E+02  0.19496571816E+03  0.26587229232E+03  0.17300000000E+03 0. -1.
         -6    1    1    2    0  502  0.30094572495E+01  0.52329606661E+02  0.67956733497E+03  0.70319855469E+03  0.17300000000E+03 0. -1.
<mgrwt>
<rscale>  2 0.18076627E+03</rscale>
<asrwt>0</asrwt>
<pdfrwt beam="1">  1       21 0.14181567E+00 0.18076627E+03</pdfrwt>
<pdfrwt beam="2">  1       21 0.72721386E-02 0.18076627E+03</pdfrwt>
<totfact> 0.49332077E+04</totfact>
</mgrwt>
</event>
<event>
 4    2  0.4063641E+000  0.2532514E+03  0.7546771E-02  0.1111267E+00
         21   -1    0    0  503  502  0.00000000000E+00  0.00000000000E+00  0.39285331871E+03  0.39285331871E+03  0.00000000000E+00 0.  1.
         21   -1    0    0  501  503 -0.00000000000E+00 -0.00000000000E+00 -0.19898770427E+03  0.19898770427E+03  0.00000000000E+00 0. -1.
          6    1    1    2  501    0  0.10723507564E+03  0.15069151312E+03  0.22232746489E+03  0.33699524510E+03  0.17300000000E+03 0.  1.
         -6    1    1    2    0  502 -0.10723507564E+03 -0.15069151312E+03 -0.28461850442E+02  0.25484577788E+03  0.17300000000E+03 0. -1.
<mgrwt>
<rscale>  2 0.25325144E+03</rscale>
<asrwt>0</asrwt>
<pdfrwt beam="1">  1       21 0.60438972E-01 0.25325144E+03</pdfrwt>
<pdfrwt beam="2">  1       21 0.30613493E-01 0.25325144E+03</pdfrwt>
<totfact> 0.25324446E+04</totfact>
</mgrwt>
</event>
<event>
 4    2  0.4063641E+000  0.1760922E+03  0.7546771E-02  0.1171640E+00
         21   -1    0    0  501  502  0.00000000000E+00  0.00000000000E+00  0.33561328390E+02  0.33561328390E+02  0.00000000000E+00 0.  1.
         21   -1    0    0  502  503 -0.00000000000E+00 -0.00000000000E+00 -0.14912398556E+04  0.14912398556E+04  0.00000000000E+00 0.  1.
          6    1    1    2  501    0  0.29644990233E+02 -0.14164107401E+02 -0.25860078475E+03  0.31286229121E+03  0.17300000000E+03 0.  1.
         -6    1    1    2    0  503 -0.29644990233E+02  0.14164107401E+02 -0.11990777425E+04  0.12119388928E+04  0.17300000000E+03 0.  1.
<mgrwt>
<rscale>  2 0.17609216E+03</rscale>
<asrwt>0</asrwt>
<pdfrwt beam="1">  1       21 0.51632816E-02 0.17609216E+03</pdfrwt>
<pdfrwt beam="2">  1       21 0.22942150E+00 0.17609216E+03</pdfrwt>
<totfact> 0.22767793E+04</totfact>
</mgrwt>
</event>
<event>
 4    2  0.4063641E+000  0.2040473E+03  0.7546771E-02  0.1146369E+00
         21   -1    0    0  501  502  0.00000000000E+00  0.00000000000E+00  0.35283521238E+02  0.35283521238E+02  0.00000000000E+00 0.  1.
         21   -1    0    0  502  503 -0.00000000000E+00 -0.00000000000E+00 -0.16003290241E+04  0.16003290241E+04  0.00000000000E+00 0.  1.
          6    1    1    2  501    0  0.95973425210E+02 -0.49954105084E+02 -0.36341140531E+03  0.41677711126E+03  0.17300000000E+03 0.  1.
         -6    1    1    2    0  503 -0.95973425210E+02  0.49954105084E+02 -0.12016340975E+04  0.12188354341E+04  0.17300000000E+03 0.  1.
<mgrwt>
<rscale>  2 0.20404733E+03</rscale>
<asrwt>0</asrwt>
<pdfrwt beam="1">  1       21 0.54282345E-02 0.20404733E+03</pdfrwt>
<pdfrwt beam="2">  1       21 0.24620445E+00 0.20404733E+03</pdfrwt>
<totfact> 0.16214858E+04</totfact>
</mgrwt>
</event>
<event>
 4    2  0.4063641E+000  0.1880575E+03  0.7546771E-02  0.1160225E+00
         21   -1    0    0  503  502  0.00000000000E+00  0.00000000000E+00  0.40591819358E+02  0.40591819358E+02  0.00000000000E+00 0. -1.
         21   -1    0    0  501  503 -0.00000000000E+00 -0.00000000000E+00 -0.90655669253E+03  0.90655669253E+03  0.00000000000E+00 0.  1.
          6    1    1    2  501    0 -0.26537231482E+02 -0.68792544528E+02 -0.52644047496E+03  0.55902165657E+03  0.17300000000E+03 0. -1.
         -6    1    1    2    0  502  0.26537231482E+02  0.68792544528E+02 -0.33952439821E+03  0.38812685532E+03  0.17300000000E+03 0. -1.
<mgrwt>
<rscale>  2 0.18805754E+03</rscale>
<asrwt>0</asrwt>
<pdfrwt beam="1">  1       21 0.62448953E-02 0.18805754E+03</pdfrwt>
<pdfrwt beam="2">  1       21 0.13947026E+00 0.18805754E+03</pdfrwt>
<totfact> 0.66684702E+04</totfact>
</mgrwt>
</event>
<event>
 4    2  0.4063641E+000  0.2754165E+03  0.7546771E-02  0.1098219E+00
         21   -1    0    0  503  502  0.00000000000E+00  0.00000000000E+00  0.11395860885E+04  0.11395860885E+04  0.00000000000E+00 0. -1.
         21   -1    0    0  501  503 -0.00000000000E+00 -0.00000000000E+00 -0.67758948081E+02  0.67758948081E+02  0.00000000000E+00 0. -1.
          6    1    1    2  501    0  0.19887138384E+03 -0.79846230382E+02  0.45571297614E+03  0.53247400353E+03  0.17300000000E+03 0. -1.
         -6    1    1    2    0  502 -0.19887138384E+03  0.79846230382E+02  0.61611416426E+03  0.67487103302E+03  0.17300000000E+03 0. -1.
<mgrwt>
<rscale>  2 0.27541650E+03</rscale>
<asrwt>0</asrwt>
<pdfrwt beam="1">  1       21 0.17532092E+00 0.27541650E+03</pdfrwt>
<pdfrwt beam="2">  1       21 0.10424454E-01 0.27541650E+03</pdfrwt>
<totfact> 0.13999413E+04</totfact>
</mgrwt>
</event>
<event>
 4    2  0.4063641E+000  0.1824650E+03  0.7546771E-02  0.1165439E+00
         21   -1    0    0  501  502  0.00000000000E+00  0.00000000000E+00  0.16186610496E+03  0.16186610496E+03  0.00000000000E+00 0. -1.
         21   -1    0    0  502  503 -0.00000000000E+00 -0.00000000000E+00 -0.46280468146E+03  0.46280468146E+03  0.00000000000E+00 0. -1.
          6    1    1    2  501    0 -0.57839827025E+02 -0.43616147213E+01  0.82334360853E+02  0.20018095876E+03  0.17300000000E+03 0. -1.
         -6    1    1    2    0  503  0.57839827025E+02  0.43616147213E+01 -0.38327293736E+03  0.42448982766E+03  0.17300000000E+03 0. -1.
<mgrwt>
<rscale>  2 0.18246498E+03</rscale>
<asrwt>0</asrwt>
<pdfrwt beam="1">  1       21 0.24902478E-01 0.18246498E+03</pdfrwt>
<pdfrwt beam="2">  1       21 0.71200719E-01 0.18246498E+03</pdfrwt>
<totfact> 0.27388411E+04</totfact>
</mgrwt>
</event>
<event>
 4    2  0.4063641E+000  0.4765154E+03  0.7546771E-02  0.1020097E+00
         21   -1    0    0  501  502  0.00000000000E+00  0.00000000000E+00  0.15475949686E+03  0.15475949686E+03  0.00000000000E+00 0.  1.
         21   -1    0    0  502  503 -0.00000000000E+00 -0.00000000000E+00 -0.19483984997E+04  0.19483984997E+04  0.00000000000E+00 0. -1.
          6    1    1    2  501    0  0.32744825057E+03 -0.29985919420E+03 -0.37423782126E+03  0.60590497605E+03  0.17300000000E+03 0.  1.
         -6    1    1    2    0  503 -0.32744825057E+03  0.29985919420E+03 -0.14194011816E+04  0.14972530205E+04  0.17300000000E+03 0. -1.
<mgrwt>
<rscale>  2 0.47651537E+03</rscale>
<asrwt>0</asrwt>
<pdfrwt beam="1">  1       21 0.23809152E-01 0.47651537E+03</pdfrwt>
<pdfrwt beam="2">  1       21 0.29975363E+00 0.47651537E+03</pdfrwt>
<totfact> 0.44630606E+02</totfact>
</mgrwt>
</event>
<event>
 4    2  0.4063641E+000  0.2794350E+03  0.7546771E-02  0.1095998E+00
         21   -1    0    0  501  502  0.00000000000E+00  0.00000000000E+00  0.27727428565E+03  0.27727428565E+03  0.00000000000E+00 0.  1.
         21   -1    0    0  502  503 -0.00000000000E+00 -0.00000000000E+00 -0.32226656539E+03  0.32226656539E+03  0.00000000000E+00 0. -1.
          6    1    1    2  501    0  0.50407422676E+02 -0.21357434839E+03 -0.12896755795E+03  0.30776052631E+03  0.17300000000E+03 0.  1.
         -6    1    1    2    0  503 -0.50407422676E+02  0.21357434839E+03  0.83975278205E+02  0.29178032473E+03  0.17300000000E+03 0. -1.
<mgrwt>
<rscale>  2 0.27943498E+03</rscale>
<asrwt>0</asrwt>
<pdfrwt beam="1">  1       21 0.42657582E-01 0.27943498E+03</pdfrwt>
<pdfrwt beam="2">  1       21 0.49579472E-01 0.27943498E+03</pdfrwt>
<totfact> 0.19604707E+04</totfact>
</mgrwt>
</event>
<event>
 4    2  0.4063641E+000  0.3349601E+03  0.7546771E-02  0.1068963E+00
         21   -1    0    0  503  502  0.00000000000E+00  0.00000000000E+00  0.43597381864E+03  0.43597381864E+03  0.00000000000E+00 0. -1.
         21   -1    0    0  501  503 -0.00000000000E+00 -0.00000000000E+00 -0.36021344640E+03  0.36021344640E+03  0.00000000000E+00 0. -1.
          6    1    1    2  501    0 -0.14624913001E+03 -0.24673966980E+03 -0.17485230166E+03  0.37785129360E+03  0.17300000000E+03 0. -1.
         -6    1    1    2    0  502  0.14624913001E+03  0.24673966980E+03  0.25061267390E+03  0.41833597144E+03  0.17300000000E+03 0. -1.
<mgrwt>
<rscale>  2 0.33496011E+03</rscale>
<asrwt>0</asrwt>
<pdfrwt beam="1">  1       21 0.67072895E-01 0.33496011E+03</pdfrwt>
<pdfrwt beam="2">  1       21 0.55417453E-01 0.33496011E+03</pdfrwt>
<totfact> 0.57521316E+03</totfact>
</mgrwt>
</event>
